default_name
276638
  52.7610643  69.7964931  72.5017776  53.2982513  70.5735801  72.8590826
  52.1153469  69.4923860  73.2163882  52.4203264  70.0335094  71.5810059
  53.6679425  68.6742508  72.2995646  53.3500603  67.8275490  72.9079609
  53.6697643  68.2476167  70.8315680  52.6530887  67.9734019  70.5500076
  54.0018790  69.0864811  70.2199256  54.5811797  67.0650133  70.5679225
  55.5533274  67.1697806  69.8207761  54.2661615  65.9285869  71.1786374
  54.8386668  65.1083080  71.0390669  53.4555275  65.8898177  71.7798614
  55.0809360  69.0365845  72.7460582  55.8674080  69.5828204  71.9736320
  55.3937526  68.7273608  74.0011676  54.7108530  68.3037679  74.6129817
  56.7116905  69.0266333  74.5405790  56.9394312  70.0842584  74.4076786
  56.7484397  68.7030317  76.0338082  55.8202796  69.1302835  76.4133790
  56.7210943  67.6190807  76.1451747  57.9285909  69.2662513  76.8240915
  58.8539348  69.0196025  76.3035112  57.8090789  70.7733401  76.9560433
  56.8841378  71.0207624  77.4769705  58.6579593  71.1575156  77.5216510
  57.7991764  71.2257562  75.9644174  58.0120665  68.6127517  78.1908735
  58.1460549  67.5375149  78.0725001  58.8580749  69.0254705  78.7404499
  57.0921229  68.8051317  78.7429539  57.7821051  68.2319464  73.8020756
  57.6216565  67.0372115  73.5414574  58.8814558  68.9018271  73.4648308
  58.9903709  69.8771610  73.7034950  59.9400273  68.2555205  72.7094448
  59.5138240  67.7237381  71.8587642  60.9349321  69.2877133  72.1900572
  61.5859570  68.8082380  71.4590516  60.3819512  70.0946629  71.7092824
  61.7181237  69.8156513  73.2443467  62.3350059  70.4614939  72.8922904
  60.6638042  67.2314540  73.5785587  60.6331223  67.3121146  74.8086260
  61.3235397  66.2498409  72.9580181  61.3841476  65.8836797  71.5793312
  62.1512991  66.4875287  71.0946197  60.4163612  66.0921743  71.1232406
  61.7176049  64.4085197  71.5754300  62.2128334  64.1254809  70.6465937
  60.8173336  63.8076805  71.7042908  62.6552565  64.2549187  72.7793848
  63.6935506  64.5222359  72.5829521  62.6119878  63.2471946  73.1925671
  62.0435218  65.2436793  73.7586995  61.3014284  64.7000294  74.3433707
  63.0839725  65.8397907  74.6910211  63.1951604  65.4160731  75.8508412
  63.8448882  66.8299961  74.2192589  63.7617267  67.1508616  73.2651998
  64.8674242  67.4334090  75.0645418  65.5111428  66.6583987  75.4805762
  65.7270735  68.3947162  74.2467297  66.0983269  67.7882939  73.4205807
  65.0929015  69.1906015  73.8562269  66.9083275  69.0077778  74.9995488
  66.5355231  69.5172390  75.8881247  67.8959304  67.9309516  75.4110327
  68.2695472  67.4213227  74.5228955  68.7294704  68.3867250  75.9454318
  67.3989439  67.2104757  76.0606629  67.5908271  70.0642016  74.1535087
  66.8786069  70.8533323  73.9124391  68.4286205  70.4882814  74.7070064
  67.9567347  69.6117425  73.2318301  64.2418291  68.1540976  76.2507870
  64.7435303  68.0587545  77.3761592  63.1515943  68.8883715  76.0202855
  62.8091200  69.0507364  75.0840973  62.4630690  69.5365521  77.1304493
  63.1578706  70.1728923  77.6785562  61.3174923  70.4017107  76.6072287
  60.7337355  69.7862867  75.9226992  60.7016121  70.6757535  77.4637870
  61.7756082  71.6585987  75.8913423  62.0626794  72.3894216  76.6473772
  62.6452432  71.4014963  75.2865840  60.6999551  72.2476014  75.0032386
  60.2485229  71.5486439  74.0719168  60.3046985  73.4092280  75.2354043
  61.9464488  68.5130296  78.1351952  62.0440870  68.7244047  79.3468867
  61.3791119  67.4044977  77.6538555  61.2464902  67.2673299  76.6620411
  60.8817503  66.3786669  78.5675860  60.1595226  66.8123322  79.2592657
  60.1945971  65.2662683  77.7784898  59.3445911  65.6897653  77.2434763
  60.9053986  64.8542091  77.0622018  59.7440548  64.2375424  78.6409801
  59.3164363  63.5509164  78.1239820  62.0089238  65.8079950  79.4164644
  61.8592580  65.6280696  80.6360065  63.1619920  65.5510002  78.7960143
  63.2718717  65.6695325  77.7990309  64.2867285  65.0231070  79.5569549
  63.9772682  64.1441801  80.1224820  65.4120046  64.6207565  78.6072445
  64.9914378  63.8019126  78.0235344  65.6141553  65.4674869  77.9512851
  66.7122396  64.1630209  79.2617184  67.1773789  65.0145580  79.7583378
  66.4415149  63.0720334  80.2780370  65.9767676  62.2199183  79.7820444
  67.3805427  62.7585048  80.7341371  65.7722291  63.4518353  81.0499874
  67.6781958  63.6754926  78.2021402  67.8924831  64.4853792  77.5048138
  68.6043103  63.3502014  78.6760588  67.2340282  62.8395008  77.6618330
  64.7747001  66.0429949  80.5753489  65.0658308  65.6912506  81.7257123
  64.8748123  67.3124721  80.1760504  64.6841761  67.5908165  79.2240622
  65.3237612  68.3302681  81.1163621  66.2922375  68.0473658  81.5288172
  65.4694281  69.6739090  80.4069192  64.5056258  69.9749697  79.9963736
  65.8116213  70.4256795  81.1181472  66.1952044  69.5819345  79.5989040
  64.3511876  68.4414853  82.2806169  64.7617794  68.6385487  83.4289350
  63.0535923  68.3414522  81.9940847  62.7424412  68.2489577  81.0376700
  62.0459782  68.4254096  83.0432610  62.1554301  69.3600185  83.5933753
  60.6482531  68.3820312  82.4276509  60.5099856  69.2044570  81.7257983
  60.4966767  67.4344890  81.9106514  59.5593595  68.4956144  83.4368152
  58.9266981  67.4731659  84.0734113  59.2449569  66.4623552  83.8183177
  57.9817798  67.9669236  84.9378879  57.3740729  67.4129911  85.5243609
  57.9932929  69.3341883  84.8722476  57.2234029  70.2703935  85.5507719
  56.4778464  69.9152294  86.2621807  57.4529919  71.5890349  85.2796281
  56.8693729  72.3521530  85.7945451  58.4226549  71.9869647  84.3535388
  58.5956445  73.0424538  84.1434987  59.1878306  71.0588442  83.6793055
  59.9295126  71.4195927  82.9666562  58.9761863  69.7020995  83.9359192
  62.2258922  67.3043187  84.0560429  62.1936506  67.5351186  85.2720840
  62.4117616  66.0743327  83.5702200  62.3626140  65.8672668  82.5828966
  62.6342250  64.9705843  84.4982624  61.8133922  64.9212514  85.2137335
  62.7094113  63.6412789  83.7491394  63.4651499  63.7543263  82.9718500
  63.0361442  62.8880187  84.4660387  61.4013731  63.2066679  83.1216004
  60.6755883  63.0060545  83.9096941  61.0343097  64.0133822  82.4871096
  61.5559344  61.9604770  82.2781503  62.5507704  61.2428219  82.3874459
  60.5684172  61.6910163  81.4347745  60.6197725  60.8710940  80.8472444
  59.7696014  62.3069800  81.3839477  63.9026092  65.1918748  85.3096025
  63.9260905  64.9367783  86.5202897  64.9647573  65.6746934  84.6616992
  64.9436210  65.8288208  83.6637526  66.2184824  65.9121260  85.3726873
  66.5620182  65.0054319  85.8706713  67.3106179  66.3806238  84.3966914
  66.9453208  67.2459599  83.8436537  68.5664367  66.7581360  85.1511116
  68.9326129  65.8931170  85.7040655  69.3294591  67.0874657  84.4458179
  68.3433296  67.5662068  85.8477797  67.6252585  65.2881896  83.3958389
  66.7259405  65.0418736  82.8313412  68.3999360  65.6339012  82.7113991
  67.9766485  64.4015066  83.9234933  66.0055273  66.9153366  86.4986205
  66.4187168  66.6919800  87.6423291  65.3449151  68.0333269  86.1921775
  65.0330400  68.2124945  85.2483914  65.1109012  69.0579492  87.2042949
  66.0592723  69.3752428  87.6379031  64.4287020  70.2746860  86.5776237
  65.1186168  70.6896104  85.8428078  63.5315182  69.9177493  86.0718990
  64.0479468  71.3568291  87.5858210  63.3063359  70.9360023  88.2648048
  64.9440792  71.6222851  88.1466969  63.4766887  72.6054277  86.9196290
  63.3044914  73.3510165  87.6958664  64.2196428  72.9798020  86.2153830
  62.1731183  72.3299525  86.1829075  61.8680785  73.2463417  85.6776532
  62.3590804  71.5520242  85.4424044  61.0914039  71.8884866  87.1047399
  60.9186352  72.6093721  87.7907244  60.2478093  71.7173785  86.5763745
  61.3736854  71.0391182  87.5727032  64.2751884  68.5091314  88.3530278
  64.6182460  68.6882437  89.5290206  63.1604880  67.8463276  88.0322518
  62.8867258  67.6982662  87.0714025  62.2710451  67.3697663  89.0862583
  61.9631969  68.2041812  89.7164015  61.0252579  66.7303392  88.4811731
  61.3028639  65.9641574  87.7572949  60.4073881  66.2856022  89.2612666
  59.9656510  67.8834304  87.6038254  59.0487455  66.9875838  87.2493659
  62.9864926  66.3838918  89.9954471  62.9256229  66.5036719  91.2239798
  63.6779202  65.4008081  89.4164571  63.7036709  65.2744144  88.4147282
  64.3696995  64.4287598  90.2535512  63.6704843  63.9919068  90.9665426
  64.9581811  63.3091555  89.3989651  64.1013968  62.7226510  89.0672539
  65.4469920  63.7583201  88.5344333  65.9477971  62.3983245  90.1277320
  66.8189604  62.9868070  90.4155926  65.3162636  61.7915667  91.3661852
  64.4452432  61.2025164  91.0790580  66.0405198  61.1483518  91.8660135
  65.0085571  62.5871921  92.0447111  66.4246151  61.3062830  89.2048047
  66.9180466  61.7502499  88.3402134  67.1285009  60.6640693  89.7341510
  65.5726165  60.7136566  88.8716508  65.4561153  65.1048164  91.0775908
  65.6236087  64.8046316  92.2653097  66.2058056  66.0244761  90.4684304
  66.0449077  66.2588158  89.4992575  67.3021421  66.6805393  91.1636917
  67.9607832  65.9408171  91.6187766  68.1093290  67.5031399  90.1657541
  67.3655327  67.9193559  89.4863200  68.6191513  68.3138214  90.6863084
  69.1274537  66.6904195  89.3692891  68.6697823  65.7547522  89.0480968
  69.5752478  67.4753724  88.1553388  70.0334709  68.4110288  88.4757720
  70.3015339  66.8901964  87.5912658  68.7137149  67.6910499  87.5234017
  70.3154848  66.3011651  90.2349917  69.9711302  65.6995622  91.0761774
  71.0241864  65.7233415  89.6417268  70.8039278  67.2011776  90.6084885
  66.8150281  67.5726819  92.2943988  67.5795373  67.8454894  93.2257761
  65.5628560  68.0297168  92.2340146  64.9543062  67.7971705  91.4622059
  65.0600227  68.9336230  93.2635311  65.6393714  69.8569066  93.2647713
  63.5962629  69.2761042  92.9907602  63.5402432  69.6953018  91.9861535
  63.0303063  68.3452773  93.0275627  63.0105886  70.2638081  93.9843836
  62.9522353  69.7774291  94.9581039  63.6776826  71.1235089  94.0476469
  61.6274707  70.7270147  93.5671576  61.3656514  71.6077758  94.1535104
  61.6546352  70.9900548  92.5097213  60.5889809  69.6427843  93.7920313
  60.7077234  68.8907918  93.0119621  60.7762187  69.1888025  94.7651405
  59.2037040  70.1803759  93.7547713  59.0298575  70.6007087  92.8529967
  58.5466828  69.4287888  93.9081988  59.0933378  70.8769002  94.4778012
  65.2077200  68.3388255  94.6587843  65.4785748  69.0643349  95.6213433
  65.0375320  67.0260893  94.7929658  64.8901504  66.4506228  93.9761327
  64.9959116  66.3894855  96.1032720  64.6951248  67.1146554  96.8594170
  63.9864192  65.2381304  96.1005509  64.2525055  64.5642023  95.2862301
  64.0901837  64.7163603  97.0519125  62.5605533  65.6922517  95.9303351
  61.8145262  66.1191001  97.0179696  62.2781243  66.1196570  98.0044664
  60.5103753  66.5375282  96.8695132  59.9317584  66.8617473  97.7344909
  59.9367351  66.5369301  95.6193490  58.6370306  66.9593232  95.4636462
  58.2292118  67.2303131  96.2893871  60.6577245  66.1235435  94.5228888
  60.2039845  66.1278731  93.5318279  61.9607711  65.7023039  94.6826535
  62.5359630  65.3700085  93.8184579  66.3497950  65.8690756  96.5639966
  66.4368019  65.3054280  97.6586332  67.4021469  66.0372912  95.7705081
  67.2950036  66.4546384  94.8570306  68.7286807  65.5948360  96.1759601
  68.6576582  64.6392134  96.6954218  69.6262506  65.4205164  94.9554421
  69.7667990  66.3922168  94.4820039  70.5912516  65.0332540  95.2823992
  69.0489173  64.5238808  94.0277640  69.6300633  64.4298257  93.2694614
  69.3244362  66.6173060  97.1352189  69.4623629  67.7944674  96.7861684
  69.6734026  66.1759388  98.3429649  69.5116731  65.2189086  98.6223145
  70.2532494  67.0909963  99.3167660  69.6951399  68.0269754  99.3403453
  70.2202587  66.4669245 100.7129178  70.9212220  66.9995610 101.3556067
  68.8211420  66.5564509 101.3049336  68.1196506  66.0236109 100.6629905
  68.8169332  66.1075463 102.2981940  68.5233211  67.6024095 101.3782395
  70.6166771  65.0920101 100.6366238  70.5948709  64.7035337 101.5142404
  71.6821175  67.4840331  98.9733797  72.2217598  68.3987196  99.6051786
  72.3062050  66.8197679  98.0000737  71.8445814  66.0342605  97.5642056
  73.6567021  67.1507799  97.5716233  74.1782691  67.7044825  98.3523157
  74.4403130  65.8690833  97.2738672  75.3471444  66.1255011  96.7261382
  74.8121269  65.1655284  98.5660738  73.9057284  64.9083660  99.1141696
  75.3686232  64.2563981  98.3382730  75.4294637  65.8257746  99.1752296
  73.6389541  64.9957673  96.4707151  74.1300297  64.1922894  96.2839847
  73.6913209  68.0547208  96.3469958  74.7709563  68.5259594  95.9747990
  72.5472034  68.3074352  95.7178126  71.6937503  67.8694033  96.0337956
  72.4857492  69.1776417  94.5535008  73.3487893  69.0032790  93.9109600
  71.2157122  68.8920199  93.7534188  71.0942242  67.8125867  93.6630649
  70.3443253  69.3145878  94.2536399  71.2180327  69.4409561  92.3602638
  70.4146838  70.4251954  91.8665538  69.6992215  70.8691033  92.5587672
  70.6991892  70.6495990  90.5423935  70.2485614  71.3330796  89.9508798
  71.6991852  69.7975497  90.1543395  72.3221171  69.6507852  88.9225189
  72.0035226  70.2896076  88.0988065  73.3037667  68.7060456  88.8210830
  73.8131432  68.5609906  87.8684054  73.6731123  67.9167513  89.9141623
  74.4588338  67.1669496  89.8217576  73.0570459  68.0614604  91.1396869
  73.3810631  67.4214723  91.9603748  72.0491115  69.0201427  91.2742997
  72.5163177  70.6286234  95.0129122  71.7312995  71.0271308  95.8792269
  73.4205366  71.4186273  94.4370128  74.0231599  71.0323058  93.7244819
  73.6131768  72.8160761  94.8255441  72.8132556  73.1207937  95.5003569
  74.9521805  73.0065836  95.5377919  75.7260079  72.6095614  94.8807805
  75.0996261  74.0790089  95.6653215  75.0354739  72.3200185  96.8902336
  74.2614308  72.7339631  97.5364595  74.8578807  71.2539747  96.7484123
  76.3960291  72.5251159  97.5348155  77.1568692  72.0992490  96.8807064
  76.5695505  73.5956348  97.6442636  76.4698218  71.8587670  98.8974573
  75.7057184  72.3024416  99.5357358  76.2631546  70.7962746  98.7690137
  77.8041729  72.0307855  99.5296645  77.9956841  73.0152359  99.6491659
  77.8110843  71.5746335 100.4307624  78.5123038  71.6193567  98.9385841
  73.5343814  73.6919298  93.5833003  74.5616629  74.0781331  93.0129393
  72.3280678  74.0250242  93.1365772  71.0258253  73.6809812  93.6090354
  71.0218690  73.8087646  94.6915122  70.8517961  72.6325791  93.3668249
  70.0508720  74.6034894  92.9116635  69.9203817  75.5273106  93.4752466
  69.0836294  74.1180320  92.7817629  70.7190379  74.8641280  91.5559818
  70.4488420  75.8296707  91.1284066  70.5281268  74.0777444  90.8257399
  72.1882862  74.8645138  91.9454834  72.7389501  74.3996922  91.1276764
  72.7271824  76.2650428  92.1866027  72.7936010  76.7524460  93.3165455
  73.1167942  76.9148490  91.0948456  73.1137246  76.4668358  90.1896528
  73.6113397  78.2797110  91.1871130  74.4202465  78.3326023  91.9157910
  74.1439042  78.7439970  89.8315022  74.7675387  79.6015248  90.0841387
  74.7691954  77.9461041  89.4309052  73.1097522  79.1573387  88.7813897
  72.1638951  78.6651494  89.0076746  72.9099142  80.6586677  88.7814113
  73.8553049  81.1515680  88.5547298  72.1706045  80.9273308  88.0268638
  72.5598106  80.9791119  89.7626571  73.5235272  78.6826671  87.3999552
  73.6091965  77.5960395  87.3991206  72.7733842  78.9880292  86.6704754
  74.4854987  79.1226508  87.1370405  72.5023910  79.2047723  91.6763281
  71.3227624  79.0148379  91.3702099  72.8920110  80.2126048  92.4467168
  73.8756366  80.3650994  92.6179638  71.9327645  81.0987198  93.0931465
  71.3124533  80.5378787  93.7922677  72.6788200  82.1839167  93.8651375
  73.2818812  81.7065454  94.6374930  73.3307364  82.7200806  93.1754758
  71.7468508  83.1813508  94.5254590  70.5266048  83.0863104  94.4072513
  72.3228247  84.1517206  95.2260283  71.7512442  84.8446828  95.6877631
  73.3297365  84.1921794  95.2937966  71.0080480  81.7267800  92.0535150
  71.4967928  82.3638290  91.1105527  69.6843642  81.5998289  92.1922049
  68.9216183  80.8634932  93.1426202  68.7662564  81.4889236  94.0217104
  69.4849602  79.9741272  93.4250613  67.6290466  80.5262909  92.4340731
  66.8226420  80.3727182  93.1511687  67.7451553  79.6321065  91.8216562
  67.3729933  81.7600749  91.5587796  66.9029813  82.6004889  92.0695556
  66.7880056  81.4981836  90.6771323  68.7898564  82.1306452  91.1499171
  69.0115544  81.5879621  90.2309811  68.9352168  83.6210673  90.9039710
  68.4527651  84.1064253  89.8738186  69.5707189  84.3656928  91.8065228
  69.8755952  83.9467559  92.6734955  69.7901233  85.7933822  91.6144663
  69.0271703  86.2000555  90.9506751  69.7134010  86.5275497  92.9558211
  69.8934235  85.8133082  93.7592825  70.4831563  87.2989972  92.9769284
  68.3671300  87.1812565  93.1823978  67.8575740  87.8892693  92.3154056
  67.7817322  86.9464313  94.3498958  66.8821023  87.3585403  94.5522123
  68.2384971  86.3566710  95.0308139  71.1173633  86.1111151  90.9400875
  71.4421869  87.2917248  90.7779879  71.8889340  85.1031294  90.5412751
  71.6257997  84.1428423  90.7107108  73.1613078  85.3641986  89.8875099
  73.7839386  85.9912309  90.5256795  73.8999275  84.0544484  89.6202134
  74.0064262  83.5139799  90.5607723  73.3126293  83.4569743  88.9229289
  75.1801256  84.2987028  89.0694144  75.6247271  83.4628978  88.9101681
  72.9314744  86.1209020  88.5842683  71.8920478  85.9825173  87.9342198
  73.9193295  86.9347084  88.2040917  74.7918479  86.9722524  88.7114393
  73.7338127  87.8449853  87.0780399  72.9174767  88.5362370  87.2874817
  75.0083275  88.6522178  86.8420128  74.8329082  89.3713942  86.0419424
  75.3012598  89.1821028  87.7483861  76.1853769  87.8308124  86.4278428
  76.9455015  87.0274512  87.2230851  76.6641011  86.9694135  88.2745342
  77.9455687  86.4410290  86.4877514  78.6389414  85.7981170  86.8427133
  77.8475777  86.8681704  85.1907923  78.6259622  86.5542970  84.0840882
  79.4602285  85.8648337  84.2134670  78.2926448  87.1354982  82.8931811
  78.8810701  86.9128172  82.0030863  77.2090810  88.0139220  82.7876008
  76.9522721  88.4724464  81.8326641  76.4334307  88.3266235  83.8862333
  75.5979389  89.0134945  83.7510952  76.7502975  87.7470645  85.1167974
  73.3337301  87.1091758  85.8067091  72.6294614  87.6750654  84.9632753
  73.7720963  85.8589100  85.6430245  74.3648425  85.4142650  86.3293496
  73.4459955  85.1198108  84.4277103  73.8966540  85.6084020  83.5638326
  73.9832196  83.6913124  84.5164148  73.5163485  83.2899930  85.4158998
  73.6196108  83.1467053  83.6450412  75.4990824  83.5358280  84.6173881
  75.8702464  84.1757474  85.4179137  75.8615565  82.0949991  84.9139372
  75.4911009  81.4544829  84.1135620  76.9451365  81.9992513  84.9831299
  75.4095868  81.7931726  85.8587782  76.1636368  83.9973970  83.3368657
  75.9256125  85.0464646  83.1610787  77.2437492  83.8802230  83.4247782
  75.8004409  83.3981208  82.5019671  71.9446829  85.1047015  84.1854639
  71.4877335  85.2259107  83.0437444  71.1607698  84.9596988  85.2529739
  71.5592756  84.8433144  86.1737057  69.7136508  84.8945097  85.1142846
  69.4460547  84.2133334  84.3065158  69.0871010  84.3847024  86.4102248
  69.7125489  84.7385577  87.2297982  68.0916700  84.8197225  86.4995253
  68.9852156  82.8787168  86.4689846  70.1004691  82.0998457  86.7373563
  71.0565903  82.5938349  86.9102906  70.0160466  80.7250997  86.7875613
  70.8997269  80.1244191  87.0029535  68.8056276  80.1119970  86.5644160
  68.7174171  78.7405036  86.6143522  69.5564290  78.3175876  86.8113313
  67.6837760  80.8621599  86.2909154  66.7250072  80.3753073  86.1124852
  67.7782450  82.2362289  86.2434687  66.8945740  82.8360758  86.0257318
  69.1098599  86.2379513  84.7298096  67.9573429  86.2795351  84.2871399
  69.8528136  87.3311154  84.8940112  70.7901427  87.2381060  85.2585148
  69.3509912  88.6704120  84.6109623  68.2610378  88.6653438  84.6022929
  69.8269189  89.6501954  85.6858592  70.9037385  89.5561585  85.8262725
  69.5867865  90.6731569  85.3960555  69.1998401  89.4264768  87.0245773
  67.8765490  89.7101219  87.2821900  67.6026059  89.4134904  88.5396378
  66.6007642  89.5682848  88.9402010  68.6995716  88.9470072  89.1068244
  68.7895500  88.6395050  90.0646586  69.7130303  88.9445624  88.1803572
  70.7056822  88.5911832  88.4594030  69.7817179  89.1811776  83.2439630
  68.9776629  89.7943507  82.5373977  71.0283812  88.9386852  82.8528262
  71.6734432  88.4883824  83.4862469  71.5223134  89.3592091  81.5456141
  71.2170971  90.3935536  81.3872671  73.0490533  89.2911009  81.5200129
  73.3698018  88.2599516  81.6681735  73.4131605  89.6495383  80.5571791
  73.4545109  89.9151727  82.3164034  70.9514069  88.5299170  80.4083923
  71.3675022  88.7167718  79.2606297  70.0213943  87.6211835  80.6923551
  69.8099187  87.4444838  81.6640313  69.3480696  86.8148579  79.6803932
  68.6181654  86.1624502  80.1596669  68.6197996  87.7031255  78.6674235
  69.3801753  88.1551975  78.0305885  67.9839808  87.0522774  78.0672309
  67.7740018  88.7947769  79.2980364  68.4368783  89.4896155  79.8136863
  67.2431062  89.3208858  78.5046504  66.7721416  88.2251075  80.2851083
  66.1874190  87.4560945  79.7803139  67.3193633  87.7783791  81.1152177
  65.8428009  89.3010882  80.8133785  65.3501677  88.9195523  81.7077182
  66.4418040  90.1738163  81.0734558  64.8160179  89.6864504  79.8082310
  64.2605803  88.8779953  79.5674217  64.2181232  90.4025548  80.1952921
  65.2722840  90.0404165  78.9796005  70.3016962  85.8741758  78.9551166
  70.0351917  85.4729731  77.8188416  71.4159672  85.5060393  79.5867349
  71.6875198  85.9351759  80.4597757  72.3048408  84.5139525  78.9994967
  72.3430044  84.6414914  77.9176573  73.7175737  84.6766987  79.5607368
  73.6132790  84.4477991  80.6213153  74.3722161  83.9410389  79.0934595
  74.3214072  86.0724264  79.3977446  73.7472200  86.7781588  79.9980375
  75.7689114  86.0846906  79.8505084  76.3438635  85.3794909  79.2503230
  76.1804144  87.0864011  79.7266450  75.8241998  85.7970049  80.9004039
  74.2071011  86.5454396  77.9593797  73.1566549  86.5817360  77.6706847
  74.6431333  87.5402171  77.8677564  74.7393448  85.8543939  77.3057196
  71.8206141  83.0890964  79.2301553  72.2704646  82.1770887  78.5294004
  70.9156761  82.8787003  80.1851368  70.6908630  83.6359030  80.8145831
  70.2566291  81.5931054  80.3866550  70.4528530  80.9489605  79.5295245
  70.7656503  80.8950482  81.6495887  70.4905543  81.5756735  82.4553000
  70.2072380  79.9647864  81.7539375  72.2631873  80.6004953  81.7211832
  72.8167099  81.5358562  81.6386394  72.5993144  79.9293742  83.0382193
  72.0464831  78.9936518  83.1212846  73.6689494  79.7237025  83.0792199
  72.3245433  80.5875177  83.8625058  72.6974668  79.7269217  80.5626965
  72.4852489  80.2368124  79.6229761  73.7672475  79.5311127  80.6356996
  72.1528957  78.7832419  80.5944737  68.7597246  81.8385729  80.4823454
  68.2965160  82.4918574  81.4216751  68.0100150  81.3191173  79.5238995
  68.4192723  80.7662139  78.7843688  66.5754214  81.5654527  79.4885571
  66.3818106  82.6370169  79.5371800  65.9763492  81.0201695  78.1966141
  66.4154542  81.5682958  77.3630413  66.2497402  79.9675889  78.1229167
  64.4680720  81.1542480  78.1501316  63.9181791  81.9791931  78.9096712
  63.8317576  80.4371630  77.3504722  65.9181157  80.9130928  80.6983880
  66.0389562  79.6937004  80.8704017  65.2214152  81.6654703  81.5550125
  65.2913991  83.0578937  81.7324960  64.9697873  83.5270550  80.8026821
  66.3324175  83.3153683  81.9276539  64.3864791  83.3945004  82.8959888
  63.3669109  83.5739329  82.5548382  64.7508427  84.2730841  83.4283714
  64.4690602  82.1451711  83.7808090  63.5955019  81.9597920  84.4058126
  65.3627286  82.1696645  84.4043925  64.5970846  81.0501632  82.7335906
  65.3028616  80.3154359  83.1210862  63.2648403  80.3746983  82.4570452
  62.7965697  79.6063479  83.3084337  62.6394570  80.6287382  81.3081138
  63.0505960  81.2350282  80.6127891  61.3111616  80.0834398  81.0516705
  60.6989180  80.1506027  81.9509736  60.6284777  80.8766357  79.9348872
  60.6791203  81.9376206  80.1795206  61.1608861  80.6936948  79.0015201
  59.2739272  80.4903569  79.7888133  58.8696900  81.0014199  79.0838263
  61.3805682  78.6035935  80.6905282  60.8140675  77.7561394  81.3886769
  62.0679112  78.2760163  79.6035385  62.5277274  78.9773297  79.0406639
  62.1416096  76.8888740  79.1726570  61.1420225  76.4552370  79.1429294
  62.7593563  76.7872969  77.7793893  63.8383019  76.9200129  77.8591580
  62.4604457  75.4311143  77.1630297  61.3816230  75.2978590  77.0825057
  62.9079161  75.3758758  76.1706496  62.8770524  74.6452926  77.7931280
  62.2203316  77.8152359  76.9390959  62.6095464  77.7500008  76.0639636
  62.9661567  76.0771813  80.1720619  64.0158411  76.5384213  80.6294210
  62.5246586  74.8671028  80.5318321  61.3861840  74.1454917  80.1284095
  61.3228717  74.2083564  79.0420671  60.5148163  74.6279838  80.5711494
  61.5707231  72.7264751  80.6183425  62.1067536  72.1285466  79.8812863
  60.6078684  72.2621102  80.8313621  62.3907241  72.8996388  81.9021298
  63.0151760  72.0469200  82.1686435  61.7488204  73.1566960  82.7447334
  63.2664769  74.0870605  81.5361560  63.3531664  74.7098983  82.4264685
  64.6520294  73.6515861  81.0862847  65.4334708  73.1907647  81.9274737
  64.9818631  73.7756690  79.7993545  64.3696050  74.2593417  79.1580277
  66.1900020  73.1563094  79.2675160  66.2471018  72.0911036  79.4915143
  66.2385340  73.3413226  77.7378125  65.3090626  72.9694622  77.3066489
  66.4095787  74.8077746  77.3830052  67.3391317  75.1802493  77.8134642
  66.4416823  74.9185328  76.2991221  65.5708801  75.3787305  77.7813715
  67.3590434  72.5086239  77.1392470  67.1897839  71.4555691  77.3640332
  67.3801904  72.6501115  76.0586760  68.3123804  72.8217935  77.5648925
  67.4597549  73.6992331  79.9073679  68.5170721  73.0704865  79.7989425
  67.3900564  74.8509854  80.5773341  66.5089416  75.3165878  80.7414997
  68.6121418  75.4978556  81.0447102  69.3095816  75.6138021  80.2151119
  68.2995826  76.8791454  81.6161769  69.2159378  77.4629444  81.7031885
  67.5956147  77.4030822  80.9696326  67.6844400  76.8434035  82.9778579
  66.3235098  76.7864993  83.1794933  66.0731105  76.7683971  84.4768300
  65.0477159  76.7276003  84.8442542  67.2238516  76.8070440  85.1229447
  67.3418850  76.8026460  86.1260143  68.2482901  76.8547348  84.2093954
  69.2824752  76.8920009  84.5517018  69.3483559  74.6759217  82.0936065
  70.5489199  74.8882203  82.2934301  68.6680400  73.7492323  82.7710222
  67.6703678  73.6385070  82.6592657  69.3497098  72.9217682  83.7627229
  69.8690603  73.5395227  84.4953577  68.3479508  72.0031746  84.4846894
  67.7813784  71.4394654  83.7435227  69.0855807  71.0391892  85.3982146
  69.6520536  71.6021932  86.1399933  68.3665186  70.3944532  85.9035521
  69.7681696  70.4282834  84.8074816  67.3345129  72.8290039  85.2807150
  66.8793078  73.5326283  84.5837202  66.5754499  72.1367525  85.6450101
  67.9285098  73.5902306  86.4519948  68.6873824  74.2830634  86.0884086
  67.1417613  74.1478317  86.9601356  68.3835268  72.8871872  87.1496977
  70.4639133  72.1211791  83.1058204  71.5564014  71.9723300  83.6657620
  70.2055599  71.5827262  81.9126956  69.2785669  71.6039591  81.5122801
  71.2579158  70.8854949  81.1830398  71.6873998  70.1010881  81.8062160
  70.6835810  70.2455602  79.9187941  69.8593164  70.9004601  79.6363171
  71.4476119  70.2681437  79.1417184  70.1656882  68.8168326  80.0822396
  71.0012656  68.1690418  80.3473403  69.1094197  68.7453453  81.1638918
  68.2732565  69.3925676  80.8992539  68.7568686  67.7185044  81.2608784
  69.5363603  69.0734088  82.1116241  69.6145447  68.3038438  78.7697560
  70.4021449  68.3121989  78.0162870  69.2494483  67.2853161  78.9016931
  68.7944514  68.9439512  78.4444740  72.3992713  71.8343793  80.8395865
  73.5761167  71.5023284  81.0259147  72.0709717  73.0299920  80.3420620
  71.1107679  73.2881575  80.1646963  73.1207894  73.9740406  79.9726383
  73.7855957  73.5207956  79.2373146  72.5094545  75.2343914  79.3661182
  71.7081305  75.5622527  80.0283010  73.2890131  75.9956029  79.3353707
  71.9559610  75.0213782  77.9701357  72.6847184  74.4484826  77.3967213
  71.0301895  74.4518927  78.0522050  71.6803263  76.3330247  77.2675732
  71.1167593  76.1409131  76.3545648  71.0972163  76.9779580  77.9249493
  72.9168678  77.0192484  76.9171918  73.7481598  76.4508308  76.8400274
  73.0196367  78.3225749  76.7003355  71.9689044  79.1218667  76.7780534
  71.0628724  78.7390072  77.0074540  72.0773281  80.1114653  76.6076464
  74.2062378  78.8361909  76.3937779  75.0131651  78.2321820  76.3294224
  74.2957476  79.8282185  76.2265416  73.9866016  74.3134906  81.1756965
  75.2117640  74.4200086  81.0583854  73.3679520  74.4858053  82.3438079
  72.3613229  74.5434722  82.4027283  74.1421410  74.6498359  83.5674384
  74.7771683  75.5322129  83.4883794  73.2103855  74.8241840  84.7678231
  72.5279713  73.9742372  84.7685722  73.8322873  74.7909384  85.6623805
  72.4114165  76.1137147  84.7554571  73.1156513  76.9447854  84.7938703
  71.8516148  76.1554139  83.8211217  71.4502244  76.2112856  85.9253010
  71.2734270  75.1990836  86.6344299  70.8715169  77.2981038  86.1336870
  75.0566173  73.4488205  83.7634239  76.2775666  73.5869391  83.8907302
  74.4675604  72.2515824  83.7835435  73.4693466  72.1745102  83.6503953
  75.2237129  71.0364217  84.0603899  75.7250576  71.1013413  85.0260700
  74.2754123  69.8258260  84.0559020  73.6356330  69.8780906  83.1749643
  75.0672050  68.5378065  84.0277068  75.7069248  68.4846049  84.9086318
  74.3824495  67.6897484  84.0248281  75.6837847  68.5093300  83.1293095
  73.3693727  69.8585518  85.2859318  73.9101816  69.3802304  86.1025315
  73.1914894  70.9052741  85.5325681  72.0462347  69.1580133  85.0799158
  72.2233057  68.1110581  84.8336831  71.4551070  69.2208950  85.9935421
  71.5046142  69.6361009  84.2637176  76.3402550  70.8699315  83.0444859
  77.3911189  70.2934117  83.3465319  76.1278409  71.3585160  81.8229928
  75.2347273  71.7536020  81.5653989  77.1836029  71.3342954  80.8255590
  77.4919619  70.2988602  80.6810331  76.7794336  71.7261457  79.8921781
  78.3929916  72.1583994  81.2242475  79.5353812  71.7448455  81.0103195
  78.1619146  73.3326467  81.8066699  77.2082490  73.6025115  82.0010776
  79.2261718  74.2660088  82.1462781  80.0869754  74.1124549  81.4954805
  78.7230010  75.6991746  81.9615133  77.7799755  75.7211605  82.5076990
  79.4340052  76.3741892  82.4378834  78.4866177  76.1439051  80.5210857
  78.1549143  75.2886361  79.9323680  77.4279376  77.2288521  80.4767095
  77.7591542  78.0846945  81.0648661  77.2674166  77.5385692  79.4440387
  76.4952399  76.8441999  80.8892845  79.7781337  76.6239846  79.9075458
  80.5080591  75.8145198  79.9162057  79.5977350  76.9388742  78.8797316
  80.1632819  77.4659946  80.4826797  79.7418895  74.1083986  83.5707613
  80.5974822  74.8928707  83.9928733  79.2532969  73.1249196  84.3190154
  78.5787287  72.4869440  83.9214677  79.5868811  72.9865929  85.7347514
  78.9637839  72.2060583  86.1713460  81.0529921  72.6159707  85.9463704
  81.6539120  73.3820863  85.4564097  81.2404635  72.6392726  87.0198747
  81.4252854  71.2602653  85.4007162  80.5612835  70.6000722  85.4765226
  81.7094205  71.3672255  84.3538500  82.5839026  70.6679613  86.1808752
  83.4727304  71.2768929  86.0156889  82.3358192  70.6685580  87.2422675
  82.8721145  69.2998272  85.7694776  82.4255775  68.9716245  84.9250920
  83.6784748  68.4726982  86.4216592  84.2929533  68.8393974  87.5342579
  84.1508652  69.7687981  87.9032096  84.9013606  68.1882800  88.0096381
  83.8667775  67.2448090  85.9492409  83.3970604  66.9549054  85.1034148
  84.4787266  66.6072279  86.4382268  79.2385144  74.2492743  86.5141193
  79.9617890  74.6600171  87.4225279  78.1235497  74.8759108  86.1518619
  77.6402404  74.6298605  85.2998227  77.5986898  75.9714893  86.9500917
  78.4212968  76.5239802  87.4041519  76.7866158  76.9329039  86.0761450
  76.0598378  76.2884169  85.5816458  76.2666182  77.6235471  86.7400084
  77.5656683  77.7272742  85.0214844  78.0087589  77.0315607  84.3089156
  76.6438035  78.6813437  84.2889486  76.2006630  79.3777110  85.0008460
  77.2130151  79.2372818  83.5439441  75.8537441  78.1162210  83.7944360
  78.7188956  78.5018182  85.6343217  79.4076421  77.8081011  86.1164879
  79.2445431  79.0506823  84.8529485  78.3335570  79.2034906  86.3740980
  76.7449076  75.4273031  88.0784029  76.6633535  76.0369611  89.1493894
  76.1157937  74.2798971  87.8448018  76.1502873  73.9141480  86.9039846
  75.3669978  73.5364215  88.8470671  75.4064036  74.0726824  89.7952077
  73.9019675  73.3633495  88.4440494  73.8599167  73.0757594  87.3935149
  73.4623455  72.5742611  89.0541085  73.1777287  74.5644197  88.6333790
  72.2631188  74.4308332  88.3740663  76.0568688  72.1897996  88.9806734
  76.3390840  71.5366710  87.9748053  76.3232342  71.7710768  90.2127775
  76.0286207  72.2934919  91.0254181  77.1008041  70.5612951  90.4165598
  76.9525597  69.8829460  89.5763424  78.5927509  70.8894239  90.5232147
  79.1951925  69.9851139  90.4372678  78.8727461  71.5881898  89.7349070
  78.9699085  71.5332684  91.8195829  79.6944895  70.8809409  92.7929585
  79.8778070  71.6920460  93.8187442  80.4411663  71.3628238  94.6918639
  79.2868180  72.8418763  93.5525729  79.2566865  73.6495197  94.1582991
  78.7114563  72.7689875  92.3076135  78.1722484  73.6266294  91.9053618
  76.6441242  69.8240570  91.6597221  75.9369090  70.3678013  92.5135897
  77.0717860  68.5648588  91.7434736  77.5667841  68.1732283  90.9549925
  76.8181145  67.7094700  92.8925457  75.9838694  68.0757385  93.4908621
  76.4922934  66.2891423  92.4150178  77.1142738  66.0429706  91.5544135
  75.4414130  66.2328163  92.1311553  76.6931848  64.9405347  93.5935649
  78.0489642  67.7403527  93.7927792  79.1588763  67.4495346  93.3415199
  77.8411651  68.0914298  95.0654415  76.9141845  68.3116923  95.4005396
  78.9629417  68.2271000  95.9916876  79.7358871  68.8553676  95.5490427
  78.4982295  68.8708208  97.2941553  79.3712872  69.0721559  97.9149078
  77.9955067  69.8091415  97.0597969  77.6087605  68.0214661  97.9931885
  77.3316686  68.4485483  98.8070808  79.6331420  66.8935756  96.2857169
  80.8439696  66.8538428  96.5316801  78.8741745  65.8007971  96.2625982
  77.8800048  65.8532845  96.0923899  79.4578130  64.4967863  96.5525054
  79.9734152  64.5192153  97.5125838  78.3516943  63.4428575  96.6163911
  77.6591581  63.6755280  97.4253146  77.8093597  63.4146845  95.6713093
  78.8497070  62.0548090  96.8654585  78.8192070  61.4628934  98.1096111
  79.3225114  60.2452716  98.0284760  79.3862542  59.6112614  98.9128214
  79.6790373  60.0238508  96.7756012  80.0944850  59.1764223  96.4159237
  79.3930780  61.1404699  96.0276106  79.6154351  61.1533241  94.9606085
  80.5079183  64.1258679  95.5134229  81.5757953  63.6079888  95.8574430
  80.2189718  64.3798903  94.2361318  79.3174613  64.7516560  93.9731318
  81.1779131  64.0764777  93.1780470  81.6752749  63.1364143  93.4168192
  80.4443889  63.9165119  91.8471792  81.1491377  63.5973127  91.0793635
  80.0011729  64.8697641  91.5591342  79.1388093  62.6612184  91.8576177
  82.2560752  65.1520490  93.0519920  83.4229744  64.8328453  92.8009519
  81.8931366  66.4207645  93.2278947  80.9274587  66.6313664  93.4357704
  82.8300466  67.5356177  93.0788878  83.8531292  67.1776796  92.9636424
  82.4757267  68.4075156  91.8657924  81.5986840  69.0097151  92.1029654
  83.6378992  69.3212859  91.5183834  84.5152436  68.7197552  91.2806256
  83.3738270  69.9342024  90.6565831  83.8599541  69.9666836  92.3682393
  82.1120399  67.5482151  90.6781176  81.2519281  66.9271011  90.9281718
  81.8645007  68.1861368  89.8296602  82.9568543  66.9103861  90.4181878
  82.8241261  68.3634823  94.3590140  82.0927688  69.3593126  94.4532019
  83.6182316  67.9908902  95.3638925  84.3942911  66.8377689  95.4895574
  85.0570202  66.7879811  94.6256062  83.7202886  65.9811936  95.4796415
  85.1484769  66.9623483  96.7930408  86.0963842  67.4794428  96.6440970
  85.3352875  65.9801773  97.2272564  84.1976171  67.7794051  97.6762100
  84.6594819  68.3680372  98.4688589  83.4400011  67.1238395  98.1055716
  83.5623581  68.7035258  96.6494020  82.5060964  68.7900448  96.9042036
  84.2048281  70.0863882  96.6717168  83.8363151  70.8839112  97.5419015
  85.1323993  70.4193463  95.7684297  85.3409073  69.8016645  94.9970070
  85.9000987  71.6632834  95.8903806  85.4851826  72.2836914  96.6847594
  87.3556505  71.3435288  96.2301674  87.7895436  70.8700976  95.3494297
  87.8543073  72.2953351  96.4132147  87.5395925  70.4346797  97.4366274
  86.9357988  69.5412737  97.2773803  88.5922692  70.1566654  97.4884146
  87.1276856  71.0975839  98.7367292  87.7130300  72.0071781  98.8713002
  86.0690258  71.3517929  98.6846082  87.3672012  70.1615404  99.9135572
  86.7268128  69.2890065  99.7843759  88.4119329  69.8516555  99.8889378
  87.0715564  70.8037652 101.2223473  86.1034197  71.0905989 101.2455307
  87.2453769  70.1446735 101.9676557  87.6651490  71.6120509 101.3424354
  85.8431137  72.4932374  94.6038364  86.8716787  72.8546230  94.0350356
  84.6363463  72.7986083  94.1331091  83.8049070  72.4025456  94.5477684
  84.4833076  73.6657948  92.9691840  85.3194869  73.5261276  92.2840588
  83.1886967  73.3219990  92.2356295  83.2189080  72.2372333  92.1333074
  82.3687266  73.6013201  92.8972403  82.9738727  73.9564527  90.8636659
  83.0233758  75.0404379  90.9667507  84.0321717  73.4937531  89.8820644
  83.9829787  72.4098390  89.7780967  83.8574195  73.9595637  88.9122279
  85.0182184  73.7786574  90.2490002  81.5942273  73.5933847  90.3549841
  80.8409341  73.9640139  91.0501694  81.4372089  74.0447478  89.3753322
  81.5102448  72.5097335  90.2728503  84.4982690  75.1373356  93.3838993
  83.7812452  75.5363937  94.3068660  85.3122433  75.9437224  92.7005917
  85.9450503  75.5662929  92.0097939  85.3409567  77.3834938  92.9537318
  85.5262297  77.5664420  94.0121754  86.4482771  78.0541131  92.1409820
  86.4283706  77.6004578  91.1500735  86.1845818  79.1088203  92.0625120
  87.8455875  77.9232963  92.7305757  88.4734859  78.6970402  92.2888010
  87.7593767  78.0947677  93.8035456  88.4703318  76.5654374  92.4852094
  87.8568534  75.7419144  91.7760125  89.5848981  76.3281674  92.9959646
  83.9986746  78.0278285  92.6087831  83.4998518  77.8372643  91.4915785
  83.3836313  78.7874004  93.5177942  83.7410673  79.1440888  94.8466956
  84.7803106  79.4725018  94.8319137  83.6518455  78.2500242  95.4637751
  82.7923600  80.2389979  95.2779419  83.1799556  81.2191981  95.0003158
  82.6269550  80.2059514  96.3548126  81.5026783  79.9102499  94.5156252
  80.8877901  80.7857344  94.3069662  80.8988874  79.1540331  95.0172947
  82.0617366  79.3503561  93.2178322  81.4063771  78.5356642  92.9098073
  82.1233765  80.3953914  92.1143129  83.1399014  81.0609769  91.9101976
  81.0134753  80.5328170  91.4010896  80.2416711  79.8964271  91.5404655
  80.8884321  81.5601202  90.3626551  81.8501366  81.7338734  89.8799196
  79.8621625  81.1450233  89.3150701  79.7488875  81.9461231  88.5846536
  80.3228861  79.8846902  88.6139353  80.4359474  79.0829582  89.3436912
  79.5848151  79.5935753  87.8665371  81.2800577  80.0688908  88.1260914
  78.4880192  80.9196791  89.9491201  78.1161190  79.9593712  89.5919091
  78.6290518  80.8751704  91.0290406  77.4874843  82.0023921  89.6162753
  77.3455712  82.0471927  88.5364821  76.5357478  81.7789758  90.0983355
  77.8585054  82.9629928  89.9736119  80.5016886  82.8853059  91.0179849
  79.5655012  82.9090333  91.8310097  81.1808152  83.9949108  90.7142744
  82.1593732  84.2599218  89.7137373  81.8671608  83.7152634  88.8159292
  83.1128894  83.8762411  90.0766353  82.1830592  85.7566503  89.5028422
  81.4536945  86.0536795  88.7492508  83.1753899  86.0892624  89.1982929
  81.8189976  86.3138917  90.8851645  81.3254914  87.2845836  90.8371237
  82.6729486  86.3740285  91.5598875  80.8404723  85.2605881  91.3795912
  81.0070664  85.1433817  92.4503887  79.3901325  85.6500033  91.1321799
  78.8520482  85.4527620  90.0410510  78.7559713  86.2118550  92.1652604
  79.2198670  86.3542678  93.0510474  77.3500987  86.5890939  92.0516340
  76.7624239  85.7342941  91.7168878  76.8136861  87.0500555  93.4068952
  77.4355864  87.8864250  93.7259960  75.7939894  87.3982323  93.2422999
  76.8149453  85.9794816  94.4831474  75.9944021  86.1939931  95.1678331
  76.6400285  85.0199321  93.9965592  78.1171034  85.9231274  95.2574093
  79.0371517  86.7080143  94.9434512  78.2214120  85.0924107  96.1839606
  77.1452496  87.6864001  91.0168853  76.1890151  87.6417084  90.2350995
  78.0303629  88.6831914  90.9989223  78.8436837  88.6219324  91.5946201
  77.8661338  89.8705998  90.1769544  77.1718777  89.6616291  89.3630509
  77.3090597  91.0327404  91.0106064  76.5147954  90.6575809  91.6559735
  78.1007325  91.4643360  91.6230437  76.7221957  92.1540931  90.2188440
  77.3221817  93.3356201  89.9103415  78.3404159  93.4786225  90.2720724
  76.4717725  94.1214157  89.1778776  76.6803635  95.0448003  88.8258120
  75.2919448  93.4497957  88.9986174  74.1383987  93.8312059  88.3258740
  74.1138070  94.8096392  87.8461216  73.0999510  92.9471885  88.3089715
  72.1777805  93.2120639  87.7917263  73.1890708  91.7036955  88.9415532
  72.3527058  91.0050136  88.9206582  74.3335961  91.3233613  89.6093502
  74.3528620  90.3431588  90.0857246  75.4134793  92.2063449  89.6436604
  79.2189084  90.2456598  89.5871485  80.2436365  90.1176644  90.2717604
  79.2665650  90.7052931  88.3346869  78.2369578  90.9685226  87.3722082
  77.4486263  91.5298516  87.8737493  77.8422463  90.0095270  87.0366053
  78.8832386  91.7505909  86.2503217  78.8525556  92.8205844  86.4559218
  78.3861337  91.5490640  85.3014408  80.3236313  91.2240744  86.2363802
  81.0324069  91.9654240  85.8674130  80.4463913  90.2956686  85.6786235
  80.5606665  90.9746890  87.7173026  81.1830613  90.0835626  87.7986445
  81.2507723  92.1368677  88.4048990  80.5875158  93.0511383  88.9223979
  82.5808054  92.1504906  88.4349706  83.5659659  91.0958054  88.2520692
  83.8020078  91.0229920  87.1904277  83.1334510  90.1551428  88.5929266
  84.7559746  91.5180546  89.0838756  85.6745512  91.0752750  88.6988274
  84.6223384  91.2277465  90.1259716  84.7661410  93.0446785  88.9378996
  85.2238940  93.3586529  87.9998264  85.2391379  93.5715408  89.7666273
  83.2760860  93.3481156  88.9130180  82.9715549  93.5549819  89.9389641
  82.9287160  94.5363584  88.0332252  82.8234800  94.4131277  86.8121091
  82.7497160  95.6983018  88.6629509  82.9313424  95.8034646  89.6509044
  82.2122599  96.8402458  87.9337494  81.2712906  96.5648705  87.4574676
  81.9544502  98.0095866  88.8856976  81.7355216  98.8331503  88.2060563
  81.0612144  97.7670068  89.4613581  83.0779136  98.4199124  89.8376812
  83.5068154  97.5190165  90.2764642  84.1635554  99.1950764  89.1110619
  83.7354779 100.0964102  88.6723753  84.9471691  99.4717726  89.8163913
  84.5881402  98.5740641  88.3222831  82.5064422  99.2397151  90.9805442
  81.7723388  98.6445875  91.5236968  83.3100473  99.5304695  91.6571402
  82.0260531 100.1335249  90.5825124  83.1295401  97.2823074  86.8028738
  82.6888533  98.0257735  85.9188787  84.3900023  96.8421376  86.8016720
  84.7614540  96.2959187  87.5657191  85.2854388  97.1994316  85.7081636
  85.2989774  98.2844858  85.6053366  86.7030247  96.7205006  86.0148379
  86.7073269  95.6348144  86.1116213  87.3699063  97.0151694  85.2045666
  87.0449081  97.1692523  86.9474883  84.8068884  96.6211760  84.3835357
  85.0428857  97.2163741  83.3263406  84.1352299  95.4700975  84.4149355
  83.9236971  95.0392007  85.3035756  83.7365767  94.7762324  83.1994492
  84.3336197  95.1259745  82.3572382  83.9532244  93.2671941  83.3603624
  85.0144717  93.0889947  83.5338513  83.3823560  92.9283639  84.2248873
  83.5361867  92.5520004  82.2091419  83.6856635  91.6133467  82.3439969
  82.2878995  95.0391991  82.8159717  81.8764541  94.6459364  81.7201332
  81.5070311  95.6743030  83.6889863  81.8548462  95.8814755  84.6142990
  80.1293261  96.0369584  83.3702090  79.9808378  96.0052752  82.2908357
  79.1479423  95.0614894  84.0282926  78.1222722  95.3165897  83.7617899
  79.3606263  94.0393094  83.7152211  79.2095646  95.0555396  85.8301051
  78.2654305  94.1340373  85.9984573  79.7588345  97.4508023  83.7829021
  78.8165514  98.0084019  83.2097893  80.4493869  98.0528993  84.7483354
  81.1546696  97.5359195  85.2537140  80.2253180  99.4374918  85.1059762
  81.0816030  99.7626437  85.6968666  80.1857930 100.0097146  84.1791007
  78.9627860  99.6885980  85.8920192  78.6104872 100.8500759  86.1159626
  78.2736626  98.6385548  86.3207197  78.6197125  97.7171012  86.0942864
  77.0279634  98.7439160  87.0666001  76.7715871  99.7851998  87.2617881
  75.8556590  98.0798384  86.3255824  76.1041471  97.0367303  86.1299337
  74.5930006  98.1499222  87.1626434  74.3436018  99.1928072  87.3583267
  73.7726163  97.6755825  86.6240600  74.7539668  97.6318209  88.1080335
  75.6427297  98.7407368  84.9753234  76.5462343  98.6393393  84.3740746
  74.8096966  98.2601368  84.4623135  75.4191829  99.7978673  85.1188593
  77.2414180  98.0879805  88.4248651  77.6089676  96.9117792  88.4887162
  77.0324212  98.7868109  89.5359967  76.9517026 100.2037987  89.7423654
  76.1667287 100.5890584  89.0916034  77.9090169 100.6361228  89.4512566
  76.6460773 100.4141569  91.2081033  75.5703517 100.4105695  91.3838886
  77.0680945 101.3554738  91.5601336  77.3282512  99.2207686  91.8870033
  76.8315188  98.9347320  92.8141166  78.3913953  99.3695100  92.0759484
  77.1343193  98.1348558  90.8404070  78.0268800  97.5093859  90.8552747
  75.9112154  97.2759726  91.1034551  74.8900726  97.4140168  90.4155014
  75.9721401  96.3753757  92.0860387  77.0205074  96.0860851  93.0082323
  76.9720442  96.8050025  93.8261011  77.9752064  96.1874971  92.4921272
  76.7598070  94.6681549  93.4651253  77.1902361  94.4933372  94.4511622
  77.1734069  93.9507747  92.7563221  75.2298745  94.5835210  93.4993084
  74.7664414  94.9870320  94.3995903  74.8907970  93.5592227  93.3445855
  74.8587975  95.4397095  92.2987993  74.8231682  94.7801070  91.4317622
  73.5071271  96.1130736  92.4784458  73.2635738  96.7909258  93.4804410
  72.6208775  95.9204195  91.5018722  72.9358382  95.5065991  90.6360479
  71.2263846  96.3521658  91.5972804  70.7420932  96.2474468  90.6264071
  70.4666999  95.5035883  92.6159484  70.9537897  95.5686294  93.5888885
  69.4360609  95.8476813  92.7024552  70.4046484  94.0472409  92.2637285
  69.6196651  93.6079696  91.2137991  69.0431335  94.3332177  90.6395810
  69.5611892  92.2703902  90.8903954  68.9406786  91.9360150  90.0589746
  70.2885580  91.3542407  91.6195556  70.2430655  90.2952283  91.3655415
  71.0725361  91.7772179  92.6687847  71.6492611  91.0553261  93.2470239
  71.1273199  93.1165732  92.9875825  71.7457802  93.4539759  93.8193073
  71.1131822  97.8338585  91.9469114  70.2405857  98.2465739  92.7126120
  72.0010895  98.6459762  91.3811072  72.7338255  98.2730347  90.7944967
  71.9679485 100.0818774  91.6145990  70.9461324 100.3845136  91.8435146
  72.8713915 100.4859747  92.7831080  73.8413258 100.0186405  92.6130335
  72.9789563 101.5699241  92.7433131  72.3483310 100.0808811  94.1443706
  71.4729371 100.6860980  94.3799527  72.0652228  99.0286463  94.1169162
  73.3782691 100.2759330  95.2344382  74.4560844 100.8196098  94.9943262
  73.0544772  99.8313789  96.4424594  73.7059189  99.9361647  97.2071456
  72.1581423  99.3903664  96.5914334  72.4070774 100.8035367  90.3521428
  73.3289320 100.3590601  89.6649779  71.7469496 101.9160508  90.0581809
  70.9601498 102.2255083  90.6107037  72.1225200 102.7006639  88.8943965
  72.1313439 102.0650173  88.0089730  71.1275993 103.8384411  88.6688196
  71.0250911 104.3751693  89.6119602  71.5551628 104.5028195  87.9178929
  69.7615170 103.3642592  88.2056432  69.8795952 102.8644651  87.2442045
  69.3778804 102.6546724  88.9387268  68.7860030 104.5170620  88.0595371
  68.6735603 105.0039092  89.0282659  69.1920576 105.2287917  87.3407464
  67.4317986 104.0297198  87.5785080  67.5626461 103.5757444  86.5962219
  67.0715440 103.2778189  88.2806197  66.4410119 105.1358991  87.4852885
  66.7744415 105.8325286  86.8344184  65.5567975 104.7695688  87.1626945
  66.3193009 105.5564198  88.3954796  73.5304496 103.2568296  89.0864171
  73.9067270 103.6200866  90.2069106  74.3325490 103.3375999  88.0308008
  74.1163375 103.0144065  86.6608783  73.1624478 103.4505316  86.3642481
  74.0592533 101.9287997  86.5815162  75.2829443 103.5885772  85.8880383
  75.0823618 104.6179640  85.5910054  75.4929516 102.9896193  85.0018963
  76.4417656 103.5103484  86.8886143  77.2041208 104.2720071  86.7249388
  76.9111858 102.5269646  86.9150827  75.7193804 103.7756531  88.1996200
  76.1866075 103.1474698  88.9580281  75.8058033 105.2307808  88.6251921
  74.9707269 106.0625624  88.2629203  76.8393536 105.5296064  89.4132448
  77.4406653 104.8089724  89.7863535  77.0988052 106.9130221  89.7953494
  76.1670101 107.4034348  90.0770449  78.0534902 106.9569222  90.9875497
  78.7555289 106.1491159  90.7809346  78.5766515 107.9121900  90.9443573
  77.4553518 106.7672656  92.3789482  76.8543923 107.6436021  92.6218122
  76.5861152 105.5267196  92.4380517  77.1865270 104.6498565  92.1957385
  76.1742947 105.4184638  93.4414386  75.7716237 105.6185740  91.7195347
  78.5762700 106.6837183  93.3991728  79.1594762 107.6042581  93.3751620
  78.1530269 106.5482166  94.3944646  79.2223325 105.8386037  93.1615100
  77.6812370 107.7017733  88.6310408  77.2804931 108.8439451  88.3813668
  78.6256856 107.1066848  87.9087255  78.9092327 106.1603722  88.1189462
  79.3036284 107.8055524  86.8294670  79.6748945 108.7685078  87.1801487
  80.4854672 106.9811209  86.3260508  80.1087881 106.0932447  85.8182231
  81.3237319 107.7934665  85.3650320  81.7011703 108.6813328  85.8723123
  82.1623410 107.1914414  85.0151754  80.7128464 108.0940790  84.5138260
  81.2973922 106.5791887  87.4353831  82.0401173 106.0608615  87.1171117
  78.3366007 108.0856681  85.6841642  77.4338356 107.2979150  85.3960857
  78.5343054 109.2258920  85.0278301  79.2858992 109.8501362  85.2838091
  77.6482345 109.6222332  83.9508107  76.6100081 109.5009789  84.2598133
  77.8811874 111.0854413  83.5883316  78.0418679 111.6498691  84.5068642
  78.7707396 111.1510815  82.9618427  76.7724944 111.6243878  82.8913083
  76.9458864 112.5437908  82.6762891  77.8729461 108.7338539  82.7279416
  78.9482222 108.1571760  82.5574571  76.8638857 108.6038133  81.8587601
  75.5259796 109.0966145  81.8917484  75.5219928 110.1140661  81.5007540
  75.1851725 109.1044563  82.9270687  74.7320234 108.1407534  81.0308599
  73.8459192 108.6291634  80.6254292  74.4325728 107.2624208  81.6026662
  75.7191706 107.7607498  79.9208497  75.7914982 108.4807687  79.1057175
  75.4961101 106.7741356  79.5147265  77.0289971 107.7201780  80.6924445
  77.1486186 106.7048378  81.0704302  78.2160578 108.0757702  79.8139348
  78.8850030 107.1724371  79.2965272  78.4899980 109.3667317  79.6133729
  77.9443666 110.0955499  80.0506484  79.5567874 109.7564897  78.6965938
  79.3881224 109.3115290  77.7159505  79.5850701 111.2766663  78.5446822
  79.7343473 111.7232173  79.5277427  80.4161121 111.5472049  77.8933158
  78.3743412 111.7554197  77.9880957  78.4169827 112.7106901  77.9030072
  80.9115393 109.2434114  79.1668311  81.7083612 108.7422266  78.3650146
  81.1963382 109.3691744  80.4625310  80.5741667 109.8522584  81.0946953
  82.4630315 108.8707361  80.9855543  83.2934372 109.2723680  80.4048500
  82.6283890 109.3063603  82.4385080  81.8319839 108.8393759  83.0179592
  83.5937717 108.9397128  82.7873715  82.5657779 110.8114589  82.6150503
  83.1854825 111.2690311  81.8438858  81.5304430 111.1253221  82.4821086
  83.0540793 111.2488112  83.9797927  82.4894213 110.7271451  84.7525312
  84.1128990 111.0105081  84.0808474  82.8789682 112.6845566  84.1622406
  83.6379756 113.2797635  83.8626813  81.8044292 113.2497642  84.6970229
  80.7780362 112.5291644  85.1186286  80.8034242 111.5228936  85.0357150
  79.9738615 112.9886723  85.5214378  81.7546904 114.5737578  84.8036203
  82.5303827 115.1329907  84.4785661  80.9414343 115.0144751  85.2091837
  82.5593147 107.3572543  80.8543430  83.6283424 106.8216337  80.5357834
  81.4563024 106.6465900  81.0919521  80.6242428 107.0695474  81.4778060
  81.4509830 105.2079369  80.8463267  82.2067786 104.7228217  81.4640122
  80.0846532 104.6174120  81.1926163  79.3843905 105.2932899  80.7017799
  80.0238821 103.6327366  80.7291282  79.7296950 104.5051300  82.6751059
  79.8140071 105.4879115  83.1389300  78.3095933 103.9905781  82.8345595
  78.2246156 103.0075631  82.3713542  78.0670619 103.9143939  83.8945007
  77.6165127 104.6799827  82.3524175  80.7119372 103.5992604  83.4004068
  81.7183043 104.0083574  83.3111637  80.4383905 103.5352328  84.4535801
  80.6843283 102.6038125  82.9572136  81.8082694 104.9072957  79.3979410
  82.6670574 104.0624952  79.1195808  81.1595836 105.5951997  78.4588618
  80.4403368 106.2639880  78.6944582  81.4371071 105.3466841  77.0502228
  81.2483237 104.2999087  76.8120605  80.5355596 106.2162106  76.1765286
  79.4978483 106.0356519  76.4569801  80.7822541 107.2631183  76.3532378
  80.7126551 105.9148551  74.8034868  80.1364524 106.4732430  74.2764259
  82.9032607 105.6052630  76.7345289  83.5294521 104.8480799  75.9838118
  83.4709964 106.6713791  77.2997181  82.9420744 107.3243450  77.8600540
  84.8848867 106.9447235  77.0696076  85.0905703 106.9322271  75.9992632
  85.2713439 108.3129359  77.6245517  84.5089149 109.0267364  77.3126382
  85.2784115 108.2417299  78.7122004  86.6343334 108.7825702  77.1385792
  87.3710950 108.0308177  77.4216896  86.5963186 108.8622263  76.0521576
  87.0266975 110.1212631  77.7292963  88.0286875 110.3830884  77.3893512
  86.3201750 110.8811664  77.3954218  87.0219562 110.0872525  79.1855043
  86.6058326 109.2788004  79.6252151  87.5214187 111.0415836  79.9592430
  88.0724200 112.1297928  79.4462476  88.1179317 112.2445454  78.4438203
  88.4449319 112.8406186  80.0594860  87.4695247 110.8993742  81.2803931
  87.0526661 110.0707615  81.6800554  87.8472054 111.6206302  81.8780935
  85.7715268 105.8765905  77.6921719  86.8774873 105.6293240  77.1985612
  85.3202221 105.2414031  78.7736686  84.4384824 105.4842444  79.2022274
  86.1304225 104.2047678  79.3999596  87.1734985 104.5192760  79.4342578
  85.6504797 103.9471056  80.8288819  85.7146796 104.8849912  81.3805596
  84.6100045 103.6261779  80.7787151  86.4725937 102.8871342  81.5369317
  87.5739644 102.5595380  81.0511990  86.0167605 102.3818596  82.5837849
  86.0995835 102.9090707  78.6022352  87.0986268 102.1814297  78.5723022
  84.9740775 102.6073415  77.9551674  84.1792913 103.2293750  77.9937491
  84.8363535 101.3558952  77.2237112  85.2675579 100.5359476  77.7980351
  83.3573564 101.0578162  76.9819145  82.8532496 101.9433685  76.5949097
  83.2507700 100.2394052  76.2699153  82.6185147 100.6500846  78.2159509
  81.2433150 100.6521049  78.2936860  80.8725430 100.2504964  79.4966543
  79.8165932 100.1856065  79.7590630  81.9574387  99.9853595  80.2000026
  81.9813386  99.6572742  81.1549312  83.0634025 100.2277756  79.4223269
  84.0617062 100.0671231  79.8293669  85.5810481 101.3731592  75.8960863
  85.8120557 100.3058826  75.3180560  85.9600658 102.5528572  75.4018645
  85.7265286 103.4072442  75.8872330  86.6669681 102.6511005  74.1320679
  86.1157648 102.0692295  73.3933526  86.7122012 104.1065198  73.6719434
  87.2688492 104.7002230  74.3970362  87.2034418 104.1659759  72.7007339
  85.6966455 104.4936813  73.5891682  88.0817065 102.0966404  74.2010843
  88.7144977 101.9353502  73.1531164  88.5935929 101.8077966  75.3973985
  88.0650300 101.9889233  76.2387746  89.9412651 101.2712262  75.5305482
  90.5924994 101.6780865  74.7569478  90.5210489 101.6339150  76.8975996
  91.5382104 101.2477888  76.9638519  90.5384017 103.1417348  77.0888175
  89.5214656 103.5285535  77.0231535  90.9545469 103.3795859  78.0677706
  91.1516533 103.5998724  76.3128452  89.7317481 101.0339488  77.9303508
  90.0982885 101.2635058  78.7874109  89.9937713  99.7602546  75.3509400
  91.0550436  99.2282966  75.0111332  88.8867778  99.0605971  75.5694964
  88.0448668  99.5126790  75.8964631  88.8696857  97.6187268  75.3913400
  89.7539579  97.1784351  75.8521057  87.6268437  97.0157162  76.0450395
  86.8028675  97.3696539  75.4254505  87.6909159  95.9296858  75.9777152
  87.3819546  97.4229570  77.5006608  87.5929978  98.4865893  77.6113309
  85.9422006  97.1496284  77.8945884  85.7305298  96.0860496  77.7846138
  85.7864798  97.4451663  78.9321380  85.2739584  97.7210605  77.2503694
  88.3337115  96.6998331  78.4300711  89.3611096  96.9488539  78.1644748
  88.1405536  97.0054073  79.4583783  88.1856078  95.6239271  78.3373856
  88.9112491  97.2710442  73.9056444  88.6569875  98.1090482  73.0376252
  89.2373934  96.0134800  73.6130762  89.4858723  95.3569843  74.3392793
  89.3178818  95.5733983  72.2279453  89.9128729  96.2803082  71.6497038
  89.9741967  94.1990683  72.1419810  90.0674723  93.9171954  71.0931977
  90.9658256  94.2638328  72.5898401  89.1876793  93.1270290  72.8623810
  87.9671610  93.2038553  72.9823975  89.8903163  92.1104412  73.3422813
  89.4207539  91.3631694  73.8333982  90.8919562  92.0878937  73.2145713
  87.9288464  95.5630087  71.5876932  86.9178244  95.8931175  72.2108333
  87.8889261  95.1716515  70.3126607  88.7119977  94.8147597  69.8486770
  86.6501319  95.2503139  69.5552619  86.3085219  96.2848245  69.5897527
  86.8767000  94.9772165  68.5246387  85.5463928  94.3486113  70.0734718
  84.3686672  94.7071997  70.0049018  85.8995930  93.1728035  70.5899363
  86.8739101  92.9176518  70.6654557  84.8958923  92.1990979  71.0034472
  84.0124889  92.3216760  70.3768116  85.4400929  90.7821295  70.8096249
  86.3197458  90.6411343  71.4376624  84.6752504  90.0573148  71.0884792
  85.7134819  90.6371631  69.7644730  84.4632344  92.4036295  72.4515286
  83.2616981  92.4815945  72.7419664  85.4281420  92.4616896  73.3696012
  86.3940678  92.2836770  73.1342328  85.0943088  92.7253662  74.7619194
  84.4256979  91.9509394  75.1378474  86.3620518  92.7316092  75.6141762
  86.7535767  91.7196907  75.5101158  87.0631971  93.4392055  75.1716801
  86.1779787  93.0567019  77.0974944  85.8221783  94.0828741  77.1895677
  85.1782062  92.1165373  77.7387717  85.5335670  91.0901424  77.6474969
  85.0656724  92.3691157  78.7931156  84.2149635  92.2128901  77.2377928
  87.5089563  92.9865283  77.8192257  88.1994328  93.7065487  77.3800079
  87.3636704  93.2200048  78.8739683  87.9222915  91.9824947  77.7234670
  84.3485878  94.0416863  74.9036993  83.5291522  94.1935224  75.8112659
  84.6117434  95.0002422  74.0136882  85.3462676  94.8873555  73.3297072
  83.8817771  96.2641399  74.0431619  83.9762601  96.7307015  75.0237192
  84.4559364  97.2149666  72.9922691  85.5026631  97.3735416  73.2517233
  84.3938017  96.6980003  72.0346757  83.7527060  98.5538310  72.8898292
  82.7060143  98.3896147  72.6337625  83.8155816  99.0555901  73.8554309
  84.3745006  99.4504639  71.8363047  85.2512392  99.0265169  71.0846643
  83.9179288 100.6939895  71.7731586  84.2970765 101.3338115  71.0898020
  83.1931695 100.9954770  72.4087140  82.3940132  96.0383848  73.8104431
  81.5516540  96.5435601  74.5619362  82.0494233  95.2708250  72.7754900
  82.7405902  94.9043379  72.1366826  80.6438519  94.9883334  72.5097203
  80.0835496  95.9209086  72.4429073  80.4971792  94.2355935  71.1900390
  80.9276855  94.8205810  70.3772947  80.9994116  93.2699064  71.2475811
  79.0741552  93.9569097  70.8107620  78.1363810  94.9701089  70.7985571
  78.4408907  95.9811106  71.0692033  76.8279075  94.7147943  70.4493643
  76.0977961  95.5241058  70.4420942  76.4436002  93.4394790  70.1102408
  75.4091304  93.2353034  69.8340445  77.3661125  92.4208914  70.1197925
  77.0643954  91.4086597  69.8506198  78.6732753  92.6799880  70.4699744
  79.4050783  91.8722396  70.4803135  80.0201489  94.1883848  73.6439574
  78.8805417  94.4511576  74.0478494  80.7501992  93.2030674  74.1680015
  81.6584829  92.9601565  73.7990647  80.2112305  92.4021502  75.2645536
  79.2639203  91.9621600  74.9529271  81.1800799  91.2757837  75.6161704
  82.1305017  91.7008362  75.9388604  80.7602600  90.6728347  76.4213437
  81.3421522  90.6483916  74.7396940  79.9281070  93.2695289  76.4872859
  78.8643040  93.1609812  77.1112616  80.8731394  94.1395059  76.8435311
  81.7535073  94.1791852  76.3500969  80.6853781  95.0145967  77.9912731
  80.4112477  94.4363553  78.8736497  81.9781607  95.7691380  78.2852166
  82.2942844  96.2926615  77.3829476  81.7707260  96.7700955  79.4028162
  81.4550163  96.2472276  80.3056097  82.7046637  97.2975518  79.5968509
  81.0029992  97.4868885  79.1114333  82.9984152  94.8377881  78.6649588
  83.8121162  95.3123926  78.8500034  79.5402390  95.9886329  77.7600156
  78.7694224  96.2756237  78.6802873  79.4136484  96.5155758  76.5409647
  80.0887517  96.3453255  75.8092888  78.3052727  97.4202399  76.2617388
  78.3079743  98.2447277  76.9746987  78.4388856  97.9931813  74.8527083
  79.4769308  98.3014472  74.7280747  78.2136599  97.1866223  74.1549719
  77.5229167  99.1742672  74.5742450  76.4905647  98.8305531  74.6391359
  77.7010539  99.9335589  75.3357208  77.7733859  99.7699229  73.1958033
  77.7265225  98.9665065  72.4606673  76.9889597 100.4977490  72.9883327
  79.1311866 100.4515296  73.1157492  79.2157780 101.1411721  73.9555933
  79.9019768  99.6850806  73.1966036  79.3070587 101.1988551  71.8410404
  78.5931844 101.9093979  71.7661259  80.2182196 101.6344514  71.8291397
  79.2291356 100.5599259  71.0627111  76.9768714  96.6991529  76.4356597
  76.0375882  97.2414223  77.0301217  76.8829697  95.4693052  75.9283867
  77.6389813  95.0741456  75.3876514  75.6670285  94.6804448  76.0969706
  74.8179889  95.1967196  75.6489848  75.8332638  93.3266756  75.4093750
  76.1000655  93.5300185  74.3722792  76.6619691  92.8206915  75.9046806
  74.6044098  92.4411877  75.4500942  74.4333218  92.0587751  76.4563697
  73.7588039  93.0591643  75.1481711  74.7107440  91.2688892  74.4988013
  75.3577656  91.3592558  73.4567793  74.1188272  90.1449386  74.8768801
  74.1586174  89.3312606  74.2798489  73.6306925  90.1072812  75.7602870
  75.3480431  94.4962751  77.5754468  74.2216171  94.7498075  78.0240475
  76.3378764  94.0397313  78.3478501  77.2544500  93.8477583  77.9695134
  76.0989447  93.7565288  79.7580554  75.2841222  93.0397146  79.8597448
  77.3523450  93.1647285  80.3990313  78.1469776  93.8255017  80.0525675
  77.2392734  93.2680631  81.4782147  77.7095136  91.7187904  80.0610675
  78.0150783  91.6542176  79.0167680  78.8472799  91.2583955  80.9491860
  78.5422821  91.3222503  81.9936943  79.1023484  90.2264384  80.7081352
  79.7169641  91.8947867  80.7856135  76.5158343  90.7970725  80.2131201
  75.7194346  91.1194512  79.5423601  76.8094606  89.7773578  79.9639881
  76.1590030  90.8306524  81.2425096  75.6739380  95.0145751  80.5011077
  74.7660766  94.9721651  81.3386577  76.3274796  96.1440213  80.2251229
  77.0905354  96.1648401  79.5637518  75.9872415  97.3746073  80.9256757
  75.9422372  97.1916907  81.9992750  77.0444671  98.4419640  80.6566970
  78.0254357  97.9669674  80.6433529  76.8465116  98.8930297  79.6843527
  77.0196679  99.4447386  81.6555154  77.6918947 100.1030236  81.4648017
  74.6105708  97.8799140  80.5177776  73.8926936  98.4508235  81.3446384
  74.2272550  97.6864390  79.2554019  74.8564757  97.2959958  78.5685723
  72.8958481  98.0877698  78.8228015  72.6857620  99.1032714  79.1585389
  72.8032964  98.0486136  77.2980465  73.6159657  98.6620855  76.9090477
  72.9517100  97.0131267  76.9917129  71.4804921  98.5539614  76.7490653
  70.7227128  97.7882723  76.9151727  71.2057578  99.4596426  77.2897729
  71.5736850  98.8596383  75.2650418  70.5895140  99.1525602  74.8993875
  72.2757411  99.6796105  75.1138390  72.0312996  97.7064063  74.5010924
  72.9953753  97.7068463  74.1999991  71.2689557  96.6694261  74.1813003
  69.9976891  96.6054953  74.5447876  69.5897221  97.3596326  75.0785853
  69.4415743  95.8028748  74.2866475  71.7942102  95.6701255  73.4784980
  72.7631999  95.7098813  73.1964015  71.2217380  94.8759940  73.2300440
  71.8170676  97.2030680  79.4293858  70.6731208  97.6446265  79.5837125
  72.1526350  95.9603262  79.7750320  73.0898801  95.6130839  79.6297951
  71.1482565  95.0420860  80.3112136  70.1548855  95.3145395  79.9547274
  71.4542612  93.6118127  79.8607248  72.4129852  93.3052895  80.2790453
  70.3699615  92.6636137  80.3347849  69.4109512  92.9692456  79.9164693
  70.6029944  91.6508531  80.0059830  70.3154347  92.6882095  81.4231426
  71.5316079  93.5654069  78.4321153  71.7235762  92.6677716  78.1510470
  71.0463915  95.0980594  81.8365511  69.9734921  95.3770950  82.3788721
  72.1491291  94.8320656  82.5385105  73.0411123  94.7019377  82.0829536
  72.0816773  94.6685312  83.9883160  71.4163764  93.8420559  84.2381409
  73.4677373  94.3662333  84.5514213  74.0935871  95.1550593  84.1340908
  73.4198973  94.4760281  85.6348217  74.0655081  93.0060643  84.2043343
  74.0906210  92.8899017  83.1208324  75.4748187  92.9051616  84.7561107
  75.4504618  93.0207733  85.8396879  75.8952379  91.9314934  84.5044786
  76.0929287  93.6906074  84.3212368  73.1972765  91.8850020  84.7390233
  72.2023256  91.9539634  84.2992320  73.6427458  90.9245413  84.4798449
  73.1213743  91.9690058  85.8231272  71.5081303  95.8952340  84.6857242
  70.8243810  95.7608856  85.7057081  71.7670557  97.0932263  84.1595624
  72.2447093  97.1859876  83.2744964  71.4176921  98.3083964  84.8877572
  71.8919712  98.3048628  85.8691573  71.8990760  99.5377321  84.1169757
  71.5675440 100.4328855  84.6431756  72.9882702  99.5222265  84.0780456
  71.3802112  99.5455916  82.7998927  71.6954358 100.3249789  82.3364397
  69.9242518  98.4246281  85.1566386  69.5262518  99.2014249  86.0316133
  69.0878220  97.6791440  84.4339292  69.4490091  97.1307531  83.6665242
  67.6486415  97.6807973  84.6648547  67.3813196  98.4951501  85.3382549
  66.9013727  97.8731241  83.3447117  65.8901563  98.1932845  83.5957852
  67.4109544  98.6710179  82.8045340  66.8369558  96.6313643  82.4711632
  67.8353698  96.1984839  82.4088338  66.1592379  95.9149643  82.9354601
  66.3416634  96.9644531  81.0740854  66.0833608  96.0395905  80.5583260
  65.4566561  97.5960035  81.1515824  67.3516977  97.6691396  80.2923171
  68.3028342  97.3419175  80.3837746  67.1093534  98.6944564  79.4841465
  65.8852874  99.1634815  79.3029431  65.1078491  98.7377786  79.7871608
  65.7341274  99.9449933  78.6812602  68.1233993  99.2635274  78.8390178
  69.0614612  98.9125732  78.9692912  67.9508689 100.0440893  78.2217211
  67.1736915  96.4103401  85.3607788  65.9963827  96.0544043  85.2567129
  68.0613270  95.7227506  86.0723916  69.0215595  96.0291797  86.1368449
  67.6854778  94.4892892  86.7420029  67.0032917  93.9278610  86.1036302
  68.9184967  93.6290168  87.0146362  69.6070365  94.1742260  87.6602056
  68.6156288  92.7043750  87.5059700  69.4136610  93.3938944  86.0724955
  66.9615003  94.7810223  88.0529683  67.0411970  95.8788685  88.6103991
  66.2446965  93.7703037  88.5402979  66.1695513  92.9207954  87.9991988
  65.5302714  93.8473243  89.8083648  65.9489643  94.6416505  90.4262979
  64.0453199  94.1362677  89.5807891  63.5209656  94.0676399  90.5339118
  63.8559424  95.5274936  88.9976076  64.3796656  95.5967435  88.0441832
  62.7935410  95.7154644  88.8424643  64.2586577  96.2691160  89.6874751
  63.4969475  93.1663843  88.6793792  62.5653435  93.3507796  88.5389771
  65.7043597  92.5328524  90.5610605  65.3482735  91.4726556  90.0312761
  66.2377921  92.5450973  91.7821612  66.5875019  93.6155490  92.6636175
  65.7958063  94.3625576  92.6062014  67.5211650  94.0480215  92.3039791
  66.7235190  93.0187041  94.0461671  65.7639620  93.0162143  94.5632195
  67.4526072  93.5731413  94.6370404  67.2142242  91.5922183  93.7693228
  66.9118701  90.8884317  94.5448003  68.2913943  91.5238136  93.6172543
  66.4862340  91.2764048  92.4724966  67.1588157  90.6717784  91.8640898
  65.1887158  90.5177927  92.6983800  64.1739447  91.0938447  93.0949878
  65.2277286  89.2149056  92.4402556  66.0665313  88.7967990  92.0638299
  64.0525508  88.3674477  92.6200057  63.1426987  88.9612114  92.5321814
  64.0199328  87.2249133  91.5911796  64.2264842  87.6372028  90.6035287
  65.0550159  86.1639185  91.9231587  64.8488338  85.7508077  92.9105436
  65.0109278  85.3675393  91.1802340  66.0491024  86.6109715  91.9172622
  62.6262598  86.5969046  91.5380630  62.7224115  85.6373588  91.0300005
  62.3056543  86.4322464  92.5667511  61.5998113  87.4472620  90.8198465
  61.9195218  87.6119719  89.7908879  60.6371630  86.9359929  90.8232390
  61.5027663  88.4068610  91.3276376  64.0537178  87.8372417  94.0492856
  65.0321495  87.2343548  94.4875936  62.9793095  88.0345040  94.8213888
  61.7572496  88.7263944  94.5853397  61.3716392  88.3953041  93.6210865
  61.9845620  89.7914151  94.5388738  60.8301011  88.3840682  95.7302320
  60.2631583  87.4789744  95.5123327  60.1409451  89.2048727  95.9288408
  61.7874264  88.1748978  96.9108848  61.4003262  87.4837645  97.6596085
  62.0769321  89.1081796  97.3938663  62.9882356  87.5589265  96.2108000
  63.8809038  87.9470936  96.7012773  62.9895809  86.0422711  96.2853890
  62.0108306  85.3933905  95.9024702  64.0847220  85.4704406  96.7717324
  64.8621796  86.0481100  97.0580137  64.2331163  84.0213412  96.8526281
  64.2201849  83.5879416  95.8525797  65.5641148  83.6679847  97.5218195
  65.6427167  82.5808232  97.5227314  66.3554361  84.0884385  96.9012317
  65.7059873  84.1879285  98.9457790  64.7158536  84.1926910  99.4015349
  66.3530767  83.5008651  99.4910480  66.2928085  85.5835667  98.9991743
  65.7768311  86.4699091  98.2859881  67.2670503  85.7955963  99.7513666
  63.0778528  83.3618936  97.6056395  62.5007527  83.9966228  98.4447822
  62.7154783  82.2056451  97.3862493  62.8964176  81.8046877  96.4770774
  61.9588415  81.4077747  98.3616680  61.0695501  81.9618275  98.6621435
  61.5229571  80.0605366  97.7823511  62.4112536  79.6052144  97.3445037
  61.1547114  79.4314031  98.5927128  60.4514385  80.1958865  96.7225264
  59.1275678  80.4840865  97.0620411  58.8840248  80.6244756  98.1151684
  58.1384602  80.5925460  96.1040365  57.1103306  80.8268367  96.3800060
  58.4737708  80.4064260  94.7699659  57.4967100  80.5031583  93.8090726
  56.6306994  80.7006462  94.1732481  59.7716798  80.1175577  94.3975949
  60.0288232  79.9756867  93.3479043  60.7565749  80.0078178  95.3771544
  61.7824744  79.7717564  95.0944792  62.7822872  81.2072604  99.6401692
  64.0301353  81.3003895  99.6475822  62.0826912  80.9271740 100.7495361
  61.0801962  80.8089561 100.7159552  62.7435233  80.8376583 102.0392233
  63.2081227  81.7930222 102.2832034  61.7291321  80.4891393 103.1407178
  61.2571847  79.6054692 102.7111924  62.3123705  80.2001915 104.0150416
  60.6454602  81.4967386 103.5581237  60.0878012  81.8107584 102.6757923
  59.6951475  80.8539094 104.5555631  60.2520436  80.5400258 105.4384237
  58.9305888  81.5744372 104.8460634  59.2204863  79.9857127 104.0983634
  61.2366461  82.7934264 104.1311072  61.8654984  83.2700112 103.3791024
  60.4285185  83.4697087 104.4098066  61.8360528  82.5620605 105.0116073
  63.8703098  79.8042810 102.0454145  64.8509601  79.9375947 102.7592958
  63.7355792  78.7466975 101.2328089  62.8443142  78.6209552 100.7746222
  64.7765273  77.6903539 101.0583920  64.4774209  77.0283860 100.2457217
  66.1661070  78.2900906 100.7228533  66.3803858  79.0925053 101.4287673
  66.9182815  77.5076794 100.8236808  66.1950760  78.8420295  99.3029807
  66.0212048  78.0609138  98.5628943  65.4661054  79.6406832  99.1656629
  67.6032362  79.4035145  99.1282076  67.6139984  80.4566411  99.4091125
  68.2976639  78.8518737  99.7618967  68.0110055  79.2672008  97.7179134
  67.9226499  78.2369229  97.3732089  67.4274387  79.9187153  97.0674691
  69.4617299  79.6876381  97.6808676  70.0027207  79.0837835  98.2831867
  69.8084338  79.6177415  96.7348175  69.5437708  80.6424299  97.9998363
  64.8906281  76.7385384 102.2567230  65.9870747  76.4587787 102.7654030
  63.7590733  76.2304475 102.7212470  62.8654920  76.4927503 102.3303390
  63.7762277  75.2872426 103.8683897  64.7587020  75.3133332 104.3397310
  62.7179053  75.6535596 104.9192325  61.7474548  75.6510245 104.4229275
  62.7350484  74.8795291 105.6864893  62.9568028  77.0276732 105.5715075
  62.9729976  77.8005010 104.8030181  62.1360869  77.2202501 106.2624790
  64.2744209  77.0833861 106.3492309  64.5210655  76.2414481 107.2211878
  65.1340788  78.0533249 106.0301948  66.0146218  78.1246613 106.5197421
  64.9000981  78.7114922 105.3006949  63.5322255  73.8808349 103.3065417
  62.6011971  73.6412848 102.5014983  64.3689800  72.9259265 103.7252932
  65.0764188  73.1593660 104.4073018  64.3725629  71.5928171 103.1617194
  63.5676613  71.4890207 102.4340801  65.7348129  71.2840761 102.4754338
  66.5307629  71.3799010 103.2139334  65.7429013  69.8770232 101.9023170
  64.9474613  69.7805630 101.1633506  66.7046909  69.6830683 101.4275086
  65.5823612  69.1565431 102.7043360  66.0171382  72.2974392 101.3608304
  65.2804827  72.1190908 100.5774841  65.8605480  73.2882252 101.7873537
  67.4276117  72.2152114 100.7640448  67.5847856  71.2247910 100.3368871
  67.5370238  72.9683972  99.9837632  68.1648513  72.3939233 101.5467578
  64.0161534  70.5168177 104.2164628  64.8140758  70.2063873 105.1161064
  62.8103410  69.9309761 104.1206344  61.6212913  70.2207207 103.3226795
  61.7105304  69.6996319 102.3694728  61.5781337  71.2954402 103.1460038
  60.4552558  69.7248013 104.1488994  59.6044320  69.4824848 103.5121259
  60.1567677  70.4716596 104.8845684  61.0150822  68.4731994 104.8356898
  61.0009325  67.6182402 104.1597137  60.5285688  68.2028284 105.7728684
  62.4503181  68.8989908 105.1003665  62.4827838  69.3179101 106.1061253
  63.4562244  67.7381397 104.9960298  63.7911297  67.2808745 103.9025130
  63.9509506  67.2466395 106.1286108  63.7591127  67.6859798 107.0175865
  64.8799882  66.1202067 106.0991647  65.6623738  66.3112090 105.3646648
  65.5365705  65.9131530 107.4737328  64.7637272  65.9274113 108.2422438
  66.0295082  64.9409844 107.4728965  66.5663668  66.9788217 107.8016609
  67.0435466  67.6833136 106.9039613  66.9022887  67.1089468 109.0695686
  67.5835450  67.8039991 109.3395537  66.4768770  66.5130012 109.7652514
  64.2068215  64.8333391 105.6024157  64.8441455  63.7470213 105.5152809
  62.9196771  64.9147689 105.2697858  62.4011809  65.7550682 105.4822903
  62.1848786  63.7613480 104.6967314  62.3824525  62.8748437 105.2993705
  60.6693375  64.0102007 104.6718846  60.1811798  63.0997614 104.3241757
  60.3444586  64.2303997 105.6887751  60.3191562  65.0892293 103.8197571
  59.3670186  65.2111617 103.8326586  62.7091773  63.4001217 103.3201605
  62.2669976  62.4239876 102.6844592  63.6771368  64.1907146 102.8204043
  64.0133445  64.9506119 103.3945294  64.2642566  64.0148383 101.4805745
  63.7020978  63.2833199 100.9000941  64.2050138  65.3616654 100.7583689
  64.7901323  66.1049412 101.2999192  64.5934025  65.2623713  99.7447639
  62.5414522  66.0558575 100.5927039  62.9142650  67.1580255  99.9483945
  65.7385748  63.5324724 101.5116083  66.5413111  63.8544633 100.6314292
  66.1018750  62.7498225 102.5358886  65.4029310  62.4648216 103.2069707
  67.4951953  62.3565025 102.7732236  68.1737732  63.1797736 102.5499395
  67.7338406  61.9009267 104.2328414  67.0446336  61.0876631 104.4602073
  69.1602605  61.4257733 104.4346697  69.8500804  62.2386917 104.2079247
  69.2963915  61.1124899 105.4697650  69.3607102  60.5842347 103.7715451
  67.4209587  63.0389112 105.2094642  66.3784960  63.3373343 105.0984818
  67.5945567  62.6999478 106.2307709  68.0668783  63.8903260 104.9950309
  67.9305962  61.2474445 101.7816227  67.2907414  60.1670263 101.6840704
  69.0045456  61.4824269 101.0415079  69.4712281  62.3780036 101.0572907
  69.4661887  60.4780784 100.0876993  69.1915157  59.4858544 100.4456733
  68.8367670  60.6919367  98.7028842  69.0856851  61.6989300  98.3680657
  69.2695270  59.9640526  98.0165872  67.4263729  60.5373397  98.7282514
  67.0731011  60.6784718  97.8468431  70.9705235  60.4148739  99.9944523
  71.6539097  60.3963107 101.0174654  71.5080175  60.3807612  98.8930117
  70.7627867  60.6283940  98.2578673  72.8189121  60.1000037  98.3390157
  73.5671911  60.3103969  99.1031574  72.8601374  59.0440570  98.0718519
  73.1221263  60.9312021  97.1105059  72.8593039  62.1327247  97.0825438
  73.6793347  60.2893211  96.0893655  73.9735641  59.3316693  96.2175527
  73.9245476  60.9200615  94.8003131  73.6368158  61.9710635  94.8268679
  75.4073265  60.8285914  94.4418371  75.7735407  59.8257010  94.6613777
  75.9688703  61.5562348  95.0277583  75.7762745  61.1740207  92.7223462
  73.0698344  60.2450760  93.7373220  73.0839868  59.0172872  93.6110202
  72.3333656  61.0497605  92.9744316  72.3509649  62.0422528  93.1608414
  71.4456128  60.5591258  91.9291099  71.2137615  59.5080257  92.1009611
  70.1382673  61.3548345  91.9302065  70.3400576  62.4232123  91.8530783
  69.5007669  61.0452977  91.1020276  69.1534590  61.1381089  93.4283322
  68.1610516  61.9433300  93.0600324  72.0740671  60.5974845  90.5417005
  71.3703070  60.3703626  89.5525360  73.3722744  60.8893628  90.4362212
  73.9635359  60.9896928  91.2488981  73.9562175  61.1360579  89.1203151
  73.4217504  61.9548737  88.6386661  75.4278872  61.5310949  89.2657662
  75.8901746  61.5817145  88.2799528  75.9459705  60.7877743  89.8717069
  75.7137466  63.1663146  90.0383914  73.8117469  59.9112702  88.2223872
  73.5131638  60.0405048  87.0293288  74.0569872  58.7180318  88.7696058
  74.2440502  58.6228004  89.7575520  74.0603823  57.5164579  87.9475124
  74.9159674  57.5662619  87.2740193  74.1659487  56.6535144  88.6049952
  72.7949958  57.3596964  87.1269516  72.8433739  57.1598336  85.9090356
  71.6391519  57.4457123  87.7898694  71.6220872  57.5990398  88.7880171
  70.3682267  57.2576708  87.0967326  70.3835787  56.3199434  86.5412770
  69.2202189  57.2109593  88.1005962  69.4263533  56.4578115  88.8611067
  69.0669125  58.1779199  88.5797458  67.9241753  56.8372310  87.4715022
  67.4698413  55.5799505  87.2102312  68.1182763  54.7514272  87.4951537
  66.2330274  55.6399484  86.6157855  65.6774291  54.8464082  86.3299461
  65.8740441  56.9538632  86.4754978  64.7230310  57.5160768  85.9347041
  63.9515902  56.8522505  85.5444318  64.6329843  58.8793552  85.9276617
  63.7456495  59.3570061  85.5122265  65.6551948  59.6804397  86.4423347
  65.5715295  60.7671708  86.4316072  66.7970738  59.1246676  86.9777362
  67.5630745  59.7941316  87.3690949  66.9184892  57.7346984  87.0010145
  70.1330741  58.3574815  86.0729120  69.5694461  58.1060622  85.0024295
  70.5351508  59.5868012  86.3900434  70.9187669  59.7964566  87.3005282
  70.3878014  60.6782320  85.4337312  69.3425984  60.7906318  85.1456057
  70.8604778  61.9816924  86.0734952  71.8796672  61.7699775  86.3968047
  70.8772757  62.7499164  85.3004171  70.0411993  62.4759499  87.2642959
  69.9691590  61.6787707  88.0041717  70.7060177  63.6878192  87.8901477
  70.7779980  64.4856374  87.1509565  70.1128877  64.0310082  88.7378027
  71.7054304  63.4186153  88.2319134  68.6269889  62.8100541  86.8354587
  68.1513048  61.9194466  86.4247978  68.0586646  63.1603508  87.6970856
  68.6521305  63.5910697  86.0755366  71.1807542  60.3820594  84.1684571
  70.6808745  60.5431669  83.0467906  72.4312359  59.9507802  84.3373944
  72.8279570  59.8598910  85.2617595  73.2765536  59.6472341  83.1899191
  73.3252608  60.4994264  82.5120583  74.6908859  59.3163787  83.6600773
  74.6528098  58.4355973  84.3010723  75.5981308  59.0407240  82.4758855
  75.6370778  59.9212790  81.8346323  76.6012311  58.8070621  82.8326642
  75.2088716  58.1954896  81.9082972  75.2146045  60.4156984  84.4140442
  76.1038661  60.2065526  84.7091241  72.7050542  58.4931168  82.3829974
  72.7447040  58.5075056  81.1461324  72.1395322  57.4955196  83.0661091
  72.1703835  57.4577035  84.0749290  71.5124620  56.3894656  82.3515768
  72.2109417  55.9726630  81.6259731  71.1097182  55.2873643  83.3304860
  70.6796827  55.7725469  84.2067089  70.3477170  54.6808301  82.8410267
  72.2659207  54.3982599  83.7601829  72.5963627  53.8254878  82.8936721
  73.0789022  55.0378462  84.1038288  71.8659094  53.4451953  84.8744826
  72.7695884  52.9778639  85.2657174  71.3858904  54.0238820  85.6636611
  70.9124322  52.3704446  84.3841724  70.0584934  52.8579744  83.9138494
  71.4334326  51.7601665  83.6464608  70.4379364  51.5051390  85.4969226
  69.9547617  52.0703792  86.1804030  69.8078230  50.8045070  85.1333680
  71.2290244  51.0529575  85.9325952  70.3041927  56.8632719  81.5553249
  70.1172736  56.4514856  80.4082729  69.4758391  57.7267966  82.1410939
  69.6005406  58.0120493  83.1019163  68.3246738  58.2462546  81.4087253
  67.6996085  57.4326423  81.0407203  67.4818552  59.1344949  82.3226190
  68.0736138  60.0028885  82.6121263  66.2165194  59.5968581  81.6117747
  65.6239776  58.7289701  81.3223540  65.6325689  60.2277356  82.2819199
  66.4862544  60.1652034  80.7216471  67.1278190  58.4081921  83.5053027
  66.5984127  58.9678915  84.0780731  68.7706521  59.0258892  80.1783306
  68.2373055  58.8348911  79.0736527  69.8042032  59.8544601  80.3299762
  70.2532998  59.9816917  81.2256456  70.2620236  60.6639910  79.2051796
  69.4434382  61.2136747  78.7405670  71.3316175  61.6700140  79.6642739
  72.0977166  61.1413707  80.2314843  71.9687173  62.3478073  78.4628609
  71.2032567  62.8770802  77.8953741  72.7234883  63.0568569  78.8029638
  72.4370937  61.5964042  77.8271578  70.7250066  62.7010924  80.5997827
  70.3118667  62.1997870  81.4750600  71.4956584  63.4046774  80.9146851
  69.9314787  63.2399174  80.0820165  70.7826542  59.7631930  78.0963751
  70.4277045  59.9267087  76.9219874  71.6392685  58.8018424  78.4437468
  71.9446402  58.6618910  79.3962493  72.2219610  57.9662206  77.4015109
  72.6187902  58.5925313  76.6025361  73.3595587  57.1245669  77.9718893
  72.9764578  56.5926330  78.8427391  73.6567805  56.4050086  77.2090033
  74.5609016  57.9570115  78.3765526  75.0397527  58.3253021  77.4692685
  74.2053824  58.8011386  78.9674482  75.5601651  57.1606259  79.1860052
  76.2953738  57.8459520  79.6077815  75.0323064  56.6529956  79.9933316
  76.2642206  56.1353355  78.3200812  76.8541632  55.4829628  78.9638809
  75.5109837  55.5452242  77.7980641  77.1566257  56.7897797  77.3268606
  77.8549308  57.3362959  77.8103786  77.6109482  56.0835293  76.7656997
  76.6101029  57.3940004  76.7299274  71.1583963  57.0862731  76.7534495
  71.1739724  56.8855663  75.5337122  70.2208751  56.5555250  77.5465456
  70.2735802  56.6569478  78.5500569  69.1298471  55.7706612  76.9888604
  69.5281683  54.9946201  76.3352553  68.3283050  55.1035691  78.1073685
  68.0585356  55.8840874  78.8187860  67.4239025  54.6961663  77.6555066
  69.0761697  53.9955961  78.8308099  69.3084124  53.2157957  78.1054993
  70.0031070  54.4169847  79.2198061  68.2733858  53.4011885  79.9720428
  67.0275725  53.4744584  79.9255495  68.8883113  52.8584461  80.9149099
  68.2054797  56.6139000  76.1298363  67.3923758  56.0537583  75.3865085
  68.3100600  57.9393638  76.2149050  68.8852169  58.3745947  76.9219184
  67.5516011  58.7988573  75.3164329  66.6475865  58.2906400  74.9809157
  67.1500033  60.0942071  76.0247076  68.0349834  60.5384670  76.4802772
  66.5422976  61.0770261  75.0334007  65.6569412  60.6336178  74.5777334
  66.2623536  61.9927726  75.5541107  67.2718987  61.3093267  74.2576306
  66.1946552  59.8044537  77.0535488  65.9443688  60.6186539  77.4963074
  68.3407774  59.1285297  74.0542863  67.7832940  59.2156800  72.9611354
  69.6580593  59.3195501  74.1747048  70.1076991  59.3206392  75.0790954
  70.4747132  59.5927334  72.9951111  69.9496777  60.2712227  72.3227354
  71.7967975  60.2437750  73.4132449  72.3104994  59.5700073  74.0989910
  72.6971874  60.5248688  72.2021440  72.1843100  61.1989851  71.5161239
  73.6255458  60.9866420  72.5383217  72.9219445  59.5888557  71.6908083
  71.5284235  61.4831770  74.0782613  72.3567319  61.8915239  74.3404794
  70.7426146  58.3249382  72.1903427  70.7765101  58.3693670  70.9553439
  70.9264558  57.1905832  72.8607233  70.9442238  57.1968643  73.8705472
  71.1566951  55.9242155  72.1724561  71.4872205  56.1150667  71.1514625
  72.2346245  55.1074203  72.8912217  71.8825387  54.9473822  73.9103010
  72.3011274  54.1493535  72.3756778  73.6100942  55.7613212  72.9263596
  73.5074313  56.7418330  73.3912873  74.2660694  55.1383611  73.5344051
  74.2076324  55.9198387  71.5349426  73.5198754  56.4976099  70.9174722
  75.1564784  56.4503056  71.6149150  74.4447123  54.6325349  70.8913060
  73.7468735  54.3134517  70.2345669  75.5042792  53.8651062  71.1118961
  76.4555901  54.2224840  71.9593569  76.3824975  55.0992351  72.4554062
  77.2504170  53.6168672  72.1062516  75.6130596  52.7078345  70.4642712
  74.8924756  52.4263450  69.8149466  76.4157120  52.1162124  70.6249919
  69.8699162  55.1151688  72.0756601  68.9163046  55.1799979  71.3507187
  70.2450323  54.1631087  73.2720060  71.1609220  54.1483118  73.6974780
  69.2413379  53.2169798  73.7549828  68.7864636  53.7107856  74.6136704
  68.1592262  53.0076402  72.6766957  67.8477301  53.9816093  72.2992642
  68.6955072  52.1598142  71.5195380  69.0067908  51.1854580  71.8961440
  67.9128506  52.0269528  70.7726139  69.5491133  52.6627488  71.0650999
  67.1037774  52.2046113  73.2172560  66.4279093  52.0720860  72.5484962
  69.8949658  51.8912088  74.1308549  69.4330634  50.8062009  73.7690359
  70.9939173  51.9799650  74.8705907  71.3717681  52.8940033  75.0751931
  71.7390007  50.8140251  75.3075114  71.0359120  50.1105786  75.7535253
  72.4980704  50.0995311  74.1753693  72.9265191  49.1956792  74.6084775
  71.7556309  49.8259028  73.4256953  73.6067139  50.9246942  73.5175469
  73.1605380  51.8463129  73.1438532  74.3317482  51.1622433  74.2960037
  74.3076387  50.2006651  72.3751454  75.5380804  49.9606106  72.4617083
  73.6239830  49.8586688  71.3867976  72.6468877  51.2926331  76.4295402
  72.4845008  52.3963189  76.9572656  73.6258923  50.4747909  76.8220669
  72.5518673  49.6838522  77.2907749  72.5050977  48.7885271  76.6708508
  71.6358644  50.2609561  77.1643281  72.8404446  49.3711582  78.7413591
  73.4377979  48.4638346  78.8309808  71.9142310  49.2527772  79.3036897
  73.6181826  50.6034179  79.2205059  74.3051138  50.4095039  80.0442910
  72.9508026  51.4221098  79.4896657  74.4016565  50.9632211  77.9680350
  74.4295217  52.0511469  77.9068861  75.8300975  50.4188873  78.0073918
  76.4522508  50.1325770  76.9805380  76.3603057  50.2741619  79.2198372
  75.8114431  50.5445191  80.0234267  77.7060843  49.7579345  79.4435494
  77.7058087  48.6834427  79.6267613  78.6088306  50.0737370  78.2211457
  78.0756943  49.8000034  77.3106865  78.9625265  51.5546934  78.1762435
  79.4961297  51.8290903  79.0862297  79.5956367  51.7515024  77.3110624
  78.0492668  52.1447189  78.0992640  79.8782179  49.2236820  78.2238773
  80.3744767  49.3790297  77.2659133  80.5151484  49.5947534  79.0268250
  79.6231234  47.7490179  78.4249113  78.9865955  47.3771041  77.6220339
  80.5711047  47.2111202  78.4150788  79.1272648  47.5928280  79.3829452
  78.2896180  50.4044369  80.7059931  78.1044107  51.5967533  80.9535671
  78.9995694  49.6366809  81.5230511  79.0312014  48.6326950  81.4176424
  79.7083348  50.2378162  82.6517644  80.2063206  49.4547134  83.2234805
  80.7640318  51.2462338  82.1784751  81.1064283  51.8286791  83.0338238
  81.6036542  50.6944838  81.7557385  80.2300146  52.2002125  81.1241425
  79.7363268  51.7743359  80.0783990  80.3214142  53.5020532  81.3993406
  79.9816576  54.1809684  80.7332030  80.7299649  53.8030124  82.2726164
  78.7137216  50.9076014  83.5972454  78.5234251  52.1225113  83.6020672
  78.0277661  50.0312627  84.4649057  78.2083779  49.1122424  84.8429009
  76.7613257  50.6760821  84.7908056  76.4465102  51.3251632  83.9736862
  75.6521138  49.6387636  85.0509450  74.7394075  50.1619995  85.3360617
  75.3908374  48.8064278  83.8028630  76.3030315  48.2824961  83.5173859
  74.6043360  48.0801616  84.0079292  75.0778555  49.4599832  82.9886098
  76.0341686  48.7789665  86.1311857  75.3397183  48.1351215  86.2886747
  76.8953110  51.5817949  86.0122458  75.9004127  52.0822743  86.5350869
  78.1287124  51.7847675  86.4661358  78.8871382  51.2449352  86.0743824
  78.4324608  52.7303986  87.5304072  77.5123200  53.0302938  88.0319081
  79.3747514  52.1135312  88.5656945  80.3230700  51.8759678  88.0836616
  79.6182041  53.0834294  89.7130595  78.6703310  53.3211163  90.1959065
  80.2907404  52.6266670  90.4391188  80.0681417  53.9981099  89.3270332
  78.7978633  50.9078319  89.0821470  79.3904439  50.5221861  89.7315512
  79.0642154  53.9716441  86.9163732  80.0437660  53.8695823  86.1701716
  78.5040710  55.1366260  87.2285998  77.7256707  55.1510045  87.8720170
  78.9431328  56.3964337  86.6491774  79.8912742  56.2478479  86.1324092
  77.9164411  56.9307708  85.6447318  76.9767155  57.0225095  86.1893408
  78.2487617  57.9186067  85.3256030  77.7119490  56.0528732  84.4327838
  78.7224583  55.8761100  83.4996536  79.6774420  56.3783372  83.6541642
  78.5335955  55.0788431  82.3883358  79.3366405  54.9427285  81.6639786
  77.3212394  54.4547756  82.1974708  77.1274017  53.6605871  81.0930649
  77.9000366  53.6125338  80.5253275  76.3019282  54.6202258  83.1065897
  75.3423336  54.1259114  82.9551568  76.4996536  55.4163931  84.2136359
  75.6952470  55.5549007  84.9360248  79.1659760  57.4111629  87.7626097
  78.9458779  57.1328712  88.9444509  79.6108079  58.6020230  87.3725651
  79.8649630  58.7353747  86.4042047  79.8217014  59.7042508  88.2993903
  79.1451562  59.6063647  89.1483922  81.2651875  59.7026789  88.8199510
  81.3866361  60.5368731  89.5109426  81.4436651  58.7656716  89.3474574
  82.1934054  59.8305417  87.7584692  83.0860286  59.8266720  88.1117519
  79.4575935  60.9993400  87.5792963  78.8630756  60.9853311  86.4983221
  79.8161737  62.1312816  88.1868524  80.3141190  62.1180457  89.0654732
  79.4573187  63.4244156  87.6146421  78.3765721  63.4911818  87.4896292
  79.9109736  64.5473989  88.5411520  79.6071217  64.2584204  89.5472657
  80.9987422  64.5950719  88.4902923  79.3323149  65.9018210  88.2106752
  78.0001830  66.0439598  87.8552302  77.3689497  65.1563164  87.8135971
  77.4716218  67.2780609  87.5578306  76.4211468  67.3780754  87.2846987
  78.2802080  68.3891414  87.5979500  77.7551500  69.6241711  87.2996201
  76.8213528  69.5914942  87.0792688  79.6070449  68.2737976  87.9430031
  80.2472266  69.1551692  87.9811074  80.1241666  67.0350352  88.2410450
  81.1762246  66.9333305  88.5073723  80.0754304  63.6116244  86.2358162
  79.4159353  64.1006231  85.3079545  81.3518714  63.2515478  86.0931091
  81.8714772  62.8763169  86.8736928  82.0478653  63.4410102  84.8270631
  82.1374215  64.5014524  84.5913912  83.4515875  62.8396398  84.9152645
  83.3698539  61.7527448  84.9063624  84.3067721  63.2922026  83.7448559
  84.3893517  64.3790365  83.7533618  85.3004728  62.8521698  83.8286966
  83.8452041  62.9707088  82.8112086  84.0714028  63.2485282  86.1395080
  84.9522339  62.8706816  86.1939946  81.2662110  62.8164986  83.6800257
  81.0683963  63.4419536  82.6329123  80.8162166  61.5750252  83.8614614
  81.0251514  61.0699980  84.7108101  80.0680762  60.8905235  82.8183615
  80.5383336  61.0592680  81.8496085  80.0420669  59.3889848  83.0930960
  79.9368622  59.2461161  84.1685586  79.1742577  58.9688494  82.5846735
  81.2967319  58.6896019  82.6114329  81.6935842  58.9125466  81.4498057
  81.8875552  57.9155237  83.3938854  78.6481094  61.4166398  82.6809470
  77.9531538  61.0271128  81.7380433  78.1982723  62.2782309  83.5936953
  78.6977635  62.4356533  84.4573076  76.9357328  62.9777558  83.3880455
  76.2279306  62.3273292  82.8741773  76.3361012  63.3848003  84.7362854
  76.2280314  62.5058608  85.3718053  76.9825490  64.1112735  85.2286693
  74.9701932  64.0181390  84.6396508  74.1829735  63.8617202  83.5132071
  74.5588355  63.2678767  82.6800339  72.9379055  64.4455747  83.4363210
  72.3283805  64.3108749  82.5427686  72.4640814  65.1969152  84.4840634
  71.4796072  65.6608001  84.4230608  73.2323025  65.3630463  85.6088558
  72.8575572  65.9580993  86.4416692  74.4777857  64.7775139  85.6856305
  75.0882396  64.9101485  86.5788573  77.1332274  64.1999144  82.5020668
  76.3827801  64.4117433  81.5408938  78.1465862  65.0128561  82.8049969
  78.7265481  64.8738358  83.6201146  78.3844825  66.1920984  81.9799435
  77.4538285  66.7449960  81.8523244  79.4149228  67.1138809  82.6374704
  79.1236018  68.1334402  82.3850218  79.3208711  66.9654875  83.7132184
  80.8568934  66.8810323  82.2185478  81.1294368  65.8542832  82.4626939
  80.9466338  67.0342945  81.1431133  81.8160395  67.8161083  82.9218506
  81.5216140  68.3266820  84.0006504  82.9701089  68.0516863  82.3098858
  83.6471914  68.6685457  82.7354973  83.1658596  67.6129953  81.4214415
  78.8269986  65.7926096  80.5786219  78.4373572  66.4324494  79.5963824
  79.6353543  64.7367961  80.4629797  79.9817173  64.2484164  81.2763783
  80.0886177  64.2979021  79.1477089  80.5325426  65.1328280  78.6055571
  81.1411371  63.2017041  79.3027623  81.9641774  63.6294859  79.8752191
  80.6804315  62.3969555  79.8756761  81.6697947  62.6505925  77.9927764
  80.8512043  62.1656465  77.4609513  82.0523107  63.4771296  77.3939274
  82.7820092  61.6443956  78.2356380  83.6279107  62.1666325  78.6826485
  82.4162120  60.8865996  78.9284851  83.2235104  60.9786353  76.9452327
  82.3595399  60.4800615  76.5058242  83.5794545  61.7534571  76.2662232
  84.3065867  59.9840557  77.1738114  83.9768228  59.2657671  77.8026333
  84.5705789  59.5654860  76.2933527  85.1074113  60.4459207  77.5805788
  78.9321618  63.8028293  78.2900197  78.9721780  63.9370872  77.0623880
  77.8987390  63.2301656  78.9080444  77.9178747  63.0419554  79.9001685
  76.7303464  62.8050498  78.1461703  77.0649162  62.3533633  77.2122852
  75.9406991  61.7645979  78.9357544  75.5911586  62.2048344  79.8696245
  75.0845468  61.4342527  78.3475575  76.5816585  60.9106058  79.1547700
  75.8365495  63.9854980  77.7893298  75.3115203  64.0574592  76.6688656
  75.6512692  64.9194037  78.7245802  76.0192303  64.8202126  79.6599224
  74.8222384  66.0821259  78.4273143  73.8593061  65.7844589  78.0122782
  74.5742902  66.9108710  79.6987923  75.5322898  67.1655331  80.1520948
  73.8234593  68.1836132  79.3554250  72.8650857  67.9297385  78.9024697
  73.6536765  68.7621375  80.2634910  74.4113860  68.7747152  78.6532552
  73.7921787  66.0972535  80.7087519  74.3567975  65.2024600  80.9707674
  73.6228782  66.6947079  81.6045672  72.8331630  65.8081850  80.2788342
  75.4596090  66.9210963  77.3308198  74.7557083  67.5293531  76.5149341
  76.7924419  66.9746246  77.2908790  77.3555610  66.5428903  78.0096292
  77.4706357  67.7145169  76.2320143  77.1662930  68.7609435  76.2536053
  78.9840316  67.6419730  76.4301256  79.2255268  66.6862416  76.8952673
  79.4713043  67.7053571  75.4571673  79.5135441  68.7569702  77.3107678
  80.7227143  68.9369955  77.4452204  78.6068764  69.5088841  77.9212734
  78.9036260  70.2660997  78.5201590  77.6240689  69.3206272  77.7843441
  77.0836023  67.1781039  74.8605799  76.7041920  67.9439019  73.9673396
  77.1721747  65.8589009  74.6738951  77.5262951  65.2442072  75.3928178
  76.8132809  65.2799240  73.3842072  77.3459534  65.7969396  72.5860505
  77.1866444  63.7987838  73.3407998  76.7534882  63.3303307  74.2245570
  76.7299760  63.3765367  72.4456678  78.6805258  63.5426073  73.3144000
  79.1146779  64.1068793  72.4890456  79.1084721  63.8886736  74.2552518
  78.9850505  62.0655090  73.1329822  78.4792755  61.5068927  73.9205344
  78.6046679  61.7487443  72.1618650  80.4775158  61.7990263  73.2027477
  80.8314738  62.0934769  74.1907321  80.6408577  60.7305127  73.0624011
  81.2262344  62.5563999  72.1613948  81.0753579  63.5465521  72.2915279
  82.2123094  62.3527893  72.2407599  80.8986976  62.2833897  71.2458162
  75.3319439  65.4591032  73.0907851  74.9500564  65.7320195  71.9456530
  74.4763446  65.3035683  74.1035762  74.7751670  65.0276842  75.0280720
  73.0490096  65.4754463  73.8611000  72.7212398  64.7885322  73.0808338
  72.2532524  65.1858775  75.1320438  72.4044611  64.1223172  75.3166373
  72.6749845  65.7607659  75.9565105  70.7534355  65.4764507  75.0220962
  70.6148504  66.5401971  74.8288642  70.1273629  64.6710172  73.8944389
  70.2651503  63.6070850  74.0872129  69.0620534  64.8941473  73.8358785
  70.6054725  64.9336544  72.9507581  70.0529429  65.1821638  76.3331821
  70.4756551  65.8071263  77.1198432  68.9887030  65.3953551  76.2329615
  70.1898811  64.1320247  76.5911643  72.7565667  66.8814271  73.3538514
  72.0251069  67.0634203  72.3742040  73.3363740  67.8937592  74.0021764
  73.8789777  67.7391613  74.8398995  73.1536619  69.2655166  73.5396703
  72.0911003  69.5018339  73.4829597  73.8190813  70.2388509  74.5112022
  74.8170287  69.8250168  74.6559139  73.8955770  71.2035013  74.0095070
  73.1443439  70.4230547  75.8658581  72.9234640  69.4452983  76.2939998
  74.0623212  71.1878122  76.7998505  74.2832922  72.1659246  76.3725722
  73.5739124  71.3158219  77.7658584  74.9904891  70.6321364  76.9333765
  71.8201825  71.1473128  75.7043785  71.1635903  70.5652435  75.0577090
  71.3515225  71.2707027  76.6807155  71.9932070  72.1268188  75.2585875
  73.7206072  69.4475270  72.1381956  73.0788974  70.0462038  71.2674600
  74.9310504  68.9354978  71.9016551  75.4436782  68.4471976  72.6219848
  75.5688435  69.1203842  70.6042924  75.6974770  70.1800905  70.3838947
  76.9435964  68.4500035  70.6005245  76.8160436  67.3857650  70.7985824
  77.6326526  68.6362083  69.2588858  77.7609792  69.7002616  69.0603348
  78.6084150  68.1509062  69.2805374  77.0234907  68.1912037  68.4721246
  77.7588956  69.0146188  71.6349677  78.6207285  68.5917505  71.6297968
  74.7044095  68.5648601  69.4831248  74.6153203  69.1609093  68.4043878
  74.0588025  67.4252339  69.7175595  74.1532137  66.9659493  70.6121228
  73.2575859  66.7760762  68.6893828  73.6622860  67.0859444  67.7259003
  73.3895164  65.2547575  68.8092570  72.9801402  64.9282435  69.7652380
  72.8410642  64.7768932  67.9975020  74.4413618  64.9750020  68.7504575
  71.7817344  67.1553788  68.7238365  71.0291291  66.7006668  67.8567246
  71.3394760  67.9703908  69.6841973  71.9799438  68.3497278  70.3668420
  69.9204292  68.2788825  69.8210231  69.3339263  67.6720364  69.1312034
  69.4645703  67.9728411  71.2515000  69.9463944  68.6750665  71.9318119
  68.3830488  68.0954573  71.3096077  69.8093622  66.6499776  71.6174790
  69.5152893  66.4793932  72.5152662  69.5832537  69.7206100  69.4615520
  68.7487601  69.9520580  68.5829159  70.1961449  70.6993820  70.1192667
  70.8926854  70.4923803  70.8207516  69.8374691  72.0985423  69.8900176
  68.7977600  72.2597590  70.1748217  70.7216327  73.0342836  70.7168646
  71.6459711  72.4712312  70.8459759  70.9247879  73.9386377  70.1433042
  70.1611211  73.4160246  72.0893400  69.1116998  73.6888358  71.9780310
  70.2816676  72.2555746  73.0607170  71.3309203  71.9824780  73.1729038
  69.8774408  72.5486389  74.0296415  69.7233156  71.4012362  72.6780300
  70.8562052  74.6545276  72.6332429  70.7029906  75.4882351  71.9480010
  70.4407601  74.9059119  73.6091079  71.9237569  74.4583627  72.7330017
  69.9401078  72.4568615  68.4113383  69.2282575  73.0086531  67.9767208
  70.7231296  72.1370669  67.8783287  76.8639024  63.1280051  92.0758808
  41.7534654  31.3087342  85.1699351  41.0580200  31.9948450  85.4262721
  42.5102208  31.3484763  85.8376493  41.2900980  30.4308848  84.9834663
  42.3410529  31.7126282  83.8967397  43.4143714  31.8633154  84.0124115
  42.1109048  30.6287648  82.8458781  42.5210637  29.6890957  83.2158660
  41.0384685  30.5182961  82.6853258  42.7388696  30.9684583  81.6219469
  42.5810913  30.2742737  80.9778867  41.7664197  33.0427128  83.4270742
  42.4962756  33.8938829  82.9048894  40.4600486  33.2432228  83.6084552
  39.8565910  32.5103795  83.9532434  39.8597390  34.5262347  83.2584638
  40.0589642  34.7563472  82.2118231  38.3443073  34.4770240  83.4685897
  38.1725240  34.5497848  84.5425058  37.9289362  35.3552825  82.9743945
  37.6670004  33.2246549  82.9304921  38.0185643  32.3757430  83.5168811
  36.5920385  33.3407422  83.0686224  37.9640172  32.9834719  81.4660657
  38.1853263  33.9701669  80.7324805  37.9770100  31.8070046  81.0469692
  40.4705915  35.6507768  84.0830105  40.7651986  36.7323739  83.5578359
  40.6661802  35.4127677  85.3816069  40.3811370  34.5406259  85.8037663
  41.2448542  36.4389348  86.2393938  40.6729960  37.3627598  86.1520741
  41.2175947  35.9837960  87.6978257  41.8124477  35.0726310  87.7612873
  41.6912655  36.7681715  88.2881571  39.8255335  35.7168163  88.2368261
  39.1744151  36.5506866  87.9745171  39.4455362  34.8024835  87.7810853
  39.8137720  35.5485474  89.7411217  40.8557910  35.3373063  90.3615373
  38.6330730  35.6482155  90.3391253  38.5677998  35.5442120  91.3416342
  37.8053028  35.8276066  89.7889283  42.6687199  36.7741829  85.8141208
  43.0529946  37.9468874  85.7862974  43.4629661  35.7607529  85.4651600
  43.1633742  34.7987874  85.5356335  44.8306503  36.0294552  85.0338620
  45.3195976  36.6955805  85.7447114  45.6277180  34.7281323  84.9563597
  45.0041251  34.0775896  84.3431506  46.5650216  34.9272718  84.4368354
  45.9214920  34.0410199  86.2935820  44.9826279  33.7098874  86.7374134
  46.8327453  32.8423310  86.0831364  47.7720580  33.1727576  85.6397306
  47.0325685  32.3643748  87.0421616  46.3478442  32.1292609  85.4164263
  46.5385331  35.0102296  87.2905803  45.8495617  35.8356525  87.4697306
  46.7347479  34.4912617  88.2288091  47.4740468  35.3992306  86.8885959
  44.8555898  36.7537793  83.6956294  45.7073544  37.6200530  83.4723494
  43.9287953  36.4245102  82.7944114  43.3130400  35.6347845  82.9258571
  43.8260995  37.1824203  81.5519035  44.7802286  37.1682953  81.0250853
  42.7600402  36.5613508  80.6487245  41.8905741  36.3549961  81.2728603
  42.4993288  37.3082148  79.8988420  43.2025621  35.2798793  79.9557669
  43.8008313  34.6981255  80.6570067  42.3134610  34.7128488  79.6799451
  44.0238140  35.5717036  78.7099813  43.4435462  36.2245917  78.0579649
  44.9398371  36.0802880  79.0105525  44.3752052  34.2938182  77.9644466
  45.1338949  34.5325466  77.2191284  44.7831621  33.5823822  78.6824503
  43.1900158  33.6947547  77.2913932  42.8121005  34.3536649  76.6257228
  43.4669180  32.8511454  76.8099906  42.4870480  33.4730762  77.9818959
  43.5031884  38.6453948  81.8327167  44.1130293  39.5525444  81.2498550
  42.5518304  38.8947691  82.7364404  42.0275991  38.1469437  83.1677617
  42.2033847  40.2699507  83.0774731  41.9399727  40.8238142  82.1763912
  41.0055053  40.2836436  84.0269296  40.1550415  39.7732314  83.5749453
  41.2605492  39.7989554  84.9693361  40.4252928  41.9400948  84.4563791
  39.4351162  41.5394674  85.2488097  43.3875103  41.0009256  83.6986784
  43.6341863  42.1723689  83.3922531  44.1270543  40.3289329  84.5840860
  43.8762239  39.3942502  84.8731393  45.2766159  40.9645766  85.2196889
  44.9843502  41.9325904  85.6266647  45.8080319  40.0960850  86.3592224
  46.0201674  39.0894664  85.9989215  46.7170060  40.5322131  86.7735393
  44.6654469  39.9010578  87.7503263  45.4635500  39.1248937  88.4779929
  46.3761147  41.2625882  84.2087466  47.0310867  42.3073030  84.2899670
  46.6091870  40.3520145  83.2617678  46.1630772  39.4459580  83.2738957
  47.5737706  40.6333527  82.2055608  48.5413820  40.8815211  82.6417258
  47.7428499  39.4093305  81.3066961  46.7895282  39.1967606  80.8228666
  48.4926438  39.6338169  80.5480691  48.1534292  38.2805460  82.0560500
  48.2524529  37.5264081  81.4703282  47.1427857  41.8404490  81.3855184
  47.9664340  42.7026713  81.0555517  45.8539462  41.9246105  81.0503070
  45.1948913  41.1919415  81.2715356  45.3674745  43.0996306  80.3450963
  45.8981416  43.1779554  79.3962249  44.3016679  42.9725838  80.1553211
  45.5792764  44.3767823  81.1360732  45.9950889  45.3999218  80.5875966
  45.3099000  44.3289821  82.4419478  44.9252306  43.4927219  82.8576371
  45.4883099  45.5052630  83.2902750  44.9796499  46.3785221  82.8818844
  44.9639642  45.2236067  84.7086304  45.3204081  44.2453545  85.0312304
  45.4569770  46.2884497  85.6790910  45.1005195  47.2669912  85.3573842
  45.0769987  46.0743007  86.6780191  46.5468202  46.2873727  85.6975265
  43.4340570  45.1460958  84.6984258  43.0630392  46.1491435  84.4878508
  43.1517823  44.4768061  83.8857317  42.8307706  44.6466612  85.9966521
  43.1122453  45.3157497  86.8097895  41.7447497  44.6212584  85.9071390
  43.2009906  43.6434125  86.2076715  46.9518145  45.9262550  83.3105036
  47.2841142  47.1068861  83.1400311  47.8513915  44.9666565  83.5311862
  47.5736138  44.0090572  83.6922532  49.2686884  45.2964044  83.6045128
  49.4308961  46.0767168  84.3480856  50.0757891  44.0659617  84.0052775
  49.5526452  43.6655803  84.8736751  50.0473595  43.3360742  83.1962312
  51.5290960  44.3580362  84.3765152  51.9674349  45.0026401  83.6146452
  51.6034384  45.0495603  85.7292715  51.1656766  44.4053249  86.4917832
  52.6453939  45.2503685  85.9784816  51.0525929  45.9892367  85.6883092
  52.3455154  43.0836544  84.3783456  52.3187837  42.6329911  83.3862330
  53.3772288  43.3128813  84.6450358  51.9293540  42.3859764  85.1050877
  49.7655453  45.8512486  82.2779224  50.5927066  46.7698073  82.2528013
  49.2766831  45.3065944  81.1629719  48.7004820  44.4773658  81.1846907
  49.6239596  45.8731678  79.8652802  50.7076158  45.9247852  79.7598095
  49.0652965  45.0006303  78.7428209  49.5310686  44.0196673  78.8369863
  47.9920846  44.9103077  78.9106242  49.3155629  45.5486441  77.3450864
  48.8713857  44.8649425  76.6216505  48.8348256  46.5236571  77.2654407
  50.8012697  45.6920203  77.0600520  51.2172196  46.4268597  77.7493239
  51.2807493  44.7272319  77.2255272  51.0491612  46.1413149  75.6322361
  50.4864013  45.4879270  74.9655382  50.6876406  47.1643179  75.5279911
  52.4915208  46.0872961  75.2771787  52.8266059  45.1393617  75.3732941
  52.6148653  46.3928215  74.3224325  53.0131106  46.6930009  75.8945642
  49.1090469  47.3003883  79.7443024  49.7873510  48.1688249  79.1828202
  47.9075054  47.5616855  80.2628416  47.3251654  46.8273182  80.6392511
  47.3828778  48.9226489  80.2508987  47.3343590  49.2933137  79.2270078
  45.9773079  48.9518582  80.8476274  45.3188747  48.4218526  80.1593985
  46.0142765  48.4185848  81.7975500  45.4457219  50.3559421  81.0760888
  45.9622300  50.7774366  81.9384476  45.6774326  50.9468047  80.1899224
  43.9550675  50.3796780  81.3211846  43.4125180  49.3572944  81.7898229
  43.3251219  51.4230980  81.0493371  48.2958055  49.8682438  81.0185382
  48.5622904  50.9885216  80.5690335  48.7846549  49.4364100  82.1820930
  48.5608830  48.5198905  82.5426723  49.6083443  50.3184717  82.9995928
  49.0825849  51.2552423  83.1843553  49.9118938  49.6547382  84.3442897
  50.2763058  48.6486895  84.1365176  50.7007107  50.2345860  84.8235018
  48.7058344  49.5761461  85.2707993  48.4643795  50.5919750  85.5836762
  47.8752896  49.1664890  84.6959267  48.9763193  48.5550705  86.7308840
  50.1293110  49.5685590  87.6490317  49.6700555  50.5317498  87.8713984
  50.3916883  49.0679136  88.5810258  51.0297918  49.7244838  87.0549583
  50.9044961  50.7059934  82.2982317  51.5518871  51.6732633  82.7099984
  51.2970154  49.9771557  81.2548649  50.7563375  49.1681020  80.9843119
  52.5086632  50.2795621  80.5061387  53.2399649  50.7598286  81.1562472
  53.1185087  48.9872353  79.9540746  52.3447188  48.2330512  79.8107049
  53.6080449  49.1903996  79.0016153  54.1550195  48.3739353  80.8468178
  53.7865093  47.5629477  81.9044535  52.7285157  47.3742066  82.0864592
  54.7388878  46.9956621  82.7241048  54.4352221  46.3615639  83.5570558
  56.0743762  47.2308273  82.4895800  56.8292729  46.7809925  83.1344674
  56.4568036  48.0352481  81.4390990  57.5140577  48.2245291  81.2533931
  55.5016152  48.6010446  80.6224287  55.8035429  49.2353189  79.7889806
  52.2781551  51.2438402  79.3505632  53.2520794  51.6856305  78.7315083
  51.0293494  51.5803033  79.0449361  50.2572304  51.2734113  79.6191736
  50.7347817  52.3589667  77.8519905  51.2423077  51.9095857  76.9984255
  49.2319783  52.3683123  77.5769457  48.7107937  52.8237222  78.4190077
  49.0311862  52.9425217  76.6724755  48.8802590  51.3453704  77.4428458
  51.2442097  53.7910166  77.9931895  51.4768428  54.2933123  79.0963749
  51.4196903  54.4511814  76.8449831  51.3377341  53.9826355  75.9540021
  51.7850037  55.8623880  76.8526736  52.6693428  56.0136720  77.4716702
  52.0957508  56.3368968  75.4319588  51.1602705  56.3027929  74.8735568
  52.4349790  57.3699132  75.5087788  53.1486160  55.5100721  74.7081585
  52.7744422  54.4905351  74.6152116  53.2909727  55.9362504  73.7150781
  54.4783725  55.4966879  75.4497261  54.3117945  55.0873244  76.4461057
  55.1692979  54.8539038  74.9042444  55.0709782  56.8924329  75.5680023
  55.0410053  57.3592995  74.5835035  54.4548947  57.4660431  76.2604701
  56.4747716  56.8638320  76.0604575  57.0459024  56.3327214  75.4187170
  56.8285314  57.8077144  76.1240192  56.5027090  56.4316467  76.9728907
  50.6864809  56.7249787  77.4510021  50.9462333  57.8707130  77.8324082
  49.4650953  56.1965568  77.5365668  49.2677249  55.2851352  77.1486816
  48.3721878  56.9359352  78.1534476  48.1603034  57.8418980  77.5856135
  47.1163363  56.0666845  78.1721331  47.0540777  55.5883277  77.1946885
  47.2743664  55.3075425  78.9381813  45.8235726  56.8085715  78.4549522
  45.9983279  57.5204161  79.2616980  45.5249932  57.3462281  77.5550201
  44.7146721  55.8421003  78.8611381  44.9589128  55.4420942  79.8452318
  43.7819456  56.4031642  78.9188270  44.5560774  54.6938138  77.8713730
  44.3526437  55.1169925  76.8876886  45.4932997  54.1381501  77.8405307
  43.4495154  53.7776979  78.2549342  42.5809031  54.2923007  78.2831521
  43.3779992  53.0334087  77.5759503  43.6380358  53.3851335  79.1662257
  48.7209118  57.3741494  79.5685328  48.2586830  58.4257558  80.0234321
  49.5301186  56.5851157  80.2769784  49.8464168  55.7126620  79.8783819
  49.9395898  56.9121050  81.6367392  49.5459093  57.8862935  81.9266904
  49.3929180  55.8570074  82.6010757  49.8358843  54.8833704  82.3915260
  49.6164537  56.1437229  83.6286584  47.9095043  55.6789287  82.5193835
  47.0180239  56.5928784  83.0349431  45.7840555  56.1729723  82.8213624
  44.9301678  56.7617795  83.1564460  45.8433865  55.0175456  82.1860807
  45.0543262  54.4605780  81.8906642  47.1614926  54.6852814  81.9861766
  47.4181723  53.7573781  81.4750872  51.4520042  57.0110644  81.7884322
  51.9414849  57.1491677  82.9159117  52.2061559  56.9463444  80.6897509
  51.7865708  56.8059455  79.7818215  53.6604746  57.0149904  80.7762366
  53.9928799  56.2341846  81.4603040  54.2803201  56.7576400  79.4030751
  53.9639622  57.5365514  78.7093067  55.3670473  56.7660978  79.4870553
  53.9526304  55.7864777  79.0321812  54.1532359  58.3483082  81.3193563
  55.3194637  58.4497491  81.7145605  53.3017914  59.3736933  81.3466442
  52.3681425  59.2973739  80.9690539  53.7298579  60.6621508  81.8754764
  54.6059781  60.9974223  81.3204038  52.6157899  61.6921733  81.6977830
  51.7345761  61.3748751  82.2553529  52.9519927  62.6597316  82.0704744
  52.3647581  61.7779011  80.6405541  54.1291919  60.5618026  83.3412983
  55.1369068  61.1441431  83.7571940  53.3536238  59.8286287  84.1423295
  52.5617718  59.3309660  83.7610138  53.5844003  59.7618950  85.5777635
  54.5286035  60.2470198  85.8252171  52.4561547  60.4746418  86.3295109
  52.6950656  60.4756284  87.3930050  52.4280531  61.5007953  85.9630149
  51.1146524  59.8306919  86.1183497  50.6827876  58.8090139  86.9442684
  51.3333676  58.4730840  87.7517313  49.4604846  58.2213262  86.7608579
  49.1337190  57.4141872  87.4164894  48.6384349  58.6613544  85.7492352
  47.4139912  58.0690468  85.5735754  47.2417417  57.3686867  86.2071569
  49.0398649  59.6760774  84.9146358  48.3934903  60.0209242  84.1075540
  50.2709281  60.2576828  85.1056137  50.5973925  61.0687430  84.4546895
  53.7115393  58.3539911  86.1442652  53.8804324  58.2179615  87.3602874
  53.6236642  57.3114047  85.3252843  53.3870207  57.4465580  84.3527449
  53.8038277  55.9501209  85.8090697  53.6049085  55.9489524  86.8807641
  52.8042943  55.0144952  85.1251205  52.9966580  54.9980257  84.0523554
  52.9132561  54.0078652  85.5287584  51.7900756  55.3702821  85.3064362
  55.2171224  55.4276482  85.5971702  55.4919706  54.2725342  85.9317015
  56.1156094  56.2457097  85.0620865  55.8624573  57.2028001  84.8621083
  57.4423718  55.7852896  84.6701325  57.3631852  54.8506823  84.1148508
  58.1205257  56.8288185  83.7776614  59.1434564  56.5114736  83.5751666
  57.5777947  56.9255572  82.8373504  58.2065619  58.1986919  84.3639025
  57.2790740  59.1922841  84.2633757  56.3740225  58.9659254  83.6996885
  57.7125797  60.3122149  84.9271716  57.2073282  61.1833727  85.0040126
  58.9431483  60.0562155  85.4701551  59.7758870  60.8713749  86.2248600
  59.4472318  61.8856516  86.4514151  60.9653710  60.3437885  86.6387406
  61.6458116  60.9544718  87.2321767  61.3339684  59.0347461  86.3192144
  62.2864441  58.6256288  86.6561308  60.5096982  58.2229837  85.5718406
  60.8418040  57.2081295  85.3530316  59.2864230  58.7343444  85.1327630
  58.3423845  55.4434971  85.8573158  59.2274063  54.5916253  85.7115217
  58.1822169  56.0618979  87.0333378  57.2318791  57.1116049  87.4391261
  56.2635037  56.6620935  87.6588736  57.1210358  57.8354855  86.6317788
  57.8767565  57.7017853  88.6473965  57.1150571  58.1256284  89.3018198
  58.5740084  58.4842373  88.3478802  58.5845489  56.5887512  89.2976628
  57.9053605  56.0241515  89.9364345  59.4326390  56.9363860  89.8875719
  59.0762837  55.7015095  88.1462524  60.0908778  55.9631502  87.8458508
  59.0234879  54.2326384  88.5204067  60.0264537  53.6938027  89.0010883
  57.8886761  53.5681271  88.3210458  57.1014014  54.0481886  87.9089309
  57.7169534  52.1782522  88.7228582  58.4047860  51.9354164  89.5328065
  56.2848685  51.9487798  89.2120057  55.5950405  51.9860830  88.3688894
  56.2042800  50.9795349  89.7041133  55.8103770  52.9726881  90.2003734
  56.4269286  53.1061937  91.4309104  57.2682788  52.4593512  91.6795559
  55.9875728  54.0457508  92.3394823  56.4816567  54.1423474  93.3062557
  54.9256166  54.8610988  92.0255164  54.5781692  55.6045697  92.7428944
  54.3015751  54.7381685  90.8052781  53.4592280  55.3830372  90.5548865
  54.7428627  53.7983156  89.8993859  54.2492210  53.6993276  88.9326288
  58.0278790  51.1833889  87.6119279  57.9971205  49.9743546  87.8619123
  58.3254221  51.6504182  86.3984417  58.4073770  52.6415321  86.2221578
  58.4872521  50.7321052  85.2754469  57.5571260  50.1914637  85.1003146
  58.8483042  51.5063015  84.0079046  59.5527150  52.2807871  84.3113461
  59.3465620  50.8045781  83.3390073  57.6784420  52.1423317  83.2903120
  56.4556057  52.3170404  83.9206320  56.3434608  51.9886633  84.9539236
  55.3897315  52.8963099  83.2606306  54.4344367  53.0302403  83.7681505
  55.5388422  53.3060097  81.9533992  54.4816589  53.8829952  81.2883727
  53.6908738  53.9509334  81.8284126  56.7426828  53.1407649  81.3072173
  56.8618351  53.4651755  80.2734567  57.8009744  52.5615410  81.9741831
  58.7562163  52.4258124  81.4670432  59.5458083  49.6722376  85.5432330
  59.4512423  48.5599534  85.0132148  60.5531725  49.9832808  86.3459151
  60.5679967  50.8866288  86.7974037  61.6692695  49.0803286  86.5742347
  61.3832700  48.0701966  86.2810850  62.8997572  49.4972831  85.7592605
  63.0968019  50.5466355  85.9786507  63.7388428  48.8913692  86.1011725
  62.7235838  49.3181633  84.2625518  62.4497336  48.2807851  84.0703189
  61.9184522  49.9734945  83.9302776  63.9940822  49.6542204  83.5045930
  64.2965229  50.6686402  83.7645564  64.7741283  48.9547641  83.8052395
  63.7801101  49.5589746  82.0040877  63.4890338  48.5355100  81.7676655
  62.9714606  50.2378853  81.7334119  65.0035907  49.9155323  81.2378796
  65.7529053  49.2862849  81.4882295  64.8156113  49.8384752  80.2485233
  65.2732318  50.8640069  81.4564858  62.0081943  49.0611962  88.0548798
  61.6231467  49.9709667  88.7974867  62.7228397  48.0339513  88.5156170
  63.2496371  46.8859967  87.7594704  64.1042741  47.2070436  87.1639665
  62.4722524  46.5002627  87.0999393  63.6272832  45.9110358  88.8253281
  64.4906978  45.3341147  88.4940031  62.7898370  45.2378742  89.0087362
  63.9412782  46.7092992  90.0379867  64.9958559  46.9812631  89.9932607
  63.7395000  46.1918345  90.9758649  63.0732637  47.9696397  89.9385766
  62.1554940  47.8913184  90.5213826  63.8419411  49.2088469  90.3690444
  64.6903100  49.7223614  89.6379472  63.5365005  49.6888265  91.5714552
  62.7968227  49.2778757  92.1229037  64.2229312  50.8606440  92.1000560
  64.2960155  51.6572143  91.3596280  63.5031341  51.4073572  93.3383737
  63.4119999  50.6107747  94.0767843  64.2843265  52.5675112  93.9380603
  64.3754805  53.3647305  93.2003386  63.7597881  52.9440523  94.8162270
  65.2780486  52.2259079  94.2277587  62.0879002  51.8346320  92.9836255
  61.5340324  50.9772426  92.6012438  61.5904443  52.2203752  93.8734791
  62.1231050  52.6130552  92.2214451  65.6610455  50.4777159  92.4196924
  65.9145029  49.5962039  93.2487834  66.6082784  51.1383222  91.7626755
  66.3566450  51.8417153  91.0829564  68.0203884  50.8429006  91.9599501
  68.1647551  49.7656066  92.0417745  68.8423070  51.3569012  90.7814937
  68.3769035  50.9928341  89.8655494  68.8070278  52.4462019  90.7982067
  70.2876805  50.8971122  90.8314086  70.7939803  50.6234253  91.9401267
  70.9202229  50.8094787  89.7592820  68.4846020  51.4766799  93.2655892
  68.4135043  52.6986722  93.4285738  68.9584093  50.6448453  94.1946957
  68.9709947  49.6463162  94.0434325  69.4061949  51.1539946  95.4849891
  68.7362716  51.9128153  95.8893318  69.5179940  50.0031913  96.5029217
  69.9533235  50.3838945  97.4268549  68.1417867  49.4241305  96.7922902
  67.7059843  49.0427810  95.8688457  68.2331498  48.6115277  97.5130050
  67.4984876  50.2024794  97.2027059  70.4702698  48.9198164  96.0009631
  71.4607193  49.3484015  95.8479054  70.5313657  48.1191024  96.7380005
  70.0993332  48.5176404  95.0582218  70.7310718  51.8924517  95.3774749
  71.0792790  52.6625251  96.2802289  71.4848725  51.6807069  94.3016317
  71.1616991  51.0409750  93.5900129  72.7934840  52.2988618  94.1321109
  73.1352703  52.7152725  95.0796780  73.8106064  51.2539116  93.6611597
  73.8069499  50.4506488  94.3979465  73.4545686  50.8707083  92.7048688
  75.2238661  51.7848469  93.4987442  75.2214865  52.5097710  92.6847539
  75.5041880  52.2826017  94.4270539  76.2224408  50.6861721  93.1934664
  76.1686696  49.6320914  93.8607778  77.0593790  50.8754029  92.2859196
  72.7696924  53.4630082  93.1514697  73.4754345  54.4543257  93.3555157
  71.9713856  53.3620969  92.0902716  71.4195166  52.5272260  91.9541453
  71.9073290  54.4046525  91.0763527  72.9215632  54.7645061  90.9033399
  71.3624172  53.8309743  89.7676058  70.3439947  53.4747571  89.9226060
  71.3628140  54.6069492  89.0021236  71.9915144  53.0017571  89.4439784
  71.0569164  55.5916689  91.5010111  70.9910301  56.5785714  90.7621584
  70.3990882  55.5178529  92.6575159  70.3818398  54.6435669  93.1629126
  69.6476808  56.6401749  93.1958477  69.8233286  57.5296932  92.5908648
  68.1460519  56.3272706  93.1829396  68.0626311  55.3940790  93.7399797
  67.6149212  57.1163106  93.7153080  67.5322110  56.1477879  91.7931143
  68.1382120  55.4388116  91.2290077  66.1093825  55.6267059  91.8970889
  65.5026237  56.3354203  92.4607080  65.6919962  55.5063903  90.8973822
  66.1109566  54.6638110  92.4079031  67.5662663  57.4463816  91.0139965
  68.5991629  57.7754220  90.9001698  67.1241454  57.2918726  90.0297418
  67.0000315  58.2076228  91.5506425  70.0779466  57.0160932  94.6053532
  69.5023727  57.9444053  95.1843387  71.0622626  56.3247320  95.1774359
  71.4178695  55.4957436  94.7230996  71.6490445  56.7204893  96.4404656
  72.6292542  56.2467296  96.4937563  71.7707718  57.8030874  96.4049242
  70.8572940  56.3543360  97.6769311  71.2733173  56.7187940  98.7838299
  69.7389136  55.6476928  97.5360845  69.4364327  55.3641687  96.6150967
  68.8911689  55.3109030  98.6780808  68.8102244  56.1698492  99.3442329
  67.4951829  54.9256464  98.2093321  67.6394110  53.9823378  97.6825814
  66.8643844  54.7606734  99.0828178  66.8210455  55.9310022  97.2773625
  67.4679478  56.1099194  96.4185220  65.4832667  55.3926654  96.7997617
  64.8356118  55.2139270  97.6580709  65.0143633  56.1195730  96.1365606
  65.6385414  54.4576639  96.2614659  66.6442837  57.2741171  97.9695053
  67.6194066  57.6643857  98.2609245  66.1623521  57.9743865  97.2872547
  66.0242618  57.1472982  98.8569673  69.5501143  54.1814247  99.4569106
  69.3035340  52.9991276  99.2175912  70.4084485  54.5585181 100.4060454
  70.6138207  55.5349371 100.5626580  71.1179551  53.5653082 101.2060056
  71.6115618  52.8438574 100.5548831  72.1786903  54.2509250 102.0686471
  71.7034928  54.8674380 102.8316664  72.8082077  53.5013017 102.5480975
  73.0941159  55.1506249 101.3004791  73.8560136  54.7079751 100.2407093
  74.5635227  55.7136025  99.7595188  75.2331231  55.5667973  98.9120623
  74.2890276  56.7928783 100.4706124  74.6831329  57.7123962 100.3318038
  73.3732145  56.4667838 101.4400709  73.0185293  57.2294437 102.1333597
  70.1568645  52.7700252 102.0805682  70.2369281  51.5377665 102.1506913
  69.2400029  53.4606610 102.7592067  69.1805545  54.4640082 102.6599111
  68.3416391  52.8051740 103.7010035  68.8852180  52.0571639 104.2781535
  67.7551397  53.8379658 104.6677307  67.1991975  53.2990201 105.4349107
  68.5856083  54.3721532 105.1293211  66.8346833  54.8311609 103.9795481
  66.6635200  54.7419651 102.7451570  66.2793419  55.7058956 104.6779786
  67.2075616  52.0473513 103.0243330  66.6017647  51.1798806 103.6620238
  66.9037103  52.3487006 101.7596520  67.4120704  53.0533298 101.2447083
  65.7733591  51.6962540 101.1075985  64.8497007  51.9398717 101.6325792
  65.6529486  52.1717651  99.6627146  65.6070026  53.2606750  99.6789453
  66.5594578  51.8545204  99.1472565  64.4442357  51.6276198  98.9365515
  63.2295413  52.2941886  98.9748991  63.1564459  53.2213868  99.5432828
  62.1250487  51.8039409  98.3101621  61.1758602  52.3383733  98.3492129
  62.2264115  50.6320802  97.5942499  61.1286646  50.1386832  96.9302730
  60.3489717  50.6891023  97.0337981  63.4216334  49.9516377  97.5396744
  63.5023630  49.0237167  96.9735068  64.5219572  50.4507955  98.2072807
  65.4720836  49.9181661  98.1664662  65.8991273  50.1802374 101.1515193
  64.8851585  49.4753589 101.1938368  67.1279031  49.6589861 101.1403293
  67.9436559  50.2309060 100.9743348  67.3144493  48.2236093 101.3183853
  66.7776083  47.6787451 100.5418390  68.7991639  47.8712751 101.2249134
  69.3606167  48.4084945 101.9892858  68.9388831  46.7985923 101.3588175
  69.5769374  48.2844642  99.6495625  70.7885442  47.8407551  99.9720984
  66.7461105  47.7620165 102.6526900  66.1550966  46.6798373 102.7458823
  66.9130347  48.5743576 103.6975212  67.3869239  49.4593354 103.5864235
  66.4763216  48.1869150 105.0339328  66.5874975  47.1109768 105.1684548
  67.3290816  48.9016065 106.0840549  67.2795375  49.9715829 105.8820766
  66.8976537  48.6969905 107.0639030  68.7767611  48.4505167 106.0653476
  69.0862844  47.4652335 105.3617651  69.6054429  49.0794350 106.7554014
  64.9984999  48.4855345 105.2620495  64.2554806  47.6279583 105.7508474
  64.5497766  49.6936864 104.9169157  65.1481065  50.3803159 104.4802915
  63.1863782  50.0832264 105.2614057  62.9684592  49.8631018 106.3064682
  62.9772848  51.5853388 104.9994927  63.4852602  51.8574078 104.0742685
  61.4914491  51.9058696 104.8764276  60.9828455  51.6344836 105.8015074
  61.3634096  52.9723954 104.6914159  61.0645650  51.3401575 104.0482736
  63.6175109  52.3983992 106.1278639  63.0545491  52.1821526 107.0358354
  64.6399469  52.0377461 106.2403509  63.6335029  53.8933340 105.8883578
  62.6113200  54.2548152 105.7762269  64.1040006  54.3925237 106.7354356
  64.1967164  54.1104085 104.9807406  62.1656124  49.2359760 104.5136991
  61.0962525  48.9289597 105.0540965  62.4575147  48.8461654 103.2761420
  63.3135886  49.1721471 102.8507332  61.5655183  48.0100451 102.4816105
  60.6094321  47.8871238 102.9904216  61.3283600  48.5985737 101.0807493
  62.2900555  48.7462885 100.5894018  60.4732135  47.6549226 100.2477834
  59.5111111  47.5070776 100.7382947  60.3140435  48.0852031  99.2590345
  60.9810697  46.6955856 100.1485175  60.6644598  49.9731979 101.1878885
  61.3592297  50.6219747 101.7212591  60.5307694  50.3426695 100.1711697
  59.3257449  49.9680987 101.9042973  59.4587204  49.5991593 102.9213032
  58.9258519  50.9816160 101.9354001  58.6302604  49.3198519 101.3712146
  62.1730765  46.6182856 102.3956599  63.3522091  46.4677222 102.0558911
  61.3665843  45.6050670 102.7029375  60.4031305  45.7978598 102.9367900
  61.8281907  44.2265678 102.7621118  62.9177414  44.1952917 102.7624267
  61.3188744  43.5629941 104.0461273  60.2364336  43.4785001 103.9497842
  61.7588016  42.5663706 104.0822611  61.6572067  44.3138288 105.3278092
  61.2004438  45.3019473 105.2722192  61.2298869  43.7632235 106.1658626
  63.1559360  44.4597160 105.5296270  63.6083953  43.4682031 105.5128440
  63.5613762  45.0574027 104.7132396  63.4669212  45.1359049 106.8552535
  64.5186702  45.4220808 106.8499725  62.8480443  46.0298978 106.9318513
  63.2008573  44.2478938 108.0186160  63.7745405  43.4196375 107.9480546
  63.4211485  44.7381937 108.8737053  62.2262427  43.9829464 108.0239367
  61.3891341  43.3975968 101.5638287  61.7556580  42.2209908 101.4772345
  60.6163999  43.9695729 100.6427971  60.3338166  44.9322376 100.7590839
  60.1105738  43.2329734  99.4830669  60.8329286  42.4700043  99.1929272
  58.7805798  42.5500783  99.8030420  58.0788702  43.2689566 100.2260277
  58.3561320  42.1192117  98.8962355  58.8986151  41.4343045 100.7923558
  58.9322963  41.6478828 102.1545187  59.0424959  40.4889634 102.7767588
  59.0860180  40.4457261 103.8650305  59.0810406  39.5300265 101.8691507
  59.1607929  38.5400236 102.0525456  58.9946443  40.0957452 100.6198036
  59.0121350  39.4628355  99.7325491  59.9593971  44.1881208  98.3118333
  58.8578865  44.6617298  98.0065810  61.0555065  44.4985639  97.6219143
  62.4472334  44.1153619  97.9074166  62.6317160  43.1055525  97.5408770
  62.6232122  44.1488701  98.9825946  63.2354317  45.1460807  97.1693026
  64.1998340  44.7314907  96.8758026  63.3933404  46.0154004  97.8076202
  62.4097478  45.5030143  95.9772247  62.6119798  44.7781173  95.1887290
  62.5871933  46.5096961  95.5988011  60.9561067  45.3695719  96.4477291
  60.5327503  46.3243721  96.7595370  60.0761664  44.7529820  95.3716784
  60.0220059  43.5318002  95.2054180  59.3777912  45.6164223  94.6378161
  59.4165097  46.6033984  94.8487154  58.5121123  45.1760604  93.5548861
  58.9375471  44.2864003  93.0905486  57.1053309  44.8368666  94.0674205
  57.2309615  44.1471682  94.9020656  56.6677423  45.7675684  94.4285445
  56.1840228  44.2129595  93.0282231  55.2567481  43.9395395  93.5317149
  55.9769933  44.9716738  92.2735089  56.8762787  42.7531305  92.2269671
  56.9254749  41.6015905  93.5974566  55.9167124  41.4495979  93.9813779
  57.3317845  40.6488885  93.2577921  57.5579172  42.0043573  94.3885930
  58.4468113  46.2704316  92.5009347  58.6897153  47.4460629  92.7820996
  58.1155430  45.8679925  91.2764944  57.9605240  44.8872941  91.0912943
  58.0185815  46.8039469  90.1655628  57.4456744  47.6777855  90.4758574
  59.4034152  47.2645363  89.7087455  59.2684221  47.9960611  88.9120350
  59.8981350  47.7385218  90.5565014  60.2529179  46.1230902  89.2046860
  60.8410120  45.4130336  90.0450591  60.3345260  45.9353119  87.9734763
  57.2653483  46.1353366  89.0256356  57.1805620  44.9077550  88.9494146
  56.7223842  46.9666191  88.1343845  56.8826453  47.9627811  88.1799583
  55.8197823  46.4574089  87.1070477  55.0071055  45.8960449  87.5680531
  55.2227411  47.6191647  86.3151397  56.0205086  48.3411017  86.1405737
  54.8775366  47.2220234  85.3605651  54.0655042  48.3047151  87.0273162
  53.2018420  47.6430171  86.9614053  54.3499809  48.4269638  88.0724144
  53.6328538  49.9151502  86.3380750  53.4159477  49.5058923  84.6098531
  52.6238971  48.7639801  84.5082609  53.1453231  50.4038982  84.0544718
  54.3462971  49.1001208  84.2124859  56.5137329  45.4778288  86.1702332
  55.8818647  44.5303077  85.6893723  57.8030775  45.6793863  85.8928686
  58.2973529  46.4940987  86.2275845  58.5175872  44.7414978  85.0331587
  57.9796700  44.6151607  84.0935933  59.9188074  45.2670986  84.7265745
  60.3755371  45.6072358  85.6559850  60.5124245  44.4551495  84.3065060
  59.8691380  46.3410831  83.8046460  60.7597797  46.6531154  83.6285976
  58.5952622  43.3601967  85.6699781  58.4276150  42.3424134  84.9881221
  58.8607321  43.3022805  86.9761348  59.0772918  44.1326549  87.5087506
  58.9035200  42.0137288  87.6569253  59.6075637  41.3427176  87.1648220
  59.3417705  42.2015355  89.1108188  58.7278645  42.9792094  89.5651785
  59.1835691  40.9082216  89.8953087  59.7975837  40.1301447  89.4417870
  59.5013505  41.0665796  90.9258605  58.1382304  40.5997226  89.8813086
  60.7130532  42.6151087  89.1504406  60.9856845  42.7322705  90.0634278
  57.5512681  41.3156260  87.5930798  57.4787843  40.1098827  87.3323899
  56.4661381  42.0610996  87.8057177  56.5426112  43.0316248  88.0746639
  55.1368226  41.4633276  87.7434997  55.0768135  40.5609308  88.3519222
  54.0781700  42.4755153  88.2209971  54.2278026  43.4175567  87.6934856
  52.6696769  41.9552826  87.9434107  52.5191277  41.0134300  88.4709990
  51.9375614  42.6854255  88.2883730  52.5454640  41.7950962  86.8724249
  54.2765041  42.7581638  89.7131551  54.2537046  41.7951920  90.2233180
  55.2655493  43.2031517  89.8221265  53.2390767  43.6779204  90.3244995
  52.2497547  43.2333550  90.2163166  53.4585322  43.8216684  91.3824574
  53.2615981  44.6413146  89.8151231  54.8480867  40.9578302  86.3355846
  54.2652815  39.8809865  86.1543809  55.2363214  41.7275003  85.3185051
  55.6425441  42.6396757  85.4702235  55.0242591  41.2846045  83.9446955
  53.9706853  41.0555589  83.7846343  55.4377426  42.3854683  82.9705953
  54.9382398  43.3006652  83.2884174  56.5165821  42.5096036  83.0643815
  55.0862537  42.0941521  81.5229626  55.5673772  41.1612265  81.2292434
  54.0046488  41.9854885  81.4428057  55.5515468  43.2134757  80.6075905
  55.0683522  44.1388299  80.9211852  56.6319454  43.3157308  80.7094837
  55.2050604  42.9283592  79.1570356  55.6158266  41.9538111  78.8931648
  54.1193399  42.9016348  79.0643215  55.7553476  43.9627095  78.2404220
  56.7614255  43.9873371  78.3258636  55.5037008  43.7372725  77.2886068
  55.3745176  44.8657592  78.4844893  55.7943175  40.0029048  83.6593220
  55.2650135  39.0780619  83.0305176  57.0469634  39.9281700  84.1127245
  57.4969818  40.7155615  84.5572438  57.8219388  38.7071450  83.9193207
  57.8633495  38.4567276  82.8592850  59.2488433  38.9016970  84.4313109
  59.2034081  39.2791529  85.4528597  59.7558650  37.9368323  84.4232475
  59.9640517  39.8171948  83.6215197  60.8545672  39.9202592  83.9649724
  57.1631121  37.5262634  84.6184974  57.0801384  36.4285153  84.0563495
  56.6852285  37.7329204  85.8478917  56.8047954  38.6197264  86.3162698
  56.0348291  36.6481693  86.5758593  56.6994817  35.7859355  86.6296099
  55.6971767  37.0936995  87.9977185  55.0247700  37.9472146  87.9112287
  55.1724180  36.2651482  88.4733560  56.9017103  37.4812357  88.8409719
  57.4400998  38.2722916  88.3189870  56.5385356  37.8591288  89.7966931
  57.8326339  36.3117017  89.0819398  57.2676340  35.5052286  89.5493532
  58.2236181  35.9722420  88.1227746  58.9861247  36.7112009  89.9857037
  59.5175345  37.5373634  89.5133058  58.5724770  37.0431006  90.9379838
  59.9293724  35.5850438  90.2207080  60.3131080  35.2776321  89.3384695
  60.6781055  35.8934211  90.8243653  59.4372497  34.8195593  90.6588265
  54.7840872  36.1717927  85.8482915  54.5350878  34.9650502  85.7528143
  53.9833418  37.1031714  85.3255990  54.1534085  38.0886015  85.4673884
  52.7900875  36.7063660  84.5832805  52.1925673  36.0211056  85.1845184
  51.9377910  37.9292612  84.2444946  52.6679623  38.7216306  84.0798738
  51.4040568  37.7289885  83.3154528  50.9413535  38.3694210  85.3204471
  51.4666471  38.4677922  86.2704421  50.3108347  39.7004913  84.9508906
  49.7849319  39.6027809  84.0011655  49.6056139  39.9970800  85.7272923
  51.0887233  40.4584264  84.8585649  49.8677482  37.3138152  85.5308799
  50.3327599  36.3796477  85.8458320  49.1724101  37.6502998  86.2998950
  49.3272279  37.1535737  84.5980030  53.1594606  35.9473746  83.3151805
  52.5209635  34.9434077  82.9776650  54.1843536  36.4095652  82.5966971
  54.6536405  37.2715937  82.8349743  54.6130404  35.6970471  81.3973221
  53.7687610  35.5712950  80.7194741  55.7075415  36.4831177  80.6741027
  56.4198752  36.8132809  81.4301928  56.1997716  35.7933452  79.9885200
  55.1956622  37.6880206  79.8998235  54.3698726  37.3563148  79.2704240
  54.8308757  38.4187940  80.6216269  56.2669945  38.3240396  79.0341902
  57.4540709  37.9749431  79.2011852  55.9222333  39.1729288  78.1855962
  55.1043938  34.2951064  81.7321313  55.0157617  33.3900257  80.8949120
  55.6246759  34.0981649  82.9399991  55.7570915  34.8917503  83.5505625
  56.0687081  32.7905451  83.4014349  56.3339282  32.2002056  82.5243621
  57.3111086  32.9404548  84.2844592  57.0591043  33.5217148  85.1714377
  57.6647969  31.9543105  84.5853318  58.0948727  33.4521791  83.7259331
  54.9881012  32.0327653  84.1632882  55.2546183  30.9324080  84.6565309
  53.7814879  32.5894031  84.2717491  53.6376632  33.5228258  83.9137884
  52.6713208  31.9322717  84.9604102  51.8229871  32.6140754  85.0201829
  52.2341825  30.6728618  84.2114418  53.1006349  30.0139545  84.1548677
  51.4549913  30.1972832  84.8070811  51.7084629  30.9397104  82.8099573
  51.0517237  30.1161819  82.5296089  51.1375919  31.8680247  82.8309560
  52.8326641  31.0594337  81.7936232  53.1382274  32.1033211  81.7227063
  53.6775358  30.4558087  82.1251772  52.4221253  30.6021238  80.4717490
  51.5137337  30.1667880  80.3982174  53.1580593  30.7192942  79.3753015
  54.3581629  31.2772183  79.4034983  54.7298704  31.6245046  80.2760381
  54.8965710  31.3530441  78.5523421  52.6787468  30.2672894  78.2200287
  51.7635483  29.8412328  78.1886047  53.2321384  30.3521504  77.3794009
  53.0297154  31.5990307  86.4061601  52.6574952  30.5499181  86.9337772
  53.7618434  32.5041520  87.0556161  54.1036301  33.3250670  86.5766800
  54.1348031  32.3131501  88.4509588  54.4396373  31.2798305  88.6165662
  55.3026278  33.2317522  88.8154048  54.9380607  34.2565549  88.7449106
  55.5719822  33.0127515  89.8486458  56.5272023  33.0668941  87.9263012
  56.1967168  33.1456323  86.8905983  57.2159530  33.8814805  88.1502888
  57.2300255  31.7407253  88.1323155  56.8311803  30.9889512  89.0466908
  58.1845130  31.4504152  87.3811679  52.9742082  32.5652430  89.4046975
  53.0577137  32.1786950  90.5747695  51.9020287  33.2047017  88.9368796
  51.8809876  33.4689189  87.9622792  50.7684858  33.5740377  89.7784433
  51.0903697  33.6306388  90.8182924  50.1994445  34.9306976  89.3692550
  50.0185141  34.8902828  88.2951367  49.2504136  35.0453878  89.8929786
  51.0917114  36.1038449  89.6842985  51.1636678  36.6155833  90.9711652
  50.5600028  36.1555638  91.7535143  51.9785107  37.6848667  91.2693619
  52.0265151  38.0771521  92.2851914  52.7324209  38.2605083  90.2736219
  53.5446387  39.3306479  90.5670882  53.5060009  39.5886272  91.4909678
  52.6803718  37.7685858  88.9869051  53.2817394  38.2230400  88.1995495
  51.8645550  36.6989941  88.6987063  51.8186755  36.3067369  87.6827686
  49.6865016  32.5070874  89.6794426  49.0259300  32.3765625  88.6440526
  49.5076049  31.7444886  90.7598434  50.0747555  31.8643431  91.5869313
  48.5185165  30.6743786  90.7495127  48.6747320  30.0319659  89.8829091
  48.6448652  29.8266256  92.0150596  48.3919852  30.4707567  92.8572271
  47.9096786  29.0256504  91.9373452  50.0253917  29.2276489  92.2322037
  50.2263752  28.5095485  91.4371955  50.7655648  30.0269280  92.1948040
  50.1039051  28.5292030  93.5752116  49.3355394  27.7577793  93.6263837
  51.0864330  28.0706131  93.6867178  49.8983917  29.4675122  94.6740628
  50.4539099  30.3107116  94.6513963  49.0528903  29.2926771  95.6830415
  48.2906202  28.2139911  95.7765612  48.3452545  27.4976699  95.0666323
  47.6580777  28.1125185  96.5573895  48.9666678  30.2298728  96.6237428
  49.5409549  31.0583419  96.5610259  48.3273346  30.1084447  97.3961461
  47.1067814  31.2319275  90.6271724  46.2306858  30.5836282  90.0434262
  46.8702503  32.4259898  91.1690656  47.6006689  32.8870314  91.6925430
  45.5704233  33.0725962  91.0829786  45.1281497  32.8641346  90.1087933
  44.6181234  32.5662680  92.1715527  43.6132486  32.9101638  91.9264780
  44.6428472  31.4766758  92.1548929  44.9963120  33.0576624  93.5507394
  44.6559964  34.2107200  93.8834141  45.6318214  32.2894847  94.3031196
  45.7674657  34.5787380  91.1881277  46.8136769  35.0598365  91.6296573
  44.7388222  35.3214725  90.7723455  43.8768208  34.8830790  90.4810311
  44.8464739  36.7729087  90.6679556  45.7150842  36.9943730  90.0478195
  43.6018935  37.3392578  89.9853449  42.7248553  37.1333304  90.5989392
  43.7132215  38.4164591  89.8614757  43.4786899  36.8724854  89.0080816
  45.0443344  37.4609650  92.0126339  45.5147753  38.6040998  92.0422039
  44.6918966  36.8085055  93.1213336  44.2804799  35.8866265  93.0901117
  44.8386654  37.4565965  94.4196933  44.3260949  38.4185512  94.4159675
  44.2293722  36.5829162  95.5152523  43.2896698  36.1874694  95.1296614
  44.9216050  35.7607957  95.6969985  43.9708445  37.3236627  96.8159933
  43.5724633  36.6167468  97.5437729  44.9111468  37.7331745  97.1850917
  42.9788465  38.4599670  96.6504688  42.0955174  38.4066888  95.7939028
  43.1242072  39.4979147  97.4663051  42.4908759  40.2817934  97.3990220
  43.8674066  39.4985586  98.1502317  46.3019848  37.7533684  94.7215358
  46.6274563  38.8061713  95.2845176  47.2011541  36.8393117  94.3530539
  46.9203280  35.9362702  93.9984385  48.6265221  37.1069048  94.5129694
  48.8467351  37.3438400  95.5538667  49.4408504  35.8774105  94.1088913
  49.2185705  35.6768087  93.0608217  50.4930552  36.1424878  94.2123279
  49.1477131  34.6349074  94.9358143  49.3595154  34.8713703  95.9785635
  48.0893330  34.3989855  94.8250366  49.9801909  33.4382183  94.5092105
  50.3244826  33.3483143  93.3125110  50.2874054  32.5875403  95.3704951
  49.0501369  38.3191415  93.6946236  49.8422203  39.1457892  94.1604597
  48.5360274  38.4418873  92.4692658  47.9388342  37.7258994  92.0809090
  48.8769200  39.5890612  91.6313527  49.9585449  39.6750264  91.5274452
  48.2657418  39.4006957  90.2416130  48.8869376  38.7218803  89.6572974
  47.2584702  38.9920487  90.3223067  48.1521160  40.6690669  89.4480761
  47.0205256  41.4629403  89.5394544  46.2086686  41.1575026  90.1995271
  46.9136836  42.6263234  88.8085552  46.0192184  43.2437776  88.8909141
  47.9391382  43.0081910  87.9733246  47.8574094  43.9278957  87.3940461
  49.0703025  42.2263436  87.8697729  49.8830665  42.5273088  87.2087625
  49.1727458  41.0641361  88.6024803  50.0655817  40.4444211  88.5194311
  48.4020840  40.8920321  92.2660130  49.1385206  41.8883488  92.3025662
  47.1637789  40.9062281  92.7606481  46.5531138  40.1047444  92.6912837
  46.6620963  42.0995178  93.4212177  46.6966608  42.9284412  92.7142591
  45.6295586  41.9219784  93.7219586  47.4771383  42.4618993  94.6462427
  47.7889652  43.6353982  94.8752435  47.8378400  41.4573630  95.4478805
  47.5062029  40.5159692  95.2933045  48.6795712  41.7112999  96.6103480
  48.1974159  42.4530167  97.2471223  48.8674446  40.4254344  97.4144795
  49.3574426  39.6759426  96.7929781  49.4839735  40.6304120  98.2896803
  47.8951114  40.0514860  97.7351506  50.0269682  42.2799135  96.1913229
  50.5488377  43.1916587  96.8371031  50.6031573  41.7564932  95.1083699
  50.1851280  40.9808956  94.6146097  51.8923295  42.2570175  94.6450649
  52.6211960  42.2169767  95.4545397  52.4009485  41.3999945  93.4874292
  51.5508325  41.1822865  92.8408959  53.1391400  41.9797091  92.9332594
  53.0254393  40.1021570  93.9534442  53.0042337  39.8342037  95.1732845
  53.5452223  39.3516132  93.1010455  51.8005649  43.7188111  94.2247020
  52.6671578  44.5281637  94.5733365  50.7622201  44.0775609  93.4697626
  50.0850893  43.4018024  93.1458126  50.6289858  45.4637078  93.0198220
  51.5457926  45.8303233  92.5581321  49.4812870  45.5887798  92.0014696
  48.5977477  45.0885710  92.3980156  49.1615632  47.0502147  91.7424278
  50.0445534  47.5510155  91.3454041  48.3481690  47.1222874  91.0204197
  48.8621033  47.5280390  92.6752244  49.8487849  44.8836646  90.7048418
  50.0341890  43.8282680  90.9045051  49.0286293  44.9796964  89.9933488
  50.7472738  45.3370043  90.2861513  50.4235624  46.3916835  94.2118838
  51.0443607  47.4635064  94.3140160  49.5354851  46.0025912  95.1293901
  48.9701690  45.1734558  95.0151469  49.3068257  46.8380576  96.2996319
  49.0700639  47.8557848  95.9893509  48.1371772  46.2923398  97.1173627
  48.2358075  45.2075685  97.1578902  48.2146379  46.7015785  98.1246480
  46.7848471  46.6561454  96.5255327  46.6816197  47.7405894  96.5632957
  46.7723638  46.3264608  95.4866611  45.6336012  46.0129373  97.2733350
  45.6931678  44.9300225  97.1644943  45.6980073  46.2755394  98.3292665
  44.3467540  46.4641990  96.7573958  44.3489509  47.3022368  96.1936697
  43.1901762  45.8533915  96.9789626  43.1179589  44.7529668  97.7100625
  43.9576039  44.3618466  98.1127056  42.2235218  44.3091653  97.8621222
  42.0792437  46.3589774  96.4530302  42.1257884  47.1982672  95.8930960
  41.1935685  45.9015782  96.6157081  50.5630664  46.9530692  97.1494212
  50.8072072  48.0025378  97.7467861  51.3781994  45.8983406  97.2044098
  51.1106375  45.0068195  96.8123637  52.6635907  45.9959336  97.8864646
  52.5223078  46.3738304  98.8990516  53.3164716  44.6168826  97.9666567
  52.6239233  44.0375333  98.5772552  53.3555741  44.1945101  96.9625787
  54.7106983  44.5698242  98.5938404  55.3649271  45.2566511  98.0568541
  54.6479528  44.9709484 100.0574156  53.9942276  44.2842542 100.5951826
  55.6483192  44.9321331 100.4885319  54.2562171  45.9847351 100.1403623
  55.3202845  43.1856465  98.4371057  55.4010007  42.9414313  97.3778875
  56.3119585  43.1714713  98.8893036  54.6854913  42.4503912  98.9316119
  53.5815126  46.9788874  97.1753190  54.2975254  47.7527182  97.8211568
  53.5800976  46.9543679  95.8417337  53.0342823  46.2753625  95.3307184
  54.4103689  47.8852792  95.0850364  55.4611776  47.7344207  95.3323057
  54.2232436  47.6535443  93.5859383  54.4484305  46.6043746  93.3945408
  53.1741172  47.8462190  93.3616389  55.0975111  48.5273214  92.7046376
  54.8432228  49.5704731  92.8924484  56.1397581  48.3540395  92.9725867
  54.8683680  48.1677682  90.9541514  53.2556989  48.8914573  90.6774285
  53.2911668  49.9569155  90.9046727  52.9683376  48.7521253  89.6352621
  52.5237019  48.4068521  91.3235240  54.0701683  49.3235258  95.4405197
  54.9647926  50.1585181  95.6150368  52.7779154  49.6332530  95.5465265
  52.0462388  48.9683920  95.3398658  52.3935425  51.0012530  95.8977407
  53.0076439  51.7129439  95.3459485  50.9275361  51.2453633  95.5452007
  50.3135407  50.4328765  95.9337547  50.5886172  52.1907847  95.9687716
  50.6617598  51.3163935  94.0671809  51.3131117  52.2462763  93.2785182
  52.0255975  52.9294369  93.7408551  51.0709919  52.3162320  91.9228961
  51.5923422  53.0540302  91.3130204  50.1728464  51.4561147  91.3413724
  49.9809494  51.5086344  90.2696835  49.5156058  50.5283472  92.1121228
  48.8017003  49.8455710  91.6514106  49.7585490  50.4603341  93.4684852
  49.2351237  49.7251348  94.0797199  52.6523020  51.2950127  97.3759236
  53.1109376  52.3932857  97.7322322  52.3585879  50.3334579  98.2510626
  51.9878202  49.4447599  97.9463552  52.5097651  50.5645465  99.6797240
  51.9945886  51.4816300  99.9654691  51.9084863  49.4016439 100.4662793
  50.8843639  49.2419182 100.1289957  52.4979518  48.5052977 100.2734219
  51.9100798  49.6775797 101.8558454  51.5286743  48.9350539 102.3299605
  53.9659111  50.7594145 100.0624438  54.2547931  51.4746547 101.0224415
  54.8956405  50.1295398  99.3424229  54.6483952  49.4614853  98.6264116
  56.3095163  50.3549588  99.6190443  56.5221506  50.1487138 100.6680194
  57.1657500  49.4296911  98.7563268  56.8534558  49.5320704  97.7170530
  58.2098023  49.7277012  98.8524769  57.0387942  47.9775835  99.1581809
  56.5678161  47.6628497 100.2500432  57.4598112  47.0806264  98.2757418
  57.3983565  46.0960667  98.4924569  57.8398084  47.3865439  97.3913678
  56.6768286  51.8114939  99.3731716  57.3554439  52.4437107 100.1904384
  56.2281139  52.3624152  98.2442048  55.7469333  51.8135909  97.5460957
  56.4765114  53.7702647  97.9652416  57.5483882  53.9679535  97.9751542
  55.9248216  54.1403629  96.5905166  56.4926882  53.6441529  95.8034954
  54.8742790  53.8607502  96.5112890  56.0015439  55.9053724  96.2258247
  55.4601929  55.8205905  95.0139463  55.8613234  54.6528659  99.0405680
  56.4937743  55.6049434  99.5088234  54.6240704  54.3533094  99.4442127
  54.0828411  53.6168801  99.0142802  54.0019039  55.1401592 100.5084049
  53.9664160  56.1902385 100.2182786  52.5741378  54.6563641 100.7685823
  52.6367459  53.5723636 100.8640923  52.2627914  55.0870545 101.7202489
  51.5644601  55.0101221  99.7017129  51.6805813  56.1741292  98.9575466
  52.5215839  56.8409230  99.1478095  50.7548038  56.4931008  97.9912986
  50.8558576  57.4112231  97.4125573  49.6956939  55.6468617  97.7591013
  48.7697040  55.9542099  96.7965751  48.9569601  56.7811672  96.3463790
  49.5565178  54.4891552  98.4840121  48.7174216  53.8184486  98.2991587
  50.4846832  54.1786488  99.4483532  50.3797512  53.2635814 100.0312262
  54.8126741  55.0681143 101.7975345  55.0562037  56.0874380 102.4517229
  55.2428259  53.8646049 102.1741095  55.0721827  53.0538091 101.5965366
  55.9124766  53.6723845 103.4546872  55.3398028  54.1375263 104.2570506
  56.0292385  52.1749268 103.7422562  55.0121804  51.7830921 103.7548119
  56.5746962  51.7415299 102.9039584  56.7268281  51.8125950 105.0410146
  57.7356539  52.2252832 105.0332882  56.1688743  52.2339117 105.8772453
  56.7990920  50.2995701 105.1906394  55.7832750  49.9203262 105.3019452
  57.2421566  49.8892594 104.2832044  57.6279540  49.8833203 106.3902998
  58.6218602  50.3199039 106.2920875  57.1499828  50.2682654 107.2911106
  57.7441168  48.4014997 106.4848503  58.1873812  48.0446428 105.6504226
  58.3004610  48.1582485 107.2919501  56.8232784  47.9967849 106.5762921
  57.2819136  54.3364942 103.4751491  57.6732708  54.9275986 104.4875122
  58.0251920  54.2520431 102.3727996  57.6906085  53.7858300 101.5416567
  59.3790925  54.7944685 102.3637903  59.9135651  54.4745898 103.2582822
  60.1397445  54.2959034 101.1360385  60.1101593  53.2067202 101.1661039
  59.6171788  54.6486402 100.2468805  61.5782772  54.7596768 101.0920398
  62.5787200  54.0532163 101.7452455  62.3121281  53.1505392 102.2949748
  63.8922596  54.4755274 101.7072956  64.6690358  53.9070313 102.2186982
  64.2185354  55.6233752 101.0203126  65.5248488  56.0492618 100.9823691
  66.1213503  55.4733377 101.4662049  63.2436134  56.3461706 100.3687966
  63.5019235  57.2537855  99.8232589  61.9329494  55.9148425 100.4096493
  61.1556252  56.4844144  99.9002820  59.3655468  56.3153800 102.3861654
  59.9455986  56.9426436 103.2787959  58.7106496  56.9261920 101.4090961
  58.1355458  56.4090220 100.7595654  58.8303038  58.3581082 101.2304572
  59.8518310  58.6790019 101.4344388  58.4824293  58.7260159  99.7955031
  57.5353984  58.2552685  99.5316305  58.3812678  59.8090308  99.7251819
  59.5337971  58.2758777  98.8143140  59.3533950  57.2857804  98.1077637
  60.6437006  59.0009753  98.7621617  61.3814645  58.7441019  98.1219896
  60.7457219  59.8064802  99.3628732  57.9161887  59.1144890 102.1860506
  56.9260682  58.5697101 102.6800256  58.2286690  60.3753594 102.4660199
  59.5380733  61.0286567 102.3087624  59.6248959  61.4345977 101.3009062
  60.3318122  60.3006387 102.4762955  59.5118997  62.0901036 103.3523655
  60.1359137  62.9262485 103.0368227  59.8925721  61.6872296 104.2909189
  58.0907590  62.4953320 103.4875693  57.9063833  63.2752114 102.7487238
  57.8157564  62.8606258 104.4770306  57.2673207  61.2440268 103.1430136
  56.8869425  60.7304383 104.0259846  56.1125251  61.5839256 102.2199140
  56.2119652  61.4125950 100.9959497  54.9942811  62.0655419 102.7646645
  54.7331818  62.4015082 104.1740994  55.5374996  63.0327250 104.5519067
  54.6840155  61.4853761 104.7626431  53.4117804  63.1199656 104.1193331
  53.5841294  64.1922918 104.0270758  52.8506594  62.9198882 105.0321385
  52.7010559  62.5801452 102.9305061  52.0205221  63.3331164 102.5330051
  52.1478301  61.6639707 103.1370616  53.8181412  62.2997989 101.9169454
  53.6255052  61.3898575 101.3486179  54.0164053  63.4607113 100.9598379
  53.3738859  63.5029133  99.9036267  54.8916331  64.4063829 101.3072158
  55.3655331  64.3586934 102.1978582  55.1369944  65.5655233 100.4536635
  54.1939984  66.0444147 100.1899958  56.0082180  66.5781884 101.1957032
  56.6238008  66.0367385 101.9140270  56.6504414  67.0653196 100.4619782
  55.1868823  67.6254114 101.9224499  54.3243149  68.2569853 101.2772663
  55.3995746  67.8131142 103.1385188  55.7816024  65.1808187  99.1250974
  55.4549449  65.7735201  98.0911279  56.7027170  64.2159295  99.1195652
  56.9200000  63.6832928  99.9497372  57.4482050  63.9283531  97.8980426
  58.0690046  64.7866097  97.6409379  58.3523975  62.7068648  98.0767915
  57.7828371  61.8812625  98.5035010  58.7630418  62.4046486  97.1133930
  59.5183590  62.9374577  98.9857638  60.6944568  62.2262994  98.8736661
  61.5434672  62.6360540  99.7987945  62.5372366  62.1946427  99.8741422
  60.9605563  63.5848220 100.5092249  61.3700462  64.0818481 101.2872884
  59.6937436  63.7937671 100.0192721  59.0502384  64.5461143 100.4753159
  56.4744469  63.6827620  96.7551773  55.4660899  62.9909672  96.9176710
  56.7790318  64.2539991  95.5872996  57.6366863  64.7696368  95.4507500
  55.8287429  64.1880603  94.4831674  54.8478323  64.5407401  94.8018061
  56.3219167  65.0791277  93.3482258  57.3323605  65.4035942  93.5968702
  56.3475376  64.4760027  92.4406555  55.4487297  66.2850479  93.1245070
  55.7501245  66.7617686  92.1917694  54.4154738  65.9478275  93.0422649
  55.5661448  67.2827182  94.2635503  54.8521359  67.1188354  95.2744745
  56.3736345  68.2285239  94.1496339  55.6317753  62.7596664  93.9969392
  54.6105765  62.4525584  93.3438637  56.5505998  61.8597027  94.3517643
  57.3530676  62.0840651  94.9225587  56.4307489  60.5108647  93.8343932
  56.3363011  60.4947263  92.7486132  57.6374908  59.6450813  94.2358254
  58.5460658  60.1116177  93.8551227  57.7311550  59.5128338  95.7431007
  56.8230685  59.0459232  96.1245117  58.5921441  58.8963512  96.0014560
  57.8456929  60.5010060  96.1886323  57.5471002  58.2841703  93.5701191
  57.5407252  58.4085210  92.4872533  58.4059257  57.6791699  93.8607958
  56.6296361  57.7860340  93.8835209  55.1258718  59.9575262  94.3524523
  54.4434795  59.1845755  93.6750093  54.8001291  60.2909462  95.6040780
  55.3927849  60.8908097  96.1599756  53.6079016  59.7374328  96.2215254
  53.5992257  58.6479783  96.1881672  53.4991165  60.1847877  97.6879423
  53.8871668  61.1993093  97.7788377  52.0535954  60.1536393  98.1470888
  51.6649658  59.1392741  98.0569147  51.9953375  60.4733381  99.1875211
  51.4603682  60.8258933  97.5272036  54.3637418  59.3049525  98.5703243
  55.4033636  59.3795201  98.2513756  54.2777331  59.6323307  99.6064352
  54.0324038  58.2697841  98.4882127  52.4047099  60.1709142  95.4052205
  51.4494838  59.4131344  95.2332817  52.3751689  61.4490852  95.0111629
  53.1027017  62.0947913  95.2829331  51.2614966  61.9563285  94.2164559
  50.3366626  61.9115046  94.7915838  51.5129656  63.4080955  93.8080175
  52.4310600  63.4678203  93.2235215  50.6768639  63.7673121  93.2080194
  51.6105030  64.0256023  94.7009179  51.0733432  61.0773528  92.9918633
  49.9506142  60.6651709  92.6545284  52.1931406  60.6946622  92.3721976
  53.1083266  60.9821288  92.6882625  52.1028134  59.8743565  91.1671464
  51.3671830  60.2967980  90.4826829  53.4578992  59.8286190  90.4605670
  54.1514079  59.3307114  91.1382343  53.3272453  59.2216054  89.5647075
  54.0166615  61.1893163  90.0735559  53.5740609  61.4864007  89.1227949
  53.7382160  61.9084960  90.8438484  55.8101574  61.1624575  89.9090781
  55.9951348  60.4031119  88.2999325  55.4989647  61.0173712  87.5485339
  57.0543850  60.3181173  88.0573100  55.5449227  59.4105079  88.3120873
  51.6361728  58.4666611  91.5101716  50.8393849  57.8675981  90.7765351
  52.1390095  57.9188864  92.6139012  52.8500951  58.3947486  93.1505685
  51.7176430  56.5938574  93.0476045  51.8973374  55.8758895  92.2473975
  52.5222754  56.1685846  94.2749328  52.3455609  56.8729254  95.0878142
  52.2121400  55.1708587  94.5855118  53.5839463  56.1581600  94.0282639
  50.2267584  56.5700332  93.3529248  49.5328710  55.6121649  93.0033329
  49.7178066  57.6113065  94.0138999  50.3123504  58.3499491  94.3617850
  48.2900572  57.6793097  94.3024970  47.9787603  56.7860648  94.8440752
  47.9783770  58.9052368  95.1618224  48.4962697  59.7545932  94.7163113
  46.9020797  59.0706888  95.1137629  48.4027822  58.7579785  96.6107362
  47.7090236  58.0724559  97.0974174  49.4056718  58.3312961  96.6267551
  48.4055206  60.0834117  97.3495275  49.0483080  60.7889125  96.8230374
  47.3898885  60.4772145  97.3883889  48.8991937  59.9291851  98.7126544
  48.9131243  58.9922275  99.0895041  49.3212450  60.9262146  99.4793680
  49.3072907  62.1786040  99.0559274  48.9690781  62.3910721  98.1282585
  49.6349093  62.9170840  99.6620734  49.7724385  60.6570232 100.7010822
  49.7892283  59.7025634 101.0309681  50.0962359  61.4082798 101.2934228
  47.4952319  57.7125440  93.0110233  46.4598553  57.0483172  92.8907735
  48.0016884  58.4282878  92.0079991  48.8567485  58.9573706  92.1030934
  47.2700351  58.5172551  90.7499040  46.2401167  58.8243387  90.9317470
  47.9367936  59.5545555  89.8459284  47.8526095  60.5083211  90.3668348
  48.9865100  59.2683791  89.7803639  47.3625281  59.6891590  88.4510399
  48.1189762  60.1670192  87.8285155  47.1670946  58.6840605  88.0772956
  46.0866818  60.5005057  88.4057765  45.3584352  60.0596554  89.0865164
  46.3019268  61.5226903  88.7170766  45.5202260  60.5094026  86.9943695
  45.9882681  61.3309927  86.4521271  45.7870440  59.5641316  86.5217492
  44.0446003  60.6764310  86.9682876  43.7971793  61.5524835  87.4057971
  43.7225527  60.6753861  86.0110080  43.6106892  59.9149979  87.4703235
  47.2153091  57.1352526  90.1039255  46.1413729  56.6458604  89.7109505
  48.3765494  56.4883194  89.9924609  49.2319894  56.8796372  90.3601456
  48.4462062  55.2159995  89.2890661  47.9938718  55.3134180  88.3021506
  49.8995677  54.7811398  89.1187794  50.3844864  55.6628479  88.6997998
  50.3286073  54.5611865  90.0963507  50.1177520  53.5881766  88.1864477
  49.5951953  52.7254685  88.5996911  49.5959646  53.8741507  86.7898370
  50.1184123  54.7365093  86.3757296  49.7666581  53.0062673  86.1528576
  48.5276396  54.0853018  86.8367134  51.5909201  53.2031802  88.1469560
  51.9235824  52.9337727  89.1493805  51.7269738  52.3528288  87.4787547
  52.1779308  54.0470368  87.7844324  47.6618757  54.1491679  90.0379459
  47.0241707  53.2952616  89.4178721  47.6937800  54.1804847  91.3738109
  48.2751463  54.8429491  91.8670182  46.9282184  53.2180925  92.1546456
  47.1151536  52.2108893  91.7822263  47.3302550  53.2764597  93.6278254
  48.4136223  53.1665566  93.6761546  47.0480664  54.2592156  94.0055298
  46.6728306  52.1985476  94.4780464  45.5910771  52.3214530  94.4250904
  46.9475482  51.2244559  94.0733518  47.0958308  52.2556876  95.9311258
  47.8152185  53.1637312  96.3452795  46.6461491  51.2842187  96.7153481
  46.8968430  51.2722779  97.6936688  46.0552685  50.5612422  96.3302942
  45.4362202  53.4618706  92.0156105  44.6545526  52.5080136  92.0327726
  45.0160534  54.7217540  91.8866002  45.6408897  55.5066823  92.0030761
  43.6085830  54.9922687  91.6238953  42.9919938  54.5501378  92.4064790
  43.3583777  56.4995293  91.5981884  44.0388441  56.9419598  90.8706446
  42.3292624  56.6601485  91.2769048  43.5725130  57.1499831  92.9504942
  43.7176994  56.4146174  93.9487824  43.5988247  58.3972931  93.0143254
  43.1897050  54.3536390  90.3089203  42.1422522  53.6990663  90.2226993
  44.0144673  54.5168153  89.2725561  44.8253409  55.1166859  89.3248883
  43.7048253  53.8785005  87.9919379  42.7019438  54.1249516  87.6432409
  44.7194777  54.3116830  86.9178850  45.7260866  54.0793175  87.2655113
  44.4528759  53.5791674  85.6096486  43.4465479  53.8114225  85.2611339
  45.1784638  53.8963506  84.8606376  44.5425219  52.5046800  85.7694678
  44.6655954  55.8158135  86.7103637  44.9039986  56.3210158  87.6463319
  45.3892562  56.1040732  85.9479196  43.6648175  56.1029807  86.3877504
  43.6724220  52.3606168  88.1478197  42.7688669  51.6804651  87.6363327
  44.6561939  51.8066328  88.8571147  45.3749965  52.3761648  89.2802641
  44.7506014  50.3587964  88.9961037  44.7674591  49.8924497  88.0110475
  46.0302047  49.9783516  89.7381700  46.8914228  50.1401041  89.0899117
  46.1423656  50.5720772  90.6453690  46.0741078  48.5392536  90.1589709
  46.3323083  47.5415378  89.2357583  46.5090306  47.8125976  88.1948953
  46.3676137  46.2160222  89.6193154  46.5756900  45.4392914  88.8834525
  46.1394967  45.8756978  90.9336920  46.1664878  44.8299705  91.2400019
  45.8768634  46.8588519  91.8622251  45.6960694  46.5913727  92.9033152
  45.8427211  48.1819713  91.4742065  45.6314537  48.9598291  92.2079662
  43.5401388  49.7964811  89.7231277  43.0317746  48.7342086  89.3573833
  43.0796730  50.4783255  90.7722289  43.5668298  51.2889934  91.1266229
  41.8853691  50.0270197  91.4763441  41.9781430  48.9699098  91.7253641
  41.7032697  50.8193174  92.7702170  41.7681641  51.8762400  92.5117550
  40.7037874  50.5980766  93.1446335  42.7286552  50.4970135  93.8437875
  43.7181945  50.5825734  93.3947971  42.6276059  51.2323624  94.6420044
  42.5522291  49.1048809  94.4148092  41.5686726  48.4300402  94.0459250
  43.3936185  48.6858201  95.2364204  40.6504803  50.1529517  90.5959562
  39.8194078  49.2391980  90.5520293  40.5107485  51.2763960  89.8862268
  41.1523358  52.0500343  89.9859708  39.3791707  51.4290950  88.9787206
  38.4456454  51.4065071  89.5409658  39.4722502  52.7646789  88.2395008
  40.5005267  52.8684933  87.8931350  38.8044669  52.7028153  87.3802346
  39.0992032  53.9692535  89.0839877  38.0394293  53.8992406  89.3290964
  39.6866641  53.9379081  90.0015982  39.4093174  55.5291467  88.2346984
  39.2338702  56.6899834  89.5860938  39.9671195  56.4614822  90.3595482
  39.3975015  57.7031768  89.2189908  38.2300066  56.6131199  90.0037672
  39.3164835  50.2799920  87.9816702  38.2274535  49.8406311  87.5957690
  40.4759035  49.7781802  87.5535331  41.3628801  50.1802184  87.8213707
  40.4781775  48.6573351  86.6153939  39.6562651  48.7635213  85.9073800
  41.7936094  48.6233240  85.8356977  42.5939008  48.5012807  86.5655870
  41.7574131  47.7479718  85.1872008  42.0570942  49.8621333  84.9987705
  42.0958320  50.7253354  85.6632120  43.0196528  49.7438005  84.5011961
  40.9708731  50.0737381  83.9564686  40.7619599  49.1241662  83.4637542
  40.0683953  50.4316465  84.4519832  41.3665758  51.0481163  82.9450289
  41.8879759  50.6962855  82.1548033  41.0878457  52.3437698  82.9930360
  40.4125338  52.8720025  84.0020667  40.0974952  52.2819190  84.7588045
  40.2155686  53.8625760  84.0103461  41.5000071  53.1329365  82.0048943
  42.0182502  52.7404167  81.2319438  41.2928505  54.1210905  82.0320312
  40.2472870  47.3182323  87.3158740  39.4493465  46.4979279  86.8493628
  40.9328137  47.0792361  88.4354207  41.5101725  47.8001232  88.8441725
  40.9142712  45.7661067  89.0692696  41.0057321  44.9861549  88.3133535
  42.0816871  45.6378849  90.0469364  43.0219285  45.8168205  89.5253738
  41.9768583  46.3540825  90.8619039  42.1927605  44.2818591  90.6788869
  42.4606517  43.1650123  89.9075786  42.5919588  43.2806488  88.8317131
  42.5622071  41.9151464  90.4849631  42.7768878  41.0443160  89.8655542
  42.3920358  41.7684816  91.8453642  42.4708005  40.7830898  92.3046017
  42.1214002  42.8733333  92.6255373  41.9867028  42.7613955  93.7013750
  42.0210730  44.1220545  92.0430361  41.8045545  44.9949275  92.6589196
  39.6122010  45.4817993  89.8008429  39.2809357  44.3101814  90.0100026
  38.8673005  46.5143205  90.1988093  39.1888417  47.4670749  90.1041016
  37.5801719  46.2802298  90.8400664  37.7405974  45.6817392  91.7368226
  36.9428462  47.6081768  91.2468203  36.7676720  48.2149189  90.3584071
  35.9943237  47.4178235  91.7489865  37.6112879  48.1403687  91.9236193
  36.6373132  45.5056912  89.9337550  35.6834022  44.8914605  90.4238147
  36.8857357  45.5187000  88.6249662  37.6564283  46.0790359  88.2900693
  36.0686013  44.8168622  87.6487264  35.0586141  44.6764584  88.0338391
  35.9906587  45.6357887  86.3604006  36.9803821  45.6214884  85.9039552
  35.2794803  45.1392113  85.7002974  35.5560539  47.0750672  86.5817914
  34.5755631  47.0688678  87.0579218  36.2776464  47.5542971  87.2434144
  35.4790169  47.8441134  85.2761121  36.4639102  47.8358182  84.8091911
  34.7630213  47.3470096  84.6216370  35.0408304  49.2800510  85.5075532
  35.6309075  49.6878941  86.3282685  35.2417556  49.8478490  84.5990745
  33.5926126  49.3756861  85.8423187  33.4062977  48.8499722  86.6843468
  33.3439344  50.3437183  85.9878275  33.0456403  48.9982125  85.0817701
  36.5891527  43.4143839  87.3459236  36.2395033  42.8449719  86.3058855
  37.4149924  42.8513661  88.2221940  37.7279276  43.3486768  89.0436884
  37.9152070  41.5046931  87.9995484  38.4027397  41.4482096  87.0262958
  38.9321767  41.1250960  89.0788341  39.7385099  41.8568980  89.0299281
  38.4245807  41.2082100  90.0398431  39.5097678  39.7223907  88.9293134
  38.6758352  39.0214928  88.8919049  40.0564641  39.6864497  87.9870112
  40.6160840  39.2560685  90.2745859  39.4505322  39.0337358  91.6142997
  38.7358314  38.2546009  91.3492514  39.9860639  38.7426629  92.5179496
  38.9187942  39.9683386  91.7928311  36.7509236  40.5156639  88.0091578
  35.8439114  40.6346774  88.8422663  36.7388522  39.5237888  87.1038047
  37.7275277  39.2449478  86.0467738  38.7298342  39.2622764  86.4747710
  37.6515036  40.0058398  85.2700096  37.3351476  37.8842308  85.5543976
  37.8947258  37.1240230  86.0994255  37.5561321  37.8040278  84.4900505
  35.8762364  37.7659867  85.8031088  35.6194308  36.7182920  85.9595878
  35.2675798  38.1719698  84.9951394  35.6326468  38.5596021  87.0903317
  34.6991752  39.1218155  87.0649346  35.6383680  37.6393128  88.3075827
  36.6989134  37.1320325  88.6711197  34.5451928  37.3966998  88.9472677
  33.6678182  37.8384612  88.7124059  34.5857615  36.5114189  90.1081798
  35.4617033  35.8654709  90.0483784  34.6661501  37.3368930  91.4228463
  35.5542319  37.9575444  91.3036753  33.7833205  37.9737263  91.4790191
  34.7864265  36.5145802  92.7134916  35.4709288  35.4708834  92.7078837
  34.1570318  36.8925647  93.7239628  33.3941246  35.5842825  90.1249347
  32.5242025  35.6166030  89.2409076  34.3401238  35.1705100  91.5714345
 106.2000207  66.0607052  77.0834511 106.6076235  66.3319752  76.2000635
 105.5169875  65.3355979  76.9167616 106.9427521  65.9109580  77.7513024
 105.4695795  67.1510800  77.5796308 104.4248372  66.8614072  77.6923364
 105.9999501  67.6155609  78.9439070 106.0750662  66.7386852  79.5869823
 106.9928923  68.0373099  78.7880431 105.0888458  68.6744362  79.6183581
 105.4626696  68.8163712  80.6323655 105.2064503  69.6003631  79.0553922
 103.4198905  68.2601152  79.6835429 102.6438583  69.3920952  80.9277283
 102.7756973  70.4265526  80.6105292 101.5797395  69.1699780  81.0078282
 103.1188669  69.2467669  81.8979591 105.5590504  68.3286375  76.6755516
 106.6451404  68.4966836  76.1002917 104.5037001  69.1532457  76.6149700
 103.6470473  68.8764006  77.0727931 104.5406518  70.4667588  75.9272142
 104.9933909  70.3915384  74.9385442 103.0638438  70.9239132  75.7638317
 102.6611364  71.1422928  76.7528900 103.0504905  71.8302369  75.1584399
 102.2563314  69.9097638  75.1290752 101.3537135  70.2256858  75.0449683
 105.2893166  71.6204843  76.6731664 105.1673501  71.7910721  77.8782095
 106.0532920  72.3813514  75.9055671 105.8402910  72.2308991  74.9298141
 107.1685881  73.2866887  76.2470829 106.9466117  73.7380493  77.2140882
 108.4832957  72.6324143  76.3245809 108.8140107  72.2077142  75.3767641
 109.0456889  73.5432663  76.5299166 108.7282011  71.6002000  77.4708622
 108.2875221  71.8530645  78.7983262 107.7369683  72.7677194  79.0183179
 108.5570875  70.9346777  79.8210916 108.2959615  71.2289889  80.8376033
 109.0264368  69.6403547  79.5656465 109.2900788  68.7318611  80.5609340
 109.1190991  69.0781573  81.4398222 109.3401362  69.3464815  78.2479526
 109.7332913  68.3609941  77.9982642 109.1584714  70.2900361  77.2545310
 109.3548851  70.0308222  76.2141801 107.0812892  74.4037453  75.1823860
 107.0141282  74.1322621  73.9932147 107.1118618  75.6550901  75.6145370
 107.1219713  75.7247480  76.6220810 106.9088653  76.8857414  74.8316349
 107.2443688  76.7349080  73.8055814 105.4071817  77.2599225  74.8110026
 105.1268948  77.6731699  75.7799016 105.2648964  78.0162432  74.0390998
 104.4853044  76.0582476  74.5010966 104.3639442  75.5818170  73.3332325
 103.8171819  75.4913146  75.4609530 103.2150735  74.7062689  75.2578062
 103.9032188  75.8384480  76.4055147 107.8757468  77.9947503  75.2238854
 108.6384632  77.9507458  76.2794480 107.8420160  79.0844138  74.4754306
 107.2745610  79.0350344  73.6413707 108.6356872  80.2601315  74.6894281
 108.8897939  80.4076417  75.7390803 109.8787760  80.0183422  73.9329850
 110.4950416  79.2752512  74.4390796 109.5001312  79.6010427  72.9999313
 110.7145172  81.2492392  73.6338691 110.5078965  81.8684253  72.3968633
 109.6577088  81.5966761  71.7712174 111.4194453  82.8589821  71.9605914
 111.3320511  83.3220899  70.9777408 112.2686344  83.4169806  72.9247161
 113.1344660  84.3595057  72.5478235 113.0811764  84.5650640  71.6116047
 112.4128805  82.8518111  74.1839168 113.1795076  83.2035647  74.8743172
 111.5601909  81.8214587  74.5591814 111.5585402  81.4629835  75.5885467
 107.7888956  81.4774578  74.3023962 106.8507625  81.3385444  73.4721580
 108.0693985  82.5916392  74.9583106 108.7693223  82.5346508  75.6842296
 107.2358895  83.7977631  74.8884964 106.9754811  84.1286566  73.8831128
 105.9145465  83.6412907  75.7234563 105.3541535  82.7902511  75.3364284
 106.2129209  83.4250915  77.1395621 106.7729415  84.2759904  77.5274396
 105.2814152  83.3198682  77.6957328 106.8069878  82.5181360  77.2518913
 104.9019903  84.7733313  75.5095874 104.6148649  84.8109643  74.4587569
 104.0181237  84.5912275  76.1209119 105.3523811  85.7234406  75.7968875
 107.9431894  85.1689582  75.0949062 108.7181099  85.2704034  76.0159122
 107.7995546  86.0713976  74.0725148 107.1192435  85.9128199  73.3430430
 108.7686308  87.1872489  73.9026671 109.0618292  87.7758874  74.7719419
 110.0472823  86.7435123  73.1516630 110.5152556  85.9805644  73.7737649
 109.8411701  86.2016304  71.7648784 109.3736241  86.9642241  71.1420200
 110.8038884  85.9231815  71.3362292 109.1963156  85.3239680  71.8092980
 111.1604590  87.7079801  73.2228363 111.4414183  87.8631281  74.2645142
 112.0155390  87.3181067  72.6706257 110.8484347  88.6566449  72.7860562
 108.0384827  88.3758288  73.3059642 107.1077826  88.1329341  72.5525610
 108.2983199  89.6640787  73.6955741 108.7227750  89.7129196  74.6107526
 108.0032564  90.8899871  73.0180814 106.9136180  90.8620149  73.0202930
 108.4694554  92.0907403  73.8791965 109.5509992  92.0166828  73.9926818
 108.1223506  93.4101915  73.2775356 107.0408594  93.4851769  73.1641625
 108.4753725  94.2107006  73.9276584 108.5967259  93.5005812  72.3003465
 107.6373398  92.1323347  75.0266818 107.8991987  92.8678118  75.5853442
 108.7005963  90.8920107  71.5818506 109.9187266  90.8887797  71.5563911
 107.9427312  91.0283075  70.5367082 106.9439203  90.9651021  70.6726533
 108.4504005  91.2988219  69.1701963 109.4620215  90.9198758  69.0248621
 107.5114450  90.6420986  68.1016618 106.4964733  91.0186876  68.2285994
 107.8681947  90.8903973  67.1020731 107.5154960  89.5596723  68.2298657
 108.4596812  92.8008856  68.9329568 109.2554664  93.2825793  68.1709501
 107.6784760  93.5737179  69.6691548 107.1921304  93.0595487  70.3897083
 107.4368492  94.9784841  69.5584050 108.3508817  95.5243541  69.3245893
 106.4250032  95.1753404  68.3869643 106.9955133  95.0914626  67.4619876
 105.7104008  94.3545507  68.4481830 105.7079545  96.4463517  68.4023124
 105.2198493  96.3915725  67.4292485 104.9516397  96.5142430  69.1842847
 106.5759637  97.7161162  68.4462127 107.5609570  97.7499890  67.7465422
 106.3830538  98.6729950  69.3391190 106.9752642  99.4911403  69.3339778
 105.6444536  98.5809739  70.0218365 106.8574098  95.6168622  70.8728362
 105.7996663  95.2542514  71.3692415 107.7062188  96.4852166  71.4606099
 108.6325378  96.5503574  71.0633831 107.4568978  97.1310164  72.7625206
 107.2935894  96.3968604  73.5514722 108.6810411  97.9187819  73.0902104
 108.5999325  98.1917475  74.1423560 109.5271176  97.2451411  72.9543330
 108.8925988  99.1706643  72.2578295 109.2640162  98.9306148  71.2615734
 107.9757644  99.7539514  72.1724305 109.9282148  99.9707457  72.9993268
 109.4734742 100.2951453  73.9353155 110.7596800  99.2992586  73.2135000
 110.4583989 101.2277014  72.2098459 111.1092422 101.7789005  72.8885824
 111.0437947 100.8528626  71.3702586 109.3570666 102.1590597  71.6892762
 108.8147780 102.5068432  72.4671382 109.7769361 102.9351391  71.1978392
 108.7541210 101.6486117  71.0599920 106.1002395  97.8461236  72.8962582
 105.4259104  98.1674991  71.8344545 105.5872565  98.0823175  74.0885363
 106.2115359  97.7011821  75.3074571 107.0180180  98.4098902  75.4956584
 106.6302421  96.7054405  75.1615710 105.1197483  97.7293061  76.4171269
 105.5366207  97.9818025  77.3920946 104.5853142  96.7817727  76.4854058
 104.1830478  98.8605538  75.8872528 104.5026999  99.8309069  76.2671691
 103.1490441  98.6788557  76.1803771 104.3072109  98.8326132  74.3459479
 103.5044560  98.2603933  73.8809240 104.2910289 100.2944088  73.7942181
 105.3787824 100.9267527  73.9885027 103.1816848 100.8090877  73.2629195
 102.3115308 100.2963924  73.2542640 103.1979278 102.1504487  72.6980321
 104.1618548 102.6295218  72.8695926 102.9292180 102.1207737  71.1998174
 102.8476281 103.1478777  70.8441481 104.0892691 101.3800735  70.4130985
 104.1711576 100.3527011  70.7679221 103.8625932 101.3787166  69.3469299
 105.0327884 101.8988076  70.5827653 101.7309642 101.5018329  70.7866355
 101.6645321 101.5400331  69.8296988 102.1295914 103.0818935  73.2874215
 102.2011354 104.2819309  73.0197284 101.1386578 102.5881762  74.0238445
 101.0915082 101.5792825  74.0207085 100.0657747 103.3182412  74.6401885
  99.8471395 104.1229353  73.9382160  98.8521566 102.4943654  74.8062185
  99.0526885 101.6895455  75.5134327  98.0397742 103.1152281  75.1839282
  98.5666270 102.0691269  73.8440625 100.5530549 104.0243829  75.9383036
 101.1374067 103.4635680  76.8329251 100.2168156 105.3314646  76.0756811
  99.7887565 105.8672775  75.3342169 100.5869466 106.0291727  77.3155132
 101.4840630 105.6256780  77.7850590 100.8005727 107.5054436  77.0523761
  99.9406334 107.8702783  76.4906829 100.9557490 108.3240998  78.3355098
 101.8158254 107.9601251  78.8975524 101.1058797 109.3734505  78.0816903
 100.0562529 108.2228021  78.9427554 101.9883939 107.8122928  76.1388301
 101.8366782 107.3333895  75.1714956 102.0723206 108.8902579  76.0008188
 102.9038421 107.4322023  76.5922467  99.5653087 105.7821791  78.3599194
  98.4792634 106.4400703  78.3441180  99.8359784 104.9181870  79.3035521
 100.6664196 104.3480493  79.2300019  98.9330538 104.6674358  80.3892141
  97.8981571 104.7562605  80.0587626  99.1691615 103.2085497  80.9088472
 100.2360714 103.2296936  81.1310080  98.6132687 102.9857556  81.8195865
  98.9129121 102.1364216  79.9251199  99.7591217 101.5474391  79.2474341
  97.6778277 101.8905655  79.6531837  97.4447124 101.1676439  78.9874949
  96.9485536 102.4219131  80.1069785  99.0188327 105.6920889  81.5156051
  98.0097797 105.8310519  82.2423666 100.1098234 106.3817895  81.6030500
 100.9112933 106.1836196  81.0212649 100.2012441 107.4403019  82.5275903
  99.2915126 108.0322413  82.4271139 100.2361579 106.9946128  83.5216937
 101.3953514 108.3427888  82.3525815 102.3934498 108.0178212  81.7654490
 101.2243005 109.6034325  82.7549746 100.3420563 109.8775962  83.1631152
 102.3155575 110.6352215  82.6549510 103.2816997 110.1326916  82.7011247
 102.2414089 111.4386408  81.3450119 103.0281504 112.1874099  81.2529148
 102.2317024 110.8110718  80.4538536 100.7084356 112.3318679  81.3344363
 100.8934058 112.9114624  80.1517468 102.2753123 111.7192792  83.7723968
 101.2450359 112.1075837  84.3628485 103.3880214 112.3595126  83.9857595
 104.2204036 112.1846910  83.4410792 103.4703659 113.3302534  85.1034520
 102.6649569 114.0645317  85.1192941 103.5055983 112.5856241  86.5050332
 102.7069270 111.8443203  86.4787283 104.8224148 111.9012814  86.8549692
 105.6215381 112.6420760  86.8819197 104.7364929 111.4245977  87.8314377
 105.0519248 111.1472485  86.1020674 103.1218426 113.3877938  87.7244529
 102.0998277 113.7504444  87.6145792 103.1897402 112.7572248  88.6109472
 103.7984048 114.2358914  87.8297856 104.6921075 114.2021879  84.9170904
 105.7007321 113.7050510  84.4309973 104.6657721 115.4819387  85.3825817
 103.8041964 115.8718050  85.7372520 105.8579516 116.2976225  85.4307577
 106.8721270 115.9127013  85.3240660 105.6576592 117.4664776  84.4125624
 106.4908306 118.1370741  84.6228624 105.5948079 117.1899854  82.9196900
 104.7615370 116.5197788  82.7085447 105.4519201 118.1271776  82.3817748
 106.5258187 116.7243839  82.5963718 104.6831432 118.4885325  84.6868145
 104.6812736 119.1290212  83.9717123 106.1486026 116.9684251  86.8066487
 105.3077533 117.2856997  87.6740213 107.4186106 117.2401871  86.8812420
 108.0589110 117.0287525  86.1293044 107.9535740 117.8761582  88.0943194
 107.4975113 118.8621848  88.1829618 107.6628701 117.2638870  88.9479673
 109.4518924 118.0280217  88.0877359 110.0387464 117.9179450  87.0307707
 110.0690422 118.3335093  89.2256131 109.4670606 118.3063452  90.0361560
 111.4884307 118.6675437  89.4218025 111.9658017 118.8713832  88.4633320
 111.6044775 119.9671501  90.3346717 110.7766022 119.8586756  91.0353536
 112.5263789 120.1477228  90.8874749 111.3306197 121.2148820  89.5330902
 111.1248683 122.4626525  90.1348503 110.9067833 123.3138327  89.1582371
 110.6002487 124.3335980  89.3910765 111.1220143 122.7088199  87.9857918
 111.0825488 123.1403807  87.0734883 111.4008904 121.4283511  88.2125271
 111.6319211 120.7650158  87.3790331 112.1440434 117.4399503  90.1578734
 112.1878046 117.3427557  91.3639029 112.5217247 116.4149128  89.4003921
 112.5795269 116.5486959  88.4009621 112.8731827 115.0397114  89.9692511
 112.5439671 114.9041279  90.9994614 112.0594844 114.0376421  89.0395000
 110.9916624 114.1321478  89.2367923 112.2561954 114.2635760  87.9914739
 112.4270439 112.5065572  89.2511434 112.1184004 111.8688159  90.4899909
 111.6096987 112.3999250  91.2945066 112.4968645 110.4859742  90.6638584
 112.2460554 109.9759768  91.5939649 113.1649320 109.8152516  89.6734332
 113.4260069 108.7689415  89.8320990 113.5214303 110.4660674  88.4429516
 114.1399369 109.9554581  87.7048270 113.0676839 111.7659754  88.1962789
 113.2002509 112.2116090  87.2104105 114.3574181 114.7557030  89.9131472
 114.8841798 113.8336807  90.5485667 115.0726452 115.5499783  89.0351056
 114.6842510 116.3409826  88.5415861 116.5222332 115.2272570  88.8314013
 116.6867191 114.2977187  89.3763804 116.7692717 114.9762483  87.3646035
 117.8220737 114.7246557  87.2365041 115.9024500 113.8378809  86.8178599
 114.8494364 114.0889734  86.9451968 116.1157584 113.6946369  85.7585773
 116.1244332 112.9188003  87.3601835 116.3501858 116.0604767  86.5903420
 116.5181387 115.8756411  85.6633965 117.4399333 116.3565327  89.2467914
 118.5756490 116.0757482  89.6658450 116.9168558 117.6033751  89.2718892
 116.1736096 117.6543797  88.5899193 117.2640844 118.8306992  90.0254123
 116.7498784 118.8573073  90.9861325 118.8116844 118.8221372  90.2850411
 119.0613972 117.9946111  90.9490767 119.3356690 118.6977106  89.3373817
 119.1987452 120.0242552  90.8753309 120.1458433 120.0135290  91.0318232
 116.8514276 120.1274356  89.3509504 116.5583939 120.1252499  88.1561803
 116.4826317 121.1165217  90.2253143 116.9147080 121.1276736  91.1381588
 115.4771344 122.1144628  89.9299809 114.5050568 121.6306383  89.8347014
 115.4395507 123.0608010  91.1478620 116.4032344 123.5595870  91.2509460
 114.6581818 123.8071723  91.0047094 115.2306460 122.4851943  92.0496020
 115.7158832 122.8898213  88.6738646 114.7661131 123.3241038  88.0720144
 116.9417188 123.0608420  88.1258135 117.7441675 122.7091929  88.6283254
 117.1706717 123.7864877  86.8638091 116.8444088 124.8245393  86.9278433
 118.6579400 123.7631655  86.6267980 118.7931964 124.3669908  85.7294686
 119.0718642 124.2916723  87.4855455 119.3742856 122.4373128  86.4562567
 118.5806261 121.7950998  86.0744611 120.1284166 122.5811309  85.6824984
 120.0189936 121.7788926  87.6817201 119.4918080 121.7820618  88.8029151
 121.1649453 121.2883588  87.4645650 116.4260480 123.2470675  85.6143795
 116.0773625 123.9964285  84.6882178 116.1317483 121.9740566  85.6121674
 116.5041138 121.4284191  86.3761851 115.2899475 121.2644526  84.5621696
 115.2431369 121.8942888  83.6737922 115.8629224 119.8704989  84.1557129
 115.7492928 119.1790428  84.9906237 115.2164740 119.5582972  83.3355089
 117.2787334 119.8678884  83.6993325 118.0215648 118.9416537  83.9284785
 117.6849472 120.7980335  83.0165246 113.8672605 121.0215389  85.0464170
 113.7417669 120.6869274  86.2262358 112.8539151 121.1006093  84.2343775
 113.0186275 121.6343578  83.3929016 111.4464962 120.5835357  84.4971112
 111.3523763 120.3190211  85.5503313 110.3845642 121.6358667  84.1596487
 110.4538504 122.4703273  84.8574840 110.7252283 121.9568697  83.1752682
 108.8914631 121.1546328  84.0656640 108.7890060 120.5068688  83.1950291
 108.4756423 120.3877922  85.3234965 108.5773969 121.0350986  86.1945529
 107.4379482 120.0680561  85.2283098 109.1150622 119.5133894  85.4445848
 108.0484457 122.4309040  84.0709027 108.3209044 123.0504408  83.2164789
 106.9921581 122.1695150  84.0073925 108.2306693 122.9835469  84.9925747
 111.3359010 119.2737227  83.7224885 111.3046731 119.2433366  82.4739372
 111.3715016 118.1095625  84.4509243 111.4322886 118.2356807  85.4511735
 111.2823317 116.7036256  83.9114764 111.9322015 116.6349093  83.0390966
 111.7025096 115.6068982  84.9321128 110.8957084 115.7141564  85.6571416
 111.6726699 114.6059961  84.5015265 113.0214619 115.7856834  85.6474468
 113.1067317 116.3350572  86.7221242 114.0723241 115.4718580  84.9723778
 114.9858778 115.5679798  85.3922351 113.9779355 115.1311025  84.0262926
 109.8044060 116.2963990  83.5131848 108.8261691 116.7108978  84.1634258
 109.6237916 115.5806625  82.4164871 110.4438887 115.4625878  81.8389072
 108.3750974 114.8944467  82.0117201 107.5519605 115.2480106  82.6326366
 108.0242385 115.1778687  80.5005539 107.6806238 116.2017543  80.3532905
 109.0287930 115.0699218  80.0915091 107.0579617 114.1957062  79.7706992
 107.4683792 113.1871277  79.8199717 105.7025273 114.2184544  80.4272250
 105.2912417 115.2266771  80.3779310 105.0358119 113.5289184  79.9094109
 105.7982618 113.9162536  81.4701104 106.7120760 114.7387849  78.3439411
 107.6274682 114.8378713  77.7605558 106.0367091 114.0443752  77.8441653
 106.2308527 115.7128169  78.4321723 108.7672321 113.3862628  82.1764528
 109.6404735 112.8670776  81.4638441 107.9669910 112.6083918  82.9033867
 107.2969327 113.1718159  83.4070478 107.9619058 111.1302114  83.1286685
 108.8144564 110.6898478  82.6116225 108.0538081 110.7698328  84.6273369
 107.1026449 111.1075758  85.0388190 108.1270857 109.6866658  84.7247006
 109.1862500 111.4196095  85.3813340 110.0036986 111.5978184  84.6826780
 108.7720491 112.7150920  86.0046668 107.9548875 112.5376102  86.7038419
 109.6178724 113.1492069  86.5377971 108.4411909 113.4036259  85.2271359
 109.7317864 110.4679032  86.4533625 110.0982168 109.5574189  85.9791827
 110.5485965 110.9523565  86.9883648 108.9367795 110.2166467  87.1554546
 106.6742658 110.5218124  82.4657507 105.5400670 111.0079433  82.6314035
 106.8619214 109.3982322  81.7392296 107.8171232 109.0710417  81.7140265
 105.8325975 108.6282212  80.9901705 104.8447773 108.9825327  81.2847443
 106.0316019 108.8536363  79.4396641 107.1069415 108.8806754  79.2635561
 105.3887498 107.7789573  78.5347203 104.3132719 107.7516455  78.7099404
 105.5800005 108.0216522  77.4894342 105.8188053 106.8043216  78.7654511
 105.3373453 110.2448180  79.1480698 104.3734615 110.1314371  78.6519111
 105.2127258 110.8433986  80.0504393 106.3170100 110.9437952  78.2043321
 106.4417905 110.3459935  77.3014684 105.9274006 111.9263170  77.9379593
 107.2810561 111.0579530  78.6999963 105.8974184 107.0934901  81.2685293
 106.9099385 106.4147744  81.1532987 104.7062547 106.5510516  81.5882567
 103.9443856 107.1732557  81.8174220 104.4756158 105.1075489  81.6803096
 105.4340744 104.5887600  81.6980396 103.7689676 104.8648548  82.9992883
 102.8034474 105.3706554  82.9932486 103.6170149 103.7945944  83.1391215
 104.3776054 105.2545591  83.8152478 103.6692075 104.5275910  80.5060288
 102.6276954 105.0173810  80.1537089 104.1889169 103.3873788  79.9211679
 105.1204425 103.0995287  80.1847998 103.4877065 102.6128101  78.9014673
 102.4623600 102.9672579  78.7959663 104.2252019 102.7789693  77.5126183
 105.1150452 102.1495632  77.5238409 103.5500556 102.4387774  76.7274133
 104.6390941 104.2608932  77.2374587 103.7682258 104.9151107  77.2785543
 105.3774821 104.5934891  77.9670238 105.2346339 104.3107298  75.8687014
 105.9557588 103.4978021  75.7836932 104.4329974 104.1617385  75.1453205
 105.9501156 105.6755730  75.5815044 105.1792608 106.4260330  75.4063097
 106.5236442 105.9447798  76.4684609 106.8366838 105.6148181  74.4318316
 106.3053601 105.3658004  73.6097702 107.2695846 106.5166427  74.2925138
 107.5513029 104.9197840  74.5941466 103.3869978 101.1547863  79.2747892
 104.4027969 100.4171786  79.0443371 102.3295375 100.5795006  79.8426809
 101.5027912 101.1595358  79.8304741 102.2755723  99.3011651  80.5745738
 101.4509720  99.3155573  81.2872634 102.0543487  98.1169334  79.5785991
 101.2477645  98.3488236  78.8830790 102.9611454  97.8873320  79.0190431
 101.6510095  96.8637075  80.4076584 100.8626078  96.9857383  81.2873227
 102.1645620  95.6978461  80.1684826 101.8834308  94.9021136  80.7233474
 102.8434270  95.5906458  79.4283806 103.4823975  99.0445907  81.5048116
 103.4287629  99.3217616  82.6607854 104.6171266  98.4832569  80.9834141
 104.6120011  98.3412420  79.9834617 105.7853103  98.0641718  81.7306381
 105.8258532  98.2188735  82.8088416 106.0920669  96.6281360  81.4416801
 107.1302115  96.4677129  81.7325762 105.1996185  95.6141473  82.1586513
 104.1612995  95.7736588  81.8678775 105.5024801  94.6039827  81.8830765
 105.2980721  95.7410479  83.2367532 106.2402302  96.4256167  79.9981519
 106.4366468  95.5023821  79.8230558 107.0555504  98.8779779  81.4334838
 108.1111170  98.5218296  81.8990176 106.9190856 100.0491003  80.7449472
 105.9744103 100.3017207  80.4922205 107.9672672 100.9179722  80.3706454
 108.9208731 100.4494057  80.6139158 107.9453574 101.2352245  78.8667634
 107.0463924 101.8142932  78.6554801 108.8257940 101.8340790  78.6337297
 107.9489914  99.9561811  78.0004952 107.0383785  99.4126999  78.2525134
 107.8981601 100.2881486  76.9635208 109.1477156  99.0446638  78.1809882
 109.1588237  98.7013871  79.2154623 109.0254516  98.1895221  77.5162450
 110.4271255  99.6870914  77.8870442 110.3104546 100.5789682  77.4276500
 111.6585225  99.2919315  78.2039687 111.7576240  98.1379188  78.7108538
 110.9284945  97.5785836  78.8515253 112.6654407  97.7809504  78.9726590
 112.7051766 100.0056599  77.9345579 112.5996092 100.8952626  77.4681219
 113.6220049  99.6692677  78.1921716 107.8743687 102.2623952  81.1133079
 106.7271207 102.7437107  81.2669386 109.0110710 102.7544658  81.5023780
 109.8643731 102.2148218  81.4748257 109.0330493 104.0956409  82.2014198
 108.0925032 104.6270766  82.0563397 109.2272571 103.8489074  83.6892542
 108.2590288 103.5352379  84.0794396 109.9176814 103.0057380  83.7111520
 109.7733716 104.9675843  84.5404204 110.5293541 105.4853440  83.9500678
 108.6906488 105.9870828  85.0065963 107.9345136 105.4701083  85.5974396
 109.1581939 106.7621914  85.6138104 108.2209244 106.4429810  84.1350367
 110.3334286 104.3660348  85.7607910 111.1287203 103.6708617  85.4918206
 110.7381118 105.1504140  86.4003861 109.5489474 103.8305522  86.2955307
 110.0993500 105.0093886  81.4338803 111.2512918 104.5968267  81.2945295
 109.7127320 106.1194260  80.8678223 108.7863961 106.4347120  81.1180141
 110.5584300 107.0106195  80.0306856 111.5449158 106.5632377  79.9090535
 109.9426539 107.2232528  78.6433612 108.9299532 107.6026646  78.7796822
 110.5419359 107.9684496  78.1202524 109.8969288 105.9146033  77.8056789
 110.8799045 105.4588190  77.6868508 109.2916038 105.3024783  78.4742474
 109.2067770 106.0107389  76.4326219 108.8298745 107.1236983  75.9845262
 109.2226158 104.9568138  75.7671267 110.5533100 108.4496566  80.6178806
 109.5867246 108.8101428  81.3172020 111.6637961 109.1488333  80.3926481
 112.3358947 108.7865127  79.7315078 111.9722801 110.4056544  81.0780919
 111.0720311 110.9045791  81.4368746 112.9840007 110.2902563  82.2250264
 113.8617854 109.7552013  81.8626582 113.3999088 111.6613024  82.7303155
 112.5226601 112.1968166  83.0933030 114.1173930 111.5473485  83.5429233
 113.8584972 112.2248249  81.9177651 112.4475332 109.3494410  83.3644184
 111.6427089 109.8981743  83.8535507 112.0366335 108.4734171  82.8625787
 113.4757325 108.9016900  84.4168908 113.8867584 109.7772086  84.9195087
 112.9895022 108.2576265  85.1495991 114.2806847 108.3524531  83.9285359
 112.5380970 111.4028661  80.0066121 113.5016396 111.0849882  79.2555966
 112.0014472 112.5904964  79.9752502 111.3730069 112.8446495  80.7239612
 112.2689586 113.5962201  78.9025776 113.2343589 113.3770491  78.4464354
 111.1975566 113.5805545  77.8107015 110.3735232 113.7534400  78.5029288
 111.3199670 114.4519808  77.1674815 110.9057137 112.4059941  76.9894849
 111.3462356 112.3640034  75.6451032 111.9167683 113.1923448  75.2250527
 111.0425318 111.2409435  74.8478244 111.3999481 111.2007988  73.8188716
 110.2656776 110.1834816  75.3665709 110.0048152 109.0565330  74.6439612
 110.4011586 109.0713864  73.7697239 109.7464330 110.2649965  76.6839976
 109.1658957 109.4364540  77.0896998 109.9773848 111.4041140  77.4619813
 109.4596988 111.5286673  78.4130794 112.3109283 115.0622929  79.4285793
 111.8443766 115.2573621  80.5514967 113.0059785 115.9778989  78.7665604
 113.4717879 115.6806400  77.9211267 112.9945848 117.4508645  79.0974343
 112.2087854 117.8220660  79.7553309 114.3480054 117.8483378  79.6814390
 114.4803912 118.9294567  79.6395429 114.3665043 117.4094404  81.0747143
 114.2346277 116.3282893  81.1173977 115.3212183 117.6766577  81.5277225
 113.5574861 117.8954367  81.6200571 115.6860686 117.5033362  78.9753754
 115.7053091 117.9633671  77.9873960 116.5185658 117.8821804  79.5682710
 115.7755596 116.4217758  78.8737919 112.9353284 118.2033925  77.7207622
 113.4164780 117.6998780  76.6480682 112.3914342 119.4431199  77.7485137
 111.9331865 119.6968221  78.6120782 112.2275412 120.3521822  76.5597169
 112.1016638 119.7324702  75.6719044 110.9213091 121.2085080  76.7652355
 111.0691605 122.0002389  77.4996750 110.6272023 121.8548294  75.3409042
 110.4787722 121.0636557  74.6059800 109.7288952 122.4694833  75.3987447
 111.4722278 122.4746308  75.0411046 109.6499989 120.4169876  77.1536925
 109.8207659 119.8930558  78.0941372 108.8133918 121.1061106  77.2690075
 109.4188931 119.6933514  76.3720010 113.5556044 121.1032725  76.2736636
 114.1312454 121.8078044  77.1440419 114.0458729 121.0189946  75.0335462
 113.5459417 120.4664540  74.3517347 115.3686454 121.6065971  74.6407139
 115.5691347 122.3086853  75.4500195 116.5423743 120.5594122  74.5809372
 117.3909392 121.1060994  74.1696332 116.9537627 119.8863454  75.8666369
 116.1057844 119.3390373  76.2783241 117.7715161 119.1932855  75.6690354
 117.2816854 120.6396524  76.5829440 116.1462412 119.4496884  73.8487812
 116.8655356 118.8147719  73.8156597 115.3397228 122.3867677  73.3198607
 114.3338185 122.3517570  72.6111514 116.4008963 123.0451569  72.8607165
 117.2537660 123.1088723  73.3979809 116.2881120 123.8590495  71.6081497
 115.5356423 124.6174855  71.8241666 117.6244581 124.5620060  71.3149176
 118.3859102 123.8158755  71.0878051 117.5048259 125.2296609  70.4616736
 117.9309693 125.1393298  72.1871832 115.7327718 123.0292251  70.3753067
 114.8786260 123.4714190  69.5706699 116.1936675 121.8192793  70.1550472
 116.9707990 121.5343189  70.7338077 115.8280776 120.9647513  68.9961404
 115.5160472 121.5837704  68.1549796 117.0572423 120.1206120  68.5620412
 117.5377451 119.6874792  69.4393167 116.7401888 119.3224514  67.8908358
 118.0464604 121.0314843  67.8378147 118.7603411 120.3940663  67.3161121
 117.4404742 121.5697329  67.1090017 118.7947752 122.0240296  68.7031897
 119.0842779 121.7815960  69.9156781 119.2051952 123.1224769  68.2751360
 114.5488071 120.2396229  69.2435381 114.1773339 119.4078421  68.4205331
 113.8529789 120.4316504  70.3836340 114.2305743 121.1099160  71.0297584
 112.6280351 119.7501115  70.7425914 111.8561723 120.4943231  70.9387444
 112.3198453 119.1187276  69.9092411 112.8068968 118.8818358  71.9833149
 113.6135106 119.1411189  72.8533629 112.0074520 117.7777352  72.1146385
 111.5671163 117.3837292  71.2955152 111.8218203 117.1111154  73.3761820
 111.7860341 117.7967006  74.2228174 110.4438855 116.4415297  73.2268955
 109.7291536 117.2533848  73.0921781 110.4645721 115.8236593  72.3291715
 110.0343747 115.6070523  74.3958379 110.9142627 115.1432613  74.8417032
 109.3369268 116.5125118  75.4486520 108.4566233 116.9763200  75.0036279
 109.0354132 115.9091312  76.3048776 110.0288264 117.2881197  75.7769928
 109.0931991 114.4651403  74.0653903 109.5723551 113.7931239  73.3534192
 108.8523677 113.9169424  74.9762034 108.1773146 114.8632829  73.6286557
 112.9443063 116.0795922  73.4282216 112.9112811 115.0318199  72.7482536
 113.8669458 116.3040022  74.3133986 113.8432107 117.1680527  74.8358473
 115.0235940 115.4011263  74.5031618 115.3218104 114.9182128  73.5725917
 116.1907690 116.3000134  74.9916639 116.2483597 117.1595215  74.3238103
 115.9483068 116.6387963  75.9989068 117.5565647 115.5664643  75.0082806
 117.4981306 114.7806104  75.7613542 117.7000761 115.1172916  74.0255546
 118.7038411 116.4634981  75.3157478 118.3995463 117.1440749  76.1109325
 119.5333325 115.8475193  75.6630424 119.1713996 117.2833169  74.1261027
 118.5101723 117.1961702  73.3676284 120.2683577 117.9310739  73.9157706
 121.1488973 118.0185570  74.8572379 120.9740408 117.5804908  75.7503355
 122.0079141 118.5245972  74.6956427 120.4128659 118.6155879  72.7881026
 119.6671109 118.6241165  72.1070176 121.2679380 119.1248774  72.6161302
 114.6192472 114.2326293  75.4527615 114.1115505 114.4849972  76.5467316
 114.9598396 112.9729639  75.1469329 115.5056474 112.5081694  73.8844889
 116.5097816 112.9283579  73.8274234 114.8804096 112.9562686  73.1122300
 115.5040663 111.0378623  73.8244924 116.5123621 110.6289387  73.8894562
 115.0213915 110.6709149  72.9186911 114.6644933 110.6815767  75.0842093
 115.1968372 109.8108485  75.4670165 113.6093449 110.4369585  74.9620478
 114.8210456 111.8657475  76.0644796 113.9960773 112.0334379  76.7568708
 116.1505889 111.7822003  76.8566744 117.2573078 111.6481512  76.3123169
 115.9610946 111.7162434  78.1861749 115.0325722 111.9381213  78.5158953
 117.0226125 111.5118553  79.1802826 118.0714729 111.6355933  78.9106904
 116.7230820 112.3910666  80.4239863 115.6894219 112.1934277  80.7078611
 117.6368910 112.1378296  81.6214457 118.6707460 112.3357194  81.3384538
 117.3527572 112.7969356  82.4417796 117.5402030 111.0998611  81.9398395
 116.5566538 113.8955476  79.9800622 115.7319560 113.9768789  79.2719939
 116.3463902 114.5117237  80.8542566 117.4764495 114.2391236  79.5067418
 117.3427336 110.0339233  79.5726837 118.4367828 109.5050518  79.5152263
 116.3226073 109.2753277  80.0154329 115.4774801 109.7652879  80.2719449
 116.4517182 107.8401332  80.3987452 117.1239472 107.3146337  79.7204698
 117.0375508 107.7738858  81.8215739 118.0008429 108.2773576  81.7398203
 116.3598211 108.3823380  82.4203798 117.2267874 106.4303364  82.4851291
 117.3663447 106.5857845  83.5549237 116.3322765 105.8299323  82.3193966
 118.4317587 105.7075870  81.9187870 118.4222623 105.7620667  80.8301912
 119.3493292 106.1585798  82.2966351 118.3673712 104.2733655  82.3472924
 118.5138562 104.2119317  83.4256563 117.3908334 103.8632471  82.0898510
 119.4364599 103.4885046  81.6533726 120.3414468 103.8680996  81.8921318
 119.3886165 102.5229020  81.9456442 119.3006564 103.5449485  80.6541376
 115.1757303 107.0628033  80.0797294 114.1086781 107.5567353  80.4501076
 115.2635575 105.8167592  79.5870607 116.1692449 105.5806954  79.2074510
 114.1428235 104.7985170  79.4627819 113.2506890 105.0982554  80.0126474
 113.8087311 104.7451625  77.9967759 113.4145619 105.7173709  77.7009029
 114.7264523 104.5424519  77.4446924 112.7641302 103.6475936  77.6812250
 113.0326447 102.7374109  78.2174790 111.8802344 104.0912926  78.1394375
 112.4668608 103.3109170  76.2301741 112.6480685 104.1966594  75.3684426
 112.1744998 102.1659442  75.9492373 114.5925970 103.4479445  80.0899888
 115.6305021 102.8656066  79.7935624 113.6903722 102.8443837  80.9443914
 112.8820724 103.4330699  81.0865159 113.7980203 101.6047774  81.7312314
 114.6146110 101.0291448  81.2954265 114.1019139 101.8412436  83.2082437
 114.4501307 100.8899412  83.6105718 115.1520925 102.9361531  83.4948495
 114.8043439 103.8879120  83.0931943 115.2975166 103.0280036  84.5711933
 116.0968709 102.6666200  83.0227825 112.8776858 102.3035721  83.9269148
 112.0986063 101.5458716  83.8430868 113.1130799 102.4671245  84.9785515
 112.5263040 103.2357405  83.4845419 112.5479257 100.7568156  81.5133821
 111.5072846 101.2443289  81.0728576 112.5367154  99.5127386  82.0051430
 113.4198292  99.1049641  82.2770425 111.2831280  98.6863867  82.1762049
 110.4134301  99.3221174  82.0101590 111.2874606  97.8789908  81.4439532
 111.2003091  98.0930841  83.5605495 112.2317330  97.9546440  84.2029824
 110.0428533  97.5719123  83.9639340 109.3703312  97.5534893  83.2106254
 109.6323034  97.0429942  85.2845288 110.4948303  96.8775515  85.9301101
 108.7165253  98.1016792  85.9444155 107.9110971  98.3087960  85.2397970
 108.3030044  97.6473831  86.8448130 109.4026728  99.3736393  86.3010386
 110.1405862  99.1554486  87.0730344 109.9086469  99.7466768  85.4105694
 108.2353969 100.6663916  86.9236376 107.6337927 100.1513183  88.5447162
 108.4757872 100.0470888  89.2290264 106.9427219 100.9004117  88.9312145
 107.1188932  99.1948291  88.4546703 108.8576011  95.7124930  85.1476237
 108.2120003  95.3693796  84.1563474 108.8629821  95.0146391  86.2448729
 109.4590642  95.2382654  87.0289499 108.0215456  93.8179228  86.3309413
 107.9046931  93.3506467  85.3531388 108.7088451  92.8237744  87.2688398
 108.6188396  93.3172378  88.2365650 108.1071801  91.9148752  87.2676903
 110.1489922  92.4714290  87.0182923 110.5962354  92.2620069  85.7073106
 109.9370936  92.4241080  84.8544596 111.9167920  91.8365358  85.5020705
 112.2259932  91.5396096  84.4999072 112.8543528  91.7472551  86.6075780
 114.1883108  91.4899346  86.3433143 114.3727127  91.3905125  85.4064521
 112.3591303  91.9710741  87.8909243 113.0289587  91.8964120  88.7475782
 111.0207800  92.2876127  88.0816697 110.6256433  92.3990313  89.0913989
 106.6134562  94.0355461  86.7913036 106.1361072  93.5359717  87.8606419
 105.9371264  94.9846139  86.0797333 106.3737829  95.3746129  85.2567319
 104.6584537  95.4466318  86.4383131 104.0547781  94.5594687  86.6296680
 104.7839313  96.0068658  87.3648619 103.9684328  96.2907551  85.4608157
 104.5595743  97.2420248  84.8977973 102.6631540  96.0778229  85.5088276
 102.3292636  95.2031683  85.8877680 101.6968688  96.9813214  84.9057345
 102.0132309  97.3839515  83.9434959 100.4484283  96.0287741  84.6714184
 100.7131698  95.2805056  83.9243539 100.2040514  95.5329167  85.6108360
  99.2395903  96.8250238  84.1873203  98.8830926  97.3721205  85.0600719
  99.6301911  97.5289623  83.4524709  98.0565732  96.0191097  83.5589110
  97.7298714  95.3103061  84.3198067  97.2611588  96.7397580  83.3689601
  98.3834465  95.2618232  82.2593172  99.3399839  94.7605671  82.4072330
  97.6020091  94.5162428  82.1124687  98.4600257  96.0993960  81.1135478
  99.1843574  96.7900704  81.2492394  98.6764920  95.5396269  80.3012049
  97.5736425  96.5636382  80.9760597 101.4123616  98.2598409  85.6576046
 100.7477163  98.3033437  86.7002374 102.1812424  99.2887272  85.2254194
 102.7374459  99.2074525  84.3862940 102.2747134 100.5169486  85.9981584
 102.6648921 100.2816238  86.9883513 103.1910168 101.5427231  85.3182820
 102.8474017 101.7113052  84.2976895 103.1602580 102.8446061  86.0804897
 103.5042051 102.6769017  87.1011152 103.8131393 103.5678345  85.5918310
 102.1411788 103.2308697  86.0999091 104.6501833 101.0100203  85.2699709
 105.0454898 101.1252830  86.2792023 104.5749232  99.9497276  85.0286937
 105.5899036 101.6949305  84.2724971 105.6660355 102.7552388  84.5134327
 106.5777418 101.2378566  84.3304490 105.1954673 101.5796852  83.2629238
 100.8718972 101.1176359  86.2200919 100.2608624 101.5589362  85.2486701
 100.4863111 101.2218461  87.4873257 101.1705860 100.8818846  88.1478508
  99.1491101 101.5770684  87.9886437  98.5878711 101.6530539  87.0573348
  98.6397313 100.3798052  88.7644884  99.1859902 100.2958313  89.7039827
  97.5772888 100.5063140  88.9726029  98.7888798  99.4745755  88.1759196
  98.9246857 102.9439872  88.7550943  97.7749884 103.3707103  88.9858202
 100.0613486 103.6247529  88.9948454 100.8810135 103.2308178  88.5554550
 100.2156890 104.8364128  89.7771045  99.3374885 105.4520691  89.5826043
 100.3374712 104.6095971  91.3324134 101.1536359 103.9069294  91.5004386
 100.6079075 105.9020684  92.1111709  99.7918829 106.6051032  91.9439977
 100.6808495 105.6772354  93.1752339 101.5435521 106.3441565  91.7687839
  99.0927200 104.0447255  91.9610974  98.8631386 103.0793914  91.5099604
  99.2519870 103.9161829  93.0317096  98.2599763 104.7287925  91.7977236
 101.4789397 105.4311660  89.2790723 102.5210533 104.8035810  89.1683014
 101.4719167 106.7624145  89.0313763 100.6173291 107.2248380  88.7557971
 102.7175608 107.5293948  88.9979405 103.4696379 107.0900030  89.6532374
 103.2382960 107.4961200  87.5698219 103.2081171 106.4804401  87.1753820
 102.6454766 108.1510671  86.9313006 104.6811791 107.9864524  87.5998820
 104.6444294 109.0750179  87.6420169 105.1265317 107.6026680  88.5177451
 105.7042549 107.4751735  86.1770556 104.8612425 108.2820702  84.8217266
 104.8585328 109.3597843  84.9848950 105.3763798 108.0578295  83.8876761
 103.8343032 107.9210626  84.7654215 102.4894508 108.9350146  89.6074910
 101.6765643 109.6379796  89.0776725 103.2052160 109.2760176  90.6856552
 103.9329827 108.6302485  90.9566482 103.0003524 110.4075054  91.4713570
 102.5209450 111.1738295  90.8622469 102.1003482 110.1226605  92.7134865
 101.1962839 109.7035409  92.2717786 102.6454159 109.3378096  93.2379007
 101.7121950 111.2494238  93.7222390 101.1695454 110.8625599  94.5847752
 102.6767213 111.6405457  94.0459856 100.9161606 112.3488337  93.0829603
  99.6738843 112.3778378  93.3216092 101.5123941 113.2467782  92.4353753
 104.3535689 111.0387800  91.9891354 105.3201739 110.3483637  92.1934417
 104.4769330 112.3407589  92.1838334 103.7349737 112.9410606  91.8533282
 105.6997192 112.9887323  92.8258500 106.5011663 112.2665113  92.9813448
 106.1968303 114.0743071  91.8461225 105.2615925 114.5780502  91.6018435
 106.8670575 114.7750194  92.3440158 106.8399293 113.5773519  90.5868638
 106.2531916 112.7639641  90.1599680 106.8975655 114.7385547  89.5949605
 107.4845684 115.5522018  90.0209943 107.3623253 114.4025610  88.6680261
 105.8869682 115.0902831  89.3874016 108.2055650 112.8908156  90.7207399
 108.1114573 112.0158757  91.3639532 108.5552520 112.5811806  89.7358814
 108.9215140 113.5869807  91.1576268 105.3992564 113.6083945  94.2681044
 104.3534662 114.1590166  94.4741652 106.4176307 113.5589631  95.1372599
 107.1803625 112.9472499  94.8839882 106.4560244 114.2217729  96.4743261
 105.8816909 115.1477432  96.4457040 105.8477978 113.2979873  97.5475394
 105.9053305 113.9464554  98.4217696 104.8181833 112.9689987  97.4069671
 106.6736709 112.0356882  97.8786351 106.6818159 110.9588460  96.9549276
 106.1486304 111.0994431  96.0146906 107.3287086 109.7712717  97.2079773
 107.3786519 109.0003590  96.4390170 107.9270073 109.5529196  98.4635943
 108.4314711 108.6157624  98.6988656 107.8640204 110.5639108  99.4117354
 108.3104263 110.3972673 100.3920679 107.2324389 111.7970384  99.1220733
 107.1810710 112.5751822  99.8836202 107.7800468 114.7570975  97.0089066
 108.7660935 114.1653147  96.5626052 107.8194090 115.7582803  97.9027022
 106.9623673 116.2682992  98.0622624 109.0728932 116.2444970  98.5730280
 109.8932624 115.5393203  98.4395387 109.4595500 117.5808963  97.9103444
 109.4703151 117.4318996  96.8306300 108.6987586 118.3179589  98.1673177
 110.8902551 118.1039855  98.3894264 110.9124413 118.2287730  99.4720329
 111.6751407 117.4102967  98.0880087 111.1300625 119.5145316  97.6874171
 110.3323284 120.2004809  97.9723607 112.0893519 119.9200230  98.0090380
 111.1397790 119.3907082  96.2751373 110.6695426 118.5777499  95.9035516
 111.6794202 120.2585548  95.4209671 112.4887066 121.1785608  95.8104404
 112.7289162 121.2546751  96.7885027 112.8803909 121.8207936  95.1364818
 111.4629703 120.2261319  94.1501075 110.8580452 119.5165790  93.7619060
 111.8993967 120.9104427  93.5489840 108.9296900 116.3256979 100.1119199
 108.5142542 117.3814473 100.6160153 109.3519493 115.3021332 100.8909618
 109.8560502 114.0442893 100.4308813 110.8983974 114.1663559 100.1364117
 109.2711446 113.7214592  99.5696234 109.6927096 113.1249989 101.6133889
 110.3783784 112.2808382 101.5402448 108.6686501 112.7564850 101.6733972
 110.0240922 114.0096118 102.8110999 111.0963578 114.0438172 103.0039097
 109.5003643 113.7237918 103.7233036 109.5455695 115.3560502 102.3456006
 108.5864091 115.5899197 102.8075690 110.5757673 116.4095261 102.7510089
 111.6134751 116.5784917 102.0353342 110.3398950 117.0457877 103.9414111
 109.4676702 116.9815857 104.4465857 111.3562041 118.0095384 104.4167157
 111.5578873 118.7378454 103.6312274 110.8801552 118.7543494 105.6623834
 110.7873655 118.0445736 106.4843978 111.6160534 119.5155109 105.9215883
 109.4923760 119.4366347 105.4021919 109.5471733 119.9472833 104.4407679
 108.7386799 118.6507346 105.3531475 109.1027050 120.4636506 106.5163444
 109.2979562 119.9838910 107.4754099 109.7605837 121.3250339 106.4009590
 107.6491104 120.9238879 106.4649423 107.4605846 121.7876998 107.1024277
 107.3144023 121.1415277 105.4506925 106.9374173 119.7995706 106.9677709
 107.2471104 119.5979982 107.9077488 105.9482131 120.0033195 106.9756082
 107.1116339 118.9991397 106.3769595 112.7498748 117.4069443 104.6206257
 112.8650378 116.2881582 104.9888310 113.7977558 118.0727345 104.0811974
 113.6232860 118.9901068 103.6963759 115.1734245 117.5391100 104.0228230
 115.8587834 118.3066121 104.3824380 115.2344168 116.6653747 104.6716418
 115.5858510 117.1278302 102.5791979 116.7483553 117.1236175 102.1724069
 114.6426027 116.9247360 101.6731663 113.6996779 116.7848662 102.0069756
 114.8937261 116.8363715 100.2045803 115.8857610 116.4332837 100.0008986
 113.8554347 115.8986163  99.6058091 112.9150628 116.4165618  99.7943092
 114.0790067 115.9290978  98.5394196 113.7351378 114.4416926 100.0601747
 113.2209464 114.4864907 101.0202274 113.0958891 113.9469264  99.3289657
 115.0548118 113.6420875 100.2176934 115.2151849 113.0406954 101.3284157
 115.8994835 113.6021819  99.3341409 114.8616774 118.1870266  99.4542353
 113.9469949 119.0148328  99.5556887 115.8501925 118.4288306  98.5980841
 116.7196429 117.9210129  98.6773078 115.7810563 119.5493875  97.6471890
 115.0195019 120.2722169  97.9398522 117.1556463 120.2485341  97.6618317
 117.1485185 121.1193918  97.0063508 117.4161287 120.5583207  98.6738995
 118.0906467 119.3337756  97.2039985 118.9605926 119.7397125  97.2009738
 115.2840216 119.1813824  96.2736320 115.2484356 120.0652545  95.4310314
 114.8437540 117.9511737  95.9891606 115.0108217 117.2203032  96.6659295
 114.2917953 117.5691405  94.6581309 113.6731616 118.3990133  94.3165130
 115.3330352 117.2511535  93.5697060 114.8270984 116.9909305  92.6399688
 115.9711935 118.1192914  93.4048105 116.1993982 116.0553357  94.0379251
 116.7469228 116.3917941  94.9183303 115.5088191 115.2611870  94.3217037
 117.1803637 115.5276184  93.0022751 116.5920758 115.1312869  92.1746655
 117.7691451 116.3766427  92.6550092 118.1364368 114.4167706  93.5394665
 118.6808360 114.0128657  92.6858912 118.8377997 114.8922924  94.2250819
 117.4375879 113.3295382  94.2319309 116.7879494 112.8884977  93.5966728
 118.1100429 112.6477226  94.5529164 116.9334176 113.7035306  95.0231585
 113.2738866 116.4543162  94.8998697 113.4210985 115.6845517  95.8402819
 112.2171471 116.3893964  94.1289734 112.0587521 117.2094884  93.5611183
 111.1271555 115.3601939  94.2126965 110.7129734 115.3532905  95.2209151
 109.9969895 115.6618928  93.2206030 110.2867623 115.4237689  92.1971637
 109.3055223 114.9034639  93.5876978 109.3129450 117.0353767  93.2518283
 108.3445264 117.1693229  92.5078714 109.5872156 117.9360151  94.1387027
 111.5828377 113.9119308  94.2143304 112.4918059 113.5279098  93.4841648
 110.9013864 113.1094478  95.0006886 110.4219354 113.5808267  95.7543650
 110.8099628 111.6620447  94.9251442 111.6299793 111.2699992  94.3235026
 110.8942082 111.0480734  96.3278277 109.9234281 111.3225782  96.7405409
 110.9645845 109.9626502  96.2570910 112.0189218 111.5795562  97.2549628
 112.0087823 112.6691739  97.2820037 111.7494178 111.0273096  98.6716972
 111.7598637 109.9376740  98.6455432 112.5227699 111.3812990  99.3534000
 110.7751215 111.3726038  99.0175571 113.4048854 111.3115693  96.8243993
 113.5786195 111.7702495  95.8509887 114.0995200 111.7308928  97.5522397
 113.5615945 110.2353585  96.7515181 109.5745245 111.0959254  94.2688158
 108.5165637 111.6926967  94.3267816 109.7321015 109.9291001  93.7405752
 110.6095910 109.4862694  93.9729810 108.8633683 109.2674622  92.8283630
 108.0066817 109.9001261  92.5961484 109.6379614 108.9594817  91.4929213
 109.9209299 109.9422085  91.1157262 110.5354576 108.3993553  91.7553310
 108.8618732 108.2020645  90.4115429 108.6359573 107.1981739  90.7710795
 107.5713574 108.9249659  90.0905637 107.7964968 109.9288412  89.7305005
 107.0288930 108.3764800  89.3205012 106.9580239 108.9908994  90.9892155
 109.7117675 108.0386246  89.1277030 110.6191243 107.4813072  89.3605127
 109.1361827 107.4974305  88.3767620 109.9791654 109.0219122  88.7407367
 108.1854116 108.0165247  93.2544570 108.9479577 107.1061085  93.6241417
 106.8837719 108.0011199  93.4649486 106.4035140 108.8871003  93.3979375
 106.1236605 106.8387181  93.8581631 106.8286798 106.0658221  94.1642332
 105.1379643 107.0876119  95.0093815 105.7475069 107.3451047  95.8755539
 104.4805316 107.9226241  94.7672311 104.2516249 105.9511339  95.4304068
 104.8770738 104.8777567  96.1100819 105.9630577 104.8695353  96.2032010
 104.1047883 103.8157509  96.6694422 104.5464947 103.0394068  97.2941710
 102.7472949 103.7937792  96.3932848 102.1254533 102.9998634  96.8069399
 102.1610275 104.8059193  95.5700066 101.1135282 104.7135888  95.2830913
 102.9198162 105.9145520  95.1288951 102.4398841 106.7129748  94.5629568
 105.3695453 106.2343160  92.7263313 104.5567682 106.9463194  92.1145842
 105.5012506 104.9439739  92.6158541 106.1379371 104.5575850  93.2980808
 104.9190944 104.0533351  91.6426811 104.0279098 104.5272833  91.2312661
 105.8814399 103.7127447  90.5108656 106.7773569 103.2526417  90.9276848
 105.2159687 102.7393196  89.5315241 104.3201681 103.1989316  89.1139131
 105.9109083 102.5015620  88.7261478 104.9429308 101.8242679  90.0570997
 106.2859249 105.0072948  89.7639099 105.3618539 105.4917529  89.4484834
 106.7996935 105.6413992  90.4864423 107.1937748 104.7857973  88.5382377
 106.6804648 104.1521169  87.8150075 107.4255075 105.7466440  88.0787022
 108.1183039 104.3017608  88.8529665 104.4515208 102.7683141  92.3969874
 105.2064039 102.1393894  93.1036777 103.2486788 102.2986608  92.1509976
 102.6958035 102.9710034  91.6387637 102.6502280 101.0184110  92.4710086
 103.3787076 100.3715521  92.9598749 101.4726695 101.2309164  93.4191734
 101.9160587 101.5829888  94.3505972 100.8857980 102.0326318  92.9709166
 100.5849037 100.0615994  93.7010169 101.0999913  99.1312769  93.4616730
 100.2359076 100.0813521  95.1829577  99.7203477 101.0112362  95.4229837
  99.5874937  99.2365723  95.4153522 101.1496886 100.0104093  95.7729336
  99.2459037  99.9903261  92.9433355  99.4361949  99.9567136  91.8706012
  98.7049361  99.0931247  93.2441427  98.6475948 100.8706272  93.1782729
 102.1490585 100.4288829  91.1241252 101.7448365 101.1482263  90.2007295
 102.0722456  99.0962387  91.0891507 102.2738186  98.6001327  91.9455072
 101.7194103  98.3078373  89.8884158 101.4911840  98.9808230  89.0619158
 102.9310671  97.3880124  89.4697813 102.7038754  96.9055570  88.5191389
 104.2420103  98.2564080  89.3191066 104.4701148  98.7388386  90.2695426
 105.0732193  97.6133043  89.0299556 104.0885511  99.0171403  88.5537066
 103.1381925  96.4005043  90.4840323 103.8745055  95.8366453  90.2360273
 100.4973205  97.4316333  90.1917374  99.9137086  97.5189183  91.2360130
  99.9204418  96.6822039  89.2568403 100.4454975  96.5393561  88.4059523
  98.5799201  96.1059763  89.3491289  97.9563046  96.8583663  89.8319458
  98.0572723  95.8728186  87.9406269  98.6661093  95.1150953  87.4473998
  97.0227975  95.5326532  87.9880582  98.1076655  96.8033063  87.3751604
  98.4550317  94.8103520  90.1309917  97.3480425  94.4737070  90.5194774
  99.5751681  94.0975299  90.4191796 100.3979712  94.3571306  89.8941064
  99.6863812  93.0057596  91.3895647  98.7403320  92.4934799  91.5646636
 100.6784877  92.0051523  90.7138994 100.6910585  92.1471591  89.6332629
 101.6858026  92.1370172  91.1089038 100.1832168  90.5874544  91.0380235
 100.3506703  90.3712101  92.0931531  99.1188758  90.5095837  90.8161755
 100.9804621  89.5516741  90.1567494 100.6983019  89.6483582  89.1083521
 102.0536856  89.7118393  90.2598897 100.6289126  88.1662725  90.6469039
 100.9620247  88.0871791  91.6817377  99.5442553  88.0664412  90.6062674
 101.2554271  87.0873650  89.8417876 102.2605084  87.1794342  89.8796620
 100.9853533  86.1886093  90.2151485 100.9465539  87.1602161  88.8829398
 100.1964942  93.4228825  92.7453059 100.5066550  92.5334705  93.5725759
 100.2388633  94.7315980  93.0394445 100.1883323  95.1822253  92.1369585
 100.4750962  95.5685330  94.2236151 100.3054086  96.6200716  93.9921594
  99.5019413  95.1475745  95.3220920  99.8308937  94.1879265  95.7207965
  99.6619813  95.9249375  96.0692159  98.0074389  95.0720222  94.9742224
  97.2593974  96.2800939  94.6907460  97.7890505  97.2224487  94.8305119
  95.9529288  96.2829175  94.2670906  95.4315661  97.2215133  94.0791531
  95.3222808  95.0770752  94.0102335  94.0477088  95.2431494  93.5536106
  93.7916927  96.1657020  93.4832394  95.9122478  93.8303813  94.2683171
  95.4203828  92.8750986  94.0850026  97.2509639  93.8611971  94.8082760
  97.7369223  92.9345406  95.1136483 101.9194452  95.6873163  94.7299672
 102.1827910  96.2492676  95.7761707 102.8949739  95.2271199  93.8960134
 102.6648476  94.6396320  93.1073442 104.2965432  95.6303259  94.0790969
 104.6540356  95.3579023  95.0721144 105.1386754  94.9014573  93.0422228
 104.8595889  95.3136196  92.0725155 106.1927428  95.1034903  93.2325504
 104.9234893  93.3409015  93.0068442 104.3113638  92.7958702  92.1475321
 105.4290569  92.6609574  94.0018413 105.3209131  91.6571619  94.0301143
 105.9255565  93.1424503  94.7378804 104.4045571  97.1457321  93.8023768
 103.8586912  97.7468935  92.8833423 105.1625207  97.8282758  94.6870384
 105.6702276  97.3205895  95.3973817 105.2861511  99.2777561  94.6537601
 105.1690326  99.7254953  93.6668902 104.1568452  99.8431320  95.6016036
 104.2664599  99.4108588  96.5962012 104.2448281 100.9276855  95.6656592
 103.1785905  99.5816797  95.1981687 106.6287803  99.6552587  95.1481784
 107.4539836  98.9002001  95.7185994 106.9760408 100.9477136  94.8661861
 106.3130341 101.5843780  94.4476411 108.3620540 101.4560336  95.1676210
 108.7292886 101.0140048  96.0938221 109.3513086 101.0625090  93.9907846
 110.2452775 101.6839382  94.0431724 109.6323746 100.0137256  94.0864682
 108.7009641 101.2575501  92.3084864 109.7988256 100.8385279  91.6855748
 108.3201965 102.9902623  95.3148764 107.4653979 103.7318668  94.7829664
 109.3076626 103.5127532  95.9914117 109.8169966 102.8224086  96.5244244
 109.7496104 104.8986203  96.0559976 109.1900154 105.6254425  95.4672004
 109.8281872 105.3761472  97.5238940 110.2480299 104.5409080  98.0844366
 110.6744702 106.6726208  97.8028529 110.2549245 107.5084542  97.2429739
 110.6498978 106.9008937  98.8683990 111.7057862 106.5080813  97.4907420
 108.4218213 105.4642809  98.2086810 107.9257092 106.3769285  97.8784570
 107.8290536 104.6001667  97.9086267 108.5616582 105.4826444  99.7381016
 109.1539572 106.3467988 100.0389656 107.5730966 105.5441472 100.1931429
 109.0573041 104.5700373 100.0691352 111.1339632 105.0033314  95.4367261
 112.0501018 104.2198087  95.8320884 111.2138208 105.7023608  94.2983064
 110.3389802 106.1372162  94.0420758 112.3472429 105.8477869  93.3960877
 113.1109575 105.0895853  93.5692047 111.7648361 105.6522190  91.9527165
 111.0112134 106.4387491  91.9136981 112.5366795 105.8520981  91.2094762
 111.1246078 104.3353379  91.6628957 110.5201661 104.0302255  92.5170956
 110.2391091 104.4581786  90.4343668 110.8429690 104.7628307  89.5795925
 109.7725794 103.4956990  90.2244055 109.4656154 105.2042592  90.6164980
 112.1891272 103.2292167  91.5361504 112.7465150 103.1519771  92.4696665
 111.7015673 102.2775061  91.3248844 112.8736440 103.4743432  90.7240859
 113.0260880 107.1746425  93.5897563 112.3855569 108.1212244  93.9026201
 114.2526290 107.2478984  93.1434821 114.6859467 106.3691845  92.8981311
 115.0678714 108.4458203  93.1212135 114.4460187 109.3178450  92.9188001
 115.7494038 108.6363214  94.4716630 114.9687215 108.8682951  95.1961095
 116.2164257 107.6867738  94.7331014 116.8170107 109.7577106  94.4870235
 117.6236153 109.5362243  93.7881432 116.2252359 110.5900596  94.1061076
 117.4335373 110.1489831  95.9016452 117.2691688 109.3701309  96.8410292
 118.1484906 111.1410671  95.9218718 116.0696591 108.5295878  91.9477135
 116.6483686 107.5480911  91.6520556 116.2187706 109.6636663  91.2656513
 115.4190623 110.2743845  91.1785350 117.3679737 109.9043991  90.4051171
 117.5418117 109.0365462  89.7689482 117.1209059 111.1261711  89.5108244
 116.2478731 110.7689512  88.9646496 116.8535752 112.0166018  90.0798301
 118.2233978 111.4656936  88.5321604 119.1260179 112.5007600  88.9278729
 119.0733733 112.8684869  89.9526192 120.0317292 113.0246800  88.0651529
 120.7922830 113.7192164  88.4219144 120.1206483 112.4834955  86.7441401
 120.9773179 113.0152786  85.8045690 121.4824572 113.7609105  86.1369349
 119.1721682 111.5373278  86.3106933 119.1509919 111.2717236  85.2537607
 118.2568522 110.9326739  87.2135976 117.6285889 110.1063945  86.8809602
 118.7503591 109.8555182  91.0245897 119.0332949 110.3482272  92.0915710
 119.6445598 109.1362147  90.3072518 119.3313749 108.5264645  89.5654841
 121.0636369 109.1743548  90.6143127 121.2416825 110.0637040  91.2188430
 121.6080467 107.9451661  91.3729082 121.0087845 107.8331518  92.2764772
 121.4596836 107.0780384  90.7293417 123.0260072 108.0472334  91.7363435
 123.5631769 108.1152420  90.7903391 123.1195994 108.9900288  92.2753049
 123.6262110 106.9049062  92.5885717 124.4937149 107.2931993  93.1222051
 122.8737504 106.5800042  93.3071405 124.0490672 105.7204819  91.7249534
 123.1656580 105.3489050  91.2057045 124.7756747 106.0773243  90.9950190
 124.6483795 104.6267923  92.5234825 123.9751023 104.2957005  93.1996302
 124.9115340 103.8680055  91.9110348 125.4672279 104.9707835  93.0043738
 121.9482790 109.3384514  89.3292548 121.6710387 108.7388552  88.3135441
 122.8939052 110.2635682  89.3955944 122.7882790 110.9272893  90.1495286
 123.9337570 110.5165506  88.3827538 123.9942025 109.6529039  87.7205152
 123.6466602 111.7552153  87.5426949 124.3577154 111.8054157  86.7180861
 122.6335540 111.6953481  87.1450369 123.7813812 113.0129327  88.4109818
 122.8591595 112.9830011  88.9912508 124.6360839 113.0039042  89.0873721
 123.8095202 114.3043636  87.6099621 123.0017789 114.5389956  86.7202274
 124.8435784 115.0832466  87.8117362 124.9202397 115.9560028  87.3092213
 125.5592179 114.8072768  88.4688527 125.2635870 110.4732007  89.0731935
 125.3546039 110.9580072  90.2082532 126.2967724 109.7962608  88.4872275
 126.1836744 109.6198244  87.4992101 127.5432278 109.3307911  89.1475260
 127.8582903 110.1099682  89.8415849 127.4100057 107.9869938  89.9326927
 127.2192962 107.1742626  89.2318381 128.3351457 107.7895354  90.4741963
 126.3211775 108.0807111  90.8642340 126.2403135 107.2543613  91.3461123
 128.7741252 109.0291598  88.2145120 128.6811653 108.0228427  87.4856737
 129.7984909 109.9132554  88.0699100 129.8184520 110.7021336  88.7002846
 130.8590197 109.7965825  87.0733905 131.3485829 110.7690968  87.0219810
 131.5633024 109.0553714  87.4511355 130.4265190 109.4009619  85.7099699
 130.9557667 108.4575656  85.1586132 129.4431139 110.0935349  85.1769219
 128.9063977 110.5547197  85.8975769 128.8847782 110.0101445  83.8662826
 128.2545871 110.8876633  83.7216480 129.9229591 109.9495522  82.7136812
 130.6063141 109.1385122  82.9653545 129.3627165 109.6866793  81.8163930
 130.7006884 111.1942862  82.4657527 131.2043385 111.0949759  81.5042046
 129.9701050 112.0013487  82.4110072 131.7312976 111.5126464  83.5502860
 131.7795199 112.5832695  84.2479426 132.5814378 110.6100405  83.7696102
 127.7031791 109.0948228  83.6166212 126.9462612 109.2502237  82.6553783
 127.4951019 108.1342568  84.5357413 128.2192092 108.1196436  85.2396975
 126.5400410 107.1250378  84.5520079 126.2630641 106.8443051  83.5358523
 127.1429304 105.8569096  85.2801922 127.3383733 106.0747601  86.3301648
 126.4590565 105.0113605  85.2062796 128.3430155 105.5419863  84.6392311
 128.7373206 104.7733689  85.0579799 125.1796338 107.6242424  85.1322218
 125.1338248 108.2384881  86.1865276 124.0827842 107.1426539  84.5092053
 124.2863365 106.6966111  83.6261925 122.6755383 107.3487226  84.8773733
 122.6386640 108.0949759  85.6710013 121.8278466 107.8581725  83.6310421
 121.8779305 107.1112854  82.8387343 120.3962268 108.0750693  84.0235752
 120.3452957 108.8222227  84.8155780 119.8307354 108.4233886  83.1592872
 119.9710112 107.1374102  84.3814667 122.5567637 109.2427881  83.2486424
 123.5557861 108.9482210  82.9272623 121.9972674 109.6211745  82.3931384
 122.6662110 110.3450239  84.3180182 123.2260207 109.9675020  85.1736992
 123.1827035 111.2085649  83.8989339 121.6675014 110.6404539  84.6395771
 122.0280536 106.1084829  85.6062313 122.2270195 104.9822710  85.2131036
 121.3276309 106.3096888  86.7435620 121.2145553 107.2618235  87.0609778
 120.7463175 105.2458529  87.5397183 120.4803316 104.4176278  86.8829125
 121.6763989 104.7489113  88.5724132 122.1034708 105.6868724  88.9272905
 121.1506749 104.2570220  89.3908014 122.8089426 103.8282260  88.0603262
 122.4877690 102.7222343  87.5335311 123.9761098 104.1932774  88.3395236
 119.4389037 105.7545858  88.2548169 119.1711298 106.9125832  88.5140934
 118.5797448 104.8271138  88.5375029 118.8101973 103.9213411  88.1546624
 117.2677479 104.9946885  89.2033265 117.0697083 105.8925269  89.7887885
 116.0156742 104.7138505  88.2004973 116.1000940 103.7001372  87.8088863
 114.6420511 104.8713826  88.9585290 114.5566975 105.8850514  89.3500528
 113.8211229 104.6789197  88.2677790 114.5974266 104.1592315  89.7825125
 116.1644558 105.3965806  86.8012312 117.1730698 105.1896385  86.4434974
 115.4398827 104.9311162  86.1330723 115.9275997 106.9500206  86.8299601
 116.6521504 107.4162642  87.4976001 116.0471825 107.3549551  85.8250585
 114.9189633 107.1577419  87.1871775 117.2548638 104.1547191  90.4790544
 117.0171512 102.9521172  90.3452958 117.5171510 104.7777935  91.6510666
 117.5556236 105.7863733  91.6882945 117.7881494 104.0112371  92.9060033
 118.0217706 102.9509414  92.8096002 118.9517755 104.7327464  93.6383445
 118.7569574 105.8050702  93.6219761 119.0817959 104.2671749  95.0680675
 119.2770977 103.1949515  95.0852345 119.9062335 104.7938697  95.5486879
 118.1560938 104.4759767  95.6043293 120.2391852 104.6488290  92.8505786
 119.9643583 105.1189448  91.9063529 120.8968568 105.3145826  93.4094523
 120.9612457 103.3386333  92.5731533 120.3043191 102.6724904  92.0138672
 121.8606207 103.5353210  91.9895973 121.2368157 102.8681269  93.5169673
 116.5703764 103.9429283  93.7685751 115.8144967 104.9228988  93.7857687
 116.2324043 102.7921149  94.3128962 116.8645756 102.0186634  94.1637938
 114.9711157 102.5343321  95.0213544 114.2341979 103.3095166  94.8112581
 114.4359874 101.1956198  94.5003467 115.1826137 100.4275062  94.7019677
 113.0721658 100.7974950  95.1899873 112.3248642 101.5649615  94.9884058
 112.7282708  99.8428053  94.7919886 113.2207284 100.7095478  96.2662285
 114.1869386 101.1888773  93.1699906 113.8561470 100.3257614  92.9107455
 115.2068729 102.5859093  96.4528202 115.8430642 101.6751558  97.0031270
 114.7518154 103.6552214  97.1437155 114.3376108 104.4184944  96.6280138
 114.9004704 103.7983366  98.6223299 115.9624518 103.8371793  98.8647880
 114.2204644 105.0783698  99.1698805 113.1871913 105.0991893  98.8234524
 114.2372726 105.0428882 100.2591732 114.9489080 106.3455812  98.6867931
 116.0144621 106.1202283  98.7305108 114.6512054 106.4913672  97.6484186
 114.6700122 107.5973529  99.4674914 113.6061256 107.8128206  99.3684057
 114.9021661 107.3884757 100.5117971 115.4255038 108.7711642  99.0467727
 115.8973545 108.6931069  98.1571866 115.4492064 109.9288513  99.6702090
 114.6829788 110.1860490 100.6973325 114.0444577 109.4807322 101.0363294
 114.7329679 111.0889165 101.1472558 116.3664395 110.7009828  99.2415584
 116.9760529 110.3917600  98.4980176 116.4799987 111.6189732  99.6471401
 114.3475574 102.5632934  99.3201526 115.0505496 101.9137507 100.1440787
 113.0591147 102.2535415  99.0307456 112.6191519 102.8180166  98.3180747
 112.2560531 101.2477134  99.7065657 112.8207864 100.3641166 100.0039411
 111.7307795 101.9603717 100.9927565 111.1554846 102.8422389 100.7108950
 111.0943222 101.2760245 101.5537301 112.5753288 102.2610494 101.6127795
 111.1648064 100.7307513  98.7662350 110.7733226 101.3934226  97.7923217
 110.7354317  99.5185628  99.1491260 111.0414936  99.1286103 100.0291047
 109.9068012  98.6764285  98.2593601 109.1311255  99.2694319  97.7748260
 110.8037367  98.0871819  97.1909215 110.2545157  97.8509292  96.2795269
 111.5168323  98.8861907  96.9879935 111.6433632  96.8187894  97.5483747
 112.8950252  96.8219997  98.1887253 113.2294173  95.4842656  98.2459654
 114.1403498  95.2592970  98.8006635 112.3668290  94.6782225  97.6018584
 112.4064921  93.6845131  97.4255962 111.3348977  95.5228180  97.1925977
 110.4657978  95.1120510  96.6787524 109.1799319  97.6657347  99.0860843
 109.6496087  97.1699708 100.0996680 108.0661662  97.3044606  98.5538493
 107.7025349  97.8569352  97.7905384 107.2899721  96.1251251  98.9985865
 107.9028104  95.2356936  98.8521621 107.0665625  96.2412294 100.0591087
 105.9844298  95.9589893  98.2324375 105.4264072  96.9637829  97.7779645
 105.4215646  94.7185649  98.2016656 105.9668042  93.8925120  98.4027867
 103.9976688  94.5477278  97.8375319 103.6946368  95.1118009  96.9554364
 103.9409026  93.0396608  97.5030362 104.7427246  92.6052870  96.9059599
 104.0006677  92.6589187  98.5226261 102.6050216  92.6189290  96.9038195
 101.5434611  93.0545479  97.3022408 102.5878656  91.9704250  95.7717076
 101.7060230  91.6881688  95.3682414 103.4565091  91.7537391  95.3041540
 103.0939586  94.9926548  99.0706973 103.4720936  94.8558132 100.2708712
 101.8900887  95.4933766  98.8284248 101.6813119  95.6017049  97.8461944
 100.9219257  95.9891888  99.7998241 101.1005116  95.5533840 100.7828197
 101.0591112  97.5416017  99.9095707 100.3209210  97.8879905 100.6328889
 102.4444312  97.9895449 100.3459061 103.1831615  97.6438980  99.6227832
 102.4738805  99.0776623 100.4027724 102.6711403  97.5687692 101.3255246
 100.7702867  98.2700959  98.5419996  99.7544083  98.0450174  98.2172956
 100.8791261  99.3466892  98.6731507 101.4773066  97.9230790  97.7884726
  99.4982125  95.4809571  99.3833949  98.4219238  95.9974654  99.8371877
  99.3599839  94.3516566  98.7493766 100.1696396  93.9833536  98.2709314
  98.0647438  93.6346832  98.5986833  97.3647172  94.1900778  97.9745048
  98.3831373  92.3123734  97.9145785  97.4238228  91.9180160  97.5794708
  98.9919446  92.5705143  97.0480816  99.1199247  91.2332494  98.7637579
  99.8987777  91.6333505  99.4129172  98.2757421  90.9046220  99.3699442
  99.6733388  90.0442436  98.0249418  99.3270996  89.7325125  96.8776567
 100.7474478  89.3625085  98.5083477 101.1068318  88.5667464  98.0006990
 101.1803767  89.6553926  99.3725774  97.1884498  93.3932329  99.8680660
  97.7837169  93.4321937 100.9799892  95.9170581  92.9793454  99.8194619
  95.4429186  93.1393264  98.9421381  95.1368682  92.3679697 100.9503702
  95.8026311  92.2453516 101.8046674  93.9201174  93.2357925 101.3882095
  93.4912757  93.5736931 100.4448022  93.1582542  92.7130507 101.9664875
  94.4248969  94.4497455 102.1852752  95.1979606  94.3103807 103.1985964
  94.0036804  95.6245990 101.9685220  94.6281326  90.9072797 100.5607013
  94.4665949  90.5851693  99.3783784  94.2695651  90.1376629 101.6067784
  94.3937645  90.5450765 102.5225775  93.8294520  88.7577778 101.5217511
  94.6404520  88.1567618 101.1104631  93.4328419  88.1780812 102.8871479
  92.6714906  88.8394616 103.3006928  92.9972400  87.1969771 102.6979769
  94.6328430  88.0347758 103.9262369  95.0281020  89.0359330 104.0981536
  94.2088052  87.6480494 104.8529173  95.7772536  87.1019242 103.4531391
  96.2947723  86.7381382 104.3407951  95.3225302  86.2617085 102.9283881
  96.7334362  87.7208628 102.5861634  96.5018383  87.7542862 101.6036439
  97.9076654  88.2680452 102.9941919  98.3625540  88.3344143 104.2025083
  97.8216429  87.9506874 104.9642622  99.2566922  88.7696794 104.3790327
  98.7178740  88.7990485 102.0637735  98.4443790  88.7826543 101.0916461
  99.5969256  89.2123167 102.3404980  92.6788609  88.5346555 100.5125842
  92.4838362  87.4027311 100.0296862  91.8885466  89.5789455 100.2493456
  92.0730208  90.4546601 100.7175256  90.7160065  89.4820260  99.4210712
  90.9792905  89.1453300  98.4183666  89.6079651  88.6292080  99.9589735
  90.0280941  87.6820937 100.2974505  88.9038164  89.3181529 101.1240844
  88.4830007  90.2651894 100.7862430  88.1039412  88.6777547 101.4958242
  89.6207495  89.5043968 101.9237213  88.4263725  88.0485474  99.0039761
  87.7898872  87.4126795  99.6193289  87.8485779  88.8993159  98.6428031
  88.9420274  87.2563979  97.8290220  89.5195748  86.4051397  98.1894360
  88.1015060  86.8988709  97.2342132  89.5782678  87.8917761  97.2129112
  90.2564035  90.9195177  99.1359614  90.7383450  91.8579395  99.7966783
  89.4498972  91.1172294  98.0796723  89.1387343  90.3210270  97.5417700
  88.9933190  92.4668105  97.6666188  88.2085026  92.7856759  98.3525395
  89.8393617  93.1500809  97.7404608  88.4617517  92.5000429  96.2700634
  89.0409285  91.8334092  95.4434422  87.5034366  93.3316083  95.9454898
  87.0882564  93.8822806  96.6833820  86.9560439  93.4774460  94.5533657
  86.9813865  92.5417391  93.9948769  85.4249852  93.9124032  94.7557947
  85.0312165  93.3518527  95.6036323  85.4115401  94.9774563  94.9872708
  84.5830775  93.6553754  93.5584071  84.9111057  94.3694683  92.8030465
  84.8273074  92.6443929  93.2322659  83.0307071  93.7801709  93.7568973
  82.5337158  93.3442013  92.8902780  82.7496369  93.2266849  94.6528617
  82.5700945  95.2181934  93.9092011  82.2359007  95.5039341  94.8184679
  82.5534645  96.1289389  92.8939376  82.7163514  95.8318777  91.6726774
  82.8697271  94.8698001  91.4062518  82.6920001  96.5586538  90.9717472
  82.4008945  97.3156164  93.1416166  82.2875052  97.6181144  94.0985585
  82.3889245  97.9881385  92.3881782  87.7585286  94.5086863  93.7169377
  88.1545163  95.4883013  94.3165394  87.9372898  94.3971127  92.4181253
  87.5588646  93.2468495  91.6713409  86.5332393  93.0034370  91.9487277
  88.2189194  92.4332949  91.9722653  87.7025522  93.6009298  90.1581215
  86.7158573  93.7622391  89.7239423  88.1995242  92.7834079  89.6358398
  88.5462886  94.8701890  90.1101219  88.1997202  95.5890002  89.3676263
  89.5911702  94.6259693  89.9186048  88.3920144  95.4790327  91.5599832
  89.3627930  95.7918382  91.9444827  87.4663887  96.6824721  91.4835126
  86.3214874  96.4256778  91.0210814  87.8159860  97.9293321  91.6549414
  88.8195543  98.0288559  91.7101233  86.9927059  99.1467328  91.6778914
  86.2013796  99.0580269  92.4222254  87.8773782 100.3444351  92.0436634
  88.6260237 100.4713430  91.2616637  87.2496401 101.2341710  92.0928052
  88.5273671 100.1528031  93.2959380  89.0715357 100.9183533  93.4944656
  86.4963678  99.4108594  90.2832863  87.3050130  99.5320106  89.3710838
  85.2240949  99.7034690  90.0121289  84.5241722  99.2956671  90.6153744
  84.7761026 100.4106587  88.8032328  84.9029060  99.7424984  87.9514219
  83.2900644 100.8663828  88.8605554  83.1462464 101.3239223  89.8393676
  83.1703279 101.6230930  88.0852149  82.2268237  99.7326277  88.6525969
  81.2176844 100.1079143  88.4826013  82.6170302  99.3089378  87.7272186
  82.1922868  98.6338602  89.7507982  82.5434166  97.4565558  89.3927238
  82.0114223  98.9695978  90.9418932  85.6789558 101.6055340  88.3092005
  85.8801527 101.5895010  87.0913365  86.2381875 102.4838591  89.1848397
  85.7667986 102.5965790  90.0709469  87.2040863 103.5229733  88.7673626
  87.1934720 103.5571341  87.6779501  86.8455994 104.9194580  89.3068174
  87.3738243 105.6570074  88.7025827  85.3408102 105.2035070  89.2586979
  84.8119210 104.4665895  89.8631220  85.1462161 106.2016450  89.6510660
  84.9922135 105.1446535  88.2276221  87.2088978 105.0348932  90.6287505
  86.9785738 105.9102372  90.9486320  88.6739112 103.0384582  88.8319999
  89.5890750 103.8559272  88.8621457  89.0101663 101.7745296  88.9785163
  88.2163060 101.1535350  88.9133178  90.3385262 101.1864385  89.2143191
  90.1521540 100.1206645  89.3465707  90.8835740 101.3467553  88.2840929
  91.1972229 101.6978165  90.3955800  90.7384378 102.2773972  91.4112849
  92.4980619 101.3904309  90.3941045  92.8439401 100.9194460  89.5703079
  93.4464949 101.6116843  91.5398535  93.0680432 101.4596417  92.5506732
  94.7113639 100.7101163  91.3140069  95.0146233 100.8558559  90.2772359
  95.9251842 101.0096769  92.2602751  95.6228033 100.8636913  93.2972682
  96.7467539 100.3336793  92.0233126  96.2510047 102.0402014  92.1189975
  94.3579226  99.1643603  91.2855200  94.1952938  98.8447896  92.3148534
  93.4337944  99.0483132  90.7192871  95.4650249  98.2976461  90.6465912
  96.3894031  98.4128205  91.2125944  95.1602572  97.2511890  90.6585612
  95.6279053  98.6163461  89.6170281  93.7952961 103.0815785  91.6793738
  93.8678895 103.7735018  90.6838587  93.9274990 103.6414114  92.8702703
  93.7452657 103.0253421  93.6495963  94.3036367 105.0415498  93.1570349
  94.7788350 105.7002290  92.4301047  93.0288585 105.7253125  93.7182748
  92.5259993 104.9880857  94.3441579  93.2887563 107.0011672  94.5375023
  93.7912128 107.7390855  93.9121107  92.3402201 107.4080916  94.8879198
  93.9192513 106.7616276  95.3937709  91.8488852 105.8566583  92.7544842
  92.1423117 106.5869987  92.0004255  91.7204108 104.8815927  92.2845472
  90.5314670 106.2896453  93.3971573  90.6590404 107.2649076  93.8669320
  89.7573674 106.3537497  92.6324616  90.2371407 105.5595022  94.1510558
  95.4467172 104.9840291  94.1910235  95.3386864 104.2180080  95.1650979
  96.5075327 105.7984570  93.9658062  96.7207242 106.1268057  93.0347660
  97.3705910 106.2228677  95.0637925  96.8730296 106.0236920  96.0129295
  98.3081037 105.6683922  95.0222443  97.6704872 107.7095816  94.9650160
  97.9294304 108.3081489  93.8707516  97.6456198 108.3128309  96.1194445
  97.5751418 107.6218264  96.8526873  97.5767461 109.7383547  96.4928666
  98.0474428 110.4519873  95.8166474  96.1168239 110.2091863  96.8151565
  96.1642155 111.1374591  97.3845106  95.3195879 110.4422824  95.5206092
  95.2713660 109.5142691  94.9509017  94.3096201 110.7684179  95.7690069
  95.8120016 111.2095807  94.9232138  95.4129027 109.3986095  97.8463302
  94.8784603 108.6100172  97.3166186  96.1825379 108.9544665  98.4775973
  94.4037755 110.2052859  98.7405066  93.6335272 110.6493684  98.1099448
  93.9391225 109.5330960  99.4618648  94.9376050 110.9938196  99.2709219
  98.5532891 110.0181376  97.6158529  98.8712163 109.0326543  98.3840046
  99.1608388 111.1989667  97.6425388  98.9832392 111.8927354  96.9303291
 100.1746204 111.5102170  98.6996079 100.1222747 110.8787775  99.5865370
 101.6233434 111.4236706  98.0770090 101.7803628 112.1727793  97.3009410
 102.5688477 111.7102407  99.2693966 102.4127252 110.9612184 100.0457290
 103.6040669 111.6711292  98.9304389 102.3562399 112.7003777  99.6725414
 101.8372620 110.0911455  97.3278992 101.4800742 109.3201901  98.0106477
 101.1777256 110.1424855  96.4615993 103.2418941 109.7512950  96.8733332
 103.9019583 109.6993188  97.7391932 103.2361688 108.7880869  96.3631405
 103.5996106 110.5216160  96.1901462  99.9233778 112.8962097  99.3121009
 100.0101104 113.9674683  98.6076214  99.7595134 112.9189728 100.6396325
  99.7807994 112.0072205 101.0736301  99.4883373 114.0553772 101.4632353
  98.4798364 114.4480902 101.3336146  99.6228478 113.4914347 102.9191686
  98.7677144 112.8653035 103.1737387 100.5346983 112.8959406 102.9640625
  99.7230999 114.6758654 103.9370716  98.9561613 115.6666288 103.8761037
 100.5451263 114.5895601 104.8093667 100.4618372 115.2193994 101.0958604
 101.6549634 114.9500118 101.0631584 100.0652718 116.5112354 101.0134442
  98.6663714 117.0387096 100.9341361  98.2827200 117.1280671 101.9504663
  98.0654266 116.3163801 100.3816829  98.7577847 118.3815020 100.2237826
  97.9314044 119.0541284 100.4534964  98.8657499 118.2954544  99.1425608
 100.0472810 118.8533004 100.8594638  99.9940343 119.2293911 101.8811387
 100.4594612 119.6253043 100.2096814 100.9402025 117.5887466 100.8098373
 101.3213905 117.4275047  99.8014748 102.1167514 117.8269412 101.7694863
 103.0933049 118.3237742 101.3367252 102.0181944 117.4486794 103.0609074
 101.0728936 117.2640553 103.3649135 103.0588380 117.4228097 104.0352814
 103.7881698 118.1932181 103.7849910 102.5528337 117.6727059 105.4513105
 101.9559649 116.8023079 105.7238066 103.4347862 117.7221935 106.0899112
 101.7222074 118.9348233 105.6352589 100.9149238 118.7571411 104.9247499
 101.3154311 118.9669611 106.6460008 102.3889898 120.2513590 105.3196230
 103.5645124 120.3578621 104.9455204 101.7426731 121.2635783 105.5558301
 103.9489674 116.1411203 103.9999578 104.8696164 115.9818597 104.7945926
 103.7246428 115.1875397 103.1451229 102.9364813 115.3012385 102.5238553
 104.4454455 113.8975387 103.1335559 103.8894276 113.1829974 102.5266176
 105.8340101 114.0364052 102.5631584 106.4999251 114.6231537 103.1959164
 106.3009227 113.0781831 102.3353362 105.7229647 114.9186879 101.0049026
 107.0262256 114.8981786 100.7403486 104.4702407 113.1859025 104.4750245
 105.3629579 112.4224552 104.8667237 103.3841144 113.2156744 105.2755289
 102.7387460 113.9783231 105.1273195 103.1475511 112.3073211 106.4243344
 104.0884228 112.1798981 106.9597064 102.0959903 112.8261567 107.4024220
 101.1614055 112.7425209 106.8477550 102.1063831 112.0925296 108.2085133
 102.2150411 114.2389690 107.9946039 102.9563199 114.2140975 108.7933454
 102.5525628 114.9129394 107.2072380 100.9034718 114.7272955 108.5436323
 100.2793699 113.8894590 108.8544791 101.0640789 115.3940034 109.3908663
 100.1902768 115.4828073 107.4678244 100.0997230 114.9562827 106.6106948
  99.6462568 116.7336957 107.5245141  99.6702593 117.5951734 108.4994244
 100.1425247 117.3642254 109.3618213  99.2165104 118.4907490 108.3891702
  99.0321394 117.1625326 106.4419835  98.9829424 116.5706751 105.6250475
  98.6130117 118.0814215 106.4333799 102.8302903 110.9244354 105.9443941
 102.9948377 110.0065112 106.7301933 102.2752664 110.7815858 104.7158622
 102.0617602 111.5889181 104.1477698 101.7884207 109.4273628 104.2493910
 102.6302222 108.7350225 104.2378015 100.6809534 108.8471462 105.1722376
 100.2842777 107.9629981 104.6732087 101.1666674 108.5516231 106.1022096
  99.5455041 109.8076389 105.4777237  99.9587302 110.6624652 106.0130898
  99.1206618 110.1429372 104.5315809  98.1972173 109.0249567 106.5148975
  99.2951498 108.5242835 107.8975025  99.7692108 109.4082441 108.3240922
  98.7070977 108.0216810 108.6654128 100.0621996 107.8451200 107.5253832
 101.3645172 109.4222522 102.7094086 100.7836996 110.3282240 102.1951556
 101.6891703 108.3134153 102.0200937 102.4982258 107.8173482 102.3657033
 100.9887052 107.7727836 100.8368422 100.7268998 108.5265377 100.0942711
 101.8711500 106.6900751 100.1811690 102.0505191 105.8578355 100.8618337
 101.0580194 106.1791775  98.9290456 100.8786545 107.0108229  98.2476538
 101.6290185 105.4058283  98.4152443 100.1039086 105.7674738  99.2580925
 103.2900084 107.1297492  99.8251429 103.2163875 107.8091331  98.9759561
 103.6895883 107.6664611 100.6855938 104.2142693 105.9794178  99.4733242
 103.8155591 105.4424767  98.6126127 105.2035355 106.3682568  99.2319617
 104.2887581 105.2998032 100.3222502  99.6487478 107.1675910 101.3408827
  99.7235369 106.3870241 102.3267179  98.5112972 107.5390335 100.8155319
  98.5673324 108.3952806 100.2828027  97.2227587 106.8720731 100.9151879
  97.3131321 106.0870633 101.6659819  96.4925723 107.6098573 101.2477561
  96.7499437 106.2631136  99.6255797  97.0907855 106.7302139  98.5096343
  96.0939293 105.1163187  99.6148261  95.6865240 104.9399299 100.5220236
  95.8233623 104.1402037  98.5139387  95.9453004 104.5915902  97.5293167
  96.8825012 103.0028319  98.6764691  96.6806694 102.4413097  99.5886402
  96.5287992 102.4356270  97.8154967  98.3724619 103.2375903  98.5481006
  98.7112424 103.9202000  99.3274418  99.0950912 101.8816220  98.7022139
  98.7571468 101.1985863  97.9228842 100.1711437 102.0305230  98.6125468
  98.8677836 101.4572689  99.6801485  98.8180730 103.5832802  97.1465542
  98.3184160 104.4954864  96.8204832  99.8971516 103.7367854  97.1352977
  98.5606119 102.7673357  96.4712414  94.4170697 103.4411240  98.6046333
  94.0607886 102.9890595  99.6699274  93.7022447 103.4832201  97.5318727
  93.9250302 104.1576026  96.8137682  92.5625445 102.5585697  97.3006087
  92.3294345 102.0553839  98.2389918  91.3165027 103.2639848  96.8071844
  91.1265863 104.0810259  97.5032268  91.5592648 103.6721862  95.8260941
  90.0463411 102.3705190  96.6973014  90.3278683 101.5075592  96.0938582
  89.8108920 102.0437177  97.7101522  88.7965227 103.0570749  96.0697985
  87.8765763 102.6137993  96.4509865  88.7960100 104.1274319  96.2757966
  88.8460997 102.8633425  94.6561455  89.3833349 102.0625323  94.3558448
  88.3025094 103.6587607  93.7192177  87.4004800 104.5546728  93.9642347
  87.0663708 104.6854718  94.9083547  87.0351907 105.1185264  93.2100911
  88.6134284 103.5389468  92.4895385  89.2802482 102.8350710  92.2066777
  88.1916046 104.1484139  91.8034530  92.8671429 101.5015882  96.2489600
  93.0044388 101.8203784  95.0461979  93.2139698 100.3240119  96.6515243
  93.1710118 100.2551757  97.6582594  93.6619804  99.1181139  95.8730125
  94.1336224  99.3926140  94.9294540  94.7301693  98.3920540  96.7778674
  94.2652798  98.1039327  97.7207158  95.0155694  97.4967352  96.2255532
  95.9655711  99.2286689  97.0580494  95.7537039 100.0377024  97.7571044
  97.0043120  98.2228732  97.7125571  97.2170414  97.4137554  97.0138630
  97.9275639  98.7535527  97.9451209  96.5827244  97.8095740  98.6288257
  96.6475239  99.8389399  95.7840075  95.9394684 100.4869221  95.2674070
  97.5205438 100.4198038  96.0815552  96.9570970  99.0347522  95.1165155
  92.5052848  98.1707595  95.5432716  92.4786493  97.4632357  94.4928348
  91.4847809  97.9895879  96.4082783  91.6419022  98.4093338  97.3133892
  90.1816170  97.3146697  96.1600885  90.1017990  96.9082740  95.1518371
  90.1614352  96.1634400  97.1503470  90.0795241  96.6204297  98.1365266
  89.2733947  95.5626741  96.9539688  91.3980530  95.2721365  97.1046045
  91.5355509  94.3304637  96.0902434  90.7933134  94.3125521  95.2922070
  92.5548301  93.4551785  96.0794337  92.5665684  92.6673179  95.3262805
  93.5564654  93.5267489  97.0117031  94.5975338  92.6848058  97.0377517
  94.5673257  92.0291529  96.3371759  93.5307878  94.5699678  98.0174844
  94.3735820  94.7278550  98.6904405  92.3609810  95.4074125  98.1180857
  92.2578790  96.1017778  98.9519483  88.9402304  98.1931098  96.4448221
  89.0801979  99.1962309  97.1905441  87.8104975  97.9031005  95.8838227
  87.7613511  97.1265059  95.2399401  86.5886098  98.6758498  96.1364900
  86.6864100  99.6829848  95.7312576  85.3942011  97.9829414  95.4511427
  85.6589537  97.9770444  94.3938014  85.2780357  96.9574425  95.8017958
  84.0463837  98.7574769  95.6473872  82.9983474  98.0702855  95.7811519
  83.9994620 100.0049547  95.5882638  86.2124356  98.8568023  97.6565618
  86.2431807  97.9547480  98.5036313  85.9602098 100.1237379  98.0476401
  86.1287986 100.7464391  97.2705169  85.5270141 100.6877930  99.2850071
  85.1006965 101.6535354  99.0135406  84.7331081 100.0241404  99.6276118
  86.5235376 100.8871290 100.4104599  86.0260523 101.1757743 101.5167457
  87.8085150 100.5923898 100.1232670  88.1269600 100.5080239  99.1685028
  88.7480340 100.3527774 101.1753187  88.2990967 100.4977340 102.1579388
  89.1788105  98.9039146 101.0481802  89.3517852  98.8085517  99.9762264
  90.1166887  98.7507776 101.5820656  88.1452408  97.8378868 101.5021444
  87.2050327  98.0624908 100.9984951  88.5683743  96.3803590 101.1806518
  89.5083320  96.1548527 101.6843634  87.7969455  95.6926845 101.5272096
  88.6975626  96.2680251 100.1041799  87.6756759  97.7798955 102.9426359
  87.2029373  98.7250776 103.2095599  86.9565005  96.9690590 103.0585335
  88.5295390  97.6038011 103.5968588  89.9850085 101.2983300 101.1219395
  90.4823210 101.5150020 100.0163159  90.4469216 101.9229015 102.1625127
  90.0249797 101.7347343 103.0606538  91.4788963 102.9335630 102.0879692
  91.8857087 102.9328648 101.0767312  90.9560401 104.4045957 102.4268690
  90.1558916 104.7290682 101.7616026  90.5793510 104.3511481 103.4483134
  91.9823347 105.4738771 102.4087918  92.6847632 105.8144074 101.1984421
  92.4502635 105.2734962 100.2816406  93.6539367 106.8208144 101.1873645
  94.2484329 106.9871377 100.2890262  93.8718918 107.6457076 102.3680828
  94.5744201 108.4790455 102.3781759  93.1105391 107.3226038 103.5631271
  93.2398554 107.9269708 104.4609679  92.2082222 106.2348521 103.5674073
  91.6734539 105.9739414 104.4806698  92.6640015 102.5273218 103.0460833
  92.5201292 102.5389411 104.2657951  93.8508210 102.3744849 102.4997480
  93.9094528 102.2387588 101.5006283  95.0716859 102.2458269 103.2880659
  94.8633415 102.2693782 104.3577093  95.7052984 100.8347823 102.9251979
  96.1963974 100.5598661 103.8586550  94.8182299 100.2168040 102.7862291
  96.6601273 100.6149718 101.7684685  96.1015419 100.7256415 100.8390410
  97.4372701 101.3776811 101.8177193  97.3041784  99.2270874 101.8141206
  97.9848522  99.1451723 100.9667293  97.8698890  99.1502388 102.7426491
  96.2603235  98.0844275 101.7498071  95.4308061  98.3527801 102.4040154
  95.9040608  98.0151177 100.7220074  96.8311429  96.7411124 102.1800847
  97.1609284  96.8050010 103.1325864  96.1118266  96.0347029 102.1195059
  97.5995318  96.4920641 101.5737411  96.0283698 103.3899991 103.1481909
  95.9339961 104.1267849 102.1652990  96.9396967 103.5023768 104.1616401
  96.6926975 103.0716624 105.0411717  98.1586037 104.3633013 104.1126930
  98.4516050 104.7003409 103.1183823  97.8584840 105.6206536 104.9996193
  98.8081178 106.1511854 105.0691229  96.7565667 106.5968895 104.5280869
  95.8064743 106.0671514 104.4587835  96.6647249 107.4146326 105.2429028
  97.0204093 106.9982288 103.5496108  97.5162317 105.2552879 106.4364339
  98.3538755 104.7216942 106.8855804  97.3176132 106.1635507 107.0053883
  96.6316739 104.6185008 106.4491068  99.4722059 103.7203824 104.4101815
  99.6019021 102.9764466 105.3630868 100.5111258 104.0607605 103.6756054
 100.2990787 104.6378292 102.8742770 101.9080366 103.7708105 103.9672889
 102.0335075 102.9368164 104.6578033 102.6365193 103.4262456 102.5711149
 102.5371535 104.2249948 101.8361138 104.1277912 103.2867850 102.9856556
 104.2280260 102.4878598 103.7203475 104.7288495 103.0498810 102.1077569
 104.4739301 104.2246596 103.4200268 102.0598007 102.1679461 101.8866997
 102.3039823 101.2920961 102.4878343 100.9768099 102.2672246 101.8133917
 102.6694038 102.0013304 100.4462232 103.7523980 101.9015214 100.5187597
 102.2536070 101.1102021  99.9760079 102.4252272 102.8766516  99.8443175
 102.4697188 105.1092007 104.4933741 102.7315519 106.0444647 103.7159407
 102.6091677 105.2323268 105.8077397 101.9892697 104.3244621 106.8399981
 102.0864042 103.2962952 106.4913752 100.9331829 104.5795900 106.9276879
 102.7638867 104.5817940 108.1411637 103.5657856 103.8567072 108.2801112
 102.1047438 104.5645591 109.0091124 103.3261616 106.0105795 107.8998257
 104.3162526 106.0038242 108.3556470 102.7106515 106.7710065 108.3804479
 103.4459517 106.3074107 106.3878139 102.9906722 107.2773363 106.1876562
 104.8450966 106.2552304 105.7450412 105.4069340 105.1978939 105.4875102
 105.3348551 107.4916122 105.4922058 104.8026532 108.3102822 105.7503530
 106.5768989 107.6801576 104.7045213 106.7758387 106.8430675 104.0353409
 106.3210618 108.9627443 103.8400558 105.7932395 109.6562270 104.4947196
 107.2963308 109.3766397 103.5838508 105.5090253 108.7486046 102.5657831
 104.6261483 108.1466057 102.7807860 105.0793424 110.1074316 102.0418100
 105.9617485 110.7098766 101.8261290 104.4965794 109.9780610 101.1298060
 104.4708114 110.6111843 102.7928250 106.4047381 107.9865360 101.5105002
 106.7089456 107.0231229 101.9196364 105.8339066 107.8282116 100.5955215
 107.2901361 108.5818232 101.2873357 107.8824384 107.7129037 105.6126888
 108.8324312 108.3888268 105.1393531 107.9176693 107.1582971 106.7911794
 107.0453575 106.8074563 107.1600726 109.1353530 107.0798498 107.6552520
 109.3988188 108.0650004 108.0401717 108.8327460 106.1408481 108.8579918
 108.9394482 105.1447967 108.4283462 109.5864984 106.2847141 109.6321107
 107.4815452 106.2802219 109.4523119 106.8942384 107.3635318 109.4119978
 107.0191538 105.2691214 110.0588355 110.4213598 106.6187305 106.9511387
 110.4085072 105.5789730 106.2884863 111.4553568 107.4428954 107.0989911
 111.4526970 108.3549796 107.5328053 112.6762522 106.9949840 106.4380525
 112.4744940 106.8031481 105.3842063 113.7340574 108.0273317 106.5372314
 114.0552867 108.1062865 107.5758253 114.5795638 107.7283818 105.9176769
 113.2084654 109.3824225 106.0622123 112.9107557 109.3412607 105.0144645
 112.3622888 109.7079236 106.6673042 114.3654654 110.3754393 106.2258543
 114.0472189 111.4149096 106.1463576 114.9171955 110.2349936 107.1553532
 115.2470588 110.0715925 105.1104099 115.1996018 109.1326411 104.7413335
 116.0370212 110.8918459 104.5687220 116.0384990 112.1556328 104.7317641
 115.3593017 112.5834478 105.3447611 116.7188589 112.7234540 104.2472136
 116.9633317 110.4668991 103.7834718 117.0541851 109.4771587 103.6038623
 117.5952667 111.1250584 103.3503629 113.3178407 105.6638843 106.8223895
 114.0987006 105.1631699 106.0168320 112.8859537 104.9817853 107.9108327
 112.4338514 105.6065672 108.5630217 113.1138352 103.5730244 108.3269873
 113.9629437 103.1390857 107.7989615 113.4187956 103.5741583 109.8246528
 113.8026275 102.5864977 110.0801895 114.1788682 104.3254307 110.0390812
 112.1458316 103.8695240 110.6682569 111.0016450 104.1565140 110.1869559
 112.2811083 103.8400909 111.8769896 111.9618832 102.6102987 107.8783086
 111.9894848 101.5042409 108.3659039 110.9684588 103.0479309 107.0541612
 110.7830758 104.0386962 106.9900015 109.9848782 102.1149839 106.4791722
 109.9663248 101.1773291 107.0346526 108.6714959 102.7313701 106.5644707
 108.6170250 102.9865417 107.6227805 108.5281010 103.6313039 105.9664264
 107.5789398 101.7726546 106.2499301 107.7746172 100.5772377 105.9623716
 106.3708612 102.1967490 106.0959045 105.6323258 101.5417139 105.8823761
 106.1689582 103.1819241 106.1895319 110.5267380 101.6090340 105.1575619
 110.1087153 102.0104534 104.0787864 111.4449636 100.6731184 105.2345596
 111.7444236 100.5112570 106.1854665 112.1540540  99.9934315 104.1639361
 112.5104570 100.7264052 103.4401782 113.3590070  99.2160720 104.7081514
 112.9843368  98.3330815 105.2258861 113.9713152  98.9073413 103.8608828
 114.2256179 100.0707444 105.6943243 114.3928183 101.0259595 105.1966207
 113.6084653 100.2258629 106.5792892 115.5872273  99.4625381 106.1147858
 115.3591457  98.4401838 106.4162315 116.1837703  99.4473237 105.2026430
 116.3897485 100.1717575 107.2486643 116.6583786 101.1744774 106.9162621
 115.7605841 100.2401081 108.1361211 117.6044975  99.4229876 107.5691662
 118.1878343  99.3599079 106.7470720 118.1087184  99.8980407 108.3041396
 117.3557790  98.4939547 107.8776073 111.2214690  99.1746155 103.3434791
 111.4731749  98.9994043 102.1440313 110.1507758  98.5873678 103.9345182
 109.9524232  98.8875935 104.8782449 109.3160025  97.4721714 103.3467015
 109.7108092  97.1398217 102.3866127 109.3784229  96.2934961 104.3400600
 108.8875365  96.5967278 105.2648196 108.8437418  95.4488533 103.9055548
 110.7917563  95.8918568 104.6337001 111.2706221  95.5368309 103.7211515
 111.3062090  96.7844049 104.9897838 110.8633544  94.7989910 105.7064153
 111.6663940  94.8526499 106.6350886 110.0275438  93.8696342 105.5925307
 107.8821145  97.8762547 103.0114256 107.0370539  97.0198966 102.9215958
 107.5607057  99.1894846 103.0216094 108.2864748  99.8023655 103.3647355
 106.2210067  99.7757422 102.7262326 106.2513715 100.8501668 102.9073103
 105.8069667  99.5353517 101.2658747 105.8283882  98.4662430 101.0545763
 104.7865280  99.9048467 101.1644923 106.7307826 100.2812690 100.2597308
 107.7166718  99.8163837 100.2619799 106.1134964 100.2012201  98.8046212
 105.1277266 100.6663510  98.8014743 106.7640027 100.7248892  98.1041121
 106.0230191  99.1572097  98.5046937 106.9865803 101.8201402 100.4500303
 107.4475791 101.9948720 101.4221663 107.6509797 102.1785111  99.6637447
 106.0388512 102.3558898 100.3963567 105.1397769  99.3076885 103.7362118
 103.9943616  98.9112991 103.3367405 105.4929721  99.2061048 105.0485680
 106.3953903  99.5541015 105.3394959 104.5823635  98.5986703 106.1007778
 104.1043334  97.6964965 105.7191120 105.4362715  98.2198021 107.3514413
 105.9314101  99.1237925 107.7060374 104.7584184  97.8515469 108.1215083
 106.4977526  97.1394760 107.0401550 106.0023964  96.2950184 106.5609738
 107.2337489  97.5636236 106.3571394 107.1861970  96.6720476 108.2898718
 108.0217589  96.0475248 107.9737919 107.5674875  97.5620355 108.7905099
 106.3232539  95.9069168 109.2287376 106.9168264  95.6061307 110.0920452
 105.5026123  96.5447380 109.5571136 105.7890345  94.7313708 108.5784206
 106.5492905  94.1400085 108.2744452 105.2060001  94.2230302 109.2278516
 105.2386309  95.0098881 107.7786812 103.5646010  99.7519911 106.4001701
 103.9412821 100.9046237 106.5118188 102.3220862  99.2934119 106.4232165
 102.1927629  98.2936676 106.4855544 101.1315235 100.1417890 106.2007626
 101.3772957 101.2035640 106.2189048 100.6230105  99.7819505 104.8050346
 100.3641647  98.7235931 104.7737537  99.7402498 100.3783286 104.5744550
 101.4014569  99.9869463 104.0701216 100.1762254  99.9718634 107.3730342
 100.4823028  99.2619508 108.3092643  99.0021997 100.6069699 107.1569173
  98.9052448 101.2572324 106.3901985  97.8343889 100.3529874 108.0040277
  97.8478289  99.3285496 108.3761108  97.8674586 101.3053974 109.1962720
  97.8551940 102.3707353 108.9660465  96.9479640 101.0358892 109.7158826
  98.9736419 101.0923333 110.1553550  98.8476647 100.0738610 111.1215967
  97.9503246  99.4552643 111.1068091  99.8511129  99.8438848 112.0961554
  99.6635496  99.1978853 112.9538297 101.1030664 100.4635712 111.9437670
 101.9596283 100.2144858 112.5701519 101.2288152 101.4483902 110.9269545
 102.1656634 102.0021522 110.8656089 100.1972993 101.7168894 110.0216649
 100.3577434 102.4220076 109.2060879  96.5955530 100.6393073 107.1259005
  96.5981826 101.5945381 106.2845223  95.5046343  99.8846284 107.3264224
  95.6013967  99.2396875 108.0976471  94.2298305  99.8860460 106.5659341
  94.3983626 100.4214771 105.6315843  93.6928862  98.5021955 106.2424011
  93.5313431  97.8687201 107.1145892  92.7345233  98.7252376 105.7734737
  94.5591518  97.7440008 105.2434818  95.7451046  98.0174020 105.1235961
  94.0258350  96.6829386 104.6226886  94.5772580  96.1620137 103.9558531
  93.0748737  96.4089600 104.8244536  93.2362508 100.6399430 107.4691997
  93.0019132 100.2467817 108.6225062  92.6491120 101.7481838 106.9728709
  92.8540088 101.8980060 105.9952872  91.8501123 102.7427123 107.6698620
  91.7172001 102.6957239 108.7507069  92.3979357 104.1246561 107.2811402
  92.2778678 104.2635792 106.2067173  91.6470901 105.2276098 108.0236742
  91.7670866 105.0896143 109.0982247  92.0490137 106.1989563 107.7355003
  90.5884287 105.1827036 107.7680988  93.9938213 104.2222097 107.3071924
  94.4163449 103.5265352 106.5822017  94.3039776 105.2373346 107.0593539
  94.4920750 103.8654603 108.7036290  94.1826788 102.8502346 108.9520049
  95.5798744 103.9297590 108.7292678  94.0703093 104.5610332 109.4291577
  90.3681082 102.5989464 107.3547139  89.9757842 102.7078710 106.1990071
  89.5438105 102.1976153 108.3711766  89.8954101 102.3168885 109.3104588
  88.2714648 101.5753351 108.1991279  88.3273244 100.8035620 107.4314397
  87.8407135 100.9213991 109.5231015  88.0659271 101.5996677 110.3461020
  86.7681046 100.7296411 109.4941365  88.6007791  99.5816963 109.7333748
  88.3739823  98.9393004 108.8824980  89.6669935  99.8079567 109.7431342
  88.2199987  98.8632273 111.0306202  87.1775323  98.5540854 110.9545015
  88.8535311  97.9817731 111.1294872  88.3748409  99.6763654 112.2070279
  87.5734554 100.2472128 112.4350934  89.4724344  99.7824770 112.9675711
  90.5763265  99.1467355 112.6352175  90.5954261  98.5759537 111.8021848
  91.3989838  99.2327395 113.2148190  89.4322564 100.4502957 114.0438818
  88.5722791 100.8999485 114.3237951  90.2604064 100.5296572 114.6165669
  87.1639870 102.6019247 107.6934989  86.8297560 103.5291771 108.3890840
  86.4482388 102.2687903 106.6135785  86.9385816 101.6605521 105.9734930
  85.1360662 102.8200040 106.1944754  85.0999567 103.8633656 106.5078312
  84.8634649 102.7511708 104.6790706  85.1448055 101.7300902 104.4215030
  83.7993763 102.8929533 104.4900914  85.6625459 103.7257707 103.8302622
  85.6173423 104.6564628 104.3958324  87.1438538 103.4202053 103.4503377
  87.1898120 102.4898303 102.8843086  87.5390474 104.2343808 102.8428501
  87.7395351 103.3225253 104.3579295  84.9532565 104.0057342 102.5256235
  83.9737815 104.4383458 102.7295242  85.5429926 104.7057585 101.9337801
  84.8306507 103.0753254 101.9711813  83.9838453 102.2211204 107.0161653
  84.0046896 101.0488971 107.3080199  82.9096549 102.9218381 107.3962255
  82.8722606 103.9291915 107.3334550  81.7641208 102.2335867 107.8830384
  82.0411822 101.3254221 108.4183638  81.0498943 103.1838589 108.8625838
  81.7907384 103.5412595 109.5777858  80.6654282 104.0259335 108.2870872
  79.8775787 102.4997158 109.6277757  79.5318711 103.1893882 110.3978011
  79.0724801 102.3175119 108.9159351  80.2873862 101.1956041 110.2680252
  81.2930139 101.2856393 111.0177129  79.7481386 100.0794536 110.1320621
  80.7278178 101.8414393 106.7485648  79.9423297 100.8796560 106.8799354
  80.7494437 102.5597384 105.6594781  81.4434690 103.2935109 105.6619601
  79.9164891 102.4225179 104.5132674  79.3096045 101.5193881 104.5776649
  78.9854944 103.6335323 104.4553114  78.3754967 103.6063797 105.3582316
  79.6192875 104.5201677 104.4721669  78.0890964 103.6803334 103.2452807
  77.5921727 104.6493209 103.1980484  78.7430668 103.5654477 102.3808600
  77.0447978 102.5747060 103.2409789  76.2227417 102.4339491 104.1830772
  76.9937820 101.7988503 102.2132657  80.9462347 102.3673094 103.3289034
  81.7251132 103.2615473 103.1578979  81.1296468 101.1537680 102.7567293
  80.4567874 100.4123065 102.8893728  82.3182962 100.8713570 101.9783266
  83.1777328 101.3742189 102.4217201  82.5956428  99.3608773 101.9471654
  81.7686489  99.0085430 101.3306909  83.5366859  99.1882688 101.4249162
  82.6022455  98.6038420 103.2672578  81.5734743  98.4826872 103.6064511
  83.2250344  97.2835399 103.1132789  84.2540438  97.4039032 102.7745298
  83.2168825  96.7634523 104.0711636  82.6672864  96.7014790 102.3796422
  83.2244193  99.3262302 104.3564667  82.6904413 100.2614531 104.5247674
  83.1892908  98.7203719 105.2618964  84.2626955  99.5416061 104.1040888
  82.0053272 101.4660560 100.5969760  81.6170236 100.7915235  99.6407505
  82.2657233 102.7867462 100.5266399  82.5976085 103.2397464 101.3661293
  82.0000728 103.6249693  99.3343473  82.2580801 103.0747205  98.4294950
  80.5209745 104.0040397  99.2703560  79.7578105 103.5144752  99.8753408
  80.6526347 105.0302982  99.6132249  79.9563761 104.0872334  97.8240129
  80.3105646 105.1329395  96.9660622  79.3784404 104.9812413  96.0005856
  79.4085435 105.7242388  95.2036242  78.5737001 103.9368107  96.1919461
  77.8619871 103.5836739  95.5683606  78.8828908 103.4007547  97.4209034
  78.2770295 102.5928191  97.8311147  82.8511678 104.8437222  99.2485991
  82.8645955 105.6402195 100.2112733  83.5739539 104.8968591  98.1429948
  83.5523217 104.0904487  97.5352666  84.5301391 106.0079129  97.8177097
  84.0487895 106.9854623  97.8459740  85.7315437 106.0143530  98.8148428
  85.3380981 106.2976382  99.7910852  86.4584360 104.6645571  98.9277526
  86.8525855 104.3808122  97.9519268  87.2795335 104.7518783  99.6392822
  85.7593372 103.9025184  99.2722228  86.7110162 107.0867606  98.4043157
  86.2159906 108.0577093  98.4219327  87.5522737 107.0957866  99.0973554
  87.0731582 106.8823759  97.3967539  84.9305754 105.9081111  96.3238086
  85.8073299 105.3632017  95.8233954  84.1921468 106.7155708  95.5477100
  83.5359874 107.3391818  95.9956649  84.2961897 106.7500091  94.0960881
  84.3398276 105.7895170  93.5826195  83.1363128 107.5947654  93.5126325
  83.1197184 108.5574347  94.0236049  83.3038665 107.8166393  92.0239671
  83.3200865 106.8543690  91.5122315  82.4720261 108.4129605  91.6490759
  84.2402563 108.3425090  91.8375952  81.7548942 106.9741235  93.9601461
  81.7313352 105.9355164  93.6302355  81.7079499 107.0102318  95.0485357
  80.5451939 107.7296693  93.3676853  80.5912033 107.6935937  92.2792545
  79.6215802 107.2611036  93.7075135  80.5678194 108.7683103  93.6975531
  85.6465197 107.4006141  93.6828778  86.3297885 106.8602247  92.8238801
  86.0563527 108.4081864  94.4517269  85.4603794 108.7377890  95.1975669
  87.2944014 109.1106991  94.2028166  88.0342988 108.3826969  93.8701547
  87.1822024 110.2266646  93.1335598  86.7441122 109.7059897  92.2820471
  86.5139625 111.0264672  93.4527327  88.4940878 110.8051329  92.7389851
  88.6559799 111.9280142  92.2733699  89.4997572 110.0521372  92.7925340
  87.8113819 109.6826771  95.5497990  87.0571138 109.8257061  96.5187548
  89.0963273 109.9792399  95.6656208  89.7167322 109.8129536  94.8861684
  89.6901226 110.4934423  96.9571915  89.0238590 111.2521277  97.3677867
  89.8223754 109.3397650  97.9869303  88.8134047 108.9725401  98.1746087
  90.7532097 108.1265546  97.5293902  91.7625307 108.4929453  97.3419604
  90.7811652 107.3726177  98.3160910  90.3525012 107.6844249  96.6172193
  90.4440556 109.7331994  99.3253040  89.8336966 110.5028324  99.7977750
  90.4927158 108.8592111  99.9748241  91.4500779 110.1187509  99.1598648
  91.0765778 111.1969759  96.8241928  91.9234450 110.8333072  96.0137885
  91.2654354 112.2291409  97.6378870  90.5647826 112.3088420  98.3609588
  92.3366996 113.1924166  97.6156207  93.2299308 112.7250505  97.2011259
  91.9743111 114.4451093  96.7414534  91.0392112 114.8330045  97.1454643
  92.7707953 115.1698206  96.9102920  91.8159758 114.1974817  95.2209648
  91.1010714 113.3767265  95.1628854  91.3492485 115.1117838  94.8544687
  93.0102260 113.8775537  94.3821379  93.8237748 114.5629230  94.6198480
  93.3316882 112.8533541  94.5712850  92.6321473 114.0281385  92.9121342
  92.3008804 115.0513802  92.7351054  93.5083035 113.8191086  92.2983296
  91.5548580 113.0978296  92.5587478  90.7427530 113.2916331  93.1271011
  91.3182028 113.2116259  91.5834813  91.8617643 112.1495917  92.7223094
  92.6984174 113.7716457  98.9839087  91.8121353 113.9359330  99.8048294
  93.9308830 114.2100444  99.2006138  94.6387508 114.0561188  98.4968174
  94.3385157 114.8525689 100.4868074  93.7218244 114.4661225 101.2982568
  95.8288551 114.5567200 100.8116162  96.3825737 114.6234911  99.8751139
  96.2450703 115.2626434 101.5303213  96.0865875 113.1551648 101.3742325
  95.6313262 112.8382760 102.6650027  95.0698170 113.5918464 103.2172154
  95.8805447 111.6038077 103.2376432  95.4668512 111.3832501 104.2216720
  96.6373666 110.6621233 102.5839826  96.8690766 109.6988197 103.0383575
  97.1227667 110.9700249 101.2805681  97.7372877 110.2416747 100.7514461
  96.8173274 112.1930044 100.6803914  97.1509195 112.3994077  99.6634284
  94.0784524 116.3390881 100.4494983  94.1075251 116.9216915  99.3583531
  93.8171379 117.0012529 101.5678053  93.6808949 116.4173670 102.3805873
  93.6610990 118.4887350 101.7243003  93.5385322 118.9385989 100.7390597
  92.4034667 118.8653480 102.6132124  92.6360906 118.2018859 103.4461610
  92.4246466 119.8996957 102.9563980  90.9822507 118.5293757 102.0621077
  91.0160778 117.5280994 101.6326868  89.9043992 118.5820682 103.1498875
  89.8696573 119.5832356 103.5794868  88.9351159 118.3406034 102.7136705
  90.1405835 117.8599027 103.9314208  90.6109225 119.3351796 100.7576981
  91.3298321 119.1056349  99.9712010  89.6107157 119.0536107 100.4284465
  90.6352894 120.4038482 100.9708940  94.8700042 119.2127509 102.3362026
  95.5647943 118.7377956 103.2379293  95.1607723 120.3865208 101.7638854
  94.5181917 120.7231553 101.0611289  96.3426572 121.2225630 102.0956484
  97.2256723 120.5954533 102.2185996  96.6100717 122.2439186 100.9307282
  95.8235358 122.9785599 100.7582093  97.4545442 122.7255020 101.4237228
  97.0677476 121.6596084  99.5868977  96.2054661 121.2998992  98.5316911
  95.1416103 121.4825776  98.6831475  96.6592260 120.7278532  97.3207864
  95.9446595 120.3059267  96.6140512  98.0679182 120.5927152  97.0836747
  98.5880035 119.9982052  95.9646576  97.9129450 119.6832406  95.3591057
  98.9476401 121.2404021  98.0405368 100.0124108 121.3536518  97.8367272
  98.4089489 121.7230485  99.2401105  99.0587397 122.1892410  99.9807431
  96.1013532 122.0196609 103.3928035  94.9720745 122.2473527 103.8070222
  97.1146300 122.6382669 104.0464110  98.0579586 122.5947464 103.6881703
  96.8734306 123.3909135 105.2952953  97.8667858 123.6716753 105.6453201
  96.3339022 124.2840703 104.9802089  96.1123019 122.7290964 106.4401080
  95.4315315 123.4369438 107.1918883  96.2845622 121.3939667 106.6708746
  96.8007220 120.8810404 105.9704569  95.7556812 120.6426429 107.8570578
  95.1113575 121.2875615 108.4545744  94.9386392 119.4402977 107.3823061
  95.4891650 118.7815143 106.7107222  94.5162327 118.8549847 108.1990566
  93.4906935 120.0814247 106.4041284  92.9728127 118.8887444 106.1244655
  96.9252252 120.1872457 108.7075173  98.0622502 119.9590348 108.2671314
  96.7118079 120.1085000 110.0147886  95.7633161 120.2954999 110.3071814
  97.7122986 119.7963657 111.0488392  98.6728755 120.2796477 110.8704308
  97.0921386 120.3840490 112.3646416  96.9669168 121.4584705 112.2303392
  96.1169768 119.9212795 112.5163119  97.9883547 120.1189554 113.6033309
  97.3596376 120.6346274 114.3292083  98.0662201 119.0659737 113.8740126
  99.3345983 120.7149073 113.6393359 100.2103463 120.6297223 112.8265296
  99.7340165 121.2306897 114.7390811 100.6526927 121.6467806 114.7938894
  99.1289245 121.2195431 115.5476853  97.8611636 118.2703263 111.0514916
  98.8789980 117.7483262 111.4147147  96.8110450 117.5029812 110.4901303
  95.9809534 117.9925896 110.1879201  96.7975908 116.0172694 110.4743120
  97.8368624 115.7039919 110.5736640  95.9738598 115.4343610 111.6964770
  94.9291850 115.7320241 111.6061923  96.0425184 114.3465257 111.6957601
  96.3825665 115.8230812 112.6291906  96.3245781 115.4844550 109.0783089
  95.6940733 116.2609873 108.3713837  96.7081330 114.2476533 108.5701255
  97.1689634 113.1396688 109.4359405  96.3154176 112.7254247 109.9725611
  97.8962921 113.5228525 110.1516655  97.7934238 112.1305032 108.4433334
  97.5523117 111.1140153 108.7543258  98.8758847 112.2571473 108.4248660
  97.1814562 112.4576328 107.0782147  96.4397919 111.6593031 107.0517051
  97.7908732 112.4168228 106.1754163  96.5003589 113.7782273 107.1720103
  96.8134791 114.5036284 106.4211127  94.9861828 113.6246121 107.1278842
  94.3264798 113.0091478 107.9882426  94.2921415 114.1667426 106.1057750
  94.8884759 114.3723123 105.3169622  92.8464437 114.4302395 105.9769597
  92.3423435 113.6945320 106.6036309  92.5349435 115.8511808 106.5296480
  93.0253111 116.5994420 105.9069562  91.0272156 116.0842070 106.5119758
  90.5361674 115.3365575 107.1348655  90.8082935 117.0793869 106.8990020
  90.6585150 116.0033879 105.4894159  92.8881759 115.9783868 107.8791695
  92.6812398 116.8656123 108.1818389  92.5070509 114.4135311 104.4598561
  93.1448892 115.0844069 103.5810724  91.5457839 113.5635276 104.1462548
  91.1638102 112.9889065 104.8838225  91.0766147 113.3624901 102.8303721
  91.6446171 113.8380513 102.0308010  90.9081170 111.8598711 102.5180666
  90.3363391 111.7330395 101.5987821  92.2529525 111.2585352 102.3501775
  92.8251988 111.3845737 103.2692798  92.1514000 110.1960899 102.1288230
  92.7723219 111.7522413 101.5288318  89.9497793 111.1063151 103.5016076
  90.4506730 111.0080510 104.4647018  89.0432643 111.6992783 103.6229532
  89.5786641 109.6988732 102.9663528  90.4846919 109.1051298 102.8451827
  88.9128097 109.2045150 103.6737050  89.0772849 109.7963572 102.0034324
  89.7565651 114.0969528 102.5483813  88.9903787 114.3739435 103.5019029
  89.5674931 114.5256216 101.3109110  90.4172191 114.7318400 100.8054023
  88.3006872 114.8629064 100.6921874  87.4867769 114.7869567 101.4132151
  88.3727708 116.3010708 100.1880366  87.3952317 116.6520218  99.8573557
  88.7567896 116.9697575 100.9584181  89.4701941 116.4831704  98.7784314
  89.2867885 117.7917995  98.6275984  87.9786531 113.7605777  99.6488086
  88.8826201 113.1193913  99.1289735  86.7231436 113.5947673  99.2530237
  86.0264035 114.2857487  99.4921834  86.3003244 112.4173665  98.5430868
  86.8862428 112.3018767  97.6312420  86.5079585 111.1385474  99.4404807
  86.0330168 110.4185193  98.7740805  87.5394569 110.8377152  99.6238143
  85.8019393 111.0439954 100.7387833  86.4901983 111.4159049 101.9312463
  87.4559559 111.9200476 101.8958580  85.8868020 111.1137707 103.1927366
  86.3758687 111.4479597 104.1077406  84.6813792 110.3972477 103.2624535
  84.1985547 110.1484617 104.2074858  84.0758326 109.9834157 102.0042399
  83.1758287 109.3715860 102.0655383  84.6060243 110.3417835 100.7360517
  84.0755010 110.0639859  99.8252973  84.8263271 112.5453697  98.0961683
  84.0928418 113.4276240  98.4570057  84.4495667 111.6295097  97.1822362
  85.1970737 111.1795659  96.6734306  83.0815355 111.3728134  96.7664854
  82.4217032 112.0396249  97.3215375  82.7965674 111.5340111  95.2771737
  83.2472584 110.7001623  94.7389607  81.2529506 111.5548329  95.0093090
  80.8015965 112.3887499  95.5468617  81.0705877 111.6705900  93.9409249
  80.8112823 110.6196633  95.3535307  83.4272836 112.8017705  94.7716797
  84.5049967 112.7600260  94.9294576  83.2204367 112.9117297  93.7071502
  83.0143204 113.6539535  95.3114448  82.5860107 110.0479889  97.2618855
  83.2541642 109.0437807  97.0492574  81.3508083 109.9275070  97.7498692
  80.9153876 110.8210759  97.9288742  80.5954665 108.6724042  98.1297874
  80.8866439 107.8292024  97.5034284  80.9604613 108.3395548  99.6212022
  80.8798743 107.2609562  99.4861835  81.9440465 108.5823796 100.0233171
  79.8705785 108.8175704 100.6044999  79.8416392 110.1619337 100.9398011
  80.5384841 110.8337563 100.4386414  78.9478973 110.6647027 101.8952600
  78.7797147 111.7371582 101.9935240  78.2688613 109.7674368 102.7358432
  77.5522956 110.2290000 103.7874097  77.5757773 111.1854527 103.8664443
  78.3301811 108.3675528 102.4778010  77.7712946 107.6402958 103.0667353
  79.1424108 107.9385070 101.4276550  79.2364668 106.8743890 101.2110762
  79.1018251 108.8369442  97.9033302  78.6430642 109.8480369  97.4097109
  78.3063973 107.8124356  98.2603482  78.7390127 106.9281417  98.4861085
  76.8597341 107.8591798  98.1340570  76.5027550 108.8805515  98.2662121
  76.4472878 107.3718608  96.7363552  77.0951909 107.8903366  96.0295995
  76.6631606 106.3037701  96.7102544  74.9830849 107.6059673  96.3526757
  74.4265630 106.8761161  96.9406395  74.6473634 108.6106803  96.6094733
  74.7031110 107.3638245  94.8977229  75.5064486 107.4261515  93.9809890
  73.4717152 107.1399505  94.4788916  73.2969503 106.9784803  93.4973183
  72.7098344 107.1311316  95.1418858  76.1501510 107.1618792  99.3322079
  76.6822693 106.1560167  99.8858466  74.9801321 107.6688410  99.7599714
  74.6965736 108.6107115  99.5306813  74.1683115 106.9104758 100.7336327
  74.3850246 105.8446331 100.6621207  74.5161032 107.3962485 102.1830008
  73.7650774 106.7774437 102.6740609  75.5108729 107.0600915 102.4754589
  74.3209750 108.9063177 102.6168455  75.1718923 109.4094165 103.3908044
  73.2250548 109.5144755 102.3615967  72.7309879 107.0497436 100.2447244
  72.4929492 107.7679936  99.2838730  71.7018853 106.4219086 100.9378854
  71.8511800 105.4134036 101.9810626  71.8679626 105.9382838 102.9362168
  72.8110429 104.9227354 101.8197963  70.7051410 104.4698585 101.8672243
  70.4915415 103.9960760 102.8253499  70.9035401 103.7023087 101.1191558
  69.5635375 105.3739413 101.4279091  69.1284811 105.9763565 102.2253555
  68.7704544 104.8470382 100.8973511  70.3464898 106.2887847 100.4404571
  70.3386371 105.6894302  99.5300667  69.8194095 107.6587335 100.1401894
  68.9569343 107.8108885  99.3102939  70.1456089 108.7243212 100.9443889
  70.6209622 108.5451227 101.8173302  69.7414398 110.0954331 100.6448287
  68.6649868 110.1568975 100.4849211  70.1131973 110.9863911 101.8525700
  69.8738793 110.3800336 102.7261583  71.1938635 111.1097422 101.7815412
  69.4389087 112.3849937 101.9907434  69.8114132 112.9637938 102.8359248
  69.7203728 112.8787528 101.0606456  67.8990997 112.3281400 102.0724313
  67.2559515 111.2891483 102.2994064  67.3230390 113.4965662 102.0218345
  66.3162454 113.5622590 102.0682299  67.8862462 114.3306008 101.9364797
  70.2613028 110.7655237  99.3468383  69.6906353 111.7225890  98.9357717
  71.4272346 110.4008761  98.8608515  71.8633533 109.6329469  99.3509378
  72.1202014 110.9738535  97.7318644  71.7220660 110.4857559  96.8422869
  71.8603275 112.0322347  97.7120110  73.6675200 110.8331708  97.7360367
  74.1436895 110.3215495  98.6894507  74.3118108 111.1986991  96.6058126
  73.6246220 111.3937057  95.8917794  75.7413088 111.2756056  96.2416369
  76.2524452 110.4828984  96.7879464  76.0730792 111.1246457  94.7057614
  75.4916635 110.2871968  94.3201005  75.7627996 112.0423709  94.2061546
  77.5739356 110.8754464  94.4385033  78.0391041 111.8338468  94.6691280
  77.8527858 110.1447702  95.1977509  78.0589858 110.3868177  93.0481788
  77.7208516 111.0683776  92.2676403  79.1468810 110.3224110  93.0273162
  77.5097566 109.0686488  92.7847874  76.9819108 108.6193915  93.5193934
  77.6864443 108.4236958  91.6573664  78.5058245 108.7972332  90.7719964
  79.0601739 109.6284716  90.9197778  78.6028299 108.2629351  89.9204008
  76.9877250 107.3929186  91.4274822  76.3096811 107.0838421  92.1092654
  77.1118508 106.8848321  90.5634570  76.3106946 112.6102426  96.7811596
  75.8309301 113.6706688  96.4178440  77.3787874 112.5421094  97.5157518
  77.9431388 111.7084753  97.4341364  77.8308347 113.5850329  98.3853244
  77.3726453 114.5405159  98.1299542  77.4120157 113.2061840  99.8116635
  77.9561914 112.4479749 100.3747718  77.6131130 114.1888899 100.2382184
  75.8915463 112.9241390 100.0359236  74.7480414 113.5608994  99.4505497
  73.6276171 113.1622586 100.0855694  72.6400391 113.4916623  99.7626424
  74.0159113 112.3254849 101.1295197  73.4123949 111.8685890 101.7981857
  75.4216962 112.2162589 101.1018695  75.9380567 111.6322875 101.8637425
  79.3370343 113.6916014  98.3632087  80.0151259 112.6635282  98.4844858
  79.9209045 114.9083626  98.2989761  79.4270124 115.4973545  97.6437979
  81.3060917 115.3422936  98.7573714  82.0267163 114.5643670  98.5051223
  81.8278670 116.6796672  98.2336088  81.7742910 116.6645457  97.1450317
  81.0314691 117.8324753  98.7554949  81.0849511 117.8485304  99.8440641
  81.4360265 118.7635512  98.3585925  79.9920215 117.7269441  98.4448286
  83.3171401 116.7199252  98.6447948  83.8425295 115.8791702  98.1918059
  83.7638554 117.6535951  98.3030267  83.3968624 116.6554399  99.7299616
  81.5070614 115.0417400 100.2911151  80.6837263 115.6052692 101.0155543
  82.5994704 114.4216474 100.7490983  83.2683066 114.0210256 100.1070238
  82.7764556 114.1653444 102.2001521  82.3491649 114.9955715 102.7625087
  82.0758138 112.8433433 102.6515512  81.0543840 112.8699027 102.2719791
  82.6132813 112.0154340 102.1891716  82.0502372 112.6467983 104.1981387
  83.0104086 112.2513697 104.5295114  81.8660186 113.6056385 104.6826911
  80.9249209 111.6530740 104.5765794  79.9793083 112.0832429 104.2466241
  81.1089049 110.7241550 104.0368029  80.8576305 111.3650307 106.0800737
  81.5464690 110.5528200 106.3122716  81.1579625 112.2616510 106.6222656
  79.4844495 110.9792655 106.4856217  79.2061266 110.1482082 105.9836458
  79.4659198 110.7949411 107.4784868  78.8460669 111.7319129 106.2709391
  84.3455819 114.2345523 102.5356918  85.1549000 114.0521671 101.6466019
  84.6355207 114.4856060 103.8575607  83.8846498 114.6771295 104.5053346
  86.0374707 114.5760526 104.3544075  86.6922199 114.0864880 103.6334851
  86.5184296 116.0072349 104.5552200  87.5268859 115.9249300 104.9606111
  86.5369651 116.8755282 103.3677351  85.5287061 116.9586925 102.9620293
  86.8987379 117.8652821 103.6463149  87.1972029 116.4468395 102.6138036
  85.6509553 116.5913649 105.4962425  85.9167580 117.4999554 105.6556557
  86.2337432 113.7991003 105.6400521  85.3363262 113.5941090 106.4427995
  87.4414664 113.3573206 105.8976205  88.1073784 113.5133168 105.1544343
  87.9078253 112.7386953 107.1157379  87.3728163 113.1282830 107.9818130
  87.6543435 111.2943968 107.0177998  88.0740802 111.1258856 106.0260719
  88.3052768 110.8458769 107.7682768  86.2529942 110.6489536 107.1000277
  85.2625053 111.2106215 107.9477557  85.5156245 112.0676923 108.5718229
  83.9817481 110.6783619 107.9865091  83.1810295 111.2150921 108.4953039
  83.6874394 109.5725809 107.2063818  82.4762840 108.9685738 107.3195188
  81.9061050 109.3897306 107.9669155  84.6694920 108.9179316 106.4350822
  84.4640753 108.0186347 105.8544193  85.9833888 109.4843727 106.4359190
  86.7918262 108.9865825 105.9004437  89.3920147 112.8831103 107.3484009
  90.1933709 112.8141534 106.4447294  89.7374065 112.8832209 108.6619326
  88.9646919 113.0097883 109.2998920  91.1016936 112.8040232 109.2216947
  91.8483970 113.1530503 108.5084533  91.1330852 113.7459220 110.4852671
  91.0124158 114.7615019 110.1082583  90.2639695 113.4759426 111.0851412
  92.3776276 113.6705916 111.3396497  92.3885224 112.6086469 111.5851199
  93.2844288 113.9255132 110.7911738  92.3133205 114.5056961 112.6522193
  92.0858382 115.7571228 112.6147358  92.6641387 113.8624751 113.7202921
  91.4345605 111.3226604 109.5157099  90.6569818 110.6084757 110.0948822
  92.6253798 110.8734904 109.1927770  93.1865531 111.4754925 108.6073052
  93.1127019 109.5479617 109.4747378  92.2429730 108.9039474 109.3446750
  94.2425384 109.0597523 108.5156226  95.1178138 109.6993885 108.6290146
  94.6210798 107.6020754 108.8655289  93.7463606 106.9617168 108.7519152
  95.4103294 107.2603589 108.1958906  94.9737932 107.5550521 109.8958122
  93.6314580 109.0572924 107.1269240  93.3038900 110.0651084 106.8717607
  94.3746472 108.7231500 106.4029638  92.7761920 108.3818504 107.1069502
  93.5322168 109.3728279 110.9752272  94.5449560 109.9102001 111.4049289
  92.7421038 108.6058037 111.7650957  91.8818341 108.3735139 111.2896204
  92.8920412 108.2060845 113.1119708  93.4104499 108.9969487 113.6540829
  91.5354965 107.9311625 113.8133210  90.8903145 108.7895984 113.6264326
  91.1019414 107.0440946 113.3515412  91.6518828 107.7307061 115.1757749
  90.7833871 107.5664134 115.5503719  93.8396648 107.0104313 113.2070281
  93.3659182 105.8934011 113.4544014  95.1358902 107.1218345 112.9397563
  95.4370704 108.0805124 113.0413762  96.0438650 106.1953212 112.4415197
  95.5844462 105.6692258 111.6047060  97.2940647 106.8229355 111.9744361
  96.9264690 107.5547011 111.2550671  97.7477128 107.3410073 112.8193651
  98.3586465 105.9128782 111.2912198  98.5158077 105.0511585 111.9399419
  97.9448272 105.4278411 109.8809519  97.7879271 106.2890485 109.2314883
  98.7332191 104.7996211 109.4663696  97.0214778 104.8527696 109.9503718
  99.7379041 106.5025778 111.1583106 100.1296861 106.7383981 112.1477524
 100.3954585 105.7836264 110.6696058  99.6883154 107.4131498 110.5612357
  96.3797180 105.0069611 113.3519937  96.4455644 103.8524142 112.8625056
  96.5567100 105.2986377 114.6105002  96.6327705 106.2790643 114.8408861
  96.6976541 104.3255057 115.6822609  97.5580851 103.6822526 115.4979156
  96.9067056 105.0496507 117.0008361  97.5958048 105.8753466 116.8234444
  95.9428101 105.4441986 117.3222976  97.4836763 104.1216907 118.1106667
  96.7952095 103.2993172 118.3051305  98.4482351 103.7212774 117.7985808
  97.6643391 104.9527021 119.3924635  98.2780491 104.3896279 120.0956038
  98.1658639 105.8871123 119.1405707  96.3721584 105.2677598 120.0382597
  95.5986887 104.8346654 119.5542418  96.1222687 105.9898095 121.0691065
  97.1109743 106.5711047 121.6993654  98.0578762 106.4470545 121.3705976
  96.9225031 107.1410612 122.5116017  94.8889538 106.1074095 121.4610932
  94.1540693 105.6344822 120.9547487  94.6710354 106.6711901 122.2702667
  95.5262952 103.3688950 115.8416134  95.6477800 102.1486028 115.9936577
  94.3450235 103.9085537 115.9232132  94.2403570 104.9129983 115.9385467
  93.1386442 103.0846610 115.9907263  93.2990237 102.2196494 116.6342575
  91.9988716 103.9271156 116.5770136  92.0993822 104.9377190 116.1811884
  91.0593574 103.4945318 116.2330887  92.0082773 103.9763332 118.1340875
  91.3390296 104.8185801 118.3096681  91.5918538 103.0800594 118.5938524
  93.3987023 104.2807091 118.7591352  94.0342386 103.3296144 119.2323176
  93.6794609 105.5104994 118.8682192  92.6832239 102.5661068 114.6160809
  91.7076143 101.7627758 114.5336720  93.3172461 102.9567072 113.5098349
  93.9313068 103.7506091 113.6227441  92.9637206 102.5366685 112.1442532
  93.4176357 103.1975012 111.4057681  93.5074294 101.0812890 111.9166914
  92.8669461 100.4447086 112.5271386  93.3239677 100.8757924 110.8620763
  94.9917268 100.7894381 112.2485366  95.3716623 100.2019811 111.4126873
  95.4874944 101.7600308 112.2648613  95.2761990 100.0415898 113.5771785
  96.1107560 100.5088225 114.0999665  94.3925499 100.0597708 114.2150915
  95.6377699  98.5707123 113.2362739  96.3760663  98.5286119 112.4354952
  96.0247101  98.0531956 114.1140854  94.4568912  97.9525019 112.8140048
  94.0984091  98.4316295 112.0003544  94.6465186  96.9883074 112.5806156
  93.7727790  97.9910265 113.5560328  91.5475532 102.7912388 111.5953471
  90.9614371 101.9753803 110.9355624  90.9688745 103.9950660 111.9356722
  91.4843752 104.5671007 112.5892275  89.5902101 104.4053559 111.5780615
  89.3225801 103.9501758 110.6244974  88.5793097 103.9815002 112.6153593
  87.6145869 104.1244688 112.1285644  88.7619381 102.9157358 112.7528115
  88.5705703 104.6773811 113.9788602  89.6234756 104.5580978 114.2343259
  88.3210303 105.7381550 113.9546180  87.7375634 103.9986248 114.9941214
  86.9375570 104.6956587 115.5989226  88.0326964 102.8087323 115.3176538
  89.5849165 105.9019619 111.2160070  90.6593688 106.5330868 111.1364986
  88.3968125 106.5133827 110.8372531  87.5290589 105.9967020 110.8252545
  88.3714802 107.9197702 110.4397576  89.3638480 108.2746029 110.1615505
  87.4742657 108.0202733 109.2437060  86.6344620 107.3626963 109.4682531
  87.1036037 109.0239312 109.0354261  88.1064135 107.4987712 107.9273115
  89.2253887 108.2159098 107.4090955  89.7219986 109.0327329 107.9328114
  89.6601763 107.8317709 106.2057377  90.4356758 108.4340003 105.7324292
  89.1502213 106.6879416 105.5451596  89.6495230 106.2546009 104.6785492
  87.9470914 106.1008605 106.0439843  87.4208888 105.3685156 105.4317082
  87.4518552 106.4478026 107.2771142  86.5976355 105.9124886 107.6916592
  87.8388323 108.7827854 111.5881355  87.2094534 108.4255693 112.5678354
  88.1310703 110.0722971 111.4507249  88.7613291 110.3091801 110.6978905
  87.6405775 111.1728445 112.3381748  86.8373085 110.7988744 112.9730011
  88.7558638 111.6945778 113.2243822  89.6723972 111.3966415 112.7151674
  88.7362431 112.7791626 113.3311102  88.7450445 111.0722719 114.6047446
  87.7284595 111.0215855 115.2783140  89.8269256 110.6620307 115.1572927
  89.7949289 110.2501917 116.0789568  90.7059636 110.7526770 114.6682363
  87.0566783 112.3288277 111.4846553  87.2459409 112.3426718 110.2570479
  86.4431808 113.3802428 112.0340359  86.1826791 113.2753080 113.0042044
  86.0172338 114.6138346 111.3185238  85.2753090 114.3780847 110.5555895
  85.3752285 115.6045266 112.3534618  84.6630586 115.0305176 112.9462746
  86.1797253 115.9601752 112.9972000  84.6808598 116.7712023 111.7352638
  85.3192878 117.1922261 110.9585724  83.7451411 116.4315935 111.2911935
  84.3924248 117.8192134 112.7668058  83.6050731 118.4717848 112.3895437
  84.0504716 117.3269387 113.6772086  85.6679349 118.6694218 113.0815210
  85.5172336 119.0467213 114.0929728  86.4933871 117.9575779 113.0790558
  85.9780794 119.7671157 112.2009783  85.2135061 120.4270561 112.2034490
  86.8199194 120.2259612 112.5185728  86.1181807 119.4176632 111.2637731
  87.1767614 115.2137102 110.5360847  88.2058815 115.2633071 111.1833914
  87.0228277 115.7430123 109.3142428  86.1717506 115.4982598 108.8285852
  87.9661604 116.6231339 108.6488118  88.9774149 116.4122720 108.9966633
  87.9147226 116.4729623 107.5704324  87.6198675 118.1003122 108.9696943
  87.2669126 118.4573027 110.0789651  87.7723140 119.0064183 108.0081675
  88.3386863 118.8501003 106.6914250  87.5737489 118.3713277 106.0800759
  89.1906781 118.1786613 106.7980962  88.7344075 120.1956198 106.1676359
  88.0548960 120.4952100 105.3697581  89.7527816 120.1558727 105.7810667
  88.6436012 121.1222975 107.3396169  88.3418368 122.1554143 107.1672600
  89.6097316 121.1058529 107.8440189  87.6185168 120.4262496 108.1775980
  87.8787183 120.6119351 109.2196701  86.2543389 121.0584268 107.8713503
  85.9003231 122.0792349 108.4933766  85.5353790 120.5109434 106.8212153
  85.9439325 119.8587409 106.1671394  84.1672414 121.0021907 106.5582465
  83.7571364 121.5024704 107.4355340  84.2361809 122.0136850 105.4035930
  83.2637956 122.1463898 104.9292982  84.5306537 122.9418566 105.8933718
  85.2392194 121.7754544 104.2820990  86.3703596 122.4774182 104.1008737
  86.5274044 123.3248550 104.7681725  87.0895322 121.9603482 103.0961601
  88.0369836 122.2505206 102.9006219  86.4121627 120.9737610 102.4415250
  86.5963752 120.1768108 101.2885453  87.4473038 120.4870669 100.6821128
  85.7593628 119.0985568 100.9710085  85.9115499 118.4374163 100.1178776
  84.6635959 118.8749468 101.8176722  83.9410534 118.0859152 101.6091992
  84.4661387 119.6633268 102.9605955  83.6073838 119.3607317 103.5598256
  85.2921889 120.7789710 103.2935206  83.0811944 119.9558351 106.3043512
  83.4200542 118.7983369 105.8714759  81.8547644 120.3158102 106.5632517
  81.7228474 121.2639517 106.8853151  80.6480743 119.4093127 106.4912573
  80.7560253 118.5570585 107.1621586  79.3838817 120.2508741 106.9413688
  79.7101650 120.9153702 107.7414209  79.0717182 120.8439628 106.0817760
  78.2253824 119.4167248 107.4229197  78.0430704 118.6479172 106.6720548
  78.5292309 118.9459313 108.3578698  76.9130443 120.2405242 107.6557467
  76.6553638 120.6502362 106.6791016  76.1630569 119.5066009 107.9506619
  76.9555349 121.4001596 108.7151684  77.1144020 120.9779125 109.7074230
  77.7731532 122.0797745 108.4749117  75.6828952 122.1379530 108.6945550
  74.9251871 121.5084785 108.9175800  75.7141497 122.8822060 109.3766186
  75.5357014 122.5296572 107.7753158  80.4752231 118.8040865 105.0783536
  80.6845436 119.4714622 104.0464909  79.9032938 117.5943733 105.0000354
  79.9521092 117.0473147 105.8476457  79.4235996 116.9464827 103.7864735
  80.2189275 116.9402717 103.0411453  78.9657796 115.3984062 104.0774185
  78.7008161 114.9534425 103.1183038  79.8288977 114.8781278 104.4926743
  77.7547482 115.2710608 105.0644539  78.1213845 115.5796091 106.0434721
  76.9200164 115.9082217 104.7723054  77.2724057 113.8712341 105.1584379
  77.7179864 113.0498192 105.8970747  76.3301135 113.4590420 104.3353710
  75.9952838 112.5078245 104.3917263  75.9468332 114.0961333 103.6517686
  78.3951661 117.7409033 103.0146274  77.4523330 118.3449971 103.4994258
  78.4876474 117.7064942 101.6592779  79.2937392 117.2228130 101.2899978
  77.6153481 118.4585119 100.7074926  76.6917485 118.7145219 101.2266476
  78.2462993 119.7452663 100.1680998  78.5770099 120.3237002 101.0307376
  79.1121838 119.4510487  99.5749894  77.3136906 120.5930910  99.3170161
  77.8161525 121.3577414  98.7246120  76.9208285 119.8212829  98.6551470
  76.1704081 121.2242224 100.0929880  75.1081981 120.5851192 100.0150083
  76.3882887 122.1752799 100.8629988  77.0624444 117.5367233  99.5403661
  77.8427530 116.8012738  98.9380625  75.8104613 117.5714024  99.2440275
  75.2342943 118.1474327  99.8409530  75.1688593 116.8124615  98.2021097
  75.4639686 115.7648606  98.2616256  73.6401215 116.9031349  98.3652420
  73.3286370 116.6174784  99.3699693  73.4088481 117.9552757  98.1990727
  72.8809266 116.0907381  97.3850361  72.3168804 116.5797618  96.3995592
  72.8821291 114.7719620  97.5308274  72.3730932 114.1942375  96.8772093
  73.3920763 114.3518768  98.2947535  75.6080923 117.2763685  96.8364946
  75.6502610 118.4973448  96.5478813  75.9980866 116.3566393  95.9929404
  76.0847899 115.4169536  96.3529023  76.4361263 116.6193260  94.6014998
  76.2808264 117.6566339  94.3048965  77.9811559 116.2832199  94.4793966
  78.2513740 116.4538053  93.4372919  78.8983283 117.0889277  95.3770652
  78.6290016 116.9184861  96.4194249  79.9307545 116.7797900  95.2138770
  78.7959092 118.1488984  95.1445266  78.3397590 114.8295669  94.7571692
  77.8203524 114.1848103  94.0482209  79.4159375 114.6934773  94.6503088
  78.0400355 114.5684119  95.7720903  75.5855702 115.8872392  93.5702601
  74.7775766 114.9791267  93.9316437  75.7568421 116.2550662  92.2401912
  76.4221185 116.9795310  92.0107188  75.0036075 115.6428464  91.1576150
  73.9748984 116.0027606  91.1397686  75.6874265 116.0382691  89.8320198
  75.7406865 117.1269537  89.8266747  76.6956332 115.6258874  89.8715256
  74.9658260 115.5399035  88.5167840  75.0170065 114.4536986  88.4416826
  73.9223909 115.8515748  88.5637230  75.6310401 116.1680041  87.2888715
  75.8272304 115.3724906  86.3565510  75.9093016 117.3896390  87.2600307
  75.0148476 114.1014838  91.3630346  76.0232963 113.4652491  91.8230429
  73.8910543 113.4133313  91.0310891  73.1087574 113.9003762  90.6176910
  73.7593875 111.9877680  91.2847702  73.8622218 111.7415311  92.3416012
  72.2719612 111.6828124  90.8366954  72.1557771 111.9158429  89.7782541
  72.0509552 110.6284010  91.0024458  71.5835681 112.2939262  91.4204370
  74.7988387 111.1017547  90.5137283  74.9032690 109.9577902  90.7991939
  75.5013029 111.6665278  89.5348461  75.3622389 112.6573187  89.3966658
  76.4527053 110.9841887  88.6892912  76.4494199 109.9146647  88.8995452
  76.0802521 111.1888437  87.2697135  76.1907262 112.2592069  87.0958819
  76.8326095 110.6484258  86.6952512  74.6774536 110.7399888  86.8268462
  74.1398788 111.4092706  87.4985426  74.4096645 110.9691726  85.7954088
  74.2926734 109.2628398  87.1475984  75.2175334 108.4344620  87.1376386
  73.0596279 109.0142288  87.1224298  77.8955665 111.4131627  88.7547652
  78.7097490 110.8131821  88.0605173  78.1587744 112.4210585  89.5737540
  77.3568482 112.8835916  89.9775817  79.5314634 112.9841404  89.8624766
  79.9235954 113.4642356  88.9659052  79.3842236 114.0424615  90.9598033
  79.0010439 113.5751519  91.8669390  80.3561335 114.4910113  91.1654595
  78.6905583 114.8154637  90.6290537  80.5138039 111.8937048  90.2169159
  80.2853257 110.8914649  90.9155159  81.7431925 112.0424781  89.7030324
  82.0152841 112.8968264  89.2381083  82.7532649 110.9034429  89.7705117
  82.4394328 110.2057032  90.5468931  82.8795786 110.1360701  88.4408659
  83.2494889 110.8312270  87.6871932  83.6057983 109.3359363  88.5840120
  81.6396381 109.5803106  88.0068671  81.7705812 109.1142933  87.1778426
  84.1764284 111.3549560  90.1594328  85.0630244 110.4829540  90.2241175
  84.4951345 112.5978575  90.3202284  83.7807837 113.3094274  90.2613168
  85.8934889 113.0237792  90.5891178  86.3796725 112.2369081  91.1657968
  86.7224124 113.2889081  89.3251524  86.1882509 114.0640650  88.7756958
  87.6774858 113.6830330  89.6724279  86.9662147 112.1060019  88.4176314
  87.6397582 111.4355330  88.9514024  86.0029009 111.6158523  88.2766287
  87.6800258 112.5007680  86.7915715  86.1082487 112.9387340  86.0601232
  85.6689689 113.7696530  86.6121249  86.2595923 113.2327833  85.0215036
  85.4366898 112.0811201  86.1002278  85.9736626 114.3489156  91.4235629
  85.0927312 115.1589818  91.2624994  87.0367074 114.5482390  92.1954172
  87.7130810 113.8108581  92.0579855  87.2796341 115.5155721  93.2447304
  86.8532496 116.4749148  92.9515461  86.6241645 115.0683399  94.5855928
  85.5464925 115.0110803  94.4324803  87.1353691 113.7334093  95.0534306
  88.2129808 113.7900170  95.2072152  86.6486078 113.4657199  95.9912505
  86.9155161 112.9756909  94.3013473  87.0090767 116.1727828  95.5980544
  86.6185317 117.1314533  95.2566933  86.5857073 115.9353001  96.5739950
  88.0945945 116.2309129  95.6778846  88.7473120 115.8287917  93.3418598
  89.6183152 115.0463977  93.0847180  89.1034753 117.1118894  93.4946412
  88.2889577 117.6771209  93.6874460  90.3742525 117.7842684  93.2829978
  91.2420081 117.1602277  93.4967091  90.4588937 118.3072879  91.8149455
  89.5723009 118.8973166  91.5827393  91.6797281 119.1636066  91.6719236
  92.5668250 118.5741022  91.9035358  91.7468732 119.5335260  90.6488146
  91.6150424 120.0071433  92.3592087  90.4180756 117.2196039  90.7282991
  91.1156817 117.5112464  89.9431933  90.7522875 116.2867937  91.1824654
  89.0469581 117.0257913  90.1347475  88.7122463 117.9581171  89.6799548
  89.0863807 116.2451718  89.3750249  88.3488512 116.7336664  90.9192280
  90.5241678 118.8400381  94.4401018  89.6088662 119.6360415  94.5784225
  91.5633881 118.7388518  95.2597813  92.2303545 118.0209743  95.0150222
  91.7888299 119.5135926  96.5056969  90.8606339 119.8687458  96.9533770
  92.4717686 118.6344796  97.4721233  93.4075902 118.2780850  97.0416342
  92.6813581 119.1912235  98.3854737  91.8320356 117.7831974  97.7048450
  92.5763845 120.7585237  96.1477074  93.6730254 120.7123381  95.6068779
  91.9288147 121.9171166  96.3199912  90.9725037 121.8739704  96.6420268
  92.4860526 123.2231906  95.9780574  93.1114736 123.1059574  95.0930692
  91.3808929 124.2339816  95.6653093  90.7991506 124.3821561  96.5751002
  91.9063252 125.5375316  95.1978724  92.4878346 125.3902186  94.2877919
  91.0752748 126.2121832  94.9922006  92.5430914 125.9708574  95.9691435
  90.4896517 123.7481319  94.5707845  90.0237110 122.8094619  94.8706174
  89.7162173 124.4907289  94.3747017  91.0773279 123.5889346  93.6666862
  93.4494959 123.8519627  97.0292115  93.0412569 123.9689888  98.2164165
  94.6493596 124.3678563  96.6749055  95.3296138 124.3997502  95.3535565
  95.0061760 125.3013441  94.8333482  95.0094454 123.5221859  94.7918875
  96.7998625 124.3934062  95.6326239  97.3535176 124.8162142  94.7942932
  97.1512400 123.3797191  95.8251695  96.9288016 125.2522574  96.8678309
  97.0537110 126.3219812  96.6999396  97.7666693 124.8769429  97.4553821
  95.5515496 124.9792645  97.6425399  95.7910737 124.2071810  98.3737125
  95.0010851 126.2089448  98.3631932  94.2838111 127.0146338  97.7735412
  95.4303136 126.4330946  99.6398896  96.0154900 125.7081142 100.0298530
  95.2575436 127.7150288 100.4246553  94.2100305 127.9435354 100.6211247
  95.9984520 127.4518029 101.8285114  97.0514818 127.3316823 101.5739558
  95.8650409 128.3731797 102.3954032  95.5389380 126.2603767 102.6754084
  95.4601342 125.4106679 101.9972596  96.2594758 126.0321516 103.4607986
  94.1611427 126.5419915 103.3083319  93.1820621 125.7395624 103.3341364
  93.9345503 127.6793021 103.8084343  96.0923916 128.9290559  99.7925595
  97.1522077 128.6294676  99.2417287  95.5901033 130.2042126  99.9714888
  96.4056402 131.2798570  99.3768540  96.7331117 130.9708297  98.3841985
  97.2768302 131.4561854 100.0077544  95.4608737 132.4845434  99.3359653
  94.9141202 132.5108962  98.3933809  96.0188382 133.4129433  99.4578288
  94.5081577 132.2495844 100.5368897  93.5180598 132.6659672 100.3513350
  94.9316684 132.7056328 101.4317405  94.4105082 130.7592128 100.7174701
  94.5669560 130.5711523 101.7796639  93.1258811 130.1483673 100.2913222
  92.2622634 129.9799737 101.1536029  92.8300691 129.8206899  99.0514368
  93.5194193 129.8839775  98.3159843  91.4691757 129.3900830  98.6964328
  90.7871746 130.1861602  98.9951551  91.2434158 129.0819595  97.1895149
  92.1766704 128.5214118  97.1354636  90.4159038 128.4385649  96.8905715
  91.3374476 130.1923663  96.1377774  91.0461203 131.4970268  96.4611954
  90.8560105 131.7519508  97.5037749  90.9914838 132.4936871  95.4734849
  90.7955374 133.5355364  95.7269719  91.2040231 132.1087731  94.0817150
  91.2954047 132.8441349  93.2823450  91.2879283 130.7747215  93.7959962
  91.3397197 130.5071088  92.7406284  91.3092550 129.7683656  94.7786624
  91.3038339 128.7189065  94.4842034  90.8700233 128.0595677  99.4301162
  89.9179837 128.1842186 100.1809948  91.6062813 126.9195528  99.3265584
  92.4508635 126.8569618  98.7762289  91.1600638 125.7367816 100.0386879
  91.9342944 124.9726415  99.9697247  90.9991611 125.9968661 101.0849028
  89.8343853 125.1702435  99.4473714  89.3107771 125.5005935  98.3902256
  89.4446707 124.1075550 100.1503044  89.8895000 123.8522319 101.0203827
  88.3354577 123.2695959  99.6603259  88.0037575 122.6813615 100.5159277
  87.5451345 123.9604385  99.3666846  88.6377225 122.3071579  98.4685340
  89.8089834 121.9314642  98.2946940  87.6247436 121.9223421  97.6968375
  86.7117965 122.3059915  97.8954328  87.7586819 121.0175692  96.5801448
  88.7814766 121.0500514  96.2047315  87.4334911 119.5765017  96.9925335
  86.4093157 119.5261339  97.3621658  87.5408316 118.9182937  96.1303615
  88.1188955 119.2595099  97.7785590  86.7606587 121.3780034  95.4111941
  85.5901695 121.6430226  95.6301070  87.2995589 121.2988007  94.2130792
  88.3079051 121.2416112  94.2049128  86.6025421 121.1906529  92.9649828
  85.8446635 121.9713272  92.8996617  87.6405457 121.3755434  91.8127324
  88.4439848 120.6473712  91.9238687  86.9213617 121.1574018  90.4240551
  86.1180406 121.8855616  90.3119873  87.6424430 121.2855592  89.6167645
  86.5064328 120.1502858  90.3834299  88.1724426 122.7993826  91.9099572
  87.3746997 123.4719320  91.5947042  88.4158981 122.9900793  92.9551670
  89.4008062 123.0367565  91.0539306  89.1579873 122.8466938  90.0084570
  89.7297413 124.0696569  91.1680255  90.1991854 122.3648390  91.3689187
  86.0927193 119.7655032  92.8979743  86.7262896 118.8200787  93.2963236
  84.8693285 119.6353760  92.4255011  84.3407112 120.4958649  92.4106029
  84.1639919 118.3712799  92.1033590  84.7826648 117.5148059  91.8354124
  83.1277334 117.9447771  93.1758130  82.2648836 118.6090662  93.1277442
  82.6829468 116.5224668  92.9222858  83.5452434 115.8574815  92.9706564
  81.9552082 116.2285188  93.6786533  82.2272123 116.4543574  91.9344769
  83.4736086 118.2606919  94.6988738  83.4000420 117.3313992  95.2637665
  84.4970050 118.6330664  94.7446617  82.5313325 119.2936224  95.2977724
  81.5077254 118.9217326  95.2527575  82.8053665 119.4770107  96.3367013
  82.6046869 120.2233997  94.7336508  83.5692785 118.4050880  90.6512589
  83.2854166 119.4528015  90.1412001  83.4060136 117.2938022  89.9667464
  83.5206000 116.4306459  90.4785380  83.1517121 117.2163142  88.4793633
  82.8545476 118.1824024  88.0713609  84.3549780 116.6988224  87.7234418
  84.8067408 115.9239724  88.3428110  84.0395552 116.1186918  86.3168267
  83.5881617 116.8931441  85.6966912  84.9620924 115.7725563  85.8507621
  83.3468391 115.2828581  86.4149370  85.4537886 117.8902045  87.6176728
  84.9731785 118.6404819  86.9898205  85.5353728 118.2681847  88.6367776
  86.8723054 117.5841860  87.0642806  86.7915579 117.2065739  86.0449726
  87.4685774 118.4966286  87.0670019  87.3537514 116.8342745  87.6919288
  81.8801430 116.3211506  88.3538875  81.9198650 115.1522824  88.7104983
  80.8300883 116.8610127  87.7270192  80.9554138 117.8272645  87.4610296
  79.5582334 116.2092383  87.3994750  79.3063883 115.5114359  88.1980644
  78.7827118 116.9716350  87.3258750  79.6308578 115.4636236  86.1075789
  80.5980617 114.8091245  85.6739114  78.4390526 115.3836706  85.4547896
  77.5501237 115.6038040  85.8807544  78.4544200 114.9623379  83.9753733
  79.4533572 115.0309106  83.5446512  78.0082916 113.5067178  83.9404362
  78.7734212 112.9169059  84.4452112  77.0722210 113.4371170  84.4945370
  77.7984813 112.9577490  82.4939598  77.3074323 111.9865128  82.4333640
  77.1596233 113.7161620  82.0414423  79.1171796 112.8917589  81.7053939
  79.9551097 111.9895903  81.8007153  79.3345538 113.7775105  80.7358618
  80.1964843 113.7451131  80.2103834  78.6365635 114.4779286  80.5301304
  77.4601357 115.8420099  83.1957799  77.6983858 115.9793888  82.0136624
  76.5862842 116.5513016  83.8883857  76.3659041 116.3134953  84.8449316
  75.9904601 117.7738558  83.3165187  76.0955927 117.8197270  82.2325713
  74.4901456 117.6889475  83.6629464  74.4415450 117.6940447  84.7518501
  74.0490228 118.6074310  83.2757788  73.7439272 116.5291314  83.1436943
  73.8175585 116.5611235  82.0566544  74.1742609 115.5967614  83.5092053
  72.2833264 116.6077148  83.5545446  71.7400344 115.6277874  84.1530478
  71.6132264 117.5853702  83.2797579  76.4985708 119.0602479  83.9684105
  75.9554763 120.1352206  83.6616874  77.4732489 119.0788373  84.8441086
  77.9171883 118.1870699  85.0107461  77.8367348 120.2419819  85.7452687
  77.9822759 121.1372021  85.1407045  76.6855494 120.5288307  86.8121202
  76.7748280 121.5450855  87.1959883  75.7063581 120.3999012  86.3509677
  76.8308850 119.6020507  87.8843377  76.1456178 119.7590266  88.5380710
  79.2442032 120.1427991  86.3810371  79.9173085 119.1094327  86.3299277
  79.7024942 121.2950993  86.9458233  79.2312064 122.1457095  86.6729691
  80.9330091 121.4049223  87.7419352  81.1781679 120.4823286  88.2680695
  82.2414833 121.9344346  86.9406300  81.9376305 122.8210717  86.3841692
  83.4818528 122.2927097  87.8734913  83.7865913 121.4063844  88.4299647
  84.3124320 122.6379158  87.2578033  83.1965490 123.0793501  88.5719881
  82.7075215 121.0347233  85.7735288  82.8772945 120.0559838  86.2222458
  81.8525081 120.9814851  85.0995724  83.9490691 121.4571953  84.9885085
  84.8046534 121.5102068  85.6617582  84.1493403 120.7273814  84.2040582
  83.7798676 122.4357097  84.5390865  80.6801596 122.1856684  89.0448629
  79.8807903 123.1543656  89.0697747  81.3452464 121.7443625  90.1101697
  82.0205796 120.9967775  90.0384681  81.0452493 122.2851783  91.4400141
  80.5000805 123.1926393  91.1803902  80.1089981 121.3603950  92.2390871
  80.6030413 120.3890716  92.2625903  79.7565250 121.8035842  93.7038400
  79.2620023 122.7746817  93.6811084  79.0913151 121.0681848  94.1563690
  80.6712624 121.8759394  94.2921602  78.8697530 121.5540892  91.5518061
  78.1880649 121.0184618  91.9641227  82.3037189 122.5446732  92.2134581
  83.2161284 121.7685321  92.0883709  82.3212741 123.5281604  93.0590737
  81.6039140 124.2362337  92.9948387  83.3277504 123.6695021  94.0716832
  83.9911348 122.8046344  94.0765963  84.1677903 124.9362214  93.7696898
  84.8313632 124.5123000  93.0159916  83.5402832 125.7008806  93.3118348
  84.9844814 125.5508077  94.8646224  86.3018407 125.1746464  95.0630793
  86.7297496 124.3904449  94.4385624  87.1154886 125.8131270  96.0919378
  88.1957408 125.6677732  96.0973501  86.5167194 126.6804978  97.0268631
  87.2222979 127.2104488  98.0757540  88.1394110 126.9271909  98.0921292
  85.0567892 126.9457130  96.8999149  84.5392187 127.5543531  97.6413854
  84.3353086 126.3968637  95.7980810  83.2777090 126.6274592  95.6699837
  82.6655499 123.7844221  95.4753349  81.6925913 124.4807074  95.5990623
  83.3959689 123.2587313  96.5110970  84.2584367 122.7942910  96.2650404
  82.9756549 123.2680895  97.9645648  82.3511512 124.1327728  98.1891027
  82.1524601 121.9834736  98.2218374  81.2709579 121.9994926  97.5809033
  82.7349416 121.0856098  98.0153046  81.6540729 121.8574897  99.6364198
  80.8181278 122.8672072 100.2900712  80.7058658 122.3547779 101.5314102
  80.1254190 122.9468377 102.2389733  81.3366234 121.1924025 101.6768418
  81.4222686 120.6537388 102.5269042  81.8757748 120.8259937 100.4337869
  82.3493189 119.8519532 100.3108959  84.1264731 123.3655509  98.9641776
  85.2026984 122.8921811  98.7133529  83.8750694 124.0555042 100.1228154
  82.9193977 124.3690842 100.2147857  84.8534159 124.5198645 101.1025365
  85.5575591 123.7410406 101.3953075  85.6469757 125.6632365 100.3573163
  85.9520942 125.3045799  99.3742764  85.0109298 126.5408726 100.2419887
  86.9032349 126.0673114 101.1442053  87.4091951 125.3783120 102.0166347
  87.3935535 127.2188174 100.8162914  88.2199590 127.5638830 101.2832855
  86.9475992 127.7672344 100.0948592  84.1381509 124.8308464 102.4343486
  84.5210431 125.7745924 103.1304900  83.0124364 124.2053652 102.7316856
  82.6729977 123.5353012 102.0564858  82.2310320 124.4144687 103.9599922
  81.8393475 123.4324834 104.2252981  82.9527909 124.7325587 104.7123100
  81.1058538 125.3918584 103.9233248  80.0838958 125.1896293 103.1957925
  81.3113557 126.5763328 104.5335913  82.0576634 126.6314469 105.2118881
  80.4001876 127.7111811 104.4130046  79.4264565 127.3497178 104.0824124
  80.2200533 128.4603809 105.7529502  80.9304926 129.2710608 105.9147317
  79.2305051 128.8771772 105.5653997  80.1716614 127.5853848 106.9750280
  79.0725619 127.0690553 107.2805243  81.2367880 127.2318864 107.5350953
  80.7757121 128.6170927 103.2443543  80.5390830 129.8104591 103.2843067
  81.1766879 127.9770988 102.1151314  81.4231241 127.0111864 102.2775561
  81.4534681 128.5424254 100.8248366  80.5412280 129.0572219 100.5233374
  82.6040804 129.4950791 100.7016494  82.7743014 129.6753230  99.6402182
  82.3166685 130.4280081 101.1865596  83.8926221 128.9614344 101.3427411
  83.8723879 127.8924187 101.1308526  84.6904431 129.4304140 100.7668575
  84.1549574 129.1887350 102.8927390  83.9137350 130.2315627 103.0987030
  83.4557575 128.5428749 103.4238544  85.6340638 128.8816372 103.3811427
  85.6584472 128.8413872 104.4701266  85.9616897 127.9245404 102.9752779
  86.5230199 129.9359440 102.9148291  86.2198620 130.8228367 103.2911486
  87.4650149 129.7432992 103.2240755  86.5008985 129.9731257 101.9057567
  81.5319180 127.4580197  99.7563119  82.1082877 126.3794032  99.9815458
  80.9152406 127.6943776  98.6278878  80.7390817 128.6690343  98.4301212
  80.5304251 126.7290583  97.6568338  81.3880065 126.1246252  97.3613446
  79.4250853 125.7724750  98.2776183  80.0307071 125.1158451  98.9022451
  78.7105575 126.3093019  98.9016109  78.6688628 124.9354236  97.2399292
  77.7641357 125.5314826  96.3349876  77.5906964 126.6012240  96.4519132
  77.0969345 124.8147376  95.3161823  76.5791186 125.3554979  94.5240038
  77.1938723 123.3838260  95.2633977  76.4912024 122.7106470  94.3899127
  75.9453434 123.2722232  93.8346923  77.9661016 122.7511664  96.2348202
  77.9906787 121.6614435  96.2341050  78.7189396 123.4900120  97.2219409
  79.3259007 122.9582338  97.9546825  79.9142252 127.5489936  96.5107440
  79.3067937 128.5473803  96.6602931  80.2057929 127.1349567  95.3047143
  80.7813355 126.3058496  95.3425478  79.9053527 127.7314147  93.9615465
  78.9562935 128.2631635  94.0295832  80.9900490 128.7170976  93.4629753
  81.8823309 128.1375499  93.2262123  80.5366362 129.0784626  92.5399735
  81.3738254 129.9059098  94.3403978  80.4742192 130.2001447  94.8809857
  82.5171609 129.6288339  95.3518374  83.4172959 129.3349714  94.8119295
  82.7187164 130.5310782  95.9292726  82.2198846 128.8255091  96.0259268
  81.9271202 130.9781305  93.4750559  81.1748324 131.2831112  92.7476295
  82.2056506 131.8342130  94.0895840  82.8076339 130.6053138  92.9517946
  79.6753169 126.6258754  92.9593383  80.3359999 125.6211603  93.0319293
  78.7722521 126.8094901  92.0069325  78.1083614 127.5697943  92.0427918
  78.7065823 125.8875676  90.8803672  79.7372309 125.6279893  90.6385373
  77.9652073 124.5933679  91.3716648  76.9292662 124.8354197  91.6090188
  77.9905199 123.8389007  90.5853832  78.4605012 124.2061788  92.2620960
  77.9814086 126.3580446  89.5824564  77.2908637 127.3870255  89.5807205
  78.2981331 125.6574013  88.4602592  78.8343629 124.8241227  88.6557171
  78.0582069 126.0250199  87.0370129  77.1603301 126.6132776  86.8476210
  79.3367818 126.7907713  86.4352224  79.0357441 127.2882624  85.5132792
  79.8942979 127.8307270  87.4195013  80.1959990 127.3338868  88.3415788
  80.7575307 128.3261575  86.9751157  79.1254061 128.5708876  87.6410115
  80.3830019 125.7940621  85.9295851  80.5543495 125.0570206  86.7141299
  79.9782150 125.2977020  85.0476136  81.6449999 126.4413823  85.5867853
  82.0506556 126.9376016  86.4684370  82.3538769 125.6924994  85.2335615
  81.4745204 127.1782851  84.8019217  77.6568305 124.7475947  86.2617666
  78.2397945 123.7120902  86.4097550  76.7647498 125.0067665  85.3433675
  76.2078641 125.8414031  85.4589512  76.3791542 124.0403352  84.2693808
  77.2423024 123.4165348  84.0371150  75.2977629 123.1646069  84.8836891
  74.4233615 123.7735073  85.1133902  75.0194576 122.3815356  84.1783907
  75.6744453 122.7103419  85.8001240  76.0860261 124.7404604  82.9540273
  75.0166199 124.6485146  82.3546016  76.9573233 125.5589982  82.3912039
  78.3963289 125.6713622  82.7947152  78.7078635 124.6486904  83.0072919
  78.3836089 126.2466180  83.7204679  79.2284009 126.3158648  81.7352972
  79.6798574 125.6070791  81.0411006  79.9986362 126.9794516  82.1283512
  78.0961274 127.1234369  81.0606639  78.4049754 127.2945637  80.0294376
  77.8850213 128.0795528  81.5395961  76.7836457 126.1922949  81.0913280
  75.8202489 126.7021510  81.0947458  76.8269177 125.1865970  79.9269826
  77.6979374 124.3628977  79.9511305  75.9892319 125.2230679  78.9029927
  74.9676202 126.2303185  78.6497859  75.3971083 127.2009283  78.8978925
  74.1310750 126.0225028  79.3169469  74.5760315 126.1192501  77.1654965
  75.2719044 126.6740883  76.5361996  73.5640250 126.4892741  77.0010994
  74.6575441 124.6200711  76.8983579  74.8305307 124.3104760  75.8676661
  73.7520701 124.1430199  77.2733759  75.8804439 124.2170606  77.7870376
  75.5325906 123.2760832  78.2132510  77.2432953 123.9862406  77.0604041
  77.4544764 122.8614863  76.5201790  78.2285437 124.8649312  77.1747821
  78.1160557 125.7344191  77.6762165  79.5012040 124.6035600  76.5273394
  79.3416238 124.3774018  75.4730691  80.5133404 125.7852001  76.6583798
  80.0329281 126.6943923  76.2968914  80.9633849 125.9884026  78.1398027
  81.4443338 125.0797231  78.5018665  81.6675661 126.8185367  78.1955420
  80.0928439 126.2089887  78.7575400  81.7746379 125.5592449  75.7401631
  82.4963190 126.3517324  75.9382558  82.2177788 124.5947249  75.9880073
  81.3968836 125.5778910  74.2837263  80.9540682 126.5423355  74.0350074
  82.2870287 125.4195344  73.6749044  80.6755257 124.7853289  74.0847593
  80.1888772 123.3230392  77.0937642  80.9122204 122.7289228  76.3406365
  79.8895149 122.9353985  78.3076208  79.2862848 123.4770104  78.9100072
  80.4066775 121.6250260  78.8138044  81.2025608 121.1511330  78.2392660
  80.8189792 121.7125565  80.2719799  80.9900770 120.7112978  80.6673367
  82.1653266 122.5642199  80.3797942  81.9948748 123.5658213  79.9850265
  82.4698227 122.6328200  81.4241489  82.9516573 122.0762246  79.8039089
  79.7440932 122.1257069  81.3007484  79.5537914 123.1906526  81.1674198
  78.8381822 121.5639613  81.0730058  80.1406253 121.8707662  82.6877140
  81.0462699 122.4325778  82.9163520  79.3404177 122.1838662  83.3583372
  80.3306630 120.8058861  82.8219373  79.2968545 120.5364336  78.7485323
  79.5826214 119.3946763  78.9494096  78.0143893 120.8239012  78.4360147
  77.7127643 121.7877372  78.4479283  77.0010007 119.7744736  78.1850022
  77.1573956 118.9457878  78.8755959  75.5749551 120.3195823  78.3854550
  75.5119955 121.3241956  77.9672596  74.8660062 119.6685626  77.8739232
  75.2323253 120.3675136  79.9065932  74.9814526 119.3621329  80.2447846
  76.1030578 120.7278579  80.4543877  74.0766163 121.2784932  80.1551671
  74.2199751 122.2538013  79.6900636  73.1368889 120.8468480  79.8106466
  74.0359620 121.4400053  81.6745190  74.2297697 120.4792889  82.1515547
  74.7920910 122.1598146  81.9879556  72.6970670 121.9267962  82.0729056
  71.9963127 121.2597403  81.7829409  72.6633415 122.0357766  83.0764423
  72.5174581 122.8172124  81.6313190  77.1928108 119.1566551  76.7858313
  76.5825887 119.5070740  75.7858805  77.9772938 118.0835908  76.6974380
  78.2031700 117.6186632  77.5651486  78.5062068 117.4957534  75.4119500
  77.7316962 116.8857379  74.9470698  78.9264622 118.6075475  74.4151414
  79.3410460 118.0459827  73.5779649  77.9743728 119.0486764  74.1201312
  79.9310803 119.7530685  74.8289978  79.6722702 120.3662212  75.6922255
  80.8581655 119.2162600  75.0301241  80.1473565 120.6635738  73.6349728
  79.4241625 120.6465667  72.6942039  81.1009938 121.5881337  73.8384055
  81.3258080 122.2468095  73.1064860  81.5886314 121.6201890  74.7223079
  79.7930419 116.6493498  75.7301626  80.7069204 117.1495219  76.4147441
  79.9074768 115.4474527  75.1474268  79.2125510 115.3045695  74.4285652
  80.8270138 114.2896644  75.5012724  80.4039025 113.3195855  75.2404604
  82.1154800 114.5316430  74.6203364  81.8227171 114.4807079  73.5716254
  82.4951384 115.5288258  74.8430156  83.1153238 113.5852837  74.8716998
  83.8769435 113.7694506  74.3170668  80.9714462 114.3058057  77.0543773
  79.9494873 114.3217311  77.7279769  82.1901838 114.2041488  77.5445552
  82.9265252 114.0815830  76.8642036  82.5243495 114.1056514  78.9280687
  81.9373782 114.8634472  79.4470191  82.1175660 112.7431054  79.4426534
  81.1146324 112.4981621  79.0930433  83.1142977 111.7001257  78.9108637
  84.1174547 111.9441599  79.2604677  82.8342402 110.7111448  79.2736083
  83.0988047 111.7046363  77.8209829  82.2437949 112.7546615  80.8173049
  81.9905856 111.8980825  81.1690971  83.9851084 114.4678721  79.1501622
  84.8958599 114.1905113  78.3461424  84.2338474 115.0131928  80.3386613
  83.4108299 115.2850226  80.8571689  85.5856760 115.2518674  80.9656246
  86.2587971 115.6372000  80.1997748  85.5740170 116.2044969  82.1584193
  84.8777831 115.7965041  82.8911543  86.9745496 116.4019708  82.8244646
  87.6712514 116.8103993  82.0924173  86.8843586 117.0916885  83.6636641
  87.3459020 115.4417024  83.1823490  85.0248003 117.5742502  81.6617464
  85.8327613 118.1470950  81.2066104  84.2394590 117.4060686  80.9248248
  84.4393950 118.3716394  82.8748767  85.2243202 118.5406182  83.6120594
  84.0546218 119.3307552  82.5282562  83.6310190 117.7995904  83.3302754
  86.1237138 113.8824592  81.4603188  85.4580958 113.2550307  82.3262335
  87.2954512 113.3870935  81.0258788  87.7807511 113.9535589  80.3449234
  87.8919368 112.0988016  81.4142434  87.2914560 111.5197218  82.1158049
  88.1832095 111.2350214  80.1946164  88.9166454 110.4835966  80.4870748
  86.9285590 110.5381543  79.6407082  86.1947961 111.2890021  79.3475862
  87.1994444 109.9372677  78.7725740  86.5011971 109.8937305  80.4089409
  88.9145801 112.0338121  79.0841357  89.8617596 112.4102333  79.4704776
  89.1039911 111.3816643  78.2315359  88.2926510 112.8716468  78.7689561
  89.2377157 112.2882389  82.2487449  89.6885947 111.3459622  82.8974519
  89.8599014 113.4784235  82.3237553  89.4956480 114.2138806  81.7350943
  91.1425560 113.7297949  83.0672980  91.0831653 113.3254874  84.0777966
  92.3394036 113.0105642  82.3008294  93.2908052 113.0313991  82.8323368
  92.1224697 111.9900979  81.9850948  92.5897471 113.9549600  80.7948992
  93.5896914 113.2118015  80.3293617  91.3735412 115.2457325  83.3669976
  90.5901763 116.0648181  82.8589393  92.3159897 115.6651531  84.2344123
  92.9419366 114.9419941  84.5589596  92.4728917 117.0222501  84.7834537
  92.2923985 117.7726342  84.0137492  91.4450157 117.2186606  85.9126410
  91.5394780 118.1759336  86.4252857  90.4355958 117.1188272  85.5136362
  91.5982423 116.1683380  86.9450096  92.4525883 116.1936858  88.0246402
  92.1667550 115.0649439  88.7002488  92.6655561 114.9097140  89.6569097
  91.2684535 114.2983669  88.0287741  90.9427167 113.3887520  88.3230463
  90.8786725 114.9294871  86.9169238  90.1610360 114.4578363  86.2456232
  93.9198813 117.2560194  85.2823064  94.6856832 116.4247469  85.7378670
  94.2596323 118.5607951  85.2627199  93.5286513 119.2292059  85.0652530
  95.6069798 119.0587955  85.4856534  96.1338070 118.4655870  86.2330863
  96.3161041 118.9481238  84.2199333  96.4478607 117.8757223  84.0760777
  95.7047638 119.3501589  83.4120157  97.6580752 119.6043876  84.1753639
  98.0650913 120.3601811  83.3656312  98.4544073 119.2311259  85.0998210
  99.3845333 119.6216858  85.1490997  98.1508088 118.5468964  85.7778761
  95.7024397 120.4926478  85.9691624  95.0716802 121.3035082  85.3277851
  96.4008857 120.7974899  87.0696298  96.8187360 120.0206913  87.5616506
  96.5920747 122.1221132  87.5982051  95.6668651 122.6976029  87.5682374
  97.0333451 121.9739383  89.0699384  96.4097260 121.2181047  89.5473418
  98.0744859 121.6519999  89.0918815  96.8925689 123.3096730  89.8278731
  97.6940570 123.9841759  89.5266033  95.9295251 123.7618062  89.5907564
  96.9789255 123.0569508  91.3271206  96.7691216 123.9713514  91.8820556
  96.2736109 122.2814105  91.6257307  98.3561310 122.6026432  91.6600267
  99.0314484 122.6676648  90.9118169  98.7945922 122.3169260  92.8946940
  97.9932928 121.8861797  93.8114682  97.0134114 121.7589003  93.6023449
  98.3503434 121.6786528  94.7331769 100.0924358 122.2941112  93.0305301
 100.6838859 122.4844115  92.2342433 100.4992684 122.0862606  93.9312987
  97.6703286 122.8425322  86.7708565  98.6966139 122.2668519  86.5104114
  97.4300824 124.1247824  86.5086308  96.5180382 124.4932376  86.7377935
  98.3866750 125.0074302  85.8096619  99.3017603 124.5556383  85.4267755
  97.7155603 125.7890765  84.6765458  96.9954321 126.4674596  85.1340510
  98.7001922 126.5958495  83.8064313  99.4203985 125.9180443  83.3481912
  98.1497206 127.1217693  83.0263738  99.2275030 127.3188680  84.4287570
  96.7474411 125.1063816  83.7829084  95.9135220 124.7259533  84.3727858
  96.3748879 125.8137126  83.0419722  97.2417614 124.2772822  83.2766056
  99.0796897 125.9325682  86.7391866 100.2560676 126.1366568  86.4065849
  98.4392995 126.4423343  87.8064621  97.4865862 126.1347563  87.9400002
  98.9449719 127.4692045  88.6598594  99.9875845 127.6319664  88.3867902
  98.1834985 128.8494445  88.5879289  97.2432178 128.5009940  88.1606659
  97.9970723 129.2822953  89.5707745  98.7931449 129.9027820  87.6783838
  98.0529656 130.8703078  87.3757530  99.8847152 129.8400338  87.0718355
  99.0325026 126.9364502  90.1172787  97.9883698 126.6015099  90.6785769
 100.2122313 126.9041711  90.7727322 101.5528624 127.3980108  90.2697245
 101.6452962 128.4659926  90.4671354 101.6279227 127.2194958  89.1970655
 102.5221945 126.5898579  91.0460918 103.4873145 127.0904741  91.1237170
 102.6601265 125.6022079  90.6060650 101.8742436 126.4952238  92.3286443
 102.1068720 127.3457205  92.9694549 102.2589263 125.5823694  92.7834143
 100.3494856 126.3850930  92.1375961 100.0448755 125.3408884  92.0672565
  99.5725605 127.0688115  93.2717506  99.4870373 126.4974564  94.3421399
  98.9127524 128.2209557  93.0733625  99.1986196 128.8552392  92.3411988
  97.8159871 128.6415690  93.9799034  97.9576693 128.3110498  95.0088749
  97.8981879 130.2439438  93.9400021  97.3356976 130.7950487  94.6936514
  98.9632589 130.3093315  94.1623721  97.6480964 130.8736321  92.5981631
  96.8646187 130.3851595  91.8283246  98.0828929 132.1157698  92.3859608
  97.9249415 132.5568795  91.4912131  98.5682820 132.6100957  93.1209031
  96.4006612 128.1134588  93.6698015  95.5621226 128.2678695  94.5391785
  96.1725146 127.2903856  92.6212756  96.8990460 127.0169185  91.9751585
  94.8514128 126.7819162  92.4114785  94.9559541 125.7909266  91.9697661
  94.3823398 126.6946684  93.3915080  93.9527423 127.6469786  91.4990185
  92.8185759 127.2838795  91.2955121  94.4353247 128.7605759  90.9590360
  95.3798275 129.0395922  91.1830087  93.6344177 129.6429826  90.1138475
  92.6477971 129.7815771  90.5559678  94.2995471 130.9983651  89.9790878
  93.7308074 131.6042156  89.2736948  94.3083207 131.4877775  90.9529967
  95.6396229 130.8522280  89.5081026  96.0468570 131.7178817  89.4280783
  93.2979093 129.1640025  88.7029963  92.3966430 129.6639494  88.0558849
  94.1258078 128.2166182  88.2027163  94.8926439 127.9497860  88.8034344
  94.0478033 127.6086003  86.8442765  93.0610301 127.7918223  86.4190617
  95.1001381 128.2096988  85.9131020  96.0660634 128.0949317  86.4049516
  95.0884237 127.6222875  84.9950003  94.8671431 129.7111952  85.5713246
  93.8041881 129.8302874  85.3614568  95.1280958 130.2857936  86.4600554
  95.7073268 130.2336731  84.3421976  95.6309938 129.4988433  83.5407630
  95.2749383 131.1778732  84.0110996  97.1369704 130.4500657  84.6519837
  97.3608642 130.6223551  85.6216678  98.1222318 130.3687107  83.7856504
  97.9955577 130.1129925  82.5321546  97.0772550 129.9553248  82.1423327
  98.8149414 130.0709705  81.9431350  99.3107224 130.6208922  84.1657671
  99.4862120 130.8803600  85.1259649 100.0724581 130.5602929  83.5053239
  94.1765932 126.0776223  86.7836075  95.1574307 125.5284973  87.2470127
  93.2622401 125.3921523  86.1143704  92.4810160 125.9367651  85.7779403
  93.2793692 123.9189544  85.8263572  94.2763086 123.5053728  85.9785455
  92.2717124 123.2002180  86.8287722  91.2673824 123.6196515  86.7696462
  92.2609774 122.1782422  86.4498921  92.7368237 123.1987097  88.2808449
  92.4301228 124.2617530  89.1973462  92.0129547 125.2058511  88.8469907
  92.6859472 124.0610806  90.6159869  92.2316844 124.7282956  91.3484971
  93.3873376 122.9206838  91.0439375  93.8807226 122.9467540  92.2935700
  93.6882638 123.7658259  92.7558259  93.6615308 121.9197694  90.1207839
  94.1216940 121.0174768  90.5235474  93.3805067 122.0146459  88.7295331
  93.6579119 121.1999106  88.0606886  92.8566462 123.5793336  84.3739961
  91.6958538 123.9379968  84.0081126  93.7095947 122.9924945  83.5453998
  94.6968333 123.0107614  83.7578275  93.2878216 122.3646215  82.3269955
  92.7521814 123.0988842  81.7252920  94.4490841 121.8188491  81.5082972
  94.9729768 121.2725386  82.2926316  94.1527826 121.1268339  80.7199949
  95.3681367 122.8796426  80.9306906  95.2891474 123.7809331  81.5385862
  96.8346334 122.3927314  80.9202135  96.9145048 121.4916703  80.3120948
  97.4733134 123.1706241  80.5017980  97.1520003 122.1719496  81.9393474
  94.7499173 123.3325423  79.5869452  93.7547815 123.7407499  79.7634977
  95.3812212 124.0979538  79.1356118  94.6775157 122.4785015  78.9135424
  92.3395567 121.2657479  82.7587509  92.5914075 120.4846078  83.6679974
  91.3581784 121.0282405  81.9327619  91.1378526 121.7769816  81.2917139
  90.5491153 119.7719362  81.8609118  90.9272944 119.0059048  82.5378723
  89.0748642 120.1663114  82.3119771  88.7701218 120.7488049  81.4425332
  88.5021191 119.2395655  82.3466935  88.8190132 120.9578756  83.5574334
  89.3062575 121.9296961  83.4783217  87.3146671 121.1557181  83.7323481
  86.8267576 120.1842767  83.8120023  87.1263480 121.7316894  84.6383800
  86.9157839 121.6925801  82.8716671  89.4389865 120.3329153  84.7253066
  90.5163645 120.2668707  84.5736684  89.2334517 120.9334621  85.6114219
  89.0298703 119.3319638  84.8624895  90.5212604 119.1655686  80.4220899
  90.4683418 119.9511699  79.4419414  90.2970029 117.8473671  80.3740968
  89.9108661 117.4212854  81.2044293  90.5736333 116.9771320  79.1971539
  90.7567070 117.6040685  78.3244949  91.4567516 116.3714320  79.4004491
  89.3719292 116.0360846  78.9009310  88.7778246 115.4228053  79.7933531
  89.0191157 115.8623252  77.6258313  89.6696109 116.2169785  76.9394084
  87.6830832 115.3753341  77.1533847  87.1516105 114.9324291  77.9956858
  86.7644394 116.5804408  76.5298260  86.5859239 117.3370465  77.2938804
  87.4682542 116.9677652  75.7931275  85.4038244 116.2212369  75.8182725
  84.5949301 117.1888602  75.6890898  85.1212985 115.1318517  75.2751501
  87.7898989 114.1368649  76.2131011  88.6256843 114.1775435  75.2765558
  86.9000684 113.1695243  76.3265335  86.2850277 113.2258734  77.1256888
  86.8670963 111.9224486  75.4886917  87.7939303 111.3590805  75.5968320
  85.6941351 111.0400540  75.9697465  85.8114539 110.9328510  77.0480985
  84.7819837 111.5978323  75.7577010  85.6049431 109.6454536  75.3222222
  84.7037034 109.2173802  75.7611083  85.4272333 109.8638083  74.2692063
  86.9481953 108.4625416  75.4611161  86.4399306 107.2624676  74.2262430
  86.3769290 107.7472707  73.2520276  87.1696431 106.4539387  74.1826392
  85.4642052 106.8565785  74.4932923  86.8965421 112.1390225  73.9960103
  87.6160835 111.4767005  73.3045230  86.2618035 113.1787492  73.5014334
  85.6582597 113.6815788  74.1362535  86.2910851 113.6021412  72.0619238
  86.0736323 112.7563647  71.4096390  85.2076682 114.6972756  71.8346124
  84.2776207 114.2605573  72.1984639  85.4969662 115.5255815  72.4813860
  84.9919668 115.2454803  70.3130716  84.1956738 115.9861799  70.2397070
  85.9477722 115.7163499  70.0832521  84.7281241 114.1110453  69.3148806
  84.0144580 113.1008630  69.6081899  85.0832743 114.1172135  68.1119993
  87.6142411 114.0713055  71.5512517  87.9198694 114.1771779  70.2958094
  88.5739496 114.4313259  72.4351197  88.3467967 114.4117608  73.4190497
  89.9487603 114.8553370  72.0341106  90.6740156 114.5601172  72.7923647
  90.2209030 114.4080236  71.0781041  89.9677031 116.4377340  71.8887090
  90.1935196 116.9329834  70.7998339  89.8227083 117.1397562  73.0107751
  89.6392504 116.6078040  73.8495060  89.8158639 118.5887886  73.0995014
  90.6777099 118.9598590  72.5448597  88.5351646 119.2634414  72.5362378
  88.7088912 120.3373122  72.6049380  88.4806043 118.9710905  71.4875939
  87.2297683 118.9179497  73.2253916  87.3415550 117.8977889  73.5926470
  87.1433584 119.6004900  74.0708348  85.9500004 119.0152639  72.3484509
  85.7547225 120.0438266  72.0450959  86.0274060 118.3843269  71.4629984
  84.8181937 118.5412641  73.1695793  85.0492009 118.1525528  74.0727064
  83.5759453 118.5677655  72.8082225  83.2623681 119.1719082  71.7134665
  83.9827913 119.6115855  71.1586924  82.2977488 119.2027053  71.4157069
  82.6268101 118.0220604  73.5319111  82.8592957 117.5633171  74.4011666
  81.6683035 118.0633757  73.2162263  90.0553508 118.9892658  74.6041030
  89.7802634 118.2150998  75.5719537  90.6731530 120.1441162  74.7821197
  90.9118201 120.7490827  74.0093630  90.9535889 120.6289356  76.1832874
  90.7592388 119.8359660  76.9054552  92.4706888 121.0529185  76.2954485
  92.6417367 121.7888441  75.5097925  92.6670311 121.5068732  77.2667749
  93.4209513 119.8458007  76.0880433  93.3136714 119.4543837  75.0764186
  94.8702074 120.3285476  76.3011302  94.9783890 120.7197048  77.3127584
  95.5563699 119.4935145  76.1597035  95.1015403 121.1140776  75.5817359
  93.2198522 118.6340413  76.9385838  92.2191228 118.2351128  76.7727644
  93.9599037 117.8781541  76.6757917  93.3336082 118.9035547  77.9885938
  90.1265523 121.9054118  76.4606484  89.8023645 122.7220492  75.6089632
  89.7551747 122.0358050  77.7365753  89.9764877 121.2147153  78.2814896
  89.1561061 123.1360442  78.3943902  88.9395402 123.9261924  77.6754575
  87.8228490 122.6981921  79.0691797  88.2095396 121.7305356  79.3888836
  87.3993816 123.2209920  79.9267668  86.7034208 122.4221032  78.1481344
  85.5104102 123.1595091  78.2506920  85.5166310 124.0282517  78.9089833
  84.3085270 122.8087170  77.5282559  83.4676107 123.5017826  77.5531697
  84.2118061 121.6532185  76.8330594  83.2952906 121.3066449  76.3555806
  85.3772551 120.8883314  76.7454734  85.3262755 119.9907733  76.1291207
  86.5934713 121.2284753  77.4123651  87.4520257 120.5593758  77.3550047
  90.1021899 123.6853471  79.5545272  91.0748002 123.0059213  79.9299947
  89.8702718 124.9647072  79.9957774  89.2476297 125.5226112  79.4290682
  90.4848867 125.5983025  81.2183418  91.2432727 124.9454500  81.6504685
  91.1472009 126.9104522  80.8084149  91.6932939 126.7507674  79.8786932
  90.3709770 127.6589534  80.6492844  92.0910744 127.3886305  81.8645211
  92.4088732 128.3540265  81.4706745  91.4270288 127.5444432  82.7147375
  93.5204675 126.4761506  82.3988289  94.3804270 126.5495022  80.8174045
  94.5553515 127.5906584  80.5463065  95.3353872 126.0302341  80.8981040
  93.7715672 126.0720545  80.0496580  89.3557685 125.8070785  82.2237222
  88.4239822 126.5280264  81.9316292  89.4655038 125.1418614  83.3799546
  90.0970998 124.3599285  83.4787809  88.6229480 125.5144568  84.5390303
  87.6427271 125.8453506  84.1958460  88.4314951 124.2789461  85.4870994
  88.0831743 123.4415329  84.8825244  89.3667821 124.0083814  85.9771332
  87.3577410 124.6221311  86.5685327  87.6924741 125.5352606  87.0607209
  85.9453183 124.8210294  86.0372788  85.6096990 123.9080997  85.5453257
  85.2750480 125.0549126  86.8644047  85.9382980 125.6427148  85.3211194
  87.5493949 123.3711867  87.4443248  88.5763847 123.3353507  87.8077902
  86.8656743 123.4124098  88.2922210  87.3420563 122.4785709  86.8541157
  89.3683667 126.6749063  85.2074566  90.5093674 126.6917332  85.3286352
  88.6631296 127.6596883  85.8081587  87.6692916 127.5106282  85.9089872
  89.2310577 128.8845632  86.3347527  90.3130454 128.7965207  86.4329885
  88.9244746 130.0074189  85.3799003  87.8609613 130.2011275  85.5195992
  89.4991058 130.8604086  85.7408816  89.2153134 129.7893395  83.8765759
  89.0378340 128.7271900  83.7079334  88.4199679 130.6072254  82.8568018
  88.5973153 131.6695408  83.0245302  88.7383752 130.3409293  81.8489308
  87.3568543 130.3946438  82.9694915  90.6540603 130.1145277  83.6853934
  91.2617207 129.4536439  84.3035203  90.9216306 129.9788403  82.6374925
  90.8346918 131.1497466  83.9748637  88.6686979 129.2802730  87.6604685
  87.4854025 129.1813155  87.8559076  89.4722424 129.8049012  88.5441010
  90.4606262 129.6988837  88.3653355  89.0452710 130.3769119  89.8644378
  87.9630967 130.5036561  89.8949968  89.4610127 129.4019188  90.9920185
  90.5081368 129.1649728  90.8036387  89.3841390 130.0200941  91.8864736
  88.6739630 128.1051392  91.1991257  87.6090533 128.3076205  91.0848042
  89.1091555 127.0614628  90.1645108  90.1739305 126.8581055  90.2785238
  88.5456175 126.1409884  90.3169987  88.9178583 127.4420010  89.1611681
  88.9773942 127.5269253  92.6018603  88.6873178 128.2501219  93.3640556
  88.4149931 126.6041789  92.7444974  90.0439321 127.3185658  92.6866087
  89.5171882 131.8368230  90.0566534  90.7265828 132.1164829  89.9388443
  88.6149948 132.7543204  90.2452075  87.6413752 132.4857093  90.2487276
  88.9511264 134.1974312  90.4177753  89.9775804 134.3482174  90.0834775
  88.0362727 135.1459045  89.6340387  88.0692776 134.7695109  88.6116211
  87.0449775 134.9723310  90.0527346  88.3412579 136.6827199  89.6345242
  87.3975572 137.1858659  89.4238729  88.7126459 137.0011141  90.6085854
  89.3889172 137.0540110  88.5294713  89.3494667 138.1565884  88.0142085
  90.1567647 136.1748191  88.2236873  88.9070875 134.6710232  91.8919090
  87.8266439 134.8060364  92.5017698  90.0398370 135.1903408  92.4394689
  90.9026259 135.0046586  91.9483306  90.1141407 135.7915204  93.7524274
  89.4722923 135.2221869  94.4247288  91.5552966 135.8209083  94.3456314
  91.4564697 136.2558211  95.3402084  91.8594971 134.7779789  94.4342912
  92.5676923 136.5622098  93.5867270  92.8138323 136.0019766  92.6846989
  92.1603428 137.5346349  93.3100360  93.8811752 136.7668598  94.4577598
  93.5857463 137.2303379  95.3990402  94.3045408 135.7820755  94.6553978
  94.9665416 137.6743018  93.7395936  95.9136742 137.5368470  94.2612704
  95.0646910 137.3257700  92.7114927  94.5993354 139.1388737  93.7412807
  94.5087612 139.4621351  94.6938552  95.3216868 139.6675925  93.2735578
  93.7219415 139.2665136  93.2575585  89.3724997 137.1865175  93.7656022
  89.4517327 137.9667734  92.7929620  88.8200828 137.4383651  94.9701246
  88.5445848 136.6244251  95.5008806  88.3565897 138.8014547  95.4506094
  88.7842154 139.5395142  94.7720053  86.8996605 139.0066721  95.5115449
  86.6331781 138.6947474  94.5016987  86.6376376 138.2173479  96.2161096
  86.1208766 140.3077937  95.8758846  85.0641936 140.1732305  95.6447686
  86.2485180 140.3905852  96.9552142  86.6380062 141.6002625  95.1941506
  85.8350988 142.4843827  94.8816365  87.8616621 141.8006202  95.0132719
  89.1448609 139.1482307  96.7301577  89.3398623 138.2472853  97.5712587
  89.6939043 140.3445658  96.8798501  89.6772001 140.9846454  96.0987494
  90.3967600 140.7504162  98.0912853  90.6355750 139.8579154  98.6696527
  91.6919079 141.5060281  97.8029649  91.5145203 142.1873281  96.9708212
  91.9603417 142.0792899  98.6903285  92.8234399 140.5625951  97.4503129
  93.0952708 140.0195114  98.3554476  92.3741308 139.8737162  96.7350045
  94.0804198 141.1910341  96.8343826  94.3059343 142.4305129  96.9686900
  94.8646927 140.3944800  96.2515856  89.4369079 141.6152549  99.0022579
  89.1102188 142.7570407  98.6752681  88.9649045 141.0421942 100.1301641
  89.2344893 140.0729704 100.2197665  87.9778931 141.5883136 101.0904761
  87.0686624 141.7917325 100.5247735  87.6317525 140.7216606 102.2530974
  88.5299931 140.3851699 102.7708204  86.9846849 141.2485774 102.9543551
  86.8730083 139.4871362 101.6723086  86.0384112 139.8524259 101.0738840
  87.6188299 139.0361793 101.0177171  86.3517445 138.4115097 102.6365869
  86.7548749 138.2766803 103.7469378  85.3646610 137.6815811 102.1865431
  84.9721661 136.9548203 102.7678072  84.9993031 137.8479267 101.2597508
  88.4238934 143.0435971 101.4803679  89.6070948 143.4134738 101.3872945
  87.5412388 143.7768488 102.1293455  86.5599638 143.5598876 102.0287146
  87.9090590 144.9961001 102.8298136  88.1920315 145.7542015 102.0995342
  86.7559469 145.5406696 103.6790754  85.8571812 145.0858962 103.2625412
  86.9307036 145.1475832 104.6805959  86.5704164 147.0758163 103.7527493
  87.5188690 147.4740471 104.1132360  86.4046346 147.4059024 102.7272437
  85.2114982 147.7007863 104.8144908  85.5713220 149.4702087 104.5947406
  85.4969535 149.7281697 103.5383200  84.8534897 150.0609025 105.1638613
  86.5794541 149.6833767 104.9501705  89.1968489 144.9699297 103.6435152
  90.0399704 145.8740996 103.4276634  89.4855130 144.0141810 104.4472411
  88.7308191 143.3571501 104.5845252  90.7183530 143.8356134 105.2329861
  91.1642531 144.7984858 105.4822829  90.3586636 143.1186689 106.5230312
  91.2718152 143.1372718 107.1179322  89.6098754 143.7602455 106.9875694
  89.8335477 141.7026165 106.4505123  89.4147055 141.2882296 105.3670048
  89.8224501 140.9268238 107.4842398  91.9118793 143.1086940 104.5430737
  92.8544858 142.6888470 105.2419924  91.8309735 142.8214411 103.2079456
  91.0112096 143.0729820 102.6742662  92.9455375 142.1318583 102.5051906
  93.0026262 142.5156877 101.4866057  93.8751640 142.3538868 103.0292110
  92.7562519 140.6477243 102.4565879  93.6082484 139.9367198 101.9508414
  91.7251870 140.0627389 103.0894656  91.0455346 140.6841156 103.5042703
  91.4832729 138.6023439 103.1694969  92.4052070 138.1001805 103.4627009
  90.3787361 138.2778425 104.2285424  89.3937212 138.5967432 103.8877371
  90.3961051 136.7646203 104.3830154  91.3807306 136.4449928 104.7242639
  89.6441501 136.4647321 105.1128988  90.1758998 136.2982993 103.4227264
  90.6435858 138.8892064 105.4608564  89.9472270 138.6685446 106.0837474
  90.9552028 138.0954759 101.8328440  89.9697675 138.6353083 101.2138704
  91.5515124 136.9868878 101.3175342  92.2436707 136.5488121 101.9083860
  91.2900410 136.3945639  99.9815135  91.2849522 137.2849165  99.3527484
  92.4421846 135.4295608  99.4828721  92.5580636 134.6125020 100.1949720
  92.0941226 134.8622739  98.1112817  91.9785322 135.6787701  97.3984887
  92.8931768 134.2000676  97.7779714  91.1614479 134.3018137  98.1753429
  93.6737038 136.2660802  99.1840464  93.9889319 136.7856975 100.0888840
  94.4789847 135.6176805  98.8387927  93.4384800 136.9962043  98.4096502
  89.9713023 135.6084030 100.0763520  89.8049268 134.7638389 100.9296958
  89.0244719 135.8240111  99.1791819  89.1675428 136.5941276  98.5415687
  87.8696526 135.0336838  99.0229029  87.9021318 134.1074852  99.5966628
  86.6218361 135.9177296  99.5405339  86.9510582 136.3765879 100.4728226
  86.1107363 136.9924928  98.6016825  85.7808797 136.5343140  97.6692843
  85.2733671 137.5132172  99.0661801  86.9099235 137.7038778  98.3935195
  85.5599051 135.0710129  99.8260603  84.8124138 135.5881706 100.1349374
  87.6904533 134.7315714  97.5092038  88.3657929 135.2980781  96.6545603
  86.7224663 133.8496109  97.1491526  86.2289334 133.4116036  97.9137925
  86.4309682 133.3782365  95.7466217  87.2482718 133.6701286  95.0871423
  86.2843870 131.8718915  95.6979936  87.1988141 131.4146832  96.0759920
  85.4673315 131.6770353  96.3926528  85.9346426 131.2593117  94.2931356
  84.9103356 131.5542267  94.0652734  86.8548392 131.7027953  93.1606876
  87.8793259 131.4078003  93.3876322  86.5393534 131.2316015  92.2298031
  86.8044531 132.7864006  93.0540987  86.1025030 129.7660377  94.3129520
  85.4380759 129.3351141  95.0619119  85.8560972 129.3591508  93.3322235
  87.1352595 129.5192241  94.5591148  85.2558108 134.0621792  95.0956051
  84.1126152 133.9166236  95.5051601  85.4999776 134.9428399  94.0961190
  86.4717155 134.9948075  93.8257042  84.5331012 135.7815787  93.3799471
  83.8826813 136.2766775  94.1010090  85.2559943 136.8872407  92.5083537
  86.1567386 137.2303519  93.0173071  85.5235853 136.4758713  91.5350755
  84.2878755 138.0777267  92.3159195  83.5885205 137.7663730  91.5399928
  83.7570740 138.1818327  93.2622354  84.9080251 139.4134098  91.9330173
  84.0653292 140.1010451  91.8614613  85.5281488 139.6870854  92.7866259
  85.7047643 139.4892461  90.7071896  86.6946538 139.0841818  90.9172901
  85.2180488 138.8807791  89.9449723  85.8346916 140.8792712  90.2190921
  86.2860588 141.4431619  90.9250628  86.3891661 140.8892164  89.3749599
  84.9175746 141.2546541  90.0239429  83.7497511 134.8855663  92.4650249
  82.5524435 134.8836576  92.4659487  84.3588023 134.0247617  91.6581315
  85.3221336 133.8097377  91.8722735  83.7465970 133.3695812  90.5273564
  82.7347641 133.0297289  90.7482493  83.6747693 134.4640668  89.3844534
  83.5638743 135.4061997  89.9212840  84.6527010 134.4331572  88.9040430
  82.5827655 134.3518922  88.3229020  82.6788104 135.1054705  87.3299724
  81.6782210 133.5345013  88.5198425  84.5544814 132.1164464  89.9614865
  85.7581178 132.2154975  89.8674536  83.8172989 131.0831600  89.5810457
  82.8165493 131.2015737  89.6487049  84.3194116 129.8423285  89.0906895
  85.4037451 129.8078434  89.1961922  83.7014793 128.6638980  89.9054502
  84.1740837 128.8251218  90.8743419  82.6322973 128.8599367  89.9861882
  83.9160101 127.2559592  89.4778454  83.7096906 127.1431616  88.4135100
  85.3812452 126.9161787  89.7513435  85.5882199 127.0283070  90.8156214
  85.5786244 125.8874981  89.4497505  86.0230719 127.5901286  89.1839366
  82.9360241 126.2877348  90.1666953  81.9125119 126.5668030  89.9164093
  83.1286969 125.2707813  89.8249583  83.0723593 126.3394519  91.2468976
  83.8916656 129.7890450  87.6246639  82.6737228 129.9795941  87.4325690
  84.7536524 129.6473465  86.5972281  85.7179424 129.5633142  86.8856421
  84.4499377 129.7021222  85.1149110  83.3754722 129.6135692  84.9543445
  84.9268988 131.0332414  84.5182747  86.0009453 131.1294206  84.6772488
  84.7164735 131.0390482  83.4487947  84.1957682 132.2223050  85.1952694
  83.1253645 132.1281273  85.0123286  84.3849111 132.1875809  86.2681726
  84.7034012 133.5815292  84.6217922  84.8675661 133.4892180  83.5481873
  83.9633666 134.3593366  84.8101105  85.9859712 133.9763809  85.2685289
  86.1928031 133.5138705  86.1422589  86.9118701 134.8305141  84.7501308
  86.6069233 135.5877891  83.7869652  85.6738412 135.5586246  83.4014690
  87.2975424 136.2190606  83.4066480  88.0607698 134.9809980  85.2128741
  88.3497295 134.4495365  86.0216701  88.6962066 135.6335385  84.7764001
  85.0351643 128.5103362  84.3480016  86.0388540 127.9682118  84.8270519
  84.4920686 128.0638683  83.2396973  83.5520924 128.3644285  83.0247375
  85.1292361 127.0429937  82.3541903  86.2047676 126.9793559  82.5193607
  84.4930659 125.6309281  82.6338547  84.6581546 125.3788476  83.6813757
  82.9639993 125.6241601  82.3330494  82.7981319 125.8757173  81.2855248
  82.5574161 124.6336250  82.5370860  82.4654354 126.3584000  82.9658428
  85.1530301 124.5282010  81.8094579  86.2138364 124.4760575  82.0545560
  84.6808511 123.5723081  82.0362075  85.0362248 124.7478815  80.7482332
  85.0536378 127.4710153  80.8489938  84.0355485 127.8538623  80.2825113
  86.1819951 127.2195791  80.1603933  86.9995027 126.8085404  80.5879770
  86.2859202 127.6958359  78.7773962  85.2775370 127.8913187  78.4126374
  87.1202123 128.9685888  78.6145593  88.1617194 128.6970227  78.7866471
  86.9985101 129.3057954  77.5852002  86.7373635 130.0536503  79.5350235
  86.7844292 129.7422759  80.5785424  87.4896171 130.8206883  79.3509953
  85.3379552 130.6238501  79.2320343  84.6687627 131.2467075  80.0683406
  84.8869798 130.5454712  78.0576362  86.7812360 126.6197575  77.7906487
  87.3872813 125.6529866  78.2553736  86.4563193 126.6594174  76.4391291
  85.7614341 127.3276482  76.1379626  86.9186410 125.6276772  75.4605368
  87.3379944 124.7810981  76.0041780  85.7688887 125.1238175  74.5806248
  85.1668704 124.5377694  75.2750459  85.2020736 125.9965115  74.2562394
  86.1285612 124.2550971  73.3492050  86.8484081 124.8092035  72.7468037
  86.7428595 122.8607029  73.7503363  86.0233609 122.3057895  74.3524092
  86.9763036 122.2932433  72.8494510  87.6544828 123.0170791  74.3270423
  84.9420417 124.0296004  72.4753952  84.5628008 124.9885106  72.1221714
  85.2303093 123.4166238  71.6214263  84.1642042 123.5185509  73.0427542
  88.1676695 126.1552494  74.7182947  88.1161108 127.2234213  74.1284756
  89.2636943 125.3901023  74.6721478  89.2820511 124.5190317  75.1830279
  90.4837374 125.7961686  73.9284362  90.5767419 126.8748650  73.8024866
  91.6462999 125.2968575  74.8667811  91.8521636 124.2542567  74.6244942
  92.4868939 125.9152818  74.5520539  91.4432871 125.4412277  76.3982934
  90.4985657 124.9490979  76.6294010  92.5522253 124.8523941  77.2732414
  93.4972339 125.3443839  77.0430161  92.3083197 125.0087802  78.3240288
  92.6420884 123.7840239  77.0767471  91.4545475 126.9270419  76.6918619
  90.6472076 127.4124051  76.1434785  91.3149086 127.0877802  77.7608639
  92.4096415 127.3517595  76.3828158  90.7781156 125.3202683  72.4885218
  91.1618221 126.0955729  71.6481136  90.4619763 124.0699547  72.1795153
  90.1309329 123.4505731  72.9053776  90.5733404 123.5484608  70.8250885
  89.6484386 123.7720485  70.2934266  91.4059373 124.0493711  70.3311545
  90.8101650 122.0517357  70.7948046  91.0274227 121.4380812  71.8892859
  90.8706593 121.4049499  69.6569076  90.7041206 121.9771646  68.8414725
  91.1057228 119.9332145  69.4589861  90.4513091 119.3583821  70.1142796
  90.8161142 119.5590790  68.0531363  90.8186726 118.4711470  68.1201928
  89.7907836 119.9136940  67.9480385  91.6303564 119.9946963  66.8417085
  91.5150404 121.0770707  66.7845364  92.6735044 119.7511065  67.0432165
  91.2000818 119.3546394  65.4877710  90.3647060 118.4218708  65.4269350
  91.7389066 119.7838360  64.3969460  92.5351173 119.4355673  69.8043419
  93.5410382 120.1255080  69.4900206  92.6307701 118.2500024  70.4505489
  91.7513697 117.8668361  70.7666783  93.9052981 117.4501454  70.7129856
  94.7485103 117.5664397  70.0321273  94.3930254 117.7790291  72.1833511
  95.2486367 117.1150292  72.3063701  94.7818788 119.2065444  72.6259323
  93.9265702 119.8710659  72.5036293  95.0841219 119.1931716  73.6731044
  95.6097940 119.5643961  72.0138872  93.4734319 117.2327864  73.1241479
  93.7702426 117.4328517  74.0149215  93.6006202 115.9376322  70.6078564
  92.5355439 115.5903869  70.1805192  94.5031341 115.0667386  70.9936959
  95.4191969 115.4685517  71.1332470  94.3454282 113.6239334  71.1675919
  93.8264170 113.2417499  70.2885797  95.6683452 112.8389644  71.3411812
  96.3456719 113.2165751  70.5751930  96.0501439 113.1058333  72.3266307
  95.5758804 111.4183180  71.2357537  96.4457635 111.0310885  71.3580505
  93.4430786 113.2424425  72.3485000  93.0761751 114.0823488  73.2326512
  92.9666587 111.9898760  72.3290761  93.1700409 111.4036394  71.5321685
  92.0479615 111.4696029  73.3668820  91.2961762 112.2281482  73.5848893
  91.3631866 110.2071127  72.8636526  92.0993798 109.4538196  72.5831720
  90.4972216 109.6726477  74.0245841  89.7604361 110.4252625  74.3053308
  89.9851586 108.7639424  73.7081242  91.1337834 109.4508427  74.8811416
  90.4237553 110.4248710  71.6202938  89.5657875 110.9918571  71.9815676
  90.9887621 111.0326638  70.9135727  89.9300358 109.1343807  70.9131653
  89.3645095 108.5262531  71.6191828  89.2909052 109.4022875  70.0718346
  90.7874850 108.5670584  70.5511898  92.7681417 111.2664247  74.6956540
  93.5731598 110.3356599  74.8567025  92.5509992 112.0926486  75.7517076
  91.7247409 112.6732053  75.7704288  93.5118947 112.2371501  76.8161864
  94.5410761 112.1396848  76.4706646  93.3051788 113.6947641  77.3776132
  92.2816459 113.8049285  77.7358648  93.9983658 113.8694407  78.2004620
  93.4923158 114.4197237  76.5854562  93.3205139 111.1101248  77.8631288
  92.3902450 111.0915810  78.6616236  94.1941081 110.0860902  77.8711476
  94.7249148 109.9851922  77.0178228  94.4518434 109.1344210  78.9741522
  93.5242083 108.6194844  79.2240176  95.4845921 108.1094068  78.6023594
  95.3133852 107.8321785  77.5621999  96.4634634 108.5796429  78.6961098
  95.4355566 106.8648389  79.4725037  96.3001551 106.2435297  79.2389544
  95.5261989 107.2449937  80.4900328  94.1476137 106.0207605  79.3514089
  93.7671014 105.3816449  80.3698659  93.4346117 105.9901757  78.2849866
  94.9759515 109.8569006  80.2262480  94.7850698 109.4170462  81.3740464
  95.6440021 110.9600756  79.9152588  95.7905535 111.1441088  78.9330400
  96.3677319 111.7617972  80.8791777  95.6899136 112.1829750  81.6216538
  97.3840763 110.8515801  81.5995651  98.0986151 111.4481148  82.1667334
  96.8727672 110.1622463  82.2714891  98.3571479 109.8334214  80.4886095
  99.0686568 109.2324716  81.4380898  96.8805004 113.0685326  80.2715750
  96.7301839 113.2932408  79.0818018  97.2692137 113.9974086  81.1596669
  97.5188108 113.7359135  82.1027581  97.3865535 115.3908881  80.7791734
  97.8449655 115.5236847  79.7992129  95.9400158 115.8883462  80.7141032
  95.5136049 115.3809070  79.8487834  95.5101807 115.4738647  81.6259952
  95.6340696 117.3345062  80.6378724  96.1067845 117.8595510  81.4679142
  96.1715457 117.8693179  79.3335255  95.6989226 117.3450387  78.5029489
  95.9547751 118.9350340  79.2603094  97.2498023 117.7148145  79.2936278
  94.1755688 117.6932549  80.6515779  93.7210204 117.3334114  81.5746152
  94.0666541 118.7761439  80.5916596  93.6791192 117.2309164  79.7984191
  98.1563503 116.0947198  81.8811915  98.0423067 115.7661789  83.0661138
  99.1185709 116.9093145  81.4923405  99.2382800 116.9638771  80.4909455
 100.0588070 117.7266900  82.3810132  99.6315462 118.1804116  83.2752638
 101.2344798 116.8797760  82.7864019 100.7776447 116.0816879  83.3716006
 102.1963539 116.2598266  81.7222427 102.6539517 117.0573862  81.1369200
 102.9749536 115.6866718  82.2256065 101.6320351 115.6023813  81.0608725
 101.9247206 117.5657871  83.7075823 102.6844421 117.0501318  83.9878023
 100.5536391 118.9887226  81.6526589 100.7717221 118.9136486  80.4534234
 100.7249824 120.1028524  82.3693529 100.5686052 119.9774884  83.3592667
 101.1915981 121.3884890  81.9076363 100.9761065 121.5083334  80.8458925
 100.4712261 122.5160416  82.6895055  99.4184536 122.5025579  82.4073928
 100.5604657 122.3661614  83.7654572 101.0893682 123.8798310  82.3066742
 101.7915853 124.7268298  83.2175821 101.8057417 124.4649521  84.2755609
 102.4439667 125.8584179  82.7792148 103.0009180 126.4810882  83.4793496
 102.3673970 126.2249453  81.4067569 103.0497245 127.3130713  80.9356593
 103.5536483 127.7637549  81.6172345 101.6297710 125.4841984  80.5319838
 101.5729636 125.7540397  79.4774417 100.9379877 124.3607346  81.0063717
 100.2500747 123.8272082  80.3504559 102.6586568 121.4448588  82.2985509
 103.0784321 121.1833050  83.4676289 103.5492488 121.8686833  81.3789599
 103.2050587 121.9023722  80.4300143 104.9866981 122.0769455  81.6068377
 105.2375269 121.6167182  82.5625442 105.9279797 121.4792243  80.4991485
 105.4010116 121.7478536  79.5835929 106.9390899 121.8851804  80.4682346
 105.9948351 119.9374167  80.6222534 106.1714580 119.6765472  81.6657342
 104.6453877 119.2717543  80.1337883 104.4683125 119.5318113  79.0901823
 104.7182066 118.1884922  80.2304398 103.8185474 119.6356647  80.7437103
 107.2969583 119.4386713  79.9165494 108.1661270 119.8876858  80.3972065
 107.3598686 118.3532466  79.9939882 107.2743684 119.7267253  78.8655434
 105.2024222 123.5639794  81.9169621 104.7120749 124.0772365  82.9432504
 105.8372852 124.2808702  81.0342063 106.1823944 123.8376103  80.1948496
 106.0253987 125.7400780  81.1846487 105.3266385 126.2113698  81.8758197
 107.4412778 125.7994541  81.7975196 107.4747292 125.1857581  82.6977182
 108.1532250 125.4129360  81.0682495 107.8075500 127.2474961  82.1519150
 106.8171489 128.0944059  82.3388011 108.9836482 127.6616308  82.2815628
 105.9913644 126.4018323  79.7790283 106.1117673 125.6784003  78.7891357
 105.8465418 127.7379334  79.6718910 105.6996658 128.1902389  80.5629278
 105.8681162 128.5780222  78.4537259 105.5638683 129.5945339  78.7031981
 107.2827878 128.6226016  77.8477566 107.4904468 127.6296341  77.4490180
 107.2573989 129.3436506  77.0307230 108.4079192 129.0091600  78.8048710
 108.4652125 130.1258225  79.3364942 109.3436520 128.1513393  79.0816252
 110.0878454 128.4071438  79.7147445 109.3224696 127.2327224  78.6623461
 104.8356246 127.8898427  77.4745308 105.1442334 127.7054365  76.2845438
 103.6170270 127.5782049  77.8783201 103.5406042 127.6601341  78.8820863
 102.4141441 127.1496785  77.1110803 101.5384449 127.3579839  77.7257826
 102.3705752 127.7498965  76.2022681 102.4136466 125.6371233  76.7217148
 101.4739441 125.1006242  76.2368417 103.4643361 124.9471412  77.0893601
 104.1732705 125.4262037  77.6260262 103.7521845 123.6018873  76.6102177
 103.2630525 123.4027555  75.6567002 105.2357868 123.3693677  76.4494166
 105.7319890 123.6283488  77.3847301 105.5358330 121.8958281  76.0988353
 105.0403085 121.6362260  75.1633338 106.6117488 121.7596566  75.9894591
 105.1675473 121.2499308  76.8958823 105.8916224 124.2553517  75.4048813
 105.7588638 125.3016640  75.6800319 106.9559903 124.0267850  75.3503120
 105.4314172 124.0744435  74.4334987 102.9801888 122.7017340  77.5428777
 103.1044059 122.8191413  78.7608624 102.2287892 121.7766426  76.9159340
 102.2774958 121.7850448  75.9071444 101.3677089 120.7688324  77.5669365
 101.5785477 120.6015424  78.6231847  99.8696904 121.1811392  77.4165082
  99.7046535 121.4440598  76.3716471  98.8569198 120.0347008  77.8395124
  99.0210512 119.7715498  78.8844590  97.8336444 120.3873891  77.7105980
  99.0195268 119.1566922  77.2144033  99.6130102 122.4635810  78.1771115
 100.2466439 123.2559605  77.7786829  98.5661453 122.7473370  78.0691487
  99.8410591 122.3126842  79.2322535 101.6712936 119.4712554  76.8141369
 101.7669578 119.3396110  75.5618222 101.6563630 118.4166726  77.5530315
 101.6904069 118.5629597  78.5518010 101.6341329 117.0064106  77.0409761
 101.8649538 117.0111875  75.9757071 102.6666622 116.1087558  77.7671284
 103.6028587 116.6502875  77.6315601 102.4614444 115.9998620  78.8320828
 102.8878065 114.7328353  77.2319313 103.4915303 114.5534396  75.9801295
 103.8540025 115.4446007  75.4677374 103.6377274 113.3016411  75.3876467
 104.0892839 113.1842922  74.4025444 103.1861393 112.1734755  76.0921349
 103.3126443 111.1743186  75.6752634 102.5814160 112.3360800  77.3148153
 102.2589899 111.4288595  77.8257875 102.3706204 113.5907271  77.9108949
 101.8303216 113.6617492  78.8548932 100.2869228 116.3508710  77.1718764
  99.6169053 116.3834835  78.2328542  99.7729068 115.7127663  76.1140074
 100.3267330 115.6581897  75.2711567  98.4271739 115.0433628  76.1269984
  97.9916726 115.0952114  77.1248709  97.4059435 115.6228836  75.1086747
  97.7061651 115.2796299  74.1186529  95.9139017 115.1906728  75.3846853
  95.6127926 115.5340021  76.3744122  95.2614912 115.6344585  74.6326779
  95.8351415 114.1045273  75.3379274  97.4057802 117.1682782  75.0005795
  98.3918576 117.5112086  74.6872869  96.6627480 117.4816441  74.2672279
  97.1626227 117.6008739  75.9710620  98.5287851 113.5634445  75.7612896
  98.4671394 113.0627489  74.6339025  98.9166997 112.8095818  76.7758527
  99.1102810 113.3050469  77.6344213  99.0849287 111.3562714  76.7606295
  99.8789478 111.1300614  76.0489682  99.3978540 111.0564406  77.7607688
  97.8444883 110.5776194  76.3785215  96.7250105 110.9483394  76.7036849
  97.9995761 109.5261770  75.6110434  98.9567451 109.2949127  75.3864463
  96.9141233 108.7998396  74.9016724  96.0141510 108.8290733  75.5159154
  96.5993856 109.3967644  73.5610270  96.6414156 110.4852494  73.6001811
  97.2917782 109.0340361  72.8013424  95.2895422 108.9887276  73.2358977
  95.0448957 109.3498366  72.3807087  97.1175751 107.2732047  74.8384088
  98.2082238 106.7882072  74.5561236  96.0215459 106.5594237  75.0142884
  95.2053962 107.0312912  75.3766970  95.9259683 105.0961669  74.7310051
  96.9017454 104.6605557  74.5160608  95.3686048 104.4459870  76.0022509
  96.0505132 104.7062600  76.8117929  94.3958890 104.9020415  76.1864746
  95.2124054 102.9093304  75.9344474  94.6075288 102.7067682  75.0505958
  96.2160686 102.5107970  75.7863481  94.5790423 102.2469079  77.1426996
  94.1273278 101.3207590  76.7873108  95.3921111 102.0135605  77.8301352
  93.5589932 103.0217506  77.8650933  93.5384312 104.0029896  77.6266682
  92.5620034 102.5239141  78.5960982  92.4782670 101.2570842  78.8189348
  93.1743592 100.6330898  78.4365910  91.7169596 100.8944579  79.3748240
  91.8194850 103.3403507  79.2774967  92.0046053 104.3327281  79.2455963
  91.0596505 102.9799032  79.8368067  95.0535527 104.8199205  73.5747625
  95.3539089 103.8627693  72.8980604  94.0436070 105.6265144  73.2812970
  93.8136121 106.3934852  73.8968923  93.1808827 105.3928431  72.0944043
  93.1964646 104.3365205  71.8260038  91.7139884 105.8048541  72.4058994
  91.7449431 106.8070777  72.8333206  91.2613041 105.8467384  71.4152316
  90.8878062 104.8978990  73.3018639  90.4996021 104.1050246  72.6625295
  91.6418121 104.2741631  74.4930347  92.0299385 105.0664728  75.1331145
  90.9602162 103.6457780  75.0663234  92.4691748 103.6685875  74.1231029
  89.7415090 105.6816856  73.9845281  89.0880667 106.1075286  73.2231015
  89.1672029 105.0070557  74.6194676  90.1606321 106.4833745  74.5925820
  93.6671503 106.1418774  70.7927747  92.9981859 105.9801448  69.7473029
  94.8041070 106.8668962  70.8606812  95.1667711 107.0916793  71.7761301
  95.5325410 107.3401715  69.6958670  95.3139868 106.6286603  68.8995724
  95.0978484 108.3082220  69.4468287  97.0197793 107.4906609  69.8213907
  97.6088899 107.2155556  70.8471128  97.5797262 108.2351330  68.9441897
  97.0991100 108.3773227  68.0673263  98.9136892 108.8706050  69.1292495
  99.6666244 108.1297515  69.3981804  99.3186650 109.5214167  67.7921662
  98.4115286 110.0501620  67.4995380 100.1263630 110.2390038  67.9363633
  99.7096811 108.5250700  66.6878924 100.1852625 109.0127091  65.6032107
  99.5294779 107.2899340  66.6930627  98.8531814 109.9265157  70.2809615
  97.9897540 110.7750940  70.2425169  99.7899561 109.9609040  71.2532759
 100.4495607 109.2005348  71.3361000  99.9274187 111.1183386  72.1790508
  98.9515168 111.3193818  72.6209741 100.9320300 110.8859720  73.3017814
 101.9382400 110.7916475  72.8934389 100.9039842 111.7142164  74.0098242
 100.5738889 109.6729143  73.9724467 101.1947395 109.5061649  74.6854256
 100.4720237 112.4037466  71.4636678 101.2795554 112.2392338  70.6039614
 100.1351327 113.6373809  71.8971823  99.4447715 113.7522024  72.6254107
 100.7384809 114.8065582  71.3471737 101.3962378 114.5302608  70.5230894
  99.6233224 115.8020435  70.7966277  99.0392798 116.0922245  71.6700054
 100.1693328 116.6675827  70.4213750  98.6704506 115.2713696  69.6897156
  99.1660317 115.1575148  68.7255904  98.2669337 114.3094985  70.0060699
  97.5223743 116.2505249  69.5320459  96.7675753 116.4711430  70.4614334
  97.3171112 116.9250621  68.4360096  96.5383718 117.5657262  68.3793004
  97.9377363 116.8039990  67.6484376 101.5334472 115.5039839  72.4150383
 101.2604048 115.3290352  73.5845060 102.5597042 116.2436894  71.9474984
 103.1599260 115.9124055  71.2058219 102.9224932 117.5132073  72.6351234
 102.5484594 117.5228367  73.6588935 104.4979672 117.6192725  72.6723524
 104.9058829 116.6769059  73.0379329 104.7502809 117.7394245  71.6187864
 105.0775666 118.7461775  73.4525183 104.4711675 119.6440650  73.3334426
 105.0874982 118.3267256  74.9339778 105.6941209 117.4291062  75.0539245
 105.5073519 119.1316559  75.5372280 104.0680617 118.1220538  75.2610239
 106.5046597 118.9497480  73.0477045 106.5514693 119.1821282  71.9837929
 106.9305805 119.7749723  73.6184036 107.0722974 118.0405484  73.2458021
 102.1999972 118.7377690  71.9827629 102.0919244 118.8264263  70.7463996
 101.6887258 119.6473018  72.8420938 101.8455443 119.5573860  73.8357852
 100.7774345 120.7836910  72.3474608 100.9252389 121.1597363  71.3351155
  99.2898001 120.4198562  72.5255874  98.6955138 121.1912667  72.0358437
  98.9448754 119.0654440  71.9355064  99.5384736 118.2934120  72.4251069
  97.8853995 118.8606638  72.0893776  99.1625827 119.0677595  70.8674709
  98.5433431 120.5449211  73.9112413  98.5759594 121.5804512  74.2499383
  97.5051994 120.2338500  73.7946559  99.0328152 119.9069262  74.6470948
 101.0964828 122.1040831  73.0393949 101.0716119 122.1262292  74.3017312
 101.4071424 123.1326355  72.3046026 101.4117345 123.0489173  71.2980891
 101.6242911 124.4956036  72.9090052 102.0890111 124.4047060  73.8907751
 102.5541769 125.3171039  71.9990037 103.3286297 124.6946683  71.5507894
 101.9975622 125.8264025  71.2123049 103.2100208 126.3665330  72.9287399
 102.3954134 126.8844279  73.4350012 103.7959995 125.8097814  73.6600118
 104.0996670 127.3806906  72.2347059 104.4543837 128.0712062  72.9998615
 104.9458070 126.8327473  71.8200920 103.4060652 128.1674802  71.1198621
 104.1556234 128.6531179  70.4950269 102.8101580 127.4883723  70.5101030
 102.5443320 129.1705090  71.7062809 103.0963816 129.8001451  72.2709928
 102.0855441 129.6909795  70.9723026 101.8494361 128.7206856  72.2849671
 100.3163143 125.3051306  72.9150674  99.8080721 125.5777038  71.7979239
  99.8422541 125.6624690  74.1243751 100.1572005 125.0706224  74.8797728
  98.8615869 126.6888377  74.4184654  97.8984463 126.4590182  73.9627874
  98.6794384 126.7329371  75.9940283  99.6992148 126.9395290  76.3187977
  98.0418015 127.5826381  76.2380108  98.1623611 125.4897445  76.7057931
  98.8960086 124.6846645  76.6644605  97.9317403 125.8733278  78.1130642
  97.1978079 126.6781033  78.1552375  97.5587866 125.0127016  78.6683379
  98.8681596 126.2127118  78.5558256  96.9381897 124.9201457  76.0271500
  97.1846609 124.6478620  75.0008883  96.6019328 124.0347290  76.5666588
  96.1437228 125.6664093  76.0236995  99.1554335 128.0442306  73.8240427
 100.2866464 128.3810416  73.5054369  98.0862551 128.7971668  73.6602821
  97.2224803 128.2948859  73.8076123  98.0143781 130.1586240  73.1555445
  98.8646393 130.7487232  73.4975066  98.0461332 130.0952491  71.6060448
  97.5017375 129.1818745  71.3662962  97.5131313 130.9533753  71.1966201
  99.3866849 130.0264306  70.9775553 100.3447533 130.6538918  71.3816039
  99.5454477 129.3146746  69.9008400 100.4546359 129.2607741  69.4642954
  98.7588188 128.8191219  69.5061967  96.8232359 130.8263578  73.8211591
  96.1462549 131.6902149  73.2596312  96.4472729 130.4094966  75.0280525
  97.0708911 129.7748830  75.5060329  95.1106650 130.7097475  75.6594618
  94.2499785 130.5429062  75.0117876  94.8860190 129.9277697  77.0050672
  95.6708355 130.1913510  77.7140715  93.4813039 130.3124925  77.6094413
  92.6958928 130.0487666  76.9011483  93.3256980 129.7703832  78.5421818
  93.4499360 131.3846464  77.8033580  95.1012893 128.3862258  76.8961851
  96.1235420 128.1832470  76.5769657  94.9263213 127.9248643  77.8681066
  94.4046032 127.9721397  76.1673079  94.8231808 132.2242929  75.8790022
  93.6858369 132.6355056  75.5990415  95.8565913 132.9457847  76.1618616
  96.6974207 132.4210702  76.3562320  95.8625460 134.3655697  76.4157689
  94.8429539 134.7503127  76.3933167  96.4700998 134.6598865  77.8030216
  97.3927592 134.0867498  77.7118454  96.7102270 135.7089227  77.9761173
  95.6467200 134.1208307  78.9853640  94.4965359 134.5415151  79.0717248
  96.2400818 133.4661157  79.8556628  96.4759497 135.1417295  75.2243828
  96.7414890 136.3295398  75.3524943  96.4858968 134.6645461  73.9826686
  96.6433086 133.6669662  73.9702103  96.3855961 135.3529223  72.7281477
  97.1110185 136.1662723  72.7101670  96.6593788 134.4282815  71.5431484
  97.5805348 133.8658696  71.6956734  95.8315900 133.7350909  71.3936410
  96.7961472 135.2627718  70.3898447  96.9700201 134.7174677  69.6191233
  95.0753159 136.0620754  72.4598310  94.0018123 135.4546073  72.5815704
  95.2397954 137.2741817  71.9436076  96.1730191 137.6226378  72.1102547
  94.2696056 138.1678328  71.3396304  93.2716053 137.7906370  71.5628296
  94.3726150 139.6233300  71.8484475  95.1028376 140.2412318  71.3258851
  93.3677421 139.9810458  71.6240150  94.6056761 139.7477097  73.3134026
  93.8777655 139.1224692  74.0307849  95.6244383 140.3320091  73.8577627
  95.7026519 140.3701812  74.8640059  96.3363071 140.7469782  73.2736873
  94.2268313 138.1657161  69.8554744  93.3727023 138.8619606  69.3270320
  95.0014624 137.3151627  69.1792530  95.4754729 136.5811042  69.6857819
  95.1968332 137.3941480  67.6752884  94.3090017 137.7575008  67.1577662
  96.3731128 138.4486070  67.4698218  96.3580569 138.6547367  66.3995961
  96.0344495 139.3302898  68.0139197  97.8199370 138.0945360  67.9080221
  97.9308026 138.1037777  68.9923303  98.0257991 137.0928286  67.5307925
  98.7844245 139.0642958  67.2999277  99.7999791 138.5687528  66.7168375
  98.5569550 140.3192869  67.3165671  95.5881967 136.0973785  66.9861772
  95.4947494 135.9993949  65.7518848  95.9189071 135.0090231  67.6277748
  96.1691668 135.1069520  68.6013657  95.9148516 133.6809186  67.0501081
  96.4642550 133.6705433  66.1087541  96.5811698 132.7341155  68.0046263
  96.2230138 132.9375192  69.0138093  96.3239519 131.7117880  67.7275243
  98.1374214 132.9119587  67.9572774  98.2490475 133.9698955  68.1947857
  98.6465592 132.3146256  68.7136332  98.7807447 132.6482879  66.6232164
  98.6466034 131.5290309  66.0866272  99.5652143 133.5105440  66.1016929
  99.9919734 133.3236792  65.2055569  99.7551246 134.3752281  66.5878584
  94.4682137 133.2330854  66.8505555  93.5934943 133.6255343  67.6353288
  94.1206864 132.3792300  65.8656668  94.8467058 132.0704044  65.2350942
  92.8089861 131.8944987  65.6655195  92.1426351 132.7494039  65.7804652
  92.7654264 131.5362497  64.6369964  92.3582411 130.7970191  66.5843827
  91.4208601 130.9383972  67.3534087  93.0419708 129.6835709  66.5492427
  93.4836941 129.4831740  65.6633415  93.1624661 128.6847479  67.6355228
  92.1935346 128.4356905  68.0682365  93.7595500 127.4042878  66.9827595
  93.7604868 126.6170890  67.7366934  93.1066472 127.1166442  66.1586969
  95.0467242 127.5897866  66.5081452  95.3646722 126.7724574  66.1176558
  93.9632001 129.0461868  68.8573244  95.0164963 129.7354786  68.8013538
  93.6524640 128.3972027  69.9523900  92.8154418 127.8401699  69.8564333
  94.2568252 128.5692489  71.3560658  94.9565465 129.4043741  71.3885498
  93.0998808 128.8631138  72.3136487  92.4945363 127.9665328  72.1802333
  93.3905624 128.9521781  73.3603922  92.2756682 130.1093416  71.8986009
  91.1341181 129.9630722  71.1302367  90.7335695 128.9858606  70.8605744
  90.4944781 131.1189154  70.6997762  89.6682165 131.0227785  69.9953961
  90.9677022 132.4253445  71.0812287  90.2255108 133.5714280  70.7837079
  89.4079070 133.3786865  70.3189775  92.1519061 132.5140393  71.8613750
  92.5119029 133.4813877  72.2117175  92.8499359 131.3600618  72.1760547
  93.8362663 131.4277853  72.6350383  95.2446756 127.5056281  71.8569004
  95.6752600 127.6282068  72.9717621  95.5392652 126.4506628  71.0339890
  95.2020350 126.5238928  70.0847722  96.2524582 125.2217440  71.4298530
  97.2102848 125.4109076  71.9145018  95.3864557 124.3365972  72.3696210
  95.2293229 124.9032411  73.2874026  94.0600386 123.9411035  71.7936092
  94.2163780 123.3739842  70.8759847  93.5199296 123.3255661  72.5129814
  93.4780545 124.8358066  71.5724701  95.9828677 123.0173336  72.9460646
  96.8700995 123.2465444  73.5363053  95.2419648 122.5292760  73.5792805
  96.2543013 122.3520971  72.1263787  96.6418752 124.4517053  70.2143762
  95.7464642 124.1014648  69.4318943  97.9013401 124.2524178  69.9833533
  98.4994481 124.7394047  70.6354346  98.4988874 123.7419819  68.7304437
  97.7428689 123.1270640  68.2421700  98.8824239 124.9098231  67.7759959
  98.0353076 125.5924669  67.7089834 100.1176376 125.6740498  68.2841776
 100.9653411 124.9921169  68.3510165 100.3556481 126.4820365  67.5923620
  99.9081003 126.0900857  69.2696267  99.2843537 124.3352066  66.3566181
  98.4420277 123.7875078  65.9339894  99.5516712 125.1578963  65.6934269
 100.1364845 123.6640249  66.4638052  99.4831404 122.5802779  68.8726257
 100.3257271 122.6035578  69.7059934  99.3127651 121.4998228  68.0921502
  98.4489102 121.4046243  67.5775714 100.2627950 120.3766396  68.0740514
 100.2831288 119.8741317  69.0410941  99.6754666 119.4409403  67.0600765
  99.6568235 119.9267314  66.0844949 100.2826970 118.5374895  67.0039669
  98.6593506 119.1774848  67.3536726 101.7674273 120.8356249  67.8367009
 102.0333023 121.8693616  67.2340353 102.7102594 120.1425604  68.4594016
 102.4892654 119.2957222  68.9635109 104.1381116 120.5390169  68.3391706
 104.2010946 121.4956891  67.8206046 104.8167915 120.6825657  69.7309038
 104.4652439 119.8631911  70.3579117 105.8933963 120.5925989  69.5862384
 104.5101458 121.9892121  70.3984663 104.9855193 122.7272217  69.7523528
 103.4269975 122.0754700  70.3121439 104.9963230 122.2985844  72.1122325
 106.7434427 122.4650446  71.8972866 106.9493281 123.2930153  71.2189248
 107.2116464 122.6612561  72.8618523 107.1479246 121.5436227  71.4783865
 104.8272168 119.4244298  67.6674799 105.7969550 119.6937860  66.9368767
 104.4852515 118.1965946  67.9833876 103.5793620 118.1457039  68.4270920
 105.2020280 117.0153778  67.8083464 105.5264537 116.9125122  66.7728438
 106.4484175 117.0527663  68.7133951 107.0214824 117.9496977  68.4784269
 106.1219706 117.0926657  69.7525969 107.3359927 115.8031534  68.4994726
 108.0150854 115.9013854  69.3463991 106.8870656 114.8099283  68.5076929
 108.1156708 116.0004357  67.1941099 109.2839808 116.3672168  67.1730063
 107.4933942 116.0022215  66.1039170 104.2221976 115.8832986  68.1826910
 103.7796552 115.9099997  69.3816728 103.9505427 114.9146501  67.3065770
 104.2786401 114.9826020  66.3537738 103.0994667 113.7575158  67.6763889
 102.6556703 113.9399273  68.6550972 102.0172651 113.6499301  66.6810482
 102.4990483 113.4775342  65.7186216 100.9882198 112.5410885  66.9437913
 100.5056568 112.7130754  67.9059000 100.2365059 112.5478573  66.1545007
 101.4909330 111.5740390  66.9577634 101.2529723 114.8490007  66.6702710
 100.5497868 114.7744197  66.0209882 103.9555234 112.4822528  67.7674723
 105.0293232 112.2546028  67.1906157 103.3437968 111.5455209  68.5286773
 102.3684827 111.6776522  68.7553996 104.0830941 110.3655730  69.1641460
 105.0480034 110.2608673  68.6680756 104.3184101 110.5266349  70.6505563
 103.3630385 110.6846970  71.1509368 104.8400794 109.6924714  71.1197391
 105.1471322 111.7521335  70.9097123 104.4983641 112.9537815  71.2999544
 103.4252627 113.0022558  71.4848964 105.2992927 114.1207921  71.4476759
 104.7858316 115.0402660  71.7287915 106.7450827 114.1257412  71.2407029
 107.3349181 115.0305801  71.3871975 107.3953052 112.8935036  70.8318553
 108.4618882 112.8087888  70.6237106 106.5479812 111.7456787  70.7070115
 106.9751394 110.7796032  70.4380619 103.2904538 109.0889827  68.8125090
 102.1965558 108.8964404  69.4134588 103.7684482 108.3028192  67.8650211
 104.6405208 108.6276839  67.4725270 103.1090978 107.2035361  67.2334716
 102.1075814 107.4716007  66.8970112 103.8988275 106.7667093  66.0639681
 103.9339454 107.6493744  65.4253999 105.2916323 106.2292357  66.2532982
 105.2572654 105.3462243  66.8914278 105.7127808 105.9605874  65.2845045
 105.9151163 106.9910413  66.7212945 103.2184921 105.7596470  65.3745052
 103.7390738 105.4826157  64.6169771 102.7007485 106.0854563  68.1538293
 103.3854986 105.8122243  69.0858039 101.5380561 105.5155514  67.9965788
 100.9556320 105.8752422  67.2539456 100.9639873 104.4910388  68.9097786
 101.7812356 103.9550233  69.3923673 100.0700444 105.1030823  69.9961155
 100.6751417 105.7597809  70.6211782  99.3885379 105.7029450  69.3929457
  99.2564990 104.2023720  70.8900029  99.7473106 103.1954878  71.3139584
  98.0851501 104.6116775  71.2486110  97.5129155 104.0334928  71.8472343
  97.7469495 105.5079975  70.9287179 100.2246637 103.3523464  68.1247912
  99.2521030 103.6921113  67.4072820 100.6156056 102.0812959  68.2143021
 101.4825408 101.8785986  68.6912051  99.8730133 100.9630793  67.6115675
  99.5846485 101.1797915  66.5829856 100.7949159  99.7852556  67.6114484
 101.1106711  99.7251002  68.6529758 100.1856847  98.9153180  67.3662017
 102.0459758  99.8160571  66.6927502 102.6994664 100.6389265  66.9824687
 102.7802153  98.5199213  66.8417378 102.1274723  97.6965581  66.5517405
 103.6626566  98.5260027  66.2019245 103.0858621  98.3921695  67.8801789
 101.7345356 100.0593979  65.2050929 101.2321894 101.0199760  65.0909113
 102.6636445 100.0658407  64.6351663 101.0869182  99.2649395  64.8342472
  98.5983930 100.6645880  68.3538795  97.5836192 100.3804509  67.7468480
  98.5224150 100.6739302  69.6904595  99.3573324 100.9940145  70.1600957
  97.3310235 100.2595735  70.5402293  97.0448122  99.2475183  70.2540014
  97.6398464 100.2673620  71.5855365  96.1059344 101.1991800  70.3680362
  96.2757125 102.3607333  70.0137057  94.9350339 100.7340740  70.6757188
  93.7315801 101.5167278  70.7400458  93.5306931 101.8969389  69.7384549
  93.9162762 102.3523924  71.4150650  92.6106100 100.5757297  71.2562654
  91.9245254 100.3324591  70.4449662  92.0606610 101.0587269  72.0639604
  93.3573586  99.3042160  71.7725109  92.8450100  98.3525995  71.6310051
  93.6038549  99.4303130  72.8267588  94.6212583  99.3373209  70.9388528
  95.4349853  98.9568013  71.5562275  94.4507307  98.4391571  69.7098845
  93.6919339  98.7237870  68.8060553  95.0901332  97.2527924  69.7370926
  95.7982391  97.0296244  70.4218419  94.9180694  96.3549863  68.6048068
  94.5036799  96.7737775  67.6877493  96.2812834  95.7051731  68.3018837
  96.6415769  95.2752118  69.2364544  96.2435941  94.6000629  67.2021019
  95.8838150  95.0294046  66.2670483  97.2463139  94.1988033  67.0549814
  95.5742734  93.7985009  67.5145237  97.3453948  96.8272800  68.0328637
  97.1549063  97.2344137  67.0398596  97.2003200  97.6083424  68.7791842
  98.7739194  96.3177368  68.1051083  98.9198959  95.5369149  67.3587117
  99.4634939  97.1391496  67.9105136  98.9653089  95.9108413  69.0980363
  93.7767545  95.4587643  68.7924535  93.7915910  94.3977026  69.4166226
  92.6130760  95.8250292  68.2652881  92.5624902  96.6828492  67.7345477
  91.3427922  95.0010270  68.4284944  91.1914857  94.6828256  69.4599756
  90.1588356  95.8891185  68.0093654  89.2458761  95.2953513  67.9641462
  89.9939734  96.9944471  69.0421108  90.9064306  97.5889688  69.0875725
  89.1577741  97.6342054  68.7600107  89.7994552  96.5530579  70.0195768
  90.3869050  96.5102982  66.6118247  90.5008575  95.7155576  65.8745973
  89.5318887  97.1318976  66.3460036  91.2889709  97.1219402  66.6283227
  91.3672526  93.7235516  67.5443991  90.6843758  92.7615306  67.8824019
  92.0942625  93.7558631  66.4360636  92.5667601  94.6223465  66.2214667
  92.1253035  92.6750946  65.4323476  92.3308714  91.7198450  65.9153996
  90.7498151  92.5831445  64.7154837  89.9665529  92.7656943  65.4511978
  90.6699182  93.3146754  63.9113823  90.5902292  91.1711683  64.1391830
  91.2494087  90.1873610  64.5827532  89.8126418  90.9922410  63.1813204
  93.3334978  92.8103869  64.4586837  93.6508160  93.9373071  64.0986546
  93.9588199  91.7622855  64.0022773  93.5778062  90.8724503  64.2905848
  95.1962118  91.7658287  63.1919312  95.1715596  92.6005549  62.4914144
  96.4584764  91.9136063  64.1003301  97.2293693  92.2594287  63.4116863
  96.1902323  92.7221381  64.7803458  96.9767310  90.7548502  64.8855554
  96.1295345  90.2392608  65.3378014  97.4904409  90.0785007  64.2023604
  98.0919110  91.2555506  66.1512870  98.5829223  89.5299722  66.5928085
  99.0234584  89.0431231  65.7227483  99.3121793  89.5550838  67.4025333
  97.7032117  88.9722520  66.9139918  95.3643754  90.5785197  62.3112131
  95.0239915  89.4471365  62.7153677  96.0776602  90.7668028  61.2262545
  96.4687795  91.6771964  61.0305289  96.2243726  89.7318412  60.2330193
  96.0277014  88.7678066  60.7021216  95.2493452  89.9083532  59.0294305
  95.3530172  89.0686055  58.3422805  94.2216419  89.9579883  59.3892393
  95.5008920  91.3649130  58.0639256  94.5172251  91.1306217  57.1999782
  97.6515380  89.6336055  59.7690950  98.3474390  90.6940992  59.7471657
  98.1540906  88.4522119  59.3816366  97.8508360  87.6010272  59.8328801
  99.3231782  88.3889158  58.4795569  99.8077500  89.3516425  58.3169333
 100.3893727  87.3756381  58.9988783  99.8132052  86.6135811  59.5236634
 101.3164956  86.7074463  57.9932598 101.8933708  87.4688962  57.4683693
 101.9956124  86.0339744  58.5160757 100.7253008  86.1403378  57.2742478
 101.2764683  88.0183696  60.1118400 100.6471955  88.3226535  60.9482186
 102.0114433  87.2910114  60.4566027 101.7908237  88.8907018  59.7086331
  98.9934229  88.2273155  57.0712487  98.1354022  87.4004296  56.8212302
  99.6515037  88.9609474  56.1754677 100.1712875  89.7554937  56.5198808
  99.4484634  88.8403994  54.7467627  99.2629066  87.7877051  54.5334494
  98.3307825  89.6869623  54.0778540  98.5908973  90.7450771  54.1067074
  98.2032647  89.2388461  52.6399040  97.9426915  88.1808656  52.6102431
  97.4234975  89.8185439  52.1459262  99.1515216  89.3935238  52.1251366
  96.9579156  89.5663886  54.8083794  97.0621910  89.9091852  55.8378060
  96.2174563  90.1797614  54.2949659  96.6333638  88.5258387  54.8035932
 100.8248644  88.9380619  54.0872907 101.5145253  89.9779358  54.1642396
 101.2363979  87.8839683  53.4089281 100.8323431  87.0025456  53.6916525
 102.3824099  87.8639795  52.4148159 103.2339144  88.4428028  52.7725908
 102.8168877  86.3890799  52.2627297 102.8840567  85.9357944  53.2517291
 102.1385226  85.8047030  51.6410992 104.1832235  86.4140548  51.6282418
 104.8979300  87.4725905  51.5891801 104.6306352  85.3668093  51.0703112
 102.2025830  88.6069115  51.0475064 101.9698668  87.9760129  49.9779555
 102.2094889  89.9282128  51.1454360 102.5343653  90.3527510  52.0023619
 101.8144059  90.8375966  49.9968401 100.7800821  90.6976425  49.6826965
 101.9675686  92.2709860  50.5767761 102.8242752  92.0793516  51.2228637
 102.2034496  93.0872574  49.8940161 100.7453791  92.6602567  51.4430256
 100.2906426  91.7302401  51.7841776 101.0719378  93.5345560  52.6434494
 101.5263155  94.4650191  52.3030407 100.1562947  93.7571108  53.1913252
 101.7676305  93.0091693  53.2977283  99.5017462  93.1730033  50.6825376
  99.1496865  92.4009363  49.9983843  98.7128805  93.4133459  51.3952982
  99.7641949  94.0669211  50.1167368 102.8401092  90.6136240  48.8437863
 104.0441391  90.6285330  49.0133553 102.2728684  90.3428720  47.6200223
 101.2669069  90.2668936  47.6686854 102.9589851  89.9482856  46.3347039
 102.2142208  89.9286681  45.5390655 104.1191156  90.9377657  45.9165145
 104.9478289  90.8098428  46.6129119 104.4472549  90.6771564  44.9102803
 103.6496616  92.4101724  45.9397890 102.7565377  92.5473679  45.3301926
 103.4032178  92.5802065  46.9878601 104.7170607  93.3999410  45.5037727
 105.8654272  93.3187513  46.0428382 104.5341548  94.2191954  44.5826138
 103.3733993  88.4768190  46.2985947 104.2176958  88.1044890  45.3935523
 102.9134360  87.5995643  47.2144489 102.1278929  87.9056264  47.7706388
 103.5722300  86.3522202  47.5773392 103.3195175  86.0804130  48.6022081
 103.1040193  85.2057349  46.6273818 103.4001370  85.4121145  45.5988776
 103.5235356  84.2497836  46.9408516 101.5064163  85.1433729  46.7202732
 101.1445168  85.5132309  47.6796140 101.0343773  85.7043639  45.9136938
 101.1657024  83.6942910  46.5846830 101.5144944  83.3840170  45.5997094
 101.7330704  83.1685979  47.3526933  99.7923508  83.3447576  46.7129708
  99.1284046  84.0977286  46.6020219  99.3300526  82.1167131  46.9066249
 100.2047395  81.1082475  47.1062720 101.1969435  81.2970100  47.1063340
  99.8630716  80.1694536  47.2546926  98.0449795  81.9510482  46.9553622
  97.4318867  82.7463081  46.8468311  97.6631261  81.0275262  47.1016289
 105.1002696  86.4243279  47.7159233 105.8224937  85.6059935  47.2120285
 105.6104661  87.4295018  48.4550674 104.9162019  88.0877140  48.7788779
 107.0233618  87.7700338  48.6279196 107.5541726  87.6540377  47.6829942
 107.1602519  89.2431750  49.0959718 106.4021649  89.8011209  48.5463358
 106.9115847  89.2419654  50.1572273 108.4844429  89.8830760  48.8993329
 108.5953203  90.8121664  49.4584377 109.1599067  89.1312195  49.3074535
 108.8720403  90.1466297  47.4144855 108.1865183  89.7428398  46.4971664
 109.8759435  90.9335704  47.1936785 110.1599581  91.1306944  46.2446900
 110.3704305  91.3467014  47.9714361 107.8489456  86.7537990  49.4442794
 109.0660993  86.8114457  49.3060770 107.1955860  85.8121912  50.1416650
 106.1880068  85.7733658  50.0835610 107.8888520  84.8207379  50.9983099
 107.2981894  83.9047014  50.9886110 108.8660035  84.6270684  50.5558548
 108.0761984  85.2672916  52.4224360 108.7223032  84.6302599  53.2768137
 107.4643365  86.3446921  52.8018399 106.7890845  86.6990088  52.1395757
 107.6948469  87.0822514  53.9802881 107.8893867  86.4226213  54.8259485
 108.9741676  87.9881449  53.7393696 109.8076800  87.3111790  53.5520904
 108.7774342  88.5777967  52.8439889 109.3288972  88.9272750  54.9031279
 108.8901985  89.9105356  54.7332961 108.8308789  88.4485029  55.7462514
 110.8087749  89.1050098  55.2463224 111.5627108  89.4204924  54.3091770
 111.2478345  89.0311060  56.4796779 112.2321034  89.1535341  56.6702758
 110.5997066  88.8520997  57.2333279 106.5070751  87.9010054  54.3944319
 106.2836067  88.9673595  53.8466220 105.6592206  87.3207471  55.1812337
 105.8642240  86.3508101  55.3743531 104.4845908  87.9086816  55.7906842
 103.6945227  87.9070363  55.0397589 104.1954944  87.2668515  56.6228961
 104.6770615  89.3282185  56.3038072 105.6929486  89.6120237  56.9469447
 103.6657095  90.1799024  56.1070160 102.9076373  90.0132814  55.4607472
 103.6833477  91.5076912  56.8838393 104.6200038  91.5459488  57.4399965
 103.5720764  92.7663869  56.0293202 102.5504005  92.8669833  55.6630445
 103.8289576  93.6376798  56.6317824 104.5490021  92.6651639  54.8204876
 105.6013292  92.4657065  55.0227873 104.1309883  91.8472514  54.2336437
 104.4461363  93.9281601  54.0223320 104.2183930  94.9917743  54.5509566
 104.7917709  93.9183535  52.7193096 104.7245632  94.7669751  52.1757785
 105.1163606  93.0624303  52.2925328 102.5049858  91.3765315  57.8256293
 101.4569831  90.7988725  57.4314587 102.5575346  92.0819867  58.9769484
 103.4273047  92.5626053  59.1575170 101.4971701  92.1864286  59.9608041
 100.7938167  91.3597286  59.8610023 102.1265363  92.1298873  61.3637679
 102.6963946  91.2065363  61.4676123 102.8106740  92.9782265  61.3443699
 101.1770375  92.2728957  62.5391527 100.6702949  93.2292995  62.4102941
 100.1322071  91.1558520  62.6869804 100.6382283  90.1991366  62.8163518
  99.5063640  91.3558063  63.5567156  99.5098425  91.1191299  61.7928808
 101.8734437  92.1843854  63.9014517 102.6153850  92.9787129  63.9830991
 101.1349033  92.2947339  64.6954810 102.3660585  91.2166682  63.9960720
 100.7537769  93.4907398  59.7532642 101.3685820  94.5270629  59.6404711
  99.3933814  93.3934143  59.7037505  99.0390291  92.4481131  59.6730979
  98.4654636  94.4743796  59.5243583  98.9460589  95.4280614  59.7425748
  97.9675517  94.5007143  58.1057635  97.3379708  93.6255271  57.9452187
  97.1627717  95.7666931  57.8158447  97.7918685  96.6423487  57.9757363
  96.8193762  95.7506428  56.7814741  96.3021176  95.8115305  58.4832020
  99.0468959  94.4468336  57.0234937  99.6216737  93.5266492  57.1283419
  98.5775619  94.4713859  56.0400190  99.7117750  95.3040114  57.1297147
  97.3219122  94.5479725  60.5371668  96.4426779  93.7187284  60.6208824
  97.4688527  95.5348156  61.3745862  98.1559390  96.2479121  61.1758273
  96.6331174  95.6749137  62.6228778  96.1454901  94.7262011  62.8470727
  97.4632173  96.0912577  63.8273286  96.7972889  96.0587661  64.6896417
  98.6985250  95.2224618  64.1022226  99.3651896  95.2548299  63.2404743
  99.2217632  95.6013455  64.9801565  98.3870338  94.1934184  64.2815088
  97.8885792  97.4438745  63.5856070  98.4188924  97.7495390  64.3251591
  95.5606306  96.7613048  62.4333697  95.8162661  97.8948991  62.1379526
  94.3872934  96.4092863  62.9049372  94.0792576  95.4474104  62.9020787
  93.4634293  97.4423519  63.4357184  93.3235058  98.2317748  62.6972523
  92.0697560  96.8050007  63.7569956  92.1127633  96.1590954  64.6339539
  91.3015944  97.5644078  63.9030390  91.5064357  95.7877779  62.4263765
  90.3628945  95.4269489  63.0017148  94.0378940  98.0660758  64.6842735
  94.7777206  97.4393303  65.4546784  93.8671863  99.4111374  64.8755565
  93.1156383  99.7217296  64.2765511  94.6105385 100.4220773  65.6427938
  94.7856976 100.0431618  66.6496907  95.9976323 100.7664884  64.9871713
  96.7056531  99.9450170  65.0966729  95.8893717 101.0138247  63.9311389
  96.4663497 101.8750320  65.6754511  97.3183221 102.1365666  65.3186002
  93.8055540 101.6874679  65.9179605  92.8951279 102.1469018  65.2184965
  94.0349266 102.2610770  67.0929425  94.7409424 101.8654545  67.6971973
  93.2969106 103.4656818  67.5639007  93.6933520 103.7511798  68.5382847
  93.4685105 104.2728133  66.8517269  91.8233403 103.2299360  67.6874342
  91.3604721 102.0829542  67.8878333  91.0490837 104.3238797  67.8136755
  91.5625450 105.1830503  67.9488889  89.5743811 104.3644438  67.9185132
  89.2318728 103.6451117  67.1746392  89.0906879 103.9074206  69.3020140
  89.4181961 104.6226408  70.0565327  88.0022715 103.8488111  69.3058766
  89.5076879 102.9258647  69.5273099  88.9669657 105.7528937  67.5158688
  89.6488291 106.7907982  67.7012212  87.7067146 105.7898310  67.0917666
  87.2196213 104.9058440  67.0542631  86.9706318 107.0197756  66.6849023
  86.0282353 106.7644580  66.2003397  86.6646420 107.8509246  67.9552009
  87.6018512 108.1608656  68.4174506  86.0333350 108.7247047  67.7937705
  85.9401994 106.9695180  68.9802908  84.6454432 106.5870570  68.9008731
  84.0723073 106.9175130  68.0346088  84.0479636 105.8090876  69.8645047
  83.0024237 105.5105996  69.7880067  84.8196376 105.3968541  70.9699982
  84.3706486 104.7651936  71.7364927  86.2000096 105.8079567  71.0897466
  86.8444062 105.5078812  71.9160686  86.6966245 106.6257576  70.0838096
  87.7117682 107.0170144  70.1509014  87.8710103 107.8457990  65.7134529
  88.3534457 107.2680386  64.7585209  88.0376822 109.1446997  65.9004726
  87.5031439 109.6017370  66.6253760  88.8761033 109.9947453  64.9916428
  88.5702495 109.8696570  63.9529390  88.6808090 111.4726613  65.3884719
  89.1192090 112.0986012  64.6112306  87.6114110 111.6727418  65.4552233
  89.3395773 111.7866711  66.7238087  88.8403402 111.2324294  67.5185912
  90.3915920 111.5034847  66.6895655  89.2230225 113.3056266  67.0023464
  89.3485369 113.8549121  66.0692705  88.2402890 113.5219405  67.4213245
  90.3152060 113.7371110  68.0038465  90.3997808 112.9709702  68.7745447
  91.2614305 113.8198608  67.4691401  89.9885447 115.0405675  68.6358533
  89.1119977 114.9639838  69.1317365  90.7209174 115.2934953  69.2837404
  89.9105526 115.7507162  67.9219169  90.3123410 109.5274852  64.9943271
  90.9907696 109.6932631  64.0017998  90.7608326 108.9330595  66.1134287
  90.2648619 109.0984379  66.9775828  92.1239500 108.2871379  66.1826975
  92.8355129 108.8159719  65.5485745  92.5981334 108.3479851  67.5731628
  91.9898927 107.6120127  68.0989832  93.6290567 107.9975676  67.5231158
  92.5483858 109.6845051  68.3263869  91.5038527 109.9776218  68.4319047
  92.9604397 109.4503434  69.3079565  93.3169321 110.8016859  67.7209534
  92.7207837 111.8279595  67.3754530  94.5684293 110.6553865  67.6407211
  92.2768095 106.9458106  65.4732779  93.3962475 106.4989072  65.1643655
  91.2042623 106.3636283  64.8940368  90.3477356 106.8943854  64.9630170
  91.1681159 105.0489384  64.1831289  91.5091365 104.2710529  64.8662821
  90.1416621 104.8416489  63.8806012  92.0398686 105.0486863  62.9735653
  91.8933572 105.8313059  62.0486210  92.8350209 103.9829899  63.0025640
  92.7905423 103.4211841  63.8407140  93.8650955 103.6453971  61.9793615
  93.5521733 104.0223315  61.0056575  95.2490963 104.2924492  62.3471919
  96.0105645 103.8991156  61.6737276  95.1761783 105.3726687  62.2210623
  95.6107156 103.9918887  63.7076447  96.4575411 104.3960852  63.9104045
  94.0923388 102.1643092  61.6147534  93.6371860 101.3173131  62.3080604
  94.9191038 101.9176585  60.5466425  95.1518161 102.7202557  59.9793841
  95.4196568 100.6628568  60.1622268  95.2462430  99.9290543  60.9493485
  94.7016365 100.1937510  58.8864503  94.9586522 101.0216622  58.2256892
  95.2236508  99.2940385  58.5606920  93.1431201  99.9449410  58.8361693
  92.6312208 100.8771075  59.0751787  92.7264320  99.4847399  57.4990036
  93.2376008  98.5523088  57.2594679  91.6489225  99.3204347  57.4901717
  92.9842541 100.2407398  56.7573216  92.6996973  98.9643015  59.9346871
  92.9543852  99.3736378  60.9122746  91.6219072  98.8132760  59.8741810
  93.2080655  98.0099482  59.7973170  96.9182993 100.8375314  59.9657366
  97.4100173 101.8367136  59.4416199  97.6720561  99.8068402  60.4176751
  97.3008981  98.9532001  60.8096438  99.1152360 100.0434294  60.5094546
  99.3946722 100.7362122  59.7156873  99.5458271 100.6014728  61.7891783
  99.5293503  99.7684566  62.4919669 100.5749366 100.9260839  61.6353556
  98.6927249 101.8068136  62.3767753  98.7785230 102.6729237  61.7205796
  97.6459276 101.5132410  62.4550865  99.2153007 102.1565445  63.7347532
  99.0383465 101.3144476  64.4038265 100.2869406 102.3408038  63.6590184
  98.5734061 103.3460432  64.2978280  97.5832094 103.2071050  64.4403275
  99.0956660 104.5232141  64.6005543 100.3838008 104.8415215  64.6071332
 101.0740029 104.1458490  64.3626728 100.6681613 105.7780142  64.8565727
  98.3235791 105.4715046  64.9539661  97.3265644 105.3165871  64.9993788
  98.7116764 106.3743038  65.1872744  99.8007661  98.7678566  60.1129127
  99.2830528  97.6279673  60.2084657 100.9798308  98.8929204  59.4632671
 101.4542915  99.7824739  59.5239384 101.5695454  97.8256612  58.5699063
 101.0945496  96.8496833  58.6696322 101.4195958  98.3225847  57.1233051
 101.9220422  99.2891523  57.0859544 101.9786804  97.4180794  56.0341359
 101.4763582  96.4514118  56.0705613 101.8125386  97.8767910  55.0594148
 103.0480652  97.2774101  56.1913853  99.9774634  98.6096161  56.7788155
  99.5534395  97.6515561  56.4781069  99.5144869  98.9348866  57.7104546
  99.7182537  99.6264839  55.7116851 100.1805648  99.3016586  54.7795602
  98.6435362  99.7344339  55.5653012 100.1416145 100.5849891  56.0119073
 103.0274444  97.5132929  58.9957683 103.8467788  98.3457426  58.8649071
 103.2923838  96.3536687  59.5679474 102.5734419  95.6587041  59.4256583
 104.4514783  95.9980032  60.4033605 105.1733518  96.8122744  60.3404305
 104.2068420  95.6607216  61.8348476 103.5793371  94.7736097  61.9206983
 105.6112934  95.3744597  62.4853577 106.2392428  96.2613336  62.4002991
 105.4802718  95.1222388  63.5376498 106.0883151  94.5412932  61.9692346
 103.4102897  96.7991079  62.5825233 103.7837262  96.7992434  63.6065574
 103.6939476  97.7306558  62.0927721 101.8713395  96.6730722  62.5962471
 101.5868851  95.7419207  63.0862904 101.4421615  97.5148698  63.1396459
 101.4971066  96.6733308  61.5725042 105.1648709  94.7982202  59.7499128
 104.7574353  93.6201258  59.7636111 106.3482559  95.1752262  59.1637692
 106.6682643  96.1019527  59.4064049 107.2165297  94.3349442  58.3226492
 106.7395062  93.3701633  58.1501807 107.4650722  94.9937452  56.9913769
 106.4869654  95.1456523  56.5349444 107.9195153  95.9609941  57.2058790
 108.3575915  94.2149819  56.0320892 109.3886890  94.2757985  56.3802848
 108.0394222  93.1725146  56.0205902 108.2590152  94.8112791  54.5728527
 107.2280238  94.7693123  54.2215771 108.6018883  95.8459387  54.5687163
 109.1221100  94.0132898  53.6319103 108.6177345  93.2309501  53.2399290
 110.4258738  94.1262146  53.3698208 111.0671176  95.1748032  53.7546899
 110.5802792  95.9062290  54.2527910 112.0537642  95.2606873  53.5565686
 111.0985263  93.2666391  52.5929666 110.6151858  92.4854049  52.1732581
 112.0859056  93.4037654  52.4305558 108.5810118  94.2712648  59.0265402
 109.0729508  95.2602536  59.6001708 109.1828493  93.1011615  59.1177048
 108.6296598  92.2750330  58.9399622 110.6414204  92.9190578  59.5589517
 110.7817274  93.1439527  60.6162290 110.9545137  91.4786559  59.3324899
 110.2988585  90.8700622  59.9552493 110.7099464  91.3175786  58.2825657
 112.3794215  91.0462561  59.5669962 113.2205162  91.4058476  58.8021376
 112.6281420  90.3600500  60.6236969 113.5717845  90.0535115  60.8125695
 111.8789188  90.1301969  61.2608255 111.7131935  93.8465294  58.8654844
 111.5173766  94.1727773  57.7003153 112.7765655  94.2207789  59.6250608
 112.7654717  93.8574859  60.5673954 113.8769893  95.0509547  59.2293497
 114.0888940  94.9749012  58.1628547 113.4180925  96.5008276  59.5418209
 113.2108844  96.5951261  60.6077818 114.2060479  97.2001123  59.2621292
 112.5147049  96.7266175  58.9752444 115.1457939  94.7496559  59.9689037
 115.1019813  93.9535686  60.8720905 116.2908797  95.3792209  59.5744581
 116.2384399  96.0837845  58.8526966 117.5717044  95.1248104  60.1911016
 117.9674705  94.1199340  60.0438207 118.5413437  96.1344084  59.5497298
 118.1631696  97.1460477  59.6969383 119.5226505  96.0425843  60.0152463
 118.6255992  95.9303098  58.4823292 117.5053276  95.4121315  61.7574370
 117.7060629  96.5554087  62.1893301 117.3566527  94.3190254  62.5422273
 117.1403204  93.5162725  61.9687402 117.2776648  94.1758217  63.9839341
 116.9742191  93.1649993  64.2564375 118.6796583  94.4101026  64.4869209
 118.9942884  95.4214790  64.2295775 118.7030065  94.2873383  65.5697339
 119.3566317  93.6910954  64.0255805 116.1148838  95.0345186  64.5180698
 116.3063045  95.7759336  65.5015869 115.0157704  95.1336180  63.8029152
 114.8023263  94.3816895  63.1632712 114.0896327  96.3027897  63.8547663
 113.8174273  96.6161036  64.8626541 114.7540765  97.4564264  63.1559967
 115.0243598  97.1609164  62.1422311 114.0675544  98.3021395  63.1165373
 115.6526919  97.7437464  63.7019242 112.8103080  95.8731402  63.1876684
 112.6139175  94.7264417  62.6977803 111.9030199  96.8441997  63.1697324
 112.0827806  97.7152741  63.6482873 110.6279714  96.7196370  62.3578251
 110.7192638  95.8543907  61.7012325 109.3584755  96.5431263  63.2390273
 109.4134788  97.3934823  63.9187100 108.4361934  96.5998460  62.6608590
 109.3748219  95.2425807  64.0469003 110.4161689  95.0544280  64.3082349
 108.5413351  95.2487863  65.2914823 107.4997121  95.4364326  65.0308879
 108.6225006  94.2821328  65.7885676 108.8944157  96.0323172  65.9619403
 108.9950220  94.0290977  63.1609026 109.7087531  93.9389122  62.3420291
 109.0150353  93.1196772  63.7614483 107.9937728  94.1740096  62.7551939
 110.2864442  97.9754798  61.5589033 110.2072869  99.0523113  62.1550223
 110.0733415  97.8945278  60.2414633 110.5160976  97.1340529  59.7457373
 109.3942389  98.9278925  59.4617069 109.7127455  99.8960925  59.8480248
 109.6814788  98.8838306  57.9271901 110.7456630  99.1125387  57.9846684
 109.5339251  97.9956786  57.3127685 109.0311885 100.0329640  57.1898184
 108.8568868 101.3593741  57.6488349 108.4959598 102.0931866  56.5879721
 108.1790320 103.1192037  56.7749070 108.5944796 101.4127389  55.4704454
 108.5508987 101.7706489  54.5269938 108.7726632 100.0888337  55.8056579
 108.7001180  99.3178733  55.0385474 107.9359625  98.9666534  59.7448279
 107.2057151  97.9462388  59.6903307 107.5146194 100.1762004  60.0018356
 108.1715166 100.9421128  60.0461481 106.1040466 100.4571264  60.2623639
 105.4030379  99.6725732  59.9774739 105.9668011 100.7481125  61.7966027
 106.5330355 101.6520501  62.0210484 104.5150489 100.9393654  62.2220916
 103.9482445 100.0356053  61.9983707 104.4729363 101.1382711  63.2929622
 104.0847479 101.7811244  61.6795217 106.6562340  99.6935795  62.6285241
 106.5085036  98.7744041  62.0616086 107.7080592  99.9772004  62.5921579
 106.2375764  99.4668634  64.0890766 105.1859141  99.1827382  64.1262148
 106.8438659  98.6712243  64.5220553 106.3854677 100.3855360  64.6567638
 105.4780199 101.6310201  59.4938120 106.0458983 102.6938265  59.5704062
 104.3144183 101.3809122  58.8698301 103.8945955 100.4688252  58.9791258
 103.6060222 102.4045045  57.9753942 104.1864235 103.3269958  57.9597952
 103.4530146 101.8950962  56.5307704 103.1127841 100.8615362  56.5947716
 102.6795708 102.5032835  56.0617363 104.7505454 101.9609621  55.6790941
 105.0648451 103.0046513  55.6736779 105.4950378 101.3605642  56.2019281
 104.6112752 101.4539022  54.2143764 105.5882642 101.5376954  53.7383825
 104.3144080 100.4057603  54.2513609 103.6272706 102.1949816  53.4061052
 103.8636658 103.1760861  53.4467330 102.6881404 101.8046158  52.5533127
 102.2366738 100.5788955  52.4289239 102.6104433  99.8446159  53.0130727
 101.5174967 100.3753969  51.7496064 102.0162658 102.7451511  51.9510372
 102.2244274 103.7141013  52.1457275 101.2906061 102.5006292  51.2924585
 102.2056325 102.6843734  58.6042623 101.5870630 101.7265855  59.0284779
 101.6776794 103.9301657  58.5551366 102.1495998 104.7053312  58.1118434
 100.3332489 104.1790891  59.1854014  99.8206692 103.2745688  59.5128220
 100.6036170 105.0720466  60.4250360 101.1816736 105.9160973  60.0488323
  99.3779369 105.5975913  61.2185309  98.7996091 104.7540544  61.5954687
  99.7201216 106.2059279  62.0557497  98.7519308 106.2024604  60.5625201
 101.4117078 104.4266030  61.3725521 101.5550935 105.0099935  62.1213488
  99.2339622 104.8984300  58.3287209  99.4541877 106.0398995  57.8723625
  98.1294449 104.2345575  58.0710177  98.1172066 103.2500629  58.2962285
  96.9400575 104.8192012  57.4532610  97.1785137 105.7127132  56.8763084
  96.2845082 103.7905157  56.5173917  95.8742782 103.0195936  57.1696874
  95.1665672 104.3131897  55.5640100  95.5761858 105.0838710  54.9110446
  94.7890078 103.4885188  54.9594709  94.3519987 104.7330296  56.1541916
  97.3313779 103.1417406  55.6477648  98.0649016 102.6370368  56.2765088
  96.8571608 102.4147443  54.9884514  97.8300023 103.9037330  55.0487304
  95.8357180 105.3211753  58.4167850  95.3476005 104.4901249  59.2318994
  95.4284850 106.5890903  58.4036073  96.2548086 107.6616815  57.7874243
  96.2860996 107.5352723  56.7052312  97.2687830 107.6288050  58.1860143
  95.5012810 108.9275981  58.2106514  94.7055886 109.1840402  57.5112159
  96.1692129 109.7808008  58.3290305  94.9298280 108.4797912  59.5770849
  94.1100003 109.1522486  59.8296367  95.6499060 108.4623298  60.3951818
  94.3954778 107.0884584  59.3310909  94.3861532 106.4428650  60.2092824
  92.9683110 107.1000402  58.6755988  92.6939128 107.6619142  57.6184639
  92.0701389 106.3290564  59.2029629  92.3350714 105.7776812  60.0066392
  90.6483413 106.2814856  58.7494143  90.6170353 106.2300565  57.6610788
  89.9335841 105.0750773  59.3103262  89.9480104 105.2485261  60.3863405
  88.9010833 105.0088923  58.9673077  90.6718791 103.7449081  58.9902571
  91.6706196 103.7812441  59.4253410  89.9220725 102.5753322  59.5569921
  88.9233262 102.5380626  59.1220029  90.4545429 101.6535875  59.3225508
  89.8428714 102.6834932  60.6387170  90.9954636 103.4623346  57.5211413
  91.6369575 104.2526725  57.1313322  91.5093594 102.5045552  57.4394654
  90.0708330 103.4282641  56.9449500  89.7623752 107.4516072  59.2512058
  88.8458276 107.8142557  58.5234555  89.9782247 107.9147600  60.4595726
  90.7326220 107.4023535  60.8936505  89.1872131 108.8826461  61.3094539
  89.6544743 108.9891802  62.2884414  89.1460067 110.2465323  60.6399425
  88.5843833 110.0415415  59.7285385  88.5615650 110.9007856  61.2868432
  90.4601402 110.9279243  60.2834682  91.0799838 111.7633213  61.2327036
  90.6650260 111.7345989  62.2402176  92.1632911 112.5956239  60.9477150
  92.4567801 113.3732455  61.6528894  92.7647431 112.5451469  59.6397542
  93.9028024 113.2590528  59.3492471  94.2263477 113.7691044  60.0954143
  92.2506477 111.5905658  58.7343538  92.7874602 111.4510008  57.7960285
  91.0569419 110.8095299  59.0116684  90.6450491 110.1529043  58.2453218
  87.8224733 108.3667159  61.7770246  86.9435304 109.1785009  62.1185176
  87.6206903 107.0187007  61.8849354  88.3807028 106.5324354  61.4310341
  86.5179049 106.2035046  62.4952253  86.0866117 106.7310260  63.3459934
  85.3927436 105.9602687  61.4349040  84.6061974 105.3829157  61.9208133
  85.0010297 106.9354670  61.1456833  85.8900642 105.1939059  60.1532358
  86.7101764 105.7671225  59.7208706  86.2623359 104.2272346  60.4924401
  84.8263729 104.9839616  59.1168333  84.8662472 103.9398633  58.5366008
  83.9544933 105.8605209  58.9035900  87.0574296 104.8451629  63.0173115
  88.1482849 104.3629260  62.6762187  86.3232450 104.1319820  63.9049088
  85.3844337 104.4646426  64.0724488  86.8104513 102.9339710  64.6898997
  87.7992564 103.1408367  65.0992530  85.8605474 102.6205954  65.8435701
  84.8877791 102.3788391  65.4153470  86.2526812 101.7493207  66.3681762
  85.7206967 103.6983770  66.7559760  85.1152447 103.4473133  67.4573993
  86.9701533 101.6770234  63.7852052  85.9162177 101.1241643  63.4622369
  88.2461553 101.2128762  63.4757104  89.5135543 101.8146435  63.7408652
  89.5686749 102.0642009  64.8004798  89.6003353 102.7255681  63.1485946
  90.5526905 100.7385662  63.3271111  90.8397605 100.1355889  64.1885682
  91.4391674 101.2094577  62.9022333  89.8283878  99.9056238  62.2836565
  90.2160221  98.8868894  62.2793057  89.8284494 100.2981874  61.2668018
  88.4104266  99.9185212  62.8464679  87.7313758  99.8205572  61.9994783
  88.0791745  98.8301537  63.9029808  88.6658860  98.8242191  64.9679763
  87.2452456  97.8533685  63.5048550  86.9072445  97.8376800  62.5532204
  86.7292643  96.8387973  64.4489258  86.9836687  97.0962448  65.4770787
  85.1457152  96.7999368  64.3118603  84.9023833  96.7544352  63.2503433
  84.7888946  95.8957087  64.8049634  84.4607485  98.0395824  64.9466016
  84.6044878  98.0621700  66.0268468  84.8356006  98.9659028  64.5112642
  82.9845640  97.8974996  64.6367733  82.5020804  98.8379918  64.9028239
  82.8896211  97.7318809  63.5636211  82.2779905  96.7596183  65.3721332
  81.7789774  96.0658844  64.8337852  82.2571843  96.6719042  66.6615844
  82.7660936  97.5006068  67.5045852  83.2444684  98.3253568  67.1713509
  82.6846790  97.3222587  68.4953744  81.7359086  95.6817129  67.2274084
  81.3273902  94.9437099  66.6719227  81.7270981  95.6269811  68.2358852
  87.3404233  95.4603967  64.2469124  87.7092766  94.8906193  65.2723967
  87.4995574  94.9219938  62.9931391  87.6135871  95.6233351  62.2753529
  87.7867055  93.4911900  62.6420189  88.3936366  93.0445310  63.4295655
  86.4788329  92.6597497  62.4896658  85.7044684  93.2793755  62.0374239
  86.6693210  91.7953267  61.8535942  86.0010599  92.1743680  63.9004750
  86.0290274  93.0558356  64.5410477  84.9674405  91.8545987  63.7682606
  86.8274517  91.0137563  64.5693301  86.8297115  90.1524069  63.9013696
  87.8509850  91.3544989  64.7254503  86.1992128  90.6069582  65.9412981
  86.1105129  91.5003962  66.5593608  85.2078278  90.1925443  65.7582243
  87.0329439  89.6015210  66.6432594  87.9514925  89.9854843  66.8133784
  86.6002835  89.3608834  67.5235993  87.1149066  88.7733974  66.0709024
  88.2446481  93.4013260  61.1499257  87.8049559  94.2417374  60.3535355
  89.2009012  92.4854694  60.7699458  89.4669770  91.7653910  61.4262919
  89.9143638  92.5595042  59.4942405  89.4211947  93.0990084  58.6856500
  91.2802022  93.2733589  59.8474583  91.0456878  94.2576443  60.2527798
  92.1355868  92.4727388  60.8848163  92.3709030  91.4884436  60.4799833
  93.0607132  93.0123911  61.0873433  91.5718085  92.3589162  61.8107200
  92.0510774  93.5555442  58.5141496  92.3514314  92.5953319  58.0947685
  91.3614094  94.0503422  57.8303130  93.2994210  94.4416685  58.7162014
  93.9898112  93.9472827  59.3996075  93.7911081  94.6018265  57.7566742
  92.9997891  95.4022928  59.1351544  90.0460546  91.1086698  58.8742025
  90.0291359  90.1015711  59.5906626  90.0325616  91.0798917  57.5328078
  89.8416068  91.9588700  57.0734248  90.2113708  89.8762628  56.6952330
  90.9107603  89.2055606  57.1943443  88.8948400  89.1192285  56.4491100
  89.0320580  88.2417936  55.8171459  88.4051366  88.8248076  57.3773379
  87.6888663  90.2145513  55.5552216  86.7066881  89.3197959  55.4949153
  90.8506527  90.3111812  55.3628161  90.7345132  91.3876725  54.8648834
  91.3513601  89.3474373  54.5805017  91.3363656  88.4126412  54.9626416
  91.9501891  89.5461417  53.2888712  91.7158292  90.5189176  52.8565731
  93.4352710  89.4847600  53.5634856  93.6809432  90.3794746  54.1355261
  93.6690984  88.5999826  54.1555952  94.2363875  89.4651872  52.3008348
  94.6790160  88.2445976  51.7776017  94.4190757  87.3109224  52.2763815
  95.4548150  88.2234625  50.6147585  95.7542944  87.2515045  50.2226977
  95.7714715  89.4067431  49.8968243  96.5493081  89.3267056  48.7849748
  96.8234525  88.4291713  48.5827952  95.3357273  90.6165871  50.4460023
  95.5820563  91.5382843  49.9188432  94.6088812  90.6658628  51.6277852
  94.3179578  91.6281887  52.0489649  91.5080087  88.5419221  52.2500158
  91.2668071  87.4285811  52.5275593  91.3849040  88.9705103  51.0082673
  91.6773366  89.9126844  50.7917249  90.7770413  88.1972330  49.9758958
  90.8291435  87.1300398  50.1914956  89.2745284  88.6215518  49.9151197
  88.8625549  88.5465432  50.9214749  89.2307269  89.6583135  49.5814932
  88.4451195  87.7312749  48.9485769  88.8841511  87.7055866  47.9512344
  88.4465665  86.7267132  49.3716087  86.9640242  88.2219158  48.8304191
  86.6152634  88.9568582  47.9057059  86.0073514  87.8246492  49.6781770
  85.0635081  88.1661064  49.5656242  86.2337095  87.1852490  50.4265291
  91.5056552  88.3638280  48.6282041  91.3936332  89.3374946  47.8808479
  92.3972236  87.3037574  48.4379193  92.5014867  86.6219566  49.1757378
  93.3207446  87.2717006  47.3528445  94.0281789  88.0958569  47.4445085
  94.1172399  85.9274049  47.3549790  94.7098847  85.8727345  48.2681507
  93.4080902  85.0999352  47.3326043  95.0602883  85.8363574  46.1179543
  94.4259887  85.4861529  45.3036315  95.4718128  86.8129687  45.8630482
  96.2195946  84.8288798  46.3401587  97.2108923  84.8776677  45.5200358
  96.0815396  83.9796185  47.2621311  92.7477361  87.6346947  46.0326360
  93.1934572  88.5403380  45.3634238  91.6418864  86.9437117  45.6665435
  91.1005246  86.4487432  46.3608294  91.1160974  87.0104175  44.2810853
  91.8072474  86.6978618  43.4983211  89.7800991  86.1077779  44.1807091
  89.2737022  86.3351214  43.2426386  90.1270848  84.5902250  44.2284299
  90.6331278  84.3620127  45.1664814  89.2101468  84.0049726  44.1591134
  90.7811707  84.3400984  43.3931395  88.6781514  86.4092263  45.1841926
  88.3485940  87.4411950  45.0636337  87.8369188  85.7374270  45.0135670
  89.0579035  86.2654563  46.1957357  90.6353208  88.4490220  43.9990482
  91.0072342  88.9908227  42.9510470  89.9173376  89.1207732  44.9315306
  89.6314941  88.5553152  45.7180738  89.5150711  90.4988818  44.9019304
  89.1303625  90.7953156  43.9261100  88.3872895  90.6171865  45.9284564
  88.7209562  90.3715906  46.9366471  87.9325579  91.6078019  45.9280121
  87.4074006  89.6332838  45.4884856  86.6557525  89.6411227  46.0856149
  90.6230705  91.5500381  45.2282277  90.4204713  92.7337382  45.0287443
  91.8489246  91.0981765  45.6514874  91.8025177  90.1632288  46.0307215
  93.0993880  91.8524580  45.8094713  93.8595542  91.2297779  46.2811874
  93.6117900  92.2914246  44.4279104  92.7724427  92.7177544  43.8785124
  94.3724853  93.0571759  44.5797909  94.2152135  91.1188704  43.6186571
  94.8081634  90.3269161  44.0761716  93.2587997  90.7122555  43.2899642
  94.9971167  91.6696328  42.3477165  96.1336838  92.1361704  42.4743289
  94.6039323  91.3414804  41.1201351  95.1075687  91.6967402  40.3199837
  93.8035479  90.7385517  40.9937894  92.9724214  92.9403355  46.8782776
  93.4653626  94.0794820  46.7284770  92.4198510  92.6618940  48.0710338
  92.3118797  91.6911718  48.3282110  91.9002155  93.6783397  48.9765563
  92.5693412  94.5367282  49.0360472  90.5627428  94.1420357  48.4167600
  90.1133749  94.9542808  48.9880966  90.6081893  94.4208163  47.3639941
  89.4040223  92.7554651  48.5191753  88.3678072  93.4009564  47.9914468
  91.8059808  93.0735921  50.4279508  91.8834679  91.8542923  50.6614582
  91.6486469  94.0242715  51.3583393  91.9298643  94.9675598  51.1320135
  91.1877169  93.7438967  52.7243995  91.2503177  92.6730396  52.9179074
  92.0660011  94.4933885  53.7763810  91.9542879  95.5766509  53.8228786
  91.7064819  94.0513559  54.7056028  93.5880679  94.2069878  53.7087856
  94.2680342  93.2704630  54.4874115  93.6193046  92.6653160  55.1206940
  95.6549027  93.0675432  54.5078407  96.1405024  92.4459075  55.2600792
  96.4313479  93.7041252  53.5040726  97.4995522  93.5085731  53.4102707
  95.7963733  94.6053568  52.6167171  96.3601896  95.1886614  51.8887288
  94.4230113  94.7349969  52.6911649  93.8849327  95.2855626  51.9195117
  89.6882484  94.0785825  52.8941070  89.3056178  95.1747183  52.4087265
  88.9183374  93.2395857  53.5775010  89.2397240  92.2904348  53.7036857
  87.6679955  93.6069069  54.1395653  87.2144255  94.4493216  53.6173479
  86.9663770  92.7730190  54.1610521  87.9948860  94.0344637  55.6069067
  88.6543649  93.3194883  56.3564611  87.4209587  95.1730000  56.0687082
  86.8683279  95.6571407  55.3756669  87.5548771  95.7869125  57.4210743
  87.9537320  95.0410811  58.1086421  88.6419810  96.9528079  57.2425635
  88.4037654  97.5737055  56.3789440  88.5952660  97.7928127  58.4929841
  88.8338456  97.1726614  59.3570403  89.3217293  98.6017079  58.4152663
  87.5963861  98.2124621  58.6122943  90.0599073  96.3639505  57.1591966
  90.1238975  95.6887671  56.3058886  90.7825168  97.1709893  57.0382692
  90.2799003  95.8140583  58.0742499  86.1857465  96.2467393  57.8076822
  85.5759814  97.2271198  57.2586961  85.6920074  95.6543398  58.9483778
  86.0159520  94.7514018  59.2643876  84.6466796  96.3022602  59.6929012
  83.7987362  96.5537347  59.0558363  84.1765134  95.3059334  60.7664251
  85.0728533  95.0458525  61.3294810  83.4602167  95.7919517  61.4288489
  83.5575827  94.0449151  60.1901383  84.3222398  93.4684570  59.6694692
  82.9656084  93.1980416  61.3325208  82.2004972  93.7737057  61.8533994
  82.5206703  92.2920906  60.9209584  83.7561618  92.9282008  62.0327434
  82.4507036  94.3501971  59.1141050  82.8894669  94.9133765  58.2904453
  82.0425464  93.4129112  58.7359463  81.6522966  94.9360672  59.5695186
  85.1554466  97.5937147  60.2889007  86.2142038  97.5616347  60.9662826
  84.3042129  98.6168106  60.2706286  83.5681972  98.5679233  59.5807081
  84.4311253  99.8524295  61.0745596  85.0150283  99.6676571  61.9762335
  85.1283944 100.8782343  60.2600209  85.4931625 101.6793309  60.9028955
  85.9678423 100.4265068  59.7314667  84.1843577 101.4226443  59.2952451
  84.6220164 102.0887837  58.7601628  83.1133571 100.3704008  61.6567055
  82.0610622  99.7938560  61.4183852  83.1570338 101.3896043  62.5105682
  84.0877016 101.6205952  62.8277433  82.0186555 102.1810067  63.0361041
  81.1541730 102.1209113  62.3749251  81.6522680 101.6059958  64.3447766
  81.5317596 100.5262712  64.2566191  82.4278114 101.8257989  65.0784789
  80.4397838 102.1795854  64.7597553  80.1880425 101.8146550  65.6112551
  82.2477838 103.6718272  63.2403277  83.3492119 104.0096752  63.7113254
  81.3180848 104.5052721  62.7695673  80.5774435 104.1073421  62.2099232
  81.4108953 105.9702682  62.8635932  82.2331202 106.2295450  63.5305421
  81.6606301 106.6287461  61.4967193  82.1717743 107.5689429  61.7037485
  82.3333236 105.9609011  60.9586055  80.4277658 106.8985559  60.6471710
  79.8969293 105.9509199  60.5560701  79.8133184 107.6066122  61.2032400
  80.7215480 107.4719224  59.2182498  81.2077439 108.4448422  59.2899407
  81.3583178 106.7886409  58.6563334  79.4075080 107.6379014  58.4721165
  78.9920750 108.5583051  58.4528339  78.8425050 106.6996988  57.8127164
  79.3886462 105.5465674  57.4133723  80.3540073 105.3459862  57.6323364
  78.8333699 104.8812926  56.8945493  77.5540357 106.8588540  57.5612715
  77.0775403 107.6874370  57.8876185  77.0523907 106.1510934  57.0440423
  80.2115366 106.6005312  63.6231729  79.0938237 106.2355413  63.3657990
  80.4826814 107.5277071  64.5924790  81.4167101 107.5243391  64.9767684
  79.5069377 108.3234619  65.2188117  78.6092497 107.7445312  65.4358247
  80.0907536 108.9144486  66.5644895  80.8850139 109.6284787  66.3467471
  78.9343795 109.6382993  67.3224409  78.1398935 108.9247557  67.5409541
  79.3151120 110.0542680  68.2552396  78.5393432 110.4421474  66.7012535
  80.7258959 107.8646957  67.4901909  80.0499666 107.0147980  67.3958820
  81.6675923 107.6364659  66.9909728  80.9886702 108.1444720  68.9695340
  80.0473101 108.3723438  69.4695494  81.4414424 107.2668811  69.4309783
  81.6649344 108.9940139  69.0646402  78.8789751 109.3385799  64.2490322
  79.5975752 109.8851104  63.3986873  77.5608510 109.5130155  64.3214408
  77.0712778 108.9504338  65.0025570  76.7823673 110.4451690  63.5017756
  77.4465417 111.1480021  62.9987873  76.0065759 109.6801788  62.4548002
  75.5729312 108.7985144  62.9267316  75.2081788 110.3226136  62.0833978
  76.8869198 109.2527716  61.3016165  77.7396355 109.9306033  61.2626185
  77.2195463 108.2701407  61.6361242  76.2488182 109.1303348  59.8687775
  76.9613419 109.2361205  58.8566173  75.0261488 108.8424235  59.7649908
  75.8091958 111.1932065  64.4706626  75.8528238 111.0632858  65.6843719
  74.9532826 112.1345312  63.9156964  75.1063098 112.3895512  62.9504779
  73.8180861 112.8217477  64.6759815  73.5629509 112.2613304  65.5753911
  74.1867351 114.2792492  65.0853120  73.2838904 114.8224988  65.3643290
  75.1539074 114.2348124  66.2901078  76.0572506 113.6920807  66.0116937
  75.4170636 115.2511748  66.5831209  74.6704481 113.7297967  67.1263661
  74.8209177 115.0916679  63.9728848  74.1301187 115.1593010  63.1324537
  75.0476047 116.0934653  64.3377338  75.7415105 114.6070089  63.6477460
  72.6573934 112.7753333  63.6965851  72.7894562 112.6324758  62.4615737
  71.4451744 112.8658986  64.2603306  71.4242396 112.6932467  65.2552438
  70.1695071 112.8314194  63.5166552  70.2304550 112.0660786  62.7429382
  69.0016956 112.5188973  64.4106710  69.3990597 111.7544193  65.0783343
  68.8595423 113.4465285  64.9651011  67.6614280 112.0537200  63.8451641
  67.9436579 111.5706793  62.9096863  67.1980416 111.3213740  64.5062575
  66.6228594 113.1708404  63.5345805  66.9024016 114.3679003  63.3688769
  65.3522489 112.8048469  63.5485428  64.6316846 113.4854693  63.3545283
  65.1081986 111.8463718  63.7531550  69.9442918 113.9003972  62.5005536
  70.1642799 115.0418632  62.8698524  69.4747888 113.6000350  61.2971008
  69.1919305 112.6360935  61.1926629  69.4814814 114.4830646  60.0679077
  69.9881148 115.4269956  60.2689451  70.2341052 113.7521408  58.9617370
  71.1036693 113.2565999  59.3934739  69.5908437 113.0097832  58.4892754
  70.6984492 114.7775046  57.9049448  71.1647753 114.3234809  56.8215305
  70.6518260 116.0313279  58.0746961  68.0718542 114.9426284  59.7235032
  67.7743237 115.1050552  58.5191681  67.2025709 115.0965019  60.7108949
  67.5554677 115.1689707  61.6544581  65.7419378 114.9786505  60.5160536
  65.2686757 114.5488131  61.3988684  65.0570645 116.3600313  60.2005659
  65.4112631 116.6219833  59.2035580  63.5139823 116.4529814  60.2399442
  63.1590500 116.1916001  61.2368406  63.2044950 117.4701457  59.9997495
  63.0891793 115.7628072  59.5110391  65.5410536 117.2527235  61.0641167
  65.1410157 118.1092234  60.8968506  65.4492865 113.8992700  59.5148533
  65.8942632 112.7539892  59.7248310  64.6664733 114.1325076  58.4875735
  64.3281458 115.0832650  58.4464122  64.2154462 113.1725292  57.4316166
  63.6187570 112.4025003  57.9206122  63.3760858 113.8007036  56.2953812
  62.8379394 113.0320485  55.7407038  62.6657133 114.5252713  56.6934672
  64.2876766 114.4592956  55.4279847  63.8045464 114.8651985  54.7045016
  65.4245615 112.4829264  56.7763806  65.2018047 111.5027565  56.1395264
  66.6793359 112.9812389  56.9907052  66.8042431 113.6868151  57.7025056
  67.8389262 112.5463444  56.2462787  67.5943614 112.4929354  55.1854136
  68.6558462 113.2524388  56.3951811  68.2840271 111.1603029  56.7259047
  69.1167366 110.5690045  56.0058234  67.7042400 110.6760690  57.7838360
  66.8235329 111.1115604  58.0179332  68.1966677 109.5844009  58.6473311
  67.3672243 109.1064914  59.1686039  68.7299637 108.8406074  58.0553296
  69.1390937 110.1699252  59.6610966  68.7792726 110.7775392  60.6593010
  70.4374869 110.0303364  59.2503665  70.6117153 109.4534064  58.4398756
  71.6431015 110.5493541  60.0472687  71.4013734 111.4635050  60.5894817
  72.0958892 109.4681814  61.0718617  72.9608307 109.8359098  61.6239053
  70.9483839 109.1635310  62.0577181  70.0831882 108.7952900  61.5064155
  71.2731338 108.4062229  62.7712454  70.6771687 110.0735945  62.5928136
  72.4946669 108.2707077  60.4678526  72.7618613 107.6444406  61.1446073
  72.7908076 111.0729667  59.1485015  72.8339036 110.8002909  57.9573321
  73.6391393 111.9203871  59.7984969  73.4032158 112.1997555  60.7399812
  74.8113321 112.5943308  59.1236984  75.1425532 112.0264838  58.2542494
  74.3505445 113.9822087  58.6567038  73.4927153 113.8003892  58.0092696
  73.9687603 114.9939041  59.7347442  74.8262861 115.1765953  60.3823343
  73.6634209 115.9287272  59.2646668  73.1436463 114.5996239  60.3278974
  75.3661863 114.6651971  57.8905161  75.0379527 115.5256297  57.6193725
  76.1060491 112.6215920  59.9394224  76.0363402 112.6653849  61.1394452
  77.2612923 112.7014219  59.2269483  77.2198449 112.6014249  58.2227660
  78.5227443 112.8064255  59.8337834  78.5681065 112.1021973  60.6645085
  79.5468355 112.4066800  58.8087815  79.5197793 113.1079060  57.9747251
  80.5384541 112.4190344  59.2611531  79.3259874 111.4027976  58.4460896
  78.7917966 114.2451650  60.4598821  78.2242585 115.2644611  60.0657427
  79.6156407 114.1569788  61.4661257  79.7698660 113.2443450  61.8703699
  80.2492956 115.3421635  62.1264270  79.5633319 116.1800995  62.0022650
  80.5676961 115.1915067  63.5995165  81.0490758 114.2175952  63.5108079
  81.2814662 115.9143808  63.9945930  79.3514620 115.0827719  64.5651143
  79.7659672 115.0901947  65.5731972  78.2658226 116.2039976  64.4393130
  77.8505000 116.1968914  63.4315653  77.4696083 116.0221517  65.1611687
  78.7205169 117.1746027  64.6375032  78.6754107 113.7260330  64.6885659
  79.3962233 112.9917121  65.0481509  77.8462131 113.7954146  65.3926390
  78.2985823 113.4172168  63.7135111  81.5477357 115.7845025  61.3529631
  81.9004770 116.9774208  61.4598209  82.1477225 114.8325286  60.6197921
  81.6124964 113.9787153  60.6878749  83.3806736 114.8104980  59.8639369
  83.4652324 115.7082815  59.2516185  84.6061997 114.7605324  60.8579798
  85.5287379 114.8551734  60.2852097  84.5266330 115.5924645  61.5577357
  84.6212696 113.4068054  61.6541865  83.6702138 113.2620483  62.1666697
  84.7975870 112.5732877  60.9742876  85.7549613 113.4721090  62.6883472
  85.5364882 114.2533292  63.4164019  85.8351220 112.5124474  63.1989579
  87.0688208 113.7792657  62.0336434  87.1113296 113.3492096  61.1207666
  88.1376189 114.3823385  62.4906368  88.0429592 115.0554869  63.6068141
  87.1587749 115.0994701  64.0930070  88.8544292 115.5285875  63.9780174
  89.2402393 114.4338212  61.7935666  89.2780547 114.0017926  60.8814146
  90.0503051 114.9054364  62.1696933  83.3524619 113.6590919  58.9223855
  82.8894567 112.5758543  59.2933739  84.0072375 113.7717090  57.7984868
  84.7924166 114.8898471  57.3125290  85.6795866 114.9576437  57.9421585
  84.1874912 115.7875562  57.4401324  85.1262477 114.6240155  55.8718335
  86.2079320 114.5819446  55.7442089  84.7175055 115.4165331  55.2449785
  84.4701455 113.2739989  55.5461372  85.2134118 112.6673582  55.0287966
  83.5786044 113.3629502  54.9253782  84.1167460 112.6365589  56.8650523
  83.1512366 112.1367224  56.7872486  85.1670883 111.6421500  57.3822110
  86.0254549 112.1124770  58.1568852  85.0807103 110.3565269  56.9980782
  84.2527531 110.0860267  56.4867897  86.0330457 109.2749353  57.4396867
  87.0609334 109.6152904  57.3143697  85.8047106 108.9234904  58.9388396
  86.4771024 108.1047085  59.1949348  86.0619646 109.8025619  59.5297320
  84.4583042 108.5389210  59.2196050  84.3722467 108.3337347  60.1534639
  85.9316041 108.1515222  56.4588571  84.9851465 108.1347621  55.6428772
  86.8509484 107.1538345  56.5278576  87.6203249 107.3215671  57.1603329
  86.9521532 106.0217701  55.5888082  87.5218216 106.4039241  54.7417335
  87.8133667 105.0133335  56.3396644  87.2531893 104.6149372  57.1855850
  88.0871041 104.1983525  55.6696091  88.7166630 105.5044029  56.7016118
  85.6354332 105.5651822  54.9367407  85.5751744 105.5228311  53.6883929
  84.5468821 105.1818260  55.6758588  84.6111231 105.1769208  56.6838014
  83.3518680 104.7442774  55.0829454  83.5576474 104.0525765  54.2660587
  82.5092086 104.0101182  56.1516701  81.5846571 103.6575019  55.6945426
  83.0760029 103.1582991  56.5275007  82.2060947 104.8720701  57.2109523
  81.6834853 104.4030987  57.8655860  82.4870316 105.8632238  54.4405670
  81.6894876 105.4390885  53.5648189  82.7163682 107.1972423  54.5116476
  83.3213259 107.4137439  55.2909117  82.0964781 108.3188795  53.7720887
  81.2408964 107.9009241  53.2416243  81.5872209 109.5232384  54.6957193
  80.6929098 109.9629190  54.2541439  81.2463232 108.9790540  56.1558580
  82.1403303 108.5396128  56.5982857  80.9003288 109.8031871  56.7797102
  80.4650301 108.2219669  56.0887702  82.5220101 110.5590486  54.9037470
  82.1327459 111.2333448  55.4653505  82.9059424 108.8479432  52.6165887
  82.3894636 109.2301811  51.5585368  84.2409155 108.7232677  52.6744838
  84.6316782 108.3306012  53.5190055  85.1528778 109.1449271  51.6246790
  84.7180970 109.9562889  51.0409352  86.4990271 109.6648766  52.2938700
  86.9670112 108.8510689  52.8477717  87.1795713 110.0134420  51.5170420
  86.1895438 110.7966520  53.2330242  85.7036012 111.5737278  52.6430126
  85.5205199 110.4755444  54.0313969  87.4209245 111.3641608  53.8442904
  88.1156307 110.8357011  54.6987491  87.8160369 112.5878780  53.4922244
  88.6507952 112.9828835  53.9011872  87.2787864 113.1142896  52.8181665
  85.4785593 107.9448144  50.5901748  86.2029986 108.1935288  49.5881838
  84.9762610 106.7170217  50.7925425  84.5288121 106.5658926  51.6853184
  85.0266210 105.5605951  49.8064795  86.0006524 105.0714578  49.7961516
  83.9691669 104.5416515  50.2701711  82.9869436 105.0141886  50.2769575
  83.9583966 103.6921645  49.5872684  84.2126160 104.1963554  51.2749608
  84.7090344 106.0258548  48.3376694  83.7635156 106.8073039  48.1155194
  85.3789100 105.4197357  47.3594147  86.2232565 104.9244496  47.6081514
  85.0669344 105.5933634  45.9323692  84.9261645 106.6488347  45.6994241
  86.2478525 105.0498974  45.0803492  86.3051345 103.9909960  45.3324319
  85.9681483 105.1587823  44.0324897  87.5946912 105.6962052  45.3118073
  87.9289842 105.4432386  46.3179668  88.6289090 105.2206931  44.2987584
  88.2955095 105.4737357  43.2923226  89.5837064 105.7073728  44.4977698
  88.7483532 104.1403453  44.3805036  87.4493770 107.2494253  45.2271208
  86.7474619 107.5912072  45.9877783  88.4205362 107.7153607  45.3940194
  87.0786038 107.5269146  44.2403960  83.6664309 105.0510295  45.4607372
  83.0849881 105.5693792  44.5432849  83.1409057 104.0347149  46.1349657
  83.7687840 103.5238642  46.7390350  81.7158140 103.5902169  46.0553407
  81.0837361 104.3631910  45.6182049  81.6691029 102.3057627  45.1187867
  82.2328466 101.5182526  45.6189068  80.6250458 102.0050716  45.0314389
  82.1973058 102.5194310  43.8502436  82.1388966 101.7091942  43.3386730
  81.0996341 103.2385969  47.4041794  81.8766261 103.0718184  48.3243177
  79.8331719 102.9616492  47.5108112  79.3183058 103.0364026  46.6451183
  79.0610580 102.7612540  48.7835075  79.6227999 102.1943355  49.5259015
  78.8210868 104.1480713  49.3178066  79.7577528 104.5493259  49.7047829
  78.4596645 104.7848791  48.5103725  77.9018374 104.1128542  50.3099030
  77.7564644 105.0013560  50.6431163  77.8594971 101.8356340  48.6236040
  77.3871222 101.6846404  47.4487828  77.3744969 101.2249735  49.6768687
  78.0411058 101.0016950  50.4020437  76.0584683 100.5593545  49.7076735
  75.3275554 101.1503923  49.1558223  76.1561101  99.1902118  49.0678334
  75.1522998  98.7724315  49.1448004  76.3884168  99.3857766  48.0209867
  77.1046190  98.2559466  49.6012313  77.0599323  97.4357153  49.1044179
  75.3072480 100.7226364  51.0834395  76.0239963 100.7841567  52.0658621
  73.9819720 100.7862234  51.1021223  73.4244342 100.5862471  50.2840389
  73.2799050 101.2294716  52.3490790  73.9583102 101.1370353  53.1972071
  72.9122204 102.7177307  52.1716107  72.2741343 102.8250114  51.2944355
  72.1594611 103.2403096  53.4261774  72.7971349 103.1337752  54.3037442
  71.9063198 104.2913417  53.2870677  71.2460423 102.6629710  53.5691739
  74.1764660 103.5829104  52.0299904  74.7449520 103.2566563  51.1590806
  73.8905576 104.6274307  51.9061625  74.7908754 103.4784879  52.9242487
  72.0585178 100.3073287  52.5479300  71.2432778 100.0328673  51.6678717
  72.1111444  99.5734418  53.6817780  72.9784269  99.6142042  54.1977808
  70.9990651  98.7812224  54.2434605  70.8216797  97.8795251  53.6573073
  71.4100549  98.3545241  55.7219590  71.6242483  99.2582925  56.2924177
  70.5676828  97.8311147  56.1742330  72.5635961  97.4999554  55.7289690
  72.7813814  97.2638082  56.6336257  69.6852582  99.5571912  54.3832495
  69.7370166 100.7922621  54.5468036  68.5630495  98.9230129  54.1240382
  68.5566689  97.9234906  53.9790768  67.3010896  99.6695720  53.9212955
  67.5170372 100.6128391  53.4195855  66.2640087  98.8377218  53.0243421
  65.3627666  99.4467663  52.9541509  66.7176731  98.7459809  52.0374924
  65.9356793  97.5837429  53.4977063  65.3136585  97.1675242  52.8964976
  66.6603115 100.0988909  55.2744155  66.5738101  99.2251581  56.2005557
  66.1884577 101.3716370  55.2258851  66.1970341 101.8351423  54.3285620
  65.8817188 102.2083057  56.4730758  66.6165651 101.9874028  57.2472219
  65.9336007 103.7278026  56.1589064  65.8573426 104.3595897  57.0438522
  66.8057722 104.0237009  55.5759303  64.7688832 103.8767974  55.3722846
  64.6789726 104.7942293  55.1042649  64.6292599 101.7858868  57.2525338
  64.4459910 102.0208320  58.4446874  63.6860786 101.0751505  56.5871107
  63.8595805 100.9387174  55.6015233  62.4400519 100.6586349  57.1129217
  62.1873936 101.2233594  58.0103343  61.3507889 100.9198042  56.0398449
  61.3740382 101.9688128  55.7446505  61.5401934 100.2933319  55.1682037
  59.9753027 100.5838852  56.6197432  59.9722030  99.5222954  56.8669643
  59.8499443 101.1689480  57.5308354  58.8473863 100.8805343  55.6762237
  59.1609338 100.6149047  54.6666556  57.9883151 100.2730670  55.9609685
  58.4601231 102.3643524  55.7172593  58.0054595 102.6010386  56.6792163
  59.3468366 102.9817090  55.5733526  57.4827426 102.6371533  54.6256343
  56.6608377 102.0655099  54.7590357  57.2210976 103.6125016  54.6440088
  57.9039945 102.4183043  53.7341463  62.4362468  99.2403553  57.6618457
  62.0517889  98.2433046  57.0087178  62.9898615  99.1518958  58.8681042
  63.4416888  99.9841832  59.2191729  63.0821665  97.9047372  59.6756215
  63.6206223  97.1211712  59.1425278  63.8982358  98.2720762  61.0094231
  64.9062271  98.5326704  60.6867105  63.4232282  99.1453916  61.4563998
  63.9701421  97.1284141  62.0583971  62.9871024  97.0516128  62.5229779
  64.3697175  95.7429307  61.4524689  65.3529183  95.8188281  60.9880826
  64.3992542  94.9944085  62.2442662  63.6358368  95.4486505  60.7021899
  64.9724370  97.4485767  63.1359267  64.6813848  98.3692464  63.6416492
  65.0038296  96.6324493  63.8577659  65.9585397  97.5760823  62.6893365
  61.6041281  97.3879693  59.8769729  60.8214279  97.8011439  60.7913761
  61.1637592  96.3847696  59.0630745  61.8105345  95.9829506  58.3995065
  59.8196399  95.8441143  59.1268031  59.0807558  96.6305472  58.9729437
  59.6589292  94.8039010  58.0273399  60.4328144  94.0607053  58.2193323
  58.6858748  94.3139146  57.9930096  59.9354535  95.3872336  56.5455334
  59.3255554  96.5904238  56.2130510  58.6888263  97.1367581  56.9088921
  59.5562520  97.1003760  54.9207600  59.1540789  98.0838311  54.6775040
  60.2680074  96.3928497  53.9742650  60.3706916  96.8451947  52.9878879
  60.8614921  95.1129723  54.2425705  61.4261072  94.5028559  53.5375401
  60.6615313  94.6676497  55.5377483  61.0689882  93.7070079  55.8527819
  59.5652100  95.1521556  60.4597801  58.4206200  95.1092354  60.8622620
  60.5353623  94.7987088  61.2577505  61.4828375  94.8852420  60.9187782
  60.3202946  94.2170295  62.6114658  59.4247726  93.5956489  62.6064120
  61.5486885  93.3264403  63.0363473  62.4957970  93.8168617  62.8114658
  61.5132316  93.0745474  64.0962495  61.4350350  92.1379802  62.2627682
  62.1606452  91.5467216  62.4760824  60.0681402  95.2361748  63.7013644
  60.4395995  94.9931083  64.8337984  59.6725905  96.4636480  63.3801106
  59.4586642  96.6243939  62.4062032  59.4666330  97.5632679  64.3276587
  58.9925871  97.1809175  65.2316431  60.7815239  98.2079521  64.7069874
  61.4446393  97.4534744  65.1302377  61.2423194  98.6383217  63.8178588
  60.5617187  99.2071683  65.6429887  61.3987135  99.6130006  65.8803483
  58.6216857  98.6684914  63.6518872  58.3459553  98.6288536  62.4483459
  58.1823944  99.5812263  64.4619169  58.2781954  99.2827045  65.4220243
  57.3786794 100.7620756  64.1834798  57.3909020 100.9471652  63.1093794
  55.8989269 100.6060839  64.6449438  55.8079524 100.5272522  65.7282759
  55.2643293 101.4161604  64.2855525  55.4921436  99.3864953  64.0467926
  54.5785503  99.2051496  64.2793028  58.0327523 102.1397832  64.5603433
  57.4105343 103.1304545  64.8249395  59.3305005 102.1371589  64.7148967
  59.7630069 101.2381424  64.8723988  60.2005070 103.3656501  64.7595192
  59.7280933 104.1211624  64.1317250  60.3928622 103.9585066  66.1980468
  59.4135579 104.1550279  66.6344442  61.1579027 102.9744511  67.0851172
  62.1375590 102.7777879  66.6495755  61.2823674 103.4022773  68.0798898
  60.5996271 102.0411771  67.1587967  61.1340226 105.1568905  66.1799778
  61.2298940 105.4873759  67.0761856  61.5356673 102.9992757  64.1222290
  61.7579091 101.8260578  63.7698281  62.3219206 104.0080292  63.7708329
  61.8333557 104.8855435  63.8774743  63.6516431 104.0304446  63.2270198
  63.6527101 103.7701505  62.1685563  64.0536720 105.5007883  63.3696391
  64.0659945 105.7739263  64.4247901  65.0463946 105.6494166  62.9447724
  63.3352648 106.1273451  62.8410402  64.6525363 103.0261288  63.9156942
  64.4317097 102.6765184  65.0558566  65.7136593 102.5941587  63.1731675
  66.1684359 103.0196960  61.8869007  66.7075778 103.9610630  61.9929886
  65.3073154 103.1662564  61.2349111  67.0752644 101.8690349  61.4121471
  67.8990309 102.2920221  60.8371779  66.4898029 101.2070145  60.7741305
  67.5674843 101.1474757  62.6163069  68.5955083 101.3812535  62.8930988
  67.4666228 100.0719908  62.4705022  66.6053082 101.6207394  63.7253243
  66.0236417 100.7330589  63.9738915  67.3157062 102.1262339  64.9721739
  67.3743983 101.4026710  65.9370941  67.7703158 103.4247001  65.0358983
  67.8068543 103.8486147  64.1198957  68.3997921 104.1226586  66.1432693
  69.0740726 103.4094221  66.6173354  69.1844069 105.3823113  65.8039514
  69.5169406 105.8858055  66.7117037  70.0520578 105.0916647  65.2116622
  68.4305310 106.4094936  64.9912143  67.7422312 106.1701431  63.7589254
  67.2005843 107.3628226  63.3902587  66.6416519 107.4453625  62.4581210
  67.4925247 108.2942948  64.3454196  67.1615900 109.2483642  64.3636846
  68.3235729 107.7215292  65.2982136  68.7443550 108.3357116  66.0943440
  67.3889299 104.2416624  67.2270173  67.8126470 104.1578027  68.4184624
  66.1283131 104.4118630  66.9399179  65.7809040 104.3976204  65.9916546
  65.1688735 104.5578790  68.0239073  65.6004789 105.1291730  68.8457583
  63.9037928 105.3328647  67.4798624  63.7254645 105.0907622  66.4321580
  63.0188361 105.0838755  68.0654869  64.1987414 106.8225868  67.6137476
  64.7143029 106.7721730  68.5727865  64.8845610 107.1938389  66.8522211
  62.9927698 107.7771015  67.7283388  61.8283282 107.2897491  67.7576038
  63.1480981 109.0089098  67.5907142  64.6783198 103.1623252  68.4900046
  64.0855329 103.1026148  69.5776641  64.8188636 102.0535173  67.7244417
  65.1239609 102.1444352  66.7659278  64.4824223 100.6871447  68.2356590
  63.6161702 100.7149915  68.8966667  64.1506684  99.7721709  67.0180715
  65.0157054  99.7579309  66.3550416  63.8269325  98.3801709  67.4419171
  62.9616521  98.3935583  68.1046465  63.6018003  97.7754095  66.5634649
  64.6802889  97.9522504  67.9680040  63.0393879 100.1914150  66.2111818
  62.9139197  99.5689825  65.4911569  65.5792043 100.1009942  69.0427909
  65.3360217  99.4893390  70.0876761  66.8384807 100.3943482  68.6890109
  66.9062656 100.8425261  67.7864362  68.0544819 100.1276043  69.4114835
  67.9241456  99.3922546  70.2054435  69.0146257  99.5299223  68.3286382
  68.4322388  98.8912245  67.6645675  69.4449235 100.3517658  67.7563470
  70.0513164  98.7740516  68.9185372  70.6215199  98.4218885  68.2311880
  68.6184963 101.3457809  70.0424126  69.6846818 101.8313591  69.7542663
  67.7712123 101.8402185  70.9194225  66.8282292 101.4844308  70.9849757
  68.1261882 102.9614533  71.7198397  68.6045763 103.7323012  71.1156563
  66.8570643 103.5396474  72.3302863  66.1815642 103.8937489  71.5515624
  66.3663198 102.7559872  72.9074748  67.0703009 104.6754230  73.2542734
  67.5084215 105.9554668  72.8065120  67.5947524 106.1133973  71.7314749
  67.8282262 107.0071188  73.7070801  68.2506389 107.9390272  73.3312945
  67.5966490 106.8425752  75.0989560  67.7555888 107.6540489  75.8091310
  67.1626346 105.6248221  75.5394362  67.0781880 105.4645974  76.6142836
  66.8269299 104.5868982  74.6421433  66.3614653 103.6741760  75.0141391
  69.1579088 102.5388100  72.7214180  68.9928016 101.5629342  73.3667915
  70.1471171 103.3943209  72.9124838  70.1073417 104.3153867  72.4999854
  71.3337011 103.0397117  73.7267024  71.0840299 102.3790011  74.5568982
  72.1260753 102.5884687  73.1295238  71.8196725 104.3472743  74.2733674
  70.9863364 105.1090414  74.6764740  73.1669535 104.5417052  74.3284987
  73.6312495 103.6709357  74.1133500  74.0025764 105.6940354  74.8179215
  73.3335876 106.4959964  75.1300299  74.9149758 105.3244191  76.0035530
  75.5891258 104.5302027  75.6828641  75.4960156 106.2052586  76.2767098
  74.0977496 104.8441477  77.2301168  73.3492740 104.1577667  76.8341795
  74.7542779 104.3087471  77.9159855  73.4043722 105.9768233  77.9725645
  74.0382862 107.0803835  78.1213628  72.2996602 105.8389935  78.4541218
  74.7280475 106.4021172  73.6602593  75.7141966 107.0649171  73.9957174
  74.3719343 106.1601412  72.3949372  73.5886164 105.5340919  72.2742119
  75.0166869 106.7074030  71.1952457  75.1934611 107.7795513  71.2809665
  76.4055132 105.9767349  71.0746644  77.0023514 106.4526005  70.2965671
  76.9342773 106.0378233  72.0258619  76.1682696 104.4675759  70.7033485
  75.2207091 104.4922129  70.1651823  76.9143147 103.9493484  70.1008899
  75.9826481 103.7320683  72.0240821  74.8246736 103.2428587  72.2671664
  76.8792895 103.7550941  72.9371243  74.2269187 106.5005089  69.9217654
  73.2276917 105.8073166  69.9237703  74.4972734 107.3312755  68.8646793
  74.9700180 108.1966557  69.0831489  74.0416560 107.1021673  67.4385271
  73.5092955 106.1510447  67.4309555  73.1312102 108.1682136  66.8843947
  73.7162166 109.0877274  66.8653877  72.5628850 107.9022645  65.5033388
  71.9773269 106.9830872  65.5216656  71.9236683 108.7338028  65.2066121
  73.3787028 107.7985286  64.7879496  71.9022471 108.3989976  67.7066888
  72.1896137 108.7091596  68.7113390  71.2969671 109.1792817  67.2452862
  71.3238052 107.4768733  67.7631919  75.2680395 106.8963368  66.4820218
  76.1062093 107.7780873  66.3251093  75.4192175 105.7112658  65.9533953
  74.7805965 104.9750403  66.2184134  76.5638754 105.3660034  65.1497647
  76.9636158 106.2411136  64.6374279  77.6256095 104.8212439  66.0736845
  78.3869622 104.3369494  65.4622108  78.0695438 105.6613039  66.6078396
  77.0732564 103.8295675  67.0670293  76.6857309 104.5215114  67.8147849
  76.2490828 103.2587493  66.6392401  78.0366338 102.9027897  67.7047291
  77.7064482 101.7338165  67.9678872  79.1550986 103.2924887  68.1314750
  76.2552950 104.4506241  63.9169184  75.4875381 103.4837468  64.1013706
  76.8528424 104.6974188  62.7490727  77.3551935 105.5731219  62.7192930
  76.7293818 103.9220916  61.5060727  75.8559035 103.2798690  61.6187008
  76.5701352 104.7400055  60.2352004  77.4480946 105.3722065  60.1025037
  76.4205135 103.7800779  58.9910608  75.5424400 103.1478395  59.1228271
  76.3068771 104.3744659  58.0844792  77.3087610 103.1541336  58.9055513
  75.3531261 105.5838479  60.3418028  75.4486311 106.2538546  61.1962453
  75.2369086 106.1714866  59.4311581  74.4791352 104.9465647  60.4763791
  77.9235559 102.9243615  61.4329091  79.0745117 103.3659262  61.2888940
  77.7672361 101.6351966  61.7127000  76.9464529 101.3573365  62.2315527
  78.7438283 100.6141064  61.3687646  79.7587735 100.8998617  61.6450419
  78.3275305  99.3433280  62.2164246  77.2669752  99.2171637  61.9986997
  78.8675547  98.4427470  61.9241442  78.4501236  99.4524755  63.7145577
  79.5033421  99.0608903  64.6066635  79.1172603  99.3052089  65.7904503
  79.7564129  98.9425586  66.5954768  77.9789776  99.9732311  65.8223838
  77.4987687 100.3385603  66.6323430  77.5277083 100.0967578  64.4872467
  76.6028937 100.6319430  64.2718491  78.7507215 100.3751008  59.8674392
  77.7335018 100.4533591  59.1969283  79.8589500  99.7671494  59.3749297
  80.4171733  99.2579801  60.0451779  80.2374009  99.7147149  58.0013739
  79.3484839  99.6592307  57.3730053  80.9988340 100.9239297  57.6351373
  81.9541647 100.8274517  58.1510196  81.1680278 100.9413457  56.5584897
  80.3707212 102.2056184  58.0368614  79.5206215 102.7717068  57.4280812
  80.9485366 102.6445173  59.1372123  80.6419850 103.5122589  59.5533258
  81.6951766 102.1110589  59.5591739  81.1964598  98.5803444  57.7094498
  81.8255990  98.0445740  58.6182088  81.3397050  98.2187910  56.4347765
  80.6635719  98.6124330  55.7960360  82.3345317  97.2393720  55.8990599
  83.0942513  97.0610835  56.6600714  81.6999129  95.9029422  55.5205634
  81.4698690  95.3542221  56.4338461  80.7723706  96.1673332  55.0127617
  82.5949964  94.9833774  54.5550832  82.7184460  95.5656094  53.6419201
  83.9634362  94.5356549  55.0614765  83.8407588  93.9529325  55.9744298
  84.4496174  93.9227891  54.3024481  84.5786035  95.4110450  55.2697114
  81.8103428  93.6544744  54.3210370  80.8500312  93.8761188  53.8554462
  82.3882068  93.0010070  53.6674662  81.6440788  93.1569911  55.2765293
  83.0387946  97.8836438  54.7257614  82.4213708  98.0948069  53.7048113
  84.3073642  98.2596142  54.9580617  84.5886535  98.0986473  55.9146522
  85.2733860  98.8165698  54.0469238  84.8271276  99.5556903  53.3816016
  86.3259381  99.5133225  54.9178134  86.8524870  98.6691260  55.3629848
  86.9893896 100.0297906  54.2241328  85.8830983 100.4924521  56.0344115
  85.2084064  99.9855336  56.7242849  87.1675299 100.9870281  56.8199344
  87.8425298 101.4944886  56.1307625  86.8682766 101.6771206  57.6088074
  87.6764832 100.1301314  57.2612904  85.1099362 101.6979033  55.5709682
  84.1988924 101.3743624  55.0675599  84.8497064 102.3157455  56.4304173
  85.7205284 102.2777697  54.8788476  85.9471739  97.7202615  53.2132693
  86.3107847  96.6216652  53.7546337  86.2509050  98.0038788  51.9217142
  85.9631832  98.9017673  51.5596205  86.8725063  97.0444739  50.9948771
  87.4329564  96.2186512  51.4330684  85.8803151  96.4888154  49.9202720
  85.3205563  97.3366315  49.5253310  86.5724008  95.7497423  48.7650429
  87.1320233  94.9014617  49.1591791  85.8217937  95.3930502  48.0597341
  87.2551651  96.4295470  48.2553395  84.6806402  95.7451645  50.3843986
  84.1077570  96.4249112  51.0151522  84.0976783  95.4944027  49.4981856
  85.0062478  94.4227290  51.1934191  85.5888370  94.6727601  52.0800837
  84.0755143  93.9419279  51.4945248  85.5787606  93.7422523  50.5631173
  88.0378867  97.8282947  50.4621336  87.7932467  98.8064961  49.7896165
  89.2314467  97.4969673  50.8346528  89.3156053  96.5673464  51.2204269
  90.4515661  98.3745488  50.8176442  90.1571566  99.2979601  50.3189120
  91.0012261  98.7003553  52.2150311  91.0893785  97.7375966  52.7184446
  92.3655974  99.4623411  52.3044322  92.2780838 100.4254635  51.8016030
  92.6254529  99.6217042  53.3509403  93.1446985  98.8712268  51.8230959
  89.9442632  99.6071417  52.8591801  90.0406479 100.5849931  52.3873566
  88.9723464  99.1796289  52.6127861  90.0663365  99.7624184  54.4056953
  91.0378827 100.1903357  54.6528482  89.2770120 100.4206601  54.7687159
  89.9695834  98.7849704  54.8782776  91.5144160  97.7283707  49.9774603
  91.9067343  96.6165075  50.1880395  91.9651766  98.5009352  49.0331760
  91.4823166  99.3719835  48.8651868  93.1013869  98.1457346  48.1501989
  92.8213882  97.3095621  47.5094840  93.4898569  99.3329336  47.2637432
  92.6754605  99.7587553  46.6776259  93.8493036 100.0741530  47.9775303
  94.6134429  98.9352214  46.3456181  94.5809773  97.8354542  45.8136340
  95.4474762  99.7761175  46.0614154  94.3649890  97.6567019  48.8343462
  94.9969195  98.4322594  49.5178560  94.8987635  96.4874311  48.4884117
  94.3392266  95.8985894  47.8881757  96.1309009  95.9656168  48.9923443
  96.1366214  96.0028061  50.0816943  96.2985412  94.4895156  48.5458668
  97.0560299  94.0628924  49.2033642  95.3392579  94.0087874  48.7376375
  96.7181716  94.2501124  47.0268259  95.9429412  94.7595731  46.4544899
  97.6960002  94.6317237  46.7330128  96.6591414  92.7296239  46.7004284
  96.4902974  91.8509153  47.5920875  96.9519032  92.4112315  45.4406520
  96.9354504  91.4439155  45.1505993  97.1890067  93.1385768  44.7812188
  97.4150266  96.7381562  48.6772664  98.4091134  96.5488561  49.3271963
  97.3957905  97.4863064  47.5877200  96.5496134  97.4736539  47.0364273
  98.5768000  98.1772825  47.0394330  99.5018668  97.7655331  47.4429340
  98.5652350  97.9680255  45.5778356  98.9293922  96.9409168  45.5546770
  97.6145251  98.0279303  45.0480601  99.5606130  98.8011378  44.7819961
 100.9804514  98.7060708  44.8987827 101.4784368  99.3366054  43.8099877
 102.5525415  99.3078320  43.6267657 100.4571620  99.9294627  43.1025388
 100.5471579 100.5309291  42.2961649  99.2541026  99.5588406  43.6897631
  98.3106604  99.8847148  43.2517860  98.7657078  99.6457254  47.4578960
  99.8629065 100.0869391  47.5947955  97.7054193 100.4584350  47.5312959
  96.8389666 100.0332132  47.2337301  97.6766528 101.8507704  47.9796176
  98.6612451 102.2528736  48.2183438  97.0469072 102.7169934  46.9297565
  96.9837233 103.7334894  47.3181428  97.8534810 102.7171827  45.6321388
  97.9167077 101.7010234  45.2428801  97.3625447 103.3567882  44.8986639
  98.8574315 103.0938701  45.8278182  95.7114355 102.2857383  46.7332433
  95.2942762 102.8316509  46.0627525  96.8919404 102.2174615  49.3086824
  96.8085005 103.3719036  49.6802279  96.2210784 101.2512542  49.9252872
  96.4250280 100.3368348  49.5480059  95.1920519 101.3622049  50.9369020
  94.6128663 100.4435826  51.0305848  95.9332410 101.6226599  52.2819176
  96.8532925 102.2033885  52.2158957  95.2044360 102.1648211  52.8844161
  96.2708343 100.3642505  53.0419686  95.5492296 100.0351428  54.1882887
  94.9073539 100.7881526  54.6455324  95.6400860  98.7664818  54.7485479
  95.0025083  98.4938812  55.5895499  96.5903965  97.7989057  54.2096599
  96.6489796  96.7787034  54.5889426  97.4457383  98.2140700  53.1723427
  98.2925148  97.5953578  52.8752487  97.2036566  99.4317811  52.5195632
  97.7352668  99.6716135  51.5987099  94.0219982 102.3997336  50.6977736
  93.4955320 102.8876447  51.6659498  93.5942503 102.6091908  49.4757014
  94.1432890 102.2329546  48.7160290  92.3827373 103.3169521  49.1565506
  92.3362490 104.2724912  49.6789327  92.3810784 103.5836885  47.6451821
  93.2697155 104.1846959  47.4522746  92.4944592 102.6070214  47.1746865
  91.1680512 104.2804535  47.0728895  91.0907099 104.3001301  45.9858145
  90.3389618 103.7054215  47.4852583  91.1142789 105.7303105  47.6209709
  90.7181825 105.9677767  48.8257756  91.6219436 106.6225284  46.8910647
  91.1799473 102.4371269  49.5235544  91.1631743 101.1802823  49.3066249
  90.1478675 103.1425428  49.9808779  90.2695552 104.1304809  50.1519617
  88.8280598 102.5286277  50.2962708  88.9980485 101.5172049  50.6653602
  88.0674317 103.3063991  51.3491946  87.8638322 104.3131105  50.9842580
  86.7222371 102.5821877  51.6513115  86.9250495 101.5755017  52.0167582
  86.1713531 103.1391754  52.4091981  86.1274503 102.5242789  50.7397322
  88.8542330 103.4249244  52.7038792  89.8010838 103.9365320  52.5311563
  88.2608099 103.9922601  53.4208722  89.0474625 102.4283282  53.1008164
  88.0612344 102.4801068  48.9490917  87.3942574 103.4619449  48.6139250
  88.0287018 101.3347039  48.3680834  88.5790472 100.5975856  48.7850678
  87.3469761 101.0605482  47.1279601  87.4670761 101.9087996  46.4540575
  87.8997178  99.8350961  46.4598704  87.6128605  98.9818245  47.0744756
  87.3511592  99.8048881  45.5184508  89.4180842  99.7762639  46.1733826
  89.9742635  99.9420439  47.0960323  89.7688428  98.3740058  45.6022901
  89.2133568  98.2076794  44.6793223  90.8380069  98.3219091  45.3966814
  89.5015112  97.6075836  46.3297729  89.7347161 100.8163625  45.1071556
  89.4579854 101.8059876  45.4706961  90.8016844 100.7966632  44.8851375
  89.1714423 100.5919878  44.2013534  85.8234643 100.9125204  47.1714161
  85.2425740 101.4873401  46.2672614  85.2636151 100.2930165  48.1866096
  85.8406391  99.7053474  48.7712356  83.8253773 100.3915244  48.4973304
  83.4331504 101.3492175  48.1551592  83.0251221  99.2163100  47.7570921
  83.3369794  99.3225559  46.7180752  83.3138456  98.2312299  48.1236381
  81.5314956  99.2529313  47.7609430  80.6939301  99.6163232  46.7326427
  79.4813126  99.4820166  47.1628874  78.6764539  99.7844787  46.4929484
  79.4487538  98.9673022  48.4215227  78.6551490  98.7356123  49.0017047
  80.7414104  98.8116642  48.7793072  80.9903932  98.3894213  49.7528675
  83.4927433 100.3120004  50.0095108  84.0559758  99.4356614  50.6762979
  82.5048844 101.0692882  50.4787432  82.2266059 101.8256580  49.8700026
  81.9999317 101.0687786  51.8820519  82.5732079 100.2343175  52.2859436
  82.4311117 102.3458596  52.5939767  81.8592789 103.1891332  52.2066825
  82.2493379 102.2450504  53.6639749  83.4934723 102.5178739  52.4210596
  80.5001728 100.6602718  52.0774242  79.6575920 101.5367465  51.8669325
  80.1950824  99.4258471  52.3966210  80.8908279  98.7048051  52.2695935
  78.8592195  99.0293349  52.8158754  78.1073642  99.4481647  52.1469999
  78.7611206  97.5460099  52.7717802  78.9595127  97.2036308  51.7561442
  79.4371411  97.0425953  53.4629170  77.4038474  97.0965853  53.1092000
  76.2297874  97.1744053  52.3184731  75.2495906  96.5882843  53.0503920
  74.2270144  96.5511317  52.6748171  75.8009361  96.1174404  54.2265341
  75.3183784  95.5960074  54.9444098  77.1418536  96.4780311  54.2687654
  77.7435841  96.2373985  55.1451886  78.5273720  99.6231866  54.1797601
  79.4404134  99.6092065  55.0649527  77.3014843 100.1085196  54.3927682
  76.6366313 100.0687854  53.6334981  76.8676041 100.7122210  55.6768011
  77.7205688 100.8018218  56.3494987  76.2796680 102.1092519  55.4420552
  75.4087345 102.0114394  54.7939759  75.9718675 102.5189807  56.4040746
  77.3055233 103.0557314  54.7849095  78.2570068 102.8576079  55.2783941
  77.4143807 102.9008670  53.7114715  76.9284944 104.4893919  55.0272396
  76.1355303 104.8897136  55.9084395  77.4113950 105.3614074  54.1860743
  77.1925954 106.3410775  54.2977637  78.0018776 105.0529155  53.4269534
  75.7749892  99.6978048  56.2555327  74.7747774  99.4342691  55.5809400
  75.9280870  99.0902948  57.4133681  76.8387161  98.8298511  57.7641145
  74.7437498  98.6922899  58.1867125  74.0334717  98.1219110  57.5881541
  75.2657257  97.8011305  59.3003219  76.0156097  98.2881715  59.9236712
  74.4012165  97.5393767  59.9104113  75.8768444  96.4919364  58.8275791
  75.0724059  95.3902330  58.5447997  74.0436900  95.3128061  58.8967211
  75.6279653  94.3625092  57.7815596  74.9430058  93.6169392  57.3777569
  76.9859164  94.2641335  57.5287357  77.4152941  93.4076549  57.0089480
  77.8151696  95.3088764  57.9631091  78.8920919  95.2345999  57.8120410
  77.2660571  96.4513954  58.5921869  77.9146217  97.2773079  58.8843041
  73.9039826  99.8536323  58.7236407  74.2040527 101.0154548  58.6086613
  72.7265589  99.4680608  59.2634908  72.4126652  98.5169716  59.1331086
  71.7650653 100.4621494  59.8641204  71.6235370 101.2761281  59.1531298
  70.4111522  99.8645879  60.1920984  70.6149566  99.0204398  60.8508678
  69.8449886 100.6207743  60.7359190  69.5826372  99.3779282  58.9664296
  70.1547264  98.5942596  58.4697624  68.2049002  98.8361558  59.3528199
  67.6320155  99.6194494  59.8491598  67.6763747  98.5130192  58.4559674
  68.3234046  97.9894873  60.0289925  69.3916032 100.5550996  57.9741980
  70.3660394 100.9089165  57.6374682  68.8118784 100.2166765  57.1154255
  68.8624799 101.3679688  58.4715625  72.3438555 101.2670154  61.0485674
  73.3844349 100.9701912  61.6060905  71.7711032 102.3786460  61.4621433
  70.9974964 102.7256316  60.9132965  72.1348607 103.0957031  62.6650430
  73.1968903 103.3410440  62.6645769  71.3293577 104.4024099  62.7107828
  70.2934838 104.0792445  62.8138777  71.6514305 104.8876925  63.6321242
  71.4431620 105.4039332  61.5323865  71.1732030 106.3678481  61.9637691
  72.4789164 105.4350733  61.1942368  70.5481398 105.1410904  60.3323457
  69.8017519 104.1979610  60.2834604  70.6672653 105.9564343  59.3299663
  70.0961173 105.8270499  58.5070744  71.3305738 106.7166165  59.3773606
  71.7709460 102.3129707  63.9068377  70.6441114 101.9181784  64.2173807
  72.8584221 102.0298307  64.6126828  73.7221283 102.2344050  64.1307488
  72.9197710 101.2580623  65.8200286  73.9575361 101.2298564  66.1522141
  72.0528891 101.8200959  66.9615715  71.0309458 101.6524031  66.6215564
  72.2275024 101.2562624  67.8779240  72.2305887 103.3172765  67.2644035
  73.1344115 103.9759839  66.7795376  71.4333471 103.8885357  68.1313537
  71.5394162 104.8711920  68.3392856  70.7158715 103.3439785  68.5882859
  72.7661437  99.7557258  65.5768953  72.4823872  99.0452023  66.5143570
  73.0742616  99.3757494  64.3414212  73.1855914 100.1170469  63.6645289
  73.1324046  97.9787855  63.8658121  72.6583414  97.3466598  64.6166652
  72.4398318  97.7505614  62.5307276  71.3752570  97.9453077  62.6605490
  72.8518684  98.4543555  61.8075404  72.6428301  96.2876003  62.0090826
  73.6836186  96.2495392  61.6875061  72.4578529  95.4948983  62.7340006
  71.7039380  96.0894389  60.7664537  70.9113767  95.1411057  60.8663431
  71.8172362  96.7373263  59.7061314  74.6345072  97.6705774  63.9087240
  75.4060612  98.0777463  63.0477379  75.1327556  96.9344935  64.8781718
  74.5040581  96.4468670  65.5003127  76.5567729  96.7311572  65.0434382
  77.0439538  97.6623029  64.7540913  77.0368225  96.3417604  66.4688015
  76.6670186  95.3543837  66.7452642  78.1129068  96.2926313  66.3022820
  76.7471047  97.3090191  67.5718447  75.5141762  97.9221591  67.8085124
  74.6844479  97.7749149  67.1171590  75.3444293  98.7435907  68.9608557
  74.4277475  99.3245467  69.0622784  76.3743049  98.9066652  69.8768933
  76.1388822  99.5757002  71.0780520  75.2327277  99.8800980  71.1665141
  77.6102934  98.2681396  69.6210367  78.4305776  98.4121863  70.3242329
  77.7894910  97.4707853  68.5003632  78.7418923  96.9664788  68.3369410
  77.0373321  95.5556241  64.2071202  76.5671529  94.4033461  64.4241476
  78.0864798  95.6963758  63.4203743  78.3601985  96.6413250  63.1917953
  78.8644254  94.5821734  62.8406686  78.3093665  93.7394723  62.4285233
  79.5742960  95.2961619  61.7064741  80.1419041  96.1372169  62.1046543
  80.2530074  94.6035535  61.2087346  78.8388938  95.6615968  60.9897174
  79.8030418  93.9819069  63.8905131  80.5784869  94.6439906  64.5378948
  79.6725010  92.6416309  64.1744399  78.9347707  92.1220911  63.7206428
  80.4836009  91.9565557  65.1915425  80.9980778  92.6947187  65.8067889
  79.5921726  91.0771127  66.1122057  78.7898875  90.5325122  65.6143623
  80.3653806  90.3763405  66.4271146  79.0273524  91.8083866  67.3476075
  79.9064588  92.0934177  67.9255609  78.1477188  93.0213921  67.1367820
  77.2681147  92.7370308  66.5592579  77.8349881  93.4164768  68.1033266
  78.7055017  93.7857097  66.5956746  77.9724298  90.8531615  67.8844260
  78.4402688  89.9039805  68.1457337  77.5079767  91.2849443  68.7709632
  77.2119840  90.6850461  67.1218263  81.6547743  91.1103524  64.6531085
  82.7297180  91.1563306  65.3102690  81.4330469  90.3834422  63.5355574
  80.6390471  90.7039070  62.9998653  82.2822063  89.2912104  62.9621666
  83.2852852  89.3466798  63.3850792  81.6921318  87.9193697  63.2835700
  82.2851657  87.2240865  62.6894393  81.9115581  87.7717244  64.3409976
  80.3588597  87.6914680  63.0575339  80.1414491  86.7903457  63.3071560
  82.2675483  89.2931393  61.4320639  81.3799388  89.9033993  60.8260926
  83.2326285  88.6114116  60.8439164  83.6298461  87.8467769  61.3708426
  83.7616498  88.8766994  59.4741223  82.9773487  89.2233352  58.8012073
  84.7968859  89.9660133  59.6096672  84.2768346  90.7561655  60.1512439
  85.6386651  89.6117441  60.2046471  85.3121504  90.5166883  58.2708384
  85.6827361  89.6709024  57.6916897  84.2532816  91.2549683  57.4680903
  83.8825247  92.1012221  58.0464438  84.6887724  91.6153746  56.5361269
  83.4281895  90.5784551  57.2452601  86.4882608  91.3869081  58.6138952
  87.2493388  90.7889791  59.1152340  86.9045094  91.8125912  57.7008605
  86.1652337  92.1912611  59.2747800  84.4141646  87.5816971  58.9059281
  85.4479721  87.0887156  59.5291585  83.9942948  86.9888831  57.7501037
  83.1229236  87.3134573  57.3558157  84.6706928  85.8250675  57.1082642
  85.7142014  85.5755663  57.3004570  83.7813572  84.5465526  57.4041912
  82.7404974  84.8675750  57.3635128  83.9951646  83.3856518  56.4304127
  85.0357638  83.0637554  56.4708704  83.3471428  82.5541852  56.7075978
  83.7551009  83.7109239  55.4181533  83.6783968  84.0128101  58.8667274
  83.2600851  84.7882578  59.5084425  83.0319473  83.1354864  58.8892144
  84.6711310  83.7412911  59.2256941  84.9259338  86.0840012  55.6395864
  84.0419359  86.6879177  54.9989638  85.9933601  85.5170035  55.1052562
  86.6747822  85.0990452  55.7225683  86.3309240  85.6396490  53.6622006
  85.3857450  85.8089990  53.1463941  87.2896624  86.7023042  53.2584548
  86.9146715  87.6955663  53.5052573  88.2662280  86.5580039  53.7206203
  87.4140947  86.5754577  51.8075466  88.0250978  87.2392996  51.4795388
  86.7376829  84.2262443  53.1715364  87.7643987  83.7038142  53.6462357
  86.0059127  83.5964817  52.2178381  85.3093300  84.1102692  51.6973631
  86.0866256  82.1190478  52.0242080  87.1135412  81.7997929  51.8463883
  85.5768504  81.4469615  53.3270205  85.8262290  80.3858768  53.3240722
  86.0291602  81.9235492  54.1967216  83.7849463  81.5412101  53.5776498
  83.7718054  80.8861089  54.7350469  85.3820348  81.6303859  50.7429355
  84.8822025  82.4742190  49.9760995  85.3180552  80.2935742  50.4952360
  86.0099061  79.7298562  50.9681668  84.4592112  79.6381862  49.4448495
  83.6018405  80.2673783  49.2058266  85.3144814  79.4314014  48.1336909
  84.6443642  79.0779607  47.3500315  85.7278957  80.3987996  47.8485081
  86.4810160  78.4013858  48.3272982  87.1370833  78.7954493  49.1034364
  86.0360136  77.4666878  48.6684939  87.3190519  78.1368401  47.0139797
  88.1965853  77.5929303  47.3635455  86.6887918  77.4693781  46.4263011
  87.7711390  79.3379381  46.1283490  86.8734497  79.7693959  45.6855188
  88.2375205  80.0692415  46.7884876  88.7119229  78.9695908  45.0649926
  88.2798022  78.2922768  44.4529328  88.9597405  79.7927089  44.5347446
  89.5439913  78.5701646  45.4751389  83.7729403  78.4194025  50.0200576
  84.4434759  77.6094185  50.7067461  82.4730314  78.2879005  49.8578570
  82.0269038  79.0120493  49.3131755  81.6068876  77.2675892  50.5256847
  82.1758020  76.6465215  51.2175737  80.5459835  78.0458729  51.3223214
  79.9631529  78.6573559  50.6334844  79.9013320  77.2900393  51.7709194
  81.1350011  78.9395119  52.4285842  81.8832012  79.6018647  51.9931694
  80.0160381  79.7850258  53.0823075  79.2676480  79.1233191  53.5183757
  80.4440165  80.4133792  53.8634010  79.5471016  80.4148274  52.3262989
  81.7736165  78.1676655  53.5802411  82.5881263  77.5521860  53.1983272
  82.1641111  78.8700139  54.3166662  81.0252959  77.5288370  54.0492970
  81.0006435  76.1537377  49.5571849  80.4497237  76.4602035  48.5066441
  81.2387739  74.9068716  50.0058361  81.8700902  74.6802507  50.7609401
  80.5440645  73.8390754  49.3607104  80.9002992  72.9390228  49.8618106
  79.4962174  74.0035425  49.6118409  80.6661083  73.6545781  47.8894878
  81.8213674  73.7259720  47.3760987  79.5618575  73.2811992  47.2068735
  78.7260574  72.9738297  47.6833832  79.5798100  73.2446959  45.6859641
  80.4026566  72.6349388  45.3128435  78.2823907  72.6273336  45.2384646
  78.3533858  72.5834824  44.1516638  78.2990229  71.6158179  45.6442471
  76.9653264  73.3196174  45.6393135  76.9714517  73.3274484  46.7292685
  77.0593020  74.3403326  45.2686232  75.6110052  72.6972890  45.1263043
  75.5326523  71.6780695  45.5046580  74.7859853  73.2934607  45.5162028
  75.5484888  72.6794356  43.5811270  75.0919439  73.6070364  43.2358386
  76.5624194  72.6057664  43.1879136  74.7344619  71.5072589  43.0940963
  73.7947745  71.5755607  43.4579949  74.7058343  71.5135366  42.0845217
  75.1575764  70.6476062  43.4135811  79.7780233  74.5343659  44.9259643
  80.1358396  74.4985336  43.7911628  79.4148688  75.6815953  45.5397963
  79.0833208  75.6190973  46.4917780  79.4616431  76.9955597  44.9088235
  79.0717470  76.9319416  43.8929333  78.6366351  77.9701239  45.6749811
  77.7034334  77.4606946  45.9152221  79.2027645  78.1411443  46.5905954
  78.3272973  79.3139992  45.0077373  77.5468696  80.1280120  45.6471595
  78.9036008  79.5189229  43.8707384  80.9394561  77.5698463  44.8188478
  81.5478446  77.6189297  45.8720483  81.4822031  77.9838839  43.6567220
  80.9598448  77.4835732  42.4491558  80.0045472  77.9730312  42.2595832
  80.8019187  76.4109638  42.5617056  81.9939265  77.8055090  41.3995710
  81.8486435  78.8129216  41.0095559  81.9482859  77.0888901  40.5795249
  83.3093457  77.6859366  42.1520707  84.1240118  78.2535043  41.7023096
  83.6113585  76.6446509  42.2643736  82.9503450  78.2863992  43.5396197
  83.4221723  77.7728260  44.3773068  83.3612203  79.7547252  43.5480090
  84.5757619  80.0512109  43.5910552  82.4238977  80.6809665  43.5635733
  81.5280760  80.4452468  43.1610324  82.6354645  82.0516381  44.0310397
  83.3187948  82.5985962  43.3814276  81.2657432  82.7420493  43.9942063
  80.6444113  82.1390306  44.6563351  81.3119273  83.7638584  44.3708672
  80.6212599  82.7615933  42.5984312  80.8431905  83.7095454  41.8672126
  79.7681946  81.8513024  42.1956905  79.3727595  81.9093929  41.2681365
  79.5103696  81.0961275  42.8148334  83.3205891  82.1343632  45.4293269
  83.0530145  81.3147643  46.3553995  84.1437423  83.1038420  45.5560185
  84.4074092  83.6077351  44.7213504  84.7282675  83.5310651  46.8484049
  84.6810500  82.7885529  47.6449885  86.2103066  84.0350922  46.7192662
  86.2418833  84.5927424  45.7832484  86.7587271  84.8858379  47.8265528
  86.7279030  84.3286548  48.7628735  87.7896455  85.1578016  47.5999645
  86.1576619  85.7900605  47.9224839  87.0920786  82.9581780  46.4408886
  87.9896443  83.2905398  46.3666471  83.8360681  84.6963801  47.3724460
  83.5935278  85.6687625  46.6966533  83.4415005  84.6129655  48.6314188
  83.9898360  83.9577948  49.1701014  82.3606773  85.3537076  49.3177338
  81.9529528  86.1230353  48.6619939  81.2599444  84.4032562  49.6836003
  81.6557828  83.5009362  50.1496795  80.6887721  84.9705538  50.4184715
  80.3756178  84.0282168  48.5526573  79.6320953  84.9782613  47.8362715
  79.6798198  86.0290575  48.1220150  78.8032517  84.5676529  46.7207393
  78.3395987  85.3196577  46.0822908  78.7304360  83.2249027  46.3768751
  77.7663141  82.7571719  45.5279641  77.1749092  83.4460323  45.2160166
  79.5680382  82.3448160  47.0454706  79.5648660  81.3198527  46.6746058
  80.3669980  82.6878544  48.1067970  80.9825983  81.9308065  48.5926106
  82.8145462  86.0216556  50.6357215  83.5503005  85.3483568  51.4098954
  82.3529029  87.2721512  50.9516792  82.1190990  87.8527497  50.1590000
  82.3646397  87.8811149  52.2732856  83.1756874  87.4575468  52.8656461
  82.5723437  89.3929550  52.1706034  81.8959847  89.6900152  51.3691092
  82.3481808  89.9706858  53.0673074  84.0138196  89.8088714  51.7180266
  85.1200842  89.7104977  52.6016369  85.0037740  89.2405837  53.5782396
  86.3543818  90.2160470  52.2172593  87.2002987  90.1522342  52.9016959
  86.5196730  90.8192321  50.9286731  87.4778751  91.2454217  50.6315014
  85.4130995  90.8582735  50.0309004  85.5409762  91.2102934  49.0072648
  84.1707881  90.4449501  50.4685524  83.2913620  90.6083795  49.8456556
  81.1501285  87.4295780  53.1031530  80.0691334  87.3204440  52.4590589
  81.2800906  87.1215662  54.4126016  82.1872604  87.0317389  54.8474271
  80.0561973  86.9211992  55.2665040  79.1363175  87.2393636  54.7759005
  80.0004224  85.3791030  55.5294864  80.8932501  85.0496829  56.0609386
  78.7458321  85.1012787  56.4033152  77.8525023  85.4300331  55.8722946
  78.6739813  84.0329971  56.6075516  78.8297412  85.6456528  57.3439083
  79.9352337  84.6278145  54.1504733  79.1591130  85.1121259  53.5578690
  80.9012953  84.7649480  53.6646557  79.6329569  83.1460507  54.2645740
  78.6667659  83.0081245  54.7499102  79.6055952  82.7025888  53.2692388
  80.4089477  82.6609468  54.8566992  80.2357331  87.7115560  56.5819450
  81.3148088  87.5901317  57.1456265  79.2659631  88.4015351  57.1090768
  78.3612329  88.2265329  56.6956317  79.3350087  89.2700512  58.2896362
  80.3707751  89.1406901  58.6035676  79.1277825  90.7283813  57.8771224
  78.0760973  90.8323074  57.6101823  79.4821466  91.7491798  58.9404410
  80.5338715  91.6461692  59.2075824  79.3022099  92.7529536  58.5555235
  78.8655082  91.5834126  59.8238321  80.2074617  91.1277265  56.7830555
  80.0962756  90.4842672  55.9103014  80.0601491  92.1668717  56.4888174
  81.2080446  91.0065144  57.1980762  78.1401418  88.9554587  59.1678495
  77.0166445  89.0311134  58.7061525  78.4445071  88.6811781  60.4217127
  79.4030588  88.4569618  60.6475556  77.4487504  88.6858156  61.5159083
  76.5090610  88.3727374  61.0608643  77.7818524  87.9242930  62.2210507
  77.2265628  89.9831770  62.2611278  78.1037190  90.7881955  62.4270175
  76.0475296  90.1905665  62.8407106  75.3631483  89.4544953  62.9403141
  75.6869871  91.5397140  63.2864854  76.5430707  92.0955352  63.6689548
  74.9995299  92.3884314  62.1684486  74.8331014  93.3751100  62.6007299
  75.7506177  92.5276105  60.8866151  75.9170295  91.5413058  60.4534757
  75.1733841  93.1366789  60.1909599  76.7108727  93.0066570  61.0777311
  73.7004011  91.8993333  61.8833725  73.3002765  92.4360568  61.1953111
  74.7847191  91.4463887  64.5080945  74.5899987  90.3085841  64.9953569
  74.3272601  92.5787696  65.0658712  74.6227289  93.4520457  64.6533346
  73.4123386  92.6236830  66.1778858  72.6831812  91.8184760  66.0880515
  74.1581138  92.4560596  67.4794409  74.8857688  93.2603138  67.5880383
  73.4529089  92.4902447  68.3098731  74.6749813  91.4964022  67.4816475
  72.7158261  93.9103004  66.2861355  73.1512108  94.9619047  65.8397652
  71.6369318  93.9242421  67.0647515  71.0866919  93.0824636  67.1582624
  71.1480641  95.1618918  67.7243366  71.8680097  95.9802409  67.7152681
  69.9499681  95.5487559  66.8301738  69.5087071  94.6126528  66.4879765
  69.2420704  96.0690545  67.4753638  70.2780660  96.4223621  65.6302013
  70.6859977  97.3634035  65.9991643  71.0326765  95.9084736  65.0347321
  68.8419274  96.7635726  64.5992157  69.0056383  98.4025724  63.9429479
  69.9166735  98.4669671  63.3479964  68.1448715  98.6304292  63.3142489
  69.0561546  99.1193305  64.7625863  70.8219215  94.9892569  69.2088727
  70.3697106  93.9046239  69.5782690  70.8433841  96.0643979  69.9811784
  71.1410903  96.9349802  69.5645772  70.5869900  96.0367261  71.4183668
  70.3829537  95.0189994  71.7510838  71.7781085  96.5949336  72.2352696
  71.8145978  97.6744265  72.0887675  71.6416584  96.2761151  73.7829886
  71.6055704  95.1967226  73.9303329  72.4992631  96.6865878  74.3160242
  70.7262339  96.7256236  74.1677506  73.1386959  96.0539444  71.7645091
  73.2975108  96.3267948  70.7212293  73.9322341  96.4827228  72.3765107
  73.1519719  94.9683650  71.8616782  69.2646910  96.7551501  71.7740018
  69.1842610  97.9285002  72.1682284  68.1653309  95.9876266  71.6515348
  68.2673479  95.1246897  71.1367225  66.8864761  96.3649958  72.0635989
  66.6810261  97.3885407  71.7501578  65.8295004  95.4348450  71.4332354
  66.0714853  94.4223363  71.7562968  64.8669905  95.7289384  71.8517850
  65.7559636  95.4783035  69.9109799  64.8555993  94.5689247  69.3450248
  64.2921915  93.8841327  69.9788473  64.6781658  94.5414827  67.9379892
  63.8616819  93.9585968  67.5117264  65.5108707  95.3197294  67.0929030
  65.4992163  95.2004689  65.7207911  64.8746471  94.5425226  65.4067532
  66.4233624  96.1914768  67.6873854  67.0873630  96.7725069  67.0473793
  66.4974864  96.3303485  69.1046963  67.1319443  97.0998708  69.5444675
  66.7737391  96.4573799  73.6284087  67.0657303  95.4877112  74.4028231
  66.1916606  97.5901685  74.1913612  65.9877410  98.8652350  73.4901563
  65.3237787  98.7192132  72.6381398  66.9441405  99.2554582  73.1421264
  65.3363326  99.7760529  74.6249377  64.2506723  99.7818635  74.5279482
  65.7125431 100.7964951  74.5523783  65.7729473  99.1290488  75.9263014
  65.0080276  99.2489624  76.6935156  66.7014843  99.5888075  76.2647399
  65.9937438  97.6761638  75.6515546  66.9265925  97.3702190  76.1251465
  64.8482541  96.8011180  76.1692196  64.6547252  96.6805755  77.3452108
  64.0623256  96.2019055  75.2807024  64.3084682  96.2797444  74.3042526
  62.8673158  95.4404707  75.6350112  62.3544220  95.8934190  76.4834668
  61.8861153  95.4474058  74.3861832  62.4653842  95.0327975  73.5611701
  61.0818903  94.7593106  74.6466580  61.2753876  96.8250178  73.9548757
  62.1368635  97.4663591  73.7687539  60.6873544  96.7332513  73.0416972
  60.3945704  97.4514940  75.0792443  60.9821706  98.0020373  76.1053740
  59.1723750  97.2996951  74.9378918  63.2251409  93.9573948  76.0030206
  62.3110082  93.1820743  76.4014683  64.4838925  93.5166351  75.8066914
  65.0700686  94.2230639  75.3854370  65.0555513  92.2183984  76.0637025
  64.4101253  91.6163065  76.7032413  65.1951384  91.5156558  74.7077363
  65.6675817  92.2199624  74.0230110  65.8493460  90.6558838  74.8523207
  63.8746301  91.0529663  74.1245269  63.2395818  91.9210915  73.9479677
  64.1041304  90.5719324  73.1737192  63.1464499  90.0671720  75.0292081
  61.8842431  90.1627953  75.0787282  63.7683941  89.2133662  75.6471977
  66.4356181  92.3002577  76.8060068  67.3245756  93.0215322  76.3018177
  66.5917717  91.6114689  77.9157234  65.7754934  91.1900801  78.3355099
  67.9127654  91.5012432  78.6469496  68.4207958  92.4625868  78.7232564
  67.6422146  90.9762503  80.0622220  67.1419035  90.0097107  80.0023054
  68.5863320  90.8636661  80.5952017  67.0058366  91.6816966  80.5965139
  68.8596675  90.5969947  77.7876120  69.9593846  90.9975706  77.3785845
  68.3936393  89.4514302  77.3799141  67.6389190  88.9978164  77.8746172
  69.0854259  88.7084266  76.3636651  70.1362592  88.5646891  76.6150377
  68.4079521  87.3349107  76.2855169  68.3986934  86.9617893  77.3096233
  67.3863781  87.5376654  75.9639937  69.0398649  86.2716130  75.3550803
  69.2669693  86.6242653  74.3490183  69.9691867  86.1098164  75.9012322
  68.2500919  84.9351739  75.2694355  67.3376359  84.7073553  76.0637125
  68.4654478  84.2604663  74.2675909  69.2764707  89.4479589  75.0114770
  68.4245683  90.3076608  74.7405471  70.4295992  89.3333072  74.3119038
  71.7147177  88.7752218  74.7426626  71.5545928  87.7087124  74.9008333
  71.9589233  89.2502759  75.6928132  72.7701570  89.0609622  73.6535335
  72.9232554  88.1937345  73.0112127  73.7220847  89.3601144  74.0922167
  72.1313765  90.2272690  72.8799043  72.4050362  90.1395000  71.8284739
  72.3919563  91.2222335  73.2407968  70.6500983  89.9909722  73.0458794
  70.2102413  90.9881826  73.0319019  69.9420900  89.0975757  71.9862445
  70.5135578  88.2194993  71.3623980  68.6619686  89.3950817  71.8366002
  68.2612545  90.2272481  72.2452890  67.7554987  88.4414131  71.1518590
  68.1478181  87.4278596  71.2348890  66.3906652  88.4824039  71.7858268
  66.1167246  89.5307978  71.9038353  65.6961167  88.0012176  71.0972323
  66.3273318  87.7822496  73.1465699  67.0325767  86.9511507  73.1443111
  66.6106481  88.4963977  73.9197623  64.8993718  87.2476693  73.4348688
  64.2176270  88.0946953  73.5114844  64.5917244  86.6079862  72.6076700
  64.8653912  86.4371440  74.7540591  65.2899113  85.4576088  74.5340728
  65.5075798  86.9600260  75.4627815  63.4621948  86.2627604  75.3650454
  62.8670921  85.7778849  74.7086550  63.5306531  85.7257689  76.2177197
  63.0688210  87.1702912  75.5693590  67.7085799  88.7156609  69.6549169
  66.9531621  87.9408431  68.9758033  68.4696448  89.5965011  69.0444672
  69.1134041  90.1350804  69.6062550  68.2979302  89.9688403  67.6248110
  67.8932050  89.1270489  67.0629535  67.3155412  91.1597170  67.5080156
  67.3572081  91.5349568  66.4854902  66.3110651  90.7929648  67.7192516
  67.6759199  92.3407089  68.5238484  68.7522619  92.5096129  68.5564092
  67.1871299  93.2019576  68.0683957  67.1715692  92.1906640  69.9285059
  66.1859200  91.5561985  70.2638167  67.9564155  92.7241394  70.8515986
  67.6945251  92.6698222  71.8255414  68.8134472  93.1829836  70.5776278
  69.6266372  90.1774874  66.8932995  70.4429377  90.9884821  67.3530105
  69.6976662  89.5007847  65.7695094  68.9194986  88.9283978  65.4746740
  70.9183963  89.5504828  64.8930489  71.3307544  90.5594708  64.8948244
  71.6671276  88.8518862  65.2664972  70.5399692  89.1552661  63.4197835
  69.4208104  88.6771222  63.1826847  71.5408260  89.1997419  62.5206414
  72.3210269  89.7996151  62.7476613  71.5028164  88.5802115  61.1884480
  71.1025940  87.5709869  61.2853340  70.6676834  89.3279179  60.2336491
  70.6727481  88.8106235  59.2742326  69.6474419  89.3765677  60.6142285
  71.2137658  90.7518430  60.0500968  71.3701927  91.2038931  61.0295263
  72.1630234  90.7047924  59.5164319  70.2561203  91.5685026  59.2789312
  70.1164719  91.0880784  58.3105357  69.3111715  91.5712269  59.8222209
  70.6993236  93.0351923  59.0462662  70.7099272  93.6093173  59.8771497
  70.9631221  93.6084699  57.8751782  70.9603126  92.9598384  56.7625640
  70.7510050  91.9717744  56.7580998  71.1674321  93.4423013  55.8997600
  71.3347349  94.8381039  57.8403751  71.4238867  95.3600620  58.7004401
  71.5358916  95.2767574  56.9531221  72.9249878  88.3109151  60.6521476
  73.8113070  89.1233286  60.9383842  73.1137394  87.1393087  60.0247743
  72.4796731  86.3881263  60.2566889  74.1854459  86.8723363  59.0536153
  75.0566856  87.3370830  59.5151899  74.4817815  85.3060964  58.8018363
  73.6478509  84.8615001  58.2587026  75.7383930  85.1560494  57.9976283
  76.5729107  85.6000306  58.5403636  75.9377087  84.0979232  57.8280910
  75.6193364  85.6609658  57.0389917  74.8005833  84.4891828  60.1316929
  75.8603322  84.5737592  60.3722754  74.2084394  84.8825519  60.9579652
  74.4391070  82.9929966  59.9010075  75.0312315  82.5987771  59.0751265
  74.6532389  82.4233382  60.8052950  73.3793385  82.9075701  59.6608139
  73.8627897  87.5014651  57.6561791  72.7596146  87.2483188  57.2674406
  74.7262080  88.3158638  57.0724561  75.4389515  88.7119587  57.6684468
  74.6740613  88.7539571  55.6376697  73.9224485  88.3208827  54.9776517
  74.5358859  90.3136926  55.5981893  75.5192095  90.7503681  55.7727984
  73.9754377  90.8163122  54.2055930  72.9918675  90.3803911  54.0304834
  73.8937546  91.9031862  54.2171311  74.6542495  90.5119253  53.4089344
  73.8373716  91.0535586  56.7085069  74.3525753  90.8666491  57.6507022
  73.8468257  92.1225338  56.4956634  72.8064386  90.7077352  56.7839010
  75.9263253  88.2488775  54.8324924  76.9789110  88.1127165  55.4386488
  75.8142836  88.2208599  53.5163281  75.0782331  88.7874556  53.1197197
  76.6737872  87.4860196  52.6162917  77.6402296  87.3048654  53.0866867
  76.0687706  86.1272740  52.1904801  75.0864044  86.2778704  51.7428458
  76.9893155  85.4989372  51.1794485  77.9718197  85.3475953  51.6265301
  76.5822060  84.5381781  50.8643226  77.0816711  86.1552546  50.3141048
  75.7926584  85.0314402  53.2687381  75.0890473  85.4163994  54.0068708
  75.3693697  84.1484138  52.7899997  76.7266032  84.7637047  53.7628693
  76.8136389  88.3610355  51.3667167  75.8010986  88.8492785  50.8403329
  78.0825435  88.7494514  50.9634945  78.8261766  88.3626961  51.5269922
  78.4325551  89.6500459  49.8966176  77.5632094  89.8281055  49.2636625
  78.9307390  91.0507351  50.4865527  79.9738697  90.9269579  50.7775114
  78.8692158  91.7315796  49.6375735  78.2391890  91.7352374  51.6398511
  77.4091726  92.7978766  51.4550283  77.2918061  93.2561974  50.4730573
  76.6918302  93.3072705  52.5643063  76.0131690  94.1507669  52.4376827
  76.8545734  92.7299961  53.8144335  76.2276987  93.0785082  54.6352059
  77.7816650  91.7387513  54.0308194  78.0055737  91.3696176  55.0316718
  78.4424384  91.2042392  52.9274585  79.1261682  90.3650643  53.0555169
  79.5038841  89.1305547  48.9482416  80.2080533  88.1702424  49.2503873
  79.6572285  89.6873575  47.7392792  78.9910821  90.4112055  47.5103853
  80.6899226  89.2673450  46.6565778  81.5693759  88.8060064  47.1058303
  80.0009409  88.2281185  45.7369308  79.8898039  87.2794716  46.2621135
  79.0194608  88.5911329  45.4319435  80.8954417  88.0213847  44.4725050
  80.8270139  88.9248955  43.8666282  81.9351933  87.8487838  44.7504032
  80.4234287  86.8700404  43.6624581  79.5213794  86.1195931  43.9646285
  81.0431270  86.5812123  42.5206624  80.7292000  85.7999236  41.9628638
  81.8245072  87.1446312  42.2171735  81.1198523  90.6084441  45.9766502
  80.3699241  91.6065134  46.0396915  82.2976858  90.6646039  45.3997763
  82.8652328  89.8294938  45.4238772  82.8833644  91.8732504  44.8806702
  82.1986128  92.7209076  44.9069712  84.0593326  92.1606268  45.8334774
  83.8853093  92.1148476  46.9085213  84.7730872  91.3877773  45.5482442
  84.6057993  93.4941816  45.4773387  84.1088229  94.7199521  45.9623297
  83.2808575  94.7468805  46.6707418  84.6997923  95.9279710  45.5173358
  84.2536812  96.9008367  45.7237797  85.7756263  95.8175228  44.5739105
  86.3686000  97.0094415  44.1365172  85.9746973  97.7910891  44.5308105
  86.3845143  94.5961088  44.2609916  87.2738393  94.5256575  43.6347024
  85.8089985  93.4421144  44.7847735  86.3028744  92.4792283  44.6542473
  83.2273443  91.8274233  43.3957363  83.7300197  90.7992269  42.8735835
  82.9047418  92.8691067  42.6703713  82.4909572  93.6563352  43.1490704
  83.0643886  92.9463232  41.1945788  84.0824637  92.6949738  40.8971804
  82.0675578  91.8927710  40.5374631  82.5027215  90.9096570  40.7169585
  81.1291469  91.9796468  41.0851287  81.8292704  92.0493218  39.1934865
  81.2200995  91.3699340  38.8952534  82.7664603  94.4381939  40.7287530
  82.2156951  95.2702112  41.3964055  83.1952085  94.7142605  39.4962547
  83.7739862  94.0072926  39.0657757  83.0952891  96.0299431  38.8402415
  83.9799634  96.2008969  38.2268693  81.8794061  96.0986352  37.9592398
  80.9912758  96.1780971  38.5861446  82.0185299  97.0284205  37.4076568
  81.7050866  94.9414976  36.9723709  80.6189007  94.9085255  36.3557252
  82.6993888  94.1281991  36.7875015  83.2689012  97.2615789  39.7526219
  82.3815004  98.1534195  39.7272791  84.2342073  97.2678634  40.6710371
  84.7805462  96.4214672  40.7433328  84.5759002  98.4425471  41.6134394
  85.5233011  98.2237998  42.1060653  84.6794103  99.3462791  41.0128951
  83.5125286  98.6708363  42.6687360  83.4332191  99.7658611  43.2415960
  82.6536773  97.6433824  42.9054595  82.8574317  96.7961758  42.3947497
  81.4614210  97.6691591  43.7656167  81.5122059  98.5454587  44.4118512
  80.1319759  97.7322673  42.9404942  80.1067396  96.8780189  42.2639426
  79.2937282  97.6703523  43.6344736  80.0300327  99.0141950  42.1389114
  81.0345450  99.2580166  41.7930688  79.3911325  98.8068101  41.2804826
  79.4515977 100.2151772  42.9362724  78.3836503 100.0795591  43.1071383
  79.9621239 100.3174762  43.8938722  79.6732197 101.4507360  42.1179716
  79.4857704 102.3050125  42.7684906  80.7194154 101.4503060  41.8120735
  78.8082581 101.5445501  40.9184545  77.8387933 101.5453975  41.2017159
  79.0143567 102.3989180  40.4207811  78.9821055 100.7532736  40.3153311
  81.4247889  96.4257535  44.7094210  81.7502054  95.2679366  44.2761264
  80.9212067  96.5966742  45.9504129  81.0870295  97.4985696  46.3737176
  80.2983357  95.5517408  46.7648083  80.6951208  94.5808911  46.4679722
  80.5722651  95.7559010  48.2397056  81.5448400  96.2472620  48.2121085
  79.8593455  96.3916640  48.7647304  80.7060396  94.3288589  49.0206104
  79.7697494  93.8170120  48.7981822  81.8782226  93.4000933  48.7152803
  82.8149123  93.9111166  48.9379156  81.8002131  92.5021561  49.3282436
  81.8577972  93.1228267  47.6613323  80.5936296  94.5868093  50.4896355
  79.6274446  95.0425631  50.7061405  80.6803941  93.6453446  51.0320537
  81.3910156  95.2607671  50.8027737  78.7940784  95.3853312  46.4744000
  78.0791782  96.3859785  46.5214289  78.2013186  94.1790997  46.4006611
  78.7925242  93.3887971  46.6151308  76.7887578  93.9237313  46.0593303
  76.2093995  94.8142301  46.3031647  76.5744835  93.5903853  44.5801596
  77.2932963  92.8101141  44.3299911  75.5631238  93.1930381  44.4943294
  76.7485454  94.8031359  43.5868851  76.1123491  95.6260003  43.9128440
  77.7933515  95.1090893  43.6405013  76.4168968  94.4766457  42.1595048
  76.1865312  93.3183383  41.8256837  76.3392727  95.4009583  41.2602441
  76.1145480  95.1558229  40.3065623  76.5036771  96.3643352  41.5151509
  76.4357455  92.7033204  46.9408146  77.0971985  91.6654213  46.7348966
  75.5222905  92.8150154  47.8691907  75.2875716  93.7682902  48.1064110
  74.8511785  91.7115730  48.6219701  75.5601869  91.1704773  49.2485654
  73.6685884  92.2018015  49.5155950  73.0882180  92.8410187  48.8502592
  72.7427459  91.1973134  50.1893972  73.3223702  90.5579997  50.8552900
  71.9858223  91.7296238  50.7654279  72.2565796  90.5844899  49.4303252
  74.2695053  92.9819209  50.4458786  73.6072518  93.3311363  51.0467691
  74.2698684  90.5536124  47.7914692  73.7581494  90.7877531  46.7196120
  74.2698262  89.3804875  48.4412398  74.5925670  89.3822405  49.3982845
  73.8490717  88.0831651  47.8397306  73.4490117  88.2716028  46.8434663
  74.9994324  86.9997558  47.7267494  75.3653086  86.8569888  48.7435343
  74.6227618  85.6234566  47.1145967  74.2572084  85.7653747  46.0975761
  75.5023048  84.9798634  47.0975009  73.8439654  85.1575766  47.7183629
  76.0574534  87.7339266  46.8412413  76.3803315  88.6468176  47.3417230
  76.9170401  87.0820124  46.6856191  75.6139414  87.9857209  45.8779150
  72.7304699  87.4806088  48.6714840  71.7972935  86.9768589  48.0407243
  72.8979101  87.4313107  49.9492522  73.7934744  87.7248979  50.3123921
  71.9271238  86.8353186  50.8830275  70.9460196  87.2348700  50.6263324
  71.9224978  85.2929326  50.6224684  72.8955665  84.8769034  50.8835373
  71.1514019  84.8230978  51.2330145  71.7172979  85.1025004  49.5690322
  72.1568740  87.2207009  52.3273022  73.1901679  87.7649831  52.7295130
  71.1425311  87.0906118  53.1729796  70.2904134  86.8913494  52.6687085
  71.0488889  87.4062139  54.5616925  72.0375600  87.2480523  54.9925214
  70.5958090  88.8157892  54.8923919  70.8225510  89.0242117  55.9379766
  71.1346125  89.5188492  54.2571774  69.0803348  88.9672682  54.6556033
  69.1350878  88.8169772  53.5774032  68.3331240  88.2954899  55.0780831
  68.6751485  90.4591449  54.9574986  68.9598313  90.8671580  56.0948544
  67.8541892  91.0767084  54.2744274  70.2785194  86.2398335  55.2820567
  69.5869097  85.4994770  54.5820159  70.3958534  86.1076609  56.5979979
  71.1456923  86.6123686  57.0486763  69.6037966  85.2013263  57.3962840
  68.6104078  85.0472355  56.9749362  70.3558679  83.8606893  57.3842013
  70.4003520  83.5124213  56.3522953  71.3665928  84.0418673  57.7498648
  69.6819302  82.7946769  58.2539849  69.9482360  82.9607815  59.2978198
  68.6004295  82.8677051  58.1394197  70.1343434  81.4395672  57.8364807
  69.8766261  81.2856325  56.7886330  71.2154790  81.3723849  57.9578551
  69.4474463  80.3490461  58.7039461  69.9027355  79.3772505  58.5130909
  69.5463149  80.5946539  59.7613017  67.9958288  80.3009071  58.3363943
  67.9039836  80.0729123  57.3567604  67.5313006  79.5961838  58.8910821
  67.5736614  81.2011749  58.5135715  69.3552057  85.8104711  58.7503472
  70.2881845  85.9496205  59.5667876  68.0741077  86.1172888  59.0136852
  67.3641291  86.0213939  58.3017625  67.6772345  86.5667010  60.3088683
  68.1766185  87.4977142  60.5770647  66.1485268  86.8211537  60.2583061
  65.9991725  87.3415952  59.3122970  65.7170760  85.8221901  60.1948866
  65.4999717  87.5608217  61.3243739  65.7303244  86.9813817  62.2184029
  65.9184593  88.5624056  61.4233532  64.0110583  87.6550969  61.1595244
  63.3811967  86.7545680  60.5976900  63.3837620  88.6884965  61.5067614
  67.9594651  85.5277954  61.3987664  67.5373883  84.4111338  61.1864832
  68.4882916  85.8784380  62.5866440  68.8521375  86.8134804  62.7024505
  68.5511207  84.9682731  63.7205512  67.9095194  84.0930720  63.6182285
  70.0146180  84.4943407  63.8536134  70.1943618  84.1525308  64.8729060
  70.2785570  83.3109111  62.8494164  70.0994531  83.6521125  61.8298065
  71.3118359  82.9770238  62.9440444  69.6073774  82.4830832  63.0781535
  71.0183914  85.5741340  63.6290216  70.8677402  86.3686949  64.3598288
  72.0229621  85.1656836  63.7390473  70.8991811  85.9783806  62.6237980
  68.1443636  85.5656939  65.0746476  68.2193207  86.7770166  65.3233477
  67.7398980  84.7406445  66.0484294  67.6078451  83.7839795  65.7527041
  67.3734591  85.0962430  67.3978964  67.0049814  86.1206808  67.4512877
  66.3062709  84.1955998  67.8118762  65.5903073  84.1107017  66.9943876
  66.7409057  83.2171902  68.0165888  65.5750227  84.7199320  69.0932980
  66.2650886  84.7636352  69.9359130  65.1561082  85.7104165  68.9156659
  64.4453186  83.7381468  69.4101660  63.9680775  83.3567942  68.5074422
  64.7874211  82.9023322  70.0204769  63.4327969  84.5764483  70.2102662
  63.9648011  85.1002495  71.0044351  62.9752753  85.3034632  69.5392800
  62.3825319  83.7236734  70.8013088  62.8062319  83.0502129  71.4234253
  61.7337354  84.2988955  71.3192689  61.8891633  83.2385447  70.0655530
  68.5574324  85.1186696  68.3765206  68.5568597  84.5130939  69.4800362
  69.5838605  85.8713229  68.0558286  69.5102940  86.2915550  67.1403548
  70.7981588  86.1589423  68.8694462  70.4644690  86.6495239  69.7838203
  71.2540982  85.2004789  69.1175720  71.8329793  87.0366042  68.1870466
  71.9736701  86.9228377  67.0038838  72.6787672  87.8049900  68.8689646
  72.3266144  88.0257968  69.7894710  73.8992328  88.4689758  68.4165094
  73.5958663  89.1133197  67.5913495  74.3464015  89.3376398  69.5677961
  74.6619108  88.7065484  70.3986256  75.1809209  89.9624144  69.2494656
  73.5196302  89.9719106  69.8875600  75.0098513  87.5340539  67.8216299
  75.4375842  86.5405176  68.4739030  75.4891053  87.7754750  66.5630770
  75.1278640  88.5513196  66.0267291  76.4171830  86.8420549  65.9025499
  76.3023500  85.8360563  66.3061330  76.1102898  86.8037890  64.3734446
  76.4810498  87.7333532  63.9415342  76.7755325  85.5725857  63.6277182
  76.4048804  84.6425933  64.0588007  76.5212026  85.6081622  62.5684018
  77.8584446  85.6194871  63.7426237  74.5894200  86.7143452  64.0467831
  74.0767254  87.5827258  64.4604998  74.4501382  86.6916313  62.9659574
  74.1759424  85.8060182  64.4850516  77.8773148  87.1309892  66.2028400
  78.5737242  87.8603230  65.5148050  78.3125711  86.6772078  67.3985053
  77.7223985  86.0628340  67.9410367  79.6428363  87.0078510  67.9242815
  79.7733309  88.0863967  68.0126526  79.7639768  86.3831526  69.3208265
  79.6575000  85.3410683  69.0194595  80.7223535  86.5198600  69.8217509
  78.5740053  86.7735179  70.3266783  78.3986243  88.0855314  70.8908689
  78.9043529  88.9585037  70.4782461  77.5407386  88.2266768  72.0138079
  77.3005273  89.2166916  72.4014558  76.7984872  87.1087145  72.4326377
  76.2225275  87.1804038  73.6417138  76.3920173  88.0126532  74.0891887
  76.8540992  85.8613273  71.7861561  76.1558778  85.0526676  72.0021579
  77.8744028  85.6781352  70.8157736  78.1091328  84.6770455  70.4540812
  80.8036377  86.4209395  67.0681618  81.8374343  87.1269110  67.0833218
  80.7441463  85.1875312  66.4644095  79.8589258  84.7013688  66.4529974
  81.9362385  84.4870697  65.9363085  82.6485589  85.2083840  65.5358032
  82.6320825  83.6818146  67.0863091  82.7581035  84.3257043  67.9567250
  82.0148388  82.8246695  67.3554045  83.9334105  83.2184841  66.6343750
  84.3597976  82.7251081  67.3389131  81.5435831  83.6477758  64.7702336
  80.4528228  83.0665842  64.7908802  82.4579319  83.5200640  63.7991414
  83.3842797  83.8856854  63.9673676  82.1684140  82.8870213  62.4512311
  81.5284163  82.0160305  62.5922175  81.4684198  83.8566173  61.5216411
  82.1836776  84.6695349  61.3964594  81.3754393  83.3076493  60.5845772
  80.1085901  84.4311669  61.9115924  79.6062059  83.5774589  62.3664481
  80.3643257  85.1557930  62.6846502  78.9799811  85.2183077  60.6961678
  80.2835078  86.1704622  59.9111143  81.0367079  85.4932357  59.5084321
  79.8617568  86.7665471  59.1018495  80.7447342  86.8306104  60.6456725
  83.4165301  82.3843164  61.7295412  84.4437391  82.9504685  61.9500939
  83.3590005  81.3659750  60.8469495  82.4500652  81.0029483  60.5976552
  84.4890047  80.6987901  60.3762396  85.1166485  81.2778832  59.6988818
  85.4220911  80.0547404  61.5174156  85.8855745  80.8596686  62.0878303
  84.6028381  79.1729002  62.4559386  84.1393890  78.3674165  61.8862792
  85.2555771  78.7487235  63.2188976  83.8276535  79.7719099  62.9338275
  86.7256346  79.3455642  61.0692187  87.3650066  80.0563437  60.5456751
  87.2502880  78.9616636  61.9441237  86.4794967  78.5193207  60.4022565
  84.0035816  79.6989002  59.3444074  82.9261445  79.1591686  59.5264651
  84.7377908  79.4182011  58.2646293  85.3968141  80.1557005  58.0599776
  84.6235142  78.2850371  57.3020529  83.5748535  78.0252497  57.1574136
  85.2417946  78.6893777  55.9030333  84.6728211  79.5440819  55.5371795
  86.2733230  78.9911238  56.0846878  85.2134158  77.5504454  54.8357227
  84.6240232  76.8795730  55.4607406  84.7034890  77.7015058  53.8842740
  86.5637856  76.9456136  54.5884475  86.7733719  75.7232812  54.8842415
  87.5394313  77.7363538  54.4026131  85.2352169  77.0061103  57.9204387
  86.4388236  76.9812135  58.1314484  84.4125291  76.0000316  58.1405399
  83.4844161  76.1813186  57.7857995  84.6699211  74.7083912  58.7879302
  85.6594884  74.6724280  59.2435202  83.6082094  74.5643159  59.9013212
  83.8780299  75.3678538  60.5866116  82.5633015  74.6713848  59.6101103
  83.7113195  73.2444705  60.7038489  84.9388013  73.0021809  61.3520774
  85.7221869  73.7496009  61.2264977  85.1747836  71.8709348  62.1251548
  86.1288205  71.7047451  62.6254500  84.1669348  70.9511756  62.2490615
  84.2581352  70.1012033  62.9253229  82.9732755  71.1224988  61.4671102
  82.2019140  70.3531698  61.5022461  82.7989137  72.2244589  60.6915312
  81.9229201  72.3048557  60.0478918  84.5235540  73.5557725  57.7743173
  83.4017441  73.2378692  57.3668632  85.6269978  73.1895581  57.1417639
  86.4732957  73.6429178  57.4553629  85.6931525  72.3428885  55.9385416
  86.5756790  72.5633718  55.3380140  85.7852706  70.8755192  56.4352836
  84.7926293  70.4523009  56.5890655  86.2730498  70.3643060  55.6053242
  86.6350105  70.6461612  57.7345611  87.8268647  70.6959588  57.7909951
  85.9954098  70.4763225  58.8971822  86.5248933  70.3274089  59.7442783
  84.9859559  70.4977870  58.9225414  84.6237790  72.5481056  54.8307694
  83.8270508  71.6530493  54.5253069  84.5903631  73.7457958  54.2429109
  85.3826798  74.3434565  54.4303550  83.5317062  74.2519266  53.3737118
  83.9738175  75.1571789  52.9575928  83.4709500  73.4883000  52.5982878
  82.1291622  74.5682382  53.8674640  81.2424034  74.8427682  53.0338753
  81.8870852  74.5899432  55.1348320  82.5997254  74.2089157  55.7406879
  80.6416234  75.0845052  55.7466053  79.9766419  75.4455273  54.9620278
  79.9208914  73.9886796  56.5318936  80.6366401  73.5289105  57.2133738
  79.1182461  74.4509670  57.1064813  79.3307991  72.9090810  55.6014314
  78.7338890  73.4093441  54.8388462  80.1586966  72.3825706  55.1265897
  78.4305409  71.8778010  56.3792221  79.0990509  71.1826166  56.8870725
  77.8603992  72.4391517  57.1194405  77.4607854  71.0894578  55.4728654
  77.0293025  70.2837274  56.0667691  76.6706405  71.7707050  55.1571560
  78.1458806  70.5041955  54.2459818  78.8777988  69.8725766  54.5383054
  77.4689828  70.0010319  53.6903418  78.5454013  71.2506735  53.6952977
  80.8845773  76.2674552  56.6812435  81.7866622  76.2692507  57.4764357
  80.0731918  77.3483180  56.5697132  79.4732258  77.4723429  55.7667449
  80.0958284  78.3896087  57.5781414  81.1247920  78.7304660  57.6928127
  79.1837292  79.6399033  57.2231719  79.6811422  79.9684581  56.3106308
  78.1962129  79.2492498  56.9776084  79.0394979  80.8251002  58.1800725
  78.9134843  80.4399163  59.1919296  80.2881695  81.7500974  58.1297995
  80.4145741  82.1360607  57.1182892  80.1529357  82.5818071  58.8212266
  81.1736459  81.1818299  58.4145872  77.7743865  81.6332972  57.9528178
  76.9035035  80.9927852  58.0921255  77.7362693  82.4574747  58.6651237
  77.7738802  82.0306551  56.9378275  79.6645759  77.7942233  58.9070723
  78.5830252  77.2608402  59.0230107  80.4659237  77.9816116  59.9338251
  81.4415082  78.0884249  59.6952351  80.1098598  77.8924311  61.3244992
  79.1363030  77.4229153  61.4653580  81.1935828  76.9998930  61.9937831
  81.2874016  76.0499501  61.4675647  82.0808591  77.6057105  61.8098647
  81.0558815  76.7381884  63.5024325  80.3495464  77.4411099  63.9441259
  80.5525373  75.3500189  63.6837494  81.2586201  74.6464498  63.2426866
  80.4455168  75.1378322  64.7475276  79.5841617  75.2472496  63.1940681
  82.4731058  76.7461732  64.0325320  82.9308473  77.7150186  63.8327549
  82.4605580  76.5655513  65.1073899  83.0502708  75.9637103  63.5398542
  79.9045286  79.3959546  61.8638713  80.6732506  80.3146945  61.5371980
  78.8576874  79.5592636  62.7295332  78.2384110  78.7614354  62.7213936
  78.5109758  80.7032043  63.5890191  79.3902854  81.3472213  63.6014994
  77.3314763  81.4934920  62.9987714  76.4411963  80.8646934  62.9881005
  77.1441521  82.3772933  63.6086118  77.5717382  81.7995238  61.9805780
  78.1513246  80.3345380  65.0376399  77.4596850  79.3577304  65.3053179
  78.5423523  81.0767922  66.0792372  79.4898004  81.4047557  65.9572481
  77.8968388  81.2863184  67.3768077  77.1498551  80.5175959  67.5747481
  78.9505587  81.2042449  68.4206377  78.4305635  81.0953716  69.3723997
  79.5183208  80.2975736  68.2116082  79.8500582  82.3286811  68.4907304
  80.4904399  82.1830080  69.1909378  76.9806067  82.4720180  67.5039496
  77.1539670  83.5219767  66.9764897  75.8844748  82.2972071  68.3323783
  76.0751503  81.5512273  68.9860267  74.6140027  82.9997187  68.4384160
  74.6821866  84.0732673  68.2625081  73.5587412  82.3746018  67.4568468
  73.4507762  81.3192471  67.7071874  72.2026233  83.0581563  67.5471548
  72.3097105  84.1135213  67.2964806  71.5107788  82.5876884  66.8485047
  71.8143713  82.9637085  68.5612748  74.0627602  82.3360566  66.0368394
  74.3394284  83.3633073  65.7995391  74.9588278  81.7160412  66.0641035
  73.1107994  81.8065944  64.9689619  72.2146334  82.4264270  64.9407847
  73.6025360  81.8353262  63.9966096  72.8340308  80.7791610  65.2053506
  74.0527661  82.8151542  69.8996811  73.2753735  81.9555039  70.2376341
  74.4048205  83.7900626  70.7118050  75.1172647  84.4590892  70.4569992
  73.9206027  83.7757902  72.1214104  74.4157558  84.5966202  72.6402174
  72.3435480  83.9295835  72.3117886  71.8842464  83.1803654  71.6669526
  72.1359737  83.6875687  73.3541138  71.7155492  85.3160065  71.9886943
  72.2822188  86.0617213  71.2885250  70.5841193  85.6197296  72.4975682
  70.1670866  86.5169563  72.2946696  70.1118645  84.9612237  73.1004331
  74.4929085  82.5889548  72.9026337  75.6774191  82.6222832  73.2428067
  73.6150673  81.6102991  73.1864223  72.6183102  81.7250084  73.0705937
  74.1196003  80.3282149  73.7850681  75.0825564  80.5001687  74.2659492
  73.1453869  79.8042583  74.8240535  72.9517477  80.6324192  75.5057811
  72.2304738  79.5554347  74.2863538  73.5938746  78.6404696  75.5866233
  72.9125910  78.3868195  76.2136114  74.4010813  79.2455623  72.6927674
  75.0706793  78.2374463  73.0115757  73.7908070  79.4130554  71.4853266
  73.1834394  80.2179358  71.4272632  73.8406951  78.5118338  70.3609553
  73.8339777  77.4518694  70.6149821  72.6096998  78.8127170  69.4183267
  72.5608970  79.8770782  69.1884271  72.7981416  78.0460276  68.1663702
  72.8465756  76.9814693  68.3954322  71.9608318  78.2348621  67.4945421
  73.7259917  78.3563318  67.6858433  71.4495887  78.5084421  70.1808180
  70.6661140  78.6747680  69.6515700  75.2097335  78.5829918  69.6333341
  75.6831097  79.6461401  69.2265287  75.6817290  77.4336235  69.1971761
  75.2623719  76.5943492  69.5711515  76.8352153  77.2872172  68.2049949
  77.1101632  78.2479650  67.7697174  78.0932998  76.6876626  68.9354076
  77.7968566  75.8535677  69.5714158  79.0712854  76.1922960  67.8681578
  79.3685605  77.0259829  67.2320017  79.9535175  75.7713192  68.3503877
  78.5895085  75.4261721  67.2606655  78.7800710  77.6768819  69.8279917
  78.0848871  78.0191540  70.5945888  79.6393358  77.2032550  70.3027983
  79.1160950  78.5285896  69.2365674  76.2187031  76.3296722  67.0700776
  75.8091478  75.2013715  67.3404607  76.0678291  76.9062895  65.8381902
  76.4111747  77.8512476  65.7419233  75.3761106  76.2670000  64.6474474
  75.2249655  75.1980020  64.7974396  73.9803218  76.9544065  64.5137612
  73.5987841  76.9601140  65.5347880  74.2243011  77.9729655  64.2119142
  72.8987064  76.3775021  63.5606177  73.2702511  76.4256749  62.5370286
  72.7110044  75.3381054  63.8299216  71.5982691  77.1743953  63.6684471
  71.8283837  78.2248274  63.8466009  71.0344058  77.0788125  62.7405346
  70.7479833  76.6669076  64.8046320  71.1376573  75.8525607  65.2575035
  69.5918466  77.1141374  65.2143021  68.8874876  78.0397148  64.5725928
  69.2442033  78.4372454  63.7153744  67.9984743  78.3416639  64.9448586
  69.0625266  76.7206179  66.3238568  69.5471825  76.0476373  66.9003166
  68.1662027  77.0875447  66.6103300  76.2234101  76.4112052  63.4061486
  77.1730053  77.1763435  63.2664977  75.9675140  75.4671452  62.5236262
  75.1128862  74.9890868  62.7709535  76.7125976  74.9974290  61.3509595
  77.5697499  75.6547581  61.2049885  77.2219457  73.5435573  61.4845764
  77.8611670  73.6247209  62.3637283  76.3288859  72.9718104  61.7368653
  77.9920947  72.8234870  60.3520415  77.4182311  72.8072756  59.4254787
  79.2739396  73.6460394  60.1460072  79.8485974  73.6623211  61.0720752
  79.8729136  73.1943891  59.3552209  79.0106898  74.6655962  59.8643977
  78.2834511  71.3685707  60.7214454  77.3447775  70.8418274  60.8932967
  78.8253780  70.8878986  59.9069697  78.8881831  71.3373880  61.6277708
  75.7897056  75.1470696  60.1180138  74.5569206  74.9855314  60.3355081
  76.2884636  75.5402364  58.9177517  77.2793332  75.7179538  58.8359397
  75.4267500  75.7631196  57.7163297  74.4376827  75.3206236  57.8348309
  75.2727911  77.2676225  57.5880898  76.2835601  77.6449153  57.4328627
  74.6654215  77.4851303  56.7095156  74.6446739  77.9612808  58.8399704
  73.2104604  78.0097809  58.9762032  72.6189440  77.4890775  58.2231589
  72.5668530  78.6948632  60.0300674  71.4817075  78.6671165  60.1290176
  73.3426036  79.3673539  60.9888678  72.6473889  80.0324328  61.9810753
  71.6951069  79.9510594  61.8908706  74.7545922  79.3640277  60.8344590
  75.3546750  79.9752377  61.5085684  75.3832053  78.5912101  59.8343413
  76.4675061  78.4799047  59.8326377  76.0244382  75.1534239  56.4508709
  77.0905639  75.6278936  56.0514519  75.2955260  74.2630147  55.7443693
  74.7282391  73.5193027  56.1253907  75.4522228  74.3417859  54.2880417
  76.4972693  74.2147806  54.0054699  74.6085839  73.1881062  53.6273591
  74.7845142  72.2730355  54.1928618  73.5546971  73.4584234  53.6933222
  74.9860579  72.9621367  52.1618380  74.9645031  73.8961246  51.6003196
  76.0136369  72.6057966  52.2339657  74.1019886  71.8773681  51.4166235
  74.4549840  71.6246290  50.2363553  73.2183970  71.2730568  52.0104608
  75.1102005  75.6744020  53.6326699  74.0357549  76.2266125  53.8785974
  76.0342997  76.2170043  52.7815193  76.9981419  75.9153546  52.7922471
  75.6463684  77.2794716  51.8405849  74.8110219  77.8318544  52.2708971
  76.7865723  78.2695894  51.5360992  76.9189619  78.9251095  52.3968347
  77.6871483  77.6724694  51.3928841  76.6663752  79.1528601  50.3420621
  77.2516405  79.0759138  49.1391316  77.8743994  78.2000631  48.9570418
  76.9245346  80.1538642  48.3803388  77.3918978  80.3461447  47.5058679
  75.9513414  80.9319406  48.9502625  75.2582291  82.0527688  48.4888076
  75.4688802  82.4242838  47.4859610  74.3165908  82.6375945  49.3673144
  73.7041383  83.4857675  49.0613658  74.1609757  82.1135001  50.6766860
  73.4159347  82.5217757  51.3595655  74.9854227  81.0223147  51.1452483
  74.9891406  80.8363629  52.2192636  75.8161794  80.3253151  50.2413779
  75.1858219  76.6766189  50.5226537  75.8009858  75.7305275  50.0448982
  74.1500865  77.2469011  49.8500079  73.8230036  78.1349209  50.2029060
  73.4636357  76.6629533  48.6891909  74.0838323  75.8625757  48.2856428
  72.0976159  76.0355506  49.2062110  71.7362487  75.4750416  48.3440373
  72.0517776  75.1004042  50.5090007  72.4125879  75.6604101  51.3717341
  71.0264465  74.7773620  50.6891093  72.6851131  74.2271860  50.3525508
  71.2508390  77.1156215  49.5765145  70.4132993  76.7709804  49.8948699
  73.1573813  77.6581686  47.5393927  73.2719173  78.8831661  47.6487390
  72.6292190  77.0774359  46.4264026  72.4315737  76.0878385  46.4680266
  72.4243144  77.7787639  45.1434863  73.1273153  78.6106680  45.1007732
  72.7111605  76.8365840  43.9751223  72.2337542  77.1775276  43.0564597
  74.2541325  76.8706314  43.7998189  74.7322582  76.5293551  44.7179833
  74.5412992  76.2166204  42.9764695  74.5731529  77.8898466  43.5818123
  72.3380823  75.4744241  44.2053396  72.5490265  74.9494279  43.4297870
  71.0644020  78.4286284  44.9279192  70.7446300  79.2003698  43.9878606
  70.2151211  78.3172432  45.9096800  70.3556928  77.5188368  46.5120802
  69.0764593  79.1994285  46.1797312  68.4925317  79.3582373  45.2731401
  68.1869008  78.5526081  47.2213747  68.6713118  78.7900232  48.1685175
  67.2480974  79.1013626  47.1464297  67.9077181  77.0610644  47.1557839
  68.8626556  76.5587112  47.0013935  67.5283178  76.8217683  48.1492083
  66.9402018  76.6038412  46.1358288  66.5731847  75.4118107  46.1330306
  66.4784300  77.4155885  45.3298022  69.4819866  80.6172225  46.6603450
  68.5720229  81.4506081  46.7851352  70.7526685  80.8479404  46.9877939
  71.4113052  80.1058712  46.7990342  71.2167674  82.0146813  47.7608365
  72.2954302  81.9615073  47.9083438  70.8829679  83.3302842  46.9883155
  69.8243769  83.3307837  46.7285384  71.0993348  84.1839589  47.6305965
  71.7594901  83.4319124  45.6533300  72.8167857  83.3920271  45.9153149
  71.5156631  82.5939597  45.0002713  71.4545647  84.7851271  44.9066865
  70.4445040  84.7007972  44.5057316  71.4810627  85.5716935  45.6608156
  72.4551801  85.1417220  43.7398850  72.1916498  86.1255140  43.3515481
  73.4640341  85.1724331  44.1514303  72.3978247  84.1149509  42.6076958
  71.4631862  84.0866469  42.2259242  73.0500141  84.3768712  41.8823361
  72.6424008  83.2033525  42.9672373  70.6974810  81.9662803  49.2665951
  70.1184754  82.9224864  49.7626883  70.9589055  80.7880078  49.8821664
  71.5107781  80.0971256  49.3940906  70.4831289  80.4700950  51.2376209
  70.2764074  81.3933884  51.7788184  69.2048030  79.6400179  51.1839093
  68.5977098  80.0635762  50.3838247  69.5073534  78.6284679  50.9131142
  68.3891024  79.5987425  52.4738697  67.6108938  78.8358246  52.4526921
  69.1211931  79.3490230  53.2418427  67.7877206  80.9019082  52.7773380
  66.8688515  81.3650681  52.0261552  68.1554270  81.4724841  53.8671816
  71.5230841  79.6378727  52.0742380  72.0573668  78.6602773  51.6259399
  71.7838419  80.0614193  53.3014620  71.5993539  81.0264888  53.5353518
  72.4595406  79.1871245  54.3389473  73.2171160  78.5440167  53.8910734
  73.1529153  80.1436176  55.3451905  72.3275754  80.6510172  55.8446491
  73.6381755  79.4639887  56.0457097  74.2057348  81.2198403  54.8363035
  73.9474564  81.5606654  53.8336912  74.1602393  82.4087770  55.8086396
  74.4188753  82.0687976  56.8114458  74.8730472  83.1685137  55.4880061
  73.1564754  82.8336126  55.8171926  75.6080213  80.4973654  54.8670189
  75.5835741  79.6274280  54.2107334  76.3802476  81.1871551  54.5264929
  75.8303947  80.1776781  55.8850803  71.5631479  78.1996314  55.0191432
  70.8518177  78.5810618  55.9685268  71.4759894  76.9246595  54.6781722
  71.9515092  76.7168896  53.8116781  70.7659690  75.8207162  55.3742340
  69.7440695  76.1004370  55.6303141  70.7206552  74.6373191  54.4019239
  70.6558196  75.0133603  53.3809006  71.6291315  74.0454538  54.5135769
  69.5029880  73.7625098  54.7007183  69.5820172  73.3713243  55.7150305
  68.5983431  74.3642514  54.6133873  69.4376175  72.5772415  53.6907887
  68.5981241  71.9334667  53.9532841  69.2899752  72.9746117  52.6865985
  70.6965605  71.7561239  53.7034974  71.1416394  71.6535815  52.8026705
  71.1863188  71.0771708  54.7323927  70.5800041  70.8323970  55.8101270
  69.6355415  71.1653113  55.9414985  71.0416132  70.3045530  56.5370365
  72.4252102  70.7366714  54.6935544  72.9901586  70.9883984  53.8950766
  72.8278136  70.2190194  55.4616987  71.4623301  75.3892319  56.7315536
  72.6619958  75.0505878  56.6801493  70.7876011  75.3780972  57.8504365
  69.8911378  75.8424448  57.8215531  71.2360110  74.7932710  59.1389631
  72.1202161  75.2895432  59.5389561  70.0164199  75.0973089  60.0868558
  69.1111946  74.6843017  59.6417801  70.2321107  74.4867459  61.4343351
  71.1369688  74.8996366  61.8802640  69.3784125  74.7079923  62.0749196
  70.3384365  73.4068134  61.3316649  69.8841887  76.4155632  60.2597560
  69.1383708  76.5891275  60.8387477  71.5763142  73.2873180  59.0677646
  70.8113609  72.4279737  58.5940612  72.8234290  73.0094800  59.3997403
  73.3924231  73.7430681  59.7974758  73.4461913  71.6657387  59.1857230
  72.8713439  71.1531100  58.4144504  74.9265536  71.7043245  58.7534051
  74.9479191  72.2464705  57.8080372  75.4457715  72.2845427  59.5162023
  75.6302453  70.3338868  58.5788560  76.6890656  70.5496874  58.4359205
  75.4973876  69.7610942  59.4966559  75.0745092  69.4641749  57.3079364
  75.7359937  68.5852480  56.7631485  73.9372305  69.7945786  56.9346703
  73.3152438  70.8890791  60.5401205  73.0908681  69.6868688  60.5580062
  73.6191992  71.5490772  61.7242323  73.5645965  72.5575294  61.7123211
  73.9357390  70.8860068  62.9905977  73.2008091  70.1162326  63.2260224
  75.3125233  70.2205558  62.8392474  75.4060377  69.6793821  61.8977139
  76.1278572  70.9385613  62.9275580  75.5759353  68.9972259  64.1503752
  76.7897890  68.6265389  63.7528220  74.0596757  71.9332396  64.1166014
  74.5863090  73.0505054  63.9191974  73.7110792  71.5283471  65.3170278
  73.4895985  70.5639328  65.5193908  73.4687425  72.5249198  66.3525749
  74.0861168  73.4055728  66.1753785  71.9841390  72.9517883  66.3381319
  71.6310340  73.2886517  65.3634836  71.4708433  72.0297958  66.6111836
  71.6472048  74.0298539  67.3825795  71.7571587  75.1972740  66.9861938
  71.1370706  73.7530087  68.5658161  70.9351922  74.5016528  69.2130232
  70.9503691  72.7934860  68.8199019  73.9646240  72.0903202  67.7816874
  73.6961468  70.9616332  68.1798275  74.6607101  72.9374837  68.3977387
  74.9941127  73.7431989  67.8880672  75.0365905  72.8037971  69.8204389
  74.6172072  71.8791491  70.2169777  76.5212011  72.7701641  69.9984418
  76.9833589  71.9038557  69.5251352  76.8509003  73.6782864  69.4937514
  77.0739151  72.8366694  71.4258385  77.5024593  73.9913110  72.0959226
  78.0631084  73.5435266  73.2376742  78.5086756  74.2735614  73.9134094
  77.9601177  72.2223602  73.3273311  78.2788172  71.6397643  74.0883255
  77.3402901  71.7676839  72.2002959  77.1533534  70.7013335  72.0735973
  74.3998715  74.0357101  70.5001510  74.4022039  75.1439269  69.9479236
  74.1002970  73.9224477  71.7817608  74.3237057  73.0462027  72.2316304
  73.3180372  74.9154628  72.5370485  73.3664189  75.9004940  72.0728590
  71.8567088  74.4373260  72.5238715  71.5199033  74.4644334  71.4875673
  71.8580205  73.4064892  72.8780943  70.9278756  75.2572858  73.3735684
  70.7771997  76.6673754  73.1355135  71.3523714  77.1609027  72.3521185
  69.8908452  77.4007509  73.9125625  69.8279696  78.4774731  73.7550259
  69.2254541  76.8024287  75.0233501  68.3817805  77.5508485  75.7418072
  68.3110467  78.4519078  75.4182511  69.2992775  75.4065521  75.2366524
  68.7031974  74.9060026  75.9996983  70.1911749  74.6478236  74.4132515
  70.3122153  73.5779090  74.5827572  73.8754544  75.2304019  73.9205529
  73.6917617  76.3094306  74.4799499  74.6385301  74.3292643  74.5476314
  75.1025895  73.6222237  73.9955066  74.8819945  74.3533244  75.9914022
  74.0538879  74.7890784  76.5503809  75.0157764  72.8576257  76.3878070
  74.2010417  72.2253153  76.0349754  75.9407384  72.5702071  75.8878711
  75.1840408  72.6437628  77.8763280  74.3166638  73.1700201  78.6030289
  76.0764874  71.8410304  78.3471069  76.1650029  71.7188949  79.3457799
  76.6828204  71.3381660  77.7149768  76.2354888  75.0888829  76.3756936
  77.3107146  74.5166844  76.6136316  76.0680845  76.3963425  76.6160498
  75.0959526  76.6682771  76.5827263  77.0430859  77.4036985  76.8729276
  77.9675842  76.9838353  77.2693073  77.3573345  78.0902818  75.4577933
  76.4952193  78.4660250  74.9067273  78.0315684  78.9163520  75.6838834
  78.1050608  77.0719024  74.5697310  79.1756597  76.5070577  74.8502544
  77.4625375  76.7088685  73.4949221  77.8819125  76.0451815  72.8595136
  76.5484296  77.0930249  73.3027468  76.5021681  78.3887034  77.8765294
  75.3042666  78.4652930  78.0395508  77.3196738  79.1513621  78.5752197
  78.2271968  78.7407086  78.7421480  76.9831169  80.3905203  79.2680937
  75.9556376  80.3140601  79.6238173  77.9264386  80.7582475  80.4687726
  78.9487704  80.9213153  80.1276758  77.3839178  82.0355418  81.0583389
  76.3617062  81.8731218  81.4001048  78.0043795  82.3394441  81.9014116
  77.3929099  82.8187520  80.3003152  77.9362974  79.5879980  81.4714734
  76.9163935  79.2200148  81.5832107  78.5664444  78.7943054  81.0701428
  78.4758400  80.0262533  82.8430360  77.8458893  80.8196614  83.2452369
  78.4687043  79.1762572  83.5253519  79.4959401  80.3939543  82.7321683
  76.8449022  81.3910454  78.1619359  75.8286788  82.0209305  77.9393265
  77.9072134  81.5991464  77.4242593  78.7633181  81.1240547  77.6721948
  77.9398336  82.5491677  76.3240850  77.0437105  82.4429068  75.7127167
  77.9939916  83.9534391  76.8568700  77.2391219  84.0241792  77.6399835
  78.9835424  84.0883406  77.2935517  77.7487442  85.0300723  75.8213491
  78.3423464  84.7515224  74.9506326  76.6892833  84.9723456  75.5717251
  78.1553050  86.7265652  76.3002555  77.4719193  86.7123576  77.9542174
  77.9682050  85.9434895  78.5463671  77.6266744  87.6854952  78.4202160
  76.4040597  86.4994219  77.9048657  79.1169386  82.2667096  75.3506139
  80.2521559  82.5459218  75.6366545  78.8560536  81.6856557  74.1613299
  77.8640401  81.5171893  74.0739939  79.7054238  81.1444068  73.1981612
  80.4623891  80.6239989  73.7849135  78.9707000  80.1203229  72.3288367
  78.2154841  80.6277045  71.7285760  79.6835903  79.6234816  71.6707817
  78.4892288  79.3796979  72.9673972  80.4946969  82.2579186  72.4198956
  80.3492650  82.4500562  71.1912855  81.4018263  82.9889448  73.0762308
  81.6230595  82.7681177  74.0366425  81.8597509  84.2675056  72.5360324
  81.0781790  84.7263323  71.9304561  82.1972589  85.2040225  73.6839293
  81.5038027  85.0073057  74.5015601  83.1908648  84.8491009  73.9575679
  82.2501792  86.6970113  73.4138533  82.8660220  86.8858294  72.5345433
  80.8529185  87.2149494  73.1699750  80.2365640  87.0268930  74.0490887
  80.8909058  88.2868895  72.9760621  80.4212257  86.7054744  72.3084781
  82.7511241  87.4635350  74.6882558  83.7490451  87.1146701  74.9538618
  82.7840986  88.5329657  74.4800926  82.0686758  87.2761463  75.5172604
  82.8975827  84.2167990  71.4038062  82.8045358  84.9202435  70.3894088
  83.8847110  83.3133658  71.5985421  83.8250275  82.6989418  72.3979297
  84.9439841  83.1065046  70.6631332  84.8514414  83.8077730  69.8338216
  86.2851543  83.3274689  71.3376227  86.4123273  82.4758278  72.0059292
  87.0332710  83.2824679  70.5461706  86.4517909  84.5849853  72.1033896
  85.9880169  85.8346392  71.5796303  85.7212941  85.8827116  70.5238616
  85.8720521  86.9824158  72.3884980  85.2656541  87.8164384  72.0352423
  86.2739653  86.9204493  73.7615340  86.1917459  88.0509887  74.4889393
  85.8605106  88.7979743  73.9850590  87.0342143  85.7731319  74.1989061
  87.5679330  85.7687177  75.1492878  87.0752104  84.6458897  73.3668645
  87.6106143  83.7518306  73.6863971  84.9823111  81.6230008  70.2232337
  85.0806993  80.7596994  71.1067944  85.0279382  81.4046778  68.8690509
  84.7663347  82.2225296  68.3372790  85.2706893  80.1533122  68.1450570
  85.3509742  79.3287758  68.8534307  84.1164566  79.8548030  67.1716191
  84.2086472  80.6547491  66.4369856  84.3071684  78.8958984  66.6897156
  82.6443229  79.8596618  67.7793162  82.3833954  80.8329141  68.1950054
  81.7262822  79.5483111  66.5957415  81.9863186  78.5749354  66.1797852
  80.6899269  79.5335474  66.9331588  81.8475988  80.3143084  65.8298232
  82.4345836  78.8801485  68.9688494  83.1130612  79.1428592  69.7804840
  81.4049814  78.9492750  69.3199081  82.6384920  77.8607876  68.6410938
  86.6427978  80.1606684  67.4652784  87.0904118  81.1609043  66.8685826
  87.3075913  79.0279611  67.4342011  87.1111271  78.3190096  68.1262190
  88.4017643  78.7717406  66.4476584  88.2776678  79.4281348  65.5863537
  89.7989735  79.0414255  67.0818994  89.7866938  78.4592430  68.0033179
  90.4990103  78.5916127  66.3778278  90.2344194  80.4674167  67.3888420
  89.4980678  80.9215170  68.0519258  91.2024651  80.4361574  67.8888544
  90.3513415  81.3188583  66.0766932  91.2257637  81.0336263  65.4917765
  89.4570347  81.2278830  65.4602207  90.5046845  82.7925122  66.5534656
  90.4771933  83.4398895  65.6769684  89.6645705  83.0296972  67.2061914
  91.7785792  83.0077367  67.2881387  92.5571850  82.7884238  66.6833457
  91.8401421  83.9727731  67.5797116  91.8040660  82.4082650  68.1005938
  88.2625365  77.3677268  65.9710078  87.6845361  76.5373780  66.6289550
  88.8369423  77.0142824  64.7898000  89.1888682  77.7521924  64.1967264
  88.7950500  75.6468379  64.2507436  88.7674104  74.8573023  65.0017222
  87.5783054  75.4778413  63.3109173  87.4886421  74.3980582  63.1920509
  86.1703091  76.0834049  63.7095353  86.2590816  77.1632909  63.8281327
  85.4445724  75.8628181  62.9267539  85.8368164  75.6414898  64.6484678
  87.8984437  75.9535670  61.9697721  87.1341366  75.8418991  61.3997148
  90.1234522  75.1252928  63.6094104  91.0294628  75.9391679  63.2822759
  90.1983337  73.8136832  63.4099234  89.4276490  73.2419052  63.7249067
  91.3522785  73.1647522  62.8970989  91.7053875  73.7264857  62.0323049
  92.4680420  73.0627269  63.8891455  92.6694429  74.0410657  64.3254828
  92.2011678  72.3610018  64.6793734  93.6946381  72.5707721  63.1766931
  93.4389784  71.5655510  62.8416267  93.7973910  73.2263016  62.3119243
  95.0706805  72.5291638  63.9773117  95.1654369  73.4704355  64.5187244
  95.0130485  71.7055144  64.6889153  96.2885638  72.3368255  63.0732059
  96.2459983  73.0656882  62.2638556  97.1928246  72.4985710  63.6599340
  96.3069319  70.9857670  62.5119192  95.4693101  70.8358361  61.9678511
  97.1173588  70.8786342  61.9187660  96.3468048  70.3102444  63.2617048
  90.9141442  71.8132098  62.3383346  90.4569570  70.9826442  63.1177688
  91.0338162  71.5906937  60.9911359  91.5139074  72.1900255  60.3350771
  90.3952790  70.3581798  60.4780321  90.5220760  70.4055344  59.3964687
  90.9971491  69.5424216  60.8785195  88.9233646  70.0927101  60.7952528
  88.0545663  70.9560684  60.8104525  88.6594017  68.8564647  61.2234231
  89.2808411  68.1338656  60.8891135  87.3840069  68.4438379  61.8865236
  86.5139945  68.9527701  61.4715952  87.2593057  66.9580863  61.6001095
  88.1752125  66.5945278  62.0659840  86.4017681  66.6557318  62.2012012
  87.1276406  66.3458259  60.1503925  87.2202257  65.1018991  59.9400141
  86.9713207  67.0751682  59.1654372  87.0597655  68.9183337  63.3619938
  86.1246043  68.3985247  63.9900209  87.9084561  69.7807930  63.9842817
  88.8150761  69.8176412  63.5406809  87.7824448  70.2939254  65.3472260
  86.7787528  70.0637838  65.7046283  88.8054203  69.6978509  66.3341025
  88.4060793  69.4958051  67.3279856  89.0408507  68.7556222  65.8392515
  90.1428624  70.4348535  66.5379354  90.3248444  71.4043295  67.5791769
  89.5090737  71.7578987  68.2097378  91.6373916  71.9053314  67.7708066
  91.7486509  72.7442960  68.4577275  92.7728180  71.3688530  67.1199150
  93.7954640  71.6914647  67.3154063  92.5243448  70.3685819  66.1780696
  93.3993770  69.8887540  65.7396816  91.2161211  69.9645064  65.7813045
  91.0855226  69.3131718  64.9171244  87.4776473  71.8116385  65.4993630
  87.7578246  72.6428623  64.6516934  86.7628447  72.1073633  66.6586120
  86.6476236  71.3427082  67.3083243  86.1673493  73.4273763  67.0085832
  86.6417554  74.2487016  66.4714960  84.5935762  73.4610744  66.7485800
  84.1565923  72.5735752  67.2062816  83.9234850  74.7333748  67.3418678
  84.3596567  75.6213316  66.8842790  82.8528781  74.7091498  67.1386073
  84.0877109  74.7624308  68.4190330  84.1532553  73.3327490  65.3516311
  83.9991807  74.3315504  64.9432714  84.9356635  72.8263883  64.7863562
  82.8642698  72.5413461  65.2501631  82.0812172  73.0473683  65.8148489
  82.5657651  72.4646171  64.2046456  83.0176996  71.5422063  65.6579361
  86.4497541  73.6601067  68.4976900  86.0777668  72.8529042  69.2966472
  87.1948038  74.7618614  68.7288752  87.6270263  75.2854253  67.9811026
  87.4574608  75.1950510  70.1502239  87.2489693  74.3952544  70.8608264
  88.9394455  75.5444861  70.2309597  89.4621532  74.6784996  69.8248276
  89.1280626  76.4117514  69.5982081  89.4525074  75.8312175  71.6675858
  88.6691861  76.2915759  72.2697309  89.8474470  74.4867491  72.2857382
  90.6311086  74.0259701  71.6843598  90.2145989  74.6462518  73.2995721
  88.9781078  73.8298169  72.3138414  90.6036131  76.7752576  71.7569275
  90.3183457  77.7380315  71.3329129  90.8851075  76.9079668  72.8015569
  91.4498829  76.3707200  71.2017017  86.5698467  76.3449711  70.5461089
  86.3206841  77.2157720  69.7687173  86.0220331  76.2984951  71.7367794
  86.3260887  75.5227015  72.3075629  84.9832744  77.1863399  72.2671926
  84.7929520  78.0175328  71.5882266  83.6335409  76.3960448  72.4884125
  83.7945723  75.5839361  73.1973888  82.5543777  77.3786435  73.0569198
  82.3924578  78.1908307  72.3482346  81.6189840  76.8411792  73.2127124
  82.8996255  77.7886942  74.0060057  83.1690238  75.7751368  71.1493333
  83.9329686  75.0901756  70.7814766  82.2377084  75.2304594  71.3045033
  83.0087214  76.5667810  70.4174156  85.3987326  77.8799432  73.5403203
  85.3869262  77.2655105  74.5647514  85.7484185  79.2244317  73.4892189
  85.7940568  79.5987778  72.5522656  86.0449505  80.1165081  74.6061479
  86.5652360  79.5896035  75.4060064  86.6433362  80.9686544  74.2838426
  84.6736955  80.6335763  75.1461471  84.1321488  81.5524359  74.5841060
  84.0462002  79.8325643  76.0307274  84.3659364  78.8745877  76.0429331
  82.8651793  80.1882182  76.8475395  82.0772326  80.6421168  76.2465277
  82.3368806  78.8694300  77.4351537  82.5228532  78.0824546  76.7042754
  82.9058427  78.6642410  78.3419500  80.8309958  78.9131231  77.7718014
  80.2386511  77.7872802  77.9432350  80.2322936  79.9902104  77.8726164
  83.1379412  81.2930792  77.8755940  83.9075419  81.0226246  78.8396257
  82.6778943  82.5636624  77.6791145  82.0010963  82.6524872  76.9346993
  83.1109500  83.7539921  78.3491383  84.1059350  84.0174165  77.9903743
  82.1467397  84.9703875  78.0951702  82.1577530  85.0722568  77.0099971
  81.1499003  84.6740545  78.4216637  82.5134718  86.3002660  78.7321291
  82.4689498  86.1539815  79.8113508  83.8657741  86.8297739  78.3548853
  83.9109049  86.9767619  77.2757855  84.0373047  87.7812996  78.8581516
  84.6328753  86.1164613  78.6562842  81.5167538  87.4146748  78.4388419
  80.5343672  87.1333030  78.8181122  81.8442476  88.3331990  78.9258350
  81.4575711  87.5759137  77.3624598  83.3228002  83.6718123  79.8569685
  84.2646877  84.2511956  80.4132922  82.4226394  82.9507219  80.5771193
  81.6501758  82.5525874  80.0624464  82.4343164  82.8007180  82.0911631
  83.3106331  83.2752497  82.5327373  81.1548671  83.5145134  82.6314693
  80.8901769  84.3207749  81.9473781  80.3414615  82.7899725  82.6703513
  81.3823087  84.0649087  83.9694832  82.0893975  83.4073553  84.4752003
  81.8299858  85.0506910  83.8433066  79.8388933  84.2202807  85.0071718
  79.5858060  82.4831035  85.3815460  80.4532976  82.0959426  85.9160212
  78.6970752  82.3704391  86.0024848  79.4531401  81.9265345  84.4537895
  82.5497878  81.3638537  82.5386094  82.1924639  81.0676369  83.6405147
  83.0347918  80.5159579  81.6494138  83.3504605  80.8756324  80.7599831
  83.0549835  79.0382607  81.8628698  83.3309066  78.8199705  82.8945263
  81.6750729  78.4314753  81.5860991  80.9345286  79.2262851  81.6753781
  81.6750248  78.0484985  80.5655949  81.3268914  77.2981402  82.5565579
  80.4441414  76.7797132  82.1822762  82.1663488  76.6039172  82.5948705
  81.0467570  77.8322711  83.9534454  81.9824475  78.2333762  84.3429284
  80.3197035  78.6383291  83.8546364  80.5052569  76.8035201  84.9442037
  79.5674061  76.5564072  84.6622988  81.0007795  76.2413379  85.9952653
  82.2132455  76.5039953  86.3428330  82.7654328  77.1458110  85.7921408
  82.6058121  76.0668412  87.1643483  80.3316690  75.3986858  86.7503803
  79.3778962  75.1630518  86.5160853  80.7744470  74.9907955  87.5613500
  84.1197356  78.2982989  81.0329821  84.0972062  77.0998110  80.7773826
  85.2038277  79.0421997  80.7089361  85.0294483  80.0350360  80.7719225
  86.5138552  78.5851937  80.1402188  87.1291648  79.4413941  79.8637877
  87.2885213  77.7362858  81.2360389  86.6046506  77.1979152  81.8922227
  87.9886962  77.0326431  80.7857700  88.0052097  78.6986780  81.9887793
  88.5047671  78.2572985  82.6795950  86.3430405  77.8531656  78.7417073
  85.6536625  78.3940828  77.8810503  87.1201844  76.8499796  78.5159235
  87.5969666  76.4566534  79.3147179  87.3802857  76.2860820  77.2234899
  87.0688969  77.0318225  76.4920480  88.8656620  76.0414854  77.0626893
  89.1590795  75.1025299  77.5321230  89.1329242  75.9650955  75.5636377
  88.8401660  76.9039293  75.0935476  90.1948016  75.7889835  75.3918781
  88.5551507  75.1476810  75.1322296  89.8314193  77.1916518  77.5670236
  89.6717786  77.3598664  78.6320686  90.8671846  76.8975039  77.3974151
  89.6206911  78.1100428  77.0190707  86.5836103  74.9877928  77.0940394
  86.5572840  74.1333320  78.0080321  85.8277438  74.8529563  76.0287282
  85.6093472  75.6883149  75.5047260  85.2591988  73.5984336  75.5873787
  85.4434181  72.7895067  76.2943439  83.7688846  73.8404741  75.5077670
  83.4550154  73.8233984  76.5514594  83.6862617  74.8560494  75.1206234
  82.8923049  72.9303573  74.7092549  83.3406255  72.7698045  73.7287794
  82.7430552  71.6186482  75.4091312  82.2943410  71.7783502  76.3895646
  82.1027455  70.9624785  74.8196012  83.7230507  71.1568901  75.5295002
  81.5154991  73.5742640  74.5294665  81.6237090  74.5244738  74.0065025
  80.8765630  72.9103509  73.9471596  81.0643113  73.7471910  75.5065156
  85.8517350  73.1552386  74.2365327  86.1059739  73.9391788  73.3310663
  86.1834092  71.8289370  74.0574088  86.0289573  71.1969228  74.8299384
  86.7121717  71.2732056  72.7905000  87.0547452  72.0900168  72.1552346
  87.8939426  70.3141562  73.0402915  88.7611880  70.8498211  73.4263586
  87.5062464  69.6480486  73.8110654  88.3024167  69.4987260  71.8254716
  87.3973088  69.0088243  71.4664773  88.9346156  70.2808782  70.6947141
  89.8400953  70.7707197  71.0528490  89.1871659  69.6025285  69.8797535
  88.2325959  71.0335612  70.3359146  89.4252466  68.5586002  72.2978544
  89.0503003  67.9152027  73.0938156  89.7608762  67.9441592  71.4624405
  90.2610741  69.1495340  72.6724056  85.5518522  70.4809764  72.1752262
  84.9490771  69.5985501  72.8609608  85.1305811  70.7650786  70.9391831
  85.6040566  71.5324025  70.4840630  84.0848739  70.0821713  70.2175196
  83.5020874  69.3672450  70.7983288  83.1954707  71.3111266  69.9095131
  83.4341735  71.9986778  70.7209277  83.5376376  71.7326110  68.9643292
  81.6761136  71.0944825  69.8528365  81.5154972  70.1609442  69.3135689
  80.9705571  71.0245107  71.2225576  81.1303476  71.9579399  71.7622573
  79.9018935  70.8697408  71.0738799  81.3800953  70.1963308  71.8009147
  80.9631241  72.1435695  69.0600614  81.3351595  72.1409733  68.0355213
  79.8934697  71.9339576  69.0581729  81.1404455  73.1213400  69.5079686
  84.5681682  69.3531626  68.9493399  85.5885549  69.6877591  68.3316059
  83.8150127  68.3518065  68.4772077  83.0198697  68.0641575  69.0295709
  84.0342700  67.6989410  67.1786517  84.7136314  68.2416554  66.5213630
  84.6027452  66.3268736  67.4316757  83.9289857  65.7679662  68.0811144
  84.7146355  65.7990597  66.4845784  85.5764890  66.4194951  67.9126575
  82.7082293  67.5091785  66.4675897  81.7359030  67.2655213  67.1066131
  82.6670699  67.5184823  65.1137717  83.4390136  68.0143676  64.6915157
  81.5971440  67.0318967  64.2442696  80.6402984  66.9547285  64.7605939
  81.4778389  68.0798308  63.1588196  81.3056394  69.0346086  63.6556555
  82.4014591  68.1321744  62.5823772  80.3167287  67.7774149  62.2276007
  78.9901875  67.7657320  62.7113413  78.7618719  67.9907088  63.7531460
  77.9218189  67.4457231  61.7893150  76.8828508  67.5550033  62.1002893
  78.2240516  67.0956813  60.4669715  77.1760379  66.6619971  59.6274412
  76.3230746  66.6502677  60.0677998  79.5195521  67.0908847  60.0799206
  79.6813293  66.7586882  59.0544577  80.5982180  67.4629933  60.8659264
  81.5985128  67.5033774  60.4347889  81.8772751  65.6189381  63.8135987
  82.9694587  65.4150203  63.2350640  80.9072832  64.7343870  64.0421010
  80.0935566  65.1495661  64.4728847  80.9145506  63.3158005  63.8284273
  81.8316065  63.0556438  63.2998194  80.8458741  62.4849428  65.1450108
  79.8931163  62.7195788  65.6196662  80.8591885  61.4333883  64.8583823
  82.0299738  62.7704526  66.1652672  82.9563727  62.3368908  65.7885576
  82.1580630  63.8453454  66.2929414  81.6736604  62.1219880  67.5406709
  82.4407267  62.4354872  68.2487857  80.7100517  62.5304259  67.8451968
  81.5946814  60.5830138  67.5173269  81.0682893  60.2740463  66.6142483
  82.6079453  60.1815670  67.5019665  80.8962632  60.0811921  68.6763833
  79.9571873  60.4527224  68.6905737  80.8587720  59.0726825  68.6363474
  81.3841042  60.3670167  69.5132910  79.7368573  62.9798971  62.8819573
  78.6378057  62.5906002  63.3660137  79.9870000  63.0699980  61.5405057
  81.2851309  63.4952396  60.9068151  82.0021831  62.6961150  61.0947941
  81.6055179  64.3993724  61.4244975  81.0514730  63.7262429  59.4460593
  81.8968209  63.3610028  58.8628906  80.9053854  64.7879945  59.2474559
  79.7534851  62.9178601  59.1357453  79.9955768  61.8988484  58.8339077
  79.1344664  63.3856528  58.3701831  79.0139062  62.9014302  60.4608936
  78.3064827  63.7293069  60.5085422  78.2552899  61.5758682  60.5700614
  77.1081724  61.5673289  60.3191142  78.9201757  60.4654655  60.9936802
  79.9201576  60.5300009  61.1200552  78.2885035  59.1606221  61.1382588
  77.7801217  58.8896205  60.2129452  79.2922134  58.1431256  61.4342154
  79.7089976  58.3769351  62.4138701  78.7756541  57.1843506  61.4791259
  80.4181041  58.0660272  60.4083758  79.9229423  57.9236203  59.4478363
  80.8941244  59.0463672  60.4293563  81.7347117  56.7320647  60.6315360
  82.7522459  56.9892025  59.1314432  83.1550232  58.0020508  59.1342084
  83.5732439  56.2722912  59.1213885  82.1351426  56.8465757  58.2443455
  77.1572458  59.1044468  62.1226578  75.9826712  58.8504998  61.7222378
  77.4486698  59.4956524  63.3857795  78.4043826  59.3537688  63.6800268
  76.4887395  59.8962096  64.3683464  75.7313294  59.1313508  64.5398695
  77.2717519  60.0930859  65.6418598  78.2202157  59.5622360  65.5599207
  77.4623869  61.1574542  65.7792583  76.5143043  59.5734849  66.8038193
  75.6206613  60.1793265  66.6539557  76.2550551  58.5179675  66.7215273
  77.0985547  59.8539464  68.2141801  76.5688679  59.2702547  69.2153124
  77.8984703  60.7474805  68.4376882  75.5674036  61.0260767  63.9884590
  74.4639670  61.0681159  64.4855893  75.9601032  61.8637223  63.0055176
  76.8763910  61.6843330  62.6203741  75.1710341  63.0061394  62.4536623
  75.6871824  63.4184427  61.5866582  74.1836443  62.6543335  62.1546751
  75.0091892  64.1133200  63.5146649  73.9211717  64.6977271  63.5750226
  76.0486440  64.4531719  64.2992567  76.9474280  64.0063731  64.1867515
  75.8771855  65.4311786  65.4208538  75.3719757  66.3097582  65.0196553
  75.0596981  64.8967154  66.6278171  75.2615189  65.6432543  67.3959624
  73.9916526  64.8789359  66.4108778  75.4677510  63.5419977  67.1529103
  74.6029339  62.7649812  67.6171234  76.7151151  63.2396770  67.2259989
  76.9923801  62.3340658  67.5768438  77.4119143  63.9092066  66.9322272
  77.3356599  65.8578219  65.8222501  78.2970649  65.1552846  65.6778000
  77.4096914  67.1020564  66.3260305  76.7147146  67.7604669  66.0041576
  78.4654508  67.5892142  67.2867904  79.4211892  67.5721647  66.7629844
  78.2327574  69.0030183  67.8367337  77.2429280  69.1068128  68.2812150
  78.9925463  69.1596075  68.6024366  78.3829797  70.1463559  66.8305944
  79.4956248  70.1053259  66.0112217  80.3037288  69.3860387  66.1442390
  79.5577482  71.0558740  64.9592479  80.3712392  70.9536447  64.2409984
  78.6333086  72.0884157  64.8220108  78.7296988  72.8342095  64.0329604
  77.6112410  72.1538480  65.6832671  76.9357655  73.0051269  65.5986668
  77.3852268  71.1509884  66.6968569  76.4858052  71.1902042  67.3113509
  78.6364315  66.6630612  68.5260616  77.7486749  65.8281858  68.8515263
  79.7310563  66.7184746  69.2581463  80.3605455  67.4498232  68.9598648
  80.1246474  65.8781784  70.4378337  79.2311089  65.5181992  70.9478367
  80.9449128  64.6797774  69.9914833  80.3260852  64.0968395  69.3093286
  81.8147004  65.0609548  69.4564380  81.4063614  63.7912380  71.1452869
  82.3210472  63.2681638  70.8662815  81.6195136  64.4872770  71.9565791
  80.3071926  62.7254289  71.6297752  79.4169738  63.0210421  72.4508613
  80.3665510  61.6003977  71.0754509  80.9682570  66.8961468  71.2574642
  81.9681063  67.5270635  70.8130033  80.6768324  66.7934392  72.5630985
  79.7906193  66.4776125  72.9304936  81.6747515  67.4081448  73.5236570
  82.1848254  68.2602970  73.0744794  80.8935053  67.8939137  74.7417062
  80.4314570  67.0134606  75.1882628  81.6234587  68.3116730  75.4350642
  79.8210278  68.9349265  74.4456767  80.1325510  69.7610148  73.8064332
  79.0879083  68.3245817  73.9183114  79.2076490  69.4788076  75.7013760
  78.5029578  70.5042174  75.6288366  79.2133065  68.8900445  76.7903136
  82.8595934  66.4743048  73.7822267  82.6853418  65.5128209  74.4999691
  84.0587284  66.8274593  73.2100849  84.1760411  67.6244371  72.6008530
  85.2240339  66.0073365  73.5053657  85.0166398  64.9393720  73.5727357
  86.3213692  66.2535253  72.4410033  86.5612705  67.3158151  72.4866992
  87.6246021  65.4195440  72.6151645  87.3855517  64.3570776  72.5691131
  88.3252315  65.6686674  71.8181972  88.0766635  65.6482168  73.5802802
  85.7674612  66.0702580  70.9903855  85.0901761  66.8953001  70.7697245
  86.6048023  66.0917620  70.2928922  85.0060407  64.7215865  70.8445119
  84.1682220  64.6995347  71.5414146  84.6327779  64.6228893  69.8251823
  85.6828482  63.8959962  71.0645847  85.7983188  66.3633396  74.8987812
  86.1828445  65.4460122  75.5977056  85.8671631  67.6599665  75.2762440
  85.5583185  68.3981104  74.6599178  86.4953678  68.0206541  76.4947174
  86.1373711  67.2624654  77.1911995  88.0342349  67.9360263  76.4219778
  88.4083356  68.6953154  75.7352255  88.4551521  68.1043598  77.4132360
  88.3279089  66.9485334  76.0660107  86.0720191  69.4457013  77.0624415
  85.7910377  70.3737663  76.3363273  86.2216531  69.6730802  78.3526079
  86.6193874  68.9249217  78.9023038  85.7167025  70.8633247  79.0558747
  85.9433065  71.7431207  78.4536217  84.1782634  70.8162010  79.3104338
  83.6970881  70.8621310  78.3334691  83.9664078  69.8528396  79.7742787
  83.6292523  71.9567579  80.2120206  82.6318914  71.6526842  80.5296858
  84.2852867  72.0130086  81.0806728  83.5564599  73.2822218  79.5636528
  83.8217155  74.0228982  80.3180645  84.3019089  73.2912635  78.7684651
  82.2704246  73.6356457  78.9982656  81.6218555  72.8725944  78.8670775
  81.9245838  74.8499641  78.5576217  82.6916736  75.8526046  78.5772517
  83.6288112  75.7605518  78.9424905  82.3644569  76.7418676  78.2276231
  80.6492152  75.0257772  78.1668359  79.9987798  74.2545686  78.2144939
  80.3480399  75.9281665  77.8275932  86.4884969  71.1156030  80.3058983
  86.4829276  70.3790408  81.2899629  87.2198241  72.1995996  80.2774428
  87.5993931  72.5685493  79.4172667  87.5649988  72.8918218  81.5607845
  87.5839841  72.1528648  82.3618346  88.9370878  73.5972226  81.5077616
  89.6704204  72.8209998  81.2891276  88.8982126  74.3035485  80.6784893
  89.3377228  74.3285591  82.7767078  88.6011044  74.3119724  83.7828699
  90.4178650  74.9564661  82.7938755  86.4255474  73.8909740  81.8435677
  86.0892348  74.6231080  80.9177801  85.7693406  73.8350320  82.9702749
  86.0648020  73.1811513  83.6810787  84.6144058  74.7077893  83.2588545
  84.0199165  74.9420763  82.3757966  83.7492896  73.8447992  84.2272982
  84.5235961  73.3806473  84.8381269  83.0948912  74.4414622  84.8627948
  82.9179629  72.7378941  83.6800817  81.5329676  72.9457200  83.5028519
  81.1367661  73.9410905  83.7037542  80.6714997  71.9183536  83.0816793
  79.5993119  72.0623821  82.9483754  81.2552986  70.6469699  82.8264888
  80.6230774  69.7981877  82.5657881  82.6950989  70.4801463  82.9135010
  83.1493691  69.5793270  82.5008713  83.5003697  71.4587744  83.5183375
  84.5140816  71.2117565  83.8337267  84.9231356  76.0459579  83.9318275
  84.0141579  76.7730934  84.2154727  86.1670148  76.2990771  84.4504982
  86.8480922  75.5793982  84.2548067  86.5191007  77.3298028  85.3646683
  86.0086566  77.2099280  86.3202708  88.0411075  77.2175380  85.6007020
  88.1309796  76.1791508  85.9197226  88.5584900  77.3512957  84.6506892
  88.7039816  78.1072849  86.6458252  89.1887959  79.2314906  86.4483620
  88.8469169  77.5670091  87.8303493  89.2780187  78.0962820  88.5747425
  88.5253704  76.6236268  87.9938680  86.0148186  78.7045066  85.0238588
  86.2678779  79.2156808  83.9223253  85.3998494  79.4317151  85.9717879
  84.9503080  78.9987516  87.3176487  85.8428419  78.7556055  87.8941584
  84.3484650  78.0998067  87.1843000  84.1297250  80.1808008  87.9464039
  84.7552867  80.8822941  88.4983811  83.3184872  79.8359702  88.5875642
  83.5906509  80.8005010  86.6834274  83.2457753  81.8224812  86.8406416
  82.7994138  80.2193918  86.2097653  84.8926978  80.8031869  85.7588272
  84.5668047  80.8891699  84.7222468  85.9806712  81.8802154  86.0516643
  86.0567780  82.4526715  87.1664696  86.8548423  82.1834656  85.0466379
  87.0276465  81.4804492  84.3423610  87.6209995  83.4400035  84.9818863
  87.7038360  83.9162308  85.9588432  89.0411087  83.0559733  84.4963589
  89.3863124  84.0591933  84.2463924  89.6996186  82.6227705  85.2492202
  89.1016481  82.1988720  83.2497586  88.3850102  82.5120489  82.2795012
  89.6985444  81.0898136  83.3456250  89.7643440  80.4839350  82.5402174
  90.1071387  80.8142513  84.2272240  86.7822208  84.3940147  84.0300933
  85.5976035  84.2998219  83.9780965  87.4483865  85.3620142  83.3599746
  88.3602827  85.6534806  83.6818318  86.8299414  86.1092546  82.3220486
  85.9540714  85.6047654  81.9140760  86.3744618  87.4317132  82.9867015
  87.2410523  87.9509566  83.3959770  85.9007476  88.0571198  82.2300236
  85.3759497  87.2917058  84.1217783  85.7098679  87.0463592  85.3911154
  86.7690362  86.9661358  85.6357099  84.5617327  86.9453012  86.1446364
  84.6405277  86.8839486  87.1496870  83.4165528  87.1610103  85.4583963
  82.0984823  87.3799265  85.7409274  81.8286771  87.2755225  86.7918335
  81.1623493  87.7222976  84.6977754  80.1037098  87.8401100  84.9290819
  81.5884155  87.9058086  83.3950470  80.9399452  88.1643085  82.5579307
  82.9959369  87.7409373  83.1345994  83.2600352  87.9997342  82.1092326
  83.9452799  87.3937968  84.1012743  87.7268367  86.2034471  81.1122455
  88.6378870  87.0577362  81.0841131  87.4207420  85.4824446  80.0311671
  86.5984405  84.9135331  80.1735022  88.1582062  85.3255104  78.7958877
  89.2290066  85.2168033  78.9681328  87.6354143  84.0454911  78.1638668
  87.3384130  83.3418917  78.9415796  86.7776147  84.2682538  77.5293143
  88.7649546  83.4194589  77.3046955  89.1349041  84.2450091  76.6966617
  89.5285513  83.1299723  78.0266509  88.3882321  81.9821085  76.2111503
  88.1960932  80.7817030  77.5528209  87.3897980  81.1003628  78.2134593
  87.9574867  79.8037794  77.1346904  89.1251580  80.7172489  78.1192002
  88.1222441  86.5147000  77.8954507  87.0732508  86.9111416  77.3411800
  89.3357669  86.9484689  77.4375206  90.1536009  86.5823302  77.9035563
  89.5235502  87.9985402  76.4141605  88.5974916  88.5538447  76.2653263
  90.6267635  88.9891329  76.8898572  90.6576298  89.8504545  76.2225703
  90.4061108  89.3232983  77.9036352  91.8536667  88.3480398  76.8723887
  92.5365431  88.9559432  77.1651908  89.8026218  87.3571068  75.0136605
  89.4881025  88.0354724  74.0453286  90.4402698  86.1506077  74.9335535
  90.6965248  85.6758535  75.7873926  90.8320878  85.5449509  73.6568651
  90.0082020  85.7253364  72.9663779  92.1164143  86.4239145  73.1757515
  92.9525148  86.2468417  73.8522728  92.3995103  86.1311558  72.1646880
  91.8578282  87.4827274  73.1879066  91.1737228  84.0380346  73.5961689
  91.6213397  83.5212268  74.5841496  91.0398029  83.3375203  72.4980883
  90.6341846  83.8099999  71.7028926  91.4069886  81.9193093  72.3544974
  92.2172954  81.5751921  72.9972146  90.1445437  81.0443802  72.6318222
  89.5101485  81.6902295  73.2388811  89.3101367  80.4593155  71.4480548
  89.9437849  79.8129468  70.8407670  88.4745290  79.8812524  71.8426474
  88.9289989  81.2748957  70.8335106  90.5096167  79.8957522  73.5554701
  90.8875751  80.2925521  74.4977011  89.6255781  79.2874241  73.7465521
  91.2781333  79.2815901  73.0861216  91.9748330  81.4916966  70.9821221
  91.6943880  82.1166053  69.9135390  92.7939150  80.4030190  71.0245460
  92.9859949  80.0538459  71.9525992  93.5945250  79.8985701  69.9177312
  92.9523190  79.7721863  69.0461247  94.7581300  80.8633904  69.5428295
  94.2911919  81.8461483  69.6080590  95.4560235  80.7376313  70.3706152
  95.5461556  80.7395464  68.1590624  96.4003328  81.4116626  68.0769530
  95.8832546  79.7090559  68.0470234  94.5282554  81.0680824  67.0554065
  93.8314280  80.1155759  66.6409794  94.4203251  82.2506954  66.6953753
  94.0587035  78.4207530  69.9293837  94.1237334  77.7091343  70.9085925
  94.3480093  77.8628058  68.7550038  94.3759563  78.4261355  67.9171626
  94.7008340  76.4272511  68.6485876  94.5304273  75.9475154  69.6123897
  93.7265649  75.8261176  67.5896296  93.7682641  76.4638293  66.7066316
  94.0767552  74.3547253  67.1870871  94.0348069  73.7162855  68.0695471
  93.3591840  73.9992116  66.4476263  95.0805026  74.3225087  66.7633508
  92.2791091  75.7650477  68.2050994  92.2850316  74.9833971  68.9647624
  92.0892996  76.7287847  68.6776277  91.2050066  75.4802954  67.2063847
  91.3938952  74.5164351  66.7337388  90.2382283  75.4545912  67.7091553
  91.1981649  76.2618221  66.4466024  96.1643677  76.2267122  68.1195373
  96.4997359  76.4387197  66.9293781  97.1290548  75.9761352  69.0264707
  96.9120186  76.0009871  70.0125625  98.5145043  75.8147235  68.6315506
  98.8560164  76.6489952  68.0188032  99.3664050  75.7804349  69.9541576
  99.0065885  74.8741235  70.4412212 100.4335513  75.6852984  69.7535389
  99.1165754  77.0246419  70.9033906  98.0547303  77.1083954  71.1348449
  99.8926743  76.8199050  72.1767489 100.9547296  76.7365197  71.9461317
  99.7313058  77.6684264  72.8416341  99.5547966  75.9062970  72.6658905
  99.4225370  78.3481930  70.2142455  98.7833199  78.4586159  69.3382844
  99.2358874  79.1700227  70.9055190 100.4676520  78.3643815  69.9050990
  98.8407838  74.6436006  67.7013212  99.6880295  74.6823994  66.6921183
  98.2536269  73.4840735  67.8608190  97.6795844  73.6002986  68.6836593
  98.2196125  72.2474498  67.1939352  98.0667280  72.3821153  66.1231454
  99.6032523  71.5456762  67.4180149  99.7459918  70.6037440  66.8884033
 100.2522315  72.3071072  66.9854078  99.9479077  71.3602896  68.8746873
  99.6200292  70.2983982  69.4189329 100.7095557  72.1823859  69.3944304
  97.1176012  71.2510277  67.7358984  96.1273276  71.6599492  68.3803938
  97.1762007  69.9635993  67.3627331  97.9751153  69.7225920  66.7937425
  96.1525325  68.9496094  67.5813145  95.1607432  69.3136048  67.3130601
  96.5108423  67.7470069  66.6521346  97.5693263  67.7688623  66.9114282
  96.0961125  66.7705178  66.9022711  96.3498449  67.9982048  65.1669732
  95.9584840  69.1212158  64.8098989  96.3113388  67.0710924  64.3277564
  95.9468483  68.5620761  69.0351512  94.8044725  68.2171683  69.3982298
  96.8973988  68.8954961  69.9085049  97.6489924  69.4578676  69.5357519
  96.9438285  68.5216456  71.3418147  96.1017210  67.8857739  71.6149835
  98.1868729  67.7704039  71.5535726  98.9255144  68.3282724  70.9779940
  98.5754495  67.5790145  72.5538118  97.9001394  66.4565803  70.8651893
  96.8924153  65.7859974  71.1415235  98.7700769  65.9469291  70.1582540
  96.9301206  69.7709763  72.2770008  96.8637819  69.5977444  73.5267719
  97.1114404  70.9937511  71.6897309  97.0903000  71.0919313  70.6847368
  97.4280656  72.1611039  72.4874339  97.1197737  71.9706517  73.5154336
  98.9518550  72.5165937  72.4801089  99.1047794  72.4719439  71.4018140
  99.3352442  73.4627594  72.8620555  99.7364236  71.3679717  73.1356572
  99.9632669  71.2657905  74.3091580 100.4148201  70.6504162  72.3147312
 100.9605096  69.8735950  72.6595089 100.3994706  70.8662829  71.3281884
  96.5841483  73.3226254  71.9910376  96.7522471  73.7516809  70.8401865
  95.8762740  73.9647281  72.9319924  96.0043416  73.6015691  73.8657020
  95.0034601  75.1117495  72.7530039  95.1004033  75.5219503  71.7477992
  93.5394446  74.6423345  72.9576818  93.2860696  74.7008727  74.0162060
  92.8406347  75.2503760  72.3831817  93.3089609  73.1897267  72.5317558
  93.4118180  72.7690782  71.1707080  93.4670406  73.5228447  70.3852868
  93.4425349  71.3888742  70.8342747  93.7527152  71.0994383  69.8302250
  93.0852883  70.4129379  71.7610935  93.0052295  69.3612907  71.4859051
  92.8227952  70.8186645  73.0930265  92.5192746  70.0617925  73.8162970
  92.9493249  72.2007723  73.5021501  92.7713102  72.4802461  74.5405648
  95.3178611  76.2092319  73.8229957  95.2711667  75.8658253  74.9801135
  95.5264727  77.4787482  73.4055623  95.4180070  77.5664073  72.4052371
  95.7999733  78.6680833  74.1692352  96.2326277  78.4712111  75.1501281
  96.8878897  79.3961292  73.2719475  97.6885830  78.6577005  73.3133293
  96.5782887  79.5379491  72.2365083  97.3896212  80.7234790  73.8396622
  96.5624577  81.4331248  73.8571067  97.9395895  80.5366202  75.2757822
  98.7671407  79.8274103  75.2590728  98.2907037  81.4949265  75.6584944
  97.1484419  80.1558584  75.9216973  98.3360205  81.3994355  72.8852724
  97.8242346  81.5955099  71.9430784  98.6763460  82.3410644  73.3161029
  99.1941267  80.7521622  72.7041921  94.6665022  79.6593337  74.3688391
  94.0008347  80.0888842  73.4336417  94.5101472  80.1105391  75.5997899
  95.0658787  79.7039820  76.3386899  93.5408152  81.2047343  75.9558889
  93.1610654  81.6581222  75.0402860  92.7116972  80.7782989  76.5205265
  94.2090035  82.2722853  76.7932659  95.3003335  82.0667957  77.3761535
  93.4192066  83.3198975  76.9759775  92.5133373  83.3706547  76.5322166
  93.8310256  84.4208345  77.8272165  94.3838545  84.0128648  78.6734081
  94.7815565  85.3303260  77.0064582  94.2397788  85.7535590  76.1606149
  95.1513669  86.1362302  77.6403816  95.6226573  84.7414333  76.6405975
  92.6840342  85.3318633  78.3591030  91.5594908  85.2682527  77.8006894
  92.8780596  86.0156223  79.4937293  93.8224090  86.1761045  79.8139619
  91.7766965  86.4785319  80.3295109  90.8990350  86.7365437  79.7368563
  91.4105624  85.2902275  81.2710200  90.5277314  85.6065036  81.8266081
  91.1492653  84.4574658  80.6180791  92.4883829  84.8511702  82.2427759
  92.2619663  83.8607419  82.6376028  93.3510829  84.7888245  81.5794804
  92.8071988  85.8147512  83.4160922  91.8930053  86.0154300  84.2671228
  93.9683150  86.2994705  83.6027693  91.9692418  87.7507871  81.1763734
  92.9767413  88.4249019  81.0166517  90.9525247  88.2369744  81.9230977
  90.1548902  87.6174260  81.9169032  90.7766580  89.5897369  82.4551902
  91.0420682  90.3080072  81.6794683  89.3019349  89.8712664  82.9165328
  88.5914995  89.4909710  82.1825326  89.1884391  89.3207286  83.8504101
  88.9820936  91.3947230  83.1865073  89.0231477  92.2011696  82.2875721
  88.6028698  91.6751597  84.4353898  88.3799780  92.6266242  84.6906042
  88.5405879  90.9345800  85.1193222  91.8597512  90.0987964  83.4482946
  91.9618050  91.3108708  83.7148611  92.6206213  89.1706698  84.0068113
  92.3903446  88.2150217  83.7748445  93.6558842  89.4112972  85.0226864
  93.5672653  90.4571595  85.3166556  93.4251439  88.5324522  86.2604882
  93.5196810  87.4823728  85.9839090  94.1660383  88.7751225  87.0222539
  92.4256850  88.7151107  86.6552248  95.0827484  89.2553813  84.4119223
  95.9859059  89.3894039  85.2033947  95.2010855  89.0763061  83.0697340
  94.3656613  88.7426746  82.6105438  96.4669621  89.1754474  82.2632104
  96.1664764  89.2711195  81.2198244  97.3981604  90.3142381  82.6034921
  98.0502694  90.0838560  83.4459748  98.0040987  90.5147693  81.7199051
  96.7034973  91.5820912  82.9385931  95.8515127  92.2075911  82.0111913
  95.7292427  91.7730531  81.0190590  95.1546069  93.3931409  82.3567387
  94.4842815  93.8531732  81.6306981  95.3205063  93.9658748  83.6046274
  94.8814207  94.9378957  83.8293029  96.0498804  93.2961174  84.5711311
  96.0218925  93.6482804  85.6022946  96.8217878  92.1715149  84.2334696
  97.5133280  91.7467266  84.9610869  97.2453608  87.8452192  82.2553138
  98.4780920  87.9013452  82.1172818  96.5948902  86.6800334  82.3717609
  95.6282300  86.6927198  82.6641759  97.2597927  85.3735351  82.2117081
  98.3450809  85.4690560  82.2452439  96.8125770  84.5067738  83.3762818
  95.7322111  84.3996509  83.2791556  97.2870361  83.5345953  83.2426498
  97.1279455  85.0143616  84.7801545  98.1701960  84.6817638  85.3351369
  96.2729652  85.7721266  85.3245604  96.4401877  86.1317595  86.2534310
  95.4275272  86.0135942  84.8275405  97.0019457  84.7268432  80.8103500
  95.8939774  84.6857080  80.3163579  98.0582678  84.2590618  80.1225636
  98.9233705  84.7500014  80.2977067  98.0733016  83.1335490  79.1676197
  97.2480160  83.2108500  78.4597868  99.4321256  83.1897899  78.3662276
 100.1787006  82.9397966  79.1200369  99.2691281  82.3290898  77.7175927
  99.9314653  84.3800282  77.5240740 100.0050973  85.3022859  78.1003725
 101.3466299  83.9260510  77.0952210 101.2737672  83.0040338  76.5184419
 101.8076001  84.7013625  76.4832575 101.9571573  83.7523991  77.9813371
  99.1666591  84.7102949  76.2153780  98.1278358  84.9426606  76.4497958
  99.6299857  85.5693145  75.7300792  99.2040278  83.8512890  75.5454440
  97.9690460  81.7980617  79.8906503  98.8709154  81.5540697  80.7245523
  97.2124345  80.8337869  79.3318058  96.6040609  81.2607481  78.6479307
  97.0382777  79.4137415  79.6223266  97.9642355  78.9982220  80.0198754
  95.9261561  79.2207746  80.6647849  95.7373169  78.1664633  80.8669398
  96.2257005  79.7190092  81.5868128  94.5996411  79.8280091  80.2551140
  93.7181783  78.8940783  79.5907214  94.0626524  77.8641189  79.4978718
  92.4440576  79.2709481  79.0667266  91.8144092  78.5840495  78.5012057
  92.0108718  80.5866463  79.3055494  91.0265697  80.8922226  78.9507644
  92.8435211  81.5222679  80.0049473  92.4791435  82.5358859  80.1720038
  94.1324587  81.1410313  80.4793399  94.7522239  81.8620361  81.0123906
  96.8400115  78.5483523  78.4516797  96.1474340  78.8292936  77.5000761
  97.3467623  77.2780845  78.5480960  97.7423453  76.9779170  79.4275919
  97.2498271  76.3127370  77.4743582  96.5630205  76.6324323  76.6906549
  98.6295881  75.9856207  76.8249198  99.2300747  75.4851597  77.5845604
  98.5438884  75.1039744  75.5825200  97.9438967  75.6040083  74.8222062
  99.5462880  74.9247036  75.1937301  98.0801706  74.1525017  75.8428415
  99.5650835  77.0642372  76.4173014  99.8341031  77.6611272  77.2887673
 100.4645782  76.6228058  75.9881777  99.0842834  77.7017118  75.6753053
  96.7828625  75.0252343  78.1156226  97.4053043  74.5469391  79.0404047
  95.6829948  74.5043718  77.5882222  95.2932192  75.0247044  76.8152874
  94.9687960  73.3632906  78.0648841  95.4620975  72.9764024  78.9565513
  93.4787991  73.7248783  78.4303863  92.9524092  72.8932219  78.8987457
  93.4098016  74.6044974  79.0703939  92.5436326  74.1268255  76.9150619
  91.3885122  74.3742813  77.5260944  95.1094106  72.2856972  76.9728191
  95.6058236  72.5399947  75.8626669  94.8782988  70.9990459  77.3400218
  94.5689471  70.7489276  78.2683762  95.1627063  69.9309881  76.3979890
  95.1441335  70.2910451  75.3693427  96.5963477  69.4081294  76.7169755
  97.2690248  70.1760149  76.3349330  96.6532786  69.3846853  77.8052352
  96.9975756  68.0776232  76.1689158  96.6181140  67.4642818  76.9861809
  96.4336012  67.8620776  75.2614055  98.4333212  67.7267019  75.9343871
  99.0255968  66.8682901  76.5650478  99.0687097  68.4883868  75.1509852
 100.0417172  68.3048244  74.9518303  98.6003535  69.2769091  74.7279290
  94.0866799  68.8276586  76.4742853  93.6558368  68.5288401  77.5837513
  93.7234963  68.1792502  75.3796816  93.9993605  68.5159458  74.4682902
  92.8501109  67.0466490  75.4492113  92.1042472  67.2089709  76.2273103
  92.1256178  66.8260735  74.1133534  91.4707178  65.9642297  74.2415349
  91.5232112  67.7145400  73.9240555  93.0521494  66.5854625  72.9400229
  93.6920671  67.4612033  72.8319299  93.6654623  65.7140140  73.1692108
  92.3080397  66.3497528  71.6603000  91.4655211  65.6670837  71.7708634
  91.9697128  67.2692288  71.1825989  93.3849494  65.6937155  70.7965764
  94.3019622  66.2618628  70.9527710  93.5170628  64.6802541  71.1754449
  93.0801195  65.6435016  69.3654251  92.9580877  66.5825206  69.0140686
  93.8413404  65.1966240  68.8745654  92.2306593  65.1167235  69.2204376
  93.8069047  65.8929298  75.9076340  94.8671499  65.7756539  75.3952741
  93.3626697  65.1039347  76.8364440  92.4373323  65.2412104  77.2172398
  94.2131989  64.1035283  77.4443759  94.8817949  63.6653973  76.7033498
  95.0382430  64.7551938  78.5056579  95.3454608  65.6211302  77.9192531
  94.4400232  65.0857408  79.3547584  96.2719813  64.0209782  79.0099983
  96.7576141  63.0657060  78.3492034  96.6434755  64.2718342  80.1808716
  93.2959373  62.9259943  77.9197354  92.6478558  63.0961332  78.9479826
  93.3378080  61.8031890  77.1588313  93.7562224  61.8942791  76.2441011
  92.5117035  60.6150250  77.4336980  91.8506867  60.7818990  78.2841738
  91.6660614  60.3541356  76.2087216  90.9997219  61.2029929  76.0553197
  92.3228557  60.2478010  75.3453478  90.8941503  59.1674692  76.3666873
  90.3660631  59.0219448  75.5783051  93.2725335  59.4888346  78.1297345
  92.8903610  58.3218201  78.1335329  94.4399841  59.7935748  78.6722578
  94.6639426  60.7715226  78.5558101  95.3930160  58.9549525  79.3170692
  95.6768681  58.0995136  78.7040835  96.6277533  59.8177163  79.5509825
  96.3613749  60.6737000  80.1710104  97.3931830  59.2282844  80.0557475
  97.0128654  60.1689686  78.5936896  94.8110139  58.3765874  80.6177358
  94.9543454  57.1376478  80.8538515  94.0995561  59.1655461  81.4069359
  94.2253692  60.1316918  81.1407912  93.3661622  58.8745381  82.6447024
  94.1442981  58.5990946  83.3565553  92.7414606  60.2872260  83.0879065
  91.9544114  60.5721256  82.3897047  92.3232146  60.2015207  84.0908148
  93.5224216  61.0476113  83.0842490  92.3944200  57.6881552  82.6459790
  91.9986018  57.1271979  81.6297100  92.0180225  57.3450088  83.8990128
  92.3829448  57.8635376  84.6851800  91.1150397  56.1452210  84.1791343
  90.9145078  55.6261578  83.2418725  91.7746552  55.1532179  85.1611121
  91.1005764  54.3172014  85.3476451  93.0337840  54.6484922  84.5648600
  93.7085980  55.4839445  84.3784595  93.5062680  53.9468759  85.2523137
  92.8140213  54.1428520  83.6245766  92.0568855  55.8257581  86.3716003
  92.4676223  55.2155246  86.9884557  89.6635165  56.3372578  84.7373987
  88.9328190  55.4599603  85.1561734  89.1970477  57.5423981  84.6319960
  89.8989683  58.2356314  84.4155836  87.7810781  58.0068482  84.8640505
  87.0679854  57.1854827  84.9344541  87.7422019  58.7865662  86.1450827
  86.7242801  59.1705184  86.2122851  88.0921311  58.0698596  87.4191483
  89.1101482  57.6859999  87.3528725  88.0193219  58.7622000  88.2578751
  87.4010392  57.2409109  87.5719113  88.6328514  59.9367723  86.0452707
  88.6063714  60.4341441  86.8659536  87.3347608  58.8279699  83.6150213
  88.0784009  59.7007901  83.1233532  86.1182427  58.6482597  83.1339870
  85.6041503  57.8475778  83.4726856  85.5036250  59.4801886  82.0735398
  86.0446928  59.3699978  81.1337511  84.0628061  59.0153246  81.8649269
  83.6558540  59.2772448  82.8415983  83.5504264  59.5890554  81.0926576
  83.8500319  57.4751527  81.6031622  83.9221907  57.1459695  80.4198830
  83.4715771  56.6815766  82.4870281  85.5720963  60.9787122  82.3619713
  85.9316071  61.7513712  81.4622118  85.2692951  61.3627804  83.5645822
  84.8119161  60.6162056  84.0680996  85.3466875  62.6815388  84.1973157
  84.6716437  63.3823872  83.7061675  84.9342739  62.5524534  85.6648879
  83.8690310  62.3219742  85.6495226  85.4857032  61.6940922  86.0486088
  85.1941639  63.8266560  86.6167928  84.8594282  63.6489105  87.6387807
  86.2834684  63.8565004  86.5918083  84.6387340  65.1569938  86.1251007
  85.0429702  66.2181392  86.7393225  83.9511810  65.2077338  85.0776684
  86.6894666  63.3364236  83.9609405  86.7507618  64.4870868  83.4559751
  87.7922205  62.7431053  84.4222575  87.6948919  61.9021962  84.9731643
  89.1035271  63.2510299  84.1904872  89.1419433  64.2931684  84.5076162
  90.2049668  62.4390988  84.9865095  89.8671522  62.3184185  86.0157892
  90.3124768  61.4586162  84.5226179  91.5715024  63.1684433  84.9740927
  92.0839883  62.7285372  84.1185569  91.3848009  64.2248849  84.7812902
  92.4247546  63.0282794  86.1907441  92.9478792  64.0630821  86.6932091
  92.5824817  61.8716121  86.5610277  89.4828908  63.2137140  82.7451707
  90.0235957  64.2263026  82.2286403  89.1789861  62.0662848  82.0539442
  88.7305940  61.2780118  82.4985445  89.5021201  61.9690402  80.6015018
  90.5815654  61.9836094  80.4508865  88.9384598  60.6303580  80.0365064
  88.0010084  60.4935819  80.5755577  88.7264281  60.8566728  78.9915546
  89.7989054  59.2985232  80.1252727  90.8422160  59.5108701  79.8917933
  89.7303091  58.8748513  81.1272202  89.2425575  58.2979034  79.1094134
  89.0407395  58.8173597  78.1726458  89.9825941  57.5160676  78.9385976
  87.9939810  57.6716042  79.5806966  87.1225265  57.8947129  79.1214700
  87.9915762  56.7222071  80.5416026  88.9729565  56.2046332  81.1782713
  89.9157770  56.5076038  80.9797813  88.8003059  55.4954789  81.8764057
  86.7966679  56.3479728  80.9441691  85.9745964  56.7684969  80.5349529
  86.7067123  55.6418121  81.6606493  88.8683319  63.1283796  79.8257436
  89.5433300  63.5634263  78.9030990  87.7269826  63.6723418  80.2339359
  87.1836633  62.9946636  80.7493539  87.0713680  64.8250910  79.7456115
  87.4554822  65.0927568  78.7612790  85.5658740  64.5386912  79.6242205
  85.2076017  65.1572850  78.8013705  85.4810491  63.4868916  79.3510496
  84.7196039  64.8118785  80.8753898  83.6873225  64.4643119  80.8342392
  85.2636665  64.2444211  81.6304328  84.7227649  66.2920358  81.2779187
  84.2144519  67.1476271  80.6166424  85.1460220  66.5725214  82.4647507
  85.1671672  67.5330859  82.7761508  85.4540314  65.8300837  83.0763208
  87.4390127  66.2732547  80.1751607  87.0274236  67.2079712  79.5174454
  88.2621435  66.5273515  81.1849881  88.3214569  65.8428117  81.9252492
  88.9409302  67.7867141  81.3626667  88.2676416  68.6438509  81.3725694
  89.5679835  67.6447114  82.7425653  89.1520845  67.0358419  83.5453138
  90.5352934  67.2403586  82.4443866  89.8205130  68.9461362  83.3016067
  88.9301678  70.0031499  83.2999745  89.5522801  71.0076188  83.9191712
  89.0344342  71.9382392  84.1512924  90.8356761  70.6164508  84.1542655
  91.5257189  71.1618393  84.6507453  91.0445567  69.4215571  83.6385592
  92.0589470  69.0295598  83.5647242  89.9027119  68.2205732  80.2159692
  90.4906639  67.3378779  79.5345732  90.1007262  69.5302755  80.0696017
  89.4891775  70.1886484  80.5307445  91.1712844  70.0404070  79.2839295
  91.5129400  69.3042461  78.5563047  90.6363337  71.2929273  78.5143722
  90.1208283  71.9994509  79.1648935  91.5598825  71.7426791  78.1498438
  89.7378474  70.9436275  77.3289317  88.9389282  70.2781451  77.6559823
  89.1330440  72.2268821  76.7698643  89.9313953  72.8927217  76.4421577
  88.4899700  71.9872116  75.9230380  88.5448159  72.7193365  77.5441877
  90.5415221  70.4063396  76.1535880  91.0733754  69.5049780  76.4581839
  89.8678126  70.1693022  75.3301622  91.2598190  71.1593655  75.8293961
  92.2267568  70.3959526  80.3229209  92.1867172  71.4664432  80.9718661
  93.2843540  69.5970147  80.4541282  93.3720763  68.8665735  79.7621313
  94.3420566  69.7030742  81.5158502  93.8426535  69.8620082  82.4715885
  95.2611381  68.4427008  81.6355376  95.8011292  68.3336549  80.6949964
  95.9710677  68.6235343  82.4426306  94.4908013  67.1843152  81.9191730
  93.6631172  67.3372510  81.2266050  95.0230419  66.2712445  81.6524823
  93.9293420  67.0265436  83.3171285  93.9997721  67.8706603  84.2238107
  93.4821810  65.8829536  83.7316090  93.1116775  65.7981505  84.6673638
  93.5063012  65.0819061  83.1169201  95.3243518  70.8930675  81.2569564
  95.8353337  71.0501417  80.1304222  95.6095452  71.8324901  82.1838991
  94.8726222  72.0810615  82.8283029  96.7655281  72.7305383  82.0683532
  96.6846481  73.2731049  81.1264513  96.8644108  73.7293775  83.1925242
  97.5992971  74.4905257  82.9304273  95.8919339  74.1992984  83.3393674
  97.2988099  73.0211058  84.5017849  97.3138697  71.9316418  84.4710881
  98.3171810  73.3952120  84.6069706  96.4494205  73.4913995  85.7079173
  95.2322063  73.4461596  85.7217691  97.0464873  73.7598190  86.7546757
  98.0909944  72.0756729  81.6558737  98.4734970  71.0917212  82.2914333
  98.7606853  72.6651905  80.6309522  98.1635343  73.1920443  80.0097156
 100.1163247  72.3851316  80.2063643 100.8232536  72.0105075  80.9466396
 100.1425373  71.4538491  78.9886398 101.1700953  71.1318965  78.8196120
  99.2066620  70.1627820  79.2193327  98.1787909  70.4839364  79.3879797
  99.2467229  69.5222477  78.3383041  99.5604340  69.6074878  80.0880071
  99.9367716  72.1307894  77.7017869 100.7214321  72.8722140  77.5511234
  99.9704782  71.3979108  76.8956526  98.9654594  72.6254137  77.7020737
 101.1151482  73.5173612  80.0982324 102.3281777  73.1907904  80.2650496
 100.6644502  74.7225748  79.7900237  99.7390922  74.9242785  79.4391286
 101.5935592  75.8381166  79.9788521 102.3959033  75.5245154  80.6466825
 102.0141376  76.1189674  79.0132767 100.8783804  77.0651260  80.5925566
  99.8080825  77.4625807  80.1052567 101.3871796  77.6926124  81.6921993
 102.3065660  77.4191386  82.0084901 100.6986252  78.7981738  82.4031740
  99.8115099  79.1245881  81.8604223 100.2674149  78.2693691  83.7707702
 101.1222763  78.0383195  84.4063231  99.7378201  79.1322591  84.1745648
  99.3218061  77.0637215  83.7286888  99.8187727  76.2186107  83.2523353
  98.9443359  76.6915261  85.1550604  98.4468731  77.5360438  85.6319455
  98.2711081  75.8343921  85.1414064  99.8442581  76.4371574  85.7150041
  97.9843962  77.4350994  83.0963366  98.1484139  77.7842978  82.0768965
  97.3342472  76.5603755  83.0800357  97.5134199  78.2263992  83.6795389
 101.6643434  79.9518022  82.6485547 102.8028270  79.6973408  83.0494854
 101.2488950  81.1985511  82.5285010 100.2515899  81.3290002  82.4364957
 102.0839328  82.3347925  82.4407445 102.7621140  82.3448887  83.2940133
 102.9278922  82.3369955  81.1354286 103.4370628  81.3809820  81.0134339
 102.2173927  82.4762237  80.3206243 103.9649375  83.3946853  80.9818115
 105.1883508  83.1125443  81.4878840 105.2773884  82.1579229  82.0064110
 106.2842311  83.9450446  81.3815653 107.2481342  83.7076106  81.8316948
 106.1215230  85.1381451  80.6591427 106.9607474  85.7942296  80.4281548
 104.8112560  85.4803967  80.2256798 104.6169571  86.4669528  79.8049007
 103.7676507  84.5476841  80.3396022 102.7928384  84.7644830  79.9027510
 101.3354446  83.6528576  82.5459007 100.4520603  84.0733696  81.7793560
 101.7498804  84.4254589  83.5318015 102.4113921  84.0505323  84.1965808
 101.1953071  85.7665492  83.7795860 100.1709780  85.8365937  83.4136038
 101.1932015  86.0190935  85.3103015 101.1779792  85.2018361  86.0313825
 102.2020575  86.4265798  85.2449977 100.3166921  87.1189828  85.8818640
 100.2717306  87.6041091  87.2146326  99.1871538  88.3520602  87.2931714
  99.0438444  88.9362379  88.2021806  98.4147595  88.2421181  86.1593029
  97.4923059  88.6105796  85.9765042  99.1271779  87.5343617  85.3085863
  98.7495701  87.3496106  84.3029121 101.9073203  86.8976099  82.9966352
 102.9630969  87.4840278  83.3686283 101.3366101  87.1855963  81.8004652
 100.5135056  86.6348489  81.6022843 101.8141230  88.0738713  80.7929401
 102.8376396  87.8593026  80.4855751 100.9047054  87.8201766  79.6348884
 101.0873547  86.7579405  79.4724297  99.8569123  87.9727335  79.8936468
 101.2350269  88.6019471  78.3451816 101.1535438  89.6630777  78.5806881
 102.6617327  88.3030096  77.7695004 102.7438224  87.2420796  77.5333066
 102.8190471  88.8894679  76.8642824 103.4159966  88.5692779  78.5099649
 100.1246177  88.3929244  77.3272612  99.1815282  88.7528424  77.7385283
 100.3573449  88.9446733  76.4164855 100.0379910  87.3312326  77.0961649
 101.8686456  89.5231560  81.2774378 102.7020333  90.3088043  80.8174305
 100.9189683  89.9469086  82.1282896 100.2139570  89.3144576  82.4790946
 100.8813320  91.3573996  82.5753069 100.1596492  91.4529410  83.3865683
 101.8704317  91.6419541  82.9342078 100.4727059  92.3034627  81.4252224
 100.8804500  93.4705865  81.3264973  99.6036974  91.8045743  80.5293045
  99.4547374  90.8056736  80.5396811  98.9391212  92.5827144  79.5183439
  98.6206631  93.5506352  79.9054007  99.9454836  92.8137988  78.3962424
 100.7617284  93.3610584  78.8677831 100.2876045  91.8152702  78.1242240
  99.4904546  93.5616851  77.1316034 100.3734488  93.7694490  76.5272391
  98.7794968  92.9781994  76.5466395  98.8408393  94.8807064  77.5551889
  99.3589251  95.6359043  78.4174216  97.7288900  95.1576914  77.0305099
  97.6637510  91.8631003  79.0593370  97.5071735  90.6296121  79.0379534
  96.7055126  92.6315765  78.5989962  96.9179978  93.6182065  78.5601310
  95.3544002  92.1933798  78.2152046  95.0764920  91.3157706  78.7988724
  94.2897186  93.3350046  78.4799588  94.3898518  93.8243529  79.4487782
  94.5059173  94.0515134  77.6875111  92.8576581  92.9626778  78.3375664
  92.1914789  93.1211270  77.0309800  92.6906688  93.5051061  76.1413343
  90.8305742  92.7431092  76.9702606  90.3736995  92.8475332  75.9861560
  90.0996673  92.2829626  78.0088111  89.0465298  92.0304808  77.8853037
  90.7149633  92.1316929  79.2599508  90.1266879  91.8820825  80.1429722
  92.1271714  92.3081728  79.3696645  92.6556559  91.9404958  80.2492198
  95.3038933  91.7404283  76.7420987  94.9576958  92.5526714  75.8386230
  95.6529519  90.4820108  76.5478576  96.0608786  89.9392123  77.2955641
  95.5118142  89.8359038  75.1866938  96.3094438  90.2152129  74.5479365
  95.6611029  88.3379183  75.3070781  94.8841695  87.9809703  75.9831416
  95.5362733  87.5902889  73.9199671  96.3132221  87.9464004  73.2434790
  95.6524227  86.5173769  74.0731649  94.5569726  87.7908157  73.4853860
  97.0502050  87.9954098  75.8318316  97.1911560  88.4503337  76.8122801
  97.1507237  86.9133313  75.9161034  97.8037316  88.3772338  75.1429855
  94.1568180  90.1807668  74.5111018  93.1547208  89.9579925  75.1824763
  94.0747730  90.5338247  73.2314156  94.9431415  90.5071145  72.7163213
  92.8458389  90.8815539  72.5066796  91.9902636  90.8701342  73.1819275
  92.9871872  92.2942846  71.9165722  93.9333469  92.7055799  72.2683067
  93.0357054  92.1434008  70.8381567  91.8906604  93.2845071  72.2155645
  90.8543475  93.0316142  72.8000589  92.1232160  94.5391594  71.8240106
  91.4302926  95.2542989  71.9929262  92.9910499  94.7676683  71.3606007
  92.5736856  90.0016675  71.3238865  91.4648157  90.0264744  70.7848297
  93.6381429  89.2925627  70.8902080  94.5145219  89.3372781  71.3902677
  93.6301180  88.6894432  69.5572409  92.8841778  87.8991600  69.4728322
  93.5047105  89.6201381  68.3296510  92.5470638  90.1403417  68.3496610
  94.6350246  90.6368870  68.3864021  95.5930628  90.1174199  68.3659624
  94.5664414  91.3054672  67.5282662  94.5565402  91.2172637  69.3056979
  93.3796804  89.0309630  66.9430058  92.4873396  88.4070935  66.8918516
  93.3024221  89.8353478  66.2115033  94.2590055  88.4250475  66.7244774
  94.8374765  87.6399950  69.5132734  95.9592871  88.0375554  69.9507900
  94.6967525  86.5469232  68.7910097  93.7929248  86.3093137  68.4079476
  95.8796356  85.6532632  68.4545973  96.8149629  86.0427091  68.8565850
  95.5919672  84.3357098  69.1036003  94.5300462  84.1677503  68.9241216
  96.1669001  83.5163465  68.6720960  95.7926409  84.2653842  70.5887025
  97.0340699  84.6515358  71.0514236  97.7281761  85.0745621  70.3252245
  97.4235658  84.5169488  72.4127088  98.4316166  84.8015968  72.7142214
  96.5302820  84.0272331  73.3542110  96.7735507  83.9311212  74.4123617
  95.2302755  83.6371132  72.8765588  94.5026323  83.2455766  73.5874278
  94.8914855  83.7544734  71.5148812  93.9061318  83.4416017  71.1694982
  95.8847965  85.4953131  66.9018909  94.8064622  85.4454444  66.3086942
  97.0228213  85.1502437  66.3131672  97.7913605  84.9048827  66.9208224
  97.2656014  85.2138402  64.9035664  96.4151231  84.8020128  64.3602579
  97.4659278  86.6629790  64.4697602  96.5413086  87.2085806  64.6581682
  98.2691192  87.0925558  65.0684649  97.8850828  86.9791865  62.7940681
  97.9456466  88.3024514  62.9132328  98.4079191  84.3119867  64.5932561
  99.5242758  84.6261898  64.9732590  98.1833095  83.1375402  63.9941401
  97.2315529  82.8077370  63.9200553  99.2392902  82.3226058  63.4261439
 100.0274007  82.2300401  64.1734140  98.7947909  80.9076177  63.0004328
  97.8944087  80.8252097  62.3916470  99.6589889  80.5952458  62.4141857
  98.6553339  79.9436410  64.0831671  99.4750273  78.8030593  64.2813844
  98.8704477  78.1393907  65.2474488  99.3239982  77.1957441  65.5506352
  97.7776432  78.7688161  65.6894116  97.1906476  78.4694400  66.4548591
  97.5731324  79.8970680  64.9351112  96.6898199  80.5129360  65.1041284
  99.8183101  82.9827557  62.1303094  99.0531847  83.2921237  61.1983204
 101.1557177  83.1320176  62.2095918 101.7089383  82.7230377  62.9490388
 101.8317929  83.9075367  61.1987296 101.8149115  83.3247475  60.2777676
 101.2604715  84.8250779  61.0579840 103.2562207  84.2632654  61.5269074
 103.5480900  84.3758209  62.7156654 104.1141985  84.3601118  60.5182396
 103.8039069  84.0467306  59.6096084 105.5430503  84.6397273  60.7075714
 105.7278162  84.9508245  61.7357637 106.3756413  83.3767354  60.4183645
 106.0839118  82.5651442  61.0849325 106.2449190  83.0609230  59.3833407
 107.7503369  83.7101676  60.6455890 108.2987640  82.9412742  60.4734541
 106.0210989  85.9446718  60.0244152 105.5901773  86.2482267  58.8993561
 106.9488428  86.7148282  60.6888664 107.1154908  86.4770978  61.6562402
 107.6543500  87.8605913  60.1271837 107.0545344  88.3595179  59.3660053
 107.9174358  88.8558958  61.2792452 108.5375380  88.2616390  61.9503871
 108.4611823  89.7524092  60.9814140 106.6487400  89.2507493  61.9867024
 106.2138406  88.3466160  62.4127378 106.8700623  90.2691463  63.0840962
 107.3045436  91.1737927  62.6587260 105.9166555  90.5107984  63.5539051
 107.5486193  89.8573723  63.8311592 105.4158830  89.7285617  61.1910793
 105.0936414  88.9399532  60.5111114 104.6065056  89.9652784  61.8817128
 105.6754283  90.6184386  60.6176211 108.9684152  87.5493254  59.4160217
 109.3395465  88.3434007  58.5781679 109.5145056  86.3819711  59.7159869
 109.0421267  85.8680666  60.4459593 110.7906003  85.8158156  59.1567016
 111.5226019  86.6185127  59.0675373 111.4053928  84.6659458  60.0692314
 110.6338397  83.9201809  60.2606461 112.6163108  83.9898545  59.3697779
 113.3885241  84.7349575  59.1784425 113.0183851  83.2077745  60.0138179
 112.2929871  83.5517137  58.4255343 111.9048379  85.1529601  61.4276889
 111.0774799  85.5959362  61.9820831 112.3088709  84.3111181  61.9899690
 112.6851590  85.8999414  61.2820221 110.4533336  85.3666160  57.7522960
 109.4061916  84.6821102  57.5524576 111.3211159  85.6343161  56.7382493
 112.0871241  86.2583513  56.9477984 111.2491635  85.0354671  55.3719800
 110.3674519  85.3431510  54.8098284 112.5354552  85.6251509  54.6589886
 112.3599740  86.6963268  54.5595504 113.3646392  85.4555615  55.3458608
 112.8680385  85.0550903  53.3345177 113.7018842  85.6682876  52.9927702
 113.2268177  84.0528415  53.5687756 111.6151731  84.9499958  52.0064584
 111.7344317  86.7405468  51.6489986 112.7546327  86.9854247  51.3534927
 111.0509005  86.9962623  50.8393718 111.4689047  87.3081067  52.5408912
 111.3349754  83.5087754  55.3289609 112.0672703  82.8447384  56.0853795
 110.5969067  82.8729547  54.3981674 110.0449534  83.4199567  53.7530040
 110.3910589  81.4097412  54.4306142 110.5097282  81.0394118  55.4488838
 108.9918089  81.0679727  53.9499857 108.8076756  80.0539893  54.3049953
 108.3329445  81.7608653  54.4733379 108.7048584  81.1425135  52.3849927
 107.6652319  81.4440036  52.2570033 109.3545574  81.8559400  51.8780255
 108.8989260  79.7523439  51.7389948 109.6081127  78.8953653  52.1642419
 108.2632754  79.5858973  50.6283082 108.3333047  78.7063212  50.1368377
 107.6987656  80.3359917  50.2557651 111.4758158  80.6410941  53.7753288
 111.8589692  81.0247357  52.6827366 112.0137987  79.6727811  54.5035344
 111.6085300  79.4097856  55.3904899 113.3228861  79.1186835  54.1460784
 113.5284193  79.3182967  53.0944084 114.4225849  79.7412969  54.9807665
 114.1756180  80.7906544  55.1418734 114.4257568  79.2183486  55.9371216
 115.8282542  79.6563757  54.3707270 116.1059614  79.5275447  53.1800434
 116.7447741  79.7463239  55.1846469 117.7029798  79.7004164  54.8686818
 116.5351817  79.8657026  56.1654224 113.3328946  77.5811061  54.1281460
 112.8284415  76.8727716  54.9730591 113.9671484  76.9688410  53.0827175
 114.1654694  77.5639254  52.2911099 114.2506596  75.5372633  52.9632700
 113.3958217  75.0127992  53.3902228 114.5054866  74.9842597  51.5049222
 113.8371950  75.3489063  50.7248462 115.5275318  75.2877428  51.2781591
 114.4273422  73.4157683  51.5702688 113.8931263  73.1327880  52.4772618
 113.6988945  72.8404707  50.3470143 114.2328172  73.1226631  49.4396043
 113.6621209  71.7537614  50.4232478 112.6839300  73.2360399  50.3086435
 115.8330924  72.7915024  51.4272113 116.4724832  73.1456479  52.2358272
 115.7554633  71.7053305  51.4752290 116.2646499  73.0824158  50.4694919
 115.4222961  75.0415198  53.8727023 115.2963165  73.9810553  54.5465852
 116.4740598  75.8199376  54.0127731 116.5264141  76.6929017  53.5075087
 117.5719539  75.4633151  54.8769021 117.9636714  74.5013181  54.5464201
 118.3449584  76.2247741  54.7732511 117.1736866  75.3589125  56.3396120
 116.2612316  76.0289074  56.8067970 117.8531390  74.5078456  57.0769134
 118.5046002  73.9494450  56.5441035 117.7479866  74.2647483  58.5342955
 116.7202567  74.0314402  58.8125719 118.6253517  73.0866062  58.8939074
 119.5624241  73.2862562  58.3741627 118.7776041  73.1884203  59.9684087
 118.1480486  71.6263958  58.5693290 118.8495148  70.8941803  58.9692121
 117.1833434  71.5123030  59.0637235 117.9776423  71.3996828  57.0479093
 118.9549469  71.6680811  56.3330170 116.9221525  70.9144054  56.5898436
 118.1652296  75.5103102  59.3998247 119.3470857  75.9011068  59.3816816
 117.2680779  76.1327974  60.0921849 116.3239660  75.8792771  59.8382568
 117.4597880  77.1908089  61.0928946 117.9952260  77.9937989  60.5863253
 116.1455582  77.7417564  61.6223902 115.4257387  77.6503638  60.8089976
 115.5801870  77.0379038  62.9002028 116.2993054  77.1292884  63.7142159
 114.6416301  77.5100586  63.1905127 115.4051843  75.9833052  62.6873731
 116.3770981  79.0701488  62.0110814 115.5640616  79.4501700  62.3518979
 118.3585309  76.6686503  62.2360838 118.6795080  75.4804758  62.3426390
 118.8571373  77.5489168  63.1078771 118.6709598  78.5226023  62.9145536
 119.6546351  77.2246053  64.2511048 119.7980875  76.1455319  64.3069726
 121.0180657  77.8918856  64.1564542 120.8936713  78.9718705  64.0773474
 121.6037667  77.6582931  65.0455486 121.6761785  77.4199945  63.0335604
 122.5379828  77.8379196  62.9685084 119.0600338  77.6048983  65.5991098
 119.4297531  77.0004720  66.6470151 117.9825251  78.3586043  65.5992973
 117.7732846  78.9069820  64.7773486 117.2145086  78.6221712  66.8291873
 117.9725203  78.8055846  67.5906839 116.2929118  79.8197443  66.7663312
 116.9056377  80.6909934  66.5348313 115.1442142  79.6794513  65.6835863
 114.5307457  78.8086231  65.9147019 114.5223823  80.5746047  65.6947526
 115.5883250  79.5584940  64.6955400 115.5712229  80.0420050  67.9112414
 115.0136608  80.8145171  67.7931322 116.4990736  77.3586961  67.4122787
 115.8947434  76.6704869  66.5931205 116.3477984  77.1363931  68.7704879
 116.9566030  77.8565709  69.9060366 116.6448896  78.9007637  69.8816173
 118.0425071  77.8002346  69.8302901 116.4238629  77.1195027  71.1144883
 115.4857735  77.5577955  71.4550567 117.1480564  77.1343151  71.9289978
 116.2162295  75.6810947  70.5867035 115.6209156  74.9691322  71.1583763
 117.2068173  75.2635445  70.4064614 115.5344847  75.9806706  69.2688494
 115.7774667  75.1811999  68.5689175 114.0041060  76.0856755  69.4164603
 113.2962540  75.4762189  70.2133004 113.4332107  76.8941403  68.4864768
 114.0092811  77.1611495  67.7010162 112.0213607  77.4220361  68.5501517
 111.3301235  76.9769521  69.2658266 112.0519833  78.9361950  68.7761652
 111.0456281  79.2972336  68.5640319 112.4755097  79.3944225  70.1865520
 113.4820155  79.0341277  70.3992334 112.4622056  80.4832790  70.2346520
 111.7820651  78.9901756  70.9239933 112.7884631  79.6168343  67.7228519
 112.7896872  80.5617293  67.8924755 111.3072773  77.0771288  67.1777666
 111.9525505  77.0014683  66.1343554 109.9634450  76.8626726  67.2037716
 109.5353183  77.0926873  68.0891529 109.1041702  76.3088190  66.1305685
 109.4485175  76.6252301  65.1459832 109.1912814  74.7699853  66.2125289
 110.2659257  74.5916149  66.2502483 108.7535299  74.5559214  67.1875419
 108.5543772  73.8496896  65.1497896 108.4674042  74.3416142  64.1810034
 109.2313131  72.9995356  65.0655398 107.1756530  73.3369196  65.5624836
 106.5847628  73.7160889  66.5729417 106.5600967  72.4985134  64.7284983
 105.6471416  72.1363708  64.9640127 107.0095337  72.2293335  63.8649880
 107.7037036  76.8158694  66.3173364 107.1259773  76.9130454  67.3871958
 107.0774502  77.1096081  65.1327364 107.4764959  76.8497382  64.2420459
 105.8104357  77.8100570  65.1390255 105.3336458  77.6747092  64.1682260
 105.1791876  77.3796200  65.9164245 105.9792504  79.3103196  65.4071796
 107.0251385  79.8060292  65.9147426 104.9502911  80.0810808  65.0708481
 104.2289277  79.5509921  64.6031514 104.7645171  81.5675066  65.2132112
 105.2550114  81.9092826  66.1246406 105.3645159  82.3118059  64.0298390
 106.3854049  81.9561410  63.8906003 104.7731311  82.0721880  63.1461267
 105.3761192  83.7296860  64.2257250 105.7618430  84.1557911  63.4567963
 103.2443839  81.7854694  65.3853079 102.4501636  81.5751190  64.4527620
 102.8830015  82.1799791  66.6432470 103.4457920  81.7925346  67.3870567
 101.5626145  82.8904872  67.0175283 101.1010596  83.2070641  66.0821965
 100.5072919  82.1254945  67.8566388 100.8506124  82.0825938  68.8902682
  99.1498739  82.8142346  67.8010481  98.8056630  82.8571005  66.7677126
  98.4322984  82.2529560  68.3995064  99.2388900  83.8262239  68.1960866
 100.3506822  80.6955772  67.3821971 101.3046554  80.1759501  67.4717783
  99.6030719  80.1894046  67.9929080 100.0314621  80.6909161  66.3399987
 101.8401749  84.3267465  67.5420570 102.3074787  84.4729351  68.6446204
 101.6932103  85.3558866  66.6636789 101.7199726  85.1369855  65.6780495
 101.6785985  86.8026309  67.0723481 102.4828237  86.9951244  67.7824658
 101.8701890  87.6648805  65.9027363 100.9471311  87.6516825  65.3231768
 102.0577630  88.6762647  66.2633166 103.0812152  87.1972102  64.9817705
 103.2329992  86.1345782  65.1711794 102.8610025  87.4213273  63.4863044
 102.7095953  88.4838596  63.2960419 103.7344090  87.0746808  62.9339475
 101.9817017  86.8655310  63.1606958 104.2989983  88.0054914  65.4166967
 104.5114024  87.8066983  66.4671562 105.1599268  87.7201516  64.8121435
 104.0973471  89.0681869  65.2821084 100.4436268  87.0039648  67.8759448
  99.3981344  86.6208434  67.4156018 100.4674975  87.6942769  69.0138008
 101.4124022  87.8801593  69.3182712  99.3752846  88.0696026  69.8922828
  98.4199989  87.8061834  69.4382576  99.4995669  87.3583359  71.1680385
  98.6261778  87.3864058  71.8195774  99.6266765  86.3496768  70.7749100
 100.7237436  87.6414476  72.0594963 100.7140710  88.6452010  73.0281116
  99.9212698  89.3930492  73.0451116 101.7363393  88.6862682  73.9850557
 101.7442643  89.5232576  74.6832580 102.7266851  87.6989276  74.0640929
 103.4497589  87.6544769  74.8785181 102.7655362  86.7268652  73.0230808
 103.5891366  86.0132818  72.9989682 101.7621895  86.6782260  72.0352395
 101.7917069  85.9065692  71.2659707  99.2391980  89.5822898  70.0577001
 100.2542927  90.2599349  70.2504041  98.0091843  90.1313385  69.8608811
  97.1982650  89.5391707  69.7520396  97.8237585  91.5704449  69.8014752
  98.7864695  92.0750935  69.7201331  97.2002156  91.8388635  68.9486886
  97.1661069  92.0014203  71.0217737  96.3767067  91.2625616  71.5694271
  97.5789479  93.1992034  71.4231997  98.2371017  93.7561070  70.8970901
  97.1808749  93.6659947  72.7484083  96.2703829  93.1760881  73.0935097
  98.2522012  93.4844123  73.7946859  97.7673959  93.5990945  74.7641765
  98.9854099  92.1250221  73.7433792  99.4708828  92.0098169  72.7742851
  99.7365641  92.0867636  74.5323042  98.2666730  91.3182986  73.8873067
  99.2181872  94.4829815  73.7820558  99.8669281  94.3093059  74.4680386
  96.6613439  95.1303007  72.7878591  96.8879669  95.9267433  71.8424797
  95.9484740  95.4842693  73.9028823  95.6360561  94.8089252  74.5858205
  95.4668616  96.8751550  74.0225803  94.9923381  97.3130120  73.1443959
  94.4490934  96.8614913  75.1757807  94.9269864  96.3390846  76.0045200
  93.9682758  98.2592142  75.6535453  93.4898292  98.7820759  74.8254116
  93.2539955  98.1394395  76.4681361  94.8231429  98.8382843  76.0028042
  93.2399864  95.9936292  74.8537874  93.5652420  94.9690942  74.6731250
  92.5455521  96.0110522  75.6937619  92.7424498  96.3786359  73.9636594
  96.4905854  97.9873697  74.1473076  96.3116722  99.0899963  73.6411647
  97.6642508  97.7828003  74.8347659  97.8677783  96.8904234  75.2617779
  98.5912832  98.9091350  75.0867386  98.0677003  99.8647965  75.1126443
  99.2361056  98.6508395  76.4980895  99.4960296  97.5923397  76.4872709
 100.1345084  99.2432922  76.6712145  98.2847846  98.8945967  77.6123896
  97.5788446  99.9065747  77.5400145  98.2075398  98.1793889  78.7079557
  97.5279797  98.4177317  79.4161157  98.8279331  97.3932257  78.8389530
  99.5598818  99.0522000  73.9377394 100.6384618  99.6546277  74.0815971
  99.4093148  98.4457834  72.7247132  98.5802966  97.8743870  72.6451244
 100.2989797  98.5392472  71.5707956  99.6713445  98.4104485  70.6889883
 100.7080506  99.5495270  71.5805450 101.4186810  97.5649412  71.5136041
 102.0202227  97.5463655  70.4527895 101.6460221  96.8019830  72.5604540
 101.2181867  97.0071836  73.4520531 102.6035465  95.7639434  72.4997008
 103.4902751  96.0923987  71.9575490 103.0230476  95.3743478  73.9537669
 103.5505421  96.2032986  74.4256665 102.1410480  95.1231516  74.5428995
 103.9440447  94.1643437  73.8783510 104.4976183  94.2405614  72.9424835
 104.6370104  94.2360806  74.7166555 103.0998659  92.5686133  73.9406456
 102.8539594  92.2268503  75.6595336 102.2461669  93.0150284  76.1039013
 102.3447181  91.2695839  75.7709560 103.8193211  92.1851397  76.1639524
 102.0394940  94.6171284  71.6464194 100.8639654  94.2978098  71.6887878
 102.9586956  93.9814006  70.9034877 103.9173440  94.2916785  70.9729157
 102.6745709  92.7994466  70.1147020 101.7183155  92.3352807  70.3560001
 102.7426828  93.0661658  68.6392364 103.7503583  93.4451662  68.4687983
 102.4555469  91.8700994  67.6476780 101.4478133  91.4908481  67.8172131
 102.5429492  92.2209521  66.6193960 103.1774997  91.0721568  67.8213760
 101.8522118  94.2679669  68.2334674 100.9137739  94.1114972  68.7654001
 102.3598571  95.1414910  68.6425533 101.5600711  94.4983267  66.7259853
 101.0519827  93.6253495  66.3162819 100.9247921  95.3762294  66.6084843
 102.4980668  94.6553411  66.1934345 103.8291175  91.8884829  70.4185362
 104.9907026  92.2518664  70.1720235 103.5198432  90.7299611  70.9525125
 102.5486090  90.6132997  71.2038959 104.4684758  89.5877872  71.2154536
 105.4665880  89.9943035  71.0523102 104.3444832  89.3427303  72.2702864
 104.3069556  88.2982299  70.3767812 103.6350445  88.3206328  69.3836107
 105.0490238  87.2662311  70.7060141 105.5830049  87.4061241  71.5518235
 105.1944955  86.0131626  70.0041976 104.3827647  85.8475564  69.2958426
 106.5291095  86.1102297  69.2158090 106.5461928  87.0023690  68.5897939
 107.2383535  86.2282279  70.0350461 106.9168389  84.8944810  68.3789094
 106.8042502  83.9789233  68.9595803 105.9820063  84.8518407  67.1788799
 106.0943715  85.7669289  66.5974279 106.2295960  83.9929321  66.5551203
 104.9515067  84.7650766  67.5233258 108.2207974  85.0651358  67.8043504
 108.9551395  85.1919991  68.5998043 108.4754269  84.1860660  67.2123189
 108.2236201  85.9471430  67.1639176 105.2193810  84.7988292  70.8829758
 105.9181429  84.8294744  71.9313091 104.4733207  83.7726864  70.5504011
 103.7805634  83.9516313  69.8375439 104.5137044  82.4349256  71.1644256
 105.1466492  82.4908865  72.0500601 103.0879459  82.0144447  71.6006890
 102.4066197  81.9303561  70.7540351 103.2958385  80.5743557  72.2617844
 103.9767346  80.6577229  73.1088567 102.3354935  80.1893746  72.6047532
 103.7172814  79.8923814  71.5232734 102.4392244  82.9283042  72.6637102
 102.3611038  83.9427376  72.2726551 101.4441218  82.5551914  72.9059033
 103.0540256  82.9327729  73.5637660 105.1385873  81.4070261  70.1772833
 104.6520014  81.4433991  69.0628676 106.1386946  80.6388999  70.5279890
 106.6464570  80.9728770  71.3346711 106.6287070  79.4262582  69.8460814
 105.9142134  79.2113573  69.0514647 108.0462341  79.6089561  69.2081414
 108.2073007  78.7706579  68.5303407 108.2130416  80.9215858  68.4430894
 108.0525684  81.7604043  69.1203867 109.2201930  80.9764388  68.0298870
 107.4854883  80.9653431  67.6326253 108.9493784  79.6386571  70.2963611
 109.8441226  79.7497431  69.9666747 106.6484591  78.2056256  70.7916800
 106.5958469  78.3217321  71.9895971 106.7410025  76.9958752  70.1917661
 106.2825838  76.8684402  69.3008610 107.3371660  75.8205712  70.8432403
 106.9012376  75.6088224  71.8195743 106.9922980  74.6322543  69.8699017
 105.9240230  74.7026589  69.6651312 107.5505359  74.8149782  68.9517064
 107.2897068  73.3599823  70.3476497 107.0459052  72.7057028  69.6888030
 108.8192317  75.9377692  71.2266902 109.5012188  76.7161585  70.5988761
 109.3406762  75.1054791  72.1337177 108.7076735  74.5386631  72.6797273
 110.7786897  75.1112951  72.5045404 111.4019333  75.5222009  71.7102967
 110.9028233  76.0543148  73.7916856 110.6284055  77.0705526  73.5087459
 110.2034450  75.6851611  74.5418160 112.3356277  76.0511763  74.3768717
 112.5488659  75.0344286  74.7068026 113.4189269  76.5043815  73.3738378
 113.2066069  77.5212815  73.0437874 114.3960252  76.4760182  73.8560983
 113.4198279  75.8361717  72.5126786 112.4584665  76.9895304  75.5588240
 111.7669709  76.6800435  76.3425019 113.4783161  76.9599753  75.9424052
 112.2186671  78.0050379  75.2436417 111.3044684  73.6903901  72.6157691
 110.6345078  72.8739394  73.2422810 112.5170002  73.3985772  72.0232434
 113.0147448  74.1123715  71.5105569 113.1271299  72.0740245  72.1376591
 112.5563870  71.3565003  71.5481587 114.5608731  72.0906893  71.6283079
 114.5676390  72.2722955  70.5535648 115.1216309  72.8775645  72.1327662
 115.1484178  70.8620220  71.8931129 116.0539331  70.8650013  71.5743135
 113.1547170  71.6468176  73.6671098 113.7485833  72.2531718  74.4952271
 112.6607057  70.4174246  73.8077218 112.0511167  70.0418199  73.0953864
 112.8366709  69.6467618  75.0575746 112.4150842  70.1964141  75.8991482
 112.1373935  68.3349588  74.9470982 111.0837478  68.5138728  74.7328088
 112.5821173  67.7658467  74.1307452 112.2678792  67.5256567  76.2773476
 113.3195152  67.2436937  76.3289181 112.0449438  68.2414421  77.0685810
 111.3861623  66.2649827  76.4585417 111.3100749  65.6299306  77.5180838
 110.7214071  65.8610122  75.4956297 114.3754798  69.5556013  75.4424280
 114.7475132  69.6976510  76.6023970 115.2199984  69.3839290  74.4063648
 114.8055947  69.1555789  73.5140503 116.7262094  69.3347536  74.5308807
 116.9850914  68.7149689  75.3893364 117.4128163  68.7489668  73.2726212
 117.6193731  69.5790496  72.5970503 118.3526868  68.2993806  73.5929583
 116.6360899  67.7856250  72.6067229 117.1148506  67.4630369  71.8396995
 117.2591539  70.7383069  74.9557537 118.4324117  70.8043438  75.2550301
 116.5206176  71.8273117  75.0471143 115.5334115  71.7526345  74.8472472
 117.0787537  73.2131225  75.5459101 118.1005520  73.1115219  75.9115668
 117.0765897  74.2186409  74.3239322 116.2829807  74.2139411  73.5767629
 117.0904105  75.1826388  74.8324764 118.3805874  74.1091743  73.5699017
 118.5481812  73.9547225  72.2109664 117.6350151  73.8230698  71.6305400
 119.9102680  74.0027655  71.8597378 120.2773445  73.8064847  70.9395051
 120.6718658  74.3065349  72.9873290 122.0929861  74.4798567  73.2048370
 122.6984359  74.5404131  72.3004797 122.6043545  74.5581682  74.4797372
 123.6736088  74.5929370  74.6885107 121.6830777  74.5950264  75.5726803
 122.0560785  74.6870370  76.5927313 120.3153262  74.5174813  75.3862301
 119.7527667  74.3905023  76.3111646 119.7122893  74.3826454  74.0644484
 116.1593291  73.8358290  76.5920850 116.6688631  74.5833110  77.4219397
 114.8922030  73.4185171  76.7098272 114.6003178  72.7222085  76.0389645
 113.9168762  73.8889333  77.6869470 113.7635193  74.9617321  77.5699701
 112.5590529  73.1694719  77.4840699 112.3848264  73.3825600  76.4293957
 112.6646019  72.0936886  77.6242475 111.3568680  73.6848071  78.3214481
 110.5513724  74.7282645  77.7895464 110.6896048  75.0371611  76.7534121
 109.5920696  75.3544602  78.5804889 108.9520357  76.1591639  78.2186735
 109.3811962  74.8014655  79.8947885 108.4598205  75.3839667  80.7311879
 108.0230697  76.1429186  80.3376902 110.1432885  73.7508051  80.4452447
 109.9763195  73.3374311  81.4399024 111.1744102  73.2312088  79.6269778
 111.8429547  72.4626535  80.0148839 114.3517301  73.6654586  79.1378292
 114.4500553  74.6059097  79.9092687 114.7030790  72.4335651  79.5225555
 114.4242495  71.6774578  78.9137409 115.1443068  72.0969232  80.9242588
 114.4807608  72.5997058  81.6278322 115.1141435  70.5584249  81.2195537
 115.8333360  70.0130901  80.6084307 115.4215799  70.5180305  82.2645184
 113.7424782  69.8810664  81.0850414 112.8310852  70.2106617  81.8269955
 113.6024106  69.0485756  80.0578087 112.7237439  68.5716091  79.9144642
 114.3753229  68.8969925  79.4255667 116.3959007  72.8985787  81.3605742
 116.4173734  73.4851978  82.4084802 117.3703071  73.0772018  80.4967993
 117.3952236  72.4682135  79.6914350 118.5214677  73.9788607  80.7310715
 118.9244848  73.8400740  81.7342737 119.6180418  73.6408516  79.7106337
 119.8040066  72.5668649  79.7189332 119.2231520  73.9331800  78.7376454
 120.9286136  74.3874890  79.9744596 120.9967752  74.5229906  81.0538549
 122.1815037  73.6932268  79.4718770 122.1142765  73.5577825  78.3924169
 123.0542936  74.3021880  79.7074715 122.2768585  72.7204842  79.9543495
 121.0833908  75.7010065  79.3487937 120.2931148  76.3656591  79.6977926
 122.0537435  76.1193394  79.6162159 121.0187834  75.5979566  78.2656014
 118.0166839  75.4754733  80.7787564 118.6124571  76.1751775  81.6083378
 117.1404228  75.8687074  79.8570306 116.8605636  75.2808299  79.0849048
 116.7296432  77.3294445  79.8348503 117.5730217  77.9750184  80.0798938
 116.2482291  77.6687944  78.4221139 115.5719491  76.8831535  78.0851969
 115.7183121  78.6211651  78.4387901 117.4639343  77.7658586  77.4418015
 118.1447057  76.9333274  77.6194053 116.9462576  77.7081419  75.9766802
 116.2657396  78.5406857  75.7981729 117.7899035  77.7754404  75.2897790
 116.4197298  76.7677830  75.8136031 118.2372916  79.0750504  77.6523347
 118.6098097  79.1170289  78.6758422 119.0769720  79.1172209  76.9586058
 117.5750143  79.9218455  77.4722633 115.7574067  77.7319272  81.0030185
 115.8604353  78.8082741  81.4774408 114.9288084  76.7791434  81.4937462
 114.7689651  75.9526707  80.9356311 114.2042160  76.9003799  82.8300009
 113.4413767  77.6771322  82.7767911 113.5073648  75.5350464  83.1761103
 112.7896303  75.2326019  82.4135594 114.3733442  74.8739832  83.1418297
 112.8415601  75.4446668  84.5794814 113.5366258  75.8335019  85.3236532
 111.5578089  76.2471551  84.6202938 110.8620212  75.8585842  83.8766601
 111.1109039  76.1685058  85.6113493 111.7752514  77.2927610  84.4022860
 112.3171281  73.9913832  84.8281516 113.1506528  73.2906304  84.7803869
 111.8523130  73.9357547  85.8125060 111.5826156  73.7340659  84.0650145
 115.1634279  77.2810376  83.9669122 114.7353711  78.0970536  84.7764542
 116.2996254  76.6151998  84.1098812 116.4020756  75.8299740  83.4829650
 117.3771328  76.8603765  85.1249109 116.9575499  76.8818835  86.1306876
 118.4152896  75.7117988  85.0456993 117.8767352  74.8006853  85.3063345
 118.7782634  75.6380421  84.0205603 119.5853908  75.8891792  85.9816403
 120.6945105  75.5514612  85.5246566 119.4726777  76.3123472  87.1511639
 118.0000297  78.2382835  84.8794080 118.2990517  79.0219160  85.7985930
 118.3454059  78.6147939  83.5557660 118.3131998  77.9032698  82.8396685
 118.8615398  79.9886056  83.1804098 119.7621174  80.2369582  83.7419969
 119.2042361  79.9675961  81.6939156 119.9104021  79.1453729  81.5782531
 118.2698058  79.7166458  81.1919555 119.7879233  81.2263730  81.0765396
 119.8068622  81.0472759  80.0015204 119.0771430  82.0221534  81.2993110
 121.4284678  81.7284544  81.6218267 122.3701538  81.1182802  80.2721401
 122.0371712  81.5959476  79.3506980 123.4249714  81.3395917  80.4348722
 122.2339470  80.0398350  80.1914882 117.8490203  81.1361581  83.5593523
 118.3390320  82.1695726  84.0131386 116.5115426  80.9837382  83.4465584
 116.1194221  80.2702031  82.8488892 115.5709213  81.9401571  84.1268771
 115.6119304  82.9254022  83.6624318 114.1195415  81.3786042  83.9797682
 114.0716137  80.9439211  82.9813430 114.0328701  80.5874090  84.7244818
 112.9687180  82.3764959  84.1582821 112.8634705  82.6866156  85.1979213
 113.2446313  83.2372177  83.5490761 111.6304241  81.8463633  83.6718822
 111.0075150  82.4505355  82.8333542 111.1305094  80.6532092  84.0886969
 110.2367333  80.3349215  83.7423465 111.6550387  80.0902075  84.7429136
 116.0012507  82.1697762  85.6216971 116.0863855  83.3078323  86.1053811
 116.2194502  81.1138364  86.4330725 115.8951401  80.1925475  86.1758782
 116.7068622  81.3253394  87.8119685 116.1149948  82.0831384  88.3253230
 116.5669276  79.9934723  88.5719437 117.3338025  79.4948094  87.9792064
 116.8807325  80.0290606  89.6151886 115.2938563  79.1964585  88.4796547
 114.1616433  79.6845393  88.7041739 115.3574493  77.8972730  88.4370856
 114.5076931  77.3548949  88.3751164 116.2562598  77.4374993  88.4662171
 118.0295549  81.9974088  87.9513488 118.1553239  83.0390972  88.6197600
 118.9721477  81.5271575  87.1101755 118.7510792  80.7961807  86.4491906
 120.3493480  81.9735639  87.2069984 120.7360636  81.8639131  88.2201751
 121.1734828  81.0811704  86.2680514 120.5882883  81.0478524  85.3490647
 122.0883254  81.6480138  86.0952749 121.5382315  79.6237065  86.7070403
 122.1060080  79.6384072  87.6373707 120.6338035  79.0307930  86.8432956
 122.3824393  79.0107326  85.6109285 121.8791580  79.1352952  84.6521318
 123.3523105  79.5071359  85.5787869 122.5949654  77.5790915  85.8475429
 121.8789749  77.0376632  85.3846040 123.5871281  76.9205162  86.4937168
 124.5735216  77.5264728  86.9861806 124.6378584  78.5310261  86.9035155
 125.2963029  77.0054581  87.4618176 123.3842851  75.6595370  86.6243126
 122.5389251  75.2464470  86.2571298 124.0710330  75.0866216  87.0936142
 120.4340666  83.4861268  86.9042160 121.2810090  84.1614357  87.2955133
 119.4746338  84.0370606  86.1609901 118.9070796  83.3320653  85.7127011
 119.2539817  85.4091282  85.8128232 120.2034173  85.9444946  85.8054694
 118.6240944  85.5166000  84.4307835 117.8001413  84.8030778  84.4400935
 118.2351091  86.5176017  84.2442733 119.6310490  85.1324671  83.3041716
 120.0699127  84.1627154  83.5388655 118.9197943  85.0570005  81.9415710
 118.4810445  86.0265806  81.7059616 119.6404077  84.7875756  81.1694134
 118.1334372  84.3033167  81.9828472 120.8445723  86.0561904  83.1869213
 121.4020581  86.0451863  84.1235044 121.4879250  85.7107770  82.3776697
 120.5097306  87.0717974  82.9759179 118.4931820  86.1036603  86.9249770
 118.9621554  87.0605424  87.4746757 117.3968938  85.6144960  87.4154250
 117.0326506  84.8328610  86.8896179 116.5806105  86.1524136  88.5342477
 116.2377643  87.1627029  88.3109289 115.3550435  85.2495289  88.7236833
 114.8157195  85.3000417  87.7778094 115.6596783  84.2202510  88.9131157
 114.4235630  85.6925249  89.8374582 114.7515306  86.2659555  90.8708070
 113.1911824  85.3755300  89.7046226 112.5246205  85.6435632  90.4145192
 112.8907579  84.8587680  88.8904955 117.3555486  86.3718677  89.7966683
 117.3047319  87.4609763  90.3763226 118.2590073  85.4265027  90.0418731
 118.2511895  84.6555266  89.3894668 119.1926866  85.3839316  91.1385407
 118.6663100  85.4391425  92.0914197 119.9864858  84.0303779  91.0815142
 120.1095364  83.7162028  90.0450530 120.9667163  84.1558575  91.5414089
 119.2229748  83.0008843  91.8213709 119.1120185  83.3324174  92.8537833
 118.2387160  82.9082170  91.3622963 119.9053858  81.6856191  91.7958826
 119.1807576  80.8714519  91.7838568 120.5585115  81.6028859  90.9271585
 120.7164283  81.6058287  93.0320883 121.5898690  82.2525734  92.9488830
 120.1195042  81.9110769  93.8915093 121.1553362  80.2066941  93.2098415
 121.7088366  79.9237862  92.4137887 121.7111329  80.1323642  94.0498803
 120.3461359  79.6072944  93.2873909 120.1800925  86.5423927  91.1404295
 120.7099919  86.8400295  92.2149526 120.4820447  87.1737713  89.9635476
 119.9736394  86.7904986  89.1795034 121.5861714  88.1465844  89.6865205
 122.0273725  88.5764601  90.5857689 122.6882170  87.4777637  88.8756627
 122.2133741  86.8709538  88.1046858 123.6385004  88.4865878  88.2186784
 124.1141018  89.0934954  88.9891117 124.4028518  87.9522944  87.6544108
 123.0748510  89.1319437  87.5449450 123.4796927  86.4781312  89.7188180
 122.8085068  85.7039561  90.0906575 124.2571048  86.0209532  89.1066756
 123.9386472  86.9956599  90.5612108 121.1262901  89.5126500  89.1474260
 121.6353766  90.5061438  89.6901589 120.2430013  89.5542632  88.1363557
 119.7745751  88.7057395  87.8523069 120.0011568  90.7931185  87.3454209
 120.8602147  91.4157488  87.0955204 119.1962457  90.4413295  86.0164865
 118.3697242  89.7808477  86.2786441 118.6364566  91.7271341  85.3263535
 119.4624853  92.3879423  85.0634663 118.0933659  91.4483112  84.4233524
 117.9625779  92.2431219  86.0102712 119.9752841  89.5161483  85.1340486
 120.2158182  88.6375341  85.7326146 119.3138695  89.2284374  84.3168261
 121.2798698  90.1187919  84.5544678 121.9420284  90.4063344  85.3711471
 121.7765039  89.3773311  83.9286166 121.0400796  90.9972397  83.9553601
 119.2844543  91.8294687  88.2220565 118.4019641  91.4439220  88.9362718
 119.6591763  93.0949995  88.2057669 120.5114134  93.2678265  87.6920335
 119.0125101  94.2109345  88.8537276 118.8822496  94.0033139  89.9158128
 119.9067102  95.5219653  88.6967071 120.2551359  95.6227697  87.6688272
 119.3343832  96.4071268  88.9742517 121.1026781  95.3802160  89.6254272
 120.7490139  95.0119549  90.5884465 121.7919907  94.6561595  89.1910397
 121.8167442  96.7018952  89.8218673 121.0981664  97.5069604  89.9755388
 122.4916269  96.6499700  90.6762306 122.6316812  96.9773892  88.5381548
 123.2625329  96.1097349  88.3450158 121.9307158  97.1070738  87.7135770
 123.4840758  98.1933600  88.6608930 124.1339682  98.0732204  89.4246378
 123.9963372  98.3335064  87.8017962 122.8996706  98.9975314  88.8394370
 117.6035327  94.4745086  88.2677913 117.3518652  94.3109719  87.0451698
 116.6408382  94.9679711  89.0704139 116.6862841  94.8123665  90.0673197
 115.4345996  95.5827662  88.5192600 115.6291080  95.9474455  87.5106596
 114.2875036  94.5407814  88.4568951 114.6591591  93.6289679  87.9893830
 113.9523562  94.3184526  89.4699825 113.2257165  95.0386739  87.7181657
 112.5231815  94.3851598  87.6871223 115.0372188  96.8625889  89.2257664
 115.0617955  96.8689773  90.4339213 114.6517977  97.8429578  88.3907686
 114.7590432  97.7185178  87.3942183 114.0912553  99.1089067  88.8775074
 114.8096951  99.6301771  89.5101373 113.7652100 100.0153453  87.6355245
 113.2370851  99.3822863  86.9224890 112.9196909 101.2698143  87.9331113
 113.4474121 101.9036329  88.6457719 112.7527446 101.8236400  87.0092571
 111.9603110 100.9702978  88.3549901 115.0348151 100.5502486  86.9673287
 115.6467605  99.7147262  86.6274358 114.7627861 101.1714727  86.1139938
 115.5999822 101.1458693  87.6842130 112.8209576  98.9003971  89.6990318
 112.0405496  98.0527785  89.2873982 112.7037411  99.6153622  90.8913179
 113.4580123 100.2688351  91.0467124 111.6624355  99.5242097  91.8850020
 111.7714263 100.3442412  92.5947685 110.6916293  99.5954942  91.3945397
 111.7424627  98.1826729  92.6499044 111.0096081  98.0079056  93.6198485
 112.7078254  97.2906796  92.3484646 113.0836989  97.4316145  91.4216659
 113.1024981  96.0777494  93.0850722 113.8469138  95.5250589  92.5119425
 113.6932842  96.4370022  94.4191821 112.9989440  97.1144825  94.9161844
 113.7818256  95.5184483  94.9992847 115.0381072  97.0910328  94.3111077
 115.8065131  96.4414701  93.8919162 115.0218928  98.0336907  93.7640837
 115.3487118  97.3625993  95.7871556 114.5062307  97.9225019  96.1931526
 115.4137060  96.3942727  96.2833600 116.6412170  98.1440912  96.0241905
 117.3993556  97.7222728  95.3643454 116.4493409  99.1791327  95.7413973
 117.1405785  98.0946204  97.4735199 117.3188452  97.1356502  97.7356205
 117.9933187  98.6298021  97.5542335 116.4383922  98.4858326  98.0850643
 112.0106623  95.0269942  93.1274421 112.0524077  94.2107694  94.0693499
 111.1156510  95.0304567  92.2254777 111.0097791  95.8917671  91.7087235
 110.1024425  93.9298847  92.0004117 109.6026551  93.6502779  92.9278446
 109.0451715  94.4161747  90.9683002 109.4320152  94.4536241  89.9499438
 107.9455500  93.3084693  91.0674685 107.5578739  93.2707338  92.0854980
 107.1332950  93.5393712  90.3782466 108.3780168  92.3421964  90.8078757
 108.4991084  95.8390005  91.2555422 108.1095980  95.8512804  92.2734968
 109.3292652  96.5408905  91.1762342 107.4245491  96.2348183  90.3098765
 106.5937944  95.5336094  90.3889492 107.0766093  97.2385453  90.5539447
 107.8134613  96.2232172  89.2916857 110.7695333  92.5721979  91.6588542
 111.9150580  92.4758963  91.1843554 110.1924835  91.4816535  92.1907445
 109.5792391  91.7167013  92.9580666 110.4051049  90.0509162  91.8750753
 111.4639791  89.8053093  91.7940697 109.7872041  89.2354279  93.0855151
 110.2697256  89.6141164  93.9865519 108.7261078  89.4835130  93.1105830
 109.9538462  87.7166341  93.0183070 109.7020652  87.4598902  94.0472821
 109.3529849  87.1145495  92.3367214 111.3988996  87.4446656  92.7783178
 111.6746762  86.5634699  91.9161227 112.3390371  87.8534747  93.5275544
 109.8179425  89.5881099  90.4534067 108.5887736  89.5979904  90.2386435
 110.6742360  89.2577001  89.5182186 111.6679902  89.3265159  89.6850011
 110.2194136  88.7071925  88.2321657 109.6620041  89.4488574  87.6600407
 111.4819838  88.3026583  87.4231912 111.9226409  89.2398857  87.0833012
 112.2252083  87.7339061  87.9819741 111.1666359  87.5025393  86.1885389
 111.1168815  86.1294878  86.1538542 110.7084609  85.8124299  84.9627388
 110.5766621  84.7583832  84.7183752 110.5193022  86.9146193  84.2273344
 110.2290719  86.9194578  83.2599447 110.7763196  88.0334690  84.9768257
 110.6444590  89.0236975  84.5407505 109.3420816  87.3434133  88.4656196
 108.3455150  87.1010291  87.7463242 109.7146461  86.5263535  89.4861405
 110.5947566  86.6428240  89.9677415 108.9515397  85.2991683  89.7217316
 108.7402370  84.8795272  88.7381912 109.5957856  84.2245845  90.5795393
 108.9084108  83.3824908  90.4989590 110.5197153  83.9906436  90.0506484
 109.8807577  84.4686169  91.9348153 110.2832562  83.6881568  92.3227286
 107.5346507  85.6201601  90.1543176 106.6059760  85.1178137  89.4473229
 107.3487302  86.5499157  91.1227849 108.1589588  86.9229567  91.5965670
 106.0511639  87.0170261  91.5227906 105.4705840  86.1958602  91.9431629
 106.1930966  88.0895871  92.5677102 106.8688113  87.7937282  93.3701916
 106.5763165  88.9877128  92.0833418 104.8998449  88.4715574  93.2160656
 104.3353584  89.7428612  92.9785269 104.9302499  90.4728358  92.4295815
 103.0530056  90.0789791  93.4243859 102.6132933  91.0328807  93.1331378
 102.3249755  89.1853628  94.2518067 101.3635329  89.4573546  94.6874080
 102.8692322  87.9369222  94.5004823 102.2912091  87.2022558  95.0610666
 104.1333099  87.6189856  94.0448017 104.5895035  86.6686229  94.3219263
 105.2640177  87.5785124  90.3467761 104.0555388  87.4567205  90.3343129
 105.8681551  88.2228232  89.3833724 106.8555221  88.3583028  89.5472352
 105.2649195  88.8745867  88.2332597 104.3557494  89.4115787  88.5037194
 106.3062857  89.8958018  87.7112585 106.0337059  90.7930265  88.2669448
 107.3426250  89.6361003  87.9272582 106.2472781  90.2675540  86.2177457
 107.2807426  89.9667326  85.3536418 108.0940042  89.3520360  85.7394569
 107.0500659  90.5192921  84.1777522 107.6604180  90.4185772  83.3793623
 105.8492390  91.2634132  84.2038387 105.1456884  92.0937933  83.2842125
 105.6276512  92.2545622  82.3198661 103.9292663  92.6393945  83.6392316
 103.3655890  93.2381260  82.9237677 103.3878072  92.4299078  84.9480213
 102.4476124  92.8599168  85.2933119 104.1018757  91.6320394  85.8300661
 103.6297400  91.5212086  86.8062346 105.3470115  91.0398164  85.5033125
 104.7007793  87.9137240  87.1460516 103.5809016  88.1370510  86.7088652
 105.4571874  86.8352838  86.8004018 106.4173882  86.8607790  87.1125935
 105.0462833  85.7516204  85.9257794 104.3589452  86.1265292  85.1674201
 106.2888011  85.1338263  85.2110976 106.8919528  84.7056524  86.0117064
 105.8886438  84.3324357  84.5900120 107.1639164  86.0613018  84.3500395
 107.9117258  86.5684937  84.9596610 107.6606407  85.5028477  83.5566316
 106.1840404  87.1393370  83.7065947 105.2259659  86.6751841  83.4725980
 106.0280117  87.9610512  84.4055512 106.7523116  87.6702297  82.4863448
 107.7499341  87.5279665  82.4184495 106.1563839  88.4518336  81.5804003
 104.9037134  88.8030609  81.6307297 104.3218690  88.4796725  82.3903197
 104.5196678  89.3972661  80.9099463 106.8160983  88.7380670  80.4452327
 107.7417148  88.3631107  80.2944289 106.3833298  89.3268580  79.7479986
 104.2068007  84.7074046  86.6131711 103.7270763  83.8348032  85.9028886
 103.9986675  84.6122122  87.9185496 104.5478930  85.2203392  88.5090005
 103.1818010  83.5701576  88.5589005 103.3808699  82.6117277  88.0794394
 103.5011636  83.4443185  90.0657562 104.5465793  83.7146734  90.2144618
 102.8648097  84.1446212  90.6068015 103.2787931  82.1298094  90.5530777
 103.4885205  82.0958736  91.4892735 101.7116772  83.7224998  88.2626426
 101.1544071  84.8011996  88.3050301 101.0352943  82.6272705  88.0095419
 101.5010207  81.7434987  88.1583560  99.6621368  82.6144951  87.4105717
  99.5771287  83.3271001  86.5901652  99.4280307  81.2090447  86.8622201
 100.3054394  80.9279588  86.2797735  99.3652127  80.5799745  87.7501528
  98.2601799  80.8905727  86.0400734  97.1650395  80.1588801  86.4443373
  97.1424929  79.7378824  87.4495002  96.0557030  79.9484463  85.5505050
  95.1809192  79.3956413  85.8929384  96.0981629  80.4449071  84.2625648
  95.2227141  80.3256143  83.6242401  97.2271422  81.0854339  83.7775686
  97.3872611  81.3443004  82.7309310  98.2020819  81.4019877  84.7355963
  99.0017710  82.1004617  84.4891588  98.6692572  83.0858972  88.4870341
  98.6414493  82.4871663  89.5474986  97.8873847  84.1101450  88.1710882
  98.1227742  84.5982051  87.3187452  96.8887847  84.6789020  89.0254462
  96.3374625  83.8929856  89.5416618  97.5924329  85.6028754  90.1110048
  98.3106597  85.0982841  90.7572532  98.0665416  86.4681692  89.6477688
  96.5446825  86.1164703  90.9756772  96.6416580  87.3712847  91.6301515
  95.5484996  87.5163604  92.4182230  95.4156435  88.3751603  93.0761827
  94.7835527  86.4689000  92.2017769  93.8684949  86.3485704  92.6120082
  95.3638437  85.6143036  91.3916729  94.8760817  84.6681349  91.1572496
  95.7608492  85.3242356  88.2611139  95.8221004  86.5069434  87.9287699
  94.8662106  84.4506430  87.7610342  95.1019394  83.4728914  87.8534088
  93.6732890  84.8026678  87.0160338  93.8195620  85.6138194  86.3027761
  93.1288506  83.5680690  86.2564770  92.4467104  83.9563889  85.5001750
  94.1876340  82.6591475  85.5794323  94.8699015  82.2700546  86.3352217
  93.6884069  81.8291094  85.0795241  94.7497457  83.2385993  84.8470618
  92.2920967  82.6872938  86.9968850  92.0131190  81.9618189  86.4334509
  92.6090897  85.4443441  87.9100593  92.8054467  85.6820620  89.1467836
  91.4568502  85.6840241  87.2673801  91.4508811  85.7724607  86.2612774
  90.2630097  86.0332372  87.9897244  90.4589451  86.8623289  88.6696622
  89.1608057  86.4675521  86.9805391  88.9865382  85.6383150  86.2949038
  88.2498215  86.6703059  87.5436542  89.5656447  87.7447631  86.1638681
  90.6380084  87.5576047  86.1081137  89.1525008  87.7907471  85.1562488
  89.3174437  89.0718370  86.8762627  89.9207826  89.2408206  87.9000614
  88.3639007  89.8831537  86.5333256  89.7438290  85.0142260  89.0516724
  88.9467623  85.4410197  89.8868789  90.1125958  83.7042247  88.9897895
  90.7527257  83.4514415  88.2505779  89.6444677  82.6465861  89.8990858
  89.2492486  83.0264243  90.8412238  88.5018234  82.0089719  89.1123629
  87.9162654  82.8593750  88.7630269  88.9976705  81.5369349  88.2641785
  87.5693901  80.9891911  89.7944534  86.7603966  80.7670891  89.0985360
  88.1494706  80.0846161  89.9770805  86.9782420  81.4967610  91.1234145
  86.2110470  80.7949446  91.4504688  87.7764260  81.5332130  91.8648139
  86.3946461  82.7946575  91.0156629  86.2850974  83.0666643  90.0491688
  86.0606684  83.6009801  91.8999857  85.9824301  83.3373209  93.2017213
  86.2059886  82.4126111  93.5408871  85.6998364  84.0630893  93.8447615
  85.7305949  84.7359748  91.5459509  85.7393536  84.9783800  90.5655107
  85.4532931  85.4169925  92.2383506  90.7261434  81.6145446  90.2559011
  90.4688834  80.7611015  91.1107194  91.9468295  81.7267647  89.7125367
  92.2385703  82.5279554  89.1711680  92.9291608  80.6301125  89.9360548
  92.7197471  80.0642414  90.8438185  92.7667583  79.6720338  88.6972285
  91.6976616  79.6434825  88.4867140  93.2853827  80.1652011  87.8750882
  93.2827459  78.2760231  88.8458792  94.3409267  78.3400305  89.0993694
  92.7403485  77.8089729  89.6679323  93.1086742  77.4180751  87.5544919
  92.0305367  77.2602986  87.5257651  93.3936312  78.1200591  86.7708355
  93.8014384  76.1288329  87.3370723  94.8723308  76.2591931  87.4929451
  93.4203250  75.3869166  88.0387930  93.5568517  75.6674966  85.9492232
  93.9103134  76.3546333  85.2988328  94.0290286  74.7874150  85.7988720
  92.5646271  75.5462295  85.8047112  94.4038800  81.1108808  90.0044292
  94.8440373  81.8842912  89.1156503  95.0654817  80.4982383  90.9801947
  94.6626412  79.7199290  91.4822440  96.4136484  80.9118223  91.3197309
  96.6540399  81.6801940  90.5849412  96.4114169  81.5553359  92.7242601
  95.8376248  80.8900244  93.3694139  97.7766466  81.7886916  93.3286597
  98.3508970  82.4543316  92.6842533  97.6658541  82.2432352  94.3131465
  98.2993309  80.8370661  93.4251511  95.9449458  82.8919709  92.7479394
  95.9717025  83.2243166  93.6481787  97.3916294  79.7370221  91.3843813
  97.1061973  78.7203714  92.0787888  98.4201126  79.7704049  90.5308980
  98.6591486  80.6425675  90.0811275  99.1705885  78.5807172  90.1690371
  99.1962585  77.9296132  91.0428242  98.5930022  77.7838939  88.9756534
  98.7893322  78.4467169  88.1329082  99.2592927  76.9228613  88.9229309
  97.1204143  77.3015348  88.9212406  96.5136526  78.1833979  89.1268092
  96.9483569  76.9736845  87.8960530  96.7459686  76.2178305  89.8541631
  95.5476810  76.0332869  89.9990923  97.6136241  75.5168696  90.4771983
 100.6322500  78.8839289  89.8465802 100.9611845  79.9247772  89.2820842
 101.5584571  77.9969722  90.1766200 101.3024120  76.8950534  91.0621028
 100.2884342  76.5352074  90.8875744 101.3910721  77.2454710  92.0904247
 102.3557796  75.8618904  90.7103714 102.0063569  75.2312815  89.8928537
 102.5781508  75.2408619  91.5781133 103.5725400  76.6788492  90.3009809
 104.1788392  76.1869183  89.5403862 104.2012407  76.9428089  91.1513693
 102.9107328  77.9708689  89.7026230 103.4140658  78.8529199  90.0985274
 103.0236434  77.9638790  88.1269605 102.4443717  77.0610915  87.5093717
 103.7079725  78.9845644  87.5928649 104.0280514  79.7301791  88.1942862
 103.9756089  79.0906447  86.1386852 103.0079855  79.1176183  85.6376099
 104.7154795  80.3987901  85.8448142 105.6901832  80.3829909  86.3324648
 104.8499575  80.5068830  84.7685560 104.1336829  81.2389498  86.2239495
 104.7944335  77.9239883  85.5498420 105.7189453  77.4500608  86.1879176
 104.5075663  77.3886328  84.3384313 103.7568334  77.8686545  83.8629541
 105.0786971  76.1465902  83.7015281 106.1612301  76.1239306  83.8268600
 104.4988073  74.8907716  84.2974604 104.6415544  74.9191072  85.3777014
 102.9805904  74.7675205  83.9782167 102.8370792  74.7386565  82.8980913
 102.5888802  73.8517027  84.4208679 102.4509761  75.6257592  84.3917811
 105.1386031  73.6929366  83.8342460 104.7272696  72.9301994  84.2473284
 104.8956900  76.1988069  82.1240682 104.2125826  77.0858641  81.6840853
 105.4565429  75.2522617  81.3607464 105.9711890  74.5159584  81.8223699
 105.3667602  75.2252731  79.9144533 106.0099651  74.3999116  79.6092240
 104.3276889  74.9728797  79.7029637 105.7471842  76.4724018  79.1187814
 105.5641470  76.3913164  77.9154907 106.3626530  77.5061143  79.6497133
 106.6835978  77.3242316  80.5899327 106.7186674  78.8258416  79.0162376
 106.8756781  78.6389970  77.9539119 105.6604864  79.9626210  79.1716517
 105.3376222  79.7443822  80.1896055 105.9844191  81.0014638  79.1086178
 104.4246390  79.8360304  78.2849838 104.3218917  80.3265620  76.9850150
 105.2546197  80.7260864  76.5868962 103.1637016  80.3393950  76.1999315
 103.1651906  80.6849917  75.1661707 101.9738427  79.8874956  76.7858355
 101.0415157  79.8643123  76.2216291 101.9960550  79.4589952  78.1260814
 101.0671806  79.1381787  78.5976419 103.1952449  79.4415839  78.8546048
 103.1963010  79.1159920  79.8948397 107.8799558  79.3914198  79.6916313
 107.9846167  79.2562218  80.8891189 108.6707184  80.0656325  78.8298490
 108.5270927  80.0246826  77.8309525 109.8809917  80.7033993  79.3275005
 109.7293405  80.8410091  80.3980913 111.1811764  79.8609227  79.0883125
 111.3563061  79.7061755  78.0236608 112.3505635  80.6807317  79.6900168
 112.1763606  80.8354974  80.7548180 113.2852811  80.1376567  79.5504700
 112.4137161  81.6464809  79.1885796 111.1668275  78.4663551  79.7974756
 111.1930374  78.6580826  80.8701612 110.2215822  77.9901495  79.5370163
 112.3173050  77.5483920  79.4190485 113.2629348  78.0237558  79.6796504
 112.2238553  76.6062509  79.9591749 112.2914808  77.3558245  78.3465044
 109.9784011  82.1119147  78.8257028 109.7633107  82.3738083  77.6333665
 110.3658457  83.0713220  79.6621012 110.8150689  82.8197160  80.5310041
 110.1969465  84.5207953  79.3463685 109.2658894  84.7156137  78.8141301
 110.1522674  85.2364018  80.6737690 109.5407366  84.7854647  81.4552965
 111.2055320  85.1445190  80.9388943 109.7878303  86.7224895  80.5321579
 109.4956736  87.2074787  79.4088085 109.5777657  87.3636943  81.5376858
 111.4226808  85.0313631  78.5220153 112.5146948  85.2387421  79.0648895
 111.1734171  85.2781300  77.1966551 110.2646818  85.0651634  76.8107216
 112.1774267  85.8399217  76.3183735 113.0383386  85.1741096  76.3785738
 111.7568991  85.7992813  75.3135828 112.6399301  87.2912501  76.6138301
 113.7588227  87.6523352  76.3235789 111.7322038  88.0526979  77.2653355
 110.7598743  87.7990572  77.3670259 112.1588725  89.3339107  77.7634016
 112.6980395  89.8931927  76.9988090 110.9002397  90.1275161  78.1575639
 110.3443123  89.5101551  78.8631908 111.2447860  91.0316078  78.6595658
 110.0038549  90.5037089  77.0044020 110.3620715  90.3784244  75.8269723
 108.8446271  90.9603326  77.2699291 113.1662508  89.2334429  78.9475815
 113.9397768  90.2064770  79.0242381 113.2267953  88.2751569  79.8550331
 112.4705149  87.6058597  79.8415969 114.2636332  88.1650197  80.9534656
 114.5343025  89.1727423  81.2686362 113.7708686  87.3665897  82.2028280
 112.8652393  87.9025194  82.4869306 113.5142318  86.3465126  81.9170302
 114.7403183  87.3357352  83.3910608 115.6823484  86.9402896  83.0111884
 114.9874037  88.6701479  84.0614132 114.0458367  89.0660310  84.4419746
 115.6859957  88.5384292  84.8876821 115.4085632  89.3682919  83.3380046
 114.2509252  86.3154675  84.4123625 114.2085993  85.3293110  83.9499739
 114.9371036  86.2901167  85.2588952 113.2566194  86.5963643  84.7595686
 115.5520498  87.5791487  80.4767906 116.5983501  88.1250065  80.7779946
 115.4720171  86.5134551  79.7029710 114.5652735  86.1607537  79.4318305
 116.6815024  85.7253822  79.3205948 117.4640824  85.5810162  80.0654614
 116.3009809  84.3321215  78.6802380 115.3207281  84.4731408  78.2249158
 117.2560282  83.7741005  77.6543315 118.2364481  83.6323639  78.1090712
 116.8821858  82.8164033  77.2921730 117.3404620  84.4697869  76.8194719
 115.8929081  83.4051991  79.8375679 116.7660658  83.2435585  80.4696824
 115.1139512  83.9028641  80.4151968 115.3828387  82.0863152  79.3447184
 116.1614555  81.5878172  78.7673490 115.1059230  81.4626557  80.1946983
 114.5093417  82.2471233  78.7128611 117.6606910  86.4806790  78.4065536
 118.8328863  86.1510023  78.4229649 117.1330576  87.4894305  77.7093094
 116.1411104  87.6692915  77.6477449 118.0379915  88.3402264  76.9474132
 118.6620750  87.8022006  76.2338677 117.0237507  89.2302148  76.1534910
 117.6506720  89.7755658  75.4480399 116.4110055  88.5093126  75.6122486
 116.1368223  90.1927009  76.8797364 115.3454866  90.3924877  76.1572588
 115.6976683  89.8195101  77.8049238 116.9204526  91.5116022  77.1708872
 117.4479890  91.6250731  78.3085161 116.8198092  92.4109221  76.2750146
 119.0150741  89.1347781  77.8144664 120.0222475  89.4861502  77.2808810
 118.8145077  89.2730403  79.1147782 117.9042860  89.0735935  79.5044150
 119.8367952  89.8258258  79.9945835 120.1504900  90.7989240  79.6167282
 119.3210189  89.9981078  81.3941644 120.0578827  90.5184004  82.0060685
 118.3905080  90.5657161  81.3857803 119.0893203  88.7424273  81.9211997
 118.7580636  88.8280150  82.8181632 121.2210427  89.0654287  80.0624808
 122.3169927  89.6362144  80.3078771 121.2184643  87.7234718  79.6721720
 120.3155143  87.2753520  79.6091701 122.4054577  86.8870641  79.6469931
 122.9182596  86.9368753  80.6075409 122.0152466  85.4346809  79.3765506
 121.3291977  85.0005035  80.1038238 121.5528152  85.4229751  78.3895753
 123.2312904  84.4959721  79.3038369 123.7975552  84.0468617  80.4955055
 123.4068432  84.3562096  81.4649115 124.8958754  83.1764779  80.4271329
 125.3856454  82.8332983  81.3384253 125.3704448  82.7411293  79.1558562
 126.1884030  82.0253143  79.0742887 124.7734591  83.2438561  78.0116588
 125.2348872  82.9841994  77.0588930 123.6450875  84.0404356  78.0383198
 123.1274936  84.2834829  77.1103520 123.4813980  87.4939538  78.8513259
 124.6489299  87.2991517  79.1890114 123.1306266  88.1353590  77.7568960
 122.1339918  88.2942528  77.7172593 123.9359234  88.5044160  76.5990566
 124.5679649  87.6653403  76.3082393 123.0450274  88.8741275  75.4203240
 122.5334561  89.8059086  75.6615248 123.6801648  89.0243962  74.5473292
 121.9755818  87.7517945  75.1068902 121.4480746  87.4444479  76.0098714
 120.9671536  88.3932283  74.1104269 121.4938822  88.7004287  73.2069427
 120.1979212  87.6654172  73.8522152 120.5022589  89.2637975  74.5731176
 122.5788086  86.4982378  74.4847613 123.3120633  86.0696906  75.1679774
 121.7899967  85.7701116  74.2957921 123.0664444  86.7570161  73.5448975
 124.9749590  89.5988489  76.9141687 125.7004969  90.0149873  75.9619573
 124.8891701  90.2092148  78.1203941 124.0289934  90.0452779  78.6237032
 125.8550551  91.1769057  78.6806274 126.8215150  91.0382952  78.1960228
 125.3991469  92.6334905  78.4628808 125.1056909  92.7056705  77.4156116
 124.5265043  92.7937151  79.0960656 126.4505655  93.6933919  78.7697325
 127.6349997  93.3583890  78.7054541 126.0451804  94.8559351  79.0850581
 126.2604890  90.9783407  80.1853238 125.7195941  91.6518403  81.0242881
 127.1941221  90.0747558  80.5331782 127.5409764  89.5413389  79.7487945
 127.7539690  89.8317945  81.8096958 127.7448302  90.7432483  82.4074145
 127.0126832  88.7148977  82.5664263 127.1083373  87.8142311  81.9600021
 127.5344250  88.4259381  84.0168524 127.4386526  89.3260755  84.6240433
 126.9460268  87.6236567  84.4620859 128.5817415  88.1269600  83.9739628
 125.4359032  88.9638694  82.7066546 125.3172414  89.7933943  83.4037261
 125.0842108  89.2658250  81.7201280 124.5891573  87.7249052  83.2120951
 124.9399893  87.4226485  84.1988360 123.5368397  88.0029360  83.2706239
 124.7069608  86.8950780  82.5152385 129.1453893  89.3702802  81.5945444
 129.3747035  88.4837519  80.7831706 130.0913695  89.9498559  82.2890028
 129.7783781  90.7094703  82.8764734 131.5472760  89.6197069  82.2747263
 132.0252337  89.9888096  81.3673020 132.1856774  90.2969543  83.4670467
 131.9115911  89.7174608  84.3486153 133.2649395  90.2486718  83.3222637
 131.7923176  91.6512902  83.6493274 132.2355754  92.0122018  84.4206024
 131.8510738  88.1367975  82.3309105 131.3095292  87.3980074  83.1551675
 132.8307285  87.6339855  81.5258511 133.3022800  88.2397022  80.8694626
 133.0771367  86.2456471  81.4517326 132.1421325  85.7125776  81.2793862
 134.0583547  85.9276170  80.2748410 134.9277146  86.5768195  80.3789977
 134.3690510  84.8871612  80.3698132 133.4100850  86.1495532  78.8776364
 133.0359818  87.1724806  78.8355995 134.1818564  86.0140634  78.1199337
 132.2292372  85.1488062  78.6068099 132.6198193  84.1312590  78.5948868
 131.4908775  85.2447092  79.4028797 131.5759354  85.4140587  77.3284766
 130.9141816  86.1746688  77.2680327 131.7258890  84.6259909  76.2821573
 132.4159836  83.4845795  76.2430742 132.8858466  83.1534175  77.0735322
 132.4652970  82.9570316  75.3832132 131.2866391  84.9840482  75.1489655
 130.8213046  85.8749442  75.0496270 131.4039362  84.3768553  74.3504313
 133.5053448  85.5475606  82.7370991 132.8580615  84.5754512  83.1173669
 134.4014920  86.1864763  83.5460583 135.2859596  87.2921294  83.2323239
 134.7882454  88.2282692  83.4853517 135.5095206  87.2768663  82.1656062
 136.5718956  87.0249006  84.1241302 137.1298816  87.9204967  84.3973665
 137.2569955  86.2799744  83.7193777 135.7995583  86.4645276  85.3150888
 135.3273086  87.2692981  85.8784924 136.4804282  85.9166303  85.9664906
 134.7591422  85.5441824  84.7783609 135.0942767  84.5463168  84.4954344
 133.6985020  85.4339632  85.8435896 133.8091467  84.4887458  86.6421000
 132.6537368  86.3156071  85.8701164 132.8841067  87.1727676  85.3881362
 131.3115636  86.2235537  86.5727046 131.4710876  85.7529460  87.5428487
 130.6284644  87.5717633  86.7907837 130.5414375  88.0738043  85.8272068
 129.6332617  87.3920179  87.1974326 131.4457315  88.4822003  87.7854715
 131.3832690  88.1166915  88.8104606 132.4924069  88.5617497  87.4917972
 130.7945865  89.8384869  87.6955446 130.9256328  90.2297362  86.6866591
 129.7307152  89.7371795  87.9100533 131.4376610  90.8160758  88.7172423
 131.1256990  90.5256130  89.7204430 132.5219972  90.7386005  88.6377960
 131.0117288  92.2499856  88.4500054 130.0070264  92.3220823  88.5239975
 131.4439830  92.8614451  89.1277765 131.3010816  92.5194736  87.5206238
 130.3331019  85.2489574  85.8270928 129.8975325  84.3168998  86.4651727
 130.0254977  85.3910198  84.4699153 130.4073358  86.2213944  84.0400584
 129.1913602  84.5007162  83.6478427 128.1413710  84.5055897  83.9404142
 129.3125957  85.1076920  82.2186516 128.8649294  86.1011070  82.2473008
 130.3748816  85.1948841  81.9905148 128.6269298  84.2712326  81.1387438
 129.0138933  83.2628647  81.2855570 127.5695732  84.2960332  81.4023419
 128.8167008  84.7322648  79.4070624 127.5221741  86.0291527  79.3579479
 127.7663708  86.8142838  80.0735149 127.4712962  86.4546910  78.3557357
 126.5579905  85.5907501  79.6153473 129.5905632  83.0076415  83.6650975
 128.6638371  82.1964237  83.6503215 130.8953769  82.6312065  83.7580010
 131.6109534  83.3400404  83.6831405 131.3048860  81.2386771  83.7714585
 130.7286621  80.6938852  83.0236169 132.8189117  81.0656842  83.4557220
 132.9523239  80.0162224  83.1931760 133.0155705  81.6862311  82.5814526
 133.8315651  81.4536135  84.6194685 133.5796016  82.4273271  85.0395840
 133.7269084  80.6884926  85.3887143 135.2887999  81.4838327  84.1551331
 135.5699605  81.2665798  82.9805634 136.1482383  81.8027944  85.0772774
 137.1321349  81.8457201  84.8532098 135.8278787  82.0061277  86.0132938
 130.8498649  80.5628756  85.0649874 130.6884468  79.3510365  85.1394207
 130.8778025  81.3400637  86.1662099 131.3197242  82.2478952  86.1407823
 130.3971735  80.8314876  87.4668017 130.5776477  79.7588999  87.5381032
 131.1423572  81.5322022  88.6138362 132.2064016  81.3774325  88.4350761
 130.9115853  82.5944084  88.5328272 130.7900742  81.0465396  89.9938527
 130.8409115  79.9589976  90.0464726 131.6653380  81.4747258  90.4823903
 129.5283015  81.5303460  90.6979259 129.3196946  81.2263346  91.8790932
 128.8139024  82.4114764  90.1137810 128.8691713  80.9365922  87.5858409
 128.1968431  80.1380102  88.2126731 128.1825855  81.8017643  86.8518803
 128.7275778  82.5312564  86.4149318 126.7000718  81.8298268  86.6848124
 126.2622381  81.8675756  87.6822971 126.0979564  82.9987837  85.8283180
 126.7093752  83.0877285  84.9303452 124.5918620  82.7844056  85.4186258
 123.9797134  82.6958299  86.3161387 124.2504834  83.6353248  84.8291365
 124.5019075  81.8735298  84.8267515 126.1797148  84.2747162  86.5658794
 127.2226470  84.5000191  86.7886644 125.7577608  85.0744863  85.9572561
 125.6191998  84.1932133  87.4971586 126.2321356  80.4925354  86.0785743
 125.2920896  79.9654654  86.6540903 126.8535925  80.0242048  85.0168334
 127.4998083  80.6365931  84.5398794 126.5402741  78.7345490  84.4040223
 125.6710195  78.2089026  84.7992331 126.3328851  78.9600513  82.8636381
 125.9666235  78.0262873  82.4369808 125.3309988  80.0970504  82.5519400
 125.6968337  81.0312946  82.9779135 125.2287606  80.2060766  81.4722358
 124.3605492  79.8559563  82.9857635 127.6615244  79.1770494  82.0778656
 128.3002431  78.3014980  82.1942714 127.4391667  79.3260407  81.0212397
 128.1755566  80.0555640  82.4678450 127.5319183  77.5640005  84.7070867
 127.8416688  76.6992209  83.8140000 127.9193314  77.4946845  86.0020668
 127.6995341  78.2446981  86.6418074 128.8015039  76.4197619  86.4677523
 129.6344280  76.4278844  85.7647084 129.3484442  76.7430998  87.8922041
 128.5273376  76.7296646  88.6089352 130.0896825  75.9958740  88.1756113
 129.8110787  77.7300435  87.8889454 128.1632900  74.9874271  86.3895145
 126.9419982  74.8750193  86.5112220 129.0235314  73.9714484  86.3520712
 129.9940242  74.0632452  86.0878429 128.4855890  72.6574375  86.5082990
 129.2146313  71.9138790  86.1862473 128.1432827  72.4023583  87.9894182
 129.0303010  72.7615071  88.5112514 127.2679532  72.9454829  88.3456680
 127.9646148  70.9653386  88.2943794 128.4665018  70.1008854  87.5919586
 127.1302785  70.6061681  89.2667546 127.0018669  69.6277763  89.4820679
 126.6292393  71.3135900  89.7850352 127.2872734  72.2807460  85.5337568
 126.2447989  72.0096400  86.0553759 127.3931408  72.2775335  84.2072792
 128.3182201  72.3664698  83.8117821 126.2471534  72.2671480  83.2966410
 125.4591441  71.6301646  83.6983783 125.6718803  73.7360921  83.1211585
 125.7150182  74.2709927  84.0699049 126.3147818  74.2332572  82.3947946
 124.2134172  73.7280944  82.5991437 124.1979459  73.0950179  81.7119709
 123.1816169  73.2201041  83.6049052 123.1961774  73.8530036  84.4922185
 122.1894310  73.2494451  83.1545641 123.4220717  72.1949283  83.8865016
 123.8215750  75.1728063  82.2872505 124.4925411  75.5761462  81.5288174
 122.7968863  75.1999599  81.9166063 123.8955728  75.7736528  83.1936758
 126.5860052  71.6214151  81.9503429 127.6670174  71.5742618  81.4915793
 125.6276608  70.9645084  81.2794012 124.7149391  71.1003714  81.6899859
 125.7310951  70.1386335  80.0814522 126.6285868  70.3478076  79.4993404
 125.8196499  68.7014621  80.6217877 124.9363158  68.6035483  81.2528448
 125.7021690  68.0797728  79.7342063 127.0801206  68.2394640  81.4167878
 127.3638669  69.0766599  82.0545118 126.9174921  67.3540599  82.0313719
 128.1532676  67.9736163  80.5059169 128.0312913  67.0032769  79.7284510
 129.3036520  68.6651663  80.5264891 130.0342568  68.4438389  79.8651781
 129.4333389  69.4036568  81.2031829 124.4775980  70.3053026  79.1824036
 123.4353178  70.6569794  79.6513303 124.6145167  69.9401707  77.9201065
 125.5649302  70.0370894  77.5923562 123.5584727  69.6611350  76.9295288
 122.7381925  69.1471970  77.4306346 123.0039961  70.9467273  76.2624117
 122.0772448  70.6622758  75.7640959 122.8000858  71.7384509  76.9833099
 124.0245021  71.4582732  75.2058487 125.0652540  72.3370945  75.5701914
 125.1377553  72.6311020  76.6172839 126.0152643  72.8449958  74.6110711
 126.8449713  73.4647663  74.9510310 125.8562702  72.5714426  73.2363509
 126.6156708  73.1756330  72.3338462 127.2472238  73.7852495  72.7225726
 124.8815143  71.6056027  72.8756542 124.8636011  71.2157008  71.8579332
 123.9119467  71.1358992  73.8508508 123.0732602  70.5173976  73.5312247
 124.0212436  68.5309279  75.9994550 125.2029780  68.1799649  76.0219406
 123.0935984  67.8715729  75.2643140 122.1978633  68.0730485  75.6852243
 123.1833941  66.7438768  74.3156859 123.5387781  65.8275811  74.7870708
 121.7352558  66.5206208  73.8337491 121.0691419  66.4681601  74.6949341
 121.5576270  67.4506753  73.2937986 121.4664727  65.3416606  72.9133213
 120.3717466  65.1545827  72.3418026 122.4573878  64.6038743  72.6556340
 124.4385283  66.7108544  73.3411046 124.7688283  67.6961739  72.6844095
 125.0704907  65.5329950  73.1854103 124.9003953  64.8625643  73.9214059
 126.1489718  65.2673503  72.2464591 126.1092593  66.0044784  71.4444840
 127.5017260  65.3394807  72.8987836 127.4546035  66.2543750  73.4894164
 127.6074730  64.4828990  73.5645053 128.7303129  65.4046545  71.9351464
 129.7191359  64.6743626  72.1585916 128.7097618  66.2343430  70.9951184
 125.9204332  64.0312890  71.3216897 126.8197629  63.6726772  70.5139517
 124.7855744  63.3076618  71.4382708 124.1864271  63.4842525  72.2319569
 124.3700330  62.2604085  70.4556956 123.3122810  62.4225336  70.2483906
 124.9480653  62.4310857  69.5474845 124.5707759  60.8241466  70.9066667
 125.6850040  60.5043535  71.3574317 123.5248649  60.0046095  70.8153089
 122.6347277  60.4255695  70.5904807 123.5478748  58.5487791  71.2127538
 122.5515893  58.1163474  71.1204652 124.5197649  57.7667712  70.2750015
 125.4554743  58.3218691  70.3414356 124.6366167  56.7989998  70.7627148
 124.1896083  57.5751404  68.9405446 124.8877175  57.0795973  68.5061711
 123.8005456  58.4075954  72.7111388 124.2397858  57.3587745  73.1795881
 123.4272225  59.4092608  73.4778261 123.1212420  60.2883353  73.0857760
 123.4482621  59.2653511  74.9708651 122.4854253  59.6245636  75.3341981
 123.5412319  58.2000476  75.1820153 124.5665106  60.0165448  75.6974003
 124.6752756  60.0844861  76.9475620 125.4620207  60.5478259  74.8294125
 125.4452949  60.1841854  73.8872951 126.4932635  61.4991923  75.1787623
 126.9700579  61.2181636  76.1177986 127.5685980  61.5127848  74.0616745
 127.0683622  61.4913078  73.0934792 128.1522374  62.4292830  74.1482549
 128.4962191  60.3057485  74.1818381 129.3998109  60.6717131  74.6693754
 127.9871128  59.6031857  74.8416247 128.9461898  59.4651028  72.6574149
 127.6509971  58.1812781  72.6784877 126.6692302  58.6546644  72.6667315
 127.7567189  57.5433376  71.8010166 127.7518570  57.5774492  73.5803298
 126.0018528  62.9320340  75.4829398 125.0017583  63.3754879  74.9683899
 126.7360476  63.6373340  76.3491840 127.3434241  63.1092479  76.9593628
 126.5809153  65.1217236  76.6005927 125.9686696  65.5737729  75.8202685
 125.8919865  65.3485563  77.9604816 126.5380268  64.9184484  78.7258171
 125.8194531  66.4257635  78.1103598 124.4414595  64.6996161  78.0647166
 123.8775624  64.9903162  77.1783677 124.5573550  63.6159277  78.0817362
 123.6763048  65.1593497  79.3399430 124.4160656  65.1773990  80.1402724
 123.3392852  66.1753589  79.1344129 122.4400405  64.2727058  79.7836929
 121.6783920  64.9062635  80.2382221 122.0199351  63.7673373  78.9140876
 122.9014730  63.2496044  80.7827127 123.2903943  63.7176895  81.5887749
 122.1172449  62.6812903  81.0692530 123.6069306  62.6621598  80.3615980
 127.8860559  65.9048901  76.4193185 128.9480086  65.3383471  76.3248654
 127.8214719  67.2263702  76.4814827 126.8769771  67.5413274  76.6512792
 128.8663657  68.2486922  76.1985114 129.8285446  67.8682502  76.5414034
 128.9772384  68.5890100  74.6984744 129.9237172  69.1100819  74.5543871
 128.9960297  67.6452251  74.1534817 127.8172812  69.4690303  74.1671095
 126.8750456  68.9930145  74.4385905 127.8817828  70.4456952  74.6467628
 127.8832153  69.6453378  72.6179283 127.9468171  68.6787175  72.1182294
 127.0119361  70.1872714  72.2501239 129.1213728  70.4413473  72.2896938
 129.9600935  70.2328541  72.8123577 129.1994679  71.3038232  71.2862709
 128.2715176  71.4522348  70.3404574 127.4379359  70.8823157  70.3612857
 128.4064120  72.1338967  69.6074907 130.2256564  72.1058896  71.3697674
 130.8628205  72.0262877  72.1493733 130.3778266  72.8024348  70.6543879
 128.6120957  69.5071510  77.1409497 127.4955105  69.8767228  77.4672597
 129.6633294  70.2060104  77.5349716 130.5632235  69.8981339  77.1951160
 129.6290838  71.2406010  78.5310502 128.8666642  70.9858394  79.2671970
 130.9574238  71.4232494  79.2501186 130.7394448  71.8392930  80.2337304
 131.4029239  70.4350761  79.3647625 131.9478349  72.3525127  78.5046706
 132.0739130  71.7878382  77.5809023 131.5348295  73.3349464  78.2758701
 133.3025317  72.5171715  79.1889438 134.0131254  73.4460026  78.8437158
 133.7818265  71.6320679  79.9802124 129.0790895  72.5386965  77.9706785
 129.2617989  72.8879239  76.8198894 128.1625198  73.1682696  78.7173777
 128.0415022  72.8176460  79.6568015 127.2433075  74.2128274  78.2388456
 127.1575992  74.1664511  77.1532109 125.8811290  74.1096336  78.8281170
 125.9496531  74.1637022  79.9146164 125.2633480  74.9297624  78.4622816
 125.4309711  73.1597241  78.5397958 127.9846687  75.4871812  78.5048004
 127.6927521  76.2791488  79.4299863 129.1306466  75.6460537  77.8599755
 129.4970528  74.9154492  77.2666266 129.9570272  76.7605024  78.1402844
 130.0286559  76.8981827  79.2191786 131.3596588  76.6380412  77.5727010
 131.8030873  75.7540332  78.0309599 131.4430835  76.5141092  76.0057631
 131.0002354  77.3980295  75.5467750 132.4867717  76.4320306  75.7023209
 130.9000934  75.6263247  75.6815702 132.2406038  77.7234111  77.8929367
 133.1005204  77.5651987  77.4965624 129.3210119  78.0963960  77.7763425
 128.4813253  78.0947375  76.8884119 129.8001928  79.2164916  78.3564740
 130.3886915  79.0321144  79.1563325 129.5224706  80.5797624  78.0178793
 128.5390824  80.8788704  78.3806206 130.5765692  81.4018509  78.7391510
 131.5663738  81.1201009  78.3799800 130.4079339  82.4610133  78.5446326
 130.5129027  81.2152117  79.8111638 129.5136758  80.8186233  76.5227599
 128.5145018  81.4429750  76.1417059 130.5699707  80.3813894  75.7696983
 131.3980844  80.0357366  76.2332188 130.6128821  80.5658280  74.3085447
 130.6458943  81.6307223  74.0783065 131.8324921  79.9037689  73.7084921
 131.8639846  78.8732841  74.0623403 131.6521925  79.9129121  72.6335463
 133.1875615  80.5956704  74.0110730 134.2429042  79.9124080  74.1600309
 133.2062243  81.8770474  74.0629068 129.2631116  80.1398236  73.6291950
 128.5794220  80.9800894  73.0478820 128.9266824  78.8614564  73.7392390
 129.5581915  78.3850912  74.3672293 127.8019074  78.0892712  73.1520513
 127.9446671  78.1107804  72.0716550 127.6516998  76.6656282  73.5861253
 127.7875954  76.6825764  74.6674876 126.6676473  76.2604264  73.3504301
 128.7553948  75.7660374  72.9359486 129.5349149  76.1367829  72.0428085
 128.7618657  74.6127373  73.3022028 126.4276381  78.6651763  73.5126317
 125.4800515  78.8306650  72.7302678 126.3363254  79.1163319  74.7713221
 127.1437496  78.9532115  75.3557511 125.1410596  79.8077188  75.3794517
 124.2284929  79.2622918  75.1389721 125.2901758  79.8583292  76.8706620
 126.2583626  80.2237717  77.2129563 124.5114600  80.5606090  77.1681597
 125.0164228  78.5202963  77.4849814 125.6613429  77.7361864  77.0883071
 125.3417509  78.7488984  78.9628392 124.6968671  79.5326075  79.3603612
 125.1762309  77.8260777  79.5188119 126.3841925  79.0510593  79.0634112
 123.5846762  78.0450987  77.5108848 123.2056157  77.9763696  76.4912335
 123.5354359  77.0639658  77.9831716 122.9771494  78.7511694  78.0769894
 124.9412363  81.2538010  74.8557571 123.8108330  81.5859563  74.3918949
 126.0396679  81.9935243  74.7739318 126.8745435  81.7165449  75.2702831
 126.0473879  83.3011687  74.0476395 125.3161117  84.0045498  74.4458724
 127.4509613  83.9860223  73.9905488 128.1898207  83.2138476  74.2048693
 127.7815592  84.6518252  72.6441813 127.0433462  85.4244856  72.4293834
 128.7732426  85.1014285  72.6943987 127.7627274  83.9021120  71.8531853
 127.6325260  84.9550269  75.1361580 127.6545017  84.3261809  76.0261976
 128.6191358  85.3891595  74.9742029 126.5963405  86.0880834  75.3309083
 125.6094936  85.6546870  75.4933912 126.8746145  86.6910038  76.1952866
 126.5741262  86.7176646  74.4413949 125.4575256  83.0896843  72.6097526
 124.7720366  83.9958471  72.0885090 125.7174720  81.9909679  71.9577555
 126.3217733  81.3427957  72.4423090 125.3771448  81.7125554  70.5908254
 125.4491932  82.6176649  69.9877623 126.3708625  80.6557177  70.0231070
 127.3914742  80.9814826  70.2239258 126.1924286  79.6986283  70.5132512
 126.1714553  80.4987699  68.5008133 125.2041944  80.0434762  68.2881756
 126.2325766  81.4683483  68.0065623 127.3654943  79.5270845  67.9447339
 128.3126633  80.0664536  67.9376031 127.4549033  78.6452597  68.5791554
 127.0074772  79.0883318  66.4941193 127.8888540  78.5403361  66.1609884
 126.1776634  78.3942720  66.6274954 126.6500571  80.0853109  65.4952250
 127.4190122  80.7282874  65.3711728 126.4500922  79.6263420  64.6180354
 125.8331209  80.5929203  65.8035218 123.9682899  81.3932369  70.4726327
 123.2427358  82.1647504  69.7832989 123.4812937  80.3782796  71.2341749
 124.1296836  79.8816817  71.8283805 122.1083401  79.8457186  71.0953002
 121.9448194  79.8973601  70.0188740 121.9309840  78.3391783  71.5636817
 122.7359459  77.7672258  71.1021561 121.9643131  78.1432511  73.0242068
 121.1592967  78.7145706  73.4864228 121.8356968  77.0851954  73.2524098
 122.9226288  78.4848966  73.4153731 120.5453057  77.8433269  71.2372584
 120.3826397  77.9002542  70.1609680 120.4422272  76.8090713  71.5655722
 119.8076991  78.4616194  71.7488751 121.1365969  80.8139598  71.7508467
 120.0913712  81.1198717  71.1827489 121.5319778  81.5825243  72.8522923
 122.3566733  81.2960437  73.3601363 120.6396230  82.5834576  73.4728715
 119.6564232  82.1240493  73.3710808 120.8747584  82.9105939  74.9437808
 121.8706217  83.3502296  74.9992421 119.8597243  83.8593103  75.5974083
 118.8636225  83.4201137  75.5427411 120.1296423  84.0176123  76.6415277
 119.8643159  84.8146521  75.0726202 120.7174061  81.6357056  75.7681302
 121.4451209  80.8953819  75.4357839 120.8839611  81.8606997  76.8215706
 119.7106045  81.2392929  75.6365690 120.4053740  83.8351858  72.6599686
 119.3930318  84.4910736  72.7606096 121.3384146  84.1727563  71.7614574
 122.2889015  83.8859871  71.9470306 121.0936968  85.0640695  70.6375553
 120.5933764  85.9748245  70.9666511 122.5049596  85.4603877  69.9903890
 123.1936240  85.6661112  70.8098513 122.8593845  84.5974916  69.4265687
 122.4321412  86.6990598  69.0510793 123.3066253  86.6652153  68.4012848
 121.5288192  86.6000357  68.4491634 122.4018800  88.0997999  69.8342878
 123.5529238  88.3952553  70.3208145 121.3949808  88.8493932  69.9801577
 120.1067393  84.6089585  69.6120706 119.0766455  85.2647121  69.4329173
 120.3228789  83.4403820  68.9962608 121.2571695  83.0783890  69.1233892
 119.4023550  82.7000107  68.1253859 119.3063699  83.2111128  67.1674398
 119.9286766  81.2895221  67.8750096 120.1172698  80.8036873  68.8323478
 119.1803880  80.7222878  67.3214669 121.2169525  81.3444253  67.0732049
 121.9349958  82.0507265  67.4899222 121.5780781  80.3273660  67.2257755
 121.0594086  81.5986161  65.6276807 120.0372524  82.1196457  65.1461809
 121.9449789  81.4529394  64.8559752 118.0196565  82.6641838  68.6917306
 117.0729021  83.0652881  67.9993315 117.8414320  82.2357964  69.9115311
 118.6438984  81.8299901  70.3713878 116.5706160  82.2420784  70.6198024
 115.8418731  81.5454700  70.2053512 116.9568956  81.7669519  72.0353873
 117.4059642  80.7887093  71.8636953 117.6967492  82.4329062  72.4794836
 115.7435887  81.6188193  73.0038563 115.1007527  82.4984160  72.9696176
 114.9790225  80.4226917  72.5233061 115.6211074  79.5425536  72.5576971
 114.1113907  80.2640829  73.1637426 114.6477259  80.5902821  71.4984859
 116.3633762  81.5378525  74.4248379 116.9284488  82.4475987  74.6277032
 115.5684002  81.4323160  75.1630631 117.0290816  80.6767118  74.4829059
 115.8819395  83.6421214  70.5837807 114.6948480  83.7510857  70.3350632
 116.5893771  84.7010158  71.0422309 117.5491823  84.5129031  71.2941970
 116.0534560  86.0420311  71.2978315 114.9764803  86.0517456  71.4655463
 116.7289337  86.7041889  72.4695933 116.3073401  87.7045317  72.5679468
 116.5522871  85.9552600  73.7655819 116.9740839  84.9549137  73.6681422
 117.0642705  86.4884438  74.5666357 115.4905747  85.8800321  74.0005462
 118.1455586  86.9857214  72.3149182 118.4774000  87.4049720  73.1122327
 116.0895122  86.9989284  70.0798781 115.4551521  88.0824490  70.0764956
 116.5923428  86.5664939  68.9329711 117.0369755  85.6658228  69.0387666
 116.7957563  87.3149665  67.6448772 116.4776654  88.3518107  67.7538329
 118.3010045  87.2949428  67.2724894 118.8623629  87.5570498  68.1693038
 118.5495180  86.2766120  66.9735857 118.6684287  88.2702960  66.1318971
 118.2161042  87.9277462  65.2012183 118.2957131  89.2661969  66.3714100
 120.1960020  88.3204640  65.9705940 120.4491565  89.1370357  65.2944117
 120.6443738  88.5054680  66.9467270 120.7492745  87.0690119  65.4268816
 120.0552856  86.4347067  65.0579158 121.9999862  86.7884535  65.2473119
 123.0108708  87.3942841  65.8060717 122.8469445  88.1590648  66.4450856
 123.9528657  87.0958075  65.5971292 122.3377850  85.7321409  64.5879032
 121.6233321  85.1249976  64.2123581 123.3150655  85.5174058  64.4503886
 115.7465292  86.8576631  66.5998556 116.0419636  86.0629836  65.6927326
 114.5389053  87.2953373  66.8716861 114.4927087  87.7206818  67.7865890
 113.3688910  87.2016901  66.1292774 113.2157952  86.1930122  65.7455721
 112.0617932  87.6917563  66.8484323 112.1604613  88.7646254  67.0137109
 110.8227507  87.4220320  66.0680635 110.7231479  86.3492508  65.9027751
 109.9573821  87.7856446  66.6221609 110.8793743  87.9334629  65.1071622
 111.9579956  87.1361964  68.3043128 112.8142036  87.5613399  68.8280128
 111.0389539  87.5656569  68.7030929 111.9402658  85.6196418  68.5038744
 112.8592620  85.1894947  68.1057294 111.8648709  85.3934703  69.5674820
 111.0840130  85.1938113  67.9808072 113.5639858  87.9991181  64.8178776
 113.2623378  87.4039668  63.7609176 113.9630839  89.2864472  64.8334413
 114.0492168  89.7116784  65.7455043 114.1587246  90.1550035  63.6198088
 113.4985541  89.8014239  62.8278142 113.8477842  91.6458189  63.8939449
 114.6369659  92.2059719  64.3954627 113.6292177  92.1091491  62.9318358
 112.6270227  91.7958336  64.7245495 111.3857492  91.1637896  64.4652071
 110.5211477  91.4929809  65.4506594 109.5126386  91.0832889  65.5068805
 111.1843377  92.3851670  66.2715395 110.7927614  92.8050923  67.1024610
 112.4511748  92.6171112  65.7935755 113.0908092  93.3536116  66.2799254
 115.5489385  89.9716794  63.0339355 116.5266840  90.2338232  63.8074187
 115.6695302  89.5948797  61.8866136  94.9207007  69.2715538  91.0261465
 121.4122147  95.3870915  70.0857435  87.7349630 135.7906818  74.6843907
  76.5299704  97.2516319 105.8073776  71.0533518 113.5486936  77.5824324
 105.0783226  68.6349856  69.5990964 110.8807166 121.9948579  61.9385643
  99.5155555  63.9377952  87.2919489  63.6044857  85.5901600  51.0228435
  92.2948810 147.2150507  96.3923199  77.1645124  48.3641387 100.4070952
  75.0244504 111.1466495  51.0456512  29.9429866  31.7029405  93.9162224
 123.3066735 119.8511985  80.9210581 108.6019978  92.6408855  41.3181060
 132.2441505  63.4192283  65.3848011  67.9391944  60.3872874  68.1071757
  94.5301196 110.3536084  49.0845699  59.2962424 105.4698788  74.6811676
 115.5820074 130.1198821  84.3125167  81.9382140 102.4605785 117.4196202
  96.1726268 140.2598169 108.6337738 110.4161171  72.5484042  57.8759399
 137.4775616  75.3487439  73.1316706  95.2053683  67.7852108  98.2530211
  95.9588115  61.3771624 164.0468676  95.3076095  61.9625705 163.6602689
  96.7532478  61.9077819 164.1063713  89.8843743  58.4660761 164.4455810
  90.6574619  57.9189748 164.3068686  90.2369141  59.3305011 164.6570271
  92.2210020  54.6253427 162.0774260  92.4735541  54.1034949 161.3157723
  91.2834580  54.4619573 162.1800944  97.4363381  59.0662056 164.5837660
  96.8009214  59.1396683 165.2958565  97.1060787  59.6555655 163.9056739
  91.9406309  56.5281533 164.2798635  91.8242567  55.8526437 164.9479719
  92.0508569  56.0413907 163.4630788  93.9243337  51.0181580 162.9806673
  94.0917739  51.8861817 163.3477144  93.7340506  51.1808862 162.0567962
  93.9032558  53.4739238 163.9653340  93.7832183  53.9196288 164.8038820
  93.2085146  53.8224555 163.4066878  91.6639450  66.2442879 167.6143471
  91.5863480  67.1950704 167.6931951  91.0601094  65.8988752 168.2718397
  99.6017624  53.9460711 164.7933674 100.5135480  54.1788098 164.6181371
  99.0927271  54.5297755 164.2308752 102.0876438  59.8640967 169.5391619
 101.4027476  60.2439868 168.9888652 102.1720288  60.4736294 170.2723567
  93.9377819  61.6025032 166.3349010  93.8023494  62.4476568 166.7633858
  94.4787631  61.8044310 165.5714944  97.2520565  55.1164205 163.3720339
  96.7367189  55.8868810 163.6108726  96.9797874  54.4429341 163.9953400
 102.2254839  57.8696560 165.3073513 101.4484282  57.5307719 164.8628675
 102.9046320  57.8749183 164.6328478  97.0406868  52.9891297 165.1980120
  96.7357004  53.3037447 166.0490263  97.9937311  53.0672717 165.2407453
  95.4853300  59.1481521 166.8473074  94.9574662  58.4134280 166.5346312
  94.9840803  59.9256197 166.6013043  93.6305900  56.9661731 159.8508047
  92.7232962  56.7350984 160.0499196  94.1276932  56.1699350 160.0382029
  96.5373979  65.6759238 162.7704733  95.8635678  65.9790935 163.3789691
  96.9239801  66.4788319 162.4210190  94.8094134  57.0674326 164.3732037
  93.9005353  56.7833359 164.4704507  94.8389218  57.4873404 163.5135344
 100.0413401  60.6780915 168.1423205  99.5875728  59.8371825 168.1988395
  99.4107368  61.3142314 168.4797985  98.4846341  62.5157412 169.0773023
  98.7769315  63.0762469 168.3585389  98.9944961  62.8085973 169.8326182
  94.5070222  58.6083070 161.7120116  94.0689652  57.8918928 161.2525753
  95.2480663  58.8359184 161.1505207  93.4479966  63.2937763 170.1666476
  93.4056145  63.5198609 169.2375008  94.3642665  63.0601138 170.3152277
 102.6243336  56.8840267 167.7696434 102.4861235  57.0741863 166.8417624
 102.2679555  57.6459649 168.2264486  94.7365194  65.8438911 164.9851813
  94.9116950  65.3726954 165.7997435  94.0497983  66.4704677 165.2133073
  98.6281449  57.4667451 161.3052173  98.0110620  56.7414279 161.2085226
  98.1597938  58.2276811 160.9619248  89.3026280  68.9928273 171.7591673
  89.5422878  69.6246798 172.4370691  88.4595476  68.6416313 172.0457032
  90.4179995  51.6852876 160.4273478  89.5409462  51.5641676 160.0635724
  90.8937748  50.8938954 160.1752366  93.6043921  64.0379166 167.6735998
  92.8211443  64.5800846 167.7674223  94.3036666  64.5553146 168.0730239
  97.9970352  58.6045483 167.8908627  97.0626631  58.7246945 167.7213331
  98.1747021  57.7017949 167.6268637 101.3842903  54.4462802 168.4258661
 101.8503356  55.2790793 168.3518964 101.8350404  53.9807783 169.1303920
  99.4519135  60.7906623 165.4244813  99.7278978  60.6763218 166.3338687
  98.5823633  60.3924108 165.3856986  96.0873199  65.0392974 169.0677627
  96.2695593  64.2214630 169.5305379  96.9106185  65.2560666 168.6302517
  96.4215364  63.9661159 166.3292675  96.9503130  63.4553614 165.7162837
  96.6843584  63.6503689 167.1938208  89.7771112  65.0176276 169.0890451
  89.1081487  65.5022403 168.6054491  89.6383982  65.2645496 170.0033830
  97.0544768  65.0001995 172.6736792  96.9295907  64.1991735 172.1647737
  97.7123859  65.4948188 172.1850762  96.1226110  62.5963731 170.5020694
  95.9751072  61.6680439 170.6828264  96.9479603  62.6183822 170.0177769
  99.7260231  63.4192290 171.5885567 100.6506779  63.2135151 171.4510018
  99.5575535  63.1708691 172.4974908  99.5155548  63.9377957 166.9447658
  99.6892425  63.3724380 166.1921511 100.0084439  64.7378852 166.7627148
 105.3694939  56.7014380 168.5637958 105.8126085  55.9521705 168.1657081
 104.4921449  56.6924517 168.1811690 100.5030720  63.2544722 164.0444557
 101.1981625  63.8751414 164.2631871 100.8453870  62.4040073 164.3196934
 102.4022143  60.7044427 165.5731887 102.9273467  61.0431700 164.8481207
 102.3144496  59.7691443 165.3895022  94.0862804  66.7716411 169.9327141
  93.6467794  66.2792789 170.6259997  94.8370921  66.2289378 169.6919216
  91.0950183  60.8658343 165.4807903  91.2438303  61.5493807 164.8274576
  91.9016626  60.8463433 165.9957358 104.9127803  58.1719619 170.9560406
 105.7474695  58.6109423 171.1197966 105.0486932  57.6958272 170.1368651
  94.5945589  63.3606473 162.9519650  94.0219556  63.9796661 162.4990122
  95.1678382  63.9105835 163.4859572  97.8142848  63.6443624 164.0828232
  98.7473521  63.5789185 164.2861108  97.7266061  64.4799890 163.6242765
 100.4430865  62.9609494 161.0432180 100.3644496  62.6269357 161.9367938
 101.2640532  63.4531262 161.0423652  94.9792387  54.6967286 160.2935703
  95.9251492  54.5673494 160.3624121  94.6006632  53.9581948 160.7705131
  93.1635304  52.6217263 160.2290588  92.2566760  52.3250375 160.3053302
  93.4411285  52.3247081 159.3624874  91.9334089  49.4804198 160.3702567
  92.7953253  49.8059096 160.6298384  92.1184433  48.6935694 159.8575633
  98.0134817  60.2777489 160.6642158  98.7170667  60.4827492 161.2799814
  97.2897466  60.8454251 160.9291242  98.8432627  56.0287351 166.7844429
  98.7867828  56.4855902 165.9452061  99.3960969  55.2678035 166.6067271
  99.9221514  60.7160018 162.7140618 100.7567118  60.2841217 162.5318093
  99.7605857  60.5442032 163.6417513  99.5767406  57.2192132 164.0796958
  99.5216210  57.0536403 163.1385402  98.9513462  57.9268165 164.2359147
  92.8153096  65.3969131 171.7450033  91.8648727  65.3970993 171.6314405
  93.1185582  64.6501866 171.2286067 100.7237497  73.7952679 164.4455810
 101.4968373  73.2481666 164.3068686 101.0762896  74.6596928 164.6570271
 103.0603775  69.9545345 162.0774260 103.3129296  69.4326866 161.3157723
 102.1228334  69.7911491 162.1800944 102.7800064  71.8573451 164.2798635
 102.6636322  71.1818354 164.9479719 102.8902324  71.3705825 163.4630788
 104.7637092  66.3473498 162.9806673 104.9311494  67.2153734 163.3477144
 104.5734261  66.5100780 162.0567962 104.7426312  68.8031155 163.9653340
 104.6225938  69.2488206 164.8038820 104.0478901  69.1516473 163.4066878
 110.4411379  69.2752628 164.7933674 111.3529235  69.5080015 164.6181371
 109.9321026  69.8589673 164.2308752 103.5377809  70.1176007 166.2586905
 104.2401852  70.5697051 166.7260832 103.2058437  69.4759826 166.8866798
  97.2803143  68.3759560 171.5604039  96.4902197  68.6317089 171.0844149
  97.7714390  69.1907898 171.6656079  99.2317888  68.7404139 168.5187516
  98.4349051  68.8522834 169.0371011  99.0043480  69.0790792 167.6528406
  98.2300971  74.4492388 166.9076936  98.7425491  75.2435638 167.0582500
  98.8823684  73.7518679 166.8410537  96.1949888  72.7781042 167.6836506
  97.0325110  73.1878051 167.4670214  96.3728155  71.8380485 167.6536700
 108.0914320  70.4456123 163.3720339 107.5760943  71.2160728 163.6108726
 107.8191628  69.7721259 163.9953400 105.6761431  65.2905824 168.4305577
 104.8203027  64.9012674 168.2511216 106.0888383  65.3697785 167.5705363
 103.4503463  62.9090897 171.8363319 104.3156460  62.7133705 171.4769208
 103.5180972  62.6801249 172.7632676 107.8800623  68.3183215 165.1980120
 107.5750758  68.6329364 166.0490263 108.8331065  68.3964635 165.2407453
 101.0565782  65.1393105 169.2079686 101.6309534  64.9168286 168.4752879
 101.6436765  65.2081799 169.9608287 101.3835369  67.1697566 163.2275571
 100.5472682  67.5072252 163.5484846 101.2440139  67.0346546 162.2902708
 103.3588450  62.0134354 167.9354755 102.7052862  61.6983371 167.3111370
 103.3168924  61.3910094 168.6614578 104.4699655  72.2953649 159.8508047
 103.5626717  72.0642902 160.0499196 104.9670687  71.4991268 160.0382029
 105.6487888  72.3966244 164.3732037 104.7399108  72.1125276 164.4704507
 105.6782972  72.8165322 163.5135344  96.2176059  70.1171758 168.3547240
  96.0200459  69.5241118 167.6298306  95.6622723  69.8123968 169.0723178
 105.3463976  73.9374987 161.7120116 104.9083406  73.2210846 161.2525753
 106.0874417  74.1651102 161.1505207 102.1365142  68.6271924 168.2332212
 101.3233008  68.9266094 168.6397404 102.6324137  68.2327613 168.9506694
  98.7122284  69.6435792 166.0388192  97.7819873  69.5820247 166.2558154
  98.8079756  69.1211744 165.2424833  98.6307834  66.1690604 168.6266433
  98.8914651  67.0835938 168.5175594  99.4525006  65.7015047 168.7763046
 109.4675204  72.7959369 161.3052173 108.8504374  72.0706197 161.2085226
 108.9991692  73.5568729 160.9619248 101.2573750  67.0144793 160.4273478
 100.3803216  66.8933594 160.0635724 101.7331503  66.2230871 160.1752366
  92.7775890  71.8021953 170.5214985  93.4646930  71.4883683 169.9336000
  92.6224019  72.7063318 170.2482236 107.7534326  65.1765713 170.3170204
 108.2503025  64.4235675 169.9971274 106.9821307  65.2130030 169.7513413
 104.3369295  67.3183096 170.0441888 103.9667082  66.7654136 170.7322794
 104.8328387  66.7141229 169.4916888  92.3543866  69.8822546 172.7932452
  92.3927965  69.3486137 173.5869570  91.8484159  69.3557752 172.1743429
  95.9852444  68.6086648 165.8686383  96.2805885  67.6997327 165.8153437
  95.0840479  68.5874388 165.5467386  99.5146691  66.6842645 171.8513932
  98.7933276  67.2978613 171.7121405 100.3039946  67.2200410 171.7730578
  97.7140285  66.2900746 165.9925709  97.3852991  65.4098125 165.8100815
  98.0679656  66.2348415 166.8802098 100.8282108  66.5773716 166.3601186
 101.1678181  67.1059637 165.6379795 101.2754229  66.9154122 167.1359753
 102.8150255  65.0748337 164.5594479 103.5358618  65.4529590 164.0558196
 102.1915560  65.7937214 164.6629457 106.9581378  65.7793486 165.4952811
 107.1744993  66.6618124 165.1941640 106.4775445  65.3879700 164.7658453
 102.9613879  64.6096128 167.3892016 103.0829790  63.6812774 167.5882903
 102.6715921  64.6234814 166.4770331 105.8305069  62.2951038 170.5258735
 105.8526766  62.3590371 169.5710715 106.2473128  61.4555547 170.7199242
 101.9343937  76.1950261 165.4807903 102.0832058  76.8785725 164.8274576
 102.7410381  76.1755351 165.9957358  99.6896570  72.2215438 166.4868972
  99.4442612  71.3177768 166.6849182  99.8592485  72.2232589 165.5448450
  98.9592218  67.9543796 163.9855133  98.2661463  68.0288151 163.3295169
  98.7143970  67.1904139 164.5076650 105.8186141  70.0259204 160.2935703
 106.7645246  69.8965412 160.3624121 105.4400386  69.2873866 160.7705131
 104.0029059  67.9509180 160.2290588 103.0960514  67.6542293 160.3053302
 104.2805040  67.6538998 159.3624874  94.9206999  69.2715544 170.6789634
  94.6009783  68.4180852 170.3864008  94.3740427  69.4864122 171.4347602
 105.6191124  62.4946070 166.3834829 104.8091853  62.1493155 166.7590075
 106.3075541  62.1853614 166.9722441 107.5481673  61.5724117 168.0059126
 108.1012711  61.9919570 168.6649149 107.7851759  60.6459865 168.0482082
 102.7727843  64.8096115 160.3702567 103.6347007  65.1351014 160.6298384
 102.9578187  64.0227611 159.8575633 110.9260480  63.6824642 167.5137790
 110.3459149  64.3409446 167.1315843 110.6596412  62.8601986 167.1025208
 109.3764046  63.0829700 169.7159110 109.8763824  63.1946234 168.9073429
 110.0199654  62.7790752 170.3559919 109.7085358  65.8424732 166.5694138
 108.8211213  66.1274383 166.3514333 110.1239347  65.6818496 165.7221415
 108.8528571  75.6069407 160.6642158 109.5564421  75.8119409 161.2799814
 108.1291220  76.1746169 160.9291242 110.4161161  72.5484049 164.0796958
 110.3609965  72.3828321 163.1385402 109.7907216  73.2560082 164.2359147
 103.7257286  62.0492158 163.6582276 103.7135956  62.9933998 163.8150547
 104.6180708  61.8662304 163.3641737 107.5409406  58.6434935 167.9128213
 106.7741802  58.0893422 168.0584895 107.9520111  58.7156804 168.7742365
  95.9588117  38.3833747 150.7713982  95.3076096  38.9687827 150.3847996
  96.7532480  38.9139942 150.8309020  89.8843744  35.4722884 151.1701117
  90.6574620  34.9251871 151.0313993  90.2369143  36.3367133 151.3815578
  92.2210022  31.6315550 148.8019567  92.4735542  31.1097071 148.0403030
  91.2834581  31.4681695 148.9046250  97.4363382  36.0724179 151.3082967
  96.8009215  36.1458805 152.0203871  97.1060788  36.6617777 150.6302046
  91.9406310  33.5343656 151.0043942  91.8242569  32.8588559 151.6725026
  92.0508570  33.0476030 150.1876095  93.9243338  28.0243703 149.7051979
  94.0917741  28.8923939 150.0722450  93.7340507  28.1870984 148.7813269
  93.9032559  30.4801360 150.6898646  93.7832184  30.9258411 151.5284126
  93.2085148  30.8286678 150.1312184  91.6639451  43.2505002 154.3388777
  91.5863481  44.2012827 154.4177258  91.0601095  42.9050874 154.9963704
  99.6017625  30.9522833 151.5178980 100.5135481  31.1850220 151.3426678
  99.0927272  31.5359878 150.9554059 102.0876440  36.8703090 156.2636925
 101.4027478  37.2501991 155.7133959 102.1720289  37.4798416 156.9968873
  93.9377820  38.6087155 153.0594317  93.8023495  39.4538691 153.4879165
  94.4787633  38.8106433 152.2960251  97.2520567  32.1226328 150.0965646
  96.7367190  32.8930933 150.3354033  96.9797875  31.4491464 150.7198707
 102.2254841  34.8758683 152.0318819 101.4484283  34.5369842 151.5873981
 102.9046322  34.8811306 151.3573784  97.0406870  29.9953420 151.9225427
  96.7357005  30.3099569 152.7735570  97.9937312  30.0734840 151.9652760
  95.4853302  36.1543643 153.5718381  94.9574663  35.4196403 153.2591618
  94.9840804  36.9318320 153.3258349  93.6305902  33.9723854 146.5753354
  92.7232963  33.7413107 146.7744503  94.1276934  33.1761473 146.7627335
  96.5373981  42.6821361 149.4950040  95.8635679  42.9853058 150.1034998
  96.9239803  43.4850441 149.1455497  94.8094135  34.0736448 151.0977344
  93.9005354  33.7895481 151.1949814  94.8389219  34.4935527 150.2380651
 100.0413403  37.6843038 154.8668512  99.5875730  36.8433948 154.9233702
  99.4107369  38.3204436 155.2043292  98.4846342  39.5219535 155.8018330
  98.7769316  40.0824592 155.0830695  98.9944962  39.8148096 156.5571489
  94.5070223  35.6145192 148.4365423  94.0689653  34.8981051 147.9771060
  95.2480664  35.8421307 147.8750514  93.4479967  40.2999886 156.8911783
  93.4056146  40.5260732 155.9620315  94.3642666  40.0663260 157.0397584
 102.6243338  33.8902389 154.4941741 102.4861236  34.0803985 153.5662930
 102.2679557  34.6521772 154.9509792  94.7365196  42.8501033 151.7097119
  94.9116951  42.3789076 152.5242742  94.0497984  43.4766799 151.9378380
  98.6281451  34.4729574 148.0297480  98.0110621  33.7476402 147.9330533
  98.1597939  35.2338934 147.6864554  89.3026281  45.9990396 158.4836979
  89.5422879  46.6308920 159.1615998  88.4595478  45.6478436 158.7702339
  90.4179996  28.6914998 147.1518784  89.5409463  28.5703799 146.7881031
  90.8937750  27.9001076 146.8997673  93.6043923  41.0441288 154.3981305
  92.8211444  41.5862969 154.4919529  94.3036668  41.5615268 154.7975546
  97.9970353  35.6107605 154.6153934  97.0626632  35.7309068 154.4458638
  98.1747022  34.7080072 154.3513944 101.3842905  31.4524924 155.1503968
 101.8503357  32.2852916 155.0764271 101.8350405  30.9869906 155.8549226
  99.4519136  37.7968746 152.1490120  99.7278980  37.6825340 153.0583994
  98.5823635  37.3986231 152.1102293  96.0873200  42.0455097 155.7922934
  96.2695594  41.2276752 156.2550686  96.9106186  42.2622789 155.3547823
  96.4215365  40.9723282 153.0537982  96.9503132  40.4615736 152.4408144
  96.6843585  40.6565812 153.9183515  89.7771113  42.0238398 155.8135758
  89.1081488  42.5084526 155.3299798  89.6383983  42.2707619 156.7279136
  97.0544769  42.0064117 159.3982098  96.9295909  41.2053857 158.8893044
  97.7123860  42.5010311 158.9096068  96.1226111  39.6025854 157.2266001
  95.9751073  38.6742561 157.4073571  96.9479604  39.6245944 156.7423076
  99.7260233  40.4254412 158.3130874 100.6506780  40.2197274 158.1755325
  99.5575536  40.1770814 159.2220215  99.5155549  40.9440080 153.6692965
  99.6892426  40.3786502 152.9166817 100.0084440  41.7440975 153.4872455
 105.3694940  33.7076503 155.2883265 105.8126086  32.9583828 154.8902388
 104.4921450  33.6986639 154.9056997 100.5030721  40.2606844 150.7689863
 101.1981626  40.8813537 150.9877178 100.8453871  39.4102196 151.0442241
 102.4022144  37.7106550 152.2977194 102.9273469  38.0493823 151.5726514
 102.3144497  36.7753565 152.1140329  94.0862805  43.7778533 156.6572447
  93.6467795  43.2854912 157.3505304  94.8370922  43.2351501 156.4164522
  91.0950184  37.8720466 152.2053209  91.2438305  38.5555930 151.5519882
  91.9016628  37.8525556 152.7202665 104.9127805  35.1781741 157.6805712
 105.7474696  35.6171545 157.8443273 105.0486933  34.7020394 156.8613958
  94.5945590  40.3668596 149.6764957  94.0219557  40.9858783 149.2235429
  95.1678383  40.9167958 150.2104879  97.8142850  40.6505746 150.8073539
  98.7473523  40.5851308 151.0106415  97.7266062  41.4862013 150.3488072
 100.4430866  39.9671616 147.7677487 100.3644498  39.6331480 148.6613245
 101.2640533  40.4593384 147.7668959  94.9792388  31.7029409 147.0181009
  95.9251493  31.5735617 147.0869427  94.6006633  30.9644071 147.4950437
  93.1635305  29.6279385 146.9535895  92.2566761  29.3312498 147.0298608
  93.4411286  29.3309203 146.0870181  91.9334090  26.4866320 147.0947874
  92.7953254  26.8121219 147.3543691  92.1184434  25.6997816 146.5820940
  98.0134818  37.2839612 147.3887465  98.7170668  37.4889614 148.0045121
  97.2897467  37.8516374 147.6536549  98.8432628  33.0349473 153.5089735
  98.7867830  33.4918025 152.6697368  99.3960971  32.2740158 153.3312578
  99.9221515  37.7222141 149.4385925 100.7567119  37.2903340 149.2563400
  99.7605858  37.5504155 150.3662820  99.5767408  34.2254254 150.8042264
  99.5216211  34.0598526 149.8630708  98.9513463  34.9330287 150.9604454
  92.8153097  42.4031254 158.4695339  91.8648728  42.4033115 158.3559712
  93.1185583  41.6563988 157.9531374 108.5505791  48.2391792 159.5341102
 109.1884200  48.1198540 158.8304442 108.4326633  49.1872636 159.5929054
 105.3595497  48.1919220 159.4702627 105.0214008  48.0760285 158.5823161
 106.2285265  47.7910385 159.4503633 101.2182312  50.0454697 155.4599517
 100.6547178  49.9544634 154.6915805 101.1034708  49.2254601 155.9402010
 105.8415280  49.3454072 165.4288832 105.8303921  48.9506870 164.5569336
 106.0035919  48.6120145 166.0222603  98.7646744  51.5405888 158.2983738
  99.5568036  51.1996713 157.8830037  99.0043395  51.6500863 159.2185891
 106.7981871  53.7125664 150.7713982 106.1469851  54.2979745 150.3847996
 107.5926234  54.2431859 150.8309020 100.7237498  50.8014802 151.1701117
 101.4968374  50.2543789 151.0313993 101.0762897  51.6659051 151.3815578
 102.5622541  52.1291184 164.3768016 102.2712407  53.0336815 164.2614682
 103.1979525  52.1707711 165.0912086 103.4878748  49.5068032 160.9669376
 104.0842320  49.2824055 160.2526339 103.5453719  48.7652778 161.5694824
 103.0603776  46.9607468 148.8019567 103.3129297  46.4388989 148.0403030
 102.1228335  46.7973613 148.9046250 108.1047059  45.9643246 156.6094310
 108.8910148  45.5462669 156.2584727 108.3685763  46.8689338 156.7775958
 108.2757136  51.4016096 151.3082967 107.6402969  51.4750723 152.0203871
 107.9454543  51.9909695 150.6302046 102.7800065  48.8635574 151.0043942
 102.6636323  48.1880477 151.6725026 102.8902325  48.3767948 150.1876095
 105.1231606  48.3245721 154.7090631 104.7589813  47.7976342 155.4203552
 105.9798722  47.9344190 154.5357116 104.7637093  43.3535620 149.7051979
 104.9311495  44.2215857 150.0722450 104.5734262  43.5162902 148.7813269
 107.5212426  51.8152599 161.3717810 107.2213149  52.7177638 161.2633617
 107.1763486  51.5484783 162.2238963 100.9724907  48.2666396 157.4054514
 100.0475404  48.1342610 157.6132206 101.2209321  49.0460615 157.9024457
 110.9209570  44.3335140 159.0515247 110.0126447  44.2650548 158.7574008
 110.8697166  44.8107084 159.8797072 104.7426314  45.8093278 150.6898646
 104.6225939  46.2550329 151.5284126 104.0478902  46.1578596 150.1312184
  98.3333719  47.9099670 158.2398303  98.4626100  48.1634149 159.1537715
  97.6531170  48.5027378 157.9202958 102.5033206  58.5796920 154.3388777
 102.4257235  59.5304745 154.4177258 101.8994849  58.2342792 154.9963704
 110.4411380  46.2814751 151.5178980 111.3529236  46.5142138 151.3426678
 109.9321027  46.8651795 150.9554059 103.2496808  48.5610238 166.5568111
 103.9911492  49.0995282 166.2802935 102.5433793  49.1876527 166.7139663
 108.7252148  50.7039379 165.1540273 109.1335504  50.2621789 164.4094905
 108.0029409  50.1292006 165.4074466 105.0783218  45.6411986 162.5273830
 105.9244413  46.0651399 162.6708479 105.0181855  44.9845610 163.2212393
 109.0480962  51.2640570 158.9092562 108.4189825  51.4286284 158.2068630
 108.6606624  51.6782179 159.6803526 112.9270194  52.1995007 156.2636925
 112.2421232  52.5793909 155.7133959 113.0114043  52.8090334 156.9968873
 110.1821126  49.8454966 162.8632269 110.3938021  50.4886726 162.1866650
 110.1350874  49.0117283 162.3954199 107.7847355  42.4572787 159.7668841
 106.9231834  42.7554041 160.0585579 107.8109789  42.6743186 158.8349874
 104.6008924  51.0014978 156.1742647 105.0647270  51.2802681 155.3847269
 104.3365722  50.0998422 155.9915737 101.4933005  50.5486459 159.1122410
 102.0634362  50.9773728 158.4739895 102.0841117  50.2669044 159.8106596
 103.5377810  47.1238130 152.9832212 104.2401853  47.5759174 153.4506138
 103.2058439  46.4821949 153.6112105  97.2803144  45.3821683 158.2849345
  96.4902198  45.6379211 157.8089456  97.7714391  46.1970021 158.3901386
 111.2966954  52.7226922 161.0354626 112.1184397  52.3207109 160.7537308
 111.2929356  52.6195156 161.9870742  99.2317889  45.7466262 155.2432822
  98.4349053  45.8584956 155.7616318  99.0043482  46.0852914 154.3773713
 105.0623557  52.2710965 163.1915337 105.1267990  52.7331372 164.0273509
 104.3534481  51.6408330 163.3197647  95.5640847  45.6352173 160.7164336
  95.8148885  46.5199183 160.9821912  96.1000395  45.4556775 159.9439428
 104.7771575  53.9379073 153.0594317 104.6417250  54.7830608 153.4879165
 105.3181387  54.1398350 152.2960251  98.2300972  51.4554511 153.6322242
  98.7425493  52.2497761 153.7827807  98.8823685  50.7580801 153.5655844
 100.0395857  54.5720267 155.7144995 100.2162485  55.4938232 155.5265979
 100.8352690  54.2578686 156.1439375 106.4040051  54.5602639 167.1894659
 105.9603905  53.7739018 166.8715564 107.0657265  54.7481790 166.5238550
 101.1627172  56.0898441 161.7155338 101.7134597  55.9615504 160.9432332
 100.3238648  56.3893330 161.3650230 108.5021289  54.8405439 165.2176060
 108.4839765  55.6614320 164.7256330 109.4241209  54.7159514 165.4426202
 104.9594343  52.3549569 166.0599569 105.4922680  51.5937857 165.8298877
 104.4308424  52.0623220 166.8023723  96.1949889  49.7843165 154.4081813
  97.0325111  50.1940173 154.1915520  96.3728157  48.8442607 154.3782007
 108.0914321  47.4518246 150.0965646 107.5760944  48.2222850 150.3354033
 107.8191629  46.7783382 150.7198707 105.6761432  42.2967946 155.1550884
 104.8203028  41.9074797 154.9756523 106.0888384  42.3759907 154.2950670
 107.2060579  39.8314290 159.5542444 106.7025374  39.7944425 158.7410249
 107.4991186  40.7407032 159.6139100 103.4503465  39.9153019 158.5608626
 104.3156461  39.7195828 158.2014515 103.5180973  39.6863371 159.4877982
 113.0648595  50.2050600 152.0318819 112.2878038  49.8661760 151.5873981
 113.7440076  50.2103223 151.3573784 107.8800624  45.3245338 151.9225427
 107.5750760  45.6391487 152.7735570 108.8331066  45.4026758 151.9652760
 106.3247056  51.4835561 153.5718381 105.7968418  50.7488321 153.2591618
 105.8234559  52.2610237 153.3258349 111.3039902  49.6784582 158.6885427
 110.6463576  50.3683843 158.7765556 112.1080301  50.0681013 159.0319413
 101.0565784  42.1455227 155.9324992 101.6309536  41.9230409 155.1998185
 101.6436766  42.2143922 156.6853594 110.1145361  48.0328954 156.7389369
 110.6277243  48.6658946 157.2411079 110.7646585  47.4330150 156.3732729
 101.3835371  44.1759688 149.9520878 100.5472683  44.5134375 150.2730152
 101.2440140  44.0408668 149.0148015 103.3588451  39.0196476 154.6600062
 102.7052864  38.7045493 154.0356677 103.3168925  38.3972217 155.3859885
 104.4699656  49.3015771 146.5753354 103.5626718  49.0705025 146.7744503
 104.9670688  48.5053391 146.7627335 107.3767735  58.0113278 149.4950040
 106.7029434  58.3144975 150.1034998 107.7633557  58.8142359 149.1455497
 106.5926192  45.5078410 158.9847709 105.6748753  45.7293357 158.8269397
 107.0086335  45.5824720 158.1259417 107.3761239  46.9069825 154.1150390
 108.1233058  47.4191223 153.8057512 107.6452829  46.5853878 154.9754783
 105.6487890  49.4028366 151.0977344 104.7399109  49.1187399 151.1949814
 105.6782973  49.8227445 150.2380651 110.8807157  53.0134956 154.8668512
 110.4269484  52.1725866 154.9233702 110.2501124  53.6496354 155.2043292
 109.8240077  43.9426942 156.0969179 109.0862833  43.4304328 156.4279422
 110.0766850  43.5027323 155.2852456 109.3240096  54.8511452 155.8018330
 109.6163071  55.4116509 155.0830695 109.8338717  55.1440013 156.5571489
  96.2176060  47.1233880 155.0792546  96.0200460  46.5303241 154.3543613
  95.6622724  46.8186090 155.7968485 104.1972784  47.0156987 157.1987139
 104.2521393  46.0630823 157.1229616 103.3863986  47.1716426 157.6828438
 105.3463977  50.9437110 148.4365423 104.9083407  50.2272969 147.9771060
 106.0874418  51.1713225 147.8750514 102.1365144  45.6334046 154.9577518
 101.3233009  45.9328217 155.3642710 102.6324138  45.2389735 155.6752000
 104.2873721  55.6291803 156.8911783 104.2449900  55.8552650 155.9620315
 105.2036420  55.3955178 157.0397584 113.4637092  49.2194307 154.4941741
 113.3254991  49.4095903 153.5662930 113.1073311  49.9813690 154.9509792
 101.6279218  43.2052402 160.5738753 102.2678598  43.0641161 159.8761716
 100.7956749  42.9186915 160.1977355 113.4906472  51.2870834 159.5053013
 113.9242979  51.1946123 160.3536067 114.2038053  51.2628334 158.8673029
 102.4039522  52.5054832 156.6873746 103.1980121  52.0105153 156.4856321
 101.6931215  51.9772696 156.3241451 107.2234367  54.8872928 161.0386113
 107.2771389  55.4563864 161.8063829 106.3549148  55.0574813 160.6740150
  98.7122286  46.6497914 152.7633498  97.7819874  46.5882370 152.9803460
  98.8079758  46.1273867 151.9670140  98.6307835  43.1752727 155.3511740
  98.8914652  44.0898060 155.2420900  99.4525007  42.7077170 155.5008353
 100.1032760  44.5890484 162.5210564 100.7755814  44.3807846 161.8723213
  99.2762547  44.3912570 162.0815797 106.1822466  49.0533190 162.5973045
 107.1114526  49.2044350 162.4242012 105.7613496  49.1417211 161.7421692
 104.9810798  53.0783854 160.3671583 104.8421884  52.7102639 161.2397521
 104.1925394  53.5931494 160.1955540 105.5758950  58.1792951 151.7097119
 105.7510706  57.7080994 152.5242742 104.8891738  58.8058717 151.9378380
 106.5316013  52.4565457 157.7560420 106.1965846  52.4166227 158.6518070
 106.0319959  51.7910173 157.2830831 100.5060257  47.8633087 163.2813002
 100.3680055  47.1313326 163.8824541 101.4165181  47.7741987 162.9997189
 109.4675205  49.8021491 148.0297480 108.8504376  49.0768320 147.9330533
 108.9991694  50.5630852 147.6864554 103.1342558  47.5753046 162.7696681
 103.8442177  46.9346239 162.7283300 103.0911866  47.8265941 163.6922862
 100.1420036  61.3282314 158.4836979 100.3816634  61.9600838 159.1615998
  99.2989232  60.9770354 158.7702339 101.2573751  44.0206916 147.1518784
 100.3803217  43.8995717 146.7881031 101.7331504  43.2292994 146.8997673
  92.7775891  48.8084076 157.2460292  93.4646931  48.4945806 156.6581307
  92.6224020  49.7125440 156.9727543 104.6547897  57.1361436 160.8878483
 104.5818069  57.9416408 161.3997788 104.2125290  57.3353402 160.0626505
 104.4437677  56.3733206 154.3981305 103.6605199  56.9154886 154.4919529
 105.1430422  56.8907186 154.7975546 107.7534327  42.1827836 157.0415510
 108.2503027  41.4297798 156.7216581 106.9821309  42.2192152 156.4758720
 107.1146581  57.0348270 163.0436642 107.8274553  57.6695735 162.9712543
 106.6236610  57.1312136 162.2276644 108.8364108  50.9399523 154.6153934
 107.9020387  51.0600985 154.4458638 109.0140776  50.0371990 154.3513944
 104.3369296  44.3245219 156.7687195 103.9667083  43.7716259 157.4568100
 104.8328388  43.7203352 156.2162195 112.2236659  46.7816842 155.1503968
 112.6897111  47.6144834 155.0764271 112.6744160  46.3161824 155.8549226
 102.1658494  54.7842714 163.8642213 102.8667954  55.4179197 164.0171607
 101.6953609  55.1257445 163.1037852 110.2912890  53.1260663 152.1490120
 110.5672734  53.0117258 153.0583994 109.4217389  52.7278148 152.1102293
 109.9659780  47.3387321 161.6894763 109.3131231  47.5863229 161.0347216
 110.3440160  46.5251459 161.3557240 106.9266954  57.3747014 155.7922934
 107.1089349  56.5568670 156.2550686 107.7499940  57.5914706 155.3547823
 107.2609120  56.3015199 153.0537982 107.7896886  55.7907654 152.4408144
 107.5237339  55.9857730 153.9183515  97.7626212  54.3179069 160.7973316
  98.3479649  53.5722757 160.9301220  97.5651051  54.6283025 161.6809979
 100.6164868  57.3530316 155.8135758  99.9475243  57.8376444 155.3299798
 100.4777737  57.5999536 156.7279136  92.3543867  46.8884669 159.5177759
  92.3927967  46.3548260 160.3114877  91.8484160  46.3619874 158.8988736
 104.7570136  59.3874060 162.4118416 105.3088444  59.5505681 163.1767502
 105.0976330  59.9778497 161.7398441  95.9852445  45.6148771 152.5931690
  96.2805886  44.7059449 152.5398744  95.0840481  45.5936510 152.2712692
 107.8938524  57.3356035 159.3982098 107.7689663  56.5345775 158.8893044
 108.5517615  57.8302228 158.9096068  99.5146692  43.6904768 158.5759239
  98.7933278  44.3040735 158.4366712 100.3039948  44.2262532 158.4975885
 109.9573432  55.1365055 161.0261649 109.0103767  55.0170406 160.9539975
 110.3056205  54.2487553 161.1087910  97.7140286  43.2962869 152.7171015
  97.3852993  42.4160248 152.5346121  98.0679657  43.2410537 153.6047404
 106.9619865  54.9317771 157.2266001 106.8144828  54.0034479 157.4073571
 107.7873359  54.9537862 156.7423076 100.8282110  43.5835838 153.0846493
 101.1678182  44.1121760 152.3625101 101.2754230  43.9216245 153.8605059
 110.5653987  55.7546330 158.3130874 111.4900535  55.5489191 158.1755325
 110.3969290  55.5062731 159.2220215 104.1742022  39.0522202 160.9876884
 104.9968092  38.5782680 160.8655774 104.4180086  39.8312685 161.4875570
 102.8150257  42.0810460 151.2839786 103.5358619  42.4591713 150.7803503
 102.1915561  42.7999337 151.3874764 106.9581380  42.7855609 152.2198118
 107.1744994  43.6680247 151.9186946 106.4775447  42.3941822 151.4903760
 101.6980601  45.7441322 158.7968863 101.5525182  46.0581625 159.6893144
 101.2205805  46.3626223 158.2439761 103.5576984  42.7343870 158.8449752
 103.5438553  41.8384964 158.5082050 104.2749412  42.7414534 159.4788038
 105.4103115  43.1681210 160.8902880 105.1520892  44.0898281 160.8887210
 104.8788155  42.7711645 161.5803344 110.3549303  56.2731998 153.6692965
 110.5286181  55.7078420 152.9166817 110.8478195  57.0732892 153.4872455
  96.1726263  48.2846667 161.7356524  95.6279731  49.0606475 161.8676798
  97.0505613  48.6317471 161.5775645 102.9613880  41.6158251 154.1137322
 103.0829791  40.6874897 154.3128210 102.6715922  41.6296936 153.2015638
 105.8305070  39.3013161 157.2504042 105.8526767  39.3652494 156.2956022
 106.2473129  38.4617670 157.4444548 116.2088694  49.0368421 155.2883265
 116.6519841  48.2875746 154.8902388 115.3315205  49.0278557 154.9056997
 111.3424476  55.5898762 150.7689863 112.0375380  56.2105455 150.9877178
 111.6847626  54.7394113 151.0442241 113.2415899  53.0398468 152.2977194
 113.7667223  53.3785740 151.5726514 113.1538251  52.1045483 152.1140329
 104.9035948  56.9532541 164.4267071 105.2123074  56.7081688 165.2989770
 105.7011430  57.1579180 163.9385941 104.9256560  59.1070451 156.6572447
 104.4861550  58.6146829 157.3505304 105.6764677  58.5643418 156.4164522
  97.4048899  55.2981992 156.6597075  98.2306919  54.9985764 156.2795719
  97.0542951  54.5289614 157.1086864 102.3730432  54.6508460 158.7294749
 101.7510441  53.9879165 158.4296977 103.0435299  54.6769592 158.0468397
  95.6057504  53.2168318 157.6186009  94.7689412  52.7890492 157.4370010
  95.5781149  53.4100761 158.5556800 101.9343939  53.2012383 152.2053209
 102.0832059  53.8847848 151.5519882 102.7410382  53.1817473 152.7202665
 115.7521559  50.5073659 157.6805712 116.5868451  50.9463463 157.8443273
 115.8880688  50.0312312 156.8613958  99.6896572  49.2277561 153.2114278
  99.4442614  48.3239891 153.4094488  99.8592486  49.2294711 152.2693756
  98.9592219  44.9605918 150.7100440  98.2661464  45.0350273 150.0540476
  98.7143971  44.1966262 151.2321957 105.4339344  55.6960514 149.6764957
 104.8613311  56.3150701 149.2235429 106.0072138  56.2459875 150.2104879
 108.6536604  55.9797664 150.8073539 109.5867277  55.9143225 151.0106415
 108.5659817  56.8153931 150.3488072 111.2824621  55.2963534 147.7677487
 111.2038252  54.9623398 148.6613245 112.1034288  55.7885302 147.7668959
 105.8186143  47.0321326 147.0181009 106.7645247  46.9027535 147.0869427
 105.4400388  46.2935988 147.4950437 104.0029060  44.9571303 146.9535895
 103.0960515  44.6604416 147.0298608 104.2805041  44.6601121 146.0870181
  94.9207000  46.2777666 157.4034941  94.6009785  45.4242974 157.1109315
  94.3740428  46.4926244 158.1592908  98.6986908  48.9940107 161.1204447
  98.9172918  49.9257215 161.1392481  99.1112682  48.6348082 161.9059251
 105.6191126  39.5008193 153.1080136 104.8091854  39.1555277 153.4835382
 106.3075543  39.1915736 153.6967747 107.5481674  38.5786239 154.7304432
 108.1012713  38.9981693 155.3894456 107.7851760  37.6521987 154.7727388
 102.7727845  41.8158238 147.0947874 103.6347009  42.1413136 147.3543691
 102.9578189  41.0289734 146.5820940  94.7895260  49.8980578 159.3728063
  94.0958732  49.4834530 158.8598017  95.5368251  49.9401114 158.7761481
 110.9260481  40.6886764 154.2383097 110.3459150  41.3471569 153.8561149
 110.6596414  39.8664109 153.8270514 109.3764047  40.0891822 156.4404417
 109.8763826  40.2008357 155.6318736 110.0199655  39.7852875 157.0805226
  96.7032003  49.8298831 157.2494077  96.6802691  49.9286519 156.2975961
  97.0132639  50.6763982 157.5711244  99.3619381  51.8874987 161.3640692
 100.3162634  51.8558929 161.2970623  99.1631904  51.4265610 162.1790918
  99.9518763  50.4576103 163.9311490 100.7711652  50.9520181 163.9546327
 100.2255571  49.5408071 163.9029057 109.7085359  42.8486855 153.2939445
 108.8211214  43.1336505 153.0759640 110.1239348  42.6880618 152.4466722
  97.7169609  57.4294606 158.3810890  97.5824077  56.6695007 157.8148888
  97.3001672  58.1535506 157.9139679 108.8528572  52.6131530 147.3887465
 109.5564423  52.8181532 148.0045121 108.1291221  53.1808291 147.6536549
 109.6826383  48.3641391 153.5089735 109.6261584  48.8209942 152.6697368
 110.2354725  47.6032075 153.3312578 113.4931189  44.1531123 154.3339855
 113.2368123  43.7527758 155.1648062 112.8684057  44.8674917 154.2089994
 100.8738735  58.3263923 158.5929332 100.7571120  59.2709356 158.4908023
 100.0531182  58.0237485 158.9815132 110.7615270  53.0514059 149.4385925
 111.5960874  52.6195257 149.2563400 110.5999613  52.8796072 150.3662820
 110.4161162  49.5546172 150.8042264 110.3609966  49.3890443 149.8630708
 109.7907217  50.2622205 150.9604454 103.7257288  39.0554281 150.3827583
 103.7135957  39.9996121 150.5395854 104.6180709  38.8724426 150.0887044
 101.8993249  58.9792185 161.8085261 102.8020496  59.0115795 162.1251756
 101.6730620  58.0492636 161.8231597 103.6546852  57.7323171 158.4695339
 102.7042483  57.7325033 158.3559712 103.9579338  56.9855906 157.9531374
 107.5409407  35.6497058 154.6373520 106.7741803  35.0955544 154.7830202
 107.9520112  35.7218926 155.4987671 119.3899545  63.5683710 159.5341102
 120.0277955  63.4490457 158.8304442 119.2720388  64.5164554 159.5929054
 116.1989251  63.5211138 159.4702627 115.8607763  63.4052203 158.5823161
 117.0679019  63.1202303 159.4503633 112.0576067  65.3746614 155.4599517
 111.4940932  65.2836551 154.6915805 111.9428462  64.5546519 155.9402010
 116.6809034  64.6745990 165.4288832 116.6697675  64.2798788 164.5569336
 116.8429674  63.9412062 166.0222603 109.6040499  66.8697806 158.2983738
 110.3961791  66.5288631 157.8830037 109.8437149  66.9792781 159.2185891
 117.6375626  69.0417582 150.7713982 116.9863605  69.6271662 150.3847996
 118.4319988  69.5723777 150.8309020 111.5631253  66.1306719 151.1701117
 112.3362129  65.5835706 151.0313993 111.9156652  66.9950969 151.3815578
 113.4016295  67.4583101 164.3768016 113.1106161  68.3628732 164.2614682
 114.0373280  67.4999629 165.0912086 114.3272502  64.8359950 160.9669376
 114.9236075  64.6115972 160.2526339 114.3847474  64.0944695 161.5694824
 113.8997531  62.2899385 148.8019567 114.1523051  61.7680907 148.0403030
 112.9622090  62.1265531 148.9046250 118.9440813  61.2935164 156.6094310
 119.7303903  60.8754587 156.2584727 119.2079518  62.1981256 156.7775958
 119.1150891  66.7308014 151.3082967 118.4796724  66.8042641 152.0203871
 118.7848297  67.3201613 150.6302046 113.6193819  64.1927491 151.0043942
 113.5030078  63.5172395 151.6725026 113.7296079  63.7059865 150.1876095
 115.9625360  63.6537638 154.7090631 115.5983568  63.1268259 155.4203552
 116.8192476  63.2636107 154.5357116 115.6030847  58.6827538 149.7051979
 115.7705250  59.5507774 150.0722450 115.4128016  58.8454820 148.7813269
 118.3606180  67.1444517 161.3717810 118.0606904  68.0469556 161.2633617
 118.0157240  66.8776700 162.2238963 111.8118662  63.5958314 157.4054514
 110.8869158  63.4634528 157.6132206 112.0603075  64.3752533 157.9024457
 121.7603324  59.6627057 159.0515247 120.8520202  59.5942466 158.7574008
 121.7090920  60.1399002 159.8797072 115.5820068  61.1385196 150.6898646
 115.4619693  61.5842246 151.5284126 114.8872657  61.4870513 150.1312184
 109.1727473  63.2391587 158.2398303 109.3019854  63.4926066 159.1537715
 108.4924924  63.8319295 157.9202958 113.3426960  73.9088837 154.3388777
 113.2650990  74.8596662 154.4177258 112.7388604  73.5634710 154.9963704
 121.2805134  61.6106669 151.5178980 122.1922990  61.8434056 151.3426678
 120.7714781  62.1943713 150.9554059 114.0890562  63.8902156 166.5568111
 114.8305247  64.4287200 166.2802935 113.3827548  64.5168445 166.7139663
 115.9176972  60.9703903 162.5273830 116.7638167  61.3943317 162.6708479
 115.8575610  60.3137528 163.2212393 119.8874717  66.5932487 158.9092562
 119.2583579  66.7578201 158.2068630 119.5000379  67.0074097 159.6803526
 123.7663949  67.5286925 156.2636925 123.0814987  67.9085826 155.7133959
 123.8507798  68.1382252 156.9968873 121.0214880  65.1746884 162.8632269
 121.2331775  65.8178644 162.1866650 120.9744628  64.3409201 162.3954199
 118.6241109  57.7864705 159.7668841 117.7625588  58.0845958 160.0585579
 118.6503544  58.0035104 158.8349874 115.4402679  66.3306895 156.1742647
 115.9041024  66.6094598 155.3847269 115.1759477  65.4290340 155.9915737
 112.3326760  65.8778377 159.1122410 112.9028117  66.3065645 158.4739895
 112.9234871  65.5960962 159.8106596 114.3771565  62.4530048 152.9832212
 115.0795608  62.9051091 153.4506138 114.0452193  61.8113867 153.6112105
 112.8251926  61.0441804 167.3583421 112.1950587  61.7258085 167.5918818
 112.7188014  60.9324886 166.4136560 108.1196899  60.7113600 158.2849345
 107.3295953  60.9671129 157.8089456 108.6108146  61.5261938 158.3901386
 122.1360708  68.0518840 161.0354626 122.9578152  67.6499027 160.7537308
 122.1323111  67.9487074 161.9870742 110.0711644  61.0758180 155.2432822
 109.2742807  61.1876874 155.7616318 109.8437236  61.4144832 154.3773713
 115.9017312  67.6002883 163.1915337 115.9661744  68.0623290 164.0273509
 115.1928235  66.9700248 163.3197647 106.4034602  60.9644091 160.7164336
 106.6542640  61.8491101 160.9821912 106.9394150  60.7848692 159.9439428
 115.6165329  69.2670990 153.0594317 115.4811004  70.1122526 153.4879165
 116.1575142  69.4690268 152.2960251 109.0694727  66.7846428 153.6322242
 109.5819247  67.5789679 153.7827807 109.7217439  66.0872719 153.5655844
 110.8789611  69.9012185 155.7144995 111.0556240  70.8230149 155.5265979
 111.6746445  69.5870604 156.1439375 110.1641968  61.9476817 165.5907159
 110.0495483  61.0462074 165.8914257 109.3086486  62.1940513 165.2391975
 112.0020927  71.4190358 161.7155338 112.5528352  71.2907422 160.9432332
 111.1632403  71.7185247 161.3650230 107.0343643  65.1135083 154.4081813
 107.8718865  65.5232091 154.1915520 107.2121911  64.1734525 154.3782007
 118.9308075  62.7810163 150.0965646 118.4154699  63.5514768 150.3354033
 118.6585384  62.1075299 150.7198707 116.5155187  57.6259864 155.1550884
 115.6596783  57.2366714 154.9756523 116.9282138  57.7051825 154.2950670
 118.0454333  55.1606207 159.5542444 117.5419129  55.1236343 158.7410249
 118.3384940  56.0698950 159.6139100 114.2897219  55.2444937 158.5608626
 115.1550216  55.0487746 158.2014515 114.3574728  55.0155289 159.4877982
 123.9042350  65.5342518 152.0318819 123.1271792  65.1953677 151.5873981
 124.5833831  65.5395141 151.3573784 118.7194379  60.6537255 151.9225427
 118.4144514  60.9683405 152.7735570 119.6724821  60.7318675 151.9652760
 117.1640811  66.8127479 153.5718381 116.6362172  66.0780238 153.2591618
 116.6628313  67.5902155 153.3258349 122.1433657  65.0076499 158.6885427
 121.4857331  65.6975761 158.7765556 122.9474056  65.3972931 159.0319413
 111.8959538  57.4747145 155.9324992 112.4703290  57.2522326 155.1998185
 112.4830521  57.5435839 156.6853594 120.9539115  63.3620872 156.7389369
 121.4670997  63.9950864 157.2411079 121.6040339  62.7622067 156.3732729
 112.2229125  59.5051606 149.9520878 111.3866437  59.8426293 150.2730152
 112.0833895  59.3700586 149.0148015 114.1982206  54.3488394 154.6600062
 113.5446618  54.0337411 154.0356677 114.1562680  53.7264134 155.3859885
 115.3093411  64.6307689 146.5753354 114.4020472  64.3996942 146.7744503
 115.8064443  63.8345308 146.7627335 118.2161490  73.3405196 149.4950040
 117.5423188  73.6436893 150.1034998 118.6027312  74.1434276 149.1455497
 117.4319946  60.8370327 158.9847709 116.5142508  61.0585274 158.8269397
 117.8480090  60.9116638 158.1259417 118.2154994  62.2361743 154.1150390
 118.9626813  62.7483140 153.8057512 118.4846584  61.9145796 154.9754783
 116.4881644  64.7320284 151.0977344 115.5792863  64.4479317 151.1949814
 116.5176728  65.1519362 150.2380651 121.7200912  68.3426873 154.8668512
 121.2663239  67.5017783 154.9233702 121.0894878  68.9788272 155.2043292
 120.6633831  59.2718859 156.0969179 119.9256588  58.7596246 156.4279422
 120.9160605  58.8319241 155.2852456 120.1633851  70.1803370 155.8018330
 120.4556825  70.7408427 155.0830695 120.6732471  70.4731931 156.5571489
 107.0569815  62.4525798 155.0792546 106.8594214  61.8595159 154.3543613
 106.5016479  62.1478008 155.7968485 115.0366538  62.3448904 157.1987139
 115.0915148  61.3922741 157.1229616 114.2257740  62.5008344 157.6828438
 116.1857732  66.2729028 148.4365423 115.7477162  65.5564886 147.9771060
 116.9268173  66.5005142 147.8750514 112.9758898  60.9625964 154.9577518
 112.1626764  61.2620135 155.3642710 113.4717892  60.5681653 155.6752000
 115.1267476  70.9583721 156.8911783 115.0843655  71.1844567 155.9620315
 116.0430175  70.7247096 157.0397584 124.3030847  64.5486225 154.4941741
 124.1648745  64.7387821 153.5662930 123.9467066  65.3105607 154.9509792
 112.4672973  58.5344320 160.5738753 113.1072352  58.3933079 159.8761716
 111.6350503  58.2478833 160.1977355 124.3300226  66.6162752 159.5053013
 124.7636733  66.5238041 160.3536067 125.0431807  66.5920252 158.8673029
 113.2433277  67.8346750 156.6873746 114.0373875  67.3397070 156.4856321
 112.5324969  67.3064613 156.3241451 118.0628121  70.2164846 161.0386113
 118.1165144  70.7855782 161.8063829 117.1942903  70.3866731 160.6740150
 109.5516040  61.9789832 152.7633498 108.6213628  61.9174287 152.9803460
 109.6473512  61.4565785 151.9670140 109.4701589  58.5044645 155.3511740
 109.7308407  59.4189978 155.2420900 110.2918762  58.0369087 155.5008353
 110.9426515  59.9182402 162.5210564 111.6149568  59.7099764 161.8723213
 110.1156301  59.7204488 162.0815797 117.0216221  64.3825108 162.5973045
 117.9508281  64.5336267 162.4242012 116.6007251  64.4709128 161.7421692
 115.8204553  68.4075772 160.3671583 115.6815638  68.0394557 161.2397521
 115.0319149  68.9223412 160.1955540 116.4152705  73.5084869 151.7097119
 116.5904460  73.0372912 152.5242742 115.7285493  74.1350635 151.9378380
 117.3709768  67.7857375 157.7560420 117.0359601  67.7458145 158.6518070
 116.8713714  67.1202091 157.2830831 111.3454012  63.1925005 163.2813002
 111.2073810  62.4605244 163.8824541 112.2558935  63.1033905 162.9997189
 120.3068960  65.1313409 148.0297480 119.6898130  64.4060237 147.9330533
 119.8385448  65.8922769 147.6864554 113.9736313  62.9044964 162.7696681
 114.6835931  62.2638156 162.7283300 113.9305621  63.1557859 163.6922862
 112.6865247  59.8910182 164.5892321 112.1502604  59.4400921 165.2413917
 112.0981955  60.0256091 163.8462785 110.9813790  76.6574231 158.4836979
 111.2210388  77.2892756 159.1615998 110.1382986  76.3062271 158.7702339
 112.0967505  59.3498833 147.1518784 111.2196972  59.2287634 146.7881031
 112.5725259  58.5584912 146.8997673 103.6169646  64.1375993 157.2460292
 104.3040685  63.8237723 156.6581307 103.4617774  65.0417358 156.9727543
 108.4204368  59.0266190 161.6745315 108.3362556  58.4191859 160.9395725
 107.5987074  59.5175208 161.6754812 115.4941652  72.4653354 160.8878483
 115.4211823  73.2708325 161.3997788 115.0519045  72.6645320 160.0626505
 115.2831431  71.7025124 154.3981305 114.4998953  72.2446804 154.4919529
 115.9824177  72.2199103 154.7975546 118.5928082  57.5119753 157.0415510
 119.0896781  56.7589716 156.7216581 117.8215063  57.5484070 156.4758720
 119.6757862  66.2691440 154.6153934 118.7414141  66.3892903 154.4458638
 119.8534531  65.3663907 154.3513944 115.1763050  59.6537136 156.7687195
 114.8060838  59.1008177 157.4568100 115.6722143  59.0495270 156.2162195
 123.0630414  62.1108760 155.1503968 123.5290866  62.9436751 155.0764271
 123.5137914  61.6453741 155.8549226 113.0052249  70.1134631 163.8642213
 113.7061708  70.7471114 164.0171607 112.5347364  70.4549363 163.1037852
 121.1306645  68.4552581 152.1490120 121.4066489  68.3409176 153.0583994
 120.2611143  68.0570066 152.1102293 120.8053535  62.6679239 161.6894763
 120.1524985  62.9155146 161.0347216 121.1833915  61.8543377 161.3557240
 117.7660709  72.7038932 155.7922934 117.9483103  71.8860588 156.2550686
 118.5893695  72.9206624 155.3547823 118.1002874  71.6307117 153.0537982
 118.6290641  71.1199572 152.4408144 118.3631094  71.3149647 153.9183515
 108.6019967  69.6470986 160.7973316 109.1873404  68.9014674 160.9301220
 108.4044805  69.9574943 161.6809979 111.4558622  72.6822234 155.8135758
 110.7868997  73.1668361 155.3299798 111.3171492  72.9291454 156.7279136
 103.1937622  62.2176587 159.5177759 103.2321721  61.6840177 160.3114877
 102.6877915  61.6911792 158.8988736 110.5728384  57.0641127 163.0140301
 110.6369711  57.9255958 162.6017699 110.5095504  56.4515129 162.2812660
 110.0480657  59.1364260 166.6613335 110.6752695  58.7541337 167.2750860
 109.1908575  58.9178462 167.0269028 106.8246199  60.9440689 152.5931690
 107.1199640  60.0351367 152.5398744 105.9234235  60.9228428 152.2712692
 118.7332278  72.6647953 159.3982098 118.6083418  71.8637693 158.8893044
 119.3911369  73.1594146 158.9096068 110.3540446  59.0196685 158.5759239
 109.6327032  59.6332653 158.4366712 111.1433702  59.5554450 158.4975885
 120.7967186  70.4656973 161.0261649 119.8497522  70.3462324 160.9539975
 121.1449960  69.5779471 161.1087910 108.5534041  58.6254786 152.7171015
 108.2246747  57.7452165 152.5346121 108.9073412  58.5702455 153.6047404
 117.8013620  70.2609689 157.2266001 117.6538582  69.3326396 157.4073571
 118.6267113  70.2829780 156.7423076 111.6675864  58.9127756 153.0846493
 112.0071937  59.4413677 152.3625101 112.1147985  59.2508162 153.8605059
 121.4047742  71.0838248 158.3130874 122.3294289  70.8781109 158.1755325
 121.2363045  70.8354649 159.2220215 114.3619305  57.2964807 162.5349561
 114.0216125  56.4972620 162.9370241 113.6558311  57.5966518 161.9626394
 115.0135777  54.3814119 160.9876884 115.8361846  53.9074597 160.8655774
 115.2573840  55.1604603 161.4875570 113.6544011  57.4102378 151.2839786
 114.3752374  57.7883631 150.7803503 113.0309315  58.1291255 151.3874764
 117.7975134  58.1147527 152.2198118 118.0138748  58.9972165 151.9186946
 117.3169201  57.7233740 151.4903760 112.5374355  61.0733240 158.7968863
 112.3918936  61.3873543 159.6893144 112.0599559  61.6918140 158.2439761
 114.3970738  58.0635788 158.8449752 114.3832307  57.1676881 158.5082050
 115.1143166  58.0706452 159.4788038 116.2496869  58.4973128 160.8902880
 115.9914647  59.4190199 160.8887210 115.7181909  58.1003563 161.5803344
 121.1943058  71.6023915 153.6692965 121.3679935  71.0370338 152.9166817
 121.6871949  72.4024810 153.4872455 107.0120018  63.6138584 161.7356524
 106.4673486  64.3898392 161.8676798 107.8899367  63.9609389 161.5775645
 113.8007634  56.9450168 154.1137322 113.9223545  56.0166814 154.3128210
 113.5109677  56.9588854 153.2015638 116.6698825  54.6305079 157.2504042
 116.6920521  54.6944412 156.2956022 117.0866884  53.7909587 157.4444548
 127.0482449  64.3660338 155.2883265 127.4913595  63.6167663 154.8902388
 126.1708959  64.3570475 154.9056997 122.1818230  70.9190680 150.7689863
 122.8769135  71.5397372 150.9877178 122.5241380  70.0686031 151.0442241
 107.7986039  62.7408481 164.6286681 107.0567776  62.8891116 165.2151311
 107.4778784  63.0016746 163.7653430 124.0809653  68.3690385 152.2977194
 124.6060978  68.7077658 151.5726514 123.9932006  67.4337401 152.1140329
 115.7650314  74.4362368 156.6572447 115.3255304  73.9438747 157.3505304
 116.5158431  73.8935336 156.4164522 108.2442653  70.6273909 156.6597075
 109.0700673  70.3277681 156.2795719 107.8936705  69.8581532 157.1086864
 113.2124186  69.9800378 158.7294749 112.5904196  69.3171083 158.4296977
 113.8829053  70.0061509 158.0468397 106.4451258  68.5460236 157.6186009
 105.6083167  68.1182410 157.4370010 106.4174904  68.7392679 158.5556800
 112.7737693  68.5304301 152.2053209 112.9225814  69.2139765 151.5519882
 113.5804137  68.5109391 152.7202665 126.5915314  65.8365576 157.6805712
 127.4262205  66.2755381 157.8443273 126.7274442  65.3604230 156.8613958
 110.5290326  64.5569479 153.2114278 110.2836368  63.6531809 153.4094488
 110.6986241  64.5586629 152.2693756 109.7985974  60.2897836 150.7100440
 109.1055219  60.3642191 150.0540476 109.5537726  59.5258180 151.2321957
 116.2733099  71.0252431 149.6764957 115.7007066  71.6442618 149.2235429
 116.8465892  71.5751793 150.2104879 119.4930359  71.3089581 150.8073539
 120.4261032  71.2435143 151.0106415 119.4053571  72.1445848 150.3488072
 122.1218375  70.6255452 147.7677487 122.0432007  70.2915315 148.6613245
 122.9428042  71.1177220 147.7668959 116.6579897  62.3613244 147.0181009
 117.6039002  62.2319452 147.0869427 116.2794142  61.6227906 147.4950437
 114.8422814  60.2863220 146.9535895 113.9354270  59.9896333 147.0298608
 115.1198795  59.9893039 146.0870181 105.7600755  61.6069584 157.4034941
 105.4403539  60.7534892 157.1109315 105.2134183  61.8218162 158.1592908
 109.5380662  64.3232025 161.1204447 109.7566672  65.2549133 161.1392481
 109.9506436  63.9639999 161.9059251 116.4584880  54.8300110 153.1080136
 115.6485608  54.4847195 153.4835382 117.1469297  54.5207654 153.6967747
 118.3875428  53.9078157 154.7304432 118.9406467  54.3273610 155.3894456
 118.6245515  52.9813905 154.7727388 113.6121599  57.1450156 147.0947874
 114.4740763  57.4705054 147.3543691 113.7971943  56.3581652 146.5820940
 105.6289015  65.2272495 159.3728063 104.9352486  64.8126448 158.8598017
 106.3762006  65.2693032 158.7761481 121.7654235  56.0178682 154.2383097
 121.1852905  56.6763486 153.8561149 121.4990168  55.1956027 153.8270514
 120.2157802  55.4183740 156.4404417 120.7157580  55.5300274 155.6318736
 120.8593410  55.1144793 157.0805226 107.5425757  65.1590749 157.2494077
 107.5196445  65.2578436 156.2975961 107.8526394  66.0055900 157.5711244
 110.2013135  67.2166904 161.3640692 111.1556389  67.1850847 161.2970623
 110.0025659  66.7557528 162.1790918 110.7912517  65.7868020 163.9311490
 111.6105406  66.2812099 163.9546327 111.0649325  64.8699988 163.9029057
 120.5479114  58.1778773 153.2939445 119.6604969  58.4628423 153.0759640
 120.9633103  58.0172536 152.4466722 108.5563364  72.7586524 158.3810890
 108.4217832  71.9986925 157.8148888 108.1395426  73.4827424 157.9139679
 119.6922327  67.9423447 147.3887465 120.3958177  68.1473450 148.0045121
 118.9684976  68.5100209 147.6536549 120.5220137  63.6933308 153.5089735
 120.4655339  64.1501860 152.6697368 121.0748480  62.9323993 153.3312578
 124.3324943  59.4823040 154.3339855 124.0761877  59.0819676 155.1648062
 123.7077811  60.1966834 154.2089994 111.7132490  73.6555841 158.5929332
 111.5964874  74.6001273 158.4908023 110.8924936  73.3529402 158.9815132
 121.6009024  68.3805976 149.4385925 122.4354628  67.9487175 149.2563400
 121.4393367  68.2087990 150.3662820 121.2554917  64.8838090 150.8042264
 121.2003720  64.7182361 149.8630708 120.6300972  65.5914123 150.9604454
 106.0447432  60.1206154 164.6303687 106.6906295  59.6105108 165.1190912
 105.8364583  60.8574836 165.2047112 114.5651042  54.3846199 150.3827583
 114.5529712  55.3288039 150.5395854 115.4574464  54.2016344 150.0887044
 112.7387004  74.3084103 161.8085261 113.6414251  74.3407713 162.1251756
 112.5124374  73.3784554 161.8231597 114.4940606  73.0615089 158.4695339
 113.5436237  73.0616951 158.3559712 114.7973092  72.3147824 157.9531374
 118.3803161  50.9788975 154.6373520 117.6135557  50.4247462 154.7830202
 118.7913866  51.0510844 155.4987671 122.4025007  81.4598637 151.1701117
 123.1755883  80.9127624 151.0313993 122.7550406  82.3242886 151.3815578
 124.7391285  77.6191303 148.8019567 124.9916806  77.0972824 148.0403030
 123.8015844  77.4557448 148.9046250 124.4587574  79.5219409 151.0043942
 124.3423832  78.8464312 151.6725026 124.5689834  79.0351783 150.1876095
 126.4424602  74.0119456 149.7051979 126.6099004  74.8799692 150.0722450
 126.2521771  74.1746737 148.7813269 126.4213823  76.4677113 150.6898646
 126.3013448  76.9134164 151.5284126 125.7266411  76.8162431 150.1312184
 132.1198889  76.9398586 151.5178980 133.0316745  77.1725973 151.3426678
 131.6108536  77.5235631 150.9554059 125.2165319  77.7821965 152.9832212
 125.9189362  78.2343009 153.4506138 124.8845948  77.1405784 153.6112105
 118.9590653  76.0405518 158.2849345 118.1689707  76.2963047 157.8089456
 119.4501900  76.8553856 158.3901386 120.9105398  76.4050097 155.2432822
 120.1136562  76.5168792 155.7616318 120.6830991  76.7436749 154.3773713
 119.9088481  82.1138346 153.6322242 120.4213002  82.9081596 153.7827807
 120.5611194  81.4164636 153.5655844 117.8737398  80.4427000 154.4081813
 118.7112620  80.8524009 154.1915520 118.0515666  79.5026442 154.3782007
 129.7701830  78.1102081 150.0965646 129.2548453  78.8806686 150.3354033
 129.4979138  77.4367217 150.7198707 127.3548941  72.9551782 155.1550884
 126.4990537  72.5658632 154.9756523 127.7675893  73.0343743 154.2950670
 125.1290974  70.5736855 158.5608626 125.9943970  70.3779663 158.2014515
 125.1968482  70.3447207 159.4877982 129.5588133  75.9829173 151.9225427
 129.2538269  76.2975322 152.7735570 130.5118575  76.0610593 151.9652760
 122.7353293  72.8039063 155.9324992 123.3097045  72.5814244 155.1998185
 123.3224275  72.8727757 156.6853594 123.0622880  74.8343524 149.9520878
 122.2260192  75.1718210 150.2730152 122.9227649  74.6992503 149.0148015
 125.0375960  69.6780312 154.6600062 124.3840373  69.3629329 154.0356677
 124.9956434  69.0556052 155.3859885 126.1487165  79.9599607 146.5753354
 125.2414227  79.7288860 146.7744503 126.6458197  79.1637226 146.7627335
 127.3275399  80.0612202 151.0977344 126.4186618  79.7771234 151.1949814
 127.3570482  80.4811280 150.2380651 117.8963569  77.7817716 155.0792546
 117.6987969  77.1887076 154.3543613 117.3410233  77.4769926 155.7968485
 127.0251486  81.6020945 148.4365423 126.5870916  80.8856804 147.9771060
 127.7661927  81.8297060 147.8750514 123.8152653  76.2917882 154.9577518
 123.0020518  76.5912052 155.3642710 124.3111647  75.8973571 155.6752000
 120.3909795  77.3081750 152.7633498 119.4607383  77.2466205 152.9803460
 120.4867267  76.7857702 151.9670140 120.3095344  73.8336562 155.3511740
 120.5702161  74.7481896 155.2420900 121.1312516  73.3661005 155.5008353
 131.1462714  80.4605327 148.0297480 130.5291885  79.7352155 147.9330533
 130.6779203  81.2214687 147.6864554 122.9361260  74.6790751 147.1518784
 122.0590726  74.5579552 146.7881031 123.4119013  73.8876829 146.8997673
 114.4563400  79.4667911 157.2460292 115.1434440  79.1529641 156.6581307
 114.3011529  80.3709275 156.9727543 129.4321836  72.8411671 157.0415510
 129.9290536  72.0881633 156.7216581 128.6608818  72.8775988 156.4758720
 126.0156805  74.9829054 156.7687195 125.6454592  74.4300094 157.4568100
 126.5115897  74.3787187 156.2162195 114.0331376  77.5468504 159.5177759
 114.0715476  77.0132095 160.3114877 113.5271669  77.0203710 158.8988736
 117.6639954  76.2732606 152.5931690 117.9593395  75.3643285 152.5398744
 116.7627990  76.2520346 152.2712692 121.1934201  74.3488603 158.5759239
 120.4720787  74.9624571 158.4366712 121.9827457  74.8846368 158.4975885
 119.3927795  73.9546704 152.7171015 119.0640502  73.0744083 152.5346121
 119.7467166  73.8994373 153.6047404 122.5069619  74.2419674 153.0846493
 122.8465691  74.7705595 152.3625101 122.9541739  74.5800080 153.8605059
 124.4937766  72.7394295 151.2839786 125.2146128  73.1175548 150.7803503
 123.8703070  73.4583172 151.3874764 128.6368889  73.4439444 152.2198118
 128.8532503  74.3264082 151.9186946 128.1562956  73.0525658 151.4903760
 124.6401389  72.2742086 154.1137322 124.7617300  71.3458732 154.3128210
 124.3503431  72.2880772 153.2015638 127.5092579  69.9596996 157.2504042
 127.5314276  70.0236329 156.2956022 127.9260638  69.1201505 157.4444548
 123.6131448  83.8596219 152.2053209 123.7619568  84.5431683 151.5519882
 124.4197891  83.8401309 152.7202665 121.3684081  79.8861396 153.2114278
 121.1230123  78.9823726 153.4094488 121.5379995  79.8878547 152.2693756
 120.6379728  75.6189754 150.7100440 119.9448973  75.6934109 150.0540476
 120.3931480  74.8550097 151.2321957 127.4973652  77.6905162 147.0181009
 128.4432756  77.5611370 147.0869427 127.1187897  76.9519824 147.4950437
 125.6816569  75.6155138 146.9535895 124.7748024  75.3188251 147.0298608
 125.9592550  75.3184956 146.0870181 116.5994509  76.9361502 157.4034941
 116.2797294  76.0826810 157.1109315 116.0527937  77.1510080 158.1592908
 127.2978635  70.1592028 153.1080136 126.4879363  69.8139113 153.4835382
 127.9863052  69.8499572 153.6967747 129.2269183  69.2370075 154.7304432
 129.7800222  69.6565528 155.3894456 129.4639269  68.3105823 154.7727388
 124.4515354  72.4742073 147.0947874 125.3134518  72.7996972 147.3543691
 124.6365698  71.6873569 146.5820940 132.6047990  71.3470600 154.2383097
 132.0246659  72.0055404 153.8561149 132.3383923  70.5247944 153.8270514
 131.0551556  70.7475658 156.4404417 131.5551335  70.8592192 155.6318736
 131.6987164  70.4436710 157.0805226 131.3872868  73.5070690 153.2939445
 130.4998723  73.7920341 153.0759640 131.8026857  73.3464454 152.4466722
 130.5316081  83.2715365 147.3887465 131.2351932  83.4765367 148.0045121
 129.8078730  83.8392127 147.6536549 132.0948671  80.2130007 150.8042264
 132.0397475  80.0474279 149.8630708 131.4694726  80.9206040 150.9604454
 125.4044797  69.7138116 150.3827583 125.3923466  70.6579956 150.5395854
 126.2968218  69.5308262 150.0887044 129.2196916  66.3080893 154.6373520
 128.4529312  65.7539380 154.7830202 129.6307621  66.3802762 155.4987671
  95.9588118  15.3895869 137.4959289  95.3076098  15.9749950 137.1093303
  96.7532481  15.9202064 137.5554326  89.8843745  12.4785006 137.8946423
  90.6574621  11.9313994 137.7559299  90.2369144  13.3429256 138.1060885
  92.2210023   8.6377673 135.5264873  92.4735544   8.1159194 134.7648336
  91.2834582   8.4743818 135.6291557  97.4363383  13.0786301 138.0328273
  96.8009216  13.1520928 138.7449178  97.1060790  13.6679900 137.3547353
  91.9406312  10.5405779 137.7289248  91.8242570   9.8650682 138.3970333
  92.0508572  10.0538152 136.9121401  93.9243340   5.0305825 136.4297286
  94.0917742   5.8986062 136.7967757  93.7340509   5.1933107 135.5058575
  93.9032560   7.4863483 137.4143953  93.7832186   7.9320534 138.2529433
  93.2085149   7.8348801 136.8557491  91.6639453  20.2567125 141.0634084
  91.5863482  21.2074950 141.1422565  91.0601096  19.9112997 141.7209010
  99.6017627   7.9584956 138.2424287 100.5135483   8.1912343 138.0671984
  99.0927274   8.5422000 137.6799365 102.0876441  13.8765212 142.9882232
 101.4027479  14.2564114 142.4379265 102.1720290  14.4860539 143.7214180
  93.9377821  15.6149278 139.7839624  93.8023496  16.4600813 140.2124472
  94.4787634  15.8168555 139.0205558  97.2520568   9.1288451 136.8210952
  96.7367191   9.8993055 137.0599340  96.9797876   8.4553587 137.4444014
 102.2254842  11.8820805 138.7564126 101.4484285  11.5431965 138.3119288
 102.9046323  11.8873428 138.0819091  97.0406871   7.0015543 138.6470733
  96.7357007   7.3161692 139.4980877  97.9937313   7.0796963 138.6898066
  95.4853303  13.1605766 140.2963687  94.9574664  12.4258526 139.9836925
  94.9840806  13.9380442 140.0503656  93.6305903  10.9785976 133.2998660
  92.7232965  10.7475230 133.4989809  94.1276935  10.1823595 133.4872642
  96.5373982  19.6883483 136.2195347  95.8635681  19.9915180 136.8280304
  96.9239804  20.4912564 135.8700804  94.8094136  11.0798571 137.8222651
  93.9005356  10.7957604 137.9195120  94.8389220  11.4997650 136.9625957
 100.0413404  14.6905161 141.5913818  99.5875731  13.8496070 141.6479009
  99.4107371  15.3266559 141.9288598  98.4846343  16.5281657 142.5263636
  98.7769317  17.0886714 141.8076002  98.9944964  16.8210218 143.2816795
  94.5070224  12.6207315 135.1610729  94.0689654  11.9043174 134.7016367
  95.2480665  12.8483430 134.5995821  93.4479968  17.3062008 143.6157090
  93.4056147  17.5322855 142.6865622  94.3642667  17.0725383 143.7642891
 102.6243339  10.8964512 141.2187048 102.4861238  11.0866108 140.2908237
 102.2679558  11.6583895 141.6755099  94.7365197  19.8563156 138.4342426
  94.9116953  19.3851199 139.2488049  94.0497985  20.4828922 138.6623687
  98.6281452  11.4791696 134.7542787  98.0110622  10.7538525 134.6575839
  98.1597940  12.2401057 134.4109861  89.3026282  23.0052519 145.2082286
  89.5422881  23.6371043 145.8861305  88.4595479  22.6540559 145.4947645
  90.4179998   5.6977121 133.8764091  89.5409464   5.5765921 133.5126338
  90.8937751   4.9063199 133.6242980  93.6043924  18.0503411 141.1226612
  92.8211446  18.5925091 141.2164836  94.3036669  18.5677391 141.5220853
  97.9970355  12.6169728 141.3399240  97.0626633  12.7371190 141.1703945
  98.1747023  11.7142195 141.0759250 101.3842906   8.4587047 141.8749274
 101.8503358   9.2915039 141.8009577 101.8350406   7.9932029 142.5794533
  99.4519137  14.8030868 138.8735427  99.7278981  14.6887463 139.7829301
  98.5823636  14.4048353 138.8347600  96.0873201  19.0517219 142.5168240
  96.2695596  18.2338875 142.9795992  96.9106187  19.2684911 142.0793130
  96.4215367  17.9785404 139.7783289  96.9503133  17.4677859 139.1653451
  96.6843586  17.6627934 140.6428822  89.7771114  19.0300521 142.5381065
  89.1081490  19.5146649 142.0545105  89.6383984  19.2769741 143.4524443
  97.0544770  19.0126240 146.1227405  96.9295910  18.2115980 145.6138351
  97.7123861  19.5072433 145.6341375  96.1226112  16.6087976 143.9511307
  95.9751074  15.6804684 144.1318877  96.9479606  16.6308067 143.4668383
  99.7260234  17.4316535 145.0376180 100.6506781  17.2259396 144.9000631
  99.5575537  17.1832936 145.9465522  99.5155550  17.9502202 140.3938272
  99.6892428  17.3848625 139.6412124 100.0084441  18.7503097 140.2117762
 105.3694941  10.7138625 142.0128571 105.8126087   9.9645951 141.6147695
 104.4921452  10.7048762 141.6302303 100.5030723  17.2668967 137.4935170
 101.1981627  17.8875660 137.7122485 100.8453873  16.4164318 137.7687548
 102.4022146  14.7168672 139.0222501 102.9273470  15.0555945 138.2971821
 102.3144498  13.7815688 138.8385635  94.0862806  20.7840656 143.3817754
  93.6467797  20.2917034 144.0750611  94.8370923  20.2413623 143.1409829
  91.0950185  14.8782588 138.9298516  91.2438306  15.5618053 138.2765189
  91.9016629  14.8587678 139.4447972 104.9127806  12.1843864 144.4051019
 105.7474697  12.6233668 144.5688579 105.0486935  11.7082517 143.5859265
  94.5945591  17.3730719 136.4010263  94.0219558  17.9920906 135.9480735
  95.1678385  17.9230080 136.9350185  97.8142851  17.6567869 137.5318846
  98.7473524  17.5913430 137.7351721  97.7266064  18.4924136 137.0733378
 100.4430867  16.9733739 134.4922793 100.3644499  16.6393603 135.3858551
 101.2640534  17.4655507 134.4914266  94.9792390   8.7091531 133.7426316
  95.9251494   8.5797739 133.8114734  94.6006634   7.9706193 134.2195744
  93.1635307   6.6341508 133.6781201  92.2566762   6.3374620 133.7543915
  93.4411288   6.3371326 132.8115487  91.9334091   3.4928443 133.8193180
  92.7953255   3.8183341 134.0788998  92.1184435   2.7059939 133.3066246
  98.0134819  14.2901734 134.1132772  98.7170669  14.4951737 134.7290427
  97.2897468  14.8578496 134.3781855  98.8432630  10.0411596 140.2335042
  98.7867831  10.4980147 139.3942674  99.3960972   9.2802280 140.0557885
  99.9221517  14.7284264 136.1631232 100.7567121  14.2965462 135.9808706
  99.7605860  14.5566277 137.0908126  99.5767409  11.2316377 137.5287571
  99.5216213  11.0660648 136.5876015  98.9513464  11.9392410 137.6849761
  92.8153098  19.4093376 145.1940646  91.8648729  19.4095238 145.0805018
  93.1185584  18.6626111 144.6776681 108.5505792  25.2453915 146.2586408
 109.1884202  25.1260662 145.5549749 108.4326635  26.1934759 146.3174361
 105.3595498  25.1981343 146.1947933 105.0214010  25.0822408 145.3068468
 106.2285266  24.7972508 146.1748939 101.2182314  27.0516819 142.1844824
 100.6547179  26.9606756 141.4161112 101.1034709  26.2316724 142.6647317
 105.8415281  26.3516195 152.1534139 105.8303922  25.9568993 151.2814642
 106.0035921  25.6182267 152.7467910  98.7646746  28.5468011 145.0229045
  99.5568038  28.2058836 144.6075344  99.0043396  28.6562986 145.9431198
 106.7981872  30.7187787 137.4959289 106.1469852  31.3041867 137.1093303
 107.5926235  31.2493982 137.5554326 100.7237500  27.8076924 137.8946423
 101.4968376  27.2605911 137.7559299 101.0762898  28.6721173 138.1060885
 102.5622542  29.1353306 151.1013323 102.2712408  30.0398937 150.9859989
 103.1979527  29.1769834 151.8157392 103.4878749  26.5130155 147.6914682
 104.0842321  26.2886177 146.9771645 103.5453721  25.7714900 148.2940130
 103.0603777  23.9669590 135.5264873 103.3129298  23.4451112 134.7648336
 102.1228337  23.8035736 135.6291557 108.1047060  22.9705369 143.3339616
 108.8910149  22.5524792 142.9830033 108.3685765  23.8751461 143.5021265
 108.2757138  28.4078219 138.0328273 107.6402971  28.4812845 138.7449178
 107.9454544  28.9971818 137.3547353 102.7800066  25.8697696 137.7289248
 102.6636324  25.1942600 138.3970333 102.8902326  25.3830070 136.9121401
 105.1231607  25.3307843 141.4335937 104.7589814  24.8038464 142.1448859
 105.9798723  24.9406312 141.2602423 104.7637094  20.3597743 136.4297286
 104.9311496  21.2277979 136.7967757 104.5734263  20.5225025 135.5058575
 107.5212427  28.8214722 148.0963116 107.2213150  29.7239761 147.9878924
 107.1763487  28.5546905 148.9484269 100.9724909  25.2728519 144.1299821
 100.0475405  25.1404733 144.3377513 101.2209322  26.0522738 144.6269763
 110.9209571  21.3397262 145.7760554 110.0126448  21.2712671 145.4819315
 110.8697167  21.8169207 146.6042379 104.7426315  22.8155401 137.4143953
 104.6225940  23.2612451 138.2529433 104.0478903  23.1640718 136.8557491
  98.3333720  24.9161792 144.9643610  98.4626101  25.1696271 145.8783022
  97.6531171  25.5089500 144.6448265 102.5033207  35.5859042 141.0634084
 102.4257237  36.5366867 141.1422565 101.8994851  35.2404915 141.7209010
 110.4411381  23.2876874 138.2424287 111.3529237  23.5204260 138.0671984
 109.9321028  23.8713918 137.6799365 103.2496809  25.5672361 153.2813418
 103.9911494  26.1057405 153.0048242 102.5433795  26.1938650 153.4384970
 108.7252149  27.7101502 151.8785579 109.1335505  27.2683912 151.1340212
 108.0029410  27.1354129 152.1319772 105.0783219  22.6474108 149.2519136
 105.9244414  23.0713522 149.3953785 105.0181856  21.9907733 149.9457699
 109.0480963  28.2702692 145.6337868 108.4189826  28.4348406 144.9313936
 108.6606626  28.6844302 146.4048832 112.9270195  29.2057130 142.9882232
 112.2421233  29.5856031 142.4379265 113.0114045  29.8152457 143.7214180
 110.1821127  26.8517089 149.5877576 110.3938022  27.4948849 148.9111957
 110.1350875  26.0179406 149.1199506 107.7847356  19.4634910 146.4914148
 106.9231835  19.7616163 146.7830885 107.8109791  19.6805309 145.5595180
 104.6008925  28.0077100 142.8987953 105.0647271  28.2864803 142.1092576
 104.3365723  27.1060545 142.7161044 101.4933006  27.5548582 145.8367717
 102.0634363  27.9835850 145.1985201 102.0841118  27.2731166 146.5351902
 103.5377811  24.1300253 139.7077519 104.2401855  24.5821296 140.1751445
 103.2058440  23.4884071 140.3357412  97.2803145  22.3883805 145.0094652
  96.4902199  22.6441334 144.5334763  97.7714393  23.2032143 145.1146693
 111.2966955  29.7289044 147.7599933 112.1184399  29.3269232 147.4782615
 111.2929358  29.6257279 148.7116049  99.2317891  22.7528385 141.9678129
  98.4349054  22.8647079 142.4861624  99.0043483  23.0915037 141.1019019
 105.0623558  29.2773088 149.9160643 105.1267991  29.7393495 150.7518815
 104.3534482  28.6470453 150.0442953  95.5640848  22.6414296 147.4409643
  95.8148887  23.5261306 147.7067219  96.1000397  22.4618897 146.6684735
 104.7771576  30.9441195 139.7839624 104.6417251  31.7892731 140.2124472
 105.3181388  31.1460473 139.0205558  98.2300973  28.4616633 140.3567549
  98.7425494  29.2559884 140.5073114  98.8823686  27.7642924 140.2901150
 100.0395858  31.5782390 142.4390302 100.2162486  32.5000354 142.2511286
 100.8352692  31.2640809 142.8684682 106.4040052  31.5664762 153.9139966
 105.9603907  30.7801140 153.5960870 107.0657266  31.7543912 153.2483857
 101.1627174  33.0960563 148.4400644 101.7134599  32.9677627 147.6677638
 100.3238649  33.3955452 148.0895537 108.5021290  31.8467562 151.9421367
 108.4839766  32.6676443 151.4501636 109.4241210  31.7221637 152.1671508
 104.9594345  29.3611691 152.7844875 105.4922681  28.5999979 152.5544183
 104.4308426  29.0685343 153.5269030  96.1949890  26.7905288 141.1327119
  97.0325112  27.2002296 140.9160827  96.3728158  25.8504730 141.1027313
 108.0914322  24.4580368 136.8210952 107.5760946  25.2284973 137.0599340
 107.8191631  23.7845504 137.4444014 105.6761433  19.3030069 141.8796191
 104.8203030  18.9136919 141.7001829 106.0888385  19.3822030 141.0195976
 107.2060580  16.8376412 146.2787750 106.7025376  16.8006547 145.4655556
 107.4991187  17.7469155 146.3384407 103.4503466  16.9215142 145.2853932
 104.3156463  16.7257951 144.9259822 103.5180975  16.6925494 146.2123289
 113.0648596  27.2112723 138.7564126 112.2878039  26.8723882 138.3119288
 113.7440077  27.2165346 138.0819091 107.8800625  22.3307460 138.6470733
 107.5750761  22.6453609 139.4980877 108.8331068  22.4088880 138.6898066
 106.3247057  28.4897684 140.2963687 105.7968419  27.7550443 139.9836925
 105.8234560  29.2672360 140.0503656 111.3039903  26.6846704 145.4130734
 110.6463578  27.3745966 145.5010862 112.1080303  27.0743136 145.7564720
 101.0565785  19.1517350 142.6570299 101.6309537  18.9292531 141.9243492
 101.6436767  19.2206044 143.4098900 110.1145362  25.0391077 143.4634676
 110.6277244  25.6721069 143.9656385 110.7646586  24.4392272 143.0978036
 101.3835372  21.1821811 136.6766184 100.5472684  21.5196497 136.9975459
 101.2440142  21.0470791 135.7393321 103.3588453  16.0258599 141.3845368
 102.7052865  15.7107616 140.7601983 103.3168927  15.4034339 142.1105191
 104.4699657  26.3077894 133.2998660 103.5626719  26.0767147 133.4989809
 104.9670689  25.5115513 133.4872642 107.3767736  35.0175401 136.2195347
 106.7029435  35.3207098 136.8280304 107.7633558  35.8204481 135.8700804
 106.5926193  22.5140532 145.7093016 105.6748754  22.7355479 145.5514704
 107.0086337  22.5886843 144.8504723 107.3761241  23.9131948 140.8395696
 108.1233060  24.4253345 140.5302818 107.6452830  23.5916001 141.7000090
 105.6487891  26.4090489 137.8222651 104.7399110  26.1249522 137.9195120
 105.6782975  26.8289567 136.9625957 110.8807158  30.0197078 141.5913818
 110.4269485  29.1787988 141.6479009 110.2501125  30.6558477 141.9288598
 109.8240078  20.9489064 142.8214486 109.0862835  20.4366450 143.1524728
 110.0766851  20.5089446 142.0097762 109.3240098  31.8573575 142.5263636
 109.6163072  32.4178632 141.8076002 109.8338718  32.1502136 143.2816795
  96.2176061  24.1296003 141.8037853  96.0200461  23.5365364 141.0788919
  95.6622725  23.8248213 142.5213792 104.1972785  24.0219109 143.9232446
 104.2521395  23.0692946 143.8474923 103.3863987  24.1778548 144.4073744
 105.3463979  27.9499232 135.1610729 104.9083409  27.2335091 134.7016367
 106.0874420  28.1775347 134.5995821 102.1365145  22.6396169 141.6822825
 101.3233010  22.9390340 142.0888017 102.6324139  22.2451858 142.3997307
 104.2873723  32.6353926 143.6157090 104.2449902  32.8614772 142.6865622
 105.2036422  32.4017301 143.7642891 113.4637093  26.2256429 141.2187048
 113.3254992  26.4158025 140.2908237 113.1073312  26.9875812 141.6755099
 101.6279220  20.2114525 147.2984060 102.2678599  20.0703284 146.6007023
 100.7956750  19.9249038 146.9222662 113.4906473  28.2932956 146.2298319
 113.9242980  28.2008246 147.0781373 114.2038054  28.2690457 145.5918335
 102.4039524  29.5116955 143.4119052 103.1980122  29.0167275 143.2101627
 101.6931216  28.9834818 143.0486758 107.2234368  31.8935051 147.7631420
 107.2771390  32.4625987 148.5309136 106.3549149  32.0636936 147.3985457
  98.7122287  23.6560037 139.4878805  97.7819875  23.5944492 139.7048767
  98.8079759  23.1335990 138.6915446  98.6307836  20.1814850 142.0757047
  98.8914653  21.0960183 141.9666207  99.4525008  19.7139292 142.2253659
 100.1032761  21.5952607 149.2455871 100.7755815  21.3869969 148.5968520
  99.2762548  21.3974693 148.8061103 106.1822468  26.0595313 149.3218352
 107.1114528  26.2106472 149.1487319 105.7613498  26.1479333 148.4666998
 104.9810800  30.0845977 147.0916889 104.8421885  29.7164761 147.9642827
 104.1925396  30.5993616 146.9200847 105.5758951  35.1855073 138.4342426
 105.7510707  34.7143117 139.2488049 104.8891740  35.8120840 138.6623687
 106.5316015  29.4627580 144.4805727 106.1965847  29.4228350 145.3763377
 106.0319960  28.7972296 144.0076137 100.5060259  24.8695210 150.0058308
 100.3680057  24.1375449 150.6069847 101.4165182  24.7804110 149.7242496
 109.4675206  26.8083614 134.7542787 108.8504377  26.0830442 134.6575839
 108.9991695  27.5692974 134.4109861 103.1342559  24.5815169 149.4941988
 103.8442178  23.9408361 149.4528606 103.0911867  24.8328064 150.4168169
 100.1420037  38.3344436 145.2082286 100.3816635  38.9662960 145.8861305
  99.2989233  37.9832476 145.4947645 101.2573752  21.0269038 133.8764091
 100.3803219  20.9057839 133.5126338 101.7331505  20.2355117 133.6242980
  92.7775892  25.8146198 143.9705598  93.4646932  25.5007928 143.3826614
  92.6224021  26.7187563 143.6972850 104.6547899  34.1423559 147.6123790
 104.5818070  34.9478530 148.1243095 104.2125292  34.3415525 146.7871811
 104.4437678  33.3795329 141.1226612 103.6605200  33.9217009 141.2164836
 105.1430423  33.8969308 141.5220853 107.7534328  19.1889958 143.7660817
 108.2503028  18.4359921 143.4461887 106.9821310  19.2254275 143.2004026
 107.1146582  34.0410393 149.7681949 107.8274554  34.6757858 149.6957850
 106.6236611  34.1374259 148.9521951 108.8364109  27.9461645 141.3399240
 107.9020388  28.0663108 141.1703945 109.0140778  27.0434112 141.0759250
 104.3369297  21.3307341 143.4932502 103.9667085  20.7778382 144.1813407
 104.8328390  20.7265475 142.9407502 112.2236660  23.7878965 141.8749274
 112.6897113  24.6206956 141.8009577 112.6744161  23.3223946 142.5794533
 102.1658496  31.7904836 150.5887519 102.8667955  32.4241319 150.7416914
 101.6953611  32.1319568 149.8283159 110.2912892  30.1322786 138.8735427
 110.5672735  30.0179381 139.7829301 109.4217390  29.7340271 138.8347600
 109.9659782  24.3449444 148.4140070 109.3131232  24.5925351 147.7592523
 110.3440162  23.5313582 148.0802547 106.9266956  34.3809137 142.5168240
 107.1089350  33.5630793 142.9795992 107.7499942  34.5976829 142.0793130
 107.2609121  33.3077322 139.7783289 107.7896887  32.7969777 139.1653451
 107.5237341  32.9919852 140.6428822  97.7626214  31.3241191 147.5218622
  98.3479651  30.5784879 147.6546526  97.5651052  31.6345148 148.4055286
 100.6164869  34.3592439 142.5381065  99.9475244  34.8438566 142.0545105
 100.4777739  34.6061659 143.4524443  92.3543868  23.8946791 146.2423065
  92.3927968  23.3610382 147.0360183  91.8484161  23.3681997 145.6234042
 104.7570138  36.3936182 149.1363723 105.3088446  36.5567804 149.9012808
 105.0976331  36.9840620 148.4643748  95.9852446  22.6210894 139.3176997
  96.2805887  21.7121572 139.2644050  95.0840482  22.5998633 138.9957999
 107.8938525  34.3418158 146.1227405 107.7689664  33.5407898 145.6138351
 108.5517616  34.8364351 145.6341375  99.5146693  20.6966890 145.3004545
  98.7933279  21.3102858 145.1612019 100.3039949  21.2324655 145.2221191
 109.9573433  32.1427178 147.7506955 109.0103769  32.0232529 147.6785282
 110.3056206  31.2549676 147.8333217  97.7140288  20.3024991 139.4416322
  97.3852994  19.4222370 139.2591428  98.0679658  20.2472660 140.3292711
 106.9619867  31.9379894 143.9511307 106.8144829  31.0096601 144.1318877
 107.7873360  31.9599985 143.4668383 100.8282111  20.5897961 139.8091800
 101.1678183  21.1183882 139.0870408 101.2754231  20.9278367 140.5850366
 110.5653988  32.7608453 145.0376180 111.4900536  32.5551314 144.9000631
 110.3969292  32.5124854 145.9465522 104.1742023  16.0584324 147.7122191
 104.9968093  15.5844802 147.5901081 104.4180087  16.8374808 148.2120877
 102.8150258  19.0872583 138.0085092 103.5358620  19.4653835 137.5048809
 102.1915562  19.8061459 138.1120070 106.9581381  19.7917732 138.9443425
 107.1744995  20.6742370 138.6432253 106.4775448  19.4003945 138.2149067
 101.6980602  22.7503445 145.5214169 101.5525183  23.0643748 146.4138451
 101.2205806  23.3688345 144.9685068 103.5576985  19.7405993 145.5695059
 103.5438554  18.8447086 145.2327357 104.2749413  19.7476657 146.2033345
 105.4103116  20.1743333 147.6148186 105.1520894  21.0960404 147.6132517
 104.8788156  19.7773768 148.3048650 110.3549305  33.2794120 140.3938272
 110.5286182  32.7140543 139.6412124 110.8478196  34.0795015 140.2117762
  96.1726264  25.2908789 148.4601830  95.6279732  26.0668597 148.5922105
  97.0505614  25.6379594 148.3020952 102.9613881  18.6220373 140.8382629
 103.0829792  17.6937019 141.0373516 102.6715923  18.6359059 139.9260944
 105.8305071  16.3075284 143.9749349 105.8526768  16.3714617 143.0201328
 106.2473130  15.4679792 144.1689855 116.2088696  26.0430543 142.0128571
 116.6519842  25.2937868 141.6147695 115.3315206  26.0340679 141.6302303
 111.3424477  32.5960885 137.4935170 112.0375382  33.2167577 137.7122485
 111.6847627  31.7456236 137.7687548 113.2415900  30.0460590 139.0222501
 113.7667224  30.3847863 138.2971821 113.1538253  29.1107605 138.8385635
 104.9035949  33.9594664 151.1512377 105.2123075  33.7143811 152.0235077
 105.7011431  34.1641302 150.6631248 104.9256561  36.1132573 143.3817754
 104.4861551  35.6208952 144.0750611 105.6764678  35.5705541 143.1409829
  97.4048900  32.3044114 143.3842382  98.2306920  32.0047886 143.0041025
  97.0542952  31.5351737 143.8332171 102.3730433  31.6570582 145.4540056
 101.7510442  30.9941287 145.1542283 103.0435300  31.6831714 144.7713703
  95.6057505  30.2230441 144.3431316  94.7689413  29.7952615 144.1615317
  95.5781150  30.4162884 145.2802107 101.9343940  30.2074506 138.9298516
 102.0832060  30.8909970 138.2765189 102.7410383  30.1879596 139.4447972
 115.7521560  27.5135781 144.4051019 116.5868452  27.9525585 144.5688579
 115.8880689  27.0374435 143.5859265  99.6896573  26.2339683 139.9359585
  99.4442615  25.3302013 140.1339795  99.8592488  26.2356834 138.9939063
  98.9592221  21.9668041 137.4345746  98.2661465  22.0412396 136.7785782
  98.7143972  21.2028385 137.9567263 105.4339346  32.7022636 136.4010263
 104.8613313  33.3212823 135.9480735 106.0072139  33.2521998 136.9350185
 108.6536605  32.9859786 137.5318846 109.5867278  32.9205348 137.7351721
 108.5659818  33.8216053 137.0733378 111.2824622  32.3025657 134.4922793
 111.2038254  31.9685520 135.3858551 112.1034289  32.7947425 134.4914266
 105.8186144  24.0383449 133.7426316 106.7645249  23.9089657 133.8114734
 105.4400389  23.2998111 134.2195744 104.0029061  21.9633425 133.6781201
 103.0960517  21.6666538 133.7543915 104.2805042  21.6663243 132.8115487
  94.9207002  23.2839789 144.1280248  94.6009786  22.4305097 143.8354622
  94.3740430  23.4988367 144.8838215  98.6986909  26.0002230 147.8449754
  98.9172919  26.9319338 147.8637788  99.1112683  25.6410204 148.6304558
 105.6191127  16.5070315 139.8325442 104.8091855  16.1617400 140.2080689
 106.3075544  16.1977859 140.4213054 107.5481675  15.5848362 141.4549739
 108.1012714  16.0043815 142.1139762 107.7851762  14.6584110 141.4972695
 102.7727846  18.8220361 133.8193180 103.6347010  19.1475259 134.0788998
 102.9578190  18.0351857 133.3066246  94.7895262  26.9042700 146.0973369
  94.0958733  26.4896653 145.5843324  95.5368253  26.9463237 145.5006788
 110.9260482  17.6948887 140.9628403 110.3459151  18.3533691 140.5806456
 110.6596415  16.8726232 140.5515821 109.3764049  17.0953945 143.1649724
 109.8763827  17.2070479 142.3564043 110.0199657  16.7914998 143.8050532
  96.7032004  26.8360954 143.9739384  96.6802692  26.9348641 143.0221267
  97.0132641  27.6826105 144.2956550  99.3619382  28.8937109 148.0885998
 100.3162636  28.8621051 148.0215930  99.1631906  28.4327733 148.9036224
  99.9518764  27.4638225 150.6556796 100.7711653  27.9582304 150.6791633
 100.2255572  26.5470193 150.6274364 109.7085360  19.8548977 140.0184752
 108.8211215  20.1398628 139.8004946 110.1239349  19.6942741 139.1712029
  97.7169611  34.4356729 145.1056196  97.5824079  33.6757129 144.5394194
  97.3001673  35.1597628 144.6384985 108.8528574  29.6193652 134.1132772
 109.5564424  29.8243655 134.7290427 108.1291223  30.1870414 134.3781855
 109.6826384  25.3703513 140.2335042 109.6261585  25.8272065 139.3942674
 110.2354726  24.6094198 140.0557885 113.4931190  21.1593245 141.0585161
 113.2368124  20.7589881 141.8893369 112.8684058  21.8737039 140.9335300
 100.8738737  35.3326046 145.3174639 100.7571121  36.2771478 145.2153329
 100.0531183  35.0299607 145.7060438 110.7615271  30.0576181 136.1631232
 111.5960875  29.6257380 135.9808706 110.5999614  29.8858195 137.0908126
 110.4161163  26.5608295 137.5287571 110.3609967  26.3952566 136.5876015
 109.7907219  27.2684328 137.6849761 103.7257289  16.0616404 137.1072889
 103.7135959  17.0058244 137.2641160 104.6180711  15.8786549 136.8132351
 101.8993251  35.9854308 148.5330567 102.8020497  36.0177918 148.8497062
 101.6730621  35.0554758 148.5476903 103.6546853  34.7385294 145.1940646
 102.7042484  34.7387156 145.0805018 103.9579339  33.9918029 144.6776681
 107.5409408  12.6559180 141.3618826 106.7741804  12.1017667 141.5075509
 107.9520113  12.7281049 142.2232978 119.3899546  40.5745832 146.2586408
 120.0277956  40.4552580 145.5549749 119.2720389  41.5226676 146.3174361
 116.1989253  40.5273261 146.1947933 115.8607764  40.4114325 145.3068468
 117.0679021  40.1264426 146.1748939 112.0576068  42.3808737 142.1844824
 111.4940933  42.2898674 141.4161112 111.9428463  41.5608641 142.6647317
 116.6809036  41.6808112 152.1534139 116.6697676  41.2860911 151.2814642
 116.8429675  40.9474185 152.7467910 109.6040500  43.8759929 145.0229045
 110.3961792  43.5350753 144.6075344 109.8437150  43.9854904 145.9431198
 117.6375627  46.0479705 137.4959289 116.9863607  46.6333785 137.1093303
 118.4319990  46.5785900 137.5554326 111.5631254  43.1368842 137.8946423
 112.3362130  42.5897829 137.7559299 111.9156653  44.0013091 138.1060885
 113.4016297  44.4645224 151.1013323 113.1106163  45.3690855 150.9859989
 114.0373281  44.5061752 151.8157392 114.3272504  41.8422073 147.6914682
 114.9236076  41.6178095 146.9771645 114.3847475  41.1006818 148.2940130
 113.8997532  39.2961508 135.5264873 114.1523053  38.7743029 134.7648336
 112.9622091  39.1327653 135.6291557 118.9440815  38.2997286 143.3339616
 119.7303904  37.8816709 142.9830033 119.2079519  39.2043378 143.5021265
 119.1150892  43.7370137 138.0328273 118.4796725  43.8104763 138.7449178
 118.7848299  44.3263735 137.3547353 113.6193821  41.1989614 137.7289248
 113.5030079  40.5234517 138.3970333 113.7296081  40.7121988 136.9121401
 115.9625362  40.6599761 141.4335937 115.5983569  40.1330382 142.1448859
 116.8192478  40.2698230 141.2602423 115.6030849  35.6889661 136.4297286
 115.7705251  36.5569897 136.7967757 115.4128018  35.8516942 135.5058575
 118.3606182  44.1506640 148.0963116 118.0606905  45.0531678 147.9878924
 118.0157241  43.8838823 148.9484269 111.8118663  40.6020436 144.1299821
 110.8869160  40.4696651 144.3377513 112.0603076  41.3814656 144.6269763
 121.7603326  36.6689180 145.7760554 120.8520203  36.6004588 145.4819315
 121.7090921  37.1461125 146.6042379 115.5820069  38.1447318 137.4143953
 115.4619695  38.5904369 138.2529433 114.8872658  38.4932636 136.8557491
 109.1727474  40.2453710 144.9643610 109.3019855  40.4988189 145.8783022
 108.4924926  40.8381418 144.6448265 113.3426962  50.9150960 141.0634084
 113.2650991  51.8658785 141.1422565 112.7388605  50.5696832 141.7209010
 121.2805136  38.6168791 138.2424287 122.1922992  38.8496178 138.0671984
 120.7714783  39.2005836 137.6799365 114.0890564  40.8964279 153.2813418
 114.8305248  41.4349323 153.0048242 113.3827549  41.5230567 153.4384970
 119.5645903  43.0393419 151.8785579 119.9729259  42.5975830 151.1340212
 118.8423165  42.4646047 152.1319772 115.9176973  37.9766026 149.2519136
 116.7638169  38.4005440 149.3953785 115.8575611  37.3199650 149.9457699
 119.8874718  43.5994610 145.6337868 119.2583580  43.7640324 144.9313936
 119.5000380  44.0136219 146.4048832 123.7663950  44.5349048 142.9882232
 123.0814988  44.9147949 142.4379265 123.8507799  45.1444374 143.7214180
 121.0214881  42.1809007 149.5877576 121.2331777  42.8240767 148.9111957
 120.9744630  41.3471323 149.1199506 118.6241110  34.7926827 146.4914148
 117.7625589  35.0908081 146.7830885 118.6503545  35.0097226 145.5595180
 115.4402680  43.3369018 142.8987953 115.9041025  43.6156721 142.1092576
 115.1759478  42.4352462 142.7161044 112.3326761  42.8840499 145.8367717
 112.9028118  43.3127768 145.1985201 112.9234873  42.6023084 146.5351902
 114.3771566  39.4592170 139.7077519 115.0795609  39.9113214 140.1751445
 114.0452194  38.8175989 140.3357412 112.8251927  38.0503927 154.0828728
 112.1950588  38.7320208 154.3164125 112.7188015  37.9387009 153.1381866
 108.1196900  37.7175723 145.0094652 107.3295954  37.9733251 144.5334763
 108.6108147  38.5324061 145.1146693 122.1360709  45.0580962 147.7599933
 122.9578153  44.6561149 147.4782615 122.1323112  44.9549196 148.7116049
 110.0711645  38.0820302 141.9678129 109.2742808  38.1938996 142.4861624
 109.8437237  38.4206954 141.1019019 115.9017313  44.6065005 149.9160643
 115.9661745  45.0685413 150.7518815 115.1928237  43.9762370 150.0442953
 106.4034603  37.9706213 147.4409643 106.6542641  38.8553223 147.7067219
 106.9394151  37.7910815 146.6684735 115.6165330  46.2733113 139.7839624
 115.4811005  47.1184649 140.2124472 116.1575143  46.4752391 139.0205558
 109.0694728  43.7908551 140.3567549 109.5819248  44.5851801 140.5073114
 109.7217441  43.0934841 140.2901150 110.8789613  46.9074307 142.4390302
 111.0556241  47.8292272 142.2511286 111.6746446  46.5932726 142.8684682
 110.1641969  38.9538939 152.3152465 110.0495484  38.0524196 152.6159564
 109.3086487  39.2002636 151.9637282 117.2433807  46.8956679 153.9139966
 116.7997661  46.1093058 153.5960870 117.9051020  47.0835830 153.2483857
 112.0020928  48.4252481 148.4400644 112.5528353  48.2969544 147.6677638
 111.1632404  48.7247370 148.0895537 119.3415045  47.1759479 151.9421367
 119.3233520  47.9968360 151.4501636 120.2634965  47.0513555 152.1671508
 115.7988099  44.6903609 152.7844875 116.3316436  43.9291897 152.5544183
 115.2702180  44.3977261 153.5269030 107.0343645  42.1197205 141.1327119
 107.8718867  42.5294214 140.9160827 107.2121912  41.1796647 141.1027313
 118.9308077  39.7872286 136.8210952 118.4154700  40.5576891 137.0599340
 118.6585385  39.1137422 137.4444014 116.5155188  34.6321987 141.8796191
 115.6596784  34.2428837 141.7001829 116.9282140  34.7113947 141.0195976
 118.0454334  32.1668330 146.2787750 117.5419130  32.1298465 145.4655556
 118.3384941  33.0761073 146.3384407 114.2897220  32.2507060 145.2853932
 115.1550217  32.0549868 144.9259822 114.3574729  32.0217411 146.2123289
 123.9042351  42.5404641 138.7564126 123.1271794  42.2015800 138.3119288
 124.5833832  42.5457264 138.0819091 118.7194380  37.6599378 138.6470733
 118.4144516  37.9745527 139.4980877 119.6724822  37.7380798 138.6898066
 117.1640812  43.8189601 140.2963687 116.6362173  43.0842361 139.9836925
 116.6628314  44.5964278 140.0503656 122.1433658  42.0138622 145.4130734
 121.4857332  42.7037883 145.5010862 122.9474057  42.4035054 145.7564720
 111.8959539  34.4809268 142.6570299 112.4703291  34.2584449 141.9243492
 112.4830522  34.5497962 143.4098900 120.9539117  40.3682994 143.4634676
 121.4670998  41.0012986 143.9656385 121.6040340  39.7684190 143.0978036
 112.2229126  36.5113729 136.6766184 111.3866439  36.8488415 136.9975459
 112.0833896  36.3762708 135.7393321 114.1982207  31.3550516 141.3845368
 113.5446619  31.0399534 140.7601983 114.1562681  30.7326257 142.1105191
 115.3093412  41.6369812 133.2998660 114.4020474  41.4059065 133.4989809
 115.8064444  40.8407431 133.4872642 118.2161491  50.3467319 136.2195347
 117.5423190  50.6499016 136.8280304 118.6027313  51.1496399 135.8700804
 117.4319947  37.8432450 145.7093016 116.5142509  38.0647397 145.5514704
 117.8480091  37.9178760 144.8504723 118.2154995  39.2423866 140.8395696
 118.9626814  39.7545263 140.5302818 118.4846585  38.9207918 141.7000090
 116.4881645  41.7382406 137.8222651 115.5792865  41.4541439 137.9195120
 116.5176729  42.1581485 136.9625957 121.7200913  45.3488996 141.5913818
 121.2663240  44.5079906 141.6479009 121.0894880  45.9850394 141.9288598
 120.6633832  36.2780982 142.8214486 119.9256589  35.7658368 143.1524728
 120.9160606  35.8381364 142.0097762 120.1633852  47.1865493 142.5263636
 120.4556826  47.7470550 141.8076002 120.6732473  47.4794054 143.2816795
 107.0569816  39.4587921 141.8037853 106.8594216  38.8657281 141.0788919
 106.5016480  39.1540131 142.5213792 115.0366539  39.3511027 143.9232446
 115.0915149  38.3984863 143.8474923 114.2257741  39.5070466 144.4073744
 116.1857733  43.2791150 135.1610729 115.7477163  42.5627009 134.7016367
 116.9268174  43.5067265 134.5995821 112.9758899  37.9688087 141.6822825
 112.1626765  38.2682257 142.0888017 113.4717894  37.5743776 142.3997307
 115.1267477  47.9645844 143.6157090 115.0843656  48.1906690 142.6865622
 116.0430176  47.7309218 143.7642891 124.3030848  41.5548347 141.2187048
 124.1648747  41.7449943 140.2908237 123.9467067  42.3167730 141.6755099
 112.4672974  35.5406442 147.2984060 113.1072353  35.3995201 146.6007023
 111.6350505  35.2540956 146.9222662 124.3300228  43.6224874 146.2298319
 124.7636734  43.5300163 147.0781373 125.0431808  43.5982375 145.5918335
 113.2433278  44.8408873 143.4119052 114.0373877  44.3459193 143.2101627
 112.5324970  44.3126736 143.0486758 118.0628122  47.2226968 147.7631420
 118.1165145  47.7917905 148.5309136 117.1942904  47.3928853 147.3985457
 109.5516041  38.9851954 139.4878805 108.6213630  38.9236410 139.7048767
 109.6473513  38.4627907 138.6915446 109.4701591  35.5106767 142.0757047
 109.7308408  36.4252101 141.9666207 110.2918763  35.0431210 142.2253659
 110.9426516  36.9244524 149.2455871 111.6149569  36.7161887 148.5968520
 110.1156302  36.7266610 148.8061103 117.0216222  41.3887230 149.3218352
 117.9508282  41.5398390 149.1487319 116.6007252  41.4771251 148.4666998
 115.8204554  45.4137895 147.0916889 115.6815640  45.0456679 147.9642827
 115.0319150  45.9285534 146.9200847 116.4152706  50.5146991 138.4342426
 116.5904462  50.0435034 139.2488049 115.7285494  51.1412757 138.6623687
 117.3709769  44.7919497 144.4805727 117.0359602  44.7520267 145.3763377
 116.8713715  44.1264213 144.0076137 111.3454013  40.1987127 150.0058308
 111.2073811  39.4667366 150.6069847 112.2558937  40.1096028 149.7242496
 120.3068961  42.1375532 134.7542787 119.6898131  41.4122360 134.6575839
 119.8385449  42.8984892 134.4109861 113.9736314  39.9107087 149.4941988
 114.6835932  39.2700279 149.4528606 113.9305622  40.1619982 150.4168169
 112.6865248  36.8972305 151.3137627 112.1502605  36.4463043 151.9659224
 112.0981956  37.0318213 150.5708092 110.9813791  53.6636354 145.2082286
 111.2210389  54.2954878 145.8861305 110.1382988  53.3124394 145.4947645
 112.0967507  36.3560956 133.8764091 111.2196973  36.2349757 133.5126338
 112.5725260  35.5647034 133.6242980 103.6169647  41.1438116 143.9705598
 104.3040687  40.8299846 143.3826614 103.4617776  42.0479480 143.6972850
 108.4204369  36.0328312 148.3990622 108.3362558  35.4253982 147.6641032
 107.5987075  36.5237331 148.4000118 115.4941653  49.4715476 147.6123790
 115.4211825  50.2770448 148.1243095 115.0519046  49.6707442 146.7871811
 115.2831433  48.7087246 141.1226612 114.4998955  49.2508927 141.2164836
 115.9824178  49.2261226 141.5220853 118.5928083  34.5181876 143.7660817
 119.0896782  33.7651838 143.4461887 117.8215064  34.5546193 143.2004026
 117.9540337  49.3702310 149.7681949 118.6668309  50.0049775 149.6957850
 117.4630365  49.4666176 148.9521951 119.6757864  43.2753563 141.3399240
 118.7414142  43.3955026 141.1703945 119.8534532  42.3726030 141.0759250
 115.1763052  36.6599259 143.4932502 114.8060839  36.1070299 144.1813407
 115.6722144  36.0557392 142.9407502 123.0630415  39.1170882 141.8749274
 123.5290867  39.9498874 141.8009577 123.5137915  38.6515864 142.5794533
 113.0052250  47.1196754 150.5887519 113.7061710  47.7533237 150.7416914
 112.5347365  47.4611485 149.8283159 121.1306646  45.4614704 138.8735427
 121.4066490  45.3471298 139.7829301 120.2611145  45.0632189 138.8347600
 120.8053536  39.6741361 148.4140070 120.1524986  39.9217269 147.7592523
 121.1833916  38.8605500 148.0802547 117.7660710  49.7101055 142.5168240
 117.9483105  48.8922710 142.9795992 118.5893696  49.9268747 142.0793130
 118.1002876  48.6369240 139.7783289 118.6290642  48.1261694 139.1653451
 118.3631095  48.3211770 140.6428822 108.6019968  46.6533109 147.5218622
 109.1873405  45.9076797 147.6546526 108.4044807  46.9637066 148.4055286
 111.4558623  49.6884356 142.5381065 110.7868999  50.1730484 142.0545105
 111.3171493  49.9353577 143.4524443 103.1937623  39.2238709 146.2423065
 103.2321722  38.6902300 147.0360183 102.6877916  38.6973915 145.6234042
 115.5963892  51.7228100 149.1363723 116.1482200  51.8859721 149.9012808
 115.9370086  52.3132538 148.4643748 110.5728385  34.0703250 149.7385608
 110.6369712  34.9318081 149.3263005 110.5095506  33.4577251 149.0057966
 110.0480658  36.1426382 153.3858642 110.6752697  35.7603459 153.9996166
 109.1908577  35.9240584 153.7514334 106.8246201  37.9502811 139.3176997
 107.1199642  37.0413490 139.2644050 105.9234236  37.9290551 138.9957999
 118.7332279  49.6710075 146.1227405 118.6083419  48.8699815 145.6138351
 119.3911370  50.1656269 145.6341375 110.3540448  36.0258808 145.3004545
 109.6327033  36.6394776 145.1612019 111.1433703  36.5616573 145.2221191
 120.7967188  47.4719095 147.7506955 119.8497523  47.3524447 147.6785282
 121.1449961  46.5841593 147.8333217 108.5534042  35.6316909 139.4416322
 108.2246748  34.7514288 139.2591428 108.9073413  35.5764578 140.3292711
 117.8013621  47.2671812 143.9511307 117.6538583  46.3388519 144.1318877
 118.6267115  47.2891902 143.4668383 111.6675865  35.9189879 139.8091800
 112.0071938  36.4475800 139.0870408 112.1147986  36.2570285 140.5850366
 121.4047743  48.0900370 145.0376180 122.3294290  47.8843232 144.9000631
 121.2363046  47.8416772 145.9465522 114.3619306  34.3026929 149.2594868
 114.0216126  33.5034743 149.6615547 113.6558312  34.6028640 148.6871701
 115.0135778  31.3876242 147.7122191 115.8361847  30.9136720 147.5901081
 115.2573841  32.1666726 148.2120877 113.6544012  34.4164500 138.0085092
 114.3752375  34.7945753 137.5048809 113.0309317  35.1353377 138.1120070
 117.7975135  35.1209649 138.9443425 118.0138750  36.0034287 138.6432253
 117.3169202  34.7295863 138.2149067 112.5374357  38.0795363 145.5214169
 112.3918937  38.3935666 146.4138451 112.0599560  38.6980263 144.9685068
 114.3970740  35.0697911 145.5695059 114.3832308  34.1739004 145.2327357
 115.1143168  35.0768574 146.2033345 116.2496870  35.5035251 147.6148186
 115.9914648  36.4252321 147.6132517 115.7181911  35.1065685 148.3048650
 121.1943059  48.6086038 140.3938272 121.3679937  48.0432460 139.6412124
 121.6871950  49.4086933 140.2117762 107.0120019  40.6200707 148.4601830
 106.4673487  41.3960515 148.5922105 107.8899369  40.9671511 148.3020952
 113.8007636  33.9512291 140.8382629 113.9223547  33.0228937 141.0373516
 113.5109678  33.9650977 139.9260944 116.6698826  31.6367201 143.9749349
 116.6920523  31.7006534 143.0201328 117.0866885  30.7971710 144.1689855
 127.0482450  41.3722461 142.0128571 127.4913596  40.6229786 141.6147695
 126.1708961  41.3632597 141.6302303 122.1818232  47.9252802 137.4935170
 122.8769136  48.5459495 137.7122485 122.5241382  47.0748153 137.7687548
 107.7986041  39.7470603 151.3531987 107.0567777  39.8953239 151.9396618
 107.4778785  40.0078869 150.4898737 124.0809655  45.3752508 139.0222501
 124.6060979  45.7139781 138.2971821 123.9932007  44.4399523 138.8385635
 115.7429703  49.2886581 151.1512377 116.0516830  49.0435728 152.0235077
 116.5405185  49.4933220 150.6631248 115.7650315  51.4424491 143.3817754
 115.3255306  50.9500870 144.0750611 116.5158432  50.8997459 143.1409829
 108.2442654  47.6336032 143.3842382 109.0700674  47.3339804 143.0041025
 107.8936706  46.8643654 143.8332171 113.2124188  46.9862500 145.4540056
 112.5904197  46.3233205 145.1542283 113.8829054  47.0123632 144.7713703
 106.4451259  45.5522358 144.3431316 105.6083168  45.1244533 144.1615317
 106.4174905  45.7454802 145.2802107 112.7737694  45.5366423 138.9298516
 112.9225815  46.2201888 138.2765189 113.5804138  45.5171514 139.4447972
 126.5915315  42.8427699 144.4051019 127.4262206  43.2817503 144.5688579
 126.7274444  42.3666352 143.5859265 110.5290327  41.5631601 139.9359585
 110.2836369  40.6593931 140.1339795 110.6986242  41.5648752 138.9939063
 109.7985975  37.2959959 137.4345746 109.1055220  37.3704314 136.7785782
 109.5537727  36.5320302 137.9567263 116.2733100  48.0314554 136.4010263
 115.7007067  48.6504741 135.9480735 116.8465894  48.5813916 136.9350185
 119.4930360  48.3151704 137.5318846 120.4261033  48.2497266 137.7351721
 119.4053573  49.1507971 137.0733378 122.1218376  47.6317574 134.4922793
 122.0432008  47.2977438 135.3858551 122.9428043  48.1239342 134.4914266
 116.6579899  39.3675367 133.7426316 117.6039003  39.2381575 133.8114734
 116.2794143  38.6290029 134.2195744 114.8422816  37.2925343 133.6781201
 113.9354271  36.9958456 133.7543915 115.1198797  36.9955161 132.8115487
 105.7600756  38.6131706 144.1280248 105.4403540  37.7597015 143.8354622
 105.2134184  38.8280285 144.8838215 109.5380664  41.3294147 147.8449754
 109.7566673  42.2611255 147.8637788 109.9506437  40.9702122 148.6304558
 116.4584881  31.8362233 139.8325442 115.6485610  31.4909318 140.2080689
 117.1469298  31.5269777 140.4213054 118.3875430  30.9140280 141.4549739
 118.9406468  31.3335733 142.1139762 118.6245516  29.9876028 141.4972695
 113.6121600  34.1512278 133.8193180 114.4740764  34.4767177 134.0788998
 113.7971944  33.3643774 133.3066246 105.6289016  42.2334618 146.0973369
 104.9352487  41.8188571 145.5843324 106.3762007  42.2755154 145.5006788
 121.7654237  33.0240805 140.9628403 121.1852906  33.6825609 140.5806456
 121.4990169  32.2018149 140.5515821 120.2157803  32.4245862 143.1649724
 120.7157581  32.5362397 142.3564043 120.8593411  32.1206915 143.8050532
 107.5425759  42.1652872 143.9739384 107.5196447  42.2640559 143.0221267
 107.8526395  43.0118023 144.2956550 110.2013136  44.2229027 148.0885998
 111.1556390  44.1912969 148.0215930 110.0025660  43.7619651 148.9036224
 110.7912519  42.7930143 150.6556796 111.6105408  43.2874222 150.6791633
 111.0649326  41.8762111 150.6274364 120.5479115  35.1840895 140.0184752
 119.6604970  35.4690546 139.8004946 120.9633104  35.0234659 139.1712029
 108.5563365  49.7648646 145.1056196 108.4217833  49.0049047 144.5394194
 108.1395428  50.4889546 144.6384985 119.6922328  44.9485570 134.1132772
 120.3958178  45.1535572 134.7290427 118.9684977  45.5162332 134.3781855
 120.5220139  40.6995431 140.2335042 120.4655340  41.1563982 139.3942674
 121.0748481  39.9386116 140.0557885 124.3324944  36.4885163 141.0585161
 124.0761879  36.0881799 141.8893369 123.7077812  37.2028957 140.9335300
 111.7132491  50.6617963 145.3174639 111.5964875  51.6063396 145.2153329
 110.8924937  50.3591525 145.7060438 121.6009026  45.3868099 136.1631232
 122.4354630  44.9549297 135.9808706 121.4393369  45.2150113 137.0908126
 121.2554918  41.8900212 137.5287571 121.2003722  41.7244484 136.5876015
 120.6300973  42.5976245 137.6849761 106.0447433  37.1268277 151.3548993
 106.6906296  36.6167231 151.8436218 105.8364584  37.8636958 151.9292418
 114.5651043  31.3908321 137.1072889 114.5529713  32.3350161 137.2641160
 115.4574465  31.2078467 136.8132351 112.7387005  51.3146225 148.5330567
 113.6414252  51.3469835 148.8497062 112.5124375  50.3846676 148.5476903
 114.4940607  50.0677212 145.1940646 113.5436238  50.0679073 145.0805018
 114.7973093  49.3209946 144.6776681 118.3803163  27.9851098 141.3618826
 117.6135559  27.4309585 141.5075509 118.7913868  28.0572967 142.2232978
 130.2293301  55.9037750 146.2586408 130.8671711  55.7844497 145.5549749
 130.1114144  56.8518594 146.3174361 127.0383007  55.8565178 146.1947933
 126.7001519  55.7406243 145.3068468 127.9072775  55.4556343 146.1748939
 122.8969823  57.7100655 142.1844824 122.3334688  57.6190592 141.4161112
 122.7822218  56.8900559 142.6647317 127.5202790  57.0100030 152.1534139
 127.5091431  56.6152828 151.2814642 127.6823429  56.2766103 152.7467910
 120.4434255  59.2051846 145.0229045 121.2355547  58.8642671 144.6075344
 120.6830905  59.3146821 145.9431198 128.4769381  61.3771622 137.4959289
 127.8257361  61.9625703 137.1093303 129.2713744  61.9077817 137.5554326
 122.4025009  58.4660759 137.8946423 123.1755885  57.9189747 137.7559299
 122.7550407  59.3305009 138.1060885 124.2410051  59.7937142 151.1013323
 123.9499917  60.6982773 150.9859989 124.8767036  59.8353669 151.8157392
 125.1666258  57.1713990 147.6914682 125.7629830  56.9470013 146.9771645
 125.2241230  56.4298736 148.2940130 124.7391286  54.6253426 135.5264873
 124.9916807  54.1034947 134.7648336 123.8015846  54.4619571 135.6291557
 129.7834569  53.6289204 143.3339616 130.5697658  53.2108627 142.9830033
 130.0473274  54.5335296 143.5021265 129.9544647  59.0662054 138.0328273
 129.3190480  59.1396681 138.7449178 129.6242053  59.6555653 137.3547353
 124.4587575  56.5281532 137.7289248 124.3423833  55.8526435 138.3970333
 124.5689835  56.0413905 136.9121401 126.8019116  55.9891679 141.4335937
 126.4377323  55.4622300 142.1448859 127.6586232  55.5990148 141.2602423
 126.4424603  51.0181578 136.4297286 126.6099005  51.8861815 136.7967757
 126.2521772  51.1808860 135.5058575 129.1999936  59.4798557 148.0963116
 128.9000659  60.3823596 147.9878924 128.8550996  59.2130740 148.9484269
 122.6512418  55.9312354 144.1299821 121.7262914  55.7988568 144.3377513
 122.8996831  56.7106573 144.6269763 132.5997080  51.9981097 145.7760554
 131.6913957  51.9296506 145.4819315 132.5484676  52.4753042 146.6042379
 126.4213824  53.4739236 137.4143953 126.3013449  53.9196287 138.2529433
 125.7266412  53.8224554 136.8557491 120.0121229  55.5745628 144.9643610
 120.1413610  55.8280107 145.8783022 119.3318680  56.1673336 144.6448265
 124.1820716  66.2442878 141.0634084 124.1044746  67.1950703 141.1422565
 123.5782360  65.8988750 141.7209010 132.1198890  53.9460709 138.2424287
 133.0316746  54.1788096 138.0671984 131.6108537  54.5297753 137.6799365
 124.9284318  56.2256196 153.2813418 125.6699002  56.7641240 153.0048242
 124.2221304  56.8522485 153.4384970 130.4039658  58.3685337 151.8785579
 130.8123014  57.9267747 151.1340212 129.6816919  57.7937964 152.1319772
 126.7570728  53.3057944 149.2519136 127.6031923  53.7297357 149.3953785
 126.6969365  52.6491568 149.9457699 130.7268472  58.9286527 145.6337868
 130.0977335  59.0932242 144.9313936 130.3394134  59.3428137 146.4048832
 134.6057704  59.8640965 142.9882232 133.9208742  60.2439867 142.4379265
 134.6901554  60.4736292 143.7214180 131.8608636  57.5100924 149.5877576
 132.0725531  58.1532684 148.9111957 131.8138384  56.6763241 149.1199506
 129.4634865  50.1218745 146.4914148 128.6019344  50.4199999 146.7830885
 129.4897300  50.3389144 145.5595180 126.2796434  58.6660936 142.8987953
 126.7434780  58.9448639 142.1092576 126.0153232  57.7644380 142.7161044
 123.1720515  58.2132417 145.8367717 123.7421872  58.6419685 145.1985201
 123.7628627  57.9315002 146.5351902 125.2165320  54.7884088 139.7077519
 125.9189364  55.2405132 140.1751445 124.8845949  54.1467907 140.3357412
 123.6645682  53.3795845 154.0828728 123.0344342  54.0612125 154.3164125
 123.5581770  53.2678926 153.1381866 118.9590654  53.0467641 145.0094652
 118.1689708  53.3025169 144.5334763 119.4501902  53.8615978 145.1146693
 132.9754464  60.3872880 147.7599933 133.7971908  59.9853067 147.4782615
 132.9716867  60.2841114 148.7116049 120.9105400  53.4112220 141.9678129
 120.1136563  53.5230914 142.4861624 120.6830992  53.7498872 141.1019019
 126.7411067  59.9356923 149.9160643 126.8055500  60.3977330 150.7518815
 126.0321991  59.3054288 150.0442953 117.2428357  53.2998131 147.4409643
 117.4936396  54.1845141 147.7067219 117.7787906  53.1202733 146.6684735
 126.4559085  61.6025031 139.7839624 126.3204760  62.4476566 140.2124472
 126.9968897  61.8044308 139.0205558 119.9088482  59.1200469 140.3567549
 120.4213003  59.9143719 140.5073114 120.5611195  58.4226759 140.2901150
 121.7183367  62.2366225 142.4390302 121.8949995  63.1584190 142.2511286
 122.5140201  61.9224644 142.8684682 121.0035724  54.2830857 152.3152465
 120.8889239  53.3816114 152.6159564 120.1480241  54.5294554 151.9637282
 128.0827561  62.2248597 153.9139966 127.6391416  61.4384976 153.5960870
 128.7444775  62.4127748 153.2483857 122.8414683  63.7544399 148.4400644
 123.3922108  63.6261462 147.6677638 122.0026158  64.0539288 148.0895537
 130.1808799  62.5051397 151.9421367 130.1627275  63.3260278 151.4501636
 131.1028719  62.3805472 152.1671508 126.6381854  60.0195526 152.7844875
 127.1710190  59.2583815 152.5544183 126.1095935  59.7269178 153.5269030
 117.8737399  57.4489123 141.1327119 118.7112621  57.8586131 140.9160827
 118.0515667  56.5088565 141.1027313 129.7701831  55.1164204 136.8210952
 129.2548455  55.8868808 137.0599340 129.4979140  54.4429340 137.4444014
 127.3548942  49.9613904 141.8796191 126.4990539  49.5720755 141.7001829
 127.7675894  50.0405865 141.0195976 128.8848089  47.4960248 146.2787750
 128.3812885  47.4590383 145.4655556 129.1778696  48.4052990 146.3384407
 125.1290975  47.5798977 145.2853932 125.9943972  47.3841786 144.9259822
 125.1968484  47.3509329 146.2123289 134.7436105  57.8696558 138.7564126
 133.9665548  57.5307718 138.3119288 135.4227586  57.8749181 138.0819091
 129.5588134  52.9891296 138.6470733 129.2538270  53.3037445 139.4980877
 130.5118577  53.0672716 138.6898066 128.0034566  59.1481519 140.2963687
 127.4755928  58.4134279 139.9836925 127.5022069  59.9256195 140.0503656
 132.9827412  57.3430539 145.4130734 132.3251087  58.0329801 145.5010862
 133.7867811  57.7326971 145.7564720 122.7353294  49.8101185 142.6570299
 123.3097046  49.5876367 141.9243492 123.3224276  49.8789880 143.4098900
 131.7932871  55.6974912 143.4634676 132.3064753  56.3304904 143.9656385
 132.4434095  55.0976108 143.0978036 123.0622881  51.8405646 136.6766184
 122.2260193  52.1780333 136.9975459 122.9227651  51.7054626 135.7393321
 125.0375962  46.6842434 141.3845368 124.3840374  46.3691451 140.7601983
 124.9956436  46.0618175 142.1105191 126.1487166  56.9661729 133.2998660
 125.2414228  56.7350983 133.4989809 126.6458198  56.1699348 133.4872642
 129.0555245  65.6759236 136.2195347 128.3816944  65.9790933 136.8280304
 129.4421067  66.4788317 135.8700804 128.2713702  53.1724368 145.7093016
 127.3536263  53.3939315 145.5514704 128.6873846  53.2470678 144.8504723
 129.0548750  54.5715783 140.8395696 129.8020569  55.0837181 140.5302818
 129.3240339  54.2499836 141.7000090 127.3275400  57.0674324 137.8222651
 126.4186619  56.7833357 137.9195120 127.3570484  57.4873403 136.9625957
 132.5594667  60.6780914 141.5913818 132.1056994  59.8371823 141.6479009
 131.9288634  61.3142312 141.9288598 131.5027587  51.6072900 142.8214486
 130.7650344  51.0950286 143.1524728 131.7554360  51.1673281 142.0097762
 131.0027607  62.5157410 142.5263636 131.2950581  63.0762467 141.8076002
 131.5126227  62.8085971 143.2816795 117.8963570  54.7879838 141.8037853
 117.6987970  54.1949199 141.0788919 117.3410234  54.4832048 142.5213792
 125.8760294  54.6802945 143.9232446 125.9308904  53.7276781 143.8474923
 125.0651496  54.8362384 144.4073744 127.0251488  58.6083068 135.1610729
 126.5870918  57.8918927 134.7016367 127.7661929  58.8359183 134.5995821
 123.8152654  53.2980004 141.6822825 123.0020519  53.5974175 142.0888017
 124.3111648  52.9035693 142.3997307 125.9661232  63.2937761 143.6157090
 125.9237411  63.5198608 142.6865622 126.8823931  63.0601136 143.7642891
 135.1424602  56.8840265 141.2187048 135.0042501  57.0741861 140.2908237
 134.7860821  57.6459648 141.6755099 123.3066729  50.8698360 147.2984060
 123.9466108  50.7287119 146.6007023 122.4744259  50.5832873 146.9222662
 135.1693982  58.9516792 146.2298319 135.6030489  58.8592081 147.0781373
 135.8825563  58.9274292 145.5918335 124.0827033  60.1700790 143.4119052
 124.8767631  59.6751111 143.2101627 123.3718725  59.6418654 143.0486758
 128.9021877  62.5518886 147.7631420 128.9558899  63.1209822 148.5309136
 128.0336658  62.7220771 147.3985457 120.3909796  54.3143872 139.4878805
 119.4607384  54.2528328 139.7048767 120.4867268  53.7919825 138.6915446
 120.3095345  50.8398685 142.0757047 120.5702162  51.7544018 141.9666207
 121.1312517  50.3723128 142.2253659 121.7820270  52.2536442 149.2455871
 122.4543324  52.0453804 148.5968520 120.9550057  52.0558528 148.8061103
 127.8609977  56.7179148 149.3218352 128.7902037  56.8690308 149.1487319
 127.4401007  56.8063169 148.4666998 126.6598309  60.7429812 147.0916889
 126.5209394  60.3748597 147.9642827 125.8712905  61.2577452 146.9200847
 127.2546460  65.8438909 138.4342426 127.4298216  65.3726952 139.2488049
 126.5679249  66.4704675 138.6623687 128.2103524  60.1211415 144.4805727
 127.8753356  60.0812185 145.3763377 127.7107469  59.4556131 144.0076137
 122.1847768  55.5279045 150.0058308 122.0467566  54.7959284 150.6069847
 123.0952691  55.4387945 149.7242496 131.1462715  57.4667449 134.7542787
 130.5291886  56.7414278 134.6575839 130.6779204  58.2276810 134.4109861
 124.8130068  55.2399004 149.4941988 125.5229687  54.5992197 149.4528606
 124.7699376  55.4911899 150.4168169 123.5259002  52.2264222 151.3137627
 122.9896359  51.7754961 151.9659224 122.9375711  52.3610131 150.5708092
 121.8207546  68.9928272 145.2082286 122.0604144  69.6246796 145.8861305
 120.9776742  68.6416312 145.4947645 122.9361261  51.6852874 133.8764091
 122.0590728  51.5641675 133.5126338 123.4119014  50.8938952 133.6242980
 114.4563401  56.4730033 143.9705598 115.1434441  56.1591763 143.3826614
 114.3011530  57.3771398 143.6972850 119.2598123  51.3620230 148.3990622
 119.1756312  50.7545900 147.6641032 118.4380830  51.8529248 148.4000118
 126.3335408  64.8007394 147.6123790 126.2605579  65.6062366 148.1243095
 125.8912801  64.9999360 146.7871811 126.1225187  64.0379164 141.1226612
 125.3392709  64.5800844 141.2164836 126.8217932  64.5553144 141.5220853
 129.4321837  49.8473794 143.7660817 129.9290537  49.0943756 143.4461887
 128.6608819  49.8838110 143.2004026 128.7934091  64.6994228 149.7681949
 129.5062063  65.3341693 149.6957850 128.3024120  64.7958094 148.9521951
 130.5151618  58.6045481 141.3399240 129.5807897  58.7246943 141.1703945
 130.6928287  57.7017948 141.0759250 126.0156806  51.9891177 143.4932502
 125.6454594  51.4362217 144.1813407 126.5115899  51.3849310 142.9407502
 133.9024169  54.4462800 141.8749274 134.3684622  55.2790792 141.8009577
 134.3531670  53.9807782 142.5794533 123.8446005  62.4488672 150.5887519
 124.5455464  63.0825155 150.7416914 123.3741120  62.7903403 149.8283159
 131.9700401  60.7906621 138.8735427 132.2460244  60.6763216 139.7829301
 131.1004899  60.3924106 138.8347600 131.6447291  55.0033279 148.4140070
 130.9918741  55.2509186 147.7592523 132.0227671  54.1897417 148.0802547
 128.6054465  65.0392972 142.5168240 128.7876859  64.2214628 142.9795992
 129.4287451  65.2560664 142.0793130 128.9396630  63.9661157 139.7783289
 129.4684396  63.4553612 139.1653451 129.2024850  63.6503688 140.6428822
 119.4413723  61.9825027 147.5218622 120.0267160  61.2368715 147.6546526
 119.2438561  62.2928983 148.4055286 122.2952378  65.0176274 142.5381065
 121.6262753  65.5022402 142.0545105 122.1565248  65.2645494 143.4524443
 114.0331377  54.5530627 146.2423065 114.0715477  54.0194218 147.0360183
 113.5271670  54.0265832 145.6234042 126.4357647  67.0520018 149.1363723
 126.9875955  67.2151639 149.9012808 126.7763840  67.6424455 148.4643748
 121.4122140  49.3995167 149.7385608 121.4763466  50.2609998 149.3263005
 121.3489260  48.7869169 149.0057966 120.8874412  51.4718300 153.3858642
 121.5146451  51.0895377 153.9996166 120.0302331  51.2532502 153.7514334
 117.6639955  53.2794729 139.3176997 117.9593396  52.3705407 139.2644050
 116.7627991  53.2582468 138.9957999 129.5726034  65.0001993 146.1227405
 129.4477173  64.1991733 145.6138351 130.2305125  65.4948186 145.6341375
 121.1934202  51.3550726 145.3004545 120.4720788  51.9686693 145.1612019
 121.9827458  51.8908490 145.2221191 131.6360942  62.8011013 147.7506955
 130.6891278  62.6816364 147.6785282 131.9843715  61.9133511 147.8333217
 119.3927797  50.9608827 139.4416322 119.0640503  50.0806206 139.2591428
 119.7467167  50.9056495 140.3292711 128.6407376  62.5963729 143.9511307
 128.4932338  61.6680437 144.1318877 129.4660869  62.6183820 143.4668383
 122.5069620  51.2481796 139.8091800 122.8465692  51.7767718 139.0870408
 122.9541740  51.5862203 140.5850366 132.2441497  63.4192288 145.0376180
 133.1688045  63.2135149 144.9000631 132.0756801  63.1708689 145.9465522
 125.2013061  49.6318847 149.2594868 124.8609881  48.8326660 149.6615547
 124.4952067  49.9320558 148.6871701 125.8529532  46.7168160 147.7122191
 126.6755602  46.2428638 147.5901081 126.0967596  47.4958643 148.2120877
 124.4937767  49.7456418 138.0085092 125.2146129  50.1237671 137.5048809
 123.8703071  50.4645295 138.1120070 128.6368890  50.4501567 138.9443425
 128.8532504  51.3326205 138.6432253 128.1562957  50.0587780 138.2149067
 123.3768111  53.4087280 145.5214169 123.2312692  53.7227583 146.4138451
 122.8993315  54.0272181 144.9685068 125.2364494  50.3989828 145.5695059
 125.2226063  49.5030922 145.2327357 125.9536922  50.4060492 146.2033345
 127.0890625  50.8327168 147.6148186 126.8308403  51.7544239 147.6132517
 126.5575665  50.4357603 148.3048650 132.0336814  63.9377956 140.3938272
 132.2073691  63.3724378 139.6412124 132.5265705  64.7378850 140.2117762
 117.8513773  55.9492625 148.4601830 117.3067241  56.7252433 148.5922105
 118.7293123  56.2963429 148.3020952 124.6401390  49.2804208 140.8382629
 124.7617301  48.3520855 141.0373516 124.3503432  49.2942894 139.9260944
 127.5092580  46.9659119 143.9749349 127.5314277  47.0298452 143.0201328
 127.9260639  46.1263628 144.1689855 137.8876205  56.7014378 142.0128571
 138.3307351  55.9521704 141.6147695 137.0102715  56.6924515 141.6302303
 133.0211986  63.2544720 137.4935170 133.7162891  63.8751413 137.7122485
 133.3635136  62.4040071 137.7687548 118.6379795  55.0762521 151.3531987
 117.8961531  55.2245156 151.9396618 118.3172540  55.3370786 150.4898737
 134.9203409  60.7044425 139.0222501 135.4454733  61.0431698 138.2971821
 134.8325762  59.7691441 138.8385635 126.5823458  64.6178499 151.1512377
 126.8910584  64.3727646 152.0235077 127.3798940  64.8225138 150.6631248
 126.6044070  66.7716409 143.3817754 126.1649060  66.2792787 144.0750611
 127.3552187  66.2289376 143.1409829 119.0836409  62.9627950 143.3842382
 119.9094429  62.6631721 143.0041025 118.7330461  62.1935572 143.8332171
 124.0517942  62.3154418 145.4540056 123.4297951  61.6525123 145.1542283
 124.7222809  62.3415550 144.7713703 117.2845014  60.8814276 144.3431316
 116.4476922  60.4536450 144.1615317 117.2568659  61.0746719 145.2802107
 123.6131449  60.8658341 138.9298516 123.7619569  61.5493806 138.2765189
 124.4197892  60.8463431 139.4447972 137.4309069  58.1719617 144.4051019
 138.2655961  58.6109421 144.5688579 137.5668198  57.6958270 143.5859265
 121.3684082  56.8923519 139.9359585 121.1230124  55.9885849 140.1339795
 121.5379996  56.8940669 138.9939063 120.6379729  52.6251876 137.4345746
 119.9448974  52.6996231 136.7785782 120.3931481  51.8612220 137.9567263
 127.1126855  63.3606472 136.4010263 126.5400822  63.9796659 135.9480735
 127.6859648  63.9105833 136.9350185 130.3324114  63.6443622 137.5318846
 131.2654787  63.5789183 137.7351721 130.2447327  64.4799889 137.0733378
 132.9612131  62.9609492 134.4922793 132.8825762  62.6269356 135.3858551
 133.7821798  63.4531260 134.4914266 127.4973653  54.6967284 133.7426316
 128.4432758  54.5673492 133.8114734 127.1187898  53.9581946 134.2195744
 125.6816570  52.6217261 133.6781201 124.7748026  52.3250373 133.7543915
 125.9592551  52.3247079 132.8115487 116.5994511  53.9423624 144.1280248
 116.2797295  53.0888932 143.8354622 116.0527939  54.1572202 144.8838215
 120.3774418  56.6586065 147.8449754 120.5960428  57.5903173 147.8637788
 120.7900192  56.2994040 148.6304558 127.2978636  47.1654150 139.8325442
 126.4879364  46.8201235 140.2080689 127.9863053  46.8561694 140.4213054
 129.2269184  46.2432197 141.4549739 129.7800223  46.6627651 142.1139762
 129.4639271  45.3167945 141.4972695 124.4515355  49.4804196 133.8193180
 125.3134519  49.8059094 134.0788998 124.6365699  48.6935692 133.3066246
 116.4682771  57.5626536 146.0973369 115.7746242  57.1480488 145.5843324
 117.2155762  57.6047072 145.5006788 132.6047991  48.3532722 140.9628403
 132.0246660  49.0117526 140.5806456 132.3383924  47.5310067 140.5515821
 131.0551558  47.7537780 143.1649724 131.5551336  47.8654315 142.3564043
 131.6987166  47.4498833 143.8050532 118.3819513  57.4944789 143.9739384
 118.3590201  57.5932477 143.0221267 118.6920150  58.3409940 144.2956550
 121.0406891  59.5520944 148.0885998 121.9950144  59.5204887 148.0215930
 120.8419415  59.0911568 148.9036224 121.6306273  58.1222061 150.6556796
 122.4499162  58.6166139 150.6791633 121.9043081  57.2054029 150.6274364
 131.3872869  50.5132813 140.0184752 130.4998724  50.7982463 139.8004946
 131.8026858  50.3526576 139.1712029 119.3957120  65.0940564 145.1056196
 119.2611588  64.3340965 144.5394194 118.9789182  65.8181464 144.6384985
 130.5316083  60.2777487 134.1132772 131.2351933  60.4827490 134.7290427
 129.8078732  60.8454249 134.3781855 131.3613893  56.0287349 140.2335042
 131.3049094  56.4855900 139.3942674 131.9142235  55.2678033 140.0557885
 135.1718699  51.8177081 141.0585161 134.9155633  51.4173716 141.8893369
 134.5471567  52.5320875 140.9335300 122.5526246  65.9909881 145.3174639
 122.4358630  66.9355313 145.2153329 121.7318692  65.6883443 145.7060438
 132.4402780  60.7160017 136.1631232 133.2748384  60.2841215 135.9808706
 132.2787123  60.5442030 137.0908126 132.0948672  57.2192130 137.5287571
 132.0397476  57.0536401 136.5876015 131.4694728  57.9268163 137.6849761
 116.8841187  52.4560194 151.3548993 117.5300051  51.9459148 151.8436218
 116.6758338  53.1928876 151.9292418 125.4044798  46.7200239 137.1072889
 125.3923468  47.6642079 137.2641160 126.2968220  46.5370384 136.8132351
 123.5780760  66.6438143 148.5330567 124.4808006  66.6761753 148.8497062
 123.3518130  65.7138594 148.5476903 125.3334362  65.3969129 145.1940646
 124.3829993  65.3970991 145.0805018 125.6366848  64.6501864 144.6776681
 129.2196917  43.3143016 141.3618826 128.4529313  42.7601502 141.5075509
 129.6307622  43.3864884 142.2232978 141.0687055  71.2329668 146.2586408
 141.7065465  71.1136415 145.5549749 140.9507898  72.1810512 146.3174361
 137.8776762  71.1857096 146.1947933 137.5395273  71.0698161 145.3068468
 138.7466530  70.7848261 146.1748939 133.7363577  73.0392572 142.1844824
 133.1728442  72.9482509 141.4161112 133.6215972  72.2192477 142.6647317
 138.3596545  72.3391948 152.1534139 138.3485185  71.9444746 151.2814642
 138.5217184  71.6058020 152.7467910 131.2828009  74.5343764 145.0229045
 132.0749301  74.1934589 144.6075344 131.5224659  74.6438739 145.9431198
 139.3163136  76.7063540 137.4959289 138.6651116  77.2917620 137.1093303
 140.1107499  77.2369735 137.5554326 133.2418763  73.7952677 137.8946423
 134.0149639  73.2481664 137.7559299 133.5944162  74.6596926 138.1060885
 135.0803806  75.1229059 151.1013323 134.7893672  76.0274690 150.9859989
 135.7160790  75.1645587 151.8157392 136.0060013  72.5005908 147.6914682
 136.6023585  72.2761930 146.9771645 136.0634984  71.7590653 148.2940130
 135.5785041  69.9545343 135.5264873 135.8310562  69.4326865 134.7648336
 134.6409600  69.7911489 135.6291557 140.6228324  68.9581122 143.3339616
 141.4091413  68.5400545 142.9830033 140.8867028  69.8627214 143.5021265
 140.7938401  74.3953972 138.0328273 140.1584234  74.4688598 138.7449178
 140.4635807  74.9847571 137.3547353 135.2981330  71.8573449 137.7289248
 135.1817588  71.1818353 138.3970333 135.4083590  71.3705823 136.9121401
 137.6412871  71.3183596 141.4335937 137.2771078  70.7914217 142.1448859
 138.4979986  70.9282065 141.2602423 137.2818358  66.3473496 136.4297286
 137.4492760  67.2153732 136.7967757 137.0915527  66.5100778 135.5058575
 140.0393691  74.8090475 148.0963116 139.7394414  75.7115514 147.9878924
 139.6944750  74.5422658 148.9484269 133.4906172  71.2604272 144.1299821
 132.5656669  71.1280486 144.3377513 133.7390585  72.0398491 144.6269763
 143.4390835  67.3273015 145.7760554 142.5307712  67.2588424 145.4819315
 143.3878430  67.8044960 146.6042379 137.2607578  68.8031154 137.4143953
 137.1407204  69.2488204 138.2529433 136.5660167  69.1516471 136.8557491
 130.8514983  70.9037545 144.9643610 130.9807364  71.1572024 145.8783022
 130.1712435  71.4965253 144.6448265 135.0214471  81.5734795 141.0634084
 134.9438500  82.5242620 141.1422565 134.4176114  81.2280668 141.7209010
 142.9592645  69.2752627 138.2424287 143.8710501  69.5080013 138.0671984
 142.4502292  69.8589671 137.6799365 135.7678073  71.5548114 153.2813418
 136.5092757  72.0933158 153.0048242 135.0615058  72.1814403 153.4384970
 137.5964482  68.6349861 149.2519136 138.4425677  69.0589275 149.3953785
 137.5363120  67.9783486 149.9457699 141.5662227  74.2578445 145.6337868
 140.9371089  74.4224159 144.9313936 141.1787889  74.6720055 146.4048832
 145.4451459  75.1932883 142.9882232 144.7602497  75.5731784 142.4379265
 145.5295308  75.8028210 143.7214180 142.7002390  72.8392842 149.5877576
 142.9119286  73.4824602 148.9111957 142.6532139  72.0055159 149.1199506
 140.3028619  65.4510663 146.4914148 139.4413098  65.7491916 146.7830885
 140.3291054  65.6681062 145.5595180 137.1190189  73.9952853 142.8987953
 137.5828534  74.2740556 142.1092576 136.8546987  73.0936298 142.7161044
 134.0114270  73.5424335 145.8367717 134.5815627  73.9711603 145.1985201
 134.6022382  73.2606919 146.5351902 136.0559075  70.1176006 139.7077519
 136.7583118  70.5697049 140.1751445 135.7239703  69.4759824 140.3357412
 134.5039436  68.7087762 154.0828728 133.8738097  69.3904043 154.3164125
 134.3975524  68.5970844 153.1381866 129.7984409  68.3759558 145.0094652
 129.0083463  68.6317087 144.5334763 130.2895656  69.1907896 145.1146693
 143.8148218  75.7164797 147.7599933 144.6365662  75.3144985 147.4782615
 143.8110621  75.6133032 148.7116049 131.7499154  68.7404138 141.9678129
 130.9530317  68.8522832 142.4861624 131.5224746  69.0790790 141.1019019
 137.5804822  75.2648841 149.9160643 137.6449254  75.7269248 150.7518815
 136.8715746  74.6346206 150.0442953 128.0822112  68.6290049 147.4409643
 128.3330150  69.5137059 147.7067219 128.6181660  68.4494650 146.6684735
 137.2952839  76.9316948 139.7839624 137.1598514  77.7768484 140.2124472
 137.8362652  77.1336226 139.0205558 130.7482237  74.4492386 140.3567549
 131.2606757  75.2435637 140.5073114 131.4004950  73.7518677 140.2901150
 132.5577122  77.5658143 142.4390302 132.7343750  78.4876107 142.2511286
 133.3533955  77.2516562 142.8684682 131.8429478  69.6122774 152.3152465
 131.7282993  68.7108032 152.6159564 130.9873996  69.8586471 151.9637282
 133.6808437  79.0836316 148.4400644 134.2315862  78.9553380 147.6677638
 132.8419913  79.3831205 148.0895537 128.7131154  72.7781041 141.1327119
 129.5506376  73.1878049 140.9160827 128.8909421  71.8380483 141.1027313
 140.6095586  70.4456121 136.8210952 140.0942209  71.2160726 137.0599340
 140.3372894  69.7721257 137.4444014 138.1942697  65.2905822 141.8796191
 137.3384293  64.9012672 141.7001829 138.6069649  65.3697783 141.0195976
 139.7241843  62.8252165 146.2787750 139.2206639  62.7882300 145.4655556
 140.0172450  63.7344908 146.3384407 135.9684729  62.9090895 145.2853932
 136.8337726  62.7133704 144.9259822 136.0362238  62.6801247 146.2123289
 145.5829860  73.1988476 138.7564126 144.8059303  72.8599635 138.3119288
 146.2621341  73.2041099 138.0819091 140.3981889  68.3183213 138.6470733
 140.0932024  68.6329363 139.4980877 141.3512331  68.3964633 138.6898066
 138.8428321  74.4773437 140.2963687 138.3149682  73.7426196 139.9836925
 138.3415823  75.2548113 140.0503656 143.8221167  72.6722457 145.4130734
 143.1644841  73.3621719 145.5010862 144.6261566  73.0618889 145.7564720
 133.5747048  65.1393103 142.6570299 134.1490800  64.9168284 141.9243492
 134.1618031  65.2081797 143.4098900 142.6326626  71.0266830 143.4634676
 143.1458507  71.6596822 143.9656385 143.2827849  70.4268025 143.0978036
 133.9016635  67.1697564 136.6766184 133.0653948  67.5072250 136.9975459
 133.7621405  67.0346544 135.7393321 135.8769716  62.0134352 141.3845368
 135.2234128  61.6983369 140.7601983 135.8350190  61.3910092 142.1105191
 136.9880921  72.2953647 133.2998660 136.0807983  72.0642900 133.4989809
 137.4851953  71.4991266 133.4872642 139.8949000  81.0051154 136.2195347
 139.2210699  81.3082851 136.8280304 140.2814822  81.8080234 135.8700804
 139.1107456  68.5016285 145.7093016 138.1930018  68.7231232 145.5514704
 139.5267600  68.5762596 144.8504723 139.8942504  69.9007701 140.8395696
 140.6414323  70.4129098 140.5302818 140.1634094  69.5791754 141.7000090
 138.1669154  72.3966242 137.8222651 137.2580374  72.1125275 137.9195120
 138.1964238  72.8165320 136.9625957 143.3988422  76.0072831 141.5913818
 142.9450749  75.1663741 141.6479009 142.7682388  76.6434230 141.9288598
 142.3421341  66.9364817 142.8214486 141.6044098  66.4242204 143.1524728
 142.5948115  66.4965199 142.0097762 141.8421361  77.8449328 142.5263636
 142.1344335  78.4054385 141.8076002 142.3519982  78.1377889 143.2816795
 128.7357325  70.1171756 141.8037853 128.5381725  69.5241117 141.0788919
 128.1803989  69.8123966 142.5213792 136.7154048  70.0094862 143.9232446
 136.7702658  69.0568699 143.8474923 135.9045250  70.1654301 144.4073744
 137.8645242  73.9374985 135.1610729 137.4264672  73.2210844 134.7016367
 138.6055683  74.1651100 134.5995821 134.6546408  68.6271922 141.6822825
 133.8414274  68.9266093 142.0888017 135.1505403  68.2327611 142.3997307
 136.8054986  78.6229679 143.6157090 136.7631165  78.8490525 142.6865622
 137.7217685  78.3893054 143.7642891 145.9818357  72.2132182 141.2187048
 145.8436256  72.4033778 140.2908237 145.6254576  72.9751565 141.6755099
 134.1460483  66.1990278 147.2984060 134.7859862  66.0579037 146.6007023
 133.3138014  65.9124791 146.9222662 146.0087737  74.2808709 146.2298319
 146.4424243  74.1883999 147.0781373 146.7219317  74.2566210 145.5918335
 134.9220787  75.4992708 143.4119052 135.7161385  75.0043028 143.2101627
 134.2112479  74.9710571 143.0486758 139.7415631  77.8810804 147.7631420
 139.7952654  78.4501740 148.5309136 138.8730413  78.0512689 147.3985457
 131.2303550  69.6435790 139.4878805 130.3001139  69.5820245 139.7048767
 131.3261022  69.1211743 138.6915446 131.1489100  66.1690603 142.0757047
 131.4095917  67.0835936 141.9666207 131.9706272  65.7015045 142.2253659
 132.6214025  67.5828360 149.2455871 133.2937078  67.3745722 148.5968520
 131.7943811  67.3850446 148.8061103 138.7003731  72.0471066 149.3218352
 139.6295791  72.1982225 149.1487319 138.2794761  72.1355086 148.4666998
 137.4992063  76.0721730 147.0916889 137.3603149  75.7040514 147.9642827
 136.7106659  76.5869369 146.9200847 138.0940215  81.1730827 138.4342426
 138.2691971  80.7018870 139.2488049 137.4073003  81.7996593 138.6623687
 139.0497278  75.4503333 144.4805727 138.7147111  75.4104103 145.3763377
 138.5501224  74.7848049 144.0076137 133.0241522  70.8570963 150.0058308
 132.8861320  70.1251202 150.6069847 133.9346446  70.7679863 149.7242496
 141.9856470  72.7959367 134.7542787 141.3685640  72.0706195 134.6575839
 141.5172958  73.5568727 134.4109861 135.6523823  70.5690922 149.4941988
 136.3623441  69.9284114 149.4528606 135.6093131  70.8203817 150.4168169
 134.3652757  67.5556140 151.3137627 133.8290114  67.1046878 151.9659224
 133.7769465  67.6902049 150.5708092 132.6601300  84.3220189 145.2082286
 132.8997898  84.9538713 145.8861305 131.8170497  83.9708229 145.4947645
 133.7755016  67.0144791 133.8764091 132.8984482  66.8933592 133.5126338
 134.2512769  66.2230870 133.6242980 125.2957156  71.8021951 143.9705598
 125.9828196  71.4883681 143.3826614 125.1405285  72.7063316 143.6972850
 130.0991878  66.6912148 148.3990622 130.0150067  66.0837817 147.6641032
 129.2774584  67.1821166 148.4000118 137.1729162  80.1299312 147.6123790
 137.0999334  80.9354283 148.1243095 136.7306555  80.3291278 146.7871811
 136.9618942  79.3671082 141.1226612 136.1786464  79.9092762 141.2164836
 137.6611687  79.8845061 141.5220853 140.2715592  65.1765711 143.7660817
 140.7684291  64.4235674 143.4461887 139.5002573  65.2130028 143.2004026
 141.3545373  73.9337398 141.3399240 140.4201651  74.0538861 141.1703945
 141.5322041  73.0309865 141.0759250 136.8550561  67.3183094 143.4932502
 136.4848348  66.7654135 144.1813407 137.3509653  66.7141228 142.9407502
 144.7417924  69.7754718 141.8749274 145.2078376  70.6082709 141.8009577
 145.1925424  69.3099699 142.5794533 134.6839759  77.7780589 150.5887519
 135.3849219  78.4117072 150.7416914 134.2134874  78.1195321 149.8283159
 142.8094155  76.1198539 138.8735427 143.0853999  76.0055134 139.7829301
 141.9398654  75.7216024 138.8347600 142.4841045  70.3325197 148.4140070
 141.8312495  70.5801104 147.7592523 142.8621425  69.5189335 148.0802547
 139.4448219  80.3684890 142.5168240 139.6270614  79.5506546 142.9795992
 140.2681205  80.5852582 142.0793130 139.7790385  79.2953075 139.7783289
 140.3078151  78.7845530 139.1653451 140.0418604  78.9795605 140.6428822
 130.2807477  77.3116944 147.5218622 130.8660914  76.5660632 147.6546526
 130.0832316  77.6220901 148.4055286 133.1346132  80.3468192 142.5381065
 132.4656508  80.8314319 142.0545105 132.9959002  80.5937412 143.4524443
 124.8725132  69.8822544 146.2423065 124.9109231  69.3486135 147.0360183
 124.3665425  69.3557750 145.6234042 132.2515894  64.7287085 149.7385608
 132.3157221  65.5901916 149.3263005 132.1883015  64.1161087 149.0057966
 131.7268167  66.8010218 153.3858642 132.3540206  66.4187295 153.9996166
 130.8696086  66.5824419 153.7514334 128.5033710  68.6086647 139.3176997
 128.7987151  67.6997325 139.2644050 127.6021745  68.5874386 138.9957999
 140.4119788  80.3293911 146.1227405 140.2870928  79.5283651 145.6138351
 141.0698879  80.8240104 145.6341375 132.0327957  66.6842643 145.3004545
 131.3114542  67.2978611 145.1612019 132.8221212  67.2200408 145.2221191
 142.4754697  78.1302931 147.7506955 141.5285032  78.0108282 147.6785282
 142.8237470  77.2425429 147.8333217 130.2321551  66.2900744 139.4416322
 129.9034257  65.4098123 139.2591428 130.5860922  66.2348413 140.3292711
 139.4801130  77.9255647 143.9511307 139.3326092  76.9972354 144.1318877
 140.3054624  77.9475738 143.4668383 133.3463374  66.5773714 139.8091800
 133.6859447  67.1059635 139.0870408 133.7935495  66.9154120 140.5850366
 143.0835252  78.7484206 145.0376180 144.0081799  78.5427067 144.9000631
 142.9150555  78.5000607 145.9465522 136.0406815  64.9610765 149.2594868
 135.7003635  64.1618578 149.6615547 135.3345821  65.2612476 148.6871701
 136.6923287  62.0460077 147.7122191 137.5149356  61.5720555 147.5901081
 136.9361350  62.8250561 148.2120877 135.3331521  65.0748336 138.0085092
 136.0539884  65.4529588 137.5048809 134.7096826  65.7937213 138.1120070
 139.4762644  65.7793485 138.9443425 139.6926259  66.6618123 138.6432253
 138.9956711  65.3879698 138.2149067 134.2161866  68.7379198 145.5214169
 134.0706446  69.0519501 146.4138451 133.7387069  69.3564098 144.9685068
 136.0758249  65.7281746 145.5695059 136.0619817  64.8322839 145.2327357
 136.7930677  65.7352410 146.2033345 137.9284379  66.1619086 147.6148186
 137.6702157  67.0836157 147.6132517 137.3969420  65.7649521 148.3048650
 142.8730568  79.2669873 140.3938272 143.0467446  78.7016296 139.6412124
 143.3659459  80.0670768 140.2117762 128.6907528  71.2784542 148.4601830
 128.1460996  72.0544350 148.5922105 129.5686878  71.6255347 148.3020952
 135.4795145  64.6096126 140.8382629 135.6011056  63.6812772 141.0373516
 135.1897187  64.6234812 139.9260944 138.3486335  62.2951037 143.9749349
 138.3708032  62.3590370 143.0201328 138.7654394  61.4555545 144.1689855
 148.7269959  72.0306296 142.0128571 149.1701105  71.2813621 141.6147695
 147.8496470  72.0216433 141.6302303 143.8605741  78.5836638 137.4935170
 144.5556645  79.2043330 137.7122485 144.2028891  77.7331989 137.7687548
 129.4773550  70.4054439 151.3531987 128.7355286  70.5537074 151.9396618
 129.1566294  70.6662704 150.4898737 145.7597164  76.0336343 139.0222501
 146.2848488  76.3723616 138.2971821 145.6719516  75.0983358 138.8385635
 137.4437824  82.1008326 143.3817754 137.0042815  81.6084705 144.0750611
 138.1945941  81.5581294 143.1409829 129.9230163  78.2919867 143.3842382
 130.7488183  77.9923639 143.0041025 129.5724215  77.5227490 143.8332171
 134.8911697  77.6446335 145.4540056 134.2691706  76.9817041 145.1542283
 135.5616563  77.6707467 144.7713703 128.1238768  76.2106194 144.3431316
 127.2870677  75.7828368 144.1615317 128.0962414  76.4038637 145.2802107
 134.4525203  76.1950259 138.9298516 134.6013324  76.8785723 138.2765189
 135.2591647  76.1755349 139.4447972 148.2702824  73.5011534 144.4051019
 149.1049715  73.9401339 144.5688579 148.4061953  73.0250188 143.5859265
 132.2077836  72.2215436 139.9359585 131.9623878  71.3177766 140.1339795
 132.3773751  72.2232587 138.9939063 131.4773484  67.9543794 137.4345746
 130.7842729  68.0288149 136.7785782 131.2325236  67.1904138 137.9567263
 137.9520609  78.6898389 136.4010263 137.3794576  79.3088576 135.9480735
 138.5253403  79.2397751 136.9350185 141.1717869  78.9735539 137.5318846
 142.1048542  78.9081101 137.7351721 141.0841082  79.8091806 137.0733378
 143.8005885  78.2901410 134.4922793 143.7219517  77.9561273 135.3858551
 144.6215552  78.7823178 134.4914266 138.3367407  70.0259202 133.7426316
 139.2826512  69.8965410 133.8114734 137.9581652  69.2873864 134.2195744
 136.5210325  67.9509178 133.6781201 135.6141780  67.6542291 133.7543915
 136.7986306  67.6538997 132.8115487 127.4388265  69.2715542 144.1280248
 127.1191049  68.4180850 143.8354622 126.8921693  69.4864120 144.8838215
 131.2168173  71.9877983 147.8449754 131.4354182  72.9195091 147.8637788
 131.6293946  71.6285957 148.6304558 138.1372390  62.4946068 139.8325442
 137.3273119  62.1493153 140.2080689 138.8256807  62.1853612 140.4213054
 140.0662939  61.5724115 141.4549739 140.6193977  61.9919568 142.1139762
 140.3033025  60.6459863 141.4972695 135.2909109  64.8096114 133.8193180
 136.1528273  65.1351012 134.0788998 135.4759453  64.0227610 133.3066246
 127.3076525  72.8918453 146.0973369 126.6139996  72.4772406 145.5843324
 128.0549516  72.9338990 145.5006788 143.4441746  63.6824640 140.9628403
 142.8640415  64.3409444 140.5806456 143.1777678  62.8601985 140.5515821
 141.8945312  63.0829698 143.1649724 142.3945090  63.1946232 142.3564043
 142.5380920  62.7790751 143.8050532 129.2213268  72.8236707 143.9739384
 129.1983956  72.9224394 143.0221267 129.5313904  73.6701858 144.2956550
 131.8800645  74.8812862 148.0885998 132.8343899  74.8496804 148.0215930
 131.6813169  74.4203486 148.9036224 132.4700028  73.4513978 150.6556796
 133.2892917  73.9458057 150.6791633 132.7436835  72.5345946 150.6274364
 142.2266624  65.8424730 140.0184752 141.3392479  66.1274381 139.8004946
 142.6420613  65.6818494 139.1712029 130.2350874  80.4232482 145.1056196
 130.1005342  79.6632883 144.5394194 129.8182936  81.1473381 144.6384985
 141.3709837  75.6069405 134.1132772 142.0745687  75.8119408 134.7290427
 140.6472486  76.1746167 134.3781855 142.2007648  71.3579266 140.2335042
 142.1442849  71.8147818 139.3942674 142.7535990  70.5969951 140.0557885
 146.0112453  67.1468998 141.0585161 145.7549388  66.7465634 141.8893369
 145.3865321  67.8612792 140.9335300 133.3920000  81.3201799 145.3174639
 133.2752384  82.2647231 145.2153329 132.5712446  81.0175360 145.7060438
 143.2796535  76.0451934 136.1631232 144.1142139  75.6133133 135.9808706
 143.1180878  75.8733948 137.0908126 142.9342427  72.5484048 137.5287571
 142.8791231  72.3828319 136.5876015 142.3088482  73.2560081 137.6849761
 127.7234942  67.7852112 151.3548993 128.3693805  67.2751066 151.8436218
 127.5152093  68.5220794 151.9292418 136.2438552  62.0492157 137.1072889
 136.2317222  62.9933997 137.2641160 137.1361974  61.8662302 136.8132351
 134.4174514  81.9730061 148.5330567 135.3201761  82.0053671 148.8497062
 134.1911884  81.0430511 148.5476903 136.1728116  80.7261047 145.1940646
 135.2223747  80.7262909 145.0805018 136.4760602  79.9793782 144.6776681
 140.0590672  58.6434933 141.3618826 139.2923068  58.0893420 141.5075509
 140.4701377  58.7156802 142.2232978 144.0812518  89.1244595 137.8946423
 144.8543394  88.5773582 137.7559299 144.4337916  89.9888844 138.1060885
 146.4178795  85.2837261 135.5264873 146.6704316  84.7618782 134.7648336
 145.4803354  85.1203406 135.6291557 146.1375084  87.1865367 137.7289248
 146.0211342  86.5110270 138.3970333 146.2477344  86.6997741 136.9121401
 148.1212112  81.6765414 136.4297286 148.2886514  82.5445650 136.7967757
 147.9309281  81.8392695 135.5058575 148.1001333  84.1323071 137.4143953
 147.9800958  84.5780122 138.2529433 147.4053921  84.4808389 136.8557491
 153.7986399  84.6044544 138.2424287 154.7104255  84.8371931 138.0671984
 153.2896046  85.1881589 137.6799365 146.8952829  85.4467923 139.7077519
 147.5976873  85.8988967 140.1751445 146.5633458  84.8051742 140.3357412
 140.6378163  83.7051476 145.0094652 139.8477217  83.9609005 144.5334763
 141.1289411  84.5199814 145.1146693 142.5892909  84.0696055 141.9678129
 141.7924072  84.1814749 142.4861624 142.3618501  84.4082707 141.1019019
 141.5875991  89.7784304 140.3567549 142.1000512  90.5727554 140.5073114
 142.2398704  89.0810594 140.2901150 139.5524908  88.1072958 141.1327119
 140.3900130  88.5169967 140.9160827 139.7303176  87.1672400 141.1027313
 151.4489340  85.7748039 136.8210952 150.9335964  86.5452644 137.0599340
 151.1766649  85.1013175 137.4444014 149.0336451  80.6197740 141.8796191
 148.1778048  80.2304590 141.7001829 149.4463403  80.6989700 141.0195976
 146.8078484  78.2382813 145.2853932 147.6731481  78.0425621 144.9259822
 146.8755993  78.0093164 146.2123289 151.2375643  83.6475131 138.6470733
 150.9325779  83.9621280 139.4980877 152.1906086  83.7256551 138.6898066
 144.4140803  80.4685021 142.6570299 144.9884555  80.2460202 141.9243492
 145.0011785  80.5373715 143.4098900 144.7410390  82.4989482 136.6766184
 143.9047702  82.8364168 136.9975459 144.6015160  82.3638461 135.7393321
 146.7163471  77.3426270 141.3845368 146.0627883  77.0275287 140.7601983
 146.6743945  76.7202010 142.1105191 147.8274675  87.6245565 133.2998660
 146.9201737  87.3934818 133.4989809 148.3245707  86.8283184 133.4872642
 149.0062909  87.7258159 137.8222651 148.0974128  87.4417192 137.9195120
 149.0357993  88.1457238 136.9625957 139.5751079  85.4463674 141.8037853
 139.3775479  84.8533034 141.0788919 139.0197743  85.1415884 142.5213792
 148.7038997  89.2666903 135.1610729 148.2658427  88.5502762 134.7016367
 149.4449438  89.4943018 134.5995821 145.4940163  83.9563840 141.6822825
 144.6808028  84.2558010 142.0888017 145.9899157  83.5619529 142.3997307
 142.0697305  84.9727707 139.4878805 141.1394893  84.9112163 139.7048767
 142.1654777  84.4503660 138.6915446 141.9882854  81.4982520 142.0757047
 142.2489671  82.4127854 141.9666207 142.8100026  81.0306963 142.2253659
 152.8250224  88.1251285 134.7542787 152.2079395  87.3998113 134.6575839
 152.3566713  88.8860645 134.4109861 144.6148770  82.3436709 133.8764091
 143.7378237  82.2225510 133.5126338 145.0906523  81.5522787 133.6242980
 136.1350910  87.1313869 143.9705598 136.8221950  86.8175599 143.3826614
 135.9799039  88.0355233 143.6972850 151.1109346  80.5057629 143.7660817
 151.6078046  79.7527591 143.4461887 150.3396328  80.5421946 143.2004026
 147.6944315  82.6475012 143.4932502 147.3242103  82.0946052 144.1813407
 148.1903408  82.0433145 142.9407502 135.7118886  85.2114462 146.2423065
 135.7502986  84.6778053 147.0360183 135.2059179  84.6849668 145.6234042
 139.3427464  83.9378564 139.3176997 139.6380905  83.0289243 139.2644050
 138.4415500  83.9166304 138.9957999 142.8721711  82.0134561 145.3004545
 142.1508297  82.6270529 145.1612019 143.6614967  82.5492326 145.2221191
 141.0715306  81.6192662 139.4416322 140.7428012  80.7390041 139.2591428
 141.4254676  81.5640331 140.3292711 144.1857129  81.9065632 139.8091800
 144.5253201  82.4351553 139.0870408 144.6329249  82.2446038 140.5850366
 146.1725276  80.4040253 138.0085092 146.8933638  80.7821506 137.5048809
 145.5490580  81.1229130 138.1120070 150.3156399  81.1085402 138.9443425
 150.5320013  81.9910040 138.6432253 149.8350466  80.7171616 138.2149067
 146.3188899  79.9388044 140.8382629 146.4404810  79.0104690 141.0373516
 146.0290941  79.9526730 139.9260944 149.1880089  77.6242954 143.9749349
 149.2101786  77.6882287 143.0201328 149.6048148  76.7847463 144.1689855
 145.2918958  91.5242177 138.9298516 145.4407078  92.2077641 138.2765189
 146.0985401  91.5047267 139.4447972 143.0471591  87.5507354 139.9359585
 142.8017633  86.6469684 140.1339795 143.2167505  87.5524505 138.9939063
 142.3167238  83.2835712 137.4345746 141.6236483  83.3580067 136.7785782
 142.0718990  82.5196055 137.9567263 149.1761162  85.3551120 133.7426316
 150.1220267  85.2257328 133.8114734 148.7975407  84.6165782 134.2195744
 147.3604079  83.2801096 133.6781201 146.4535535  82.9834209 133.7543915
 147.6380060  82.9830914 132.8115487 138.2782020  84.6007460 144.1280248
 137.9584804  83.7472768 143.8354622 137.7315448  84.8156038 144.8838215
 148.9766145  77.8237986 139.8325442 148.1666873  77.4785071 140.2080689
 149.6650562  77.5145530 140.4213054 150.9056693  76.9016033 141.4549739
 151.4587732  77.3211486 142.1139762 151.1426780  75.9751781 141.4972695
 146.1302864  80.1388031 133.8193180 146.9922028  80.4642930 134.0788998
 146.3153208  79.3519527 133.3066246 154.2835500  79.0116558 140.9628403
 153.7034169  79.6701362 140.5806456 154.0171433  78.1893902 140.5515821
 152.7339067  78.4121615 143.1649724 153.2338845  78.5238150 142.3564043
 153.3774675  78.1082668 143.8050532 153.0660378  81.1716648 140.0184752
 152.1786233  81.4566299 139.8004946 153.4814367  81.0110412 139.1712029
 152.2103592  90.9361323 134.1132772 152.9139442  91.1411325 134.7290427
 151.4866240  91.5038085 134.3781855 153.7736181  87.8775965 137.5287571
 153.7184985  87.7120237 136.5876015 153.1482237  88.5851998 137.6849761
 147.0832307  77.3784074 137.1072889 147.0710977  78.3225914 137.2641160
 147.9755729  77.1954220 136.8132351 150.8984426  73.9726851 141.3618826
 150.1316822  73.4185338 141.5075509 151.3095131  74.0448720 142.2232978
  89.3026284   0.0114641 131.9327593  89.5422882   0.6433165 132.6106611
  88.4595480  -0.3397319 132.2192952  98.7646747   5.5530133 131.7474351
  99.5568039   5.2120958 131.3320650  99.0043397   5.6625109 132.6676504
 106.7981874   7.7249910 124.2204596 106.1469853   8.3103990 123.8338609
 107.5926237   8.2556104 124.2799633 100.7237501   4.8139047 124.6191730
 101.4968377   4.2668034 124.4804606 101.0762900   5.6783296 124.8306191
 102.5622543   6.1415429 137.8258629 102.2712409   7.0461060 137.7105296
 103.1979528   6.1831957 138.5402699 102.5033208  12.5921165 127.7879391
 102.4257238  13.5428990 127.8667871 101.8994852  12.2467037 128.4454317
 105.0623560   6.2835210 136.6405950 105.1267992   6.7455618 137.4764122
 104.3534483   5.6532575 136.7688260 104.7771577   7.9503318 126.5084930
 104.6417252   8.7954854 126.9369778 105.3181390   8.1522595 125.7450864
  98.2300975   5.4678756 127.0812855  98.7425495   6.2622006 127.2318420
  98.8823687   4.7705046 127.0146457 100.0395859   8.5844512 129.1635609
 100.2162488   9.5062477 128.9756593 100.8352693   8.2702931 129.5929988
 106.4040054   8.5726884 140.6385272 105.9603908   7.7863263 140.3206177
 107.0657267   8.7606035 139.9729163 101.1627175  10.1022686 135.1645951
 101.7134600   9.9739749 134.3922945 100.3238651  10.4017575 134.8140844
 108.5021292   8.8529684 138.6666674 108.4839767   9.6738565 138.1746943
 109.4241212   8.7283759 138.8916815  96.1949891   3.7967410 127.8572426
  97.0325113   4.2064419 127.6406134  96.3728159   2.8566852 127.8272620
 107.3767738  12.0237524 122.9440653 106.7029436  12.3269220 123.5525611
 107.7633560  12.8266604 122.5946110 109.3240099   8.8635698 129.2508943
 109.6163073   9.4240755 128.5321309 109.8338719   9.1564259 130.0062102
 104.2873724   9.6416049 130.3402396 104.2449903   9.8676895 129.4110928
 105.2036423   9.4079423 130.4888197 102.4039525   6.5179078 130.1364359
 103.1980123   6.0229398 129.9346934 101.6931217   5.9896941 129.7732064
 107.2234369   8.8997173 134.4876726 107.2771392   9.4688109 135.2554442
 106.3549151   9.0699058 134.1230764 104.9810801   7.0908100 133.8162196
 104.8421886   6.7226884 134.6888134 104.1925397   7.6055739 133.6446154
 105.5758953  12.1917196 125.1587732 105.7510708  11.7205239 125.9733355
 104.8891741  12.8182962 125.3868993 100.1420038  15.3406559 131.9327593
 100.3816636  15.9725083 132.6106611  99.2989235  14.9894599 132.2192952
  92.7775894   2.8208321 130.6950905  93.4646933   2.5070051 130.1071920
  92.6224022   3.7249685 130.4218156 104.6547900  11.1485681 134.3369097
 104.5818071  11.9540653 134.8488401 104.2125293  11.3477647 133.5117118
 104.4437680  10.3857451 127.8471918 103.6605201  10.9279132 127.9410143
 105.1430425  10.9031431 128.2466159 107.1146583  11.0472515 136.4927255
 107.8274556  11.6819980 136.4203157 106.6236612  11.1436381 135.6767257
 102.1658497   8.7966959 137.3132826 102.8667956   9.4303442 137.4662220
 101.6953612   9.1381690 136.5528465 106.9266957  11.3871259 129.2413547
 107.1089351  10.5692915 129.7041299 107.7499943  11.6038952 128.8038437
 107.2609122  10.3139445 126.5028595 107.7896889   9.8031899 125.8898757
 107.5237342   9.9981975 127.3674128  97.7626215   8.3303314 134.2463929
  98.3479652   7.5847002 134.3791833  97.5651053   8.6407271 135.1300593
 100.6164870  11.3654561 129.2626371  99.9475245  11.8500689 128.7790411
 100.4777740  11.6123782 130.1769750 104.7570139  13.3998305 135.8609030
 105.3088447  13.5629926 136.6258115 105.0976332  13.9902743 135.1889054
 107.8938526  11.3480280 132.8472712 107.7689666  10.5470020 132.3383657
 108.5517617  11.8426474 132.3586682 109.9573434   9.1489300 134.4752262
 109.0103770   9.0294652 134.4030589 110.3056208   8.2611798 134.5578523
 106.9619868   8.9442017 130.6756614 106.8144830   8.0158724 130.8564184
 107.7873361   8.9662107 130.1913689 110.5653990   9.7670575 131.7621487
 111.4900537   9.5613437 131.6245938 110.3969293   9.5186976 132.6710828
 110.3549306  10.2856243 127.1183578 110.5286183   9.7202665 126.3657431
 110.8478197  11.0857138 126.9363068 111.3424478   9.6023007 124.2180477
 112.0375383  10.2229700 124.4367791 111.6847628   8.7518358 124.4932854
 104.9035950  10.9656786 137.8757684 105.2123077  10.7205933 138.7480384
 105.7011432  11.1703425 137.3876554 104.9256562  13.1194696 130.1063060
 104.4861552  12.6271075 130.7995917 105.6764679  12.5767664 129.8655136
  97.4048901   9.3106237 130.1087689  98.2306921   9.0110009 129.7286332
  97.0542953   8.5413859 130.5577477 102.3730434   8.6632705 132.1785362
 101.7510444   8.0003410 131.8787590 103.0435301   8.6893837 131.4959010
  95.6057506   7.2292563 131.0676622  94.7689415   6.8014738 130.8860623
  95.5781152   7.4225007 132.0047413 101.9343941   7.2136628 125.6543823
 102.0832062   7.8972093 125.0010495 102.7410385   7.1941718 126.1693278
 105.4339347   9.7084759 123.1255570 104.8613314  10.3274946 122.6726042
 106.0072140  10.2584121 123.6595492 108.6536607   9.9921909 124.2564152
 109.5867280   9.9267471 124.4597028 108.5659819  10.8278176 123.7978685
 111.2824623   9.3087779 121.2168100 111.2038255   8.9747643 122.1103858
 112.1034290   9.8009547 121.2159572  94.7895263   3.9104823 132.8218676
  94.0958734   3.4958776 132.3088630  95.5368254   3.9525359 132.2252095
  96.7032005   3.8423077 130.6984691  96.6802693   3.9410764 129.7466574
  97.0132642   4.6888227 131.0201857  99.3619383   5.8999232 134.8131305
 100.3162637   5.8683174 134.7461237  99.1631907   5.4389855 135.6281531
  97.7169612  11.4418851 131.8301503  97.5824080  10.6819252 131.2639501
  97.3001674  12.1659751 131.3630292 100.8738738  12.3388168 132.0419946
 100.7571122  13.2833601 131.9398636 100.0531184  12.0361730 132.4305745
 101.8993252  12.9916430 135.2575874 102.8020499  13.0240040 135.5742369
 101.6730622  12.0616881 135.2722210 103.6546854  11.7447417 131.9185953
 102.7042485  11.7449278 131.8050325 103.9579340  10.9980151 131.4021987
 119.3899548  17.5807955 132.9831715 120.0277957  17.4614702 132.2795055
 119.2720390  18.5288799 133.0419667 116.1989254  17.5335383 132.9193240
 115.8607765  17.4176448 132.0313775 117.0679022  17.1326548 132.8994246
 112.0576069  19.3870860 128.9090131 111.4940935  19.2960796 128.1406418
 111.9428465  18.5670764 129.3892623 116.6809037  18.6870235 138.8779445
 116.6697678  18.2923033 138.0059949 116.8429676  17.9536307 139.4713217
 109.6040501  20.8822051 131.7474351 110.3961793  20.5412876 131.3320650
 109.8437152  20.9917026 132.6676504 117.6375628  23.0541827 124.2204596
 116.9863608  23.6395908 123.8338609 118.4319991  23.5848022 124.2799633
 111.5631255  20.1430964 124.6191730 112.3362131  19.5959951 124.4804606
 111.9156654  21.0075214 124.8306191 113.4016298  21.4707347 137.8258629
 113.1106164  22.3752978 137.7105296 114.0373282  21.5123874 138.5402699
 114.3272505  18.8484195 134.4159989 114.9236077  18.6240218 133.7016952
 114.3847476  18.1068941 135.0185437 113.8997533  16.3023631 122.2510180
 114.1523054  15.7805152 121.4893643 112.9622092  16.1389776 122.3536863
 118.9440816  15.3059409 130.0584923 119.7303905  14.8878832 129.7075340
 119.2079520  16.2105501 130.2266571 119.1150893  20.7432259 124.7573580
 118.4796726  20.8166886 125.4694485 118.7848300  21.3325858 124.0792659
 113.6193822  18.2051736 124.4534555 113.5030080  17.5296640 125.1215639
 113.7296082  17.7184110 123.6366708 115.9625363  17.6661884 128.1581244
 115.5983570  17.1392505 128.8694166 116.8192479  17.2760353 127.9847729
 115.6030850  12.6951783 123.1542593 115.7705252  13.5632020 123.5213064
 115.4128019  12.8579065 122.2303882 118.3606183  21.1568762 134.8208423
 118.0606906  22.0593801 134.7124230 118.0157243  20.8900945 135.6729576
 111.8118664  17.6082559 130.8545127 110.8869161  17.4758773 131.0622819
 112.0603078  18.3876778 131.3515070 121.7603327  13.6751302 132.5005860
 120.8520204  13.6066711 132.2064621 121.7090923  14.1523247 133.3287686
 115.5820071  15.1509441 124.1389259 115.4619696  15.5966492 124.9774740
 114.8872659  15.4994758 123.5802798 109.1727476  17.2515833 131.6888916
 109.3019857  17.5050312 132.6028328 108.4924927  17.8443541 131.3693572
 113.3426963  27.9213083 127.7879391 113.2650993  28.8720908 127.8667871
 112.7388606  27.5758955 128.4454317 121.2805137  15.6230914 124.9669593
 122.1922993  15.8558301 124.7917291 120.7714784  16.2067958 124.4044672
 114.0890565  17.9026401 140.0058725 114.8305249  18.4411445 139.7293548
 113.3827550  18.5292690 140.1630276 119.5645905  20.0455542 138.6030886
 119.9729261  19.6037952 137.8585518 118.8423166  19.4708169 138.8565079
 115.9176975  14.9828149 135.9764443 116.7638170  15.4067562 136.1199092
 115.8575612  14.3261773 136.6703006 119.8874719  20.6056732 132.3583175
 119.2583582  20.7702447 131.6559243 119.5000381  21.0198342 133.1294139
 123.7663951  21.5411170 129.7127539 123.0814989  21.9210072 129.1624572
 123.8507800  22.1506497 130.4459486 121.0214883  19.1871129 136.3122882
 121.2331778  19.8302889 135.6357263 120.9744631  18.3533446 135.8444812
 118.6241112  11.7988950 133.2159454 117.7625591  12.0970204 133.5076192
 118.6503546  12.0159349 132.2840487 115.4402681  20.3431141 129.6233260
 115.9041027  20.6218843 128.8337883 115.1759479  19.4414585 129.4406351
 112.3326762  19.8902622 132.5613023 112.9028119  20.3189890 131.9230508
 112.9234874  19.6085207 133.2597209 114.3771567  16.4654293 126.4322825
 115.0795610  16.9175337 126.8996752 114.0452196  15.8238112 127.0602718
 112.8251929  15.0566049 140.8074035 112.1950589  15.7382330 141.0409431
 112.7188017  14.9449131 139.8627173 108.1196901  14.7237846 131.7339959
 107.3295955  14.9795374 131.2580069 108.6108148  15.5386183 131.8391999
 122.1360711  22.0643085 134.4845240 122.9578154  21.6623272 134.2027921
 122.1323113  21.9611319 135.4361355 110.0711646  15.0882425 128.6923435
 109.2742810  15.2001119 129.2106931 109.8437239  15.4269077 127.8264326
 115.9017314  21.6127128 136.6405950 115.9661747  22.0747535 137.4764122
 115.1928238  20.9824493 136.7688260 106.4034604  14.9768336 134.1654950
 106.6542642  15.8615346 134.4312525 106.9394152  14.7972938 133.3930041
 115.6165332  23.2795235 126.5084930 115.4811007  24.1246771 126.9369778
 116.1575144  23.4814513 125.7450864 109.0694729  20.7970674 127.0812855
 109.5819250  21.5913924 127.2318420 109.7217442  20.0996964 127.0146457
 110.8789614  23.9136430 129.1635609 111.0556242  24.8354395 128.9756593
 111.6746447  23.5994849 129.5929988 110.1641970  15.9601062 139.0397772
 110.0495485  15.0586319 139.3404871 109.3086488  16.2064758 138.6882588
 117.2433808  23.9018802 140.6385272 116.7997662  23.1155181 140.3206177
 117.9051022  24.0897953 139.9729163 112.0020929  25.4314604 135.1645951
 112.5528354  25.3031667 134.3922945 111.1632405  25.7309493 134.8140844
 119.3415046  24.1821602 138.6666674 119.3233522  25.0030483 138.1746943
 120.2634966  24.0575677 138.8916815 115.7988100  21.6965731 139.5090182
 116.3316437  20.9354020 139.2789490 115.2702181  21.4039383 140.2514337
 107.0343646  19.1259328 127.8572426 107.8718868  19.5356336 127.6406134
 107.2121914  18.1858770 127.8272620 118.9308078  16.7934408 123.5456259
 118.4154701  17.5639013 123.7844646 118.6585386  16.1199545 124.1689320
 116.5155189  11.6384109 128.6041497 115.6596785  11.2490960 128.4247136
 116.9282141  11.7176070 127.7441283 114.2897222   9.2569182 132.0099239
 115.1550218   9.0611991 131.6505128 114.3574730   9.0279534 132.9368596
 123.9042352  19.5466763 125.4809432 123.1271795  19.2077923 125.0364595
 124.5833833  19.5519386 124.8064397 118.7194381  14.6661501 125.3716040
 118.4144517  14.9807650 126.2226183 119.6724823  14.7442920 125.4143373
 117.1640813  20.8251724 127.0208994 116.6362175  20.0904483 126.7082232
 116.6628316  21.6026400 126.7748962 122.1433659  19.0200744 132.1376040
 121.4857333  19.7100006 132.2256169 122.9474058  19.4097176 132.4810027
 111.8959541  11.4871390 129.3815606 112.4703293  11.2646572 128.6488799
 112.4830523  11.5560085 130.1344207 120.9539118  17.3745117 130.1879982
 121.4671000  18.0075109 130.6901692 121.6040342  16.7746313 129.8223342
 112.2229128  13.5175851 123.4011491 111.3866440  13.8550538 123.7220766
 112.0833897  13.3824831 122.4638628 115.3093413  18.6431934 120.0243967
 114.4020475  18.4121188 120.2235116 115.8064445  17.8469553 120.2117949
 118.2161492  27.3529441 122.9440653 117.5423191  27.6561138 123.5525611
 118.6027314  28.1558522 122.5946110 117.4319949  14.8494573 132.4338323
 116.5142510  15.0709520 132.2760011 117.8480092  14.9240883 131.5750030
 118.2154996  16.2485988 127.5641003 118.9626815  16.7607386 127.2548125
 118.4846586  15.9270041 128.4245397 116.4881647  18.7444529 124.5467957
 115.5792866  18.4603562 124.6440427 116.5176730  19.1643608 123.6871264
 121.7200914  22.3551119 128.3159125 121.2663241  21.5142028 128.3724315
 121.0894881  22.9912517 128.6533905 120.6633834  13.2843105 129.5459792
 119.9256590  12.7720491 129.8770035 120.9160607  12.8443486 128.7343069
 120.1633853  24.1927615 129.2508943 120.4556828  24.7532672 128.5321309
 120.6732474  24.4856176 130.0062102 107.0569817  16.4650043 128.5283159
 106.8594217  15.8719404 127.8034226 106.5016481  16.1602253 129.2459098
 115.0366541  16.3573150 130.6477753 115.0915150  15.4046986 130.5720229
 114.2257743  16.5132589 131.1319051 116.1857734  20.2853273 121.8856036
 115.7477164  19.5689132 121.4261673 116.9268175  20.5129388 121.3241127
 112.9758901  14.9750209 128.4068131 112.1626766  15.2744380 128.8133324
 113.4717895  14.5805898 129.1242614 115.1267478  24.9707966 130.3402396
 115.0843657  25.1968813 129.4110928 116.0430177  24.7371341 130.4888197
 124.3030849  18.5610470 127.9432354 124.1648748  18.7512066 127.0153544
 123.9467068  19.3229853 128.4000406 112.4672975  12.5468565 134.0229366
 113.1072355  12.4057324 133.3252330 111.6350506  12.2603078 133.6467968
 124.3300229  20.6286997 132.9543626 124.7636736  20.5362286 133.8026680
 125.0431810  20.6044497 132.3163642 113.2433279  21.8470995 130.1364359
 114.0373878  21.3521315 129.9346934 112.5324972  21.3188858 129.7732064
 118.0628124  24.2289091 134.4876726 118.1165146  24.7980027 135.2554442
 117.1942905  24.3990976 134.1230764 109.5516043  15.9914077 126.2124112
 108.6213631  15.9298533 126.4294074 109.6473515  15.4690030 125.4160753
 109.4701592  12.5168890 128.8002353 109.7308409  13.4314223 128.6911514
 110.2918764  12.0493332 128.9498966 110.9426517  13.9306647 135.9701178
 111.6149571  13.7224009 135.3213827 110.1156304  13.7328733 135.5306410
 117.0216223  18.3949353 136.0463658 117.9508283  18.5460512 135.8732626
 116.6007254  18.4833374 135.1912305 115.8204555  22.4200017 133.8162196
 115.6815641  22.0518802 134.6888134 115.0319151  22.9347657 133.6446154
 116.4152707  27.5209114 125.1587732 116.5904463  27.0497157 125.9733355
 115.7285495  28.1474880 125.3868993 117.3709770  21.7981620 131.2051034
 117.0359603  21.7582390 132.1008684 116.8713716  21.1326336 130.7321444
 111.3454014  17.2049250 136.7303615 111.2073812  16.4729489 137.3315154
 112.2558938  17.1158150 136.4487803 120.3068962  19.1437654 121.4788093
 119.6898133  18.4184483 121.3821146 119.8385451  19.9047015 121.1355168
 113.9736315  16.9169209 136.2187295 114.6835934  16.2762402 136.1773913
 113.9305623  17.1682104 137.1413475 112.6865249  13.9034427 138.0382934
 112.1502606  13.4525166 138.6904530 112.0981957  14.0380336 137.2953398
 110.9813793  30.6698477 131.9327593 111.2210391  31.3017001 132.6106611
 110.1382989  30.3186517 132.2192952 112.0967508  13.3623079 120.6009398
 111.2196974  13.2411879 120.2371644 112.5725261  12.5709157 120.3488286
 103.6169648  18.1500238 130.6950905 104.3040688  17.8361968 130.1071920
 103.4617777  19.0541603 130.4218156 108.4204370  13.0390435 135.1235929
 108.3362559  12.4316104 134.3886338 107.5987077  13.5299453 135.1245425
 115.4941654  26.4777599 134.3369097 115.4211826  27.2832570 134.8488401
 115.0519047  26.6769565 133.5117118 115.2831434  25.7149369 127.8471918
 114.4998956  26.2571049 127.9410143 115.9824179  26.2323349 128.2466159
 118.5928084  11.5243998 130.4906124 119.0896784  10.7713961 130.1707194
 117.8215066  11.5608315 129.9249333 117.9540338  26.3764433 136.4927255
 118.6668310  27.0111898 136.4203157 117.4630367  26.4728299 135.6767257
 119.6757865  20.2815686 128.0644547 118.7414144  20.4017148 127.8949251
 119.8534533  19.3788152 127.8004557 115.1763053  13.6661381 130.2177808
 114.8060840  13.1132422 130.9058714 115.6722145  13.0619515 129.6652808
 123.0630416  16.1233005 128.5994581 123.5290868  16.9560997 128.5254884
 123.5137917  15.6577987 129.3039840 113.0052251  24.1258876 137.3132826
 113.7061711  24.7595359 137.4662220 112.5347366  24.4673608 136.5528465
 121.1306647  22.4676826 125.5980733 121.4066491  22.3533421 126.5074607
 120.2611146  22.0694311 125.5592906 120.8053537  16.6803484 135.1385376
 120.1524988  16.9279391 134.4837829 121.1833917  15.8667622 134.8047854
 117.7660711  26.7163177 129.2413547 117.9483106  25.8984833 129.7041299
 118.5893697  26.9330869 128.8038437 118.1002877  25.6431362 126.5028595
 118.6290643  25.1323817 125.8898757 118.3631096  25.3273892 127.3674128
 108.6019970  23.6595232 134.2463929 109.1873406  22.9138919 134.3791833
 108.4044808  23.9699188 135.1300593 111.4558625  26.6946479 129.2626371
 110.7869000  27.1792607 128.7790411 111.3171494  26.9415699 130.1769750
 103.1937624  16.2300832 132.9668372 103.2321724  15.6964422 133.7605490
 102.6877917  15.7036037 132.3479349 115.5963893  28.7290222 135.8609030
 116.1482201  28.8921844 136.6258115 115.9370087  29.3194660 135.1889054
 110.5728387  11.0765372 136.4630914 110.6369713  11.9380203 136.0508312
 110.5095507  10.4639374 135.7303273 110.0480659  13.1488505 140.1103949
 110.6752698  12.7665582 140.7241473 109.1908578  12.9302707 140.4759641
 106.8246202  14.9564934 126.0422303 107.1199643  14.0475612 125.9889357
 105.9234238  14.9352673 125.7203306 118.7332281  26.6772198 132.8472712
 118.6083420  25.8761938 132.3383657 119.3911372  27.1718391 132.3586682
 110.3540449  13.0320930 132.0249852 109.6327035  13.6456898 131.8857325
 111.1433705  13.5678695 131.9466498 120.7967189  24.4781218 134.4752262
 119.8497525  24.3586569 134.4030589 121.1449962  23.5903716 134.5578523
 108.5534043  12.6379032 126.1661628 108.2246750  11.7576410 125.9836734
 108.9073414  12.5826700 127.0538018 117.8013622  24.2733934 130.6756614
 117.6538585  23.3450642 130.8564184 118.6267116  24.2954025 130.1913689
 111.6675867  12.9252001 126.5337106 112.0071939  13.4537923 125.8115715
 112.1147987  13.2632407 127.3095673 121.4047744  25.0962493 131.7621487
 122.3294292  24.8905354 131.6245938 121.2363047  24.8478894 132.6710828
 114.3619307  11.3089052 135.9840174 114.0216128  10.5096865 136.3860854
 113.6558314  11.6090763 135.4117007 113.6544014  11.4226623 124.7330399
 114.3752376  11.8007876 124.2294116 113.0309318  12.1415500 124.8365377
 117.7975137  12.1271772 125.6688731 118.0138751  13.0096410 125.3677559
 117.3169204  11.7357985 124.9394373 112.5374358  15.0857485 132.2459476
 112.3918939  15.3997788 133.1383757 112.0599562  15.7042385 131.6930375
 114.3970741  12.0760033 132.2940365 114.3832310  11.1801126 131.9572663
 115.1143169  12.0830697 132.9278651 116.2496872  12.5097373 134.3393493
 115.9914649  13.4314444 134.3377823 115.7181912  12.1127808 135.0293957
 121.1943060  25.6148160 127.1183578 121.3679938  25.0494583 126.3657431
 121.6871952  26.4149055 126.9363068 107.0120020  17.6262830 135.1847137
 106.4673488  18.4022637 135.3167411 107.8899370  17.9733634 135.0266258
 113.8007637  10.9574413 127.5627936 113.9223548  10.0291060 127.7618823
 113.5109679  10.9713099 126.6506251 127.0482451  18.3784583 128.7373878
 127.4913598  17.6291909 128.3393001 126.1708962  18.3694720 128.3547610
 122.1818233  24.9314925 124.2180477 122.8769137  25.5521618 124.4367791
 122.5241383  24.0810276 124.4932854 107.7986042  16.7532726 138.0777294
 107.0567778  16.9015361 138.6641924 107.4778786  17.0140991 137.2144043
 124.0809656  22.3814630 125.7467807 124.6060980  22.7201903 125.0217127
 123.9932008  21.4461646 125.5630942 115.7429705  26.2948704 137.8757684
 116.0516831  26.0497851 138.7480384 116.5405187  26.4995342 137.3876554
 115.7650317  28.4486614 130.1063060 115.3255307  27.9562992 130.7995917
 116.5158434  27.9059581 129.8655136 108.2442656  24.6398155 130.1087689
 109.0700676  24.3401926 129.7286332 107.8936708  23.8705777 130.5577477
 113.2124189  23.9924623 132.1785362 112.5904198  23.3295328 131.8787590
 113.8829056  24.0185755 131.4959010 106.4451261  22.5584481 131.0676622
 105.6083169  22.1306655 130.8860623 106.4174906  22.7516924 132.0047413
 112.7737696  22.5428546 125.6543823 112.9225816  23.2264010 125.0010495
 113.5804139  22.5233636 126.1693278 126.5915316  19.8489822 131.1296326
 127.4262208  20.2879626 131.2933886 126.7274445  19.3728475 130.3104571
 110.5290329  18.5693724 126.6604892 110.2836371  17.6656054 126.8585102
 110.6986243  18.5710874 125.7184370 109.7985976  14.3022081 124.1591053
 109.1055221  14.3766436 123.5031089 109.5537728  13.5382425 124.6812570
 116.2733101  25.0376677 123.1255570 115.7007068  25.6566864 122.6726042
 116.8465895  25.5876038 123.6595492 119.4930361  25.3213827 124.2564152
 120.4261034  25.2559388 124.4597028 119.4053574  26.1570094 123.7978685
 122.1218378  24.6379697 121.2168100 122.0432009  24.3039561 122.1103858
 122.9428045  25.1301465 121.2159572 116.6579900  16.3737489 120.4671623
 117.6039004  16.2443697 120.5360041 116.2794145  15.6352151 120.9441051
 114.8422817  14.2987466 120.4026508 113.9354272  14.0020578 120.4789221
 115.1198798  14.0017284 119.5360794 105.7600757  15.6193829 130.8525554
 105.4403542  14.7659137 130.5599928 105.2134185  15.8342407 131.6083522
 109.5380665  18.3356270 134.5695061 109.7566675  19.2673378 134.5883095
 109.9506439  17.9764244 135.3549865 113.6121602  11.1574401 120.5438487
 114.4740766  11.4829299 120.8034304 113.7971946  10.3705897 120.0311553
 105.6289017  19.2396741 132.8218676 104.9352489  18.8250693 132.3088630
 106.3762008  19.2817277 132.2252095 107.5425760  19.1714994 130.6984691
 107.5196448  19.2702682 129.7466574 107.8526396  20.0180145 131.0201857
 110.2013138  21.2291149 134.8131305 111.1556391  21.1975092 134.7461237
 110.0025661  20.7681773 135.6281531 110.7912520  19.7992265 137.3802103
 111.6105409  20.2936344 137.4036940 111.0649328  18.8824234 137.3519670
 120.5479116  12.1903018 126.7430058 119.6604971  12.4752668 126.5250253
 120.9633105  12.0296781 125.8957335 108.5563366  26.7710769 131.8301503
 108.4217834  26.0111170 131.2639501 108.1395429  27.4951669 131.3630292
 119.6922330  21.9547692 120.8378078 120.3958180  22.1597695 121.4535734
 118.9684978  22.5224454 121.1027162 120.5220140  17.7057554 126.9580348
 120.4655341  18.1626105 126.1187981 121.0748482  16.9448238 126.7803191
 124.3324946  13.4947286 127.7830468 124.0761880  13.0943921 128.6138676
 123.7077814  14.2091079 127.6580607 111.7132492  27.6680086 132.0419946
 111.5964877  28.6125518 131.9398636 110.8924939  27.3653647 132.4305745
 121.6009027  22.3930222 122.8876538 122.4354631  21.9611420 122.7054013
 121.4393370  22.2212235 123.8153433 121.2554919  18.8962335 124.2532878
 121.2003723  18.7306606 123.3121322 120.6300974  19.6038368 124.4095067
 106.0447434  14.1330399 138.0794300 106.6906298  13.6229353 138.5681525
 105.8364585  14.8699081 138.6537725 112.7387006  28.3208348 135.2575874
 113.6414253  28.3531958 135.5742369 112.5124377  27.3908799 135.2722210
 114.4940609  27.0739334 131.9185953 113.5436240  27.0741196 131.8050325
 114.7973095  26.3272069 131.4021987 130.2293302  32.9099873 132.9831715
 130.8671712  32.7906620 132.2795055 130.1114145  33.8580717 133.0419667
 127.0383008  32.8627301 132.9193240 126.7001520  32.7468366 132.0313775
 127.9072776  32.4618466 132.8994246 122.8969824  34.7162777 128.9090131
 122.3334689  34.6252714 128.1406418 122.7822219  33.8962682 129.3892623
 127.5202791  34.0162153 138.8779445 127.5091432  33.6214951 138.0059949
 127.6823431  33.2828225 139.4713217 120.4434256  36.2113969 131.7474351
 121.2355548  35.8704793 131.3320650 120.6830906  36.3208944 132.6676504
 128.4769383  38.3833745 124.2204596 127.8257362  38.9687825 123.8338609
 129.2713746  38.9139940 124.2799633 122.4025010  35.4722882 124.6191730
 123.1755886  34.9251869 124.4804606 122.7550409  36.3367131 124.8306191
 124.2410052  36.7999264 137.8258629 123.9499918  37.7044895 137.7105296
 124.8767037  36.8415792 138.5402699 125.1666259  34.1776113 134.4159989
 125.7629832  33.9532135 133.7016952 125.2241231  33.4360858 135.0185437
 124.7391288  31.6315548 122.2510180 124.9916808  31.1097069 121.4893643
 123.8015847  31.4681694 122.3536863 129.7834570  30.6351327 130.0584923
 130.5697660  30.2170750 129.7075340 130.0473275  31.5397419 130.2266571
 129.9544648  36.0724177 124.7573580 129.3190481  36.1458803 125.4694485
 129.6242054  36.6617776 124.0792659 124.4587576  33.5343654 124.4534555
 124.3423835  32.8588558 125.1215639 124.5689836  33.0476028 123.6366708
 126.8019117  32.9953801 128.1581244 126.4377325  32.4684422 128.8694166
 127.6586233  32.6052270 127.9847729 126.4424604  28.0243701 123.1542593
 126.6099007  28.8923937 123.5213064 126.2521773  28.1870983 122.2303882
 129.1999937  36.4860680 134.8208423 128.9000661  37.3885719 134.7124230
 128.8550997  36.2192863 135.6729576 122.6512419  32.9374477 130.8545127
 121.7262915  32.8050691 131.0622819 122.8996832  33.7168696 131.3515070
 132.5997081  29.0043220 132.5005860 131.6913959  28.9358628 132.2064621
 132.5484677  29.4815165 133.3287686 126.4213825  30.4801358 124.1389259
 126.3013450  30.9258409 124.9774740 125.7266414  30.8286676 123.5802798
 120.0121230  32.5807750 131.6888916 120.1413611  32.8342229 132.6028328
 119.3318681  33.1735458 131.3693572 124.1820717  43.2505000 127.7879391
 124.1044747  44.2012825 127.8667871 123.5782361  42.9050873 128.4454317
 132.1198891  30.9522832 124.9669593 133.0316747  31.1850218 124.7917291
 131.6108538  31.5359876 124.4044672 124.9284319  33.2318319 140.0058725
 125.6699004  33.7703363 139.7293548 124.2221305  33.8584608 140.1630276
 130.4039659  35.3747459 138.6030886 130.8123015  34.9329870 137.8585518
 129.6816921  34.8000087 138.8565079 126.7570729  30.3120066 135.9764443
 127.6031924  30.7359480 136.1199092 126.6969367  29.6553691 136.6703006
 130.7268474  35.9348650 132.3583175 130.0977336  36.0994364 131.6559243
 130.3394136  36.3490260 133.1294139 134.6057706  36.8703088 129.7127539
 133.9208744  37.2501989 129.1624572 134.6901555  37.4798415 130.4459486
 131.8608637  34.5163047 136.3122882 132.0725532  35.1594807 135.6357263
 131.8138385  33.6825364 135.8444812 129.4634866  27.1280868 133.2159454
 128.6019345  27.4262121 133.5076192 129.4897301  27.3451267 132.2840487
 126.2796436  35.6723058 129.6233260 126.7434781  35.9510761 128.8337883
 126.0153234  34.7706503 129.4406351 123.1720517  35.2194540 132.5613023
 123.7421874  35.6481808 131.9230508 123.7628628  34.9377124 133.2597209
 125.2165322  31.7946211 126.4322825 125.9189365  32.2467254 126.8996752
 124.8845950  31.1530029 127.0602718 123.6645683  30.3857967 140.8074035
 123.0344344  31.0674248 141.0409431 123.5581771  30.2741049 139.8627173
 118.9590656  30.0529763 131.7339959 118.1689710  30.3087292 131.2580069
 119.4501903  30.8678101 131.8391999 132.9754465  37.3935002 134.4845240
 133.7971909  36.9915190 134.2027921 132.9716868  37.2903237 135.4361355
 120.9105401  30.4174342 128.6923435 120.1136564  30.5293037 129.2106931
 120.6830993  30.7560995 127.8264326 126.7411069  36.9419046 136.6405950
 126.8055501  37.4039453 137.4764122 126.0321992  36.3116411 136.7688260
 117.2428359  30.3060254 134.1654950 117.4936397  31.1907264 134.4312525
 117.7787907  30.1264855 133.3930041 126.4559086  38.6087153 126.5084930
 126.3204761  39.4538689 126.9369778 126.9968899  38.8106431 125.7450864
 119.9088484  36.1262591 127.0812855 120.4213004  36.9205841 127.2318420
 120.5611196  35.4288882 127.0146457 121.7183368  39.2428347 129.1635609
 121.8949997  40.1646312 128.9756593 122.5140202  38.9286767 129.5929988
 121.0035725  31.2892979 139.0397772 120.8889240  30.3878237 139.3404871
 120.1480243  31.5356676 138.6882588 128.0827563  39.2310720 140.6385272
 127.6391417  38.4447098 140.3206177 128.7444776  39.4189870 139.9729163
 122.8414684  40.7606521 135.1645951 123.3922109  40.6323585 134.3922945
 122.0026160  41.0601410 134.8140844 130.1808801  39.5113520 138.6666674
 130.1627276  40.3322401 138.1746943 131.1028721  39.3867595 138.8916815
 126.6381855  37.0257649 139.5090182 127.1710192  36.2645937 139.2789490
 126.1095936  36.7331301 140.2514337 117.8737400  34.4551246 127.8572426
 118.7112622  34.8648254 127.6406134 118.0515668  33.5150688 127.8272620
 129.7701833  32.1226326 123.5456259 129.2548456  32.8930931 123.7844646
 129.4979141  31.4491462 124.1689320 127.3548944  26.9676027 128.6041497
 126.4990540  26.5782877 128.4247136 127.7675895  27.0467988 127.7441283
 128.8848090  24.5022370 133.0033057 128.3812886  24.4652505 132.1900862
 129.1778697  25.4115113 133.0629714 125.1290976  24.5861100 132.0099239
 125.9943973  24.3903909 131.6505128 125.1968485  24.3571452 132.9368596
 134.7436107  34.8758681 125.4809432 133.9665549  34.5369840 125.0364595
 135.4227588  34.8811304 124.8064397 129.5588136  29.9953418 125.3716040
 129.2538271  30.3099567 126.2226183 130.5118578  30.0734838 125.4143373
 128.0034568  36.1543642 127.0208994 127.4755929  35.4196401 126.7082232
 127.5022070  36.9318318 126.7748962 132.9827414  34.3492662 132.1376040
 132.3251088  35.0391923 132.2256169 133.7867813  34.7389094 132.4810027
 122.7353295  26.8163308 129.3815606 123.3097047  26.5938489 128.6488799
 123.3224278  26.8852002 130.1344207 131.7932872  32.7037035 130.1879982
 132.3064754  33.3367027 130.6901692 132.4434096  32.1038230 129.8223342
 123.0622882  28.8467769 123.4011491 122.2260194  29.1842455 123.7220766
 122.9227652  28.7116749 122.4638628 125.0375963  23.6904557 128.1090675
 124.3840375  23.3753574 127.4847290 124.9956437  23.0680297 128.8350498
 126.1487168  33.9723852 120.0243967 125.2414229  33.7413105 120.2235116
 126.6458200  33.1761471 120.2117949 129.0555247  42.6821359 122.9440653
 128.3816945  42.9853056 123.5525611 129.4421069  43.4850439 122.5946110
 128.2713703  30.1786490 132.4338323 127.3536265  30.4001437 132.2760011
 128.6873847  30.2532801 131.5750030 129.0548751  31.5777906 127.5641003
 129.8020570  32.0899303 127.2548125 129.3240341  31.2561959 128.4245397
 127.3275401  34.0736447 124.5467957 126.4186620  33.7895480 124.6440427
 127.3570485  34.4935525 123.6871264 132.5594669  37.6843036 128.3159125
 132.1056996  36.8433946 128.3724315 131.9288635  38.3204435 128.6533905
 131.5027588  28.6135022 129.5459792 130.7650345  28.1012408 129.8770035
 131.7554362  28.1735404 128.7343069 131.0027608  39.5219533 129.2508943
 131.2950582  40.0824590 128.5321309 131.5126228  39.8148094 130.0062102
 117.8963572  31.7941961 128.5283159 117.6987971  31.2011322 127.8034226
 117.3410236  31.4894171 129.2459098 125.8760295  31.6865067 130.6477753
 125.9308905  30.7338904 130.5720229 125.0651497  31.8424506 131.1319051
 127.0251489  35.6145190 121.8856036 126.5870919  34.8981049 121.4261673
 127.7661930  35.8421305 121.3241127 123.8152655  30.3042127 128.4068131
 123.0020521  30.6036298 128.8133324 124.3111649  29.9097816 129.1242614
 125.9661233  40.2999884 130.3402396 125.9237412  40.5260730 129.4110928
 126.8823932  40.0663259 130.4888197 135.1424604  33.8902387 127.9432354
 135.0042502  34.0803983 127.0153544 134.7860823  34.6521770 128.4000406
 123.3066730  27.8760483 134.0229366 123.9466109  27.7349242 133.3252330
 122.4744260  27.5894996 133.6467968 135.1693983  35.9578914 132.9543626
 135.6030490  35.8654204 133.8026680 135.8825564  35.9336415 132.3163642
 124.0827034  37.1762913 130.1364359 124.8767632  36.6813233 129.9346934
 123.3718726  36.6480776 129.7732064 128.9021878  39.5581009 134.4876726
 128.9558901  40.1271945 135.2554442 128.0336660  39.7282894 134.1230764
 120.3909797  31.3205995 126.2124112 119.4607385  31.2590450 126.4294074
 120.4867269  30.7981947 125.4160753 120.3095346  27.8460808 128.8002353
 120.5702164  28.7606141 128.6911514 121.1312519  27.3785250 128.9498966
 121.7820272  29.2598565 135.9701178 122.4543325  29.0515927 135.3213827
 120.9550058  29.0620651 135.5306410 127.8609978  33.7241271 136.0463658
 128.7902038  33.8752430 135.8732626 127.4401008  33.8125291 135.1912305
 126.6598310  37.7491935 133.8162196 126.5209395  37.3810719 134.6888134
 125.8712906  38.2639574 133.6446154 127.2546462  42.8501031 125.1587732
 127.4298217  42.3789075 125.9733355 126.5679250  43.4766798 125.3868993
 128.2103525  37.1273538 131.2051034 127.8753358  37.0874308 132.1008684
 127.7107471  36.4618254 130.7321444 122.1847769  32.5341168 136.7303615
 122.0467567  31.8021407 137.3315154 123.0952692  32.4450068 136.4487803
 131.1462717  34.4729572 121.4788093 130.5291887  33.7476400 121.3821146
 130.6779205  35.2338932 121.1355168 124.8130070  32.2461127 136.2187295
 125.5229688  31.6054319 136.1773913 124.7699378  32.4974022 137.1413475
 123.5259004  29.2326345 138.0382934 122.9896361  28.7817083 138.6904530
 122.9375712  29.3672254 137.2953398 121.8207547  45.9990394 131.9327593
 122.0604145  46.6308918 132.6106611 120.9776743  45.6478434 132.2192952
 122.9361262  28.6914996 120.6009398 122.0590729  28.5703797 120.2371644
 123.4119016  27.9001075 120.3488286 114.4563403  33.4792156 130.6950905
 115.1434442  33.1653886 130.1071920 114.3011531  34.3833521 130.4218156
 119.2598125  28.3682353 135.1235929 119.1756313  27.7608022 134.3886338
 118.4380831  28.8591371 135.1245425 126.3335409  41.8069517 134.3369097
 126.2605580  42.6124488 134.8488401 125.8912802  42.0061482 133.5117118
 126.1225188  41.0441287 127.8471918 125.3392710  41.5862967 127.9410143
 126.8217934  41.5615266 128.2466159 129.4321839  26.8535916 130.4906124
 129.9290538  26.1005878 130.1707194 128.6608820  26.8900233 129.9249333
 128.7934092  41.7056351 136.4927255 129.5062065  42.3403816 136.4203157
 128.3024121  41.8020217 135.6767257 130.5151619  35.6107603 128.0644547
 129.5807898  35.7309066 127.8949251 130.6928288  34.7080070 127.8004557
 126.0156807  28.9953299 130.2177808 125.6454595  28.4424340 130.9058714
 126.5115900  28.3911433 129.6652808 133.9024171  31.4524923 128.5994581
 134.3684623  32.2852914 128.5254884 134.3531671  30.9869904 129.3039840
 123.8446006  39.4550794 137.3132826 124.5455465  40.0887277 137.4662220
 123.3741121  39.7965526 136.5528465 131.9700402  37.7968744 125.5980733
 132.2460246  37.6825339 126.5074607 131.1004901  37.3986229 125.5592906
 131.6447292  32.0095402 135.1385376 130.9918742  32.2571309 134.4837829
 132.0227672  31.1959540 134.8047854 128.6054466  42.0455095 129.2413547
 128.7876860  41.2276751 129.7041299 129.4287452  42.2622787 128.8038437
 128.9396631  40.9723280 126.5028595 129.4684398  40.4615734 125.8898757
 129.2024851  40.6565810 127.3674128 119.4413724  38.9887149 134.2463929
 120.0267161  38.2430837 134.3791833 119.2438562  39.2991106 135.1300593
 122.2952379  42.0238397 129.2626371 121.6262754  42.5084524 128.7790411
 122.1565249  42.2707617 130.1769750 114.0331379  31.5592749 132.9668372
 114.0715478  31.0256340 133.7605490 113.5271672  31.0327955 132.3479349
 126.4357648  44.0582140 135.8609030 126.9875956  44.2213762 136.6258115
 126.7763841  44.6486578 135.1889054 121.4122141  26.4057290 136.4630914
 121.4763468  27.2672121 136.0508312 121.3489261  25.7931292 135.7303273
 120.8874414  28.4780422 140.1103949 121.5146452  28.0957500 140.7241473
 120.0302332  28.2594624 140.4759641 117.6639956  30.2856852 126.0422303
 117.9593397  29.3767530 125.9889357 116.7627992  30.2644591 125.7203306
 129.5726035  42.0064116 132.8472712 129.4477175  41.2053855 132.3383657
 130.2305126  42.5010309 132.3586682 121.1934203  28.3612848 132.0249852
 120.4720789  28.9748816 131.8857325 121.9827459  28.8970613 131.9466498
 131.6360943  39.8073136 134.4752262 130.6891279  39.6878487 134.4030589
 131.9843717  38.9195634 134.5578523 119.3927798  27.9670949 126.1661628
 119.0640504  27.0868328 125.9836734 119.7467169  27.9118618 127.0538018
 128.6407377  39.6025852 130.6756614 128.4932339  38.6742559 130.8564184
 129.4660870  39.6245943 130.1913689 122.5069621  28.2543919 126.5337106
 122.8465694  28.7829840 125.8115715 122.9541742  28.5924325 127.3095673
 132.2441499  40.4254411 131.7621487 133.1688046  40.2197272 131.6245938
 132.0756802  40.1770812 132.6710828 125.2013062  26.6380970 135.9840174
 124.8609882  25.8388783 136.3860854 124.4952068  26.9382681 135.4117007
 125.8529534  23.7230282 134.4367497 126.6755603  23.2490760 134.3146388
 126.0967597  24.5020766 134.9366184 124.4937768  26.7518541 124.7330399
 125.2146131  27.1299793 124.2294116 123.8703072  27.4707417 124.8365377
 128.6368891  27.4563690 125.6688731 128.8532505  28.3388327 125.3677559
 128.1562958  27.0649903 124.9394373 123.3768112  30.4149403 132.2459476
 123.2312693  30.7289706 133.1383757 122.8993316  31.0334303 131.6930375
 125.2364495  27.4051951 132.2940365 125.2226064  26.5093044 131.9572663
 125.9536923  27.4122615 132.9278651 127.0890626  27.8389291 134.3393493
 126.8308404  28.7606362 134.3377823 126.5575666  27.4419726 135.0293957
 132.0336815  40.9440078 127.1183578 132.2073692  40.3786501 126.3657431
 132.5265706  41.7440973 126.9363068 117.8513775  32.9554747 135.1847137
 117.3067243  33.7314555 135.3167411 118.7293124  33.3025552 135.0266258
 124.6401391  26.2866331 127.5627936 124.7617302  25.3582977 127.7618823
 124.3503434  26.3005017 126.6506251 127.5092582  23.9721242 130.6994655
 127.5314278  24.0360575 129.7446635 127.9260641  23.1325750 130.8935162
 137.8876206  33.7076501 128.7373878 138.3307352  32.9583826 128.3393001
 137.0102716  33.6986637 128.3547610 133.0211987  40.2606843 124.2180477
 133.7162892  40.8813535 124.4367791 133.3635137  39.4102194 124.4932854
 118.6379796  32.0824643 138.0777294 117.8961533  32.2307279 138.6641924
 118.3172541  32.3432909 137.2144043 134.9203410  37.7106548 125.7467807
 135.4454735  38.0493821 125.0217127 134.8325763  36.7753563 125.5630942
 126.5823459  41.6240622 137.8757684 126.8910586  41.3789768 138.7480384
 127.3798941  41.8287260 137.3876554 126.6044071  43.7778531 130.1063060
 126.1649061  43.2854910 130.7995917 127.3552188  43.2351499 129.8655136
 119.0836410  39.9690072 130.1087689 119.9094430  39.6693844 129.7286332
 118.7330462  39.1997695 130.5577477 124.0517943  39.3216540 132.1785362
 123.4297953  38.6587245 131.8787590 124.7222810  39.3477672 131.4959010
 117.2845015  37.8876399 131.0676622 116.4476924  37.4598573 130.8860623
 117.2568661  38.0808842 132.0047413 123.6131450  37.8720464 125.6543823
 123.7619571  38.5555928 125.0010495 124.4197894  37.8525554 126.1693278
 137.4309071  35.1781739 131.1296326 138.2655962  35.6171543 131.2933886
 137.5668199  34.7020393 130.3104571 121.3684083  33.8985641 126.6604892
 121.1230125  32.9947971 126.8585102 121.5379998  33.9002792 125.7184370
 120.6379731  29.6313999 124.1591053 119.9448976  29.7058354 123.5031089
 120.3931483  28.8674343 124.6812570 127.1126856  40.3668594 123.1255570
 126.5400823  40.9858781 122.6726042 127.6859649  40.9167956 123.6595492
 130.3324116  40.6505744 124.2564152 131.2654789  40.5851306 124.4597028
 130.2447328  41.4862011 123.7978685 132.9612132  39.9671615 121.2168100
 132.8825764  39.6331478 122.1103858 133.7821799  40.4593383 121.2159572
 127.4973654  31.7029407 120.4671623 128.4432759  31.5735615 120.5360041
 127.1187899  30.9644069 120.9441051 125.6816571  29.6279383 120.4026508
 124.7748027  29.3312496 120.4789221 125.9592552  29.3309201 119.5360794
 116.5994512  30.9485747 130.8525554 116.2797296  30.0951055 130.5599928
 116.0527940  31.1634325 131.6083522 120.3774419  33.6648188 134.5695061
 120.5960429  34.5965296 134.5883095 120.7900193  33.3056162 135.3549865
 127.2978637  24.1716273 126.5570749 126.4879365  23.8263358 126.9325995
 127.9863054  23.8623817 127.1458361 129.2269185  23.2494320 128.1795046
 129.7800224  23.6689773 128.8385069 129.4639272  22.3230068 128.2218002
 124.4515356  26.4866319 120.5438487 125.3134520  26.8121217 120.8034304
 124.6365700  25.6997814 120.0311553 116.4682772  34.5688658 132.8218676
 115.7746243  34.1542611 132.3088630 117.2155763  34.6109195 132.2252095
 132.6047993  25.3594845 127.6873710 132.0246662  26.0179649 127.3051762
 132.3383925  24.5372190 127.2761128 131.0551559  24.7599903 129.8895030
 131.5551337  24.8716437 129.0809349 131.6987167  24.4560956 130.5295839
 118.3819514  34.5006912 130.6984691 118.3590202  34.5994599 129.7466574
 118.6920151  35.3472063 131.0201857 121.0406892  36.5583067 134.8131305
 121.9950146  36.5267009 134.7461237 120.8419416  36.0973691 135.6281531
 121.6306274  35.1284183 137.3802103 122.4499163  35.6228262 137.4036940
 121.9043082  34.2116151 137.3519670 131.3872871  27.5194935 126.7430058
 130.4998726  27.8044586 126.5250253 131.8026860  27.3588699 125.8957335
 119.3957121  42.1002687 131.8301503 119.2611589  41.3403087 131.2639501
 118.9789183  42.8243586 131.3630292 130.5316084  37.2839610 120.8378078
 131.2351934  37.4889613 121.4535734 129.8078733  37.8516372 121.1027162
 131.3613894  33.0349471 126.9580348 131.3049096  33.4918023 126.1187981
 131.9142237  32.2740156 126.7803191 135.1718700  28.8239203 127.7830468
 134.9155634  28.4235839 128.6138676 134.5471568  29.5382997 127.6580607
 122.5526247  42.9972004 132.0419946 122.4358631  43.9417436 131.9398636
 121.7318693  42.6945565 132.4305745 132.4402781  37.7222139 122.8876538
 133.2748385  37.2903338 122.7054013 132.2787124  37.5504153 123.8153433
 132.0948674  34.2254253 124.2532878 132.0397477  34.0598524 123.3121322
 131.4694729  34.9330285 124.4095067 116.8841189  29.4622317 138.0794300
 117.5300052  28.9521271 138.5681525 116.6758340  30.1990999 138.6537725
 125.4044799  23.7262362 123.8318196 125.3923469  24.6704202 123.9886467
 126.2968221  23.5432507 123.5377657 123.5780761  43.6500265 135.2575874
 124.4808008  43.6823876 135.5742369 123.3518131  42.7200716 135.2722210
 125.3334363  42.4031252 131.9185953 124.3829994  42.4033114 131.8050325
 125.6366849  41.6563987 131.4021987 129.2196918  20.3205138 128.0864133
 128.4529314  19.7663625 128.2320815 129.6307623  20.3927007 128.9478284
 141.0687056  48.2391790 132.9831715 141.7065466  48.1198538 132.2795055
 140.9507899  49.1872634 133.0419667 137.8776763  48.1919219 132.9193240
 137.5395274  48.0760283 132.0313775 138.7466531  47.7910384 132.8994246
 133.7363578  50.0454695 128.9090131 133.1728444  49.9544632 128.1406418
 133.6215974  49.2254599 129.3892623 138.3596546  49.3454070 138.8779445
 138.3485187  48.9506868 138.0059949 138.5217185  48.6120143 139.4713217
 131.2828010  51.5405887 131.7474351 132.0749302  51.1996711 131.3320650
 131.5224661  51.6500862 132.6676504 139.3163137  53.7125663 124.2204596
 138.6651117  54.2979743 123.8338609 140.1107500  54.2431858 124.2799633
 133.2418764  50.8014800 124.6191730 134.0149640  50.2543787 124.4804606
 133.5944163  51.6659049 124.8306191 135.0803807  52.1291182 137.8258629
 134.7893673  53.0336813 137.7105296 135.7160791  52.1707710 138.5402699
 136.0060014  49.5068031 134.4159989 136.6023586  49.2824053 133.7016952
 136.0634985  48.7652776 135.0185437 135.5785042  46.9607466 122.2510180
 135.8310563  46.4388987 121.4893643 134.6409601  46.7973611 122.3536863
 140.6228325  45.9643244 130.0584923 141.4091414  45.5462667 129.7075340
 140.8867029  46.8689336 130.2266571 140.7938402  51.4016095 124.7573580
 140.1584235  51.4750721 125.4694485 140.4635809  51.9909693 124.0792659
 135.2981331  48.8635572 124.4534555 135.1817589  48.1880475 125.1215639
 135.4083591  48.3767946 123.6366708 137.6412872  48.3245719 128.1581244
 137.2771079  47.7976340 128.8694166 138.4979988  47.9344188 127.9847729
 137.2818359  43.3535619 123.1542593 137.4492761  44.2215855 123.5213064
 137.0915528  43.5162900 122.2303882 140.0393692  51.8152598 134.8208423
 139.7394415  52.7177636 134.7124230 139.6944752  51.5484781 135.6729576
 133.4906173  48.2666394 130.8545127 132.5656670  48.1342608 131.0622819
 133.7390587  49.0460614 131.3515070 143.4390836  44.3335138 132.5005860
 142.5307713  44.2650546 132.2064621 143.3878432  44.8107083 133.3287686
 137.2607580  45.8093276 124.1389259 137.1407205  46.2550327 124.9774740
 136.5660168  46.1578594 123.5802798 130.8514985  47.9099668 131.6888916
 130.9807366  48.1634147 132.6028328 130.1712436  48.5027376 131.3693572
 135.0214472  58.5796918 127.7879391 134.9438501  59.5304743 127.8667871
 134.4176115  58.2342790 128.4454317 142.9592646  46.2814749 124.9669593
 143.8710502  46.5142136 124.7917291 142.4502293  46.8651794 124.4044672
 135.7678074  48.5610237 140.0058725 136.5092758  49.0995281 139.7293548
 135.0615059  49.1876525 140.1630276 141.2433414  50.7039377 138.6030886
 141.6516770  50.2621788 137.8585518 140.5210675  50.1292005 138.8565079
 137.5964484  45.6411984 135.9764443 138.4425679  46.0651397 136.1199092
 137.5363121  44.9845608 136.6703006 141.5662228  51.2640568 132.3583175
 140.9371091  51.4286282 131.6559243 141.1787890  51.6782177 133.1294139
 145.4451460  52.1995006 129.7127539 144.7602498  52.5793907 129.1624572
 145.5295309  52.8090332 130.4459486 142.7002392  49.8454965 136.3122882
 142.9119287  50.4886725 135.6357263 142.6532140  49.0117281 135.8444812
 140.3028621  42.4572785 133.2159454 139.4413100  42.7554039 133.5076192
 140.3291055  42.6743184 132.2840487 137.1190190  51.0014976 129.6233260
 137.5828536  51.2802679 128.8337883 136.8546988  50.0998420 129.4406351
 134.0114271  50.5486457 132.5613023 134.5815628  50.9773726 131.9230508
 134.6022383  50.2669042 133.2597209 136.0559076  47.1238128 126.4322825
 136.7583119  47.5759172 126.8996752 135.7239705  46.4821947 127.0602718
 134.5039438  45.7149885 140.8074035 133.8738098  46.3966166 141.0409431
 134.3975525  45.6032966 139.8627173 129.7984410  45.3821681 131.7339959
 129.0083464  45.6379209 131.2580069 130.2895657  46.1970019 131.8391999
 143.8148220  52.7226920 134.4845240 144.6365663  52.3207107 134.2027921
 143.8110622  52.6195154 135.4361355 131.7499155  45.7466260 128.6923435
 130.9530319  45.8584954 129.2106931 131.5224748  46.0852912 127.8264326
 137.5804823  52.2710963 136.6405950 137.6449256  52.7331371 137.4764122
 136.8715747  51.6408328 136.7688260 128.0822113  45.6352171 134.1654950
 128.3330151  46.5199181 134.4312525 128.6181661  45.4556773 133.3930041
 137.2952841  53.9379071 126.5084930 137.1598515  54.7830607 126.9369778
 137.8362653  54.1398348 125.7450864 130.7482238  51.4554509 127.0812855
 131.2606759  52.2497759 127.2318420 131.4004951  50.7580799 127.0146457
 132.5577123  54.5720265 129.1635609 132.7343751  55.4938230 128.9756593
 133.3533956  54.2578684 129.5929988 131.8429479  46.6184897 139.0397772
 131.7282994  45.7170154 139.3404871 130.9873997  46.8648594 138.6882588
 138.9221317  54.5602637 140.6385272 138.4785171  53.7739016 140.3206177
 139.5838531  54.7481788 139.9729163 133.6808438  56.0898439 135.1645951
 134.2315863  55.9615502 134.3922945 132.8419914  56.3893328 134.8140844
 141.0202555  54.8405437 138.6666674 141.0021031  55.6614318 138.1746943
 141.9422475  54.7159513 138.8916815 137.4775609  52.3549567 139.5090182
 138.0103946  51.5937855 139.2789490 136.9489690  52.0623219 140.2514337
 128.7131155  49.7843163 127.8572426 129.5506377  50.1940172 127.6406134
 128.8909423  48.8442605 127.8272620 140.6095587  47.4518244 123.5456259
 140.0942210  48.2222848 123.7844646 140.3372895  46.7783380 124.1689320
 138.1942698  42.2967945 128.6041497 137.3384294  41.9074795 128.4247136
 138.6069650  42.3759905 127.7441283 139.7241845  39.8314288 133.0033057
 139.2206640  39.7944423 132.1900862 140.0172452  40.7407031 133.0629714
 135.9684731  39.9153018 132.0099239 136.8337727  39.7195826 131.6505128
 136.0362239  39.6863369 132.9368596 145.5829861  50.2050598 125.4809432
 144.8059304  49.8661758 125.0364595 146.2621342  50.2103222 124.8064397
 140.3981890  45.3245336 125.3716040 140.0932026  45.6391485 126.2226183
 141.3512332  45.4026756 125.4143373 138.8428322  51.4835559 127.0208994
 138.3149684  50.7488319 126.7082232 138.3415825  52.2610236 126.7748962
 143.8221168  49.6784580 132.1376040 143.1644842  50.3683841 132.2256169
 144.6261567  50.0681012 132.4810027 133.5747050  42.1455226 129.3815606
 134.1490802  41.9230407 128.6488799 134.1618032  42.2143920 130.1344207
 142.6326627  48.0328952 130.1879982 143.1458509  48.6658944 130.6901692
 143.2827851  47.4330148 129.8223342 133.9016637  44.1759687 123.4011491
 133.0653949  44.5134373 123.7220766 133.7621406  44.0408666 122.4638628
 135.8769717  39.0196474 128.1090675 135.2234130  38.7045492 127.4847290
 135.8350191  38.3972215 128.8350498 136.9880922  49.3015770 120.0243967
 136.0807984  49.0705023 120.2235116 137.4851954  48.5053389 120.2117949
 139.8949001  58.0113277 122.9440653 139.2210700  58.3144973 123.5525611
 140.2814823  58.8142357 122.5946110 139.1107458  45.5078408 132.4338323
 138.1930019  45.7293355 132.2760011 139.5267601  45.5824718 131.5750030
 139.8942505  46.9069824 127.5641003 140.6414324  47.4191221 127.2548125
 140.1634095  46.5853876 128.4245397 138.1669156  49.4028364 124.5467957
 137.2580375  49.1187397 124.6440427 138.1964239  49.8227443 123.6871264
 143.3988423  53.0134954 128.3159125 142.9450750  52.1725864 128.3724315
 142.7682390  53.6496352 128.6533905 142.3421343  43.9426940 129.5459792
 141.6044099  43.4304326 129.8770035 142.5948116  43.5027322 128.7343069
 141.8421362  54.8511451 129.2508943 142.1344337  55.4116508 128.5321309
 142.3519983  55.1440012 130.0062102 128.7357326  47.1233879 128.5283159
 128.5381726  46.5303239 127.8034226 128.1803990  46.8186089 129.2459098
 136.7154050  47.0156985 130.6477753 136.7702659  46.0630821 130.5720229
 135.9045252  47.1716424 131.1319051 137.8645243  50.9437108 121.8856036
 137.4264673  50.2272967 121.4261673 138.6055684  51.1713223 121.3241127
 134.6546410  45.6334045 128.4068131 133.8414275  45.9328215 128.8133324
 135.1505404  45.2389733 129.1242614 136.8054987  55.6291802 130.3402396
 136.7631166  55.8552648 129.4110928 137.7217686  55.3955176 130.4888197
 145.9818358  49.2194305 127.9432354 145.8436257  49.4095901 127.0153544
 145.6254577  49.9813688 128.4000406 134.1460484  43.2052400 134.0229366
 134.7859864  43.0641159 133.3252330 133.3138015  42.9186914 133.6467968
 146.0087738  51.2870832 132.9543626 146.4424244  51.1946121 133.8026680
 146.7219319  51.2628333 132.3163642 134.9220788  52.5054831 130.1364359
 135.7161387  52.0105151 129.9346934 134.2112481  51.9772694 129.7732064
 139.7415633  54.8872926 134.4876726 139.7952655  55.4563863 135.2554442
 138.8730414  55.0574811 134.1230764 131.2303552  46.6497912 126.2124112
 130.3001140  46.5882368 126.4294074 131.3261024  46.1273865 125.4160753
 131.1489101  43.1752725 128.8002353 131.4095918  44.0898058 128.6911514
 131.9706273  42.7077168 128.9498966 132.6214026  44.5890482 135.9701178
 133.2937080  44.3807845 135.3213827 131.7943813  44.3912568 135.5306410
 138.7003732  49.0533188 136.0463658 139.6295792  49.2044348 135.8732626
 138.2794762  49.1417209 135.1912305 137.4992064  53.0783853 133.8162196
 137.3603150  52.7102637 134.6888134 136.7106660  53.5931492 133.6446154
 138.0940216  58.1792949 125.1587732 138.2691972  57.7080992 125.9733355
 137.4073004  58.8058715 125.3868993 139.0497279  52.4565455 131.2051034
 138.7147112  52.4166225 132.1008684 138.5501225  51.7910171 130.7321444
 133.0241523  47.8633085 136.7303615 132.8861321  47.1313324 137.3315154
 133.9346447  47.7741985 136.4487803 141.9856471  49.8021490 121.4788093
 141.3685642  49.0768318 121.3821146 141.5172960  50.5630850 121.1355168
 135.6523824  47.5753045 136.2187295 136.3623443  46.9346237 136.1773913
 135.6093132  47.8265940 137.1413475 134.3652758  44.5618263 138.0382934
 133.8290115  44.1109001 138.6904530 133.7769466  44.6964171 137.2953398
 132.6601302  61.3282312 131.9327593 132.8997900  61.9600836 132.6106611
 131.8170498  60.9770352 132.2192952 133.7755017  44.0206914 120.6009398
 132.8984483  43.8995715 120.2371644 134.2512770  43.2292992 120.3488286
 125.2957157  48.8084074 130.6950905 125.9828197  48.4945804 130.1071920
 125.1405286  49.7125438 130.4218156 130.0991879  43.6974270 135.1235929
 130.0150068  43.0899940 134.3886338 129.2774586  44.1883289 135.1245425
 137.1729163  57.1361434 134.3369097 137.0999335  57.9416406 134.8488401
 136.7306556  57.3353400 133.5117118 136.9618943  56.3733204 127.8471918
 136.1786465  56.9154885 127.9410143 137.6611688  56.8907184 128.2466159
 140.2715593  42.1827834 130.4906124 140.7684293  41.4297796 130.1707194
 139.5002575  42.2192150 129.9249333 139.6327847  57.0348268 136.4927255
 140.3455819  57.6695733 136.4203157 139.1417876  57.1312134 135.6767257
 141.3545374  50.9399521 128.0644547 140.4201653  51.0600984 127.8949251
 141.5322042  50.0371988 127.8004557 136.8550562  44.3245217 130.2177808
 136.4848349  43.7716257 130.9058714 137.3509654  43.7203350 129.6652808
 144.7417925  46.7816840 128.5994581 145.2078377  47.6144832 128.5254884
 145.1925426  46.3161822 129.3039840 134.6839760  54.7842712 137.3132826
 135.3849220  55.4179195 137.4662220 134.2134875  55.1257443 136.5528465
 142.8094156  53.1260662 125.5980733 143.0854000  53.0117256 126.5074607
 141.9398655  52.7278146 125.5592906 142.4841046  47.3387319 135.1385376
 141.8312497  47.5863227 134.4837829 142.8621426  46.5251457 134.8047854
 139.4448220  57.3747012 129.2413547 139.6270615  56.5568668 129.7041299
 140.2681206  57.5914705 128.8038437 139.7790386  56.3015198 126.5028595
 140.3078152  55.7907652 125.8898757 140.0418605  55.9857728 127.3674128
 130.2807478  54.3179067 134.2463929 130.8660915  53.5722755 134.3791833
 130.0832317  54.6283024 135.1300593 133.1346134  57.3530314 129.2626371
 132.4656509  57.8376442 128.7790411 132.9959003  57.5999535 130.1769750
 124.8725133  46.8884667 132.9668372 124.9109233  46.3548258 133.7605490
 124.3665426  46.3619873 132.3479349 137.2751402  59.3874058 135.8609030
 137.8269710  59.5505679 136.6258115 137.6157596  59.9778496 135.1889054
 132.2515896  41.7349208 136.4630914 132.3157222  42.5964038 136.0508312
 132.1883016  41.1223209 135.7303273 131.7268168  43.8072340 140.1103949
 132.3540207  43.4249417 140.7241473 130.8696087  43.5886542 140.4759641
 128.5033711  45.6148769 126.0422303 128.7987152  44.7059448 125.9889357
 127.6021747  45.5936509 125.7203306 140.4119790  57.3356033 132.8472712
 140.2870929  56.5345773 132.3383657 141.0698881  57.8302227 132.3586682
 132.0327958  43.6904766 132.0249852 131.3114544  44.3040734 131.8857325
 132.8221214  44.2262531 131.9466498 142.4754698  55.1365053 134.4752262
 141.5285033  55.0170405 134.4030589 142.8237471  54.2487551 134.5578523
 130.2321552  43.2962867 126.1661628 129.9034259  42.4160246 125.9836734
 130.5860923  43.2410536 127.0538018 139.4801131  54.9317770 130.6756614
 139.3326094  54.0034477 130.8564184 140.3054625  54.9537860 130.1913689
 133.3463376  43.5835837 126.5337106 133.6859448  44.1121758 125.8115715
 133.7935496  43.9216243 127.3095673 143.0835253  55.7546328 131.7621487
 144.0081801  55.5489190 131.6245938 142.9150556  55.5062730 132.6710828
 136.0406816  41.9672887 135.9840174 135.7003637  41.1680700 136.3860854
 135.3345823  42.2674598 135.4117007 136.6923288  39.0522200 134.4367497
 137.5149358  38.5782678 134.3146388 136.9361352  39.8312684 134.9366184
 135.3331523  42.0810458 124.7330399 136.0539885  42.4591711 124.2294116
 134.7096827  42.7999335 124.8365377 139.4762646  42.7855607 125.6688731
 139.6926260  43.6680245 125.3677559 138.9956713  42.3941821 124.9394373
 134.2161867  45.7441320 132.2459476 134.0706448  46.0581624 133.1383757
 133.7387071  46.3626221 131.6930375 136.0758250  42.7343868 132.2940365
 136.0619819  41.8384962 131.9572663 136.7930678  42.7414532 132.9278651
 137.9284381  43.1681209 134.3393493 137.6702158  44.0898279 134.3377823
 137.3969421  42.7711643 135.0293957 142.8730569  56.2731996 127.1183578
 143.0467447  55.7078418 126.3657431 143.3659461  57.0732891 126.9363068
 128.6907529  48.2846665 135.1847137 128.1460997  49.0606473 135.3167411
 129.5686879  48.6317469 135.0266258 135.4795146  41.6158249 127.5627936
 135.6011057  40.6874895 127.7618823 135.1897188  41.6296935 126.6506251
 138.3486336  39.3013159 130.6994655 138.3708033  39.3652492 129.7446635
 138.7654395  38.4617668 130.8935162 148.7269960  49.0368419 128.7373878
 149.1701107  48.2875744 128.3393001 147.8496471  49.0278555 128.3547610
 143.8605742  55.5898760 124.2180477 144.5556646  56.2105453 124.4367791
 144.2028892  54.7394111 124.4932854 129.4773551  47.4116561 138.0777294
 128.7355287  47.5599197 138.6641924 129.1566295  47.6724827 137.2144043
 145.7597165  53.0398466 125.7467807 146.2848489  53.3785738 125.0217127
 145.6719517  52.1045481 125.5630942 137.4217214  56.9532539 137.8757684
 137.7304340  56.7081686 138.7480384 138.2192696  57.1579178 137.3876554
 137.4437826  59.1070449 130.1063060 137.0042816  58.6146828 130.7995917
 138.1945943  58.5643417 129.8655136 129.9230165  55.2981990 130.1087689
 130.7488185  54.9985762 129.7286332 129.5724217  54.5289612 130.5577477
 134.8911698  54.6508458 132.1785362 134.2691707  53.9879163 131.8787590
 135.5616565  54.6769590 131.4959010 128.1238770  53.2168316 131.0676622
 127.2870678  52.7890491 130.8860623 128.0962415  53.4100760 132.0047413
 134.4525205  53.2012381 125.6543823 134.6013325  53.8847846 125.0010495
 135.2591648  53.1817471 126.1693278 148.2702825  50.5073657 131.1296326
 149.1049717  50.9463461 131.2933886 148.4061954  50.0312310 130.3104571
 132.2077838  49.2277559 126.6604892 131.9623880  48.3239889 126.8585102
 132.3773752  49.2294710 125.7184370 131.4773485  44.9605917 124.1591053
 130.7842730  45.0350272 123.5031089 131.2325237  44.1966260 124.6812570
 137.9520610  55.6960512 123.1255570 137.3794577  56.3150699 122.6726042
 138.5253404  56.2459874 123.6595492 141.1717870  55.9797662 124.2564152
 142.1048543  55.9143224 124.4597028 141.0841083  56.8153929 123.7978685
 143.8005887  55.2963532 121.2168100 143.7219518  54.9623396 122.1103858
 144.6215553  55.7885300 121.2159572 138.3367409  47.0321325 120.4671623
 139.2826513  46.9027533 120.5360041 137.9581654  46.2935987 120.9441051
 136.5210326  44.9571301 120.4026508 135.6141781  44.6604414 120.4789221
 136.7986307  44.6601119 119.5360794 127.4388266  46.2777664 130.8525554
 127.1191051  45.4242973 130.5599928 126.8921694  46.4926243 131.6083522
 131.2168174  48.9940105 134.5695061 131.4354184  49.9257213 134.5883095
 131.6293948  48.6348080 135.3549865 138.1372392  39.5008191 126.5570749
 137.3273120  39.1555276 126.9325995 138.8256809  39.1915734 127.1458361
 140.0662940  38.5786238 128.1795046 140.6193979  38.9981691 128.8385069
 140.3033026  37.6521986 128.2218002 135.2909111  41.8158236 120.5438487
 136.1528275  42.1413135 120.8034304 135.4759455  41.0289732 120.0311553
 127.3076526  49.8980576 132.8218676 126.6139998  49.4834529 132.3088630
 128.0549517  49.9401112 132.2252095 143.4441747  40.6886763 127.6873710
 142.8640416  41.3471567 127.3051762 143.1777680  39.8664107 127.2761128
 141.8945313  40.0891820 129.8895030 142.3945092  40.2008355 129.0809349
 142.5380921  39.7852873 130.5295839 129.2213269  49.8298830 130.6984691
 129.1983957  49.9286517 129.7466574 129.5313905  50.6763981 131.0201857
 131.8800647  51.8874985 134.8131305 132.8343900  51.8558927 134.7461237
 131.6813170  51.4265608 135.6281531 132.4700029  50.4576101 137.3802103
 133.2892918  50.9520179 137.4036940 132.7436837  49.5408069 137.3519670
 142.2266625  42.8486853 126.7430058 141.3392480  43.1336504 126.5250253
 142.6420614  42.6880616 125.8957335 130.2350875  57.4294604 131.8301503
 130.1005343  56.6695005 131.2639501 129.8182938  58.1535504 131.3630292
 141.3709838  52.6131528 120.8378078 142.0745689  52.8181530 121.4535734
 140.6472487  53.1808290 121.1027162 142.2007649  48.3641389 126.9580348
 142.1442850  48.8209940 126.1187981 142.7535991  47.6032074 126.7803191
 146.0112455  44.1531121 127.7830468 145.7549389  43.7527757 128.6138676
 145.3865323  44.8674915 127.6580607 133.3920001  58.3263921 132.0419946
 133.2752385  59.2709354 131.9398636 132.5712448  58.0237483 132.4305745
 143.2796536  53.0514057 122.8876538 144.1142140  52.6195255 122.7054013
 143.1180879  52.8796071 123.8153433 142.9342428  49.5546170 124.2532878
 142.8791232  49.3890442 123.3121322 142.3088483  50.2622203 124.4095067
 127.7234943  44.7914235 138.0794300 128.3693807  44.2813189 138.5681525
 127.5152094  45.5282916 138.6537725 136.2438554  39.0554279 123.8318196
 136.2317223  39.9996119 123.9886467 137.1361975  38.8724425 123.5377657
 134.4174515  58.9792183 135.2575874 135.3201762  59.0115793 135.5742369
 134.1911886  58.0492634 135.2722210 136.1728117  57.7323170 131.9185953
 135.2223749  57.7325031 131.8050325 136.4760604  56.9855904 131.4021987
 140.0590673  35.6497056 128.0864133 139.2923069  35.0955543 128.2320815
 140.4701378  35.7218925 128.9478284 151.9080811  63.5683708 132.9831715
 152.5459221  63.4490455 132.2795055 151.7901654  64.5164552 133.0419667
 148.7170517  63.5211136 132.9193240 148.3789029  63.4052201 132.0313775
 149.5860285  63.1202301 132.8994246 144.5757333  65.3746613 128.9090131
 144.0122198  65.2836550 128.1406418 144.4609728  64.5546517 129.3892623
 149.1990300  64.6745988 138.8779445 149.1878941  64.2798786 138.0059949
 149.3610940  63.9412061 139.4713217 142.1221765  66.8697804 131.7474351
 142.9143057  66.5288629 131.3320650 142.3618415  66.9792779 132.6676504
 150.1556892  69.0417580 124.2204596 149.5044871  69.6271661 123.8338609
 150.9501254  69.5723775 124.2799633 144.0812519  66.1306717 124.6191730
 144.8543395  65.5835705 124.4804606 144.4337918  66.9950967 124.8306191
 145.9197561  67.4583100 137.8258629 145.6287427  68.3628731 137.7105296
 146.5554546  67.4999627 138.5402699 146.8453768  64.8359948 134.4159989
 147.4417340  64.6115971 133.7016952 146.9028740  64.0944694 135.0185437
 146.4178797  62.2899384 122.2510180 146.6704317  61.7680905 121.4893643
 145.4803356  62.1265529 122.3536863 151.4622079  61.2935162 130.0584923
 152.2485169  60.8754585 129.7075340 151.7260784  62.1981254 130.2266571
 151.6332157  66.7308012 124.7573580 150.9977990  66.8042639 125.4694485
 151.3029563  67.3201611 124.0792659 146.1375085  64.1927490 124.4534555
 146.0211343  63.5172393 125.1215639 146.2477345  63.7059863 123.6366708
 148.4806626  63.6537637 128.1581244 148.1164834  63.1268258 128.8694166
 149.3373742  63.2636106 127.9847729 148.1212113  58.6827536 123.1542593
 148.2886516  59.5507773 123.5213064 147.9309282  58.8454818 122.2303882
 150.8787446  67.1444515 134.8208423 150.5788170  68.0469554 134.7124230
 150.5338506  66.8776698 135.6729576 144.3299928  63.5958312 130.8545127
 143.4050424  63.4634526 131.0622819 144.5784341  64.3752531 131.3515070
 154.2784590  59.6627055 132.5005860 153.3701468  59.5942464 132.2064621
 154.2272186  60.1399000 133.3287686 148.1001334  61.1385194 124.1389259
 147.9800959  61.5842245 124.9774740 147.4053923  61.4870511 123.5802798
 141.6908739  63.2391586 131.6888916 141.8201120  63.4926065 132.6028328
 141.0106190  63.8319294 131.3693572 145.8608226  73.9088836 127.7879391
 145.7832256  74.8596661 127.8667871 145.2569870  73.5634708 128.4454317
 153.7986400  61.6106667 124.9669593 154.7104256  61.8434054 124.7917291
 153.2896047  62.1943711 124.4044672 146.6071828  63.8902154 140.0058725
 147.3486513  64.4287198 139.7293548 145.9008814  64.5168443 140.1630276
 152.0827168  66.0331295 138.6030886 152.4910524  65.5913705 137.8585518
 151.3604430  65.4583922 138.8565079 148.4358238  60.9703902 135.9764443
 149.2819433  61.3943315 136.1199092 148.3756876  60.3137526 136.6703006
 152.4055983  66.5932485 132.3583175 151.7764845  66.7578200 131.6559243
 152.0181645  67.0074095 133.1294139 156.2845215  67.5286923 129.7127539
 155.5996253  67.9085825 129.1624572 156.3689064  68.1382250 130.4459486
 153.5396146  65.1746882 136.3122882 153.7513041  65.8178642 135.6357263
 153.4925894  64.3409199 135.8444812 151.1422375  57.7864703 133.2159454
 150.2806854  58.0845957 133.5076192 151.1684810  58.0035102 132.2840487
 147.9583945  66.3306894 129.6233260 148.4222290  66.6094597 128.8337883
 147.6940743  65.4290338 129.4406351 144.8508026  65.8778375 132.5613023
 145.4209383  66.3065643 131.9230508 145.4416137  65.5960960 133.2597209
 146.8952831  62.4530046 126.4322825 147.5976874  62.9051090 126.8996752
 146.5633459  61.8113865 127.0602718 145.3433192  61.0441803 140.8074035
 144.7131853  61.7258083 141.0409431 145.2369280  60.9324884 139.8627173
 140.6378165  60.7113599 131.7339959 139.8477219  60.9671127 131.2580069
 141.1289412  61.5261936 131.8391999 154.6541974  68.0518838 134.4845240
 155.4759418  67.6499025 134.2027921 154.6504377  67.9487072 135.4361355
 142.5892910  61.0758178 128.6923435 141.7924073  61.1876872 129.2106931
 142.3618502  61.4144830 127.8264326 148.4198578  67.6002881 136.6405950
 148.4843010  68.0623288 137.4764122 147.7109501  66.9700246 136.7688260
 138.9215868  60.9644089 134.1654950 139.1723906  61.8491099 134.4312525
 139.4575416  60.7848691 133.3930041 148.1346595  69.2670989 126.5084930
 147.9992270  70.1122524 126.9369778 148.6756408  69.4690266 125.7450864
 141.5875993  66.7846427 127.0812855 142.1000513  67.5789677 127.2318420
 142.2398705  66.0872717 127.0146457 143.3970877  69.9012183 129.1635609
 143.5737506  70.8230148 128.9756593 144.1927711  69.5870602 129.5929988
 142.6823234  61.9476815 139.0397772 142.5676749  61.0462072 139.3404871
 141.8267752  62.1940511 138.6882588 149.7615072  69.8894555 140.6385272
 149.3178926  69.1030934 140.3206177 150.4232285  70.0773706 139.9729163
 144.5202193  71.4190357 135.1645951 145.0709618  71.2907420 134.3922945
 143.6813669  71.7185246 134.8140844 151.8596310  70.1697355 138.6666674
 151.8414785  70.9906236 138.1746943 152.7816230  70.0451430 138.8916815
 148.3169364  67.6841484 139.5090182 148.8497701  66.9229773 139.2789490
 147.7883445  67.3915136 140.2514337 139.5524909  65.1135081 127.8572426
 140.3900131  65.5232089 127.6406134 139.7303177  64.1734523 127.8272620
 151.4489341  62.7810162 123.5456259 150.9335965  63.5514766 123.7844646
 151.1766650  62.1075298 124.1689320 149.0336453  57.6259862 128.6041497
 148.1778049  57.2366713 128.4247136 149.4463404  57.7051823 127.7441283
 150.5635599  55.1606206 133.0033057 150.0600395  55.1236341 132.1900862
 150.8566206  56.0698948 133.0629714 146.8078485  55.2444935 132.0099239
 147.6731482  55.0487744 131.6505128 146.8755994  55.0155287 132.9368596
 151.2375645  60.6537254 125.3716040 150.9325780  60.9683403 126.2226183
 152.1906087  60.7318673 125.4143373 149.6822077  66.8127477 127.0208994
 149.1543438  66.0780237 126.7082232 149.1809579  67.5902153 126.7748962
 154.6614923  65.0076497 132.1376040 154.0038597  65.6975759 132.2256169
 155.4655322  65.3972929 132.4810027 144.4140804  57.4747143 129.3815606
 144.9884556  57.2522325 128.6488799 145.0011787  57.5435838 130.1344207
 153.4720381  63.3620870 130.1879982 153.9852263  63.9950862 130.6901692
 154.1221605  62.7622066 129.8223342 144.7410391  59.5051604 123.4011491
 143.9047703  59.8426291 123.7220766 144.6015161  59.3700584 122.4638628
 146.7163472  54.3488392 128.1090675 146.0627884  54.0337409 127.4847290
 146.6743946  53.7264133 128.8350498 147.8274677  64.6307687 120.0243967
 146.9201738  64.3996941 120.2235116 148.3245709  63.8345306 120.2117949
 150.7342756  73.3405194 122.9440653 150.0604454  73.6436891 123.5525611
 151.1208578  74.1434275 122.5946110 149.9501212  60.8370326 132.4338323
 149.0323774  61.0585273 132.2760011 150.3661356  60.9116636 131.5750030
 150.7336260  62.2361741 127.5641003 151.4808079  62.7483139 127.2548125
 151.0027849  61.9145794 128.4245397 149.0062910  64.7320282 124.5467957
 148.0974129  64.4479315 124.6440427 149.0357994  65.1519361 123.6871264
 154.2382178  68.3426872 128.3159125 153.7844505  67.5017781 128.3724315
 153.6076144  68.9788270 128.6533905 153.1815097  59.2718858 129.5459792
 152.4437854  58.7596244 129.8770035 153.4341871  58.8319239 128.7343069
 152.6815117  70.1803368 129.2508943 152.9738091  70.7408425 128.5321309
 153.1913737  70.4731929 130.0062102 139.5751081  62.4525796 128.5283159
 139.3775480  61.8595157 127.8034226 139.0197744  62.1478006 129.2459098
 147.5547804  62.3448903 130.6477753 147.6096414  61.3922739 130.5720229
 146.7439006  62.5008342 131.1319051 148.7038998  66.2729026 121.8856036
 148.2658428  65.5564885 121.4261673 149.4449439  66.5005141 121.3241127
 145.4940164  60.9625962 128.4068131 144.6808030  61.2620133 128.8133324
 145.9899158  60.5681651 129.1242614 147.6448742  70.9583719 130.3402396
 147.6024921  71.1844566 129.4110928 148.5611441  70.7247094 130.4888197
 144.9854239  58.5344318 134.0229366 145.6253618  58.3933077 133.3252330
 144.1531769  58.2478831 133.6467968 145.7614543  67.8346748 130.1364359
 146.5555141  67.3397068 129.9346934 145.0506235  67.3064611 129.7732064
 150.5809387  70.2164844 134.4876726 150.6346409  70.7855780 135.2554442
 149.7124169  70.3866729 134.1230764 142.0697306  61.9789830 126.2124112
 141.1394894  61.9174286 126.4294074 142.1654778  61.4565783 125.4160753
 141.9882855  58.5044643 128.8002353 142.2489673  59.4189976 128.6911514
 142.8100028  58.0369085 128.9498966 143.4607781  59.9182400 135.9701178
 144.1330834  59.7099762 135.3213827 142.6337567  59.7204486 135.5306410
 149.5397487  64.3825106 136.0463658 150.4689547  64.5336266 135.8732626
 149.1188517  64.4709127 135.1912305 148.3385819  68.4075770 133.8162196
 148.1996904  68.0394555 134.6888134 147.5500415  68.9223410 133.6446154
 148.9333971  73.5084867 125.1587732 149.1085726  73.0372910 125.9733355
 148.2466759  74.1350633 125.3868993 149.8891034  67.7857373 131.2051034
 149.5540866  67.7458143 132.1008684 149.3894980  67.1202089 130.7321444
 143.8635278  63.1925003 136.7303615 143.7255076  62.4605242 137.3315154
 144.7740201  63.1033903 136.4487803 152.8250226  65.1313407 121.4788093
 152.2079396  64.4060236 121.3821146 152.3566714  65.8922768 121.1355168
 146.4917579  62.9044962 136.2187295 147.2017197  62.2638155 136.1773913
 146.4486887  63.1557857 137.1413475 145.2046512  59.8910180 138.0382934
 144.6683870  59.4400919 138.6904530 144.6163221  60.0256089 137.2953398
 143.4995056  76.6574230 131.9327593 143.7391654  77.2892754 132.6106611
 142.6564252  76.3062270 132.2192952 144.6148771  59.3498832 120.6009398
 143.7378238  59.2287632 120.2371644 145.0906525  58.5584910 120.3488286
 136.1350912  64.1375991 130.6950905 136.8221951  63.8237721 130.1071920
 135.9799040  65.0417356 130.4218156 140.9385634  59.0266188 135.1235929
 140.8543822  58.4191858 134.3886338 140.1168340  59.5175206 135.1245425
 148.0122918  72.4653352 134.3369097 147.9393089  73.2708324 134.8488401
 147.5700311  72.6645318 133.5117118 147.8012697  71.7025122 127.8471918
 147.0180219  72.2446802 127.9410143 148.5005443  72.2199102 128.2466159
 151.1109348  57.5119751 130.4906124 151.6078047  56.7589714 130.1707194
 150.3396329  57.5484068 129.9249333 150.4721601  72.3640186 136.4927255
 151.1849574  72.9987651 136.4203157 149.9811630  72.4604052 135.6767257
 152.1939128  66.2691439 128.0644547 151.2595407  66.3892901 127.8949251
 152.3715797  65.3663905 127.8004557 147.6944316  59.6537134 130.2177808
 147.3242104  59.1008175 130.9058714 148.1903409  59.0495268 129.6652808
 155.5811680  62.1108758 128.5994581 156.0472132  62.9436750 128.5254884
 156.0319180  61.6453740 129.3039840 145.5233515  70.1134630 137.3132826
 146.2242974  70.7471112 137.4662220 145.0528630  70.4549361 136.5528465
 153.6487911  68.4552579 125.5980733 153.9247755  68.3409174 126.5074607
 152.7792409  68.0570064 125.5592906 153.3234801  62.6679237 135.1385376
 152.6706251  62.9155144 134.4837829 153.7015181  61.8543375 134.8047854
 150.2841975  72.7038930 129.2413547 150.4664369  71.8860586 129.7041299
 151.1074961  72.9206622 128.8038437 150.6184140  71.6307115 126.5028595
 151.1471907  71.1199570 125.8898757 150.8812360  71.3149645 127.3674128
 141.1201233  69.6470985 134.2463929 141.7054670  68.9014672 134.3791833
 140.9226071  69.9574941 135.1300593 143.9739888  72.6822232 129.2626371
 143.3050263  73.1668360 128.7790411 143.8352758  72.9291452 130.1769750
 135.7118888  62.2176585 132.9668372 135.7502987  61.6840175 133.7605490
 135.2059181  61.6911790 132.3479349 148.1145157  74.7165975 135.8609030
 148.6663465  74.8797597 136.6258115 148.4551350  75.3070413 135.1889054
 143.0909650  57.0641125 136.4630914 143.1550976  57.9255956 136.0508312
 143.0276770  56.4515127 135.7303273 142.5661923  59.1364258 140.1103949
 143.1933961  58.7541335 140.7241473 141.7089841  58.9178460 140.4759641
 139.3427465  60.9440687 126.0422303 139.6380906  60.0351365 125.9889357
 138.4415501  60.9228426 125.7203306 151.2513544  72.6647951 132.8472712
 151.1264684  71.8637691 132.3383657 151.9092635  73.1594144 132.3586682
 142.8721712  59.0196683 132.0249852 142.1508298  59.6332651 131.8857325
 143.6614968  59.5554448 131.9466498 153.3148452  70.4656971 134.4752262
 152.3678788  70.3462322 134.4030589 153.6631226  69.5779469 134.5578523
 141.0715307  58.6254785 126.1661628 140.7428013  57.7452163 125.9836734
 141.4254678  58.5702453 127.0538018 150.3194886  70.2609687 130.6756614
 150.1719848  69.3326395 130.8564184 151.1448379  70.2829778 130.1913689
 144.1857130  58.9127754 126.5337106 144.5253203  59.4413676 125.8115715
 144.6329251  59.2508160 127.3095673 153.9229008  71.0838246 131.7621487
 154.8475555  70.8781107 131.6245938 153.7544311  70.8354647 132.6710828
 146.8800571  57.2964805 135.9840174 146.5397391  56.4972618 136.3860854
 146.1739577  57.5966516 135.4117007 147.5317043  54.3814118 134.4367497
 148.3543112  53.9074596 134.3146388 147.7755106  55.1604601 134.9366184
 146.1725277  57.4102376 124.7330399 146.8933640  57.7883629 124.2294116
 145.5490581  58.1291253 124.8365377 150.3156400  58.1147525 125.6688731
 150.5320014  58.9972163 125.3677559 149.8350467  57.7233738 124.9394373
 145.0555621  61.0733238 132.2459476 144.9100202  61.3873541 133.1383757
 144.5780825  61.6918138 131.6930375 146.9152004  58.0635786 132.2940365
 146.9013573  57.1676879 131.9572663 147.6324432  58.0706450 132.9278651
 148.7678135  58.4973126 134.3393493 148.5095913  59.4190197 134.3377823
 148.2363175  58.1003561 135.0293957 153.7124324  71.6023913 127.1183578
 153.8861201  71.0370336 126.3657431 154.2053215  72.4024808 126.9363068
 139.5301284  63.6138583 135.1847137 138.9854752  64.3898391 135.3167411
 140.4080633  63.9609387 135.0266258 146.3188900  56.9450166 127.5627936
 146.4404811  56.0166813 127.7618823 146.0290943  56.9588852 126.6506251
 149.1880091  54.6305077 130.6994655 149.2101787  54.6944410 129.7446635
 149.6048150  53.7909586 130.8935162 154.6999496  70.9190678 124.2180477
 155.3950401  71.5397371 124.4367791 155.0422646  70.0686029 124.4932854
 140.3167305  62.7408479 138.0777294 139.5749041  62.8891114 138.6641924
 139.9960050  63.0016744 137.2144043 148.2610968  72.2824457 137.8757684
 148.5698095  72.0373604 138.7480384 149.0586450  72.4871096 137.3876554
 148.2831580  74.4362367 130.1063060 147.8436570  73.9438745 130.7995917
 149.0339697  73.8935334 129.8655136 140.7623919  70.6273908 130.1087689
 141.5881939  70.3277679 129.7286332 140.4117971  69.8581530 130.5577477
 145.7305452  69.9800376 132.1785362 145.1085462  69.3171081 131.8787590
 146.4010319  70.0061508 131.4959010 138.9632524  68.5460234 131.0676622
 138.1264432  68.1182408 130.8860623 138.9356170  68.7392677 132.0047413
 145.2918959  68.5304299 125.6543823 145.4407080  69.2139764 125.0010495
 146.0985403  68.5109389 126.1693278 143.0471592  64.5569477 126.6604892
 142.8017634  63.6531807 126.8585102 143.2167507  64.5586627 125.7184370
 142.3167240  60.2897834 124.1591053 141.6236485  60.3642189 123.5031089
 142.0718992  59.5258178 124.6812570 148.7914365  71.0252430 123.1255570
 148.2188332  71.6442617 122.6726042 149.3647158  71.5751791 123.6595492
 152.0111625  71.3089580 124.2564152 152.9442298  71.2435141 124.4597028
 151.9234837  72.1445847 123.7978685 154.6399641  70.6255450 121.2168100
 154.5613273  70.2915314 122.1103858 155.4609308  71.1177218 121.2159572
 149.1761163  62.3613242 120.4671623 150.1220268  62.2319450 120.5360041
 148.7975408  61.6227904 120.9441051 147.3604080  60.2863219 120.4026508
 146.4535536  59.9896331 120.4789221 147.6380061  59.9893037 119.5360794
 138.2782021  61.6069582 130.8525554 137.9584805  60.7534890 130.5599928
 137.7315449  61.8218160 131.6083522 142.0561928  64.3232023 134.5695061
 142.2747938  65.2549131 134.5883095 142.4687702  63.9639998 135.3549865
 148.9766146  54.8300108 126.5570749 148.1666874  54.4847193 126.9325995
 149.6650563  54.5207652 127.1458361 150.9056694  53.9078155 128.1795046
 151.4587733  54.3273609 128.8385069 151.1426781  52.9813903 128.2218002
 146.1302865  57.1450154 120.5438487 146.9922029  57.4705052 120.8034304
 146.3153209  56.3581650 120.0311553 138.1470281  65.2272494 132.8218676
 137.4533752  64.8126446 132.3088630 138.8943272  65.2693030 132.2252095
 154.2835501  56.0178680 127.6873710 153.7034171  56.6763484 127.3051762
 154.0171434  55.1956025 127.2761128 152.7339068  55.4183738 129.8895030
 153.2338846  55.5300273 129.0809349 153.3774676  55.1144791 130.5295839
 140.0607023  65.1590747 130.6984691 140.0377711  65.2578435 129.7466574
 140.3707660  66.0055898 131.0201857 142.7194401  67.2166902 134.8131305
 143.6737655  67.1850845 134.7461237 142.5206925  66.7557526 135.6281531
 143.3093783  65.7868018 137.3802103 144.1286672  66.2812097 137.4036940
 143.5830591  64.8699987 137.3519670 153.0660380  58.1778771 126.7430058
 152.1786235  58.4628421 126.5250253 153.4814369  58.0172534 125.8957335
 141.0744630  72.7586522 131.8301503 140.9399098  71.9986923 131.2639501
 140.6576692  73.4827422 131.3630292 152.2103593  67.9423445 120.8378078
 152.9139443  68.1473448 121.4535734 151.4866242  68.5100207 121.1027162
 153.0401403  63.6933307 126.9580348 152.9836605  64.1501858 126.1187981
 153.5929746  62.9323991 126.7803191 144.2313756  73.6555839 132.0419946
 144.1146140  74.6001271 131.9398636 143.4106202  73.3529400 132.4305745
 154.1190290  68.3805975 122.8876538 154.9535894  67.9487173 122.7054013
 153.9574633  68.2087988 123.8153433 153.7736183  64.8838088 124.2532878
 153.7184986  64.7182359 123.3121322 153.1482238  65.5914121 124.4095067
 138.5628698  60.1206152 138.0794300 139.2087561  59.6105106 138.5681525
 138.3545849  60.8574834 138.6537725 147.0832308  54.3846197 123.8318196
 147.0710978  55.3288037 123.9886467 147.9755730  54.2016342 123.5377657
 145.2568270  74.3084101 135.2575874 146.1595517  74.3407711 135.5742369
 145.0305640  73.3784552 135.2722210 147.0121872  73.0615087 131.9185953
 146.0617503  73.0616949 131.8050325 147.3154358  72.3147822 131.4021987
 150.8984427  50.9788974 128.0864133 150.1316823  50.4247460 128.2320815
 151.3095132  51.0510842 128.9478284 155.4151087  80.7038530 128.9090131
 154.8515953  80.6128467 128.1406418 155.3003482  79.8838435 129.3892623
 152.9615519  82.1989722 131.7474351 153.7536811  81.8580547 131.3320650
 153.2012170  82.3084697 132.6676504 154.9206273  81.4598635 124.6191730
 155.6937149  80.9127622 124.4804606 155.2731672  82.3242884 124.8306191
 155.1693682  78.9250230 130.8545127 154.2444179  78.7926444 131.0622819
 155.4178096  79.7044449 131.3515070 152.5302493  78.5683503 131.6888916
 152.6594875  78.8217982 132.6028328 151.8499945  79.1611211 131.3693572
 155.6901780  81.2070293 132.5613023 156.2603137  81.6357561 131.9230508
 156.2809892  80.9252877 133.2597209 156.1826947  76.3733720 140.8074035
 155.5525607  77.0550001 141.0409431 156.0763034  76.2616802 139.8627173
 151.4771919  76.0405516 131.7339959 150.6870973  76.2963045 131.2580069
 151.9683166  76.8553854 131.8391999 153.4286664  76.4050095 128.6923435
 152.6317828  76.5168790 129.2106931 153.2012257  76.7436748 127.8264326
 149.7609622  76.2936007 134.1654950 150.0117660  77.1783017 134.4312525
 150.2969170  76.1140608 133.3930041 152.4269747  82.1138344 127.0812855
 152.9394268  82.9081594 127.2318420 153.0792460  81.4164635 127.0146457
 154.2364632  85.2304101 129.1635609 154.4131260  86.1522065 128.9756593
 155.0321465  84.9162520 129.5929988 153.5216988  77.2768732 139.0397772
 153.4070503  76.3753990 139.3404871 152.6661506  77.5232429 138.6882588
 155.3595947  86.7482274 135.1645951 155.9103372  86.6199338 134.3922945
 154.5207423  87.0477163 134.8140844 150.3918664  80.4426999 127.8572426
 151.2293886  80.8524007 127.6406134 150.5696932  79.5026441 127.8272620
 155.2534559  72.8039061 129.3815606 155.8278311  72.5814242 128.6488799
 155.8405541  72.8727755 130.1344207 155.5804146  74.8343522 123.4011491
 154.7441458  75.1718208 123.7220766 155.4408915  74.6992502 122.4638628
 150.4144835  77.7817714 128.5283159 150.2169235  77.1887075 127.8034226
 149.8591499  77.4769924 129.2459098 155.8247993  73.8636236 134.0229366
 156.4647373  73.7224995 133.3252330 154.9925524  73.5770749 133.6467968
 152.9091061  77.3081748 126.2124112 151.9788649  77.2466203 126.4294074
 153.0048533  76.7857701 125.4160753 152.8276610  73.8336561 128.8002353
 153.0883427  74.7481894 128.6911514 153.6493782  73.3661003 128.9498966
 154.3001535  75.2474318 135.9701178 154.9724589  75.0391680 135.3213827
 153.4731322  75.0496404 135.5306410 154.7029032  78.5216921 136.7303615
 154.5648830  77.7897160 137.3315154 155.6133956  78.4325821 136.4487803
 156.0440267  75.2202098 138.0382934 155.5077624  74.7692836 138.6904530
 155.4556975  75.3548007 137.2953398 154.3388810  91.9866147 131.9327593
 154.5785409  92.6184671 132.6106611 153.4958007  91.6354187 132.2192952
 155.4542526  74.6790749 120.6009398 154.5771992  74.5579550 120.2371644
 155.9300279  73.8876828 120.3488286 146.9744666  79.4667909 130.6950905
 147.6615706  79.1529639 130.1071920 146.8192795  80.3709274 130.4218156
 151.7779388  74.3558106 135.1235929 151.6937577  73.7483775 134.3886338
 150.9562095  74.8467124 135.1245425 151.9594987  84.9762902 134.2463929
 152.5448424  84.2306590 134.3791833 151.7619826  85.2866859 135.1300593
 154.8133643  88.0114150 129.2626371 154.1444018  88.4960277 128.7790411
 154.6746512  88.2583370 130.1769750 146.5512642  77.5468502 132.9668372
 146.5896742  77.0132093 133.7605490 146.0452935  77.0203708 132.3479349
 153.9303404  72.3933043 136.4630914 153.9944731  73.2547874 136.0508312
 153.8670525  71.7807045 135.7303273 153.4055677  74.4656175 140.1103949
 154.0327716  74.0833253 140.7241473 152.5483596  74.2470377 140.4759641
 150.1821220  76.2732605 126.0422303 150.4774661  75.3643283 125.9889357
 149.2809256  76.2520344 125.7203306 153.7115467  74.3488601 132.0249852
 152.9902053  74.9624569 131.8857325 154.5008723  74.8846366 131.9466498
 151.9109061  73.9546702 126.1661628 151.5821768  73.0744081 125.9836734
 152.2648432  73.8994371 127.0538018 155.0250885  74.2419672 126.5337106
 155.3646957  74.7705593 125.8115715 155.4723005  74.5800078 127.3095673
 155.8949376  76.4025156 132.2459476 155.7493957  76.7165459 133.1383757
 155.4174580  77.0210056 131.6930375 150.3695038  78.9430500 135.1847137
 149.8248506  79.7190308 135.3167411 151.2474388  79.2901305 135.0266258
 151.1561060  78.0700396 138.0777294 150.4142796  78.2183032 138.6641924
 150.8353804  78.3308662 137.2144043 151.6017674  85.9565825 130.1087689
 152.4275694  85.6569597 129.7286332 151.2511726  85.1873448 130.5577477
 149.8026279  83.8752152 131.0676622 148.9658187  83.4474326 130.8860623
 149.7749924  84.0684595 132.0047413 153.8865347  79.8861394 126.6604892
 153.6411389  78.9823724 126.8585102 154.0561261  79.8878545 125.7184370
 153.1560994  75.6189752 124.1591053 152.4630239  75.6934107 123.5031089
 152.9112746  74.8550096 124.6812570 149.1175775  76.9361500 130.8525554
 148.7978560  76.0826808 130.5599928 148.5709203  77.1510078 131.6083522
 152.8955683  79.6523941 134.5695061 153.1141693  80.5841049 134.5883095
 153.3081457  79.2931915 135.3549865 148.9864035  80.5564411 132.8218676
 148.2927507  80.1418364 132.3088630 149.7337026  80.5984948 132.2252095
 150.9000778  80.4882665 130.6984691 150.8771466  80.5870352 129.7466574
 151.2101414  81.3347816 131.0201857 153.5588156  82.5458820 134.8131305
 154.5131409  82.5142762 134.7461237 153.3600679  82.0849444 135.6281531
 154.1487538  81.1159936 137.3802103 154.9680427  81.6104015 137.4036940
 154.4224346  80.1991904 137.3519670 151.9138384  88.0878440 131.8301503
 151.7792852  87.3278840 131.2639501 151.4970447  88.8119339 131.3630292
 155.0707510  88.9847757 132.0419946 154.9539894  89.9293189 131.9398636
 154.2499957  88.6821318 132.4305745 149.4022452  75.4498070 138.0794300
 150.0481316  74.9397024 138.5681525 149.1939603  76.1866752 138.6537725
 110.9813794   7.6760599 118.6572899 111.2210392   8.3079123 119.3351918
 110.1382990   7.3248639 118.9438259 120.4434257  13.2176091 118.4719658
 121.2355549  12.8766916 118.0565957 120.6830907  13.3271066 119.3921811
 128.4769384  15.3895868 110.9449902 127.8257364  15.9749948 110.5583916
 129.2713747  15.9202062 111.0044940 122.4025011  12.4785005 111.3437037
 123.1755887  11.9313992 111.2049912 122.7550410  13.3429254 111.5551498
 124.2410054  13.8061387 124.5503936 123.9499920  14.7107018 124.4350602
 124.8767038  13.8477915 125.2648005 124.1820719  20.2567123 114.5124697
 124.1044748  21.2074948 114.5913178 123.5782362  19.9112995 115.1699624
 126.7411070  13.9481168 123.3651257 126.8055502  14.4101576 124.2009429
 126.0321994  13.3178533 123.4933567 126.4559087  15.6149276 113.2330237
 126.3204762  16.4600811 113.6615085 126.9968900  15.8168553 112.4696171
 119.9088485  13.1324714 113.8058162 120.4213005  13.9267964 113.9563727
 120.5611198  12.4351004 113.7391764 121.7183370  16.2490470 115.8880915
 121.8949998  17.1708435 115.7001899 122.5140203  15.9348889 116.3175295
 128.0827564  16.2372842 127.3630579 127.6391418  15.4509221 127.0451484
 128.7444777  16.4251993 126.6974470 122.8414685  17.7668644 121.8891258
 123.3922110  17.6385707 121.1168252 122.0026161  18.0663533 121.5386150
 130.1808802  16.5175642 125.3911980 130.1627277  17.3384523 124.8992250
 131.1028722  16.3929717 125.6162122 117.8737402  11.4613368 114.5817733
 118.7112624  11.8710376 114.3651440 118.0515669  10.5212810 114.5517927
 129.0555248  19.6883482 109.6685960 128.3816947  19.9915178 110.2770918
 129.4421070  20.4912562 109.3191417 131.0027609  16.5281655 115.9754250
 131.2950583  17.0886713 115.2566615 131.5126230  16.8210216 116.7307409
 125.9661234  17.3062007 117.0647703 125.9237413  17.5322853 116.1356235
 126.8823933  17.0725381 117.2133504 124.0827035  14.1825036 116.8609666
 124.8767634  13.6875356 116.6592240 123.3718727  13.6542899 116.4977371
 128.9021879  16.5643131 121.2122033 128.9558902  17.1334067 121.9799749
 128.0336661  16.7345016 120.8476070 126.6598311  14.7554058 120.5407503
 126.5209397  14.3872842 121.4133441 125.8712907  15.2701697 120.3691460
 127.2546463  19.8563154 111.8833039 127.4298219  19.3851197 112.6978662
 126.5679251  20.4828920 112.1114300 121.8207548  23.0052517 118.6572899
 122.0604146  23.6371041 119.3351918 120.9776745  22.6540557 118.9438259
 114.4563404  10.4854279 117.4196211 115.1434444  10.1716009 116.8317227
 114.3011533  11.3895643 117.1463463 126.3335410  18.8131639 121.0614403
 126.2605582  19.6186611 121.5733708 125.8912803  19.0123605 120.2362425
 126.1225190  18.0503409 114.5717225 125.3392712  18.5925089 114.6655449
 126.8217935  18.5677389 114.9711466 128.7934094  18.7118473 123.2172562
 129.5062066  19.3465938 123.1448463 128.3024122  18.8082339 122.4012564
 123.8446007  16.4612917 124.0378133 124.5455467  17.0949400 124.1907527
 123.3741122  16.8027648 123.2773772 128.6054467  19.0517217 115.9658853
 128.7876862  18.2338873 116.4286606 129.4287453  19.2684910 115.5283743
 128.9396633  17.9785403 113.2273902 129.4684399  17.4677857 112.6144064
 129.2024852  17.6627933 114.0919435 119.4413725  15.9949272 120.9709235
 120.0267162  15.2492960 121.1037140 119.2438564  16.3053229 121.8545899
 122.2952380  19.0300519 115.9871678 121.6262756  19.5146647 115.5035718
 122.1565250  19.2769740 116.9015056 126.4357649  21.0644263 122.5854336
 126.9875957  21.2275884 123.3503421 126.7763843  21.6548701 121.9134361
 129.5726036  19.0126238 119.5718018 129.4477176  18.2115978 119.0628964
 130.2305127  19.5072432 119.0831988 131.6360945  16.8135258 121.1997568
 130.6891280  16.6940610 121.1275895 131.9843718  15.9257756 121.2823830
 128.6407378  16.6087975 117.4001921 128.4932340  15.6804682 117.5809491
 129.4660872  16.6308065 116.9158996 132.2441500  17.4316533 118.4866793
 133.1688047  17.2259395 118.3491245 132.0756803  17.1832934 119.3956135
 132.0336816  17.9502201 113.8428885 132.2073694  17.3848623 113.0902737
 132.5265707  18.7503096 113.6608375 133.0211989  17.2668965 110.9425783
 133.7162893  17.8875658 111.1613098 133.3635139  16.4164316 111.2178161
 126.5823460  18.6302744 124.6002991 126.8910587  18.3851891 125.4725690
 127.3798942  18.8349383 124.1121861 126.6044072  20.7840654 116.8308367
 126.1649063  20.2917033 117.5241224 127.3552189  20.2413622 116.5900442
 119.0836411  16.9752195 116.8332995 119.9094431  16.6755967 116.4531639
 118.7330463  16.2059817 117.2822784 124.0517945  16.3278663 118.9030669
 123.4297954  15.6649368 118.6032897 124.7222811  16.3539795 118.2204317
 117.2845016  14.8938521 117.7921929 116.4476925  14.4660696 117.6105930
 117.2568662  15.0870965 118.7292720 123.6131451  14.8782586 112.3789129
 123.7619572  15.5618051 111.7255802 124.4197895  14.8587676 112.8938585
 127.1126857  17.3730717 109.8500877 126.5400824  17.9920904 109.3971349
 127.6859651  17.9230078 110.3840799 130.3324117  17.6567867 110.9809459
 131.2654790  17.5913429 111.1842335 130.2447330  18.4924134 110.5223992
 132.9612133  16.9733737 107.9413407 132.8825765  16.6393601 108.8349164
 133.7821800  17.4655505 107.9404879 116.4682773  11.5750781 119.5463982
 115.7746244  11.1604734 119.0333937 117.2155764  11.6171317 118.9497401
 118.3819516  11.5069035 117.4229997 118.3590204  11.6056722 116.4711880
 118.6920152  12.3534185 117.7447163 121.0406893  13.5645190 121.5376612
 121.9950147  13.5329132 121.4706543 120.8419417  13.1035813 122.3526838
 119.3957122  19.1064809 118.5546810 119.2611590  18.3465210 117.9884808
 118.9789185  19.8305709 118.0875598 122.5526248  20.0034126 118.7665252
 122.4358632  20.9479559 118.6643943 121.7318694  19.7007688 119.1551051
 123.5780762  20.6562388 121.9821181 124.4808009  20.6885998 122.2987676
 123.3518132  19.7262839 121.9967516 125.3334364  19.4093375 118.6431259
 124.3829995  19.4095236 118.5295632 125.6366850  18.6626109 118.1267294
 141.0687058  25.2453913 119.7077022 141.7065468  25.1260660 119.0040362
 140.9507901  26.1934757 119.7664974 137.8776764  25.1981341 119.6438546
 137.5395276  25.0822406 118.7559081 138.7466532  24.7972506 119.6239553
 133.7363580  27.0516818 115.6335437 133.1728445  26.9606754 114.8651725
 133.6215975  26.2316722 116.1137930 138.3596547  26.3516193 125.6024752
 138.3485188  25.9568991 124.7305256 138.5217186  25.6182265 126.1958523
 131.2828012  28.5468009 118.4719658 132.0749304  28.2058834 118.0565957
 131.5224662  28.6562984 119.3921811 139.3163138  30.7187785 110.9449902
 138.6651118  31.3041866 110.5583916 140.1107501  31.2493980 111.0044940
 133.2418766  27.8076922 111.3437037 134.0149642  27.2605909 111.2049912
 133.5944164  28.6721172 111.5551498 135.0803808  29.1353305 124.5503936
 134.7893674  30.0398935 124.4350602 135.7160793  29.1769832 125.2648005
 136.0060015  26.5130153 121.1405296 136.6023587  26.2886176 120.4262258
 136.0634987  25.7714899 121.7430743 135.5785043  23.9669588 108.9755487
 135.8310564  23.4451110 108.2138950 134.6409603  23.8035734 109.0782170
 140.6228326  22.9705367 116.7830230 141.4091415  22.5524790 116.4320647
 140.8867031  23.8751459 116.9511878 140.7938404  28.4078217 111.4818887
 140.1584237  28.4812844 112.1939791 140.4635810  28.9971816 110.8037966
 135.2981332  25.8697694 111.1779861 135.1817590  25.1942598 111.8460946
 135.4083592  25.3830068 110.3612015 137.6412873  25.3307842 114.8826551
 137.2771080  24.8038463 115.5939472 138.4979989  24.9406311 114.7093036
 137.2818360  20.3597741 109.8787899 137.4492762  21.2277978 110.2458370
 137.0915529  20.5225023 108.9549188 140.0393693  28.8214720 121.5453730
 139.7394416  29.7239759 121.4369537 139.6944753  28.5546903 122.3974882
 133.4906175  25.2728517 117.5790434 132.5656671  25.1404731 117.7868126
 133.7390588  26.0522736 118.0760376 143.4390837  21.3397260 119.2251167
 142.5307714  21.2712669 118.9309928 143.3878433  21.8169205 120.0532992
 137.2607581  22.8155399 110.8634566 137.1407206  23.2612449 111.7020046
 136.5660169  23.1640716 110.3048104 130.8514986  24.9161791 118.4134223
 130.9807367  25.1696269 119.3273635 130.1712437  25.5089499 118.0938878
 135.0214473  35.5859040 114.5124697 134.9438503  36.5366866 114.5913178
 134.4176117  35.2404913 115.1699624 142.9592647  23.2876872 111.6914900
 143.8710503  23.5204259 111.5162598 142.4502294  23.8713916 111.1289979
 135.7678075  25.5672359 126.7304031 136.5092759  26.1057403 126.4538855
 135.0615061  26.1938648 126.8875583 141.2433415  27.7101500 125.3276193
 141.6516771  27.2683910 124.5830825 140.5210676  27.1354127 125.5810386
 137.5964485  22.6474107 122.7009750 138.4425680  23.0713520 122.8444399
 137.5363122  21.9907731 123.3948313 141.5662229  28.2702690 119.0828482
 140.9371092  28.4348404 118.3804549 141.1787891  28.6844300 119.8539446
 145.4451461  29.2057128 116.4372845 144.7602499  29.5856030 115.8869879
 145.5295311  29.8152455 117.1704793 142.7002393  26.8517087 123.0368189
 142.9119288  27.4948847 122.3602570 142.6532141  26.0179404 122.5690119
 140.3028622  19.4634908 119.9404761 139.4413101  19.7616161 120.2321499
 140.3291057  19.6805307 119.0085794 137.1190191  28.0077098 116.3478567
 137.5828537  28.2864801 115.5583189 136.8546989  27.1060543 116.1651657
 134.0114272  27.5548580 119.2858330 134.5815629  27.9835848 118.6475814
 134.6022384  27.2731165 119.9842516 136.0559077  24.1300251 113.1568132
 136.7583121  24.5821294 113.6242058 135.7239706  23.4884070 113.7848025
 134.5039439  22.7212007 127.5319341 133.8738099  23.4028288 127.7654738
 134.3975527  22.6095089 126.5872479 129.7984411  22.3883803 118.4585265
 129.0083465  22.6441332 117.9825376 130.2895659  23.2032141 118.5637306
 143.8148221  29.7289043 121.2090546 144.6365665  29.3269230 120.9273228
 143.8110624  29.6257277 122.1606662 131.7499157  22.7528383 115.4168742
 130.9530320  22.8647077 115.9352238 131.5224749  23.0915035 114.5509633
 137.5804824  29.2773086 123.3651257 137.6449257  29.7393493 124.2009429
 136.8715748  28.6470451 123.4933567 128.0822114  22.6414294 120.8900256
 128.3330153  23.5261304 121.1557832 128.6181663  22.4618895 120.1175348
 137.2952842  30.9441193 113.2330237 137.1598517  31.7892729 113.6615085
 137.8362654  31.1460471 112.4696171 130.7482239  28.4616631 113.8058162
 131.2606760  29.2559882 113.9563727 131.4004952  27.7642922 113.7391764
 132.5577124  31.5782388 115.8880915 132.7343752  32.5000352 115.7001899
 133.3533958  31.2640807 116.3175295 131.8429481  23.6247020 125.7643078
 131.7282996  22.7232277 126.0650177 130.9873998  23.8710716 125.4127895
 138.9221318  31.5664760 127.3630579 138.4785173  30.7801139 127.0451484
 139.5838532  31.7543910 126.6974470 133.6808440  33.0960562 121.8891258
 134.2315865  32.9677625 121.1168252 132.8419915  33.3955451 121.5386150
 141.0202556  31.8467560 125.3911980 141.0021032  32.6676441 124.8992250
 141.9422476  31.7221635 125.6162122 137.4775611  29.3611689 126.2335489
 138.0103947  28.5999978 126.0034797 136.9489692  29.0685341 126.9759643
 128.7131156  26.7905286 114.5817733 129.5506378  27.2002294 114.3651440
 128.8909424  25.8504728 114.5517927 140.6095588  24.4580366 110.2701566
 140.0942212  25.2284971 110.5089953 140.3372897  23.7845503 110.8934627
 138.1942699  19.3030067 115.3286804 137.3384296  18.9136918 115.1492443
 138.6069651  19.3822028 114.4686589 135.9684732  16.9215140 118.7344545
 136.8337729  16.7257949 118.3750435 136.0362241  16.6925492 119.6613902
 145.5829862  27.2112721 112.2054739 144.8059305  26.8723881 111.7609901
 146.2621343  27.2165344 111.5309704 140.3981891  22.3307459 112.0961347
 140.0932027  22.6453608 112.9471490 141.3512334  22.4088878 112.1388680
 138.8428323  28.4897682 113.7454301 138.3149685  27.7550441 113.4327538
 138.3415826  29.2672358 113.4994269 143.8221169  26.6846702 118.8621347
 143.1644844  27.3745964 118.9501476 144.6261569  27.0743134 119.2055333
 133.5747051  19.1517348 116.1060912 134.1490803  18.9292530 115.3734105
 134.1618033  19.2206043 116.8589514 142.6326628  25.0391075 116.9125289
 143.1458510  25.6721067 117.4146999 143.2827852  24.4392271 116.5468649
 133.9016638  21.1821809 110.1256798 133.0653950  21.5196496 110.4466072
 133.7621408  21.0470789 109.1883935 136.9880923  26.3077892 106.7489274
 136.0807985  26.0767146 106.9480423 137.4851955  25.5115511 106.9363255
 139.8949002  35.0175399 109.6685960 139.2210701  35.3207096 110.2770918
 140.2814824  35.8204480 109.3191417 139.1107459  22.5140531 119.1583629
 138.1930020  22.7355478 119.0005317 139.5267603  22.5886841 118.2995337
 139.8942507  23.9131946 114.2886310 140.6414326  24.4253343 113.9793432
 140.1634096  23.5915999 115.1490703 138.1669157  26.4090487 111.2713264
 137.2580376  26.1249520 111.3685734 138.1964241  26.8289566 110.4116571
 143.3988424  30.0197076 115.0404431 142.9450751  29.1787986 115.0969622
 142.7682391  30.6558475 115.3779212 142.3421344  20.9489063 116.2705099
 141.6044101  20.4366449 116.6015341 142.5948117  20.5089444 115.4588376
 141.8421364  31.8573573 115.9754250 142.1344338  32.4178630 115.2566615
 142.3519984  32.1502134 116.7307409 128.7357327  24.1296001 115.2528466
 128.5381727  23.5365362 114.5279533 128.1803991  23.8248211 115.9704405
 136.7154051  24.0219108 117.3723059 136.7702661  23.0692944 117.2965536
 135.9045253  24.1778547 117.8564358 137.8645245  27.9499231 108.6101342
 137.4264675  27.2335090 108.1506980 138.6055686  28.1775345 108.0486434
 134.6546411  22.6396167 115.1313438 133.8414276  22.9390338 115.5378630
 135.1505405  22.2451856 115.8487920 136.8054989  32.6353924 117.0647703
 136.7631168  32.8614771 116.1356235 137.7217688  32.4017299 117.2133504
 145.9818359  26.2256428 114.6677661 145.8436258  26.4158024 113.7398850
 145.6254578  26.9875811 115.1245712 134.1460486  20.2114523 120.7474673
 134.7859865  20.0703282 120.0497636 133.3138016  19.9249036 120.3713275
 146.0087739  28.2932955 119.6788933 146.4424246  28.2008244 120.5271987
 146.7219320  28.2690455 119.0408949 134.9220790  29.5116953 116.8609666
 135.7161388  29.0167273 116.6592240 134.2112482  28.9834816 116.4977371
 139.7415634  31.8935049 121.2122033 139.7952656  32.4625985 121.9799749
 138.8730415  32.0636934 120.8476070 131.2303553  23.6560035 112.9369418
 130.3001141  23.5944490 113.1539380 131.3261025  23.1335988 112.1406059
 131.1489102  20.1814848 115.5247660 131.4095919  21.0960181 115.4156820
 131.9706274  19.7139290 115.6744273 132.6214027  21.5952605 122.6946484
 133.2937081  21.3869967 122.0459133 131.7943814  21.3974691 122.2551717
 138.7003734  26.0595311 122.7708965 139.6295794  26.2106470 122.5977932
 138.2794764  26.1479332 121.9157611 137.4992066  30.0845975 120.5407503
 137.3603151  29.7164760 121.4133441 136.7106662  30.5993615 120.3691460
 138.0940217  35.1855072 111.8833039 138.2691973  34.7143115 112.6978662
 137.4073006  35.8120838 112.1114300 139.0497281  29.4627578 117.9296340
 138.7147113  29.4228348 118.8253990 138.5501226  28.7972294 117.4566751
 133.0241525  24.8695208 123.4548922 132.8861323  24.1375447 124.0560461
 133.9346448  24.7804108 123.1733109 141.9856472  26.8083612 108.2033400
 141.3685643  26.0830440 108.1066453 141.5172961  27.5692973 107.8600474
 135.6523825  24.5815167 122.9432601 136.3623444  23.9408359 122.9019220
 135.6093133  24.8328062 123.8658782 134.3652759  21.5680385 124.7628241
 133.8290116  21.1171124 125.4149837 133.7769468  21.7026294 124.0198705
 132.6601303  38.3344434 118.6572899 132.8997901  38.9662959 119.3351918
 131.8170499  37.9832475 118.9438259 133.7755018  21.0269037 107.3254704
 132.8984485  20.9057837 106.9616951 134.2512771  20.2355115 107.0733593
 125.2957158  25.8146196 117.4196211 125.9828198  25.5007926 116.8317227
 125.1405287  26.7187561 117.1463463 130.0991880  20.7036393 121.8481235
 130.0150069  20.0962062 121.1131645 129.2774587  21.1945411 121.8490731
 137.1729165  34.1423557 121.0614403 137.0999336  34.9478528 121.5733708
 136.7306558  34.3415523 120.2362425 136.9618944  33.3795327 114.5717225
 136.1786466  33.9217007 114.6655449 137.6611689  33.8969307 114.9711466
 140.2715594  19.1889956 117.2151430 140.7684294  18.4359919 116.8952500
 139.5002576  19.2254273 116.6494640 139.6327848  34.0410391 123.2172562
 140.3455820  34.6757856 123.1448463 139.1417877  34.1374257 122.4012564
 141.3545375  27.9461644 114.7889854 140.4201654  28.0663106 114.6194558
 141.5322044  27.0434110 114.5249863 136.8550563  21.3307339 116.9423115
 136.4848351  20.7778380 117.6304020 137.3509656  20.7265473 116.3898115
 144.7417926  23.7878963 115.3239888 145.2078379  24.6206955 115.2500190
 145.1925427  23.3223944 116.0285146 134.6839762  31.7904834 124.0378133
 135.3849221  32.4241317 124.1907527 134.2134877  32.1319566 123.2773772
 142.8094158  30.1322784 112.3226040 143.0854001  30.0179379 113.2319914
 141.9398656  29.7340269 112.2838213 142.4841048  24.3449442 121.8630683
 141.8312498  24.5925349 121.2083136 142.8621428  23.5313580 121.5293160
 139.4448222  34.3809135 115.9658853 139.6270616  33.5630791 116.4286606
 140.2681208  34.5976827 115.5283743 139.7790387  33.3077320 113.2273902
 140.3078153  32.7969775 112.6144064 140.0418607  32.9919850 114.0919435
 130.2807480  31.3241189 120.9709235 130.8660917  30.5784877 121.1037140
 130.0832318  31.6345146 121.8545899 133.1346135  34.3592437 115.9871678
 132.4656510  34.8438564 115.5035718 132.9959005  34.6061657 116.9015056
 124.8725134  23.8946790 119.6913679 124.9109234  23.3610380 120.4850797
 124.3665427  23.3681995 119.0724656 137.2751404  36.3936180 122.5854336
 137.8269712  36.5567802 123.3503421 137.6157597  36.9840618 121.9134361
 132.2515897  18.7411330 123.1876221 132.3157223  19.6026161 122.7753619
 132.1883017  18.1285332 122.4548579 131.7268169  20.8134463 126.8349255
 132.3540208  20.4311540 127.4486779 130.8696088  20.5948665 127.2004948
 128.5033712  22.6210892 112.7667610 128.7987153  21.7121570 112.7134664
 127.6021748  22.5998631 112.4448612 140.4119791  34.3418156 119.5718018
 140.2870930  33.5407896 119.0628964 141.0698882  34.8364349 119.0831988
 132.0327959  20.6966888 118.7495159 131.3114545  21.3102856 118.6102632
 132.8221215  21.2324653 118.6711805 142.4754699  32.1427176 121.1997568
 141.5285035  32.0232527 121.1275895 142.8237472  31.2549674 121.2823830
 130.2321554  20.3024989 112.8906935 129.9034260  19.4222368 112.7082041
 130.5860924  20.2472658 113.7783324 139.4801133  31.9379892 117.4001921
 139.3326095  31.0096600 117.5809491 140.3054626  31.9599983 116.9158996
 133.3463377  20.5897959 113.2582413 133.6859449  21.1183881 112.5361021
 133.7935497  20.9278365 114.0340979 143.0835254  32.7608451 118.4866793
 144.0081802  32.5551312 118.3491245 142.9150558  32.5124852 119.3956135
 136.0406818  18.9735010 122.7085481 135.7003638  18.1742823 123.1106161
 135.3345824  19.2736721 122.1362314 135.3331524  19.0872581 111.4575706
 136.0539886  19.4653834 110.9539422 134.7096828  19.8061458 111.5610684
 139.4762647  19.7917730 112.3934038 139.6926261  20.6742368 112.0922866
 138.9956714  19.4003943 111.6639680 134.2161868  22.7503443 118.9704782
 134.0706449  23.0643746 119.8629064 133.7387072  23.3688343 118.4175681
 136.0758251  19.7405991 119.0185672 136.0619820  18.8447084 118.6817970
 136.7930679  19.7476655 119.6523958 137.9284382  20.1743331 121.0638799
 137.6702160  21.0960402 121.0623130 137.3969422  19.7773766 121.7539264
 142.8730571  33.2794118 113.8428885 143.0467448  32.7140541 113.0902737
 143.3659462  34.0795013 113.6608375 128.6907530  25.2908787 121.9092444
 128.1460998  26.0668595 122.0412718 129.5686880  25.6379592 121.7511565
 135.4795147  18.6220371 114.2873242 135.6011058  17.6937018 114.4864130
 135.1897189  18.6359057 113.3751558 148.7269962  26.0430541 115.4619185
 149.1701108  25.2937867 115.0638308 147.8496472  26.0340678 115.0792917
 143.8605743  32.5960883 110.9425783 144.5556648  33.2167575 111.1613098
 144.2028893  31.7456234 111.2178161 129.4773552  24.4178684 124.8022601
 128.7355288  24.5661319 125.3887231 129.1566297  24.6786949 123.9389350
 145.7597166  30.0460588 112.4713114 146.2848490  30.3847861 111.7462434
 145.6719519  29.1107604 112.2876249 137.4217215  33.9594662 124.6002991
 137.7304341  33.7143809 125.4725690 138.2192697  34.1641300 124.1121861
 137.4437827  36.1132572 116.8308367 137.0042817  35.6208950 117.5241224
 138.1945944  35.5705539 116.5900442 129.9230166  32.3044112 116.8332995
 130.7488186  32.0047884 116.4531639 129.5724218  31.5351735 117.2822784
 134.8911699  31.6570581 118.9030669 134.2691708  30.9941286 118.6032897
 135.5616566  31.6831713 118.2204317 128.1238771  30.2230439 117.7921929
 127.2870679  29.7952613 117.6105930 128.0962416  30.4162882 118.7292720
 134.4525206  30.2074504 112.3789129 134.6013326  30.8909968 111.7255802
 135.2591649  30.1879594 112.8938585 148.2702826  27.5135780 117.8541632
 149.1049718  27.9525584 118.0179193 148.4061955  27.0374433 117.0349878
 132.2077839  26.2339682 113.3850198 131.9623881  25.3302012 113.5830408
 132.3773754  26.2356832 112.4429676 131.4773486  21.9668039 110.8836360
 130.7842731  22.0412394 110.2276396 131.2325238  21.2028383 111.4057877
 137.9520612  32.7022634 109.8500877 137.3794579  33.3212822 109.3971349
 138.5253405  33.2521996 110.3840799 141.1717871  32.9859785 110.9809459
 142.1048544  32.9205346 111.1842335 141.0841084  33.8216051 110.5223992
 143.8005888  32.3025655 107.9413407 143.7219519  31.9685519 108.8349164
 144.6215555  32.7947423 107.9404879 138.3367410  24.0383447 107.1916929
 139.2826515  23.9089655 107.2605347 137.9581655  23.2998109 107.6686357
 136.5210327  21.9633424 107.1271814 135.6141783  21.6666536 107.2034528
 136.7986308  21.6663242 106.2606101 127.4388268  23.2839787 117.5770861
 127.1191052  22.4305095 117.2845235 126.8921696  23.4988365 118.3328828
 131.2168175  26.0002228 121.2940367 131.4354185  26.9319336 121.3128401
 131.6293949  25.6410202 122.0795171 135.2909112  18.8220359 107.2683794
 136.1528276  19.1475257 107.5279611 135.4759456  18.0351855 106.7556859
 127.3076528  26.9042699 119.5463982 126.6139999  26.4896651 119.0333937
 128.0549519  26.9463235 118.9497401 129.2213270  26.8360952 117.4229997
 129.1983958  26.9348640 116.4711880 129.5313907  27.6826103 117.7447163
 131.8800648  28.8937107 121.5376612 132.8343901  28.8621050 121.4706543
 131.6813172  28.4327731 122.3526838 132.4700030  27.4638223 124.1047409
 133.2892919  27.9582302 124.1282247 132.7436838  26.5470192 124.0764977
 142.2266626  19.8548976 113.4675365 141.3392481  20.1398626 113.2495560
 142.6420615  19.6942739 112.6202642 130.2350877  34.4356727 118.5546810
 130.1005345  33.6757128 117.9884808 129.8182939  35.1597627 118.0875598
 141.3709840  29.6193650 107.5623385 142.0745690  29.8243653 108.1781041
 140.6472489  30.1870412 107.8272468 142.2007650  25.3703512 113.6825655
 142.1442851  25.8272063 112.8433287 142.7535992  24.6094196 113.5048498
 146.0112456  21.1593243 114.5075775 145.7549390  20.7589879 115.3383982
 145.3865324  21.8737037 114.3825914 133.3920003  35.3326044 118.7665252
 133.2752387  36.2771476 118.6643943 132.5712449  35.0299605 119.1551051
 143.2796537  30.0576180 109.6121845 144.1142141  29.6257378 109.4299320
 143.1180880  29.8858193 110.5398739 142.9342429  26.5608293 110.9778184
 142.8791233  26.3952564 110.0366628 142.3088485  27.2684326 111.1340374
 127.7234944  21.7976357 124.8039606 128.3693808  21.2875311 125.2926832
 127.5152095  22.5345039 125.3783032 134.4174517  35.9854306 121.9821181
 135.3201763  36.0177916 122.2987676 134.1911887  35.0554757 121.9967516
 136.1728119  34.7385292 118.6431259 135.2223750  34.7387154 118.5295632
 136.4760605  33.9918027 118.1267294 151.9080812  40.5745831 119.7077022
 152.5459222  40.4552578 119.0040362 151.7901655  41.5226675 119.7664974
 148.7170519  40.5273259 119.6438546 148.3789030  40.4114323 118.7559081
 149.5860287  40.1264424 119.6239553 144.5757334  42.3808735 115.6335437
 144.0122199  42.2898672 114.8651725 144.4609729  41.5608640 116.1137930
 149.1990302  41.6808110 125.6024752 149.1878942  41.2860909 124.7305256
 149.3610941  40.9474183 126.1958523 142.1221766  43.8759927 118.4719658
 142.9143058  43.5350751 118.0565957 142.3618416  43.9854902 119.3921811
 150.1556893  46.0479703 110.9449902 149.5044873  46.6333783 110.5583916
 150.9501256  46.5785898 111.0044940 144.0812520  43.1368840 111.3437037
 144.8543396  42.5897827 111.2049912 144.4337919  44.0013089 111.5551498
 145.9197563  44.4645222 124.5503936 145.6287429  45.3690853 124.4350602
 146.5554547  44.5061750 125.2648005 146.8453770  41.8422071 121.1405296
 147.4417342  41.6178093 120.4262258 146.9028741  41.1006816 121.7430743
 146.4178798  39.2961506 108.9755487 146.6704319  38.7743027 108.2138950
 145.4803357  39.1327652 109.0782170 151.4622081  38.2997285 116.7830230
 152.2485170  37.8816708 116.4320647 151.7260785  39.2043377 116.9511878
 151.6332158  43.7370135 111.4818887 150.9977991  43.8104761 112.1939791
 151.3029564  44.3263734 110.8037966 146.1375087  41.1989612 111.1779861
 146.0211345  40.5234515 111.8460946 146.2477347  40.7121986 110.3612015
 148.4806628  40.6599759 114.8826551 148.1164835  40.1330380 115.5939472
 149.3373743  40.2698228 114.7093036 148.1212115  35.6889659 109.8787899
 148.2886517  36.5569895 110.2458370 147.9309284  35.8516941 108.9549188
 150.8787448  44.1506638 121.5453730 150.5788171  45.0531677 121.4369537
 150.5338507  43.8838821 122.3974882 144.3299929  40.6020435 117.5790434
 143.4050426  40.4696649 117.7868126 144.5784342  41.3814654 118.0760376
 154.2784592  36.6689178 119.2251167 153.3701469  36.6004586 118.9309928
 154.2272187  37.1461123 120.0532992 148.1001335  38.1447316 110.8634566
 147.9800961  38.5904367 111.7020046 147.4053924  38.4932634 110.3048104
 141.6908740  40.2453708 118.4134223 141.8201121  40.4988187 119.3273635
 141.0106192  40.8381416 118.0938878 145.8608228  50.9150958 114.5124697
 145.7832257  51.8658783 114.5913178 145.2569871  50.5696831 115.1699624
 153.7986402  38.6168790 111.6914900 154.7104258  38.8496176 111.5162598
 153.2896049  39.2005834 111.1289979 146.6071830  40.8964277 126.7304031
 147.3486514  41.4349321 126.4538855 145.9008815  41.5230566 126.8875583
 152.0827169  43.0393417 125.3276193 152.4910525  42.5975828 124.5830825
 151.3604431  42.4646045 125.5810386 148.4358239  37.9766024 122.7009750
 149.2819435  38.4005438 122.8444399 148.3756877  37.3199648 123.3948313
 152.4055984  43.5994608 119.0828482 151.7764846  43.7640322 118.3804549
 152.0181646  44.0136218 119.8539446 156.2845216  44.5349046 116.4372845
 155.5996254  44.9147947 115.8869879 156.3689065  45.1444373 117.1704793
 153.5396147  42.1809005 123.0368189 153.7513043  42.8240765 122.3602570
 153.4925896  41.3471321 122.5690119 151.1422376  34.7926826 119.9404761
 150.2806855  35.0908079 120.2321499 151.1684811  35.0097224 119.0085794
 147.9583946  43.3369016 116.3478567 148.4222291  43.6156719 115.5583189
 147.6940744  42.4352461 116.1651657 144.8508027  42.8840498 119.2858330
 145.4209384  43.3127766 118.6475814 145.4416139  42.6023082 119.9842516
 146.8952832  39.4592169 113.1568132 147.5976875  39.9113212 113.6242058
 146.5633460  38.8175987 113.7848025 145.3433193  38.0503925 127.5319341
 144.7131854  38.7320206 127.7654738 145.2369281  37.9387007 126.5872479
 140.6378166  37.7175721 118.4585265 139.8477220  37.9733250 117.9825376
 141.1289413  38.5324059 118.5637306 154.6541975  45.0580960 121.2090546
 155.4759419  44.6561148 120.9273228 154.6504378  44.9549194 122.1606662
 142.5892911  38.0820300 115.4168742 141.7924074  38.1938995 115.9352238
 142.3618503  38.4206953 114.5509633 148.4198579  44.6065004 123.3651257
 148.4843011  45.0685411 124.2009429 147.7109503  43.9762369 123.4933567
 138.9215869  37.9706212 120.8900256 139.1723907  38.8553222 121.1557832
 139.4575417  37.7910813 120.1175348 148.1346596  46.2733111 113.2330237
 147.9992271  47.1184647 113.6615085 148.6756409  46.4752389 112.4696171
 141.5875994  43.7908549 113.8058162 142.1000514  44.5851799 113.9563727
 142.2398707  43.0934840 113.7391764 143.3970879  46.9074305 115.8880915
 143.5737507  47.8292270 115.7001899 144.1927712  46.5932725 116.3175295
 142.6823235  38.9538937 125.7643078 142.5676750  38.0524195 126.0650177
 141.8267753  39.2002634 125.4127895 149.7615073  46.8956678 127.3630579
 149.3178927  46.1093056 127.0451484 150.4232286  47.0835828 126.6974470
 144.5202194  48.4252479 121.8891258 145.0709619  48.2969543 121.1168252
 143.6813670  48.7247368 121.5386150 151.8596311  47.1759478 125.3911980
 151.8414786  47.9968359 124.8992250 152.7816231  47.0513553 125.6162122
 148.3169365  44.6903607 126.2335489 148.8497702  43.9291895 126.0034797
 147.7883446  44.3977259 126.9759643 139.5524911  42.1197203 114.5817733
 140.3900133  42.5294212 114.3651440 139.7303178  41.1796646 114.5517927
 151.4489343  39.7872284 110.2701566 150.9335966  40.5576889 110.5089953
 151.1766651  39.1137420 110.8934627 149.0336454  34.6321985 115.3286804
 148.1778050  34.2428835 115.1492443 149.4463406  34.7113946 114.4686589
 150.5635600  32.1668328 119.7278364 150.0600396  32.1298463 118.9146169
 150.8566207  33.0761071 119.7875020 146.8078486  32.2507058 118.7344545
 147.6731483  32.0549867 118.3750435 146.8755995  32.0217410 119.6613902
 151.2375646  37.6599376 112.0961347 150.9325781  37.9745525 112.9471490
 152.1906088  37.7380796 112.1388680 149.6822078  43.8189600 113.7454301
 149.1543439  43.0842359 113.4327538 149.1809580  44.5964276 113.4994269
 154.6614924  42.0138620 118.8621347 154.0038598  42.7037881 118.9501476
 155.4655323  42.4035052 119.2055333 144.4140805  34.4809266 116.1060912
 144.9884557  34.2584447 115.3734105 145.0011788  34.5497960 116.8589514
 153.4720383  40.3682993 116.9125289 153.9852264  41.0012985 117.4146999
 154.1221606  39.7684188 116.5468649 144.7410392  36.5113727 110.1256798
 143.9047705  36.8488413 110.4466072 144.6015162  36.3762707 109.1883935
 146.7163473  31.3550515 114.8335982 146.0627885  31.0399532 114.2092596
 146.6743947  30.7326255 115.5595805 147.8274678  41.6369810 106.7489274
 146.9201740  41.4059063 106.9480423 148.3245710  40.8407429 106.9363255
 150.7342757  50.3467317 109.6685960 150.0604456  50.6499014 110.2770918
 151.1208579  51.1496397 109.3191417 149.9501213  37.8432448 119.1583629
 149.0323775  38.0647395 119.0005317 150.3661357  37.9178759 118.2995337
 150.7336261  39.2423864 114.2886310 151.4808080  39.7545261 113.9793432
 151.0027851  38.9207917 115.1490703 149.0062911  41.7382405 111.2713264
 148.0974131  41.4541437 111.3685734 149.0357995  42.1581483 110.4116571
 154.2382179  45.3488994 115.0404431 153.7844506  44.5079904 115.0969622
 153.6076146  45.9850393 115.3779212 153.1815098  36.2780980 116.2705099
 152.4437855  35.7658366 116.6015341 153.4341872  35.8381362 115.4588376
 152.6815118  47.1865491 115.9754250 152.9738092  47.7470548 115.2566615
 153.1913739  47.4794052 116.7307409 139.5751082  39.4587919 115.2528466
 139.3775482  38.8657279 114.5279533 139.0197746  39.1540129 115.9704405
 147.5547805  39.3511025 117.3723059 147.6096415  38.3984862 117.2965536
 146.7439007  39.5070464 117.8564358 148.7038999  43.2791148 108.6101342
 148.2658429  42.5627007 108.1506980 149.4449440  43.5067263 108.0486434
 145.4940165  37.9688085 115.1313438 144.6808031  38.2682256 115.5378630
 145.9899160  37.5743774 115.8487920 147.6448743  47.9645842 117.0647703
 147.6024922  48.1906688 116.1356235 148.5611442  47.7309217 117.2133504
 144.9854240  35.5406441 120.7474673 145.6253619  35.3995200 120.0497636
 144.1531771  35.2540954 120.3713275 145.7614544  44.8408871 116.8609666
 146.5555142  44.3459191 116.6592240 145.0506236  44.3126734 116.4977371
 150.5809388  47.2226966 121.2122033 150.6346411  47.7917903 121.9799749
 149.7124170  47.3928852 120.8476070 142.0697307  38.9851953 112.9369418
 141.1394896  38.9236408 113.1539380 142.1654779  38.4627905 112.1406059
 141.9882857  35.5106766 115.5247660 142.2489674  36.4252099 115.4156820
 142.8100029  35.0431208 115.6744273 143.4607782  36.9244523 122.6946484
 144.1330835  36.7161885 122.0459133 142.6337568  36.7266609 122.2551717
 149.5397488  41.3887229 122.7708965 150.4689548  41.5398388 122.5977932
 149.1188518  41.4771249 121.9157611 148.3385820  45.4137893 120.5407503
 148.1996906  45.0456677 121.4133441 147.5500416  45.9285532 120.3691460
 148.9333972  50.5146989 111.8833039 149.1085728  50.0435033 112.6978662
 148.2466760  51.1412756 112.1114300 149.8891035  44.7919496 117.9296340
 149.5540868  44.7520266 118.8253990 149.3894981  44.1264212 117.4566751
 143.8635279  40.1987126 123.4548922 143.7255077  39.4667364 124.0560461
 144.7740203  40.1096026 123.1733109 152.8250227  42.1375530 108.2033400
 152.2079397  41.4122358 108.1066453 152.3566715  42.8984890 107.8600474
 146.4917580  39.9107085 122.9432601 147.2017198  39.2700277 122.9019220
 146.4486888  40.1619980 123.8658782 145.2046514  36.8972303 124.7628241
 144.6683871  36.4463041 125.4149837 144.6163222  37.0318212 124.0198705
 143.4995057  53.6636352 118.6572899 143.7391655  54.2954876 119.3351918
 142.6564254  53.3124392 118.9438259 144.6148773  36.3560954 107.3254704
 143.7378239  36.2349755 106.9616951 145.0906526  35.5647033 107.0733593
 136.1350913  41.1438114 117.4196211 136.8221953  40.8299844 116.8317227
 135.9799042  42.0479479 117.1463463 140.9385635  36.0328311 121.8481235
 140.8543824  35.4253980 121.1131645 140.1168341  36.5237329 121.8490731
 148.0122919  49.4715475 121.0614403 147.9393091  50.2770446 121.5733708
 147.5700312  49.6707440 120.2362425 147.8012699  48.7087245 114.5717225
 147.0180221  49.2508925 114.6655449 148.5005444  49.2261224 114.9711466
 151.1109349  34.5181874 117.2151430 151.6078048  33.7651836 116.8952500
 150.3396330  34.5546191 116.6494640 150.4721603  49.3702309 123.2172562
 151.1849575  50.0049773 123.1448463 149.9811631  49.4666175 122.4012564
 152.1939130  43.2753561 114.7889854 151.2595408  43.3955024 114.6194558
 152.3715798  42.3726028 114.5249863 147.6944318  36.6599257 116.9423115
 147.3242105  36.1070297 117.6304020 148.1903410  36.0557391 116.3898115
 155.5811681  39.1170881 115.3239888 156.0472133  39.9498872 115.2500190
 156.0319181  38.6515862 116.0285146 145.5233516  47.1196752 124.0378133
 146.2242976  47.7533235 124.1907527 145.0528631  47.4611484 123.2773772
 153.6487912  45.4614702 112.3226040 153.9247756  45.3471296 113.2319914
 152.7792411  45.0632187 112.2838213 153.3234802  39.6741360 121.8630683
 152.6706252  39.9217267 121.2083136 153.7015182  38.8605498 121.5293160
 150.2841976  49.7101053 115.9658853 150.4664371  48.8922709 116.4286606
 151.1074962  49.9268745 115.5283743 150.6184142  48.6369238 113.2273902
 151.1471908  48.1261692 112.6144064 150.8812361  48.3211768 114.0919435
 141.1201234  46.6533107 120.9709235 141.7054671  45.9076795 121.1037140
 140.9226073  46.9637064 121.8545899 143.9739889  49.6884355 115.9871678
 143.3050265  50.1730482 115.5035718 143.8352759  49.9353575 116.9015056
 135.7118889  39.2238707 119.6913679 135.7502988  38.6902298 120.4850797
 135.2059182  38.6973913 119.0724656 148.1145158  51.7228098 122.5854336
 148.6663466  51.8859720 123.3503421 148.4551351  52.3132536 121.9134361
 143.0909651  34.0703248 123.1876221 143.1550978  34.9318079 122.7753619
 143.0276772  33.4577250 122.4548579 142.5661924  36.1426380 126.8349255
 143.1933963  35.7603458 127.4486779 141.7089843  35.9240582 127.2004948
 139.3427467  37.9502810 112.7667610 139.6380908  37.0413488 112.7134664
 138.4415502  37.9290549 112.4448612 151.2513545  49.6710074 119.5718018
 151.1264685  48.8699813 119.0628964 151.9092636  50.1656267 119.0831988
 142.8721714  36.0258806 118.7495159 142.1508299  36.6394774 118.6102632
 143.6614969  36.5616571 118.6711805 153.3148454  47.4719094 121.1997568
 152.3678789  47.3524445 121.1275895 153.6631227  46.5841592 121.2823830
 141.0715308  35.6316907 112.8906935 140.7428014  34.7514286 112.7082041
 141.4254679  35.5764576 113.7783324 150.3194887  47.2671810 117.4001921
 150.1719849  46.3388517 117.5809491 151.1448381  47.2891901 116.9158996
 144.1857131  35.9189877 113.2582413 144.5253204  36.4475798 112.5361021
 144.6329252  36.2570283 114.0340979 153.9229009  48.0900369 118.4866793
 154.8475556  47.8843230 118.3491245 153.7544312  47.8416770 119.3956135
 146.8800572  34.3026928 122.7085481 146.5397392  33.5034741 123.1106161
 146.1739578  34.6028639 122.1362314 147.5317044  31.3876240 121.1612804
 148.3543113  30.9136718 121.0391694 147.7755107  32.1666724 121.6611490
 146.1725278  34.4164499 111.4575706 146.8933641  34.7945751 110.9539422
 145.5490583  35.1353375 111.5610684 150.3156401  35.1209648 112.3934038
 150.5320016  36.0034285 112.0922866 149.8350468  34.7295861 111.6639680
 145.0555623  38.0795361 118.9704782 144.9100203  38.3935664 119.8629064
 144.5780826  38.6980261 118.4175681 146.9152006  35.0697909 119.0185672
 146.9013574  34.1739002 118.6817970 147.6324434  35.0768572 119.6523958
 148.7678136  35.5035249 121.0638799 148.5095914  36.4252320 121.0623130
 148.2363177  35.1065683 121.7539264 153.7124325  48.6086036 113.8428885
 153.8861203  48.0432459 113.0902737 154.2053216  49.4086931 113.6608375
 139.5301285  40.6200705 121.9092444 138.9854753  41.3960513 122.0412718
 140.4080635  40.9671510 121.7511565 146.3188902  33.9512289 114.2873242
 146.4404813  33.0228935 114.4864130 146.0290944  33.9650975 113.3751558
 149.1880092  31.6367199 117.4239962 149.2101789  31.7006533 116.4691942
 149.6048151  30.7971708 117.6180468 154.6999498  47.9252800 110.9425783
 155.3950402  48.5459493 111.1613098 155.0422648  47.0748152 111.2178161
 140.3167307  39.7470601 124.8022601 139.5749043  39.8953237 125.3887231
 139.9960051  40.0078867 123.9389350 148.2610969  49.2886580 124.6002991
 148.5698096  49.0435726 125.4725690 149.0586451  49.4933218 124.1121861
 148.2831581  51.4424489 116.8308367 147.8436572  50.9500868 117.5241224
 149.0339698  50.8997457 116.5900442 140.7623920  47.6336030 116.8332995
 141.5881940  47.3339802 116.4531639 140.4117972  46.8643653 117.2822784
 145.7305454  46.9862498 118.9030669 145.1085463  46.3233203 118.6032897
 146.4010320  47.0123630 118.2204317 138.9632525  45.5522357 117.7921929
 138.1264434  45.1244531 117.6105930 138.9356171  45.7454800 118.7292720
 145.2918960  45.5366422 112.3789129 145.4407081  46.2201886 111.7255802
 146.0985404  45.5171512 112.8938585 143.0471593  41.5631599 113.3850198
 142.8017635  40.6593929 113.5830408 143.2167508  41.5648750 112.4429676
 142.3167241  37.2959957 110.8836360 141.6236486  37.3704312 110.2276396
 142.0718993  36.5320301 111.4057877 148.7914366  48.0314552 109.8500877
 148.2188333  48.6504739 109.3971349 149.3647160  48.5813914 110.3840799
 152.0111626  48.3151702 110.9809459 152.9442299  48.2497264 111.1842335
 151.9234839  49.1507969 110.5223992 154.6399642  47.6317573 107.9413407
 154.5613274  47.2977436 108.8349164 155.4609309  48.1239341 107.9404879
 149.1761164  39.3675365 107.1916929 150.1220269  39.2381573 107.2605347
 148.7975409  38.6290027 107.6686357 147.3604082  37.2925341 107.1271814
 146.4535537  36.9958454 107.2034528 147.6380063  36.9955159 106.2606101
 138.2782022  38.6131705 117.5770861 137.9584806  37.7597013 117.2845235
 137.7315450  38.8280283 118.3328828 142.0561930  41.3294146 121.2940367
 142.2747939  42.2611254 121.3128401 142.4687703  40.9702120 122.0795171
 148.9766147  31.8362231 113.2816056 148.1666876  31.4909316 113.6571302
 149.6650564  31.5269775 113.8703667 150.9056696  30.9140278 114.9040352
 151.4587734  31.3335731 115.5630375 151.1426782  29.9876026 114.9463308
 146.1302866  34.1512277 107.2683794 146.9922030  34.4767175 107.5279611
 146.3153210  33.3643772 106.7556859 138.1470282  42.2334616 119.5463982
 137.4533753  41.8188569 119.0333937 138.8943273  42.2755153 118.9497401
 154.2835503  33.0240803 114.4119017 153.7034172  33.6825607 114.0297069
 154.0171435  32.2018148 114.0006434 152.7339069  32.4245861 116.6140337
 153.2338847  32.5362395 115.8054656 153.3774677  32.1206914 117.2541145
 140.0607025  42.1652870 117.4229997 140.0377713  42.2640557 116.4711880
 140.3707661  43.0118021 117.7447163 142.7194402  44.2229025 121.5376612
 143.6737656  44.1912967 121.4706543 142.5206926  43.7619649 122.3526838
 143.3093785  42.7930141 124.1047409 144.1286674  43.2874220 124.1282247
 143.5830592  41.8762109 124.0764977 153.0660381  35.1840893 113.4675365
 152.1786236  35.4690544 113.2495560 153.4814370  35.0234657 112.6202642
 141.0744631  49.7648644 118.5546810 140.9399099  49.0049045 117.9884808
 140.6576693  50.4889544 118.0875598 152.2103594  44.9485568 107.5623385
 152.9139444  45.1535571 108.1781041 151.4866243  45.5162330 107.8272468
 153.0401405  40.6995429 113.6825655 152.9836606  41.1563981 112.8433287
 153.5929747  39.9386114 113.5048498 144.2313757  50.6617962 118.7665252
 144.1146141  51.6063394 118.6643943 143.4106203  50.3591523 119.1551051
 154.1190292  45.3868097 109.6121845 154.9535896  44.9549296 109.4299320
 153.9574635  45.2150111 110.5398739 153.7736184  41.8900211 110.9778184
 153.7184988  41.7244482 110.0366628 153.1482239  42.5976243 111.1340374
 138.5628699  37.1268275 124.8039606 139.2087562  36.6167229 125.2926832
 138.3545850  37.8636957 125.3783032 147.0832309  31.3908320 110.5563503
 147.0710979  32.3350159 110.7131774 147.9755731  31.2078465 110.2622964
 145.2568271  51.3146223 121.9821181 146.1595518  51.3469834 122.2987676
 145.0305641  50.3846674 121.9967516 147.0121873  50.0677210 118.6431259
 146.0617504  50.0679072 118.5295632 147.3154359  49.3209945 118.1267294
 150.8984429  27.9851096 114.8109439 150.1316825  27.4309583 114.9566122
 151.3095134  28.0572965 115.6723591 155.4151089  57.7100653 115.6335437
 154.8515954  57.6190590 114.8651725 155.3003484  56.8900557 116.1137930
 152.9615521  59.2051844 118.4719658 153.7536813  58.8642669 118.0565957
 153.2012171  59.3146820 119.3921811 154.9206275  58.4660758 111.3437037
 155.6937151  57.9189745 111.2049912 155.2731673  59.3305007 111.5551498
 155.1693684  55.9312352 117.5790434 154.2444180  55.7988566 117.7868126
 155.4178097  56.7106572 118.0760376 152.5302495  55.5745626 118.4134223
 152.6594876  55.8280105 119.3273635 151.8499946  56.1673334 118.0938878
 155.6901781  58.2132415 119.2858330 156.2603138  58.6419684 118.6475814
 156.2809893  57.9315000 119.9842516 156.1826948  53.3795843 127.5319341
 155.5525608  54.0612124 127.7654738 156.0763036  53.2678924 126.5872479
 151.4771920  53.0467639 118.4585265 150.6870974  53.3025167 117.9825376
 151.9683168  53.8615977 118.5637306 153.4286666  53.4112218 115.4168742
 152.6317829  53.5230912 115.9352238 153.2012258  53.7498870 114.5509633
 149.7609623  53.2998129 120.8900256 150.0117662  54.1845139 121.1557832
 150.2969172  53.1202731 120.1175348 152.4269748  59.1200467 113.8058162
 152.9394269  59.9143717 113.9563727 153.0792461  58.4226757 113.7391764
 154.2364633  62.2366223 115.8880915 154.4131261  63.1584188 115.7001899
 155.0321467  61.9224642 116.3175295 153.5216990  54.2830855 125.7643078
 153.4070505  53.3816112 126.0650177 152.6661507  54.5294552 125.4127895
 155.3595949  63.7544397 121.8891258 155.9103374  63.6261460 121.1168252
 154.5207424  64.0539286 121.5386150 150.3918665  57.4489121 114.5817733
 151.2293887  57.8586129 114.3651440 150.5696933  56.5088563 114.5517927
 155.2534560  49.8101183 116.1060912 155.8278312  49.5876365 115.3734105
 155.8405542  49.8789878 116.8589514 155.5804147  51.8405645 110.1256798
 154.7441459  52.1780331 110.4466072 155.4408917  51.7054624 109.1883935
 150.4144836  54.7879836 115.2528466 150.2169236  54.1949197 114.5279533
 149.8591500  54.4832047 115.9704405 155.8247995  50.8698358 120.7474673
 156.4647374  50.7287117 120.0497636 154.9925525  50.5832872 120.3713275
 152.9091062  54.3143870 112.9369418 151.9788650  54.2528326 113.1539380
 153.0048534  53.7919823 112.1406059 152.8276611  50.8398683 115.5247660
 153.0883428  51.7544016 115.4156820 153.6493783  50.3723126 115.6744273
 154.3001536  52.2536440 122.6946484 154.9724590  52.0453802 122.0459133
 153.4731323  52.0558526 122.2551717 154.7029034  55.5279043 123.4548922
 154.5648832  54.7959282 124.0560461 155.6133957  55.4387943 123.1733109
 156.0440268  52.2264221 124.7628241 155.5077625  51.7754959 125.4149837
 155.4556977  52.3610129 124.0198705 154.3388812  68.9928270 118.6572899
 154.5785410  69.6246794 119.3351918 153.4958008  68.6416310 118.9438259
 155.4542527  51.6852872 107.3254704 154.5771994  51.5641673 106.9616951
 155.9300280  50.8938950 107.0733593 146.9744667  56.4730032 117.4196211
 147.6615707  56.1591762 116.8317227 146.8192796  57.3771396 117.1463463
 151.7779389  51.3620228 121.8481235 151.6937578  50.7545898 121.1131645
 150.9562096  51.8529247 121.8490731 151.9594989  61.9825025 120.9709235
 152.5448426  61.2368713 121.1037140 151.7619827  62.2928982 121.8545899
 154.8133644  65.0176272 115.9871678 154.1444019  65.5022400 115.5035718
 154.6746514  65.2645493 116.9015056 146.5512643  54.5530625 119.6913679
 146.5896743  54.0194216 120.4850797 146.0452936  54.0265831 119.0724656
 153.9303406  49.3995166 123.1876221 153.9944732  50.2609996 122.7753619
 153.8670526  48.7869167 122.4548579 153.4055678  51.4718298 126.8349255
 154.0327717  51.0895375 127.4486779 152.5483597  51.2532500 127.2004948
 150.1821221  53.2794727 112.7667610 150.4774662  52.3705406 112.7134664
 149.2809257  53.2582467 112.4448612 153.7115468  51.3550724 118.7495159
 152.9902054  51.9686691 118.6102632 154.5008724  51.8908489 118.6711805
 151.9109063  50.9608825 112.8906935 151.5821769  50.0806204 112.7082041
 152.2648433  50.9056494 113.7783324 155.0250886  51.2481795 113.2582413
 155.3646958  51.7767716 112.5361021 155.4723006  51.5862201 114.0340979
 155.8949377  53.4087278 118.9704782 155.7493958  53.7227581 119.8629064
 155.4174581  54.0272179 118.4175681 150.3695039  55.9492623 121.9092444
 149.8248507  56.7252431 122.0412718 151.2474389  56.2963427 121.7511565
 151.1561061  55.0762519 124.8022601 150.4142797  55.2245154 125.3887231
 150.8353805  55.3370785 123.9389350 151.6017675  62.9627948 116.8332995
 152.4275695  62.6631720 116.4531639 151.2511727  62.1935570 117.2822784
 149.8026280  60.8814274 117.7921929 148.9658188  60.4536449 117.6105930
 149.7749925  61.0746718 118.7292720 153.8865348  56.8923517 113.3850198
 153.6411390  55.9885847 113.5830408 154.0561262  56.8940667 112.4429676
 153.1560995  52.6251875 110.8836360 152.4630240  52.6996230 110.2276396
 152.9112747  51.8612218 111.4057877 149.1175777  53.9423622 117.5770861
 148.7978561  53.0888931 117.2845235 148.5709205  54.1572201 118.3328828
 152.8955684  56.6586063 121.2940367 153.1141694  57.5903171 121.3128401
 153.3081458  56.2994038 122.0795171 148.9864037  57.5626534 119.5463982
 148.2927508  57.1480487 119.0333937 149.7337028  57.6047070 118.9497401
 150.9000779  57.4944788 117.4229997 150.8771467  57.5932475 116.4711880
 151.2101416  58.3409938 117.7447163 153.5588157  59.5520943 121.5376612
 154.5131410  59.5204885 121.4706543 153.3600681  59.0911566 122.3526838
 154.1487539  58.1222059 124.1047409 154.9680428  58.6166137 124.1282247
 154.4224347  57.2054027 124.0764977 151.9138386  65.0940562 118.5546810
 151.7792854  64.3340963 117.9884808 151.4970448  65.8181462 118.0875598
 155.0707512  65.9909879 118.7665252 154.9539896  66.9355312 118.6643943
 154.2499958  65.6883441 119.1551051 149.4022453  52.4560193 124.8039606
 150.0481317  51.9459147 125.2926832 149.1939604  53.1928874 125.3783032
 132.6601304  15.3406557 105.3818206 132.8997902  15.9725081 106.0597224
 131.8170500  14.9894597 105.6683565 142.1221767  20.8822049 105.1964964
 142.9143059  20.5412874 104.7811264 142.3618418  20.9917024 106.1167118
 150.1556894  23.0541825  97.6695209 149.5044874  23.6395906  97.2829223
 150.9501257  23.5848020  97.7290246 144.0812521  20.1430963  98.0682343
 144.8543397  19.5959950  97.9295219 144.4337920  21.0075212  98.2796805
 145.9197564  21.4707345 111.2749243 145.6287430  22.3752976 111.1595909
 146.5554548  21.5123873 111.9893312 145.8608229  27.9213081 101.2370004
 145.7832258  28.8720906 101.3158484 145.2569872  27.5758953 101.8944930
 148.4198580  21.6127126 110.0896563 148.4843013  22.0747533 110.9254735
 147.7109504  20.9824491 110.2178873 148.1346598  23.2795234  99.9575544
 147.9992272  24.1246769 100.3860391 148.6756410  23.4814511  99.1941477
 141.5875995  20.7970672 100.5303469 142.1000516  21.5913922 100.6809033
 142.2398708  20.0996962 100.4637070 143.3970880  23.9136428 102.6126222
 143.5737508  24.8354393 102.4247206 144.1927713  23.5994847 103.0420602
 149.7615074  23.9018800 114.0875886 149.3178928  23.1155179 113.7696790
 150.4232288  24.0897951 113.4219777 144.5202195  25.4314602 108.6136564
 145.0709620  25.3031665 107.8413558 143.6813671  25.7309491 108.2631457
 151.8596312  24.1821600 112.1157287 151.8414788  25.0030481 111.6237556
 152.7816232  24.0575675 112.3407428 139.5524912  19.1259326 101.3063039
 140.3900134  19.5356334 101.0896747 139.7303180  18.1858768 101.2763233
 150.7342758  27.3529440  96.3931267 150.0604457  27.6561136  97.0016224
 151.1208580  28.1558520  96.0436724 152.6815119  24.1927613 102.6999556
 152.9738094  24.7532671 101.9811922 153.1913740  24.4856174 103.4552715
 147.6448744  24.9707965 103.7893009 147.6024923  25.1968811 102.8601541
 148.5611443  24.7371339 103.9378811 145.7614545  21.8470994 103.5854972
 146.5555144  21.3521314 103.3837547 145.0506238  21.3188857 103.2222678
 150.5809390  24.2289089 107.9367340 150.6346412  24.7980025 108.7045056
 149.7124171  24.3990974 107.5721377 148.3385821  22.4200016 107.2652809
 148.1996907  22.0518800 108.1378747 147.5500417  22.9347655 107.0936767
 148.9333973  27.5209112  98.6078346 149.1085729  27.0497155  99.4223968
 148.2466761  28.1474878  98.8359606 143.4995059  30.6698475 105.3818206
 143.7391657  31.3016999 106.0597224 142.6564255  30.3186515 105.6683565
 136.1350914  18.1500237 104.1441518 136.8221954  17.8361967 103.5562533
 135.9799043  19.0541601 103.8708770 148.0122920  26.4777597 107.7859710
 147.9393092  27.2832569 108.2979014 147.5700313  26.6769563 106.9607731
 147.8012700  25.7149367 101.2962531 147.0180222  26.2571047 101.3900756
 148.5005445  26.2323347 101.6956773 150.4721604  26.3764431 109.9417869
 151.1849576  27.0111896 109.8693770 149.9811633  26.4728297 109.1257870
 145.5233517  24.1258875 110.7623439 146.2242977  24.7595358 110.9152834
 145.0528632  24.4673606 110.0019079 150.2841977  26.7163175 102.6904160
 150.4664372  25.8984831 103.1531912 151.1074963  26.9330868 102.2529050
 150.6184143  25.6431360  99.9519209 151.1471909  25.1323815  99.3389371
 150.8812362  25.3273891 100.8164742 141.1201235  23.6595230 107.6954542
 141.7054672  22.9138918 107.8282446 140.9226074  23.9699186 108.5791206
 143.9739891  26.6946477 102.7116984 143.3050266  27.1792605 102.2281025
 143.8352760  26.9415698 103.6260363 148.1145159  28.7290221 109.3099643
 148.6663467  28.8921842 110.0748728 148.4551353  29.3194658 108.6379668
 151.2513547  26.6772196 106.2963325 151.1264686  25.8761936 105.7874270
 151.9092638  27.1718390 105.8077295 153.3148455  24.4781216 107.9242875
 152.3678790  24.3586567 107.8521202 153.6631228  23.5903714 108.0069137
 150.3194888  24.2733932 104.1247227 150.1719851  23.3450640 104.3054797
 151.1448382  24.2954023 103.6404303 153.9229010  25.0962491 105.2112100
 154.8475558  24.8905353 105.0736551 153.7544313  24.8478892 106.1201442
 153.7124326  25.6148159 100.5674192 153.8861204  25.0494581  99.8148044
 154.2053218  26.4149054 100.3853681 154.6999499  24.9314923  97.6671090
 155.3950403  25.5521616  97.8858404 155.0422649  24.0810274  97.9423468
 148.2610971  26.2948702 111.3248297 148.5698097  26.0497849 112.1970997
 149.0586453  26.4995341 110.8367167 148.2831583  28.4486612 103.5553674
 147.8436573  27.9562991 104.2486530 149.0339700  27.9059580 103.3145749
 140.7623922  24.6398153 103.5578302 141.5881942  24.3401925 103.1776945
 140.4117974  23.8705775 104.0068090 145.7305455  23.9924621 105.6275975
 145.1085464  23.3295326 105.3278203 146.4010322  24.0185753 104.9449623
 138.9632527  22.5584479 104.5167235 138.1264435  22.1306654 104.3351237
 138.9356172  22.7516923 105.4538027 145.2918962  22.5428544  99.1034436
 145.4407082  23.2264009  98.4501109 146.0985405  22.5233634  99.6183892
 148.7914367  25.0376675  96.5746183 148.2188334  25.6566862  96.1216655
 149.3647161  25.5876036  97.1086105 152.0111627  25.3213825  97.7054766
 152.9442300  25.2559387  97.9087641 151.9234840  26.1570092  97.2469298
 154.6399644  24.6379695  94.6658713 154.5613275  24.3039559  95.5594471
 155.4609311  25.1301463  94.6650186 138.1470283  19.2396739 106.2709289
 137.4533755  18.8250692 105.7579243 138.8943274  19.2817275 105.6742708
 140.0607026  19.1714993 104.1475304 140.0377714  19.2702680 103.1957187
 140.3707662  20.0180143 104.4692470 142.7194404  21.2291148 108.2621918
 143.6737657  21.1975090 108.1951850 142.5206927  20.7681771 109.0772144
 141.0744632  26.7710767 105.2792116 140.9399100  26.0111168 104.7130114
 140.6576695  27.4951667 104.8120905 144.2313758  27.6680084 105.4910559
 144.1146143  28.6125517 105.3889249 143.4106205  27.3653646 105.8796358
 145.2568272  28.3208346 108.7066487 146.1595519  28.3531956 109.0232982
 145.0305643  27.3908797 108.7212823 147.0121874  27.0739333 105.3676566
 146.0617506  27.0741194 105.2540938 147.3154361  26.3272067 104.8512601
 155.4151090  34.7162775 102.3580744 154.8515955  34.6252712 101.5897032
 155.3003485  33.8962680 102.8383237 152.9615522  36.2113967 105.1964964
 153.7536814  35.8704792 104.7811264 153.2012172  36.3208942 106.1167118
 154.9206276  35.4722880  98.0682343 155.6937152  34.9251867  97.9295219
 155.2731675  36.3367130  98.2796805 155.1693685  32.9374475 104.3035741
 154.2444181  32.8050689 104.5113432 155.4178098  33.7168694 104.8005683
 152.5302496  32.5807748 105.1379530 152.6594877  32.8342227 106.0518941
 151.8499947  33.1735456 104.8184185 155.6901783  35.2194538 106.0103637
 156.2603140  35.6481806 105.3721121 156.2809894  34.9377123 106.7087822
 156.1826949  30.3857965 114.2564648 155.5525610  31.0674246 114.4900045
 156.0763037  30.2741047 113.3117786 151.4771922  30.0529761 105.1830572
 150.6870976  30.3087290 104.7070683 151.9683169  30.8678099 105.2882613
 153.4286667  30.4174341 102.1414049 152.6317830  30.5293035 102.6597544
 153.2012259  30.7560993 101.2754939 149.7609625  30.3060252 107.6145563
 150.0117663  31.1907262 107.8803139 150.2969173  30.1264853 106.8420655
 152.4269750  36.1262589 100.5303469 152.9394270  36.9205840 100.6809033
 153.0792462  35.4288880 100.4637070 154.2364634  39.2428346 102.6126222
 154.4131263  40.1646310 102.4247206 155.0321468  38.9286765 103.0420602
 153.5216991  31.2892978 112.4888385 153.4070506  30.3878235 112.7895484
 152.6661509  31.5356674 112.1373202 155.3595950  40.7606519 108.6136564
 155.9103375  40.6323583 107.8413558 154.5207426  41.0601409 108.2631457
 150.3918666  34.4551244 101.3063039 151.2293888  34.8648252 101.0896747
 150.5696934  33.5150686 101.2763233 155.2534561  26.8163306 102.8306219
 155.8278313  26.5938488 102.0979412 155.8405544  26.8852001 103.5834820
 155.5804148  28.8467767  96.8502104 154.7441460  29.1842454  97.1711379
 155.4408918  28.7116747  95.9129241 150.4144838  31.7941959 101.9773773
 150.2169237  31.2011320 101.2524839 149.8591502  31.4894169 102.6949712
 155.8247996  27.8760481 107.4719980 156.4647375  27.7349240 106.7742943
 154.9925526  27.5894994 107.0958582 152.9091063  31.3205993  99.6614725
 151.9788651  31.2590448  99.8784687 153.0048535  30.7981946  98.8651366
 152.8276612  27.8460806 102.2492966 153.0883430  28.7606139 102.1402127
 153.6493785  27.3785248 102.3989579 154.3001538  29.2598563 109.4191791
 154.9724591  29.0515925 108.7704440 153.4731324  29.0620649 108.9797023
 154.7029035  32.5341166 110.1794228 154.5648833  31.8021405 110.7805767
 155.6133958  32.4450066 109.8978416 156.0440269  29.2326343 111.4873547
 155.5077627  28.7817082 112.1395144 155.4556978  29.3672252 110.7444012
 154.3388813  45.9990392 105.3818206 154.5785411  46.6308917 106.0597224
 153.4958009  45.6478432 105.6683565 155.4542528  28.6914995  94.0500011
 154.5771995  28.5703795  93.6862258 155.9300282  27.9001073  93.7978900
 146.9744669  33.4792154 104.1441518 147.6615708  33.1653884 103.5562533
 146.8192797  34.3833519 103.8708770 151.7779391  28.3682351 108.5726542
 151.6937579  27.7608020 107.8376952 150.9562097  28.8591369 108.5736038
 151.9594990  38.9887147 107.6954542 152.5448427  38.2430835 107.8282446
 151.7619828  39.2991104 108.5791206 154.8133645  42.0238395 102.7116984
 154.1444020  42.5084522 102.2281025 154.6746515  42.2707615 103.6260363
 146.5512645  31.5592748 106.4158985 146.5896744  31.0256338 107.2096103
 146.0452938  31.0327953 105.7969962 153.9303407  26.4057288 109.9121528
 153.9944734  27.2672119 109.4998925 153.8670527  25.7931290 109.1793886
 153.4055680  28.4780421 113.5594562 154.0327718  28.0957498 114.1732086
 152.5483598  28.2594623 113.9250254 150.1821222  30.2856850  99.4912917
 150.4774663  29.3767528  99.4379970 149.2809258  30.2644589  99.1693919
 153.7115469  28.3612846 105.4740465 152.9902055  28.9748814 105.3347939
 154.5008725  28.8970611 105.3957111 151.9109064  27.9670947  99.6152242
 151.5821770  27.0868326  99.4327348 152.2648435  27.9118616 100.5028631
 155.0250887  28.2543917  99.9827719 155.3646960  28.7829838  99.2606328
 155.4723008  28.5924323 100.7586286 155.8949378  30.4149401 105.6950089
 155.7493959  30.7289704 106.5874371 155.4174582  31.0334301 105.1420988
 150.3695041  32.9554745 108.6337750 149.8248509  33.7314553 108.7658025
 151.2474390  33.3025550 108.4756872 151.1561062  32.0824642 111.5267907
 150.4142799  32.2307277 112.1132538 150.8353807  32.3432907 110.6634657
 151.6017676  39.9690070 103.5578302 152.4275696  39.6693842 103.1776945
 151.2511728  39.1997693 104.0068090 149.8026281  37.8876397 104.5167235
 148.9658189  37.4598571 104.3351237 149.7749927  38.0808840 105.4538027
 153.8865349  33.8985640 100.1095505 153.6411391  32.9947970 100.3075715
 154.0561264  33.9002790  99.1674983 153.1560997  29.6313997  97.6081666
 152.4630242  29.7058352  96.9521702 152.9112749  28.8674341  98.1303183
 149.1175778  30.9485745 104.3016167 148.7978562  30.0951053 104.0090541
 148.5709206  31.1634323 105.0574135 152.8955685  33.6648186 108.0185674
 153.1141695  34.5965294 108.0373708 153.3081459  33.3056160 108.8040478
 148.9864038  34.5688656 106.2709289 148.2927509  34.1542609 105.7579243
 149.7337029  34.6109193 105.6742708 150.9000780  34.5006910 104.1475304
 150.8771468  34.5994598 103.1957187 151.2101417  35.3472061 104.4692470
 153.5588158  36.5583065 108.2621918 154.5131412  36.5267008 108.1951850
 153.3600682  36.0973689 109.0772144 154.1487540  35.1284181 110.8292716
 154.9680429  35.6228260 110.8527553 154.4224348  34.2116149 110.8010284
 151.9138387  42.1002685 105.2792116 151.7792855  41.3403086 104.7130114
 151.4970449  42.8243585 104.8120905 155.0707513  42.9972002 105.4910559
 154.9539897  43.9417434 105.3889249 154.2499959  42.6945563 105.8796358
 149.4022455  29.4622315 111.5284913 150.0481318  28.9521269 112.0172138
 149.1939606  30.1990997 112.1028338 154.3388814  23.0052515  92.1063513
 154.5785412  23.6371039  92.7842531 153.4958011  22.6540555  92.3928872
  74.2800606  76.7063542 164.0468673  73.6288586  77.2917622 163.6602686
  75.0744969  77.2369737 164.1063710  68.2056234  73.7952679 164.4455807
  68.9787110  73.2481666 164.3068683  68.5581632  74.6596928 164.6570268
  70.5422511  69.9545345 162.0774257  70.7948032  69.4326866 161.3157720
  69.6047071  69.7911491 162.1800940  75.7575872  74.3953974 164.5837657
  75.1221705  74.4688600 165.2958562  75.4273278  74.9847573 163.9056736
  70.2618800  71.8573451 164.2798632  70.1455058  71.1818354 164.9479716
  70.3721060  71.3705825 163.4630785  72.2455828  66.3473498 162.9806670
  72.4130230  67.2153734 163.3477141  72.0552997  66.5100780 162.0567959
  72.2245049  68.8031155 163.9653336  72.1044674  69.2488206 164.8038817
  71.5297637  69.1516473 163.4066875  69.9851941  81.5734797 167.6143468
  69.9075971  82.5242622 167.6931948  69.3813585  81.2280670 168.2718394
  77.9230115  69.2752628 164.7933670  78.8347971  69.5080015 164.6181368
  77.4139762  69.8589673 164.2308749  80.4088929  75.1932885 169.5391616
  79.7239967  75.5731786 168.9888649  80.4932779  75.8028211 170.2723563
  86.8691682  72.0603548 170.6594288  86.1155390  71.4910946 170.5038292
  87.0039223  72.0266212 171.6064923  72.2590310  76.9316950 166.3349007
  72.1235985  77.7768486 166.7633855  72.8000122  77.1336228 165.5714941
  75.5733056  70.4456123 163.3720336  75.0579680  71.2160728 163.6108723
  75.3010365  69.7721259 163.9953397  80.5467330  73.1988478 165.3073509
  79.7696773  72.8599637 164.8628672  81.2258811  73.2041101 164.6328474
  75.3619359  68.3183215 165.1980117  75.0569495  68.6329364 166.0490260
  76.3149802  68.3964635 165.2407450  73.8065791  74.4773438 166.8473071
  73.2787153  73.7426198 166.5346309  73.3053294  75.2548115 166.6013039
  71.9518391  72.2953649 159.8508044  71.0445453  72.0642902 160.0499193
  72.4489423  71.4991268 160.0382026  74.8586470  81.0051156 162.7704730
  74.1848169  81.3082853 163.3789688  75.2452292  81.8080236 162.4210187
  73.1306625  72.3966244 164.3732034  72.2217844  72.1125276 164.4704504
  73.1601709  72.8165322 163.5135341  78.3625892  76.0072833 168.1423202
  77.9088219  75.1663743 168.1988392  77.7319859  76.6434231 168.4797982
  76.8058832  77.8449330 169.0773020  77.0981806  78.4054387 168.3585386
  77.3157452  78.1377891 169.8326179  72.8282713  73.9374987 161.7120113
  72.3902143  73.2210846 161.2525750  73.5693154  74.1651102 161.1505204
  71.7692457  78.6229681 170.1666473  71.7268636  78.8490527 169.2375005
  72.6855156  78.3893055 170.3152274  80.9455827  72.2132184 167.7696431
  80.8073726  72.4033780 166.8417621  80.5892046  72.9751567 168.2264483
  73.0577686  81.1730828 164.9851809  73.2329441  80.7018871 165.7997432
  72.3710474  81.7996595 165.2133070  76.9493940  72.7959369 161.3052170
  76.3323111  72.0706197 161.2085223  76.4810429  73.5568729 160.9619245
  67.6238771  84.3220191 171.7591670  67.8635369  84.9538715 172.4370688
  66.7807967  83.9708231 172.0457029  68.7392486  67.0144793 160.4273475
  67.8621953  66.8933594 160.0635721  69.2150239  66.2230871 160.1752363
  71.9256412  79.3671084 167.6735995  71.1423934  79.9092764 167.7674220
  72.6249157  79.8845063 168.0730236  76.3182843  73.9337400 167.8908624
  75.3839122  74.0538863 167.7213328  76.4959512  73.0309867 167.6268634
  79.7055394  69.7754719 168.4258658  80.1715847  70.6082711 168.3518961
  80.1562895  69.3099701 169.1303917  77.7731626  76.1198541 165.4244810
  78.0491469  76.0055135 166.3338684  76.9036124  75.7216026 165.3856983
  74.4085690  80.3684892 169.0677624  74.5908084  79.5506548 169.5305376
  75.2318676  80.5852584 168.6302514  74.7427855  79.2953077 166.3292672
  75.2715621  78.7845531 165.7162834  75.0056075  78.9795607 167.1938205
  68.0983603  80.3468193 169.0890448  67.4293978  80.8314321 168.6054488
  67.9596473  80.5937414 170.0033827  75.3757259  80.3293912 172.6736789
  75.2508398  79.5283652 172.1647734  76.0336350  80.8240106 172.1850759
  74.4438601  77.9255649 170.5020691  74.2963563  76.9972356 170.6828261
  75.2692094  77.9475739 170.0177766  78.0472722  78.7484208 171.5885564
  78.9719270  78.5427069 171.4510015  77.8788026  78.5000609 172.4974905
  77.8368039  79.2669875 166.9447655  78.0104916  78.7016297 166.1921508
  78.3296930  80.0670770 166.7627145  83.6907430  72.0306298 168.5637955
  84.1338576  71.2813623 168.1657078  82.8133940  72.0216434 168.1811687
  78.8243211  78.5836639 164.0444554  79.5194116  79.2043332 164.2631868
  79.1666361  77.7331991 164.3196931  80.7234634  76.0336345 165.5731884
  81.2485958  76.3723618 164.8481204  80.6356987  75.0983360 165.3895019
  72.4075295  82.1008328 169.9327137  71.9680285  81.6084707 170.6259994
  73.1583412  81.5581296 169.6919213  69.4162674  76.1950261 165.4807900
  69.5650794  76.8785725 164.8274572  70.2229117  76.1755351 165.9957355
  83.2340294  73.5011536 170.9560403  84.0687186  73.9401340 171.1197963
  83.3699423  73.0250189 170.1368648  72.9158080  78.6898391 162.9519647
  72.3432047  79.3088578 162.4990119  73.4890873  79.2397753 163.4859569
  76.1355339  78.9735541 164.0828229  77.0686012  78.9081103 164.2861105
  76.0478552  79.8091808 163.6242762  78.7643356  78.2901412 161.0432177
  78.6856988  77.9561275 161.9367935  79.5853023  78.7823179 161.0423649
  73.3004878  70.0259204 160.2935700  74.2463983  69.8965412 160.3624118
  72.9219123  69.2873866 160.7705128  71.4847795  67.9509180 160.2290585
  70.5779251  67.6542293 160.3053298  71.7623776  67.6538998 159.3624871
  70.2546580  64.8096115 160.3702564  71.1165744  65.1351014 160.6298381
  70.4396924  64.0227611 159.8575630  76.3347308  75.6069407 160.6642155
  77.0383158  75.8119409 161.2799811  75.6109957  76.1746169 160.9291239
  77.1645118  71.3579268 166.7844425  77.1080319  71.8147820 165.9452058
  77.7173461  70.5969953 166.6067268  85.2862262  69.8865073 170.1165836
  84.7261820  69.9558263 170.8897398  84.6805765  69.7106058 169.3965333
  78.2434005  76.0451936 162.7140615  79.0779609  75.6133135 162.5318090
  78.0818348  75.8733950 163.6417510  77.8979897  72.5484049 164.0796955
  77.8428701  72.3828321 163.1385399  77.2725953  73.2560082 164.2359144
  71.1365587  80.7261049 171.7450030  70.1861218  80.7262910 171.6314402
  71.4398073  79.9793783 171.2286064  79.0449988  89.1244597 164.4455807
  79.8180864  88.5773584 164.3068683  79.3975387  89.9888846 164.6570268
  81.3816266  85.2837263 162.0774257  81.6341787  84.7618784 161.3157720
  80.4440825  85.1203408 162.1800940  81.1012555  87.1865369 164.2798632
  80.9848813  86.5110272 164.9479716  81.2114815  86.6997743 163.4630785
  83.0849583  81.6765415 162.9806670  83.2523985  82.5445652 163.3477141
  82.8946752  81.8392697 162.0567959  83.0638803  84.1323073 163.9653336
  82.9438429  84.5780124 164.8038817  82.3691392  84.4808391 163.4066875
  88.7623870  84.6044546 164.7933670  89.6741726  84.8371933 164.6181368
  88.2533517  85.1881590 164.2308749  81.8590300  85.4467925 166.2586902
  82.5614343  85.8988969 166.7260829  81.5270928  84.8051744 166.8866795
  75.6015634  83.7051478 171.5604036  74.8114688  83.9609006 171.0844146
  76.0926881  84.5199816 171.6656076  77.5530379  84.0696057 168.5187512
  76.7561542  84.1814751 169.0371008  77.3255971  84.4082709 167.6528403
  76.5513462  89.7784306 166.9076932  77.0637982  90.5727556 167.0582497
  77.2036175  89.0810596 166.8410534  74.5162379  88.1072960 167.6836503
  75.3537601  88.5169968 167.4670211  74.6940646  87.1672402 167.6536697
  86.4126811  85.7748041 163.3720336  85.8973434  86.5452645 163.6108723
  86.1404119  85.1013177 163.9953397  83.9973922  80.6197741 168.4305574
  83.1415518  80.2304592 168.2511213  84.4100874  80.6989702 167.5705360
  81.7715954  78.2382814 171.8363316  82.6368951  78.0425623 171.4769205
  81.8393463  78.0093166 172.7632673  86.2013114  83.6475133 165.1980117
  85.8963250  83.9621282 166.0490260  87.1543556  83.7256553 165.2407450
  79.3778273  80.4685022 169.2079683  79.9522025  80.2460204 168.4752876
  79.9649256  80.5373717 169.9608284  79.7047861  82.4989483 163.2275568
  78.8685173  82.8364170 163.5484843  79.5652630  82.3638463 162.2902705
  81.6800941  77.3426271 167.9354752  81.0265353  77.0275288 167.3111367
  81.6381415  76.7202012 168.6614575  82.7912146  87.6245566 159.8508044
  81.8839208  87.3934820 160.0499193  83.2883178  86.8283186 160.0382026
  83.9700379  87.7258161 164.3732034  83.0611599  87.4417194 164.4704504
  83.9995463  88.1457240 163.5135341  88.2464194  75.0432989 169.9665639
  88.5523071  74.1830352 169.6791554  88.9716799  75.6350609 169.7664632
  74.5388550  85.4463675 168.3547236  74.3412950  84.8533036 167.6298303
  73.9835214  85.1415886 169.0723175  83.6676467  89.2666905 161.7120113
  83.2295897  88.5502764 161.2525750  84.4086908  89.4943020 161.1505204
  80.4577633  83.9563842 168.2332208  79.6445499  84.2558012 168.6397401
  80.9536628  83.5619530 168.9506691  77.0334775  84.9727709 166.0388189
  76.1032364  84.9112165 166.2558151  77.1292247  84.4503662 165.2424830
  76.9520325  81.4982522 168.6266430  77.2127142  82.4127855 168.5175591
  77.7737497  81.0306965 168.7763043  87.7887695  88.1251287 161.3052170
  87.1716865  87.3998115 161.2085223  87.3204183  88.8860647 160.9619245
  79.5786241  82.3436711 160.4273475  78.7015707  82.2225512 160.0635721
  80.0543994  81.5522789 160.1752363  71.0988381  87.1313871 170.5214982
  71.7859421  86.8175601 169.9335997  70.9436510  88.0355235 170.2482233
  86.0746817  80.5057631 170.3170201  86.5715516  79.7527593 169.9971271
  85.3033798  80.5421947 169.7513410  82.6581786  82.6475014 170.0441885
  82.2879573  82.0946054 170.7322791  83.1540878  82.0433147 169.4916885
  70.6756357  85.2114464 172.7932449  70.7140457  84.6778055 173.5869567
  70.1696650  84.6849669 172.1743426  74.3064935  83.9378566 165.8686380
  74.6018376  83.0289245 165.8153434  73.4052970  83.9166306 165.5467383
  77.8359182  82.0134563 171.8513929  77.1145767  82.6270530 171.7121402
  78.6252437  82.5492327 171.7730575  76.0352776  81.6192664 165.9925706
  75.7065482  80.7390043 165.8100811  76.3892147  81.5640332 166.8802095
  79.1494599  81.9065634 166.3601183  79.4890672  82.4351555 165.6379792
  79.5966720  82.2446040 167.1359750  81.1362746  80.4040255 164.5594476
  81.8571109  80.7821508 164.0558193  80.5128051  81.1229132 164.6629454
  85.2793869  81.1085404 165.4952808  85.4957484  81.9910042 165.1941636
  84.7987936  80.7171618 164.7658450  81.2826370  79.9388046 167.3892013
  81.4042281  79.0104692 167.5882900  80.9928412  79.9526732 166.4770328
  84.1517560  77.6242956 170.5258732  84.1739257  77.6882289 169.5710712
  84.5685619  76.7847465 170.7199239  80.2556428  91.5242178 165.4807900
  80.4044549  92.2077643 164.8274572  81.0622872  91.5047268 165.9957355
  78.0109061  87.5507356 166.4868969  77.7655103  86.6469686 166.6849179
  78.1804976  87.5524506 165.5448447  77.2804709  83.2835714 163.9855130
  76.5873954  83.3580068 163.3295166  77.0356461  82.5196057 164.5076647
  85.9518366  74.8431315 171.3894621  86.2320119  74.1754504 172.0155047
  86.7368972  75.0360410 170.8769285  84.1398633  85.3551122 160.2935700
  85.0857737  85.2257330 160.3624118  83.7612877  84.6165783 160.7705128
  82.3241550  83.2801098 160.2290585  81.4173005  82.9834211 160.3053298
  82.6017531  82.9830916 159.3624871  73.2419490  84.6007461 170.6789631
  72.9222274  83.7472769 170.3864005  72.6952918  84.8156039 171.4347599
  83.9403615  77.8237988 166.3834826  83.1304344  77.4785073 166.7590072
  84.6288032  77.5145531 166.9722438  85.8694164  76.9016034 168.0059123
  86.4225202  77.3211488 168.6649146  86.1064250  75.9751783 168.0482079
  81.0940334  80.1388033 160.3702564  81.9559498  80.4642931 160.6298381
  81.2790678  79.3519529 159.8575630  89.2472971  79.0116560 167.5137787
  88.6671640  79.6701364 167.1315839  88.9808903  78.1893904 167.1025205
  87.6976537  78.4121617 169.7159107  88.1976316  78.5238152 168.9073426
  88.3412145  78.1082670 170.3559916  88.0297849  81.1716650 166.5694135
  87.1423704  81.4566301 166.3514330  88.4451838  81.0110413 165.7221412
  87.1741062  90.9361325 160.6642155  87.8776912  91.1411327 161.2799811
  86.4503711  91.5038087 160.9291239  88.7373652  87.8775967 164.0796955
  88.6822456  87.7120239 163.1385399  88.1119707  88.5852000 164.2359144
  82.0469777  77.3784076 163.6582273  82.0348447  78.3225916 163.8150544
  82.9393199  77.1954222 163.3641734  85.8621897  73.9726853 167.9128210
  85.0954293  73.4185339 168.0584892  86.2732602  74.0448722 168.7742361
  74.2800608  53.7125664 150.7713979  73.6288587  54.2979745 150.3847993
  75.0744971  54.2431859 150.8309017  68.2056235  50.8014802 151.1701114
  68.9787111  50.2543789 151.0313989  68.5581634  51.6659051 151.3815575
  70.5422513  46.9607468 148.8019564  70.7948033  46.4388989 148.0403027
  69.6047072  46.7973613 148.9046247  75.7575873  51.4016096 151.3082964
  75.1221706  51.4750723 152.0203868  75.4273279  51.9909695 150.6302043
  70.2618801  48.8635574 151.0043938  70.1455060  48.1880477 151.6725023
  70.3721061  48.3767948 150.1876092  72.2455829  43.3535620 149.7051976
  72.4130232  44.2215857 150.0722447  72.0552998  43.5162902 148.7813265
  72.2245050  45.8093278 150.6898643  72.1044675  46.2550329 151.5284123
  71.5297639  46.1578596 150.1312181  69.9851942  58.5796920 154.3388774
  69.9075972  59.5304745 154.4177255  69.3813586  58.2342792 154.9963701
  77.9230116  46.2814751 151.5178977  78.8347972  46.5142138 151.3426675
  77.4139763  46.8651795 150.9554056  80.4088931  52.1995007 156.2636922
  79.7239969  52.5793909 155.7133956  80.4932780  52.8090334 156.9968870
  86.8691683  49.0665670 157.3839595  86.1155392  48.4973068 157.2283599
  87.0039224  49.0328335 158.3310229  72.2590311  53.9379073 153.0594314
  72.1235986  54.7830608 153.4879162  72.8000124  54.1398350 152.2960248
  75.5733058  47.4518246 150.0965643  75.0579681  48.2222850 150.3354030
  75.3010366  46.7783382 150.7198704  80.5467332  50.2050600 152.0318816
  79.7696774  49.8661760 151.5873978  81.2258813  50.2103223 151.3573781
  75.3619361  45.3245338 151.9225424  75.0569496  45.6391487 152.7735567
  76.3149803  45.4026758 151.9652757  73.8065793  51.4835561 153.5718378
  73.2787154  50.7488321 153.2591615  73.3053295  52.2610237 153.3258346
  71.9518393  49.3015771 146.5753351  71.0445454  49.0705025 146.7744500
  72.4489425  48.5053391 146.7627332  74.8586472  58.0113278 149.4950037
  74.1848170  58.3144975 150.1034995  75.2452294  58.8142359 149.1455494
  73.1306626  49.4028366 151.0977341  72.2217845  49.1187399 151.1949811
  73.1601710  49.8227445 150.2380648  78.3625894  53.0134956 154.8668508
  77.9088221  52.1725866 154.9233699  77.7319860  53.6496354 155.2043289
  76.8058833  54.8511452 155.8018327  77.0981807  55.4116509 155.0830692
  77.3157453  55.1440013 156.5571486  72.8282714  50.9437110 148.4365419
  72.3902144  50.2272969 147.9771057  73.5693155  51.1713225 147.8750511
  71.7692458  55.6291803 156.8911780  71.7268637  55.8552650 155.9620312
  72.6855157  55.3955178 157.0397581  80.9455829  49.2194307 154.4941738
  80.8073727  49.4095903 153.5662927  80.5892048  49.9813690 154.9509789
  73.0577687  58.1792951 151.7097116  73.2329442  57.7080994 152.5242739
  72.3710475  58.8058717 151.9378377  76.9493942  49.8021491 148.0297477
  76.3323112  49.0768320 147.9330530  76.4810430  50.5630852 147.6864551
  67.6238772  61.3282314 158.4836976  67.8635370  61.9600838 159.1615995
  66.7807969  60.9770354 158.7702336  68.7392488  44.0206916 147.1518781
  67.8621954  43.8995717 146.7881028  69.2150241  43.2292994 146.8997670
  71.9256414  56.3733206 154.3981302  71.1423935  56.9154886 154.4919526
  72.6249159  56.8907186 154.7975543  76.3182844  50.9399523 154.6153931
  75.3839123  51.0600985 154.4458635  76.4959513  50.0371990 154.3513940
  79.7055396  46.7816842 155.1503965  80.1715848  47.6144834 155.0764267
  80.1562896  46.3161824 155.8549223  77.7731627  53.1260663 152.1490117
  78.0491471  53.0117258 153.0583991  76.9036126  52.7278148 152.1102290
  74.4085691  57.3747014 155.7922930  74.5908085  56.5568670 156.2550683
  75.2318677  57.5914706 155.3547820  74.7427856  56.3015199 153.0537979
  75.2715623  55.7907654 152.4408141  75.0056076  55.9857730 153.9183512
  68.0983604  57.3530316 155.8135755  67.4293980  57.8376444 155.3299795
  67.9596474  57.5999536 156.7279133  75.3757260  57.3356035 159.3982095
  75.2508400  56.5345775 158.8893041  76.0336351  57.8302228 158.9096065
  74.4438602  54.9317771 157.2265998  74.2963564  54.0034479 157.4073568
  75.2692095  54.9537862 156.7423073  78.0472724  55.7546330 158.3130870
  78.9719271  55.5489191 158.1755322  77.8788027  55.5062731 159.2220212
  77.8368040  56.2731998 153.6692962  78.0104917  55.7078420 152.9166814
  78.3296931  57.0732892 153.4872452  83.6907431  49.0368421 155.2883262
  84.1338577  48.2875746 154.8902385  82.8133941  49.0278557 154.9056994
  78.8243212  55.5898762 150.7689860  79.5194117  56.2105455 150.9877175
  79.1666362  54.7394113 151.0442238  80.7234635  53.0398468 152.2977191
  81.2485960  53.3785740 151.5726511  80.6356988  52.1045483 152.1140326
  72.4075296  59.1070451 156.6572444  71.9680286  58.6146829 157.3505301
  73.1583413  58.5643418 156.4164519  69.4162675  53.2012383 152.2053206
  69.5650796  53.8847848 151.5519879  70.2229119  53.1817473 152.7202662
  83.2340296  50.5073659 157.6805709  84.0687187  50.9463463 157.8443270
  83.3699425  50.0312312 156.8613955  72.9158081  55.6960514 149.6764954
  72.3432048  56.3150701 149.2235426  73.4890874  56.2459875 150.2104876
  76.1355341  55.9797664 150.8073536  77.0686014  55.9143225 151.0106412
  76.0478553  56.8153931 150.3488069  78.7643357  55.2963534 147.7677484
  78.6856989  54.9623398 148.6613242  79.5853024  55.7885302 147.7668956
  73.3004879  47.0321326 147.0181006  74.2463984  46.9027535 147.0869424
  72.9219124  46.2935988 147.4950434  71.4847796  44.9571303 146.9535891
  70.5779252  44.6604416 147.0298605  71.7623777  44.6601121 146.0870178
  70.2546581  41.8158238 147.0947871  71.1165745  42.1413136 147.3543688
  70.4396925  41.0289734 146.5820936  76.3347309  52.6131530 147.3887462
  77.0383159  52.8181532 148.0045118  75.6109958  53.1808291 147.6536545
  77.1645119  48.3641391 153.5089732  77.1080321  48.8209942 152.6697364
  77.7173462  47.6032075 153.3312575  85.2862263  46.8927196 156.8411143
  84.7261821  46.9620385 157.6142705  84.6805766  46.7168181 156.1210639
  78.2434006  53.0514059 149.4385922  79.0779610  52.6195257 149.2563397
  78.0818349  52.8796072 150.3662816  77.8979899  49.5546172 150.8042261
  77.8428702  49.3890443 149.8630705  77.2725954  50.2622205 150.9604451
  71.1365588  57.7323171 158.4695336  70.1861219  57.7325033 158.3559709
  71.4398074  56.9855906 157.9531371  86.8718282  63.5683710 159.5341099
  87.5096691  63.4490457 158.8304439  86.7539124  64.5164554 159.5929051
  83.6807988  63.5211138 159.4702623  83.3426499  63.4052203 158.5823158
  84.5497756  63.1202303 159.4503630  79.5394803  65.3746614 155.4599514
  78.9759669  65.2836551 154.6915802  79.4247199  64.5546519 155.9402007
  84.1627771  64.6745990 165.4288829  84.1516412  64.2798788 164.5569333
  84.3248410  63.9412062 166.0222600  77.0859235  66.8697806 158.2983735
  77.8780527  66.5288631 157.8830034  77.3255886  66.9792781 159.2185888
  85.1194362  69.0417582 150.7713979  84.4682342  69.6271662 150.3847993
  85.9138725  69.5723777 150.8309017  79.0449989  66.1306719 151.1701114
  79.8180865  65.5835706 151.0313989  79.3975388  66.9950969 151.3815575
  80.8835032  67.4583101 164.3768013  80.5924898  68.3628732 164.2614679
  81.5192016  67.4999629 165.0912082  81.8091239  64.8359950 160.9669373
  82.4054811  64.6115972 160.2526335  81.8666210  64.0944695 161.5694820
  81.3816267  62.2899385 148.8019564  81.6341788  61.7680907 148.0403027
  80.4440826  62.1265531 148.9046247  86.4259550  61.2935164 156.6094307
  87.2122639  60.8754587 156.2584724  86.6898254  62.1981256 156.7775955
  86.5969627  66.7308014 151.3082964  85.9615460  66.8042641 152.0203868
  86.2667034  67.3201613 150.6302043  91.8267977  61.2310397 157.5127285
  92.5593149  60.6609614 157.7465115  91.0707333  60.8431997 157.9533791
  81.1012556  64.1927491 151.0043938  80.9848814  63.5172395 151.6725023
  81.2114816  63.7059865 150.1876092  83.4444097  63.6537638 154.7090628
  83.0802304  63.1268259 155.4203549  84.3011213  63.2636107 154.5357113
  89.3493397  54.9431971 161.9721894  89.0176722  55.8127382 161.7483109
  88.7539011  54.6268255 162.6515924  83.0849584  58.6827538 149.7051976
  83.2523986  59.5507774 150.0722447  82.8946753  58.8454820 148.7813265
  85.8424917  67.1444517 161.3717807  85.5425640  68.0469556 161.2633614
  85.4975977  66.8776700 162.2238959  79.2937398  63.5958314 157.4054511
  78.3687895  63.4634528 157.6132203  79.5421812  64.3752533 157.9024453
  89.2422061  59.6627057 159.0515244  88.3338938  59.5942466 158.7574005
  89.1909657  60.1399002 159.8797069  83.0638805  61.1385196 150.6898643
  82.9438430  61.5842246 151.5284123  82.3691393  61.4870513 150.1312181
  76.6546210  63.2391587 158.2398300  76.7838591  63.4926066 159.1537712
  75.9743661  63.8319295 157.9202955  80.8245697  73.9088837 154.3388774
  80.7469727  74.8596662 154.4177255  80.2207340  73.5634710 154.9963701
  91.1083707  57.8643496 160.8293118  90.4658087  58.1576029 160.1832912
  90.6038636  57.7496416 161.6346315  88.7623871  61.6106669 151.5178977
  89.6741727  61.8434056 151.3426675  88.2533518  62.1943713 150.9554056
  81.5709299  63.8902156 166.5568108  82.3123983  64.4287200 166.2802932
  80.8646284  64.5168445 166.7139660  87.0464639  66.0331297 165.1540270
  87.4547995  65.5913707 164.4094902  86.3241900  65.4583924 165.4074463
  83.3995709  60.9703903 162.5273827  84.2456904  61.3943317 162.6708476
  83.3394346  60.3137528 163.2212390  87.3693453  66.5932487 158.9092559
  86.7402316  66.7578201 158.2068626  86.9819115  67.0074097 159.6803523
  91.2482685  67.5286925 156.2636922  90.5633723  67.9085826 155.7133956
  91.3326534  68.1382252 156.9968870  86.5495154  58.6308272 164.1855000
  86.3056086  59.3850332 163.6489276  86.8255084  59.0093619 165.0202247
  88.5033617  65.1746884 162.8632266  88.7150512  65.8178644 162.1866647
  88.4563365  64.3409201 162.3954196  86.1059846  57.7864705 159.7668838
  85.2444325  58.0845958 160.0585576  86.1322280  58.0035104 158.8349871
  82.9221415  66.3306895 156.1742644  83.3859761  66.6094598 155.3847266
  82.6578213  65.4290340 155.9915734  79.8145496  65.8778377 159.1122407
  80.3846853  66.3065645 158.4739891  80.4053608  65.5960962 159.8106593
  81.8590301  62.4530048 152.9832209  82.5614344  62.9051091 153.4506135
  81.5270930  61.8113867 153.6112102  75.6015635  60.7113600 158.2849342
  74.8114689  60.9671129 157.8089453  76.0926882  61.5261938 158.3901383
  89.6179445  68.0518840 161.0354623  90.4396888  67.6499027 160.7537305
  89.6141848  67.9487074 161.9870739  77.5530380  61.0758180 155.2432819
  76.7561544  61.1876874 155.7616315  77.3255973  61.4144832 154.3773710
  83.3836048  67.6002883 163.1915334  83.4480481  68.0623290 164.0273506
  82.6746972  66.9700248 163.3197644  73.8853338  60.9644091 160.7164333
  74.1361376  61.8491101 160.9821909  74.4212886  60.7848692 159.9439425
  97.7085438  64.3957588 157.3839595  96.9549146  63.8264986 157.2283599
  97.8432979  64.3620252 158.3310229  83.0984066  69.2670990 153.0594314
  82.9629741  70.1122526 153.4879162  83.6393878  69.4690268 152.2960248
  76.5513463  66.7846428 153.6322239  77.0637984  67.5789679 153.7827804
  77.2036176  66.0872719 153.5655841  78.3608348  69.9012185 155.7144992
  78.5374976  70.8230149 155.5265976  79.1565181  69.5870604 156.1439372
  84.7252542  69.8894557 167.1894656  84.2816396  69.1030935 166.8715561
  85.3869756  70.0773707 166.5238547  79.4839663  71.4190358 161.7155335
  80.0347088  71.2907422 160.9432329  78.6451139  71.7185247 161.3650227
  86.8233780  70.1697357 165.2176057  86.8052256  70.9906238 164.7256327
  87.7453700  70.0451432 165.4426199  83.2806834  67.6841486 166.0599566
  83.8135171  66.9229774 165.8298874  82.7520915  67.3915138 166.8023720
  86.4476529  52.7901552 161.5893207  86.1040799  53.6803194 161.5132318
  86.8155492  52.6003210 160.7262792  74.5162380  65.1135083 154.4081810
  75.3537602  65.5232091 154.1915517  74.6940648  64.1734525 154.3782004
  86.4126812  62.7810163 150.0965643  85.8973435  63.5514768 150.3354030
  86.1404120  62.1075299 150.7198704  83.9973923  57.6259864 155.1550881
  83.1415519  57.2366714 154.9756520  84.4100875  57.7051825 154.2950667
  85.5273070  55.1606207 159.5542441  85.0237865  55.1236343 158.7410246
  85.8203677  56.0698950 159.6139097  81.7715956  55.2444937 158.5608622
  82.6368952  55.0487746 158.2014512  81.8393464  55.0155289 159.4877979
  91.3861086  65.5342518 152.0318816  90.6090529  65.1953677 151.5873978
  92.0652567  65.5395141 151.3573781  86.2013115  60.6537255 151.9225424
  85.8963251  60.9683405 152.7735567  87.1543557  60.7318675 151.9652757
  84.6459547  66.8127479 153.5718378  84.1180909  66.0780238 153.2591615
  84.1447050  67.5902155 153.3258346  89.6252393  65.0076499 158.6885424
  88.9676068  65.6975761 158.7765553  90.4292792  65.3972931 159.0319410
  79.3778275  57.4747145 155.9324989  79.9522027  57.2522326 155.1998182
  79.9649257  57.5435839 156.6853591  88.4357852  63.3620872 156.7389366
  88.9489734  63.9950864 157.2411076  89.0859076  62.7622067 156.3732726
  79.7047862  59.5051606 149.9520875  78.8685174  59.8426293 150.2730149
  79.5652631  59.3700586 149.0148012  81.6800942  54.3488394 154.6600059
  81.0265355  54.0337411 154.0356673  81.6381417  53.7264134 155.3859882
  82.7912147  64.6307689 146.5753351  81.8839209  64.3996942 146.7744500
  83.2883179  63.8345308 146.7627332  85.6980226  73.3405196 149.4950037
  85.0241925  73.6436893 150.1034995  86.0846048  74.1434276 149.1455494
  84.9138683  60.8370327 158.9847706  83.9961244  61.0585274 158.8269394
  85.3298826  60.9116638 158.1259414  85.6973730  62.2361743 154.1150387
  86.4445549  62.7483140 153.8057509  85.9665320  61.9145796 154.9754780
  83.9700381  64.7320284 151.0977341  83.0611600  64.4479317 151.1949811
  83.9995464  65.1519362 150.2380648  89.2019648  68.3426873 154.8668508
  88.7481975  67.5017783 154.9233699  88.5713615  68.9788272 155.2043289
  88.1452568  59.2718859 156.0969176  87.4075324  58.7596246 156.4279418
  88.3979341  58.8319241 155.2852453  87.6452587  70.1803370 155.8018327
  87.9375562  70.7408427 155.0830692  88.1551208  70.4731931 156.5571486
  88.2464195  52.0495111 156.6910945  88.5523072  51.1892475 156.4036860
  88.9716800  52.6412732 156.4909939  74.5388551  62.4525798 155.0792543
  74.3412951  61.8595159 154.3543610  73.9835215  62.1478008 155.7968482
  82.5185275  62.3448904 157.1987136  82.5733884  61.3922741 157.1229613
  81.7076477  62.5008344 157.6828435  83.6676468  66.2729028 148.4365419
  83.2295898  65.5564886 147.9771057  84.4086909  66.5005142 147.8750511
  80.4577635  60.9625964 154.9577515  79.6445500  61.2620135 155.3642707
  80.9536629  60.5681653 155.6751997  82.6086213  70.9583721 156.8911780
  82.5662391  71.1844567 155.9620312  83.5248911  70.7247096 157.0397581
  86.0551846  61.4267789 163.7892409  86.4101234  61.6539262 164.6486875
  86.7023978  61.7586165 163.1669664  91.7849583  64.5486225 154.4941738
  91.6467482  64.7387821 153.5662927  91.4285802  65.3105607 154.9509789
  79.9491709  58.5344320 160.5738750  80.5891089  58.3933079 159.8761713
  79.1169240  58.2478833 160.1977352  91.8118963  66.6162752 159.5053010
  92.2455470  66.5238041 160.3536064  92.5250544  66.5920252 158.8673026
  80.7252013  67.8346750 156.6873743  81.5192612  67.3397070 156.4856317
  80.0143706  67.3064613 156.3241448  85.5446858  70.2164846 161.0386110
  85.5983880  70.7855782 161.8063826  84.6761639  70.3866731 160.6740147
  77.0334777  61.9789832 152.7633495  76.1032365  61.9174287 152.9803457
  77.1292249  61.4565785 151.9670136  76.9520326  58.5044645 155.3511737
  77.2127143  59.4189978 155.2420897  77.7737498  58.0369087 155.5008350
  78.4245251  59.9182402 162.5210561  79.0968305  59.7099764 161.8723210
  77.5975038  59.7204488 162.0815794  92.6734512  66.6586452 162.0385895
  92.8670402  67.5632263 162.2845170  92.5735131  66.1993871 162.8724480
  87.7349621  66.8093195 167.6126776  87.5835128  66.5803747 166.6956859
  87.7254301  67.7663796 167.6258121  84.5034957  64.3825108 162.5973042
  85.4327018  64.5336267 162.4242009  84.0825988  64.4709128 161.7421689
  83.3023289  68.4075772 160.3671580  83.1634375  68.0394557 161.2397518
  82.5137886  68.9223412 160.1955537  83.8971441  73.5084869 151.7097116
  84.0723197  73.0372912 152.5242739  83.2104229  74.1350635 151.9378377
  84.8528504  67.7857375 157.7560417  84.5178337  67.7458145 158.6518067
  84.3532450  67.1202091 157.2830828  78.8272748  63.1925005 163.2812999
  78.6892546  62.4605244 163.8824538  79.7377672  63.1033905 162.9997186
  87.7887696  65.1313409 148.0297477  87.1716867  64.4060237 147.9330530
  87.3204185  65.8922769 147.6864551  81.4555049  62.9044964 162.7696678
  82.1654668  62.2638156 162.7283297  81.4124357  63.1557859 163.6922859
  89.4441828  69.8412317 165.6903257  89.3854374  69.1571538 165.0233840
  89.8461346  70.5831308 165.2383883  78.4632527  76.6574231 158.4836976
  78.7029125  77.2892756 159.1615995  77.6201723  76.3062271 158.7702336
  79.5786242  59.3498833 147.1518781  78.7015708  59.2287634 146.7881028
  80.0543995  58.5584912 146.8997670  89.4459235  67.8051901 163.9217237
  88.5586014  67.4677823 164.0443636  90.0157786  67.0734933 164.1586002
  71.0988382  64.1375993 157.2460288  71.7859422  63.8237723 156.6581304
  70.9436511  65.0417358 156.9727540  82.9760388  72.4653354 160.8878480
  82.9030560  73.2708325 161.3997785  82.5337782  72.6645320 160.0626502
  82.7650168  71.7025124 154.3981302  81.9817690  72.2446804 154.4919526
  83.4642913  72.2199103 154.7975543  86.0746818  57.5119753 157.0415507
  86.5715518  56.7589716 156.7216577  85.3033800  57.5484070 156.4758717
  93.9276576  63.2160119 158.6833799  93.9166452  64.0984834 158.3127732
  93.0593955  62.8631670 158.4888336  85.4359072  72.3640188 163.0436639
  86.1487044  72.9987653 162.9712540  84.9449101  72.4604054 162.2276641
  87.1576599  66.2691440 154.6153931  86.2232878  66.3892903 154.4458635
  87.3353267  65.3663907 154.3513940  82.6581787  59.6537136 156.7687192
  82.2879574  59.1008177 157.4568097  83.1540879  59.0495270 156.2162192
  90.5449150  62.1108760 155.1503965  91.0109602  62.9436751 155.0764267
  90.9956651  61.6453741 155.8549223  80.4870985  70.1134631 163.8642210
  81.1880445  70.7471114 164.0171604  80.0166100  70.4549363 163.1037849
  88.6125381  68.4552581 152.1490117  88.8885225  68.3409176 153.0583991
  87.7429880  68.0570066 152.1102290  88.5165813  54.4789347 159.1894866
  87.6028893  54.7093574 159.3577073  88.9458914  54.5627791 160.0408898
  88.2872271  62.6679239 161.6894760  87.6343722  62.9155146 161.0347213
  88.6652651  61.8543377 161.3557237  85.2479445  72.7038932 155.7922930
  85.4301840  71.8860588 156.2550683  86.0712431  72.9206624 155.3547820
  85.5821611  71.6307117 153.0537979  86.1109377  71.1199572 152.4408141
  85.8449830  71.3149647 153.9183512  76.0838704  69.6470986 160.7973312
  76.6692140  68.9014674 160.9301217  75.8863542  69.9574943 161.6809976
  78.9377359  72.6822234 155.8135755  78.2687734  73.1668361 155.3299795
  78.7990228  72.9291454 156.7279133  70.6756358  62.2176587 159.5177756
  70.7140458  61.6840177 160.3114874  70.1696651  61.6911792 158.8988733
  83.0782627  74.7165977 162.4118413  83.6300935  74.8797599 163.1767498
  83.4188821  75.3070415 161.7398438  87.9293502  69.5427235 168.2667068
  88.4733406  70.1557193 167.7722022  87.3480346  70.1006813 168.7834081
  74.3064936  60.9440689 152.5931687  74.6018377  60.0351367 152.5398741
  73.4052972  60.9228428 152.2712689  86.2151015  72.6647953 159.3982095
  86.0902154  71.8637693 158.8893041  86.8730106  73.1594146 158.9096065
  77.8359183  59.0196685 158.5759236  77.1145769  59.6332653 158.4366709
  78.6252439  59.5554450 158.4975882  88.2785923  70.4656973 161.0261645
  87.3316259  70.3462324 160.9539972  88.6268696  69.5779471 161.1087907
  76.0352777  58.6254786 152.7171012  75.7065484  57.7452165 152.5346118
  76.3892148  58.5702455 153.6047401  85.2832356  70.2609689 157.2265998
  85.1357319  69.3326396 157.4073568  86.1085850  70.2829780 156.7423073
  79.1494601  58.9127756 153.0846490  79.4890673  59.4413677 152.3625098
  79.5966721  59.2508162 153.8605056  88.8866478  71.0838248 158.3130870
  89.8113026  70.8781109 158.1755322  88.7181782  70.8354649 159.2220212
  82.4954513  54.3814119 160.9876881  83.3180583  53.9074597 160.8655771
  82.7392577  55.1604603 161.4875567  81.1362748  57.4102378 151.2839783
  81.8571110  57.7883631 150.7803499  80.5128052  58.1291255 151.3874761
  85.2793871  58.1147527 152.2198115  85.4957485  58.9972165 151.9186943
  84.7987938  57.7233740 151.4903757  80.0193092  61.0733240 158.7968860
  79.8737673  61.3873543 159.6893141  79.5418296  61.6918140 158.2439758
  81.8789475  58.0635788 158.8449749  81.8651044  57.1676881 158.5082047
  82.5961903  58.0706452 159.4788035  83.7315606  58.4973128 160.8902876
  83.4733383  59.4190199 160.8887207  83.2000646  58.1003563 161.5803341
  88.6761794  71.6023915 153.6692962  88.8498672  71.0370338 152.9166814
  89.1690686  72.4024810 153.4872452  74.4938754  63.6138584 161.7356521
  73.9492222  64.3898392 161.8676795  75.3718104  63.9609389 161.5775642
  81.2826371  56.9450168 154.1137319  81.4042282  56.0166814 154.3128207
  80.9928413  56.9588854 153.2015635  84.1517561  54.6305079 157.2504039
  84.1739258  54.6944412 156.2956019  84.5685620  53.7909587 157.4444545
  94.5301186  64.3660338 155.2883262  94.9732332  63.6167663 154.8902385
  93.6527696  64.3570475 154.9056994  89.6636967  70.9190680 150.7689860
  90.3587871  71.5397372 150.9877175  90.0060117  70.0686031 151.0442238
  91.5628390  68.3690385 152.2977191  92.0879714  68.7077658 151.5726511
  91.4750743  67.4337401 152.1140326  83.2248439  72.2824459 164.4267068
  83.5335565  72.0373606 165.2989767  84.0223921  72.4871097 163.9385938
  83.2469051  74.4362368 156.6572444  82.8074041  73.9438747 157.3505301
  83.9977168  73.8935336 156.4164519  75.7261390  70.6273909 156.6597072
  76.5519410  70.3277681 156.2795716  75.3755442  69.8581532 157.1086861
  80.6942923  69.9800378 158.7294746  80.0722932  69.3171083 158.4296974
  81.3647790  70.0061509 158.0468394  73.9269995  68.5460236 157.6186006
  73.0901903  68.1182410 157.4370007  73.8993640  68.7392679 158.5556797
  91.2522296  69.0023289 167.6028389  90.4617840  68.9847428 167.0632888
  91.0155651  69.5411583 168.3577425  91.3720171  65.8515755 164.9161117
  91.4218176  65.6865763 165.8576640  91.2634094  64.9843014 164.5258998
  80.2556430  68.5304301 152.2053206  80.4044550  69.2139765 151.5519879
  81.0622873  68.5109391 152.7202662  88.6623933  61.8346683 166.2320424
  89.5633796  61.6953148 165.9404422  88.7371908  62.0001138 167.1718602
  92.8738368  68.2712697 165.1603139  92.5823176  68.6342677 165.9966600
  92.2610499  67.5579705 164.9816471  94.0734050  65.8365576 157.6805709
  94.9080942  66.2755381 157.8443270  94.2093179  65.3604230 156.8613955
  91.1225556  63.3945311 163.6283197  91.5979678  63.5872958 162.8202048
  90.1991122  63.4504497 163.3826581  78.0109063  64.5569479 153.2114275
  77.7655105  63.6531809 153.4094485  78.1804977  64.5586629 152.2693753
  85.7005773  55.4293155 162.5939031  86.2187716  56.1654182 162.2685519
  85.3460905  55.7357148 163.4285790  77.2804710  60.2897836 150.7100437
  76.5873955  60.3642191 150.0540473  77.0356462  59.5258180 151.2321954
  85.9518367  51.8493437 158.1139927  86.2320121  51.1816627 158.7400354
  86.7368974  52.0422533 157.6014591  83.7551835  71.0252431 149.6764954
  83.1825802  71.6442618 149.2235426  84.3284629  71.5751793 150.2104876
  89.8227225  60.2711071 161.8611503  90.7744648  60.3709169 161.8823727
  89.6530676  59.4789340 162.3709587  87.8441605  57.3566655 162.0470903
  87.2491537  57.6371667 161.3517392  87.5591301  57.8460556 162.8187645
  86.9749095  71.3089581 150.8073536  87.9079768  71.2435143 151.0106412
  86.8872308  72.1445848 150.3488069  89.6037112  70.6255452 147.7677484
  89.5250743  70.2915315 148.6613242  90.4246779  71.1177220 147.7668956
  92.3015303  63.4917191 160.9753802  92.2691623  62.5533192 161.1613486
  92.9115927  63.5701228 160.2419627  84.1398634  62.3613244 147.0181006
  85.0857739  62.2319452 147.0869424  83.7612879  61.6227906 147.4950434
  92.4509791  60.2828235 161.0212085  91.9348840  59.4986691 160.8342014
  93.3349740  59.9546951 161.1858605  90.1120518  54.0269250 156.9807898
  89.9145339  53.7184338 157.8651230  90.7220224  54.7530889 157.1105828
  98.1191853  64.5533198 160.1159839  98.8495241  64.2918486 160.6767542
  97.5098798  63.8161920 160.1561907  96.2007150  62.6941061 160.7134290
  95.4740313  62.5597025 160.1050782  95.7854437  63.0017889 161.5191008
  84.0237326  66.4130990 168.4781663  84.9440336  66.5909589 168.6721710
  83.9886909  65.4687036 168.3261362  82.3241551  60.2863220 146.9535891
  81.4173006  59.9896333 147.0298605  82.6017532  59.9893039 146.0870178
  73.2419491  61.6069584 157.4034938  72.9222276  60.7534892 157.1109312
  72.6952920  61.8218162 158.1592905  77.0199399  64.3232025 161.1204444
  77.2385409  65.2549133 161.1392478  77.4325173  63.9639999 161.9059248
  83.9403617  54.8300110 153.1080133  83.1304345  54.4847195 153.4835379
  84.6288034  54.5207654 153.6967744  85.8694165  53.9078157 154.7304429
  86.4225204  54.3273610 155.3894453  86.1064251  52.9813905 154.7727385
  81.0940336  57.1450156 147.0947871  81.9559500  57.4705054 147.3543688
  81.2790680  56.3581652 146.5820936  73.1107751  65.2272495 159.3728059
  72.4171223  64.8126448 158.8598014  73.8580742  65.2693032 158.7761478
  89.2472972  56.0178682 154.2383094  88.6671641  56.6763486 153.8561146
  88.9808905  55.1956027 153.8270511  87.6976538  55.4183740 156.4404414
  88.1976317  55.5300274 155.6318733  88.3412146  55.1144793 157.0805222
  75.0244494  65.1590749 157.2494074  75.0015182  65.2578436 156.2975957
  75.3345130  66.0055900 157.5711240  77.6831872  67.2166904 161.3640689
  78.6375125  67.1850847 161.2970620  77.4844395  66.7557528 162.1790915
  78.2731254  65.7868020 163.9311486  79.0924143  66.2812099 163.9546324
  78.5468062  64.8699988 163.9029054  88.0297850  58.1778773 153.2939442
  87.1423705  58.4628423 153.0759637  88.4451839  58.0172536 152.4466719
  91.3812386  58.2025294 157.0093781  92.1572776  58.6921746 157.2818398
  90.6560520  58.6283348 157.4665651  93.8184945  58.9152913 158.0667722
  94.4129436  58.6748649 157.3561030  93.8911529  58.1960043 158.6941258
  76.0382101  72.7586524 158.3810887  75.9036568  71.9986925 157.8148885
  75.6214163  73.4827424 157.9139675  87.1741064  67.9423447 147.3887462
  87.8776914  68.1473450 148.0045118  86.4503712  68.5100209 147.6536545
  88.0038874  63.6933308 153.5089732  87.9474075  64.1501860 152.6697364
  88.5567216  62.9323993 153.3312575  91.8143680  59.4823040 154.3339852
  91.5580614  59.0819676 155.1648059  91.1896548  60.1966834 154.2089991
  96.1256018  62.2219114 156.8411143  95.5655576  62.2912303 157.6142705
  95.5199521  62.0460098 156.1210639  79.1951226  73.6555841 158.5929329
  79.0783611  74.6001273 158.4908020  78.3743673  73.3529402 158.9815128
  89.0827761  68.3805976 149.4385922  89.9173365  67.9487175 149.2563397
  88.9212104  68.2087990 150.3662816  88.7373653  64.8838090 150.8042261
  88.6822457  64.7182361 149.8630705  88.1119708  65.5914123 150.9604451
  86.0519560  67.1887002 170.1295824  86.9210720  67.3627654 169.7682459
  85.5726312  68.0081418 170.0071553  82.0469779  54.3846199 150.3827580
  82.0348448  55.3288039 150.5395851  82.9393200  54.2016344 150.0887041
  80.2205741  74.3084103 161.8085258  81.1232987  74.3407713 162.1251753
  79.9943111  73.3784554 161.8231593  81.9759343  73.0615089 158.4695336
  81.0254974  73.0616951 158.3559709  82.2791829  72.3147824 157.9531371
  85.8621898  50.9788975 154.6373516  85.0954294  50.4247462 154.7830199
  86.2732603  51.0510844 155.4987668  97.7112036  78.8975628 159.5341099
  98.3490446  78.7782375 158.8304439  97.5932879  79.8456471 159.5929051
  94.5201742  78.8503056 159.4702623  94.1820254  78.7344120 158.5823158
  95.3891510  78.4494221 159.4503630  90.3788558  80.7038532 155.4599514
  89.8153423  80.6128469 154.6915802  90.2640953  79.8838436 155.9402007
  95.0021525  80.0037907 165.4288829  94.9910166  79.6090706 164.5569333
  95.1642165  79.2703980 166.0222600  87.9252990  82.1989724 158.2983735
  88.7174282  81.8580548 157.8830034  88.1649640  82.3084699 159.2185888
  95.9588117  84.3709500 150.7713979  95.3076096  84.9563580 150.3847993
  96.7532480  84.9015695 150.8309017  89.8843744  81.4598637 151.1701114
  90.6574620  80.9127624 151.0313989  90.2369143  82.3242886 151.3815575
  91.7228786  82.7875019 164.3768013  91.4318652  83.6920650 164.2614679
  92.3585771  82.8291547 165.0912082  92.6484993  80.1651868 160.9669373
  93.2448566  79.9407890 160.2526335  92.7059965  79.4236613 161.5694820
  92.2210022  77.6191303 148.8019564  92.4735542  77.0972824 148.0403027
  91.2834581  77.4557448 148.9046247  97.2653305  76.6227081 156.6094307
  98.0516394  76.2046505 156.2584724  97.5292009  77.5273174 156.7775955
  97.4363382  82.0599932 151.3082964  96.8009215  82.1334558 152.0203868
  97.1060788  82.6493531 150.6302043 102.6661732  76.5602315 157.5127285
 103.3986904  75.9901531 157.7465115 101.9101087  76.1723915 157.9533791
  91.9406310  79.5219409 151.0043938  91.8242569  78.8464312 151.6725023
  92.0508570  79.0351783 150.1876092  94.2837851  78.9829556 154.7090628
  93.9196059  78.4560177 155.4203549  95.1404967  78.5928025 154.5357113
 100.1887152  70.2723889 161.9721894  99.8570477  71.1419300 161.7483109
  99.5932765  69.9560173 162.6515924  93.9243338  74.0119456 149.7051976
  94.0917741  74.8799692 150.0722447  93.7340507  74.1746737 148.7813265
  96.6818672  82.4736435 161.3717807  96.3819395  83.3761473 161.2633614
  96.3369731  82.2068618 162.2238959  90.1331153  78.9250232 157.4054511
  89.2081649  78.7926446 157.6132203  90.3815566  79.7044451 157.9024453
 100.0815815  74.9918975 159.0515244  99.1732693  74.9234383 158.7574005
 100.0303411  75.4690920 159.8797069  93.9032559  76.4677113 150.6898643
  93.7832184  76.9134164 151.5284123  93.2085148  76.8162431 150.1312181
  87.4939964  78.5683505 158.2398300  87.6232345  78.8217984 159.1537712
  86.8137415  79.1611213 157.9202955  91.6639451  89.2380755 154.3388774
  91.5863481  90.1888580 154.4177255  91.0601095  88.8926628 154.9963701
  94.1556681  76.4108620 166.9950141  93.3790015  76.9702541 166.9853006
  94.7947244  76.8965403 167.5165011 101.9477462  73.1935413 160.8293118
 101.3051842  73.4867946 160.1832912 101.4432390  73.0788334 161.6346315
  99.6017625  76.9398586 151.5178977 100.5135481  77.1725973 151.3426675
  99.0927272  77.5235631 150.9554056  92.4103053  79.2194074 166.5568108
  93.1517738  79.7579118 166.2802932  91.7040039  79.8460363 166.7139660
  94.2389463  76.2995821 162.5273827  95.0850658  76.7235235 162.6708476
  94.1788101  75.6429445 163.2212390  98.2087208  81.9224405 158.9092559
  97.5796070  82.0870119 158.2068626  97.8212870  82.3366014 159.6803523
 102.0876440  82.8578843 156.2636922 101.4027478  83.2377744 155.7133956
 102.1720289  83.4674169 156.9968870  97.3888908  73.9600189 164.1855000
  97.1449840  74.7142250 163.6489276  97.6648839  74.3385537 165.0202247
  99.3427371  80.5038802 162.8632266  99.5544266  81.1470562 162.1866647
  99.2957119  79.6701118 162.3954196  96.9453600  73.1156622 159.7668838
  96.0838079  73.4137876 160.0585576  96.9716035  73.3327021 158.8349871
  93.7615170  81.6598813 156.1742644  94.2253515  81.9386516 155.3847266
  93.4971968  80.7582258 155.9915734  90.6539251  81.2070295 159.1122407
  91.2240608  81.6357563 158.4739891  91.2447362  80.9252879 159.8106593
  92.6984056  77.7821965 152.9832209  93.4008099  78.2343009 153.4506135
  92.3664684  77.1405784 153.6112102  91.1464417  76.3733722 167.3583418
  90.5163078  77.0550003 167.5918815  91.0400505  76.2616804 166.4136556
  86.4409390  76.0405518 158.2849342  85.6508444  76.2963047 157.8089453
  86.9320637  76.8553856 158.3901383 100.4573199  83.3810757 161.0354623
 101.2790643  82.9790944 160.7537305 100.4535602  83.2778991 161.9870739
  88.3924135  76.4050097 155.2432819  87.5955298  76.5168792 155.7616315
  88.1649727  76.7436749 154.3773710  94.2229803  82.9294800 163.1915334
  94.2874235  83.3915208 164.0273506  93.5140726  82.2992165 163.3197644
  84.7247093  76.2936008 160.7164333  84.9755131  77.1783018 160.9821909
  85.2606641  76.1140610 159.9439425 108.5479192  79.7249506 157.3839595
 107.7942901  79.1556904 157.2283599 108.6826733  79.6912170 158.3310229
  93.9377820  84.5962908 153.0594314  93.8023495  85.4414444 153.4879162
  94.4787633  84.7982186 152.2960248  90.4245160  70.6754488 169.7208669
  90.0312105  70.1220686 170.3956313  91.2411300  70.9865066 170.1115187
  87.3907218  82.1138346 153.6322239  87.9031738  82.9081596 153.7827804
  88.0429930  81.4164636 153.5655841  89.2002102  85.2304102 155.7144992
  89.3768731  86.1522067 155.5265976  89.9958936  84.9162522 156.1439372
  93.3413121  72.0912367 167.3128926  94.0822834  72.6919520 167.2333388
  93.5731044  71.3490005 166.7546968  88.4854459  77.2768734 165.5907155
  88.3707974  76.3753991 165.8914254  87.6298977  77.5232431 165.2391972
  90.3233418  86.7482276 161.7155335  90.8740843  86.6199339 160.9432329
  89.4844894  87.0477165 161.3650227  97.2870284  68.1193470 161.5893207
  96.9434553  69.0095112 161.5132318  97.6549246  67.9295127 160.7262792
  85.3556134  80.4427000 154.4081810  86.1931356  80.8524009 154.1915517
  85.5334402  79.5026442 154.3782004  97.2520567  78.1102081 150.0965643
  96.7367190  78.8806686 150.3354030  96.9797875  77.4367217 150.7198704
  94.8367678  72.9551782 155.1550881  93.9809274  72.5658632 154.9756520
  95.2494629  73.0343743 154.2950667  96.3666824  70.4898125 159.5542441
  95.8631620  70.4528260 158.7410246  96.6597431  71.3990868 159.6139097
  92.6109710  70.5736855 158.5608622  93.4762707  70.3779663 158.2014512
  92.6787219  70.3447207 159.4877979 102.2254841  80.8634436 152.0318816
 101.4484283  80.5245595 151.5873978 102.9046322  80.8687059 151.3573781
  97.0406870  75.9829173 151.9225424  96.7357005  76.2975322 152.7735567
  97.9937312  76.0610593 151.9652757  95.4853302  82.1419396 153.5718378
  94.9574663  81.4072156 153.2591615  94.9840804  82.9194073 153.3258346
 100.4646148  80.3368417 158.6885424  99.8069822  81.0267678 158.7765553
 101.2686547  80.7264849 159.0319410  90.2172029  72.8039063 155.9324989
  90.7915781  72.5814244 155.1998182  90.8043012  72.8727757 156.6853591
  99.2751606  78.6912790 156.7389366  99.7883488  79.3242781 157.2411076
  99.9252830  78.0913985 156.3732726  90.5441616  74.8343524 149.9520875
  89.7078929  75.1718210 150.2730149  90.4046386  74.6992503 149.0148012
  92.5194697  69.6780312 154.6600059  91.8659109  69.3629329 154.0356673
  92.4775171  69.0556052 155.3859882  93.6305902  79.9599607 146.5753351
  92.7232963  79.7288860 146.7744500  94.1276934  79.1637226 146.7627332
  96.5373981  88.6697114 149.4950037  95.8635679  88.9728811 150.1034995
  96.9239803  89.4726194 149.1455494  95.7532437  76.1662245 158.9847706
  94.8354999  76.3877192 158.8269394  96.1692581  76.2408556 158.1259414
  96.5367485  77.5653661 154.1150387  97.2839304  78.0775058 153.8057509
  96.8059075  77.2437714 154.9754780  94.8094135  80.0612202 151.0977341
  93.9005354  79.7771234 151.1949811  94.8389219  80.4811280 150.2380648
 100.0413403  83.6718791 154.8668508  99.5875730  82.8309701 154.9233699
  99.4107369  84.3080189 155.2043289  98.9846322  74.6010777 156.0969176
  98.2469079  74.0888163 156.4279418  99.2373096  74.1611159 155.2852453
  98.4846342  85.5095288 155.8018327  98.7769316  86.0700345 155.0830692
  98.9944962  85.8023849 156.5571486  99.0857949  67.3787029 156.6910945
  99.3916826  66.5184392 156.4036860  99.8110554  67.9704649 156.4909939
  85.3782306  77.7817716 155.0792543  85.1806705  77.1887076 154.3543610
  84.8228970  77.4769926 155.7968482  93.3579029  77.6740822 157.1987136
  93.4127639  76.7214659 157.1229613  92.5470231  77.8300261 157.6828435
  94.5070223  81.6020945 148.4365419  94.0689653  80.8856804 147.9771057
  95.2480664  81.8297060 147.8750511  91.2971389  76.2917882 154.9577515
  90.4839255  76.5912052 155.3642707  91.7930383  75.8973571 155.6751997
  93.4479967  86.2875639 156.8911780  93.4056146  86.5136485 155.9620312
  94.3642666  86.0539013 157.0397581  96.8945601  76.7559706 163.7892409
  97.2494989  76.9831179 164.6486875  97.5417732  77.0878083 163.1669664
 102.6243338  79.8778142 154.4941738 102.4861236  80.0679738 153.5662927
 102.2679557  80.6397525 154.9509789  90.7885464  73.8636237 160.5738750
  91.4284843  73.7224996 159.8761713  89.9562994  73.5770751 160.1977352
 102.6512717  81.9454669 159.5053010 103.0849224  81.8529958 160.3536064
 103.3644298  81.9212170 158.8673026  91.5645768  83.1638668 156.6873743
  92.3586366  82.6688988 156.4856317  90.8537460  82.6356531 156.3241448
  96.3840612  85.5456763 161.0386110  96.4377635  86.1147700 161.8063826
  95.5155394  85.7158648 160.6740147  87.8728531  77.3081750 152.7633495
  86.9426119  77.2466205 152.9803457  87.9686003  76.7857702 151.9670136
  87.7914080  73.8336562 155.3511737  88.0520898  74.7481896 155.2420897
  88.6131253  73.3661005 155.5008350  89.2639006  75.2474320 162.5210561
  89.9362059  75.0391682 161.8723210  88.4368792  75.0496406 162.0815794
  95.1664578  71.8736260 164.5376222  94.5192493  72.5726210 164.4440699
  95.9365593  72.3072404 164.9052470  95.3428712  79.7117025 162.5973042
  96.2720772  79.8628185 162.4242009  94.9219742  79.8001046 161.7421689
  94.1417044  83.7367690 160.3671580  94.0028129  83.3686474 161.2397518
  93.3531640  84.2515329 160.1955537  94.7365196  88.8376786 151.7097116
  94.9116951  88.3664829 152.5242739  94.0497984  89.4642552 151.9378377
  95.6922259  83.1149292 157.7560417  95.3572092  83.0750062 158.6518067
  95.1926205  82.4494008 157.2830828  89.6666503  78.5216923 163.2812999
  89.5286301  77.7897161 163.8824538  90.5771426  78.4325823 162.9997186
  98.6281451  80.4605327 148.0297477  98.0110621  79.7352155 147.9330530
  98.1597939  81.2214687 147.6864551  92.2948804  78.2336882 162.7696678
  93.0048422  77.5930074 162.7283297  92.2518112  78.4849777 163.6922859
  91.0077738  75.2202100 164.5892318  90.4715095  74.7692838 165.2413914
  90.4194446  75.3548009 163.8462782  89.3026281  91.9866149 158.4836976
  89.5422879  92.6184673 159.1615995  88.4595478  91.6354189 158.7702336
  90.4179996  74.6790751 147.1518781  89.5409463  74.5579552 146.7881028
  90.8937750  73.8876829 146.8997670  81.9382137  79.4667911 157.2460288
  82.6253176  79.1529641 156.6581304  81.7830265  80.3709275 156.9727540
  86.7416859  74.3558107 161.6745312  86.6575047  73.7483777 160.9395722
  85.9199565  74.8467126 161.6754809  93.8154143  87.7945271 160.8878480
  93.7424314  88.6000243 161.3997785  93.3731536  87.9937237 160.0626502
  93.6043923  87.0317041 154.3981302  92.8211444  87.5738722 154.4919526
  94.3036668  87.5491021 154.7975543  96.9140573  72.8411671 157.0415507
  97.4109272  72.0881633 156.7216577  96.1427554  72.8775988 156.4758717
 104.7670330  78.5452036 158.6833799 104.7560206  79.4276752 158.3127732
 103.8987709  78.1923587 158.4888336  97.9970353  81.5983358 154.6153931
  97.0626632  81.7184821 154.4458635  98.1747022  80.6955825 154.3513940
  93.4975541  74.9829054 156.7687192  93.1273329  74.4300094 157.4568097
  93.9934634  74.3787187 156.2162192 101.3842905  77.4400677 155.1503965
 101.8503357  78.2728669 155.0764267 101.8350405  76.9745659 155.8549223
  91.3264740  85.4426549 163.8642210  92.0274199  86.0763032 164.0171604
  90.8559855  85.7841280 163.1037849  99.4519136  83.7844499 152.1490117
  99.7278980  83.6701093 153.0583991  98.5823635  83.3861984 152.1102290
  99.3559567  69.8081264 159.1894866  98.4422647  70.0385491 159.3577073
  99.7852669  69.8919709 160.0408898  99.1266026  77.9971156 161.6894760
  98.4737476  78.2447064 161.0347213  99.5046406  77.1835295 161.3557237
  96.0873200  88.0330850 155.7922930  96.2695594  87.2152506 156.2550683
  96.9106186  88.2498542 155.3547820  96.4215365  86.9599035 153.0537979
  96.9503132  86.4491489 152.4408141  96.6843585  86.6441565 153.9183512
  86.9232458  84.9762904 160.7973312  87.5085895  84.2306592 160.9301217
  86.7257296  85.2866861 161.6809976  89.7771113  88.0114151 155.8135755
  89.1081488  88.4960279 155.3299795  89.6383983  88.2583372 156.7279133
  81.5150113  77.5468504 159.5177756  81.5534212  77.0132095 160.3114874
  81.0090406  77.0203710 158.8988733  88.8940875  72.3933045 163.0140298
  88.9582202  73.2547876 162.6017696  88.8307995  71.7807046 162.2812656
  88.3693148  74.4656177 166.6613332  88.9965186  74.0833255 167.2750856
  87.5121066  74.2470379 167.0269025  85.1458690  76.2732606 152.5931687
  85.4412131  75.3643285 152.5398741  84.2446726  76.2520346 152.2712689
  97.0544769  87.9939870 159.3982095  96.9295909  87.1929610 158.8893041
  97.7123860  88.4886064 158.9096065  88.6752937  74.3488603 158.5759236
  87.9539523  74.9624571 158.4366709  89.4646193  74.8846368 158.4975882
  99.1179677  85.7948891 161.0261645  98.1710013  85.6754242 160.9539972
  99.4662451  84.9071389 161.1087907  91.4779251  71.6843029 164.8499887
  92.0013653  71.9305326 165.6126197  91.2591584  72.5163064 164.4303025
  86.8746532  73.9546704 152.7171012  86.5459238  73.0744083 152.5346118
  87.2285903  73.8994373 153.6047401  96.1226111  85.5901607 157.2265998
  95.9751073  84.6618314 157.4073568  96.9479604  85.6121697 156.7423073
  89.9888355  74.2419674 153.0846490  90.3284428  74.7705595 152.3625098
  90.4360476  74.5800080 153.8605056  99.7260233  86.4130165 158.3130870
 100.6506780  86.2073027 158.1755322  99.5575536  86.1646567 159.2220212
  92.6831796  72.6256725 162.5349558  92.3428616  71.8264538 162.9370238
  91.9770802  72.9258435 161.9626391  93.3348268  69.7106037 160.9876881
  94.1574337  69.2366515 160.8655771  93.5786331  70.4896521 161.4875567
  91.9756502  72.7394295 151.2839783  92.6964865  73.1175548 150.7803499
  91.3521806  73.4583172 151.3874761  96.1187625  73.4439444 152.2198115
  96.3351239  74.3264082 151.9186943  95.6381692  73.0525658 151.4903757
  90.8586846  76.4025158 158.7968860  90.7131427  76.7165461 159.6893141
  90.3812050  77.0210058 158.2439758  92.7183229  73.3927706 158.8449749
  92.7044798  72.4968799 158.5082047  93.4355657  73.3998369 159.4788035
  94.5709360  73.8265046 160.8902876  94.3127138  74.7482116 160.8887207
  94.0394400  73.4295480 161.5803341  99.5155549  86.9315833 153.6692962
  99.6892426  86.3662255 152.9166814 100.0084440  87.7316728 153.4872452
  85.3332509  78.9430502 161.7356521  84.7885977  79.7190310 161.8676795
  86.2111858  79.2901306 161.5775642  92.1220125  72.2742086 154.1137319
  92.2436036  71.3458732 154.3128207  91.8322168  72.2880772 153.2015635
  94.9911316  69.9596996 157.2504039  95.0133012  70.0236329 156.2956019
  95.4079375  69.1201505 157.4444545 105.3694940  79.6952256 155.2883262
 105.8126086  78.9459581 154.8902385 104.4921450  79.6862392 154.9056994
 100.5030721  86.2482597 150.7689860 101.1981626  86.8689290 150.9877175
 100.8453871  85.3977949 151.0442238  86.1198530  78.0700398 164.6286678
  85.3780267  78.2183034 165.2151308  85.7991275  78.3308664 163.7653427
 102.4022144  83.6982303 152.2977191 102.9273469  84.0369576 151.5726511
 102.3144497  82.7629318 152.1140326  94.0862805  89.7654286 156.6572444
  93.6467795  89.2730665 157.3505301  94.8370922  89.2227254 156.4164519
  86.5655144  85.9565827 156.6597072  87.3913164  85.6569599 156.2795716
  86.2149196  85.1873449 157.1086861  91.5336677  85.3092295 158.7294746
  90.9116687  84.6463000 158.4296974  92.2041544  85.3353427 158.0468394
  84.7663749  83.8752153 157.6186006  83.9295658  83.4474328 157.4370007
  84.7387395  84.0684597 158.5556797  91.6061205  73.7874083 168.3227252
  91.6549360  74.6636206 167.9405021  92.1483719  73.2451476 167.7498895
  91.0950184  83.8596219 152.2053206  91.2438305  84.5431683 151.5519879
  91.9016628  83.8401309 152.7202662  93.8360493  74.5405456 165.0773610
  92.9663803  74.8339022 164.8056199  94.0719974  75.1245901 165.7980874
 104.9127805  81.1657494 157.6805709 105.7474696  81.6047298 157.8443270
 105.0486933  80.6896147 156.8613955 101.9619311  78.7237229 163.6283197
 102.4373432  78.9164875 162.8202048 101.0384876  78.7796415 163.3826581
  88.8502817  79.8861396 153.2114275  88.6048859  78.9823726 153.4094485
  89.0198732  79.8878547 152.2693753  96.5399527  70.7585073 162.5939031
  97.0581471  71.4946100 162.2685519  96.1854660  71.0649066 163.4285790
  88.1198465  75.6189754 150.7100437  87.4267710  75.6934109 150.0540473
  87.8750217  74.8550097 151.2321954  96.7912121  67.1785355 158.1139927
  97.0713875  66.5108544 158.7400354  97.5762728  67.3714451 157.6014591
  94.5945590  86.3544349 149.6764954  94.0219557  86.9734536 149.2235426
  95.1678383  86.9043711 150.2104876 100.6620980  75.6002989 161.8611503
 101.6138403  75.7001087 161.8823727 100.4924430  74.8081258 162.3709587
  98.6835359  72.6858572 162.0470903  98.0885291  72.9663585 161.3517392
  98.3985056  73.1752473 162.8187645  97.8142850  86.6381499 150.8073536
  98.7473523  86.5727061 151.0106412  97.7266062  87.4737766 150.3488069
 100.4430866  85.9547369 147.7677484 100.3644498  85.6207233 148.6613242
 101.2640533  86.4469137 147.7668956 103.1409057  78.8209109 160.9753802
 103.1085378  77.8825110 161.1613486 103.7509681  78.8993146 160.2419627
  94.9792388  77.6905162 147.0181006  95.9251493  77.5611370 147.0869424
  94.6006633  76.9519824 147.4950434 103.2903546  75.6120152 161.0212085
 102.7742595  74.8278609 160.8342014 104.1743494  75.2838869 161.1858605
 100.9514273  69.3561168 156.9807898 100.7539094  69.0476256 157.8651230
 101.5613978  70.0822807 157.1105828 108.9585607  79.8825116 160.1159839
 109.6888996  79.6210404 160.6767542 108.3492553  79.1453838 160.1561907
 107.0400904  78.0232978 160.7134290 106.3134068  77.8888943 160.1050782
 106.6248191  78.3309807 161.5191008  93.1635305  75.6155138 146.9535891
  92.2566761  75.3188251 147.0298605  93.4411286  75.3184956 146.0870178
  84.0813246  76.9361502 157.4034938  83.7616030  76.0826810 157.1109312
  83.5346674  77.1510080 158.1592905  87.8593153  79.6523943 161.1204444
  88.0779163  80.5841050 161.1392478  88.2718927  79.2931917 161.9059248
  94.7797371  70.1592028 153.1080133  93.9698099  69.8139113 153.4835379
  95.4681788  69.8499572 153.6967744  96.7087919  69.2370075 154.7304429
  97.2618958  69.6565528 155.3894453  96.9458006  68.3105823 154.7727385
  91.9334090  72.4742073 147.0947871  92.7953254  72.7996972 147.3543688
  92.1184434  71.6873569 146.5820936  83.9501506  80.5564413 159.3728059
  83.2564977  80.1418366 158.8598014  84.6974497  80.5984950 158.7761478
 100.0866727  71.3470600 154.2383094  99.5065396  72.0055404 153.8561146
  99.8202659  70.5247944 153.8270511  98.5370293  70.7475658 156.4404414
  99.0370071  70.8592192 155.6318733  99.1805901  70.4436710 157.0805222
  85.8638248  80.4882667 157.2494074  85.8408936  80.5870354 156.2975957
  86.1738885  81.3347818 157.5711240  88.5225626  82.5458822 161.3640689
  89.4768880  82.5142764 161.2970620  88.3238150  82.0849446 162.1790915
  89.1125008  81.1159938 163.9311486  89.9317897  81.6104017 163.9546324
  89.3861816  80.1991906 163.9029054  98.8691605  73.5070690 153.2939442
  97.9817460  73.7920341 153.0759637  99.2845594  73.3464454 152.4466719
 102.2206141  73.5317211 157.0093781 102.9966531  74.0213664 157.2818398
 101.4954275  73.9575265 157.4665651 104.6578699  74.2444830 158.0667722
 105.2523190  74.0040566 157.3561030 104.7305283  73.5251961 158.6941258
  86.8775855  88.0878441 158.3810887  86.7430323  87.3278842 157.8148885
  86.4607917  88.8119341 157.9139675  98.0134818  83.2715365 147.3887462
  98.7170668  83.4765367 148.0045118  97.2897467  83.8392127 147.6536545
  98.8432628  79.0225226 153.5089732  98.7867830  79.4793778 152.6697364
  99.3960971  78.2615911 153.3312575 102.6537434  74.8114958 154.3339852
 102.3974368  74.4111594 155.1648059 102.0290302  75.5258752 154.2089991
 106.9649772  77.5511031 156.8411143 106.4049330  77.6204221 157.6142705
 106.3593275  77.3752016 156.1210639  90.0344981  88.9847758 158.5929329
  89.9177365  89.9293191 158.4908020  89.2137427  88.6821320 158.9815128
  99.9221515  83.7097894 149.4385922 100.7567119  83.2779093 149.2563397
  99.7605858  83.5379908 150.3662816  99.5767408  80.2130007 150.8042261
  99.5216211  80.0474279 149.8630705  98.9513463  80.9206040 150.9604451
  84.3659923  75.4498072 164.6303683  85.0118786  74.9397026 165.1190909
  84.1577074  76.1866753 165.2047109  92.8863533  69.7138116 150.3827580
  92.8742203  70.6579956 150.5395851  93.7786955  69.5308262 150.0887041
  91.0599495  89.6376020 161.8085258  91.9626742  89.6699631 162.1251753
  90.8336865  88.7076471 161.8231593  92.8153097  88.3907007 158.4695336
  91.8648728  88.3908868 158.3559709  93.1185583  87.6439741 157.9531371
  96.7015653  66.3080893 154.6373516  95.9348048  65.7539380 154.7830199
  97.1126357  66.3802762 155.4987668  88.7057414  72.5965689 168.7278698
  89.5688875  72.2402494 168.9382022  88.1322824  72.2579584 169.4154102
 100.7237498  96.7890555 151.1701114 101.4968374  96.2419542 151.0313989
 101.0762897  97.6534804 151.3815575 103.0603776  92.9483221 148.8019564
 103.3129297  92.4264742 148.0403027 102.1228335  92.7849366 148.9046247
 102.7800065  94.8511327 151.0043938 102.6636323  94.1756230 151.6725023
 102.8902325  94.3643701 150.1876092 104.7637093  89.3411373 149.7051976
 104.9311495  90.2091610 150.0722447 104.5734262  89.5038655 148.7813265
 104.7426314  91.7969031 150.6898643 104.6225939  92.2426082 151.5284123
 104.0478902  92.1454349 150.1312181 110.4411380  92.2690504 151.5178977
 111.3529236  92.5017891 151.3426675 109.9321027  92.8527548 150.9554056
 103.5377810  93.1113883 152.9832209 104.2401853  93.5634927 153.4506135
 103.2058439  92.4697702 153.6112102  97.2803144  91.3697436 158.2849342
  96.4902198  91.6254964 157.8089453  97.7714391  92.1845774 158.3901383
  99.2317889  91.7342015 155.2432819  98.4349053  91.8460709 155.7616315
  99.0043482  92.0728667 154.3773710  98.2300972  97.4430264 153.6322239
  98.7425493  98.2373514 153.7827804  98.8823685  96.7456554 153.5655841
  96.1949889  95.7718918 154.4081810  97.0325111  96.1815926 154.1915517
  96.3728157  94.8318360 154.3782004 108.0914321  93.4393999 150.0965643
 107.5760944  94.2098603 150.3354030 107.8191629  92.7659135 150.7198704
 105.6761432  88.2843699 155.1550881 104.8203028  87.8950550 154.9756520
 106.0888384  88.3635660 154.2950667 103.4503465  85.9028772 158.5608622
 104.3156461  85.7071581 158.2014512 103.5180973  85.6739124 159.4877979
 107.8800624  91.3121091 151.9225424 107.5750760  91.6267240 152.7735567
 108.8331066  91.3902511 151.9652757 101.0565784  88.1330980 155.9324989
 101.6309536  87.9106162 155.1998182 101.6436766  88.2019675 156.6853591
 101.3835371  90.1635441 149.9520875 100.5472683  90.5010128 150.2730149
 101.2440140  90.0284421 149.0148012 103.3588451  85.0072229 154.6600059
 102.7052864  84.6921246 154.0356673 103.3168925  84.3847970 155.3859882
 104.4699656  95.2891524 146.5753351 103.5626718  95.0580778 146.7744500
 104.9670688  94.4929144 146.7627332 105.6487890  95.3904119 151.0977341
 104.7399109  95.1063152 151.1949811 105.6782973  95.8103198 150.2380648
 109.9251704  82.7078947 156.6910945 110.2310581  81.8476310 156.4036860
 110.6504309  83.2996567 156.4909939  96.2176060  93.1109633 155.0792543
  96.0200460  92.5178994 154.3543610  95.6622724  92.8061843 155.7968482
 105.3463977  96.9312863 148.4365419 104.9083407  96.2148722 147.9771057
 106.0874418  97.1588978 147.8750511 102.1365144  91.6209800 154.9577515
 101.3233009  91.9203970 155.3642707 102.6324138  91.2265488 155.6751997
  98.7122286  92.6373667 152.7633495  97.7819874  92.5758123 152.9803457
  98.8079758  92.1149620 151.9670136  98.6307835  89.1628480 155.3511737
  98.8914652  90.0773813 155.2420897  99.4525007  88.6952923 155.5008350
 109.4675205  95.7897245 148.0297477 108.8504376  95.0644073 147.9330530
 108.9991694  96.5506605 147.6864551 101.2573751  90.0082669 147.1518781
 100.3803217  89.8871470 146.7881028 101.7331504  89.2168747 146.8997670
  92.7775891  94.7959829 157.2460288  93.4646931  94.4821559 156.6581304
  92.6224020  95.7001193 156.9727540 107.7534327  88.1703589 157.0415507
 108.2503027  87.4173551 156.7216577 106.9821309  88.2067905 156.4758717
 104.3369296  90.3120972 156.7687192 103.9667083  89.7592012 157.4568097
 104.8328388  89.7079105 156.2162192  92.3543867  92.8760422 159.5177756
  92.3927967  92.3424013 160.3114874  91.8484160  92.3495627 158.8988733
  95.9852445  91.6024524 152.5931687  96.2805886  90.6935202 152.5398741
  95.0840481  91.5812263 152.2712689  99.5146692  89.6780521 158.5759236
  98.7933278  90.2916488 158.4366709 100.3039948  90.2138285 158.4975882
  97.7140286  89.2838622 152.7171012  97.3852993  88.4036001 152.5346118
  98.0679657  89.2286290 153.6047401 100.8282110  89.5711592 153.0846490
 101.1678182  90.0997513 152.3625098 101.2754230  89.9091998 153.8605056
 102.8150257  88.0686213 151.2839783 103.5358619  88.4467466 150.7803499
 102.1915561  88.7875090 151.3874761 106.9581380  88.7731362 152.2198115
 107.1744994  89.6556000 151.9186943 106.4775447  88.3817575 151.4903757
 102.9613880  87.6034004 154.1137319 103.0829791  86.6750650 154.3128207
 102.6715922  87.6172690 153.2015635 105.8305070  85.2888914 157.2504039
 105.8526767  85.3528247 156.2956019 106.2473129  84.4493423 157.4444545
 101.9343939  99.1888136 152.2053206 102.0832059  99.8723601 151.5519879
 102.7410382  99.1693226 152.7202662  99.6896572  95.2153314 153.2114275
  99.4442614  94.3115644 153.4094485  99.8592486  95.2170464 152.2693753
  98.9592219  90.9481671 150.7100437  98.2661464  91.0226026 150.0540473
  98.7143971  90.1842015 151.2321954 107.6305876  82.5077273 158.1139927
 107.9107630  81.8400462 158.7400354 108.4156483  82.7006368 157.6014591
 105.8186143  93.0197079 147.0181006 106.7645247  92.8903288 147.0869424
 105.4400388  92.2811741 147.4950434 104.0029060  90.9447056 146.9535891
 103.0960515  90.6480169 147.0298605 104.2805041  90.6476874 146.0870178
  94.9207000  92.2653419 157.4034938  94.6009785  91.4118727 157.1109312
  94.3740428  92.4801997 158.1592905 105.6191126  85.4883946 153.1080133
 104.8091854  85.1431031 153.4835379 106.3075543  85.1791489 153.6967744
 107.5481674  84.5661992 154.7304429 108.1012713  84.9857446 155.3894453
 107.7851760  83.6397740 154.7727385 102.7727845  87.8033991 147.0947871
 103.6347009  88.1288889 147.3543688 102.9578189  87.0165487 146.5820936
 110.9260481  86.6762518 154.2383094 110.3459150  87.3347322 153.8561146
 110.6596414  85.8539862 153.8270511 109.3764047  86.0767575 156.4404414
 109.8763826  86.1884110 155.6318733 110.0199655  85.7728628 157.0805222
 109.7085359  88.8362608 153.2939442 108.8211214  89.1212259 153.0759637
 110.1239348  88.6756371 152.4466719 108.8528572  98.6007283 147.3887462
 109.5564423  98.8057285 148.0045118 108.1291221  99.1684044 147.6536545
 110.4161162  95.5421925 150.8042261 110.3609966  95.3766197 149.8630705
 109.7907217  96.2497958 150.9604451 103.7257288  85.0430034 150.3827580
 103.7135957  85.9871874 150.5395851 104.6180709  84.8600179 150.0887041
 107.5409407  81.6372811 154.6373516 106.7741803  81.0831297 154.7830199
 107.9520112  81.7094679 155.4987668  74.2800609  30.7187787 137.4959286
  73.6288589  31.3041867 137.1093300  75.0744972  31.2493982 137.5554323
  68.2056236  27.8076924 137.8946420  68.9787112  27.2605911 137.7559296
  68.5581635  28.6721173 138.1060882  70.5422514  23.9669590 135.5264870
  70.7948035  23.4451112 134.7648333  69.6047073  23.8035736 135.6291554
  75.7575874  28.4078219 138.0328270  75.1221707  28.4812845 138.7449175
  75.4273281  28.9971818 137.3547349  70.2618803  25.8697696 137.7289245
  70.1455061  25.1942600 138.3970329  70.3721063  25.3830070 136.9121398
  72.2455831  20.3597743 136.4297283  72.4130233  21.2277979 136.7967754
  72.0553000  20.5225025 135.5058572  72.2245051  22.8155401 137.4143950
  72.1044677  23.2612451 138.2529430  71.5297640  23.1640718 136.8557488
  69.9851944  35.5859042 141.0634081  69.9075973  36.5366867 141.1422561
  69.3813587  35.2404915 141.7209007  77.9230118  23.2876874 138.2424284
  78.8347974  23.5204260 138.0671981  77.4139765  23.8713918 137.6799362
  80.4088932  29.2057130 142.9882229  79.7239970  29.5856031 142.4379262
  80.4932781  29.8152457 143.7214177  86.8691684  26.0727793 144.1084901
  86.1155393  25.5035191 143.9528906  87.0039226  26.0390457 145.0555536
  72.2590312  30.9441195 139.7839621  72.1235987  31.7892731 140.2124468
  72.8000125  31.1460473 139.0205554  75.5733059  24.4580368 136.8210949
  75.0579682  25.2284973 137.0599337  75.3010367  23.7845504 137.4444011
  80.5467333  27.2112723 138.7564123  79.7696776  26.8723882 138.3119285
  81.2258814  27.2165346 138.0819088  75.3619362  22.3307460 138.6470730
  75.0569498  22.6453609 139.4980874  76.3149804  22.4088880 138.6898063
  73.8065794  28.4897684 140.2963684  73.2787155  27.7550443 139.9836922
  73.3053297  29.2672360 140.0503653  71.9518394  26.3077894 133.2998657
  71.0445456  26.0767147 133.4989806  72.4489426  25.5115513 133.4872639
  74.8586473  35.0175401 136.2195344  74.1848172  35.3207098 136.8280301
  75.2452295  35.8204481 135.8700801  73.1306627  26.4090489 137.8222648
  72.2217847  26.1249522 137.9195117  73.1601711  26.8289567 136.9625954
  78.3625895  30.0197078 141.5913815  77.9088222  29.1787988 141.6479006
  77.7319862  30.6558477 141.9288595  76.8058834  31.8573575 142.5263633
  77.0981808  32.4178632 141.8075999  77.3157455  32.1502136 143.2816792
  72.8282715  27.9499232 135.1610726  72.3902145  27.2335091 134.7016363
  73.5693156  28.1775347 134.5995817  71.7692459  32.6353926 143.6157086
  71.7268638  32.8614772 142.6865618  72.6855158  32.4017301 143.7642888
  80.9455830  26.2256429 141.2187045  80.8073729  26.4158025 140.2908234
  80.5892049  26.9875812 141.6755096  73.0577688  35.1855073 138.4342423
  73.2329444  34.7143117 139.2488045  72.3710476  35.8120840 138.6623683
  76.9493943  26.8083614 134.7542784  76.3323113  26.0830442 134.6575836
  76.4810431  27.5692974 134.4109858  67.6238773  38.3344436 145.2082283
  67.8635372  38.9662960 145.8861301  66.7807970  37.9832476 145.4947642
  68.7392489  21.0269038 133.8764088  67.8621955  20.9057839 133.5126335
  69.2150242  20.2355117 133.6242977  71.9256415  33.3795329 141.1226608
  71.1423937  33.9217009 141.2164833  72.6249160  33.8969308 141.5220850
  76.3182846  27.9461645 141.3399237  75.3839124  28.0663108 141.1703942
  76.4959514  27.0434112 141.0759247  79.7055397  23.7878965 141.8749271
  80.1715849  24.6206956 141.8009574  80.1562897  23.3223946 142.5794530
  77.7731628  30.1322786 138.8735423  78.0491472  30.0179381 139.7829298
  76.9036127  29.7340271 138.8347597  74.4085692  34.3809137 142.5168237
  74.5908087  33.5630793 142.9795989  75.2318678  34.5976829 142.0793127
  74.7427858  33.3077322 139.7783286  75.2715624  32.7969777 139.1653448
  75.0056077  32.9919852 140.6428819  68.0983606  34.3592439 142.5381061
  67.4293981  34.8438566 142.0545102  67.9596475  34.6061659 143.4524440
  75.3757261  34.3418158 146.1227402  75.2508401  33.5407898 145.6138347
  76.0336352  34.8364351 145.6341372  74.4438603  31.9379894 143.9511304
  74.2963565  31.0096601 144.1318874  75.2692097  31.9599985 143.4668380
  78.0472725  32.7608453 145.0376177  78.9719272  32.5551314 144.9000628
  77.8788028  32.5124854 145.9465519  77.8368041  33.2794120 140.3938269
  78.0104919  32.7140543 139.6412121  78.3296932  34.0795015 140.2117758
  83.6907432  26.0430543 142.0128568  84.1338578  25.2937868 141.6147692
  82.8133943  26.0340679 141.6302300  78.8243214  32.5960885 137.4935167
  79.5194118  33.2167577 137.7122481  79.1666364  31.7456236 137.7687545
  80.7234637  30.0460590 139.0222498  81.2485961  30.3847863 138.2971818
  80.6356989  29.1107605 138.8385632  72.4075297  36.1132573 143.3817751
  71.9680288  35.6208952 144.0750607  73.1583414  35.5705541 143.1409826
  69.4162677  30.2074506 138.9298513  69.5650797  30.8909970 138.2765186
  70.2229120  30.1879596 139.4447969  83.2340297  27.5135781 144.4051016
  84.0687188  27.9525585 144.5688576  83.3699426  27.0374435 143.5859262
  72.9158082  32.7022636 136.4010260  72.3432049  33.3212823 135.9480732
  73.4890876  33.2521998 136.9350182  76.1355342  32.9859786 137.5318843
  77.0686015  32.9205348 137.7351718  76.0478555  33.8216053 137.0733375
  78.7643359  32.3025657 134.4922790  78.6856990  31.9685520 135.3858548
  79.5853025  32.7947425 134.4914263  73.3004881  24.0383449 133.7426313
  74.2463985  23.9089657 133.8114731  72.9219126  23.2998111 134.2195741
  71.4847798  21.9633425 133.6781198  70.5779253  21.6666538 133.7543912
  71.7623779  21.6663243 132.8115484  70.2546582  18.8220361 133.8193177
  71.1165746  19.1475259 134.0788995  70.4396926  18.0351857 133.3066243
  76.3347310  29.6193652 134.1132769  77.0383160  29.8243655 134.7290424
  75.6109959  30.1870414 134.3781852  77.1645121  25.3703513 140.2335039
  77.1080322  25.8272065 139.3942671  77.7173463  24.6094198 140.0557881
  85.2862264  23.8989319 143.5656450  84.7261822  23.9682508 144.3388012
  84.6805768  23.7230303 142.8455946  78.2434008  30.0576181 136.1631229
  79.0779612  29.6257380 135.9808703  78.0818351  29.8858195 137.0908123
  77.8979900  26.5608295 137.5287568  77.8428704  26.3952566 136.5876012
  77.2725955  27.2684328 137.6849758  71.1365589  34.7385294 145.1940643
  70.1861220  34.7387156 145.0805015  71.4398075  33.9918029 144.6776678
  86.8718283  40.5745832 146.2586405  87.5096693  40.4552580 145.5549745
  86.7539126  41.5226676 146.3174357  83.6807989  40.5273261 146.1947930
  83.3426501  40.4114325 145.3068465  84.5497757  40.1264426 146.1748936
  79.5394805  42.3808737 142.1844821  78.9759670  42.2898674 141.4161109
  79.4247200  41.5608641 142.6647314  84.1627772  41.6808112 152.1534136
  84.1516413  41.2860911 151.2814639  84.3248412  40.9474185 152.7467907
  77.0859237  43.8759929 145.0229041  77.8780529  43.5350753 144.6075341
  77.3255887  43.9854904 145.9431195  85.1194363  46.0479705 137.4959286
  84.4682343  46.6333785 137.1093300  85.9138726  46.5785900 137.5554323
  79.0449991  43.1368842 137.8946420  79.8180867  42.5897829 137.7559296
  79.3975390  44.0013091 138.1060882  80.8835033  44.4645224 151.1013320
  80.5924899  45.3690855 150.9859986  81.5192018  44.5061752 151.8157389
  81.8091240  41.8422073 147.6914679  82.4054812  41.6178095 146.9771642
  81.8666212  41.1006818 148.2940127  81.3816268  39.2961508 135.5264870
  81.6341789  38.7743029 134.7648333  80.4440828  39.1327653 135.6291554
  86.4259551  38.2997286 143.3339613  87.2122641  37.8816709 142.9830030
  86.6898256  39.2043378 143.5021262  86.5969629  43.7370137 138.0328270
  85.9615462  43.8104763 138.7449175  86.2667035  44.3263735 137.3547349
  91.8267978  38.2372519 144.2372592  92.5593150  37.6671736 144.4710421
  91.0707334  37.8494120 144.6779097  81.1012557  41.1989614 137.7289245
  80.9848815  40.5234517 138.3970329  81.2114817  40.7121988 136.9121398
  83.4444098  40.6599761 141.4335934  83.0802305  40.1330382 142.1448856
  84.3011214  40.2698230 141.2602420  89.3493399  31.9494094 148.6967200
  89.0176724  32.8189505 148.4728415  88.7539012  31.6330378 149.3761231
  83.0849585  35.6889661 136.4297283  83.2523987  36.5569897 136.7967754
  82.8946754  35.8516942 135.5058572  85.8424918  44.1506640 148.0963113
  85.5425641  45.0531678 147.9878920  85.4975978  43.8838823 148.9484266
  79.2937400  40.6020436 144.1299818  78.3687896  40.4696651 144.3377509
  79.5421813  41.3814656 144.6269760  89.2422062  36.6689180 145.7760551
  88.3338939  36.6004588 145.4819312  89.1909658  37.1461125 146.6042376
  83.0638806  38.1447318 137.4143950  82.9438431  38.5904369 138.2529430
  82.3691394  38.4932636 136.8557488  76.6546211  40.2453710 144.9643607
  76.7838592  40.4988189 145.8783018  75.9743662  40.8381418 144.6448262
  80.8245698  50.9150960 141.0634081  80.7469728  51.8658785 141.1422561
  80.2207342  50.5696832 141.7209007  91.1083708  34.8705618 147.5538424
  90.4658089  35.1638151 146.9078219  90.6038637  34.7558539 148.3591621
  88.7623872  38.6168791 138.2424284  89.6741728  38.8496178 138.0671981
  88.2533519  39.2005836 137.6799362  81.5709300  40.8964279 153.2813415
  82.3123985  41.4349323 153.0048238  80.8646286  41.5230567 153.4384967
  87.0464640  43.0393419 151.8785576  87.4547996  42.5975830 151.1340209
  86.3241901  42.4646047 152.1319769  83.3995710  37.9766026 149.2519133
  84.2456905  38.4005440 149.3953782  83.3394348  37.3199650 149.9457696
  87.3693454  43.5994610 145.6337865  86.7402317  43.7640324 144.9313933
  86.9819117  44.0136219 146.4048829  91.2482686  44.5349048 142.9882229
  90.5633724  44.9147949 142.4379262  91.3326536  45.1444374 143.7214177
  86.5495155  35.6370394 150.9100307  86.3056087  36.3912455 150.3734583
  86.8255086  36.0155742 151.7447554  88.5033618  42.1809007 149.5877572
  88.7150513  42.8240767 148.9111954  88.4563366  41.3471323 149.1199503
  86.1059847  34.7926827 146.4914145  85.2444326  35.0908081 146.7830882
  86.1322282  35.0097226 145.5595177  82.9221416  43.3369018 142.8987950
  83.3859762  43.6156721 142.1092573  82.6578214  42.4352462 142.7161041
  79.8145497  42.8840499 145.8367714  80.3846854  43.3127768 145.1985198
  80.4053609  42.6023084 146.5351899  81.8590302  39.4592170 139.7077515
  82.5614346  39.9113214 140.1751442  81.5270931  38.8175989 140.3357409
  75.6015636  37.7175723 145.0094649  74.8114690  37.9733251 144.5334760
  76.0926884  38.5324061 145.1146690  89.6179446  45.0580962 147.7599930
  90.4396890  44.6561149 147.4782611  89.6141849  44.9549196 148.7116046
  77.5530382  38.0820302 141.9678126  76.7561545  38.1938996 142.4861621
  77.3255974  38.4206954 141.1019016  83.3836049  44.6065005 149.9160640
  83.4480482  45.0685413 150.7518812  82.6746973  43.9762370 150.0442950
  73.8853339  37.9706213 147.4409640  74.1361378  38.8553223 147.7067216
  74.4212888  37.7910815 146.6684732  97.7085439  41.4019711 144.1084901
  96.9549147  40.8327109 143.9528906  97.8432980  41.3682375 145.0555536
  83.0984067  46.2733113 139.7839621  82.9629742  47.1184649 140.2124468
  83.6393879  46.4752391 139.0205554  76.5513464  43.7908551 140.3567546
  77.0637985  44.5851801 140.5073110  77.2036177  43.0934841 140.2901147
  78.3608349  46.9074307 142.4390299  78.5374977  47.8292272 142.2511283
  79.1565183  46.5932726 142.8684679  84.7252543  46.8956679 153.9139963
  84.2816398  46.1093058 153.5960867  85.3869757  47.0835830 153.2483854
  79.4839665  48.4252481 148.4400641  80.0347090  48.2969544 147.6677635
  78.6451140  48.7247370 148.0895534  86.8233781  47.1759479 151.9421364
  86.8052257  47.9968360 151.4501633  87.7453701  47.0513555 152.1671505
  83.2806836  44.6903609 152.7844872  83.8135172  43.9291897 152.5544180
  82.7520917  44.3977261 153.5269027  86.4476531  29.7963675 148.3138514
  86.1040800  30.6865316 148.2377625  86.8155493  29.6065332 147.4508099
  74.5162381  42.1197205 141.1327116  75.3537603  42.5294214 140.9160824
  74.6940649  41.1796647 141.1027310  86.4126813  39.7872286 136.8210949
  85.8973437  40.5576891 137.0599337  86.1404122  39.1137422 137.4444011
  83.9973924  34.6321987 141.8796188  83.1415521  34.2428837 141.7001826
  84.4100876  34.7113947 141.0195973  85.5273071  32.1668330 146.2787747
  85.0237867  32.1298465 145.4655553  85.8203678  33.0761073 146.3384404
  81.7715957  32.2507060 145.2853929  82.6368954  32.0549868 144.9259819
  81.8393466  32.0217411 146.2123286  91.3861087  42.5404641 138.7564123
  90.6090530  42.2015800 138.3119285  92.0652568  42.5457264 138.0819088
  86.2013116  37.6599378 138.6470730  85.8963252  37.9745527 139.4980874
  87.1543559  37.7380798 138.6898063  84.6459548  43.8189601 140.2963684
  84.1180910  43.0842361 139.9836922  84.1447051  44.5964278 140.0503653
  89.6252394  42.0138622 145.4130731  88.9676069  42.7037883 145.5010859
  90.4292794  42.4035054 145.7564717  79.3778276  34.4809268 142.6570296
  79.9522028  34.2584449 141.9243489  79.9649258  34.5497962 143.4098897
  88.4357853  40.3682994 143.4634672  88.9489735  41.0012986 143.9656382
  89.0859077  39.7684190 143.0978032  79.7047863  36.5113729 136.6766181
  78.8685175  36.8488415 136.9975456  79.5652633  36.3762708 135.7393318
  81.6800944  31.3550516 141.3845365  81.0265356  31.0399534 140.7601980
  81.6381418  30.7326257 142.1105188  82.7912148  41.6369812 133.2998657
  81.8839210  41.4059065 133.4989806  83.2883180  40.8407431 133.4872639
  85.6980227  50.3467319 136.2195344  85.0241926  50.6499016 136.8280301
  86.0846049  51.1496399 135.8700801  84.9138684  37.8432450 145.7093013
  83.9961245  38.0647397 145.5514701  85.3298828  37.9178760 144.8504720
  85.6973732  39.2423866 140.8395693  86.4445551  39.7545263 140.5302815
  85.9665321  38.9207918 141.7000087  83.9700382  41.7382406 137.8222648
  83.0611601  41.4541439 137.9195117  83.9995466  42.1581485 136.9625954
  89.2019649  45.3488996 141.5913815  88.7481976  44.5079906 141.6479006
  88.5713616  45.9850394 141.9288595  88.1452569  36.2780982 142.8214483
  87.4075326  35.7658368 143.1524725  88.3979342  35.8381364 142.0097759
  87.6452589  47.1865493 142.5263633  87.9375563  47.7470550 141.8075999
  88.1551209  47.4794054 143.2816792  88.2464196  29.0557234 143.4156252
  88.5523073  28.1954597 143.1282167  88.9716801  29.6474854 143.2155246
  74.5388552  39.4587921 141.8037850  74.3412952  38.8657281 141.0788916
  73.9835216  39.1540131 142.5213789  82.5185276  39.3511027 143.9232443
  82.5733886  38.3984863 143.8474919  81.7076478  39.5070466 144.4073741
  83.6676470  43.2791150 135.1610726  83.2295900  42.5627009 134.7016363
  84.4086911  43.5067265 134.5995817  80.4577636  37.9688087 141.6822822
  79.6445501  38.2682257 142.0888014  80.9536630  37.5743776 142.3997304
  82.6086214  47.9645844 143.6157086  82.5662393  48.1906690 142.6865618
  83.5248913  47.7309218 143.7642888  86.0551848  38.4329911 150.5137716
  86.4101235  38.6601384 151.3732181  86.7023979  38.7648288 149.8914971
  91.7849585  41.5548347 141.2187045  91.6467483  41.7449943 140.2908234
  91.4285803  42.3167730 141.6755096  79.9491711  35.5406442 147.2984057
  80.5891090  35.3995201 146.6007020  79.1169241  35.2540956 146.9222659
  91.8118964  43.6224874 146.2298316  92.2455471  43.5300163 147.0781370
  92.5250545  43.5982375 145.5918332  80.7252015  44.8408873 143.4119049
  81.5192613  44.3459193 143.2101624  80.0143707  44.3126736 143.0486755
  85.5446859  47.2226968 147.7631417  85.5983881  47.7917905 148.5309133
  84.6761640  47.3928853 147.3985454  77.0334778  38.9851954 139.4878802
  76.1032366  38.9236410 139.7048764  77.1292250  38.4627907 138.6915443
  76.9520327  35.5106767 142.0757043  77.2127144  36.4252101 141.9666204
  77.7737499  35.0431210 142.2253656  78.4245252  36.9244524 149.2455868
  79.0968306  36.7161887 148.5968517  77.5975039  36.7266610 148.8061100
  92.6734514  43.6648575 148.7631202  92.8670404  44.5694385 149.0090476
  92.5735132  43.2055994 149.5969787  87.7349622  43.8155318 154.3372082
  87.5835129  43.5865869 153.4202166  87.7254302  44.7725919 154.3503427
  84.5034959  41.3887230 149.3218349  85.4327019  41.5398390 149.1487316
  84.0825989  41.4771251 148.4666995  83.3023291  45.4137895 147.0916886
  83.1634376  45.0456679 147.9642824  82.5137887  45.9285534 146.9200844
  83.8971443  50.5146991 138.4342423  84.0723198  50.0435034 139.2488045
  83.2104231  51.1412757 138.6623683  84.8528506  44.7919497 144.4805724
  84.5178338  44.7520267 145.3763374  84.3532451  44.1264213 144.0076134
  78.8272750  40.1987127 150.0058305  78.6892548  39.4667366 150.6069844
  79.7377673  40.1096028 149.7242493  87.7887697  42.1375532 134.7542784
  87.1716868  41.4122360 134.6575836  87.3204186  42.8984892 134.4109858
  81.4555050  39.9107087 149.4941985  82.1654669  39.2700279 149.4528603
  81.4124358  40.1619982 150.4168166  89.4441829  46.8474440 152.4148564
  89.3854375  46.1633660 151.7479147  89.8461347  47.5893430 151.9629190
  78.4632528  53.6636354 145.2082283  78.7029126  54.2954878 145.8861301
  77.6201724  53.3124394 145.4947642  79.5786243  36.3560956 133.8764088
  78.7015710  36.2349757 133.5126335  80.0543996  35.5647034 133.6242977
  89.4459236  44.8114024 150.6462544  88.5586015  44.4739946 150.7688943
  90.0157787  44.0797055 150.8831309  71.0988383  41.1438116 143.9705595
  71.7859423  40.8299846 143.3826610  70.9436512  42.0479480 143.6972847
  82.9760390  49.4715476 147.6123787  82.9030561  50.2770448 148.1243091
  82.5337783  49.6707442 146.7871808  82.7650169  48.7087246 141.1226608
  81.9817691  49.2508927 141.2164833  83.4642914  49.2261226 141.5220850
  86.0746819  34.5181876 143.7660814  86.5715519  33.7651838 143.4461884
  85.3033801  34.5546193 143.2004023  93.9276577  40.2222241 145.4079105
  93.9166453  41.1046957 145.0373038  93.0593956  39.8693792 145.2133642
  85.4359073  49.3702310 149.7681946  86.1487045  50.0049775 149.6957847
  84.9449102  49.4666176 148.9521947  87.1576600  43.2753563 141.3399237
  86.2232879  43.3955026 141.1703942  87.3353269  42.3726030 141.0759247
  82.6581788  36.6599259 143.4932498  82.2879576  36.1070299 144.1813404
  83.1540881  36.0557392 142.9407498  90.5449151  39.1170882 141.8749271
  91.0109604  39.9498874 141.8009574  90.9956652  38.6515864 142.5794530
  80.4870987  47.1196754 150.5887516  81.1880446  47.7533237 150.7416911
  80.0166102  47.4611485 149.8283156  88.6125383  45.4614704 138.8735423
  88.8885226  45.3471298 139.7829298  87.7429881  45.0632189 138.8347597
  88.5165814  31.4851469 145.9140173  87.6028894  31.7155696 146.0822380
  88.9458916  31.5689913 146.7654205  88.2872273  39.6741361 148.4140067
  87.6343723  39.9217269 147.7592520  88.6652653  38.8605500 148.0802544
  85.2479447  49.7101055 142.5168237  85.4301841  48.8922710 142.9795989
  86.0712433  49.9268747 142.0793127  85.5821612  48.6369240 139.7783286
  86.1109378  48.1261694 139.1653448  85.8449832  48.3211770 140.6428819
  76.0838705  46.6533109 147.5218619  76.6692142  45.9076797 147.6546523
  75.8863543  46.9637066 148.4055283  78.9377360  49.6884356 142.5381061
  78.2687735  50.1730484 142.0545102  78.7990230  49.9353577 143.4524440
  70.6756360  39.2238709 146.2423062  70.7140459  38.6902300 147.0360180
  70.1696652  38.6973915 145.6234039  83.0782629  51.7228100 149.1363720
  83.6300937  51.8859721 149.9012805  83.4188822  52.3132538 148.4643745
  87.9293503  46.5489357 154.9912374  88.4733407  47.1619316 154.4967329
  87.3480348  47.1068936 155.5079387  74.3064937  37.9502811 139.3176994
  74.6018378  37.0413490 139.2644047  73.4052973  37.9290551 138.9957996
  86.2151016  49.6710075 146.1227402  86.0902155  48.8699815 145.6138347
  86.8730107  50.1656269 145.6341372  77.8359184  36.0258808 145.3004542
  77.1145770  36.6394776 145.1612016  78.6252440  36.5616573 145.2221188
  88.2785924  47.4719095 147.7506952  87.3316260  47.3524447 147.6785279
  88.6268697  46.5841593 147.8333214  76.0352779  35.6316909 139.4416319
  75.7065485  34.7514288 139.2591425  76.3892149  35.5764578 140.3292708
  85.2832358  47.2671812 143.9511304  85.1357320  46.3388519 144.1318874
  86.1085851  47.2891902 143.4668380  79.1494602  35.9189879 139.8091796
  79.4890674  36.4475800 139.0870405  79.5966722  36.2570285 140.5850363
  88.8866479  48.0900370 145.0376177  89.8113027  47.8843232 144.9000628
  88.7181783  47.8416772 145.9465519  82.4954514  31.3876242 147.7122188
  83.3180584  30.9136720 147.5901078  82.7392578  32.1666726 148.2120874
  81.1362749  34.4164500 138.0085089  81.8571111  34.7945753 137.5048806
  80.5128053  35.1353377 138.1120067  85.2793872  35.1209649 138.9443422
  85.4957486  36.0034287 138.6432250  84.7987939  34.7295863 138.2149064
  80.0193093  38.0795363 145.5214166  79.8737674  38.3935666 146.4138448
  79.5418297  38.6980263 144.9685065  81.8789476  35.0697911 145.5695056
  81.8651045  34.1739004 145.2327354  82.5961904  35.0768574 146.2033342
  83.7315607  35.5035251 147.6148183  83.4733385  36.4252321 147.6132514
  83.2000647  35.1065685 148.3048647  88.6761796  48.6086038 140.3938269
  88.8498673  48.0432460 139.6412121  89.1690687  49.4086933 140.2117758
  74.4938755  40.6200707 148.4601827  73.9492223  41.3960515 148.5922102
  75.3718105  40.9671511 148.3020949  81.2826372  33.9512291 140.8382626
  81.4042283  33.0228937 141.0373513  80.9928414  33.9650977 139.9260941
  84.1517562  31.6367201 143.9749346  84.1739259  31.7006534 143.0201325
  84.5685621  30.7971710 144.1689852  94.5301187  41.3722461 142.0128568
  94.9732333  40.6229786 141.6147692  93.6527697  41.3632597 141.6302300
  89.6636968  47.9252802 137.4935167  90.3587873  48.5459495 137.7122481
  90.0060118  47.0748153 137.7687545  91.5628391  45.3752508 139.0222498
  92.0879715  45.7139781 138.2971818  91.4750744  44.4399523 138.8385632
  83.2248440  49.2886581 151.1512374  83.5335566  49.0435728 152.0235074
  84.0223922  49.4933220 150.6631244  83.2469052  51.4424491 143.3817751
  82.8074042  50.9500870 144.0750607  83.9977169  50.8997459 143.1409826
  75.7261391  47.6336032 143.3842379  76.5519411  47.3339804 143.0041022
  75.3755443  46.8643654 143.8332167  80.6942924  46.9862500 145.4540052
  80.0722933  46.3233205 145.1542280  81.3647791  47.0123632 144.7713700
  73.9269996  45.5522358 144.3431312  73.0901904  45.1244533 144.1615314
  73.8993641  45.7454802 145.2802104  91.2522297  46.0085411 154.3273696
  90.4617841  45.9909550 153.7878195  91.0155652  46.5473705 155.0822732
  91.3720172  42.8577878 151.6406424  91.4218177  42.6927885 152.5821947
  91.2634096  41.9905137 151.2504305  80.2556431  45.5366423 138.9298513
  80.4044551  46.2201888 138.2765186  81.0622874  45.5171514 139.4447969
  88.6623935  38.8408806 152.9565731  89.5633797  38.7015271 152.6649729
  88.7371909  39.0063261 153.8963908  92.8738369  45.2774819 151.8848446
  92.5823177  45.6404800 152.7211907  92.2610500  44.5641828 151.7061778
  94.0734051  42.8427699 144.4051016  94.9080943  43.2817503 144.5688576
  94.2093180  42.3666352 143.5859262  91.1225557  40.4007434 150.3528504
  91.5979679  40.5935080 149.5447355  90.1991123  40.4566620 150.1071887
  78.0109064  41.5631601 139.9359582  77.7655106  40.6593931 140.1339792
  78.1804979  41.5648752 138.9939060  85.7005774  32.4355278 149.3184337
  86.2187718  33.1716304 148.9930826  85.3460907  32.7419271 150.1531097
  77.2804712  37.2959959 137.4345743  76.5873956  37.3704314 136.7785779
  77.0356463  36.5320302 137.9567260  85.9518368  28.8555560 144.8385234
  86.2320122  28.1878749 145.4645661  86.7368975  29.0484656 144.3259898
  83.7551837  48.0314554 136.4010260  83.1825804  48.6504741 135.9480732
  84.3284630  48.5813916 136.9350182  89.8227226  37.2773194 148.5856809
  90.7744649  37.3771292 148.6069033  89.6530677  36.4851463 149.0954894
  87.8441606  34.3628777 148.7716210  87.2491538  34.6433790 148.0762699
  87.5591303  34.8522678 149.5432951  86.9749096  48.3151704 137.5318843
  87.9079769  48.2497266 137.7351718  86.8872309  49.1507971 137.0733375
  89.6037113  47.6317574 134.4922790  89.5250745  47.2977438 135.3858548
  90.4246780  48.1239342 134.4914263  92.3015304  40.4979314 147.6999109
  92.2691624  39.5595314 147.8858793  92.9115928  40.5763350 146.9664934
  84.1398635  39.3675367 133.7426313  85.0857740  39.2381575 133.8114731
  83.7612880  38.6290029 134.2195741  92.4509793  37.2890357 147.7457392
  91.9348841  36.5048814 147.5587321  93.3349741  36.9609074 147.9103911
  90.1120520  31.0331373 143.7053205  89.9145341  30.7246461 144.5896537
  90.7220225  31.7593012 143.8351135  98.1191854  41.5595321 146.8405146
  98.8495243  41.2980609 147.4012849  97.5098800  40.8224042 146.8807214
  96.2007151  39.7003183 147.4379597  95.4740315  39.5659148 146.8296088
  95.7854438  40.0080012 148.2436315  84.0237328  43.4193113 155.2026970
  84.9440337  43.5971712 155.3967016  83.9886911  42.4749158 155.0506669
  82.3241552  37.2925343 133.6781198  81.4173008  36.9958456 133.7543912
  82.6017533  36.9955161 132.8115484  73.2419493  38.6131706 144.1280245
  72.9222277  37.7597015 143.8354619  72.6952921  38.8280285 144.8838212
  77.0199400  41.3294147 147.8449751  77.2385410  42.2611255 147.8637785
  77.4325174  40.9702122 148.6304555  83.9403618  31.8362233 139.8325439
  83.1304346  31.4909318 140.2080685  84.6288035  31.5269777 140.4213051
  85.8694166  30.9140280 141.4549736  86.4225205  31.3335733 142.1139759
  86.1064253  29.9876028 141.4972692  81.0940337  34.1512278 133.8193177
  81.9559501  34.4767177 134.0788995  81.2790681  33.3643774 133.3066243
  73.1107753  42.2334618 146.0973366  72.4171224  41.8188571 145.5843320
  73.8580744  42.2755154 145.5006785  89.2472973  33.0240805 140.9628400
  88.6671642  33.6825609 140.5806453  88.9808906  32.2018149 140.5515818
  87.6976540  32.4245862 143.1649721  88.1976318  32.5362397 142.3564039
  88.3412148  32.1206915 143.8050529  75.0244495  42.1652872 143.9739381
  75.0015183  42.2640559 143.0221264  75.3345132  43.0118023 144.2956547
  77.6831873  44.2229027 148.0885995  78.6375127  44.1912969 148.0215927
  77.4844397  43.7619651 148.9036221  78.2731255  42.7930143 150.6556793
  79.0924144  43.2874222 150.6791630  78.5468063  41.8762111 150.6274361
  88.0297851  35.1840895 140.0184749  87.1423706  35.4690546 139.8004943
  88.4451840  35.0234659 139.1712025  91.3812387  35.2087416 143.7339088
  92.1572778  35.6983869 144.0063705  90.6560522  35.6345470 144.1910957
  93.8184946  35.9215035 144.7913028  94.4129437  35.6810771 144.0806337
  93.8911530  35.2022166 145.4186565  76.0382102  49.7648646 145.1056193
  75.9036570  49.0049047 144.5394191  75.6214164  50.4889546 144.6384982
  87.1741065  44.9485570 134.1132769  87.8776915  45.1535572 134.7290424
  86.4503714  45.5162332 134.3781852  88.0038875  40.6995431 140.2335039
  87.9474076  41.1563982 139.3942671  88.5567218  39.9386116 140.0557881
  91.8143681  36.4885163 141.0585158  91.5580615  36.0881799 141.8893366
  91.1896549  37.2028957 140.9335297  96.1256019  39.2281236 143.5656450
  95.5655577  39.2974426 144.3388012  95.5199522  39.0522221 142.8455946
  79.1951228  50.6617963 145.3174636  79.0783612  51.6063396 145.2153326
  78.3743674  50.3591525 145.7060435  89.0827762  45.3868099 136.1631229
  89.9173366  44.9549297 135.9808703  88.9212105  45.2150113 137.0908123
  88.7373654  41.8900212 137.5287568  88.6822458  41.7244484 136.5876012
  88.1119710  42.5976245 137.6849758  86.0519562  44.1949124 156.8541131
  86.9210721  44.3689776 156.4927766  85.5726313  45.0143541 156.7316860
  82.0469780  31.3908321 137.1072886  82.0348450  32.3350161 137.2641157
  82.9393202  31.2078467 136.8132347  80.2205742  51.3146225 148.5330564
  81.1232988  51.3469835 148.8497059  79.9943112  50.3846676 148.5476900
  81.9759344  50.0677212 145.1940643  81.0254975  50.0679073 145.0805015
  82.2791830  49.3209946 144.6776678  85.8621899  27.9851098 141.3618823
  85.0954295  27.4309585 141.5075505  86.2732604  28.0572967 142.2232975
  97.7112037  55.9037750 146.2586405  98.3490447  55.7844497 145.5549745
  97.5932880  56.8518594 146.3174357  94.5201744  55.8565178 146.1947930
  94.1820255  55.7406243 145.3068465  95.3891512  55.4556343 146.1748936
  90.3788559  57.7100655 142.1844821  89.8153424  57.6190592 141.4161109
  90.2640954  56.8900559 142.6647314  95.0021527  57.0100030 152.1534136
  94.9910167  56.6152828 151.2814639  95.1642166  56.2766103 152.7467907
  87.9252991  59.2051846 145.0229041  88.7174283  58.8642671 144.6075341
  88.1649641  59.3146821 145.9431195  95.9588118  61.3771622 137.4959286
  95.3076098  61.9625703 137.1093300  96.7532481  61.9077817 137.5554323
  89.8843745  58.4660759 137.8946420  90.6574621  57.9189747 137.7559296
  90.2369144  59.3305009 138.1060882  91.7228788  59.7937142 151.1013320
  91.4318654  60.6982773 150.9859986  92.3585772  59.8353669 151.8157389
  92.6484995  57.1713990 147.6914679  93.2448567  56.9470013 146.9771642
  92.7059966  56.4298736 148.2940127  92.2210023  54.6253426 135.5264870
  92.4735544  54.1034947 134.7648333  91.2834582  54.4619571 135.6291554
  97.2653306  53.6289204 143.3339613  98.0516395  53.2108627 142.9830030
  97.5292010  54.5335296 143.5021262  97.4363383  59.0662054 138.0328270
  96.8009216  59.1396681 138.7449175  97.1060790  59.6555653 137.3547349
 102.6661733  53.5664437 144.2372592 103.3986905  52.9963654 144.4710421
 101.9101089  53.1786038 144.6779097  91.9406312  56.5281532 137.7289245
  91.8242570  55.8526435 138.3970329  92.0508572  56.0413905 136.9121398
  94.2837853  55.9891679 141.4335934  93.9196060  55.4622300 142.1448856
  95.1404969  55.5990148 141.2602420 100.1887153  47.2786011 148.6967200
  99.8570478  48.1481422 148.4728415  99.5932767  46.9622295 149.3761231
  93.9243340  51.0181578 136.4297283  94.0917742  51.8861815 136.7967754
  93.7340509  51.1808860 135.5058572  96.6818673  59.4798557 148.0963113
  96.3819396  60.3823596 147.9878920  96.3369732  59.2130740 148.9484266
  90.1331154  55.9312354 144.1299818  89.2081651  55.7988568 144.3377509
  90.3815567  56.7106573 144.6269760 100.0815817  51.9981097 145.7760551
  99.1732694  51.9296506 145.4819312 100.0303412  52.4753042 146.6042376
  93.9032560  53.4739236 137.4143950  93.7832186  53.9196287 138.2529430
  93.2085149  53.8224554 136.8557488  87.4939965  55.5745628 144.9643607
  87.6232346  55.8280107 145.8783018  86.8137417  56.1673336 144.6448262
  91.6639453  66.2442878 141.0634081  91.5863482  67.1950703 141.1422561
  91.0601096  65.8988750 141.7209007  94.1556682  53.4170743 153.7195448
  93.3790016  53.9764663 153.7098312  94.7947245  53.9027526 154.2410318
 101.9477463  50.1997536 147.5538424 101.3051843  50.4930069 146.9078219
 101.4432391  50.0850456 148.3591621  99.6017627  53.9460709 138.2424284
 100.5135483  54.1788096 138.0671981  99.0927274  54.5297753 137.6799362
  92.4103055  56.2256196 153.2813415  93.1517739  56.7641240 153.0048238
  91.7040040  56.8522485 153.4384967  97.8858394  58.3685337 151.8785576
  98.2941750  57.9267747 151.1340209  97.1635656  57.7937964 152.1319769
  94.2389464  53.3057944 149.2519133  95.0850660  53.7297357 149.3953782
  94.1788102  52.6491568 149.9457696  98.2087209  58.9286527 145.6337865
  97.5796071  59.0932242 144.9313933  97.8212871  59.3428137 146.4048829
 102.0876441  59.8640965 142.9882229 101.4027479  60.2439867 142.4379262
 102.1720290  60.4736292 143.7214177  97.3888910  50.9662312 150.9100307
  97.1449842  51.7204373 150.3734583  97.6648840  51.3447660 151.7447554
  99.3427372  57.5100924 149.5877572  99.5544268  58.1532684 148.9111954
  99.2957121  56.6763241 149.1199503  96.9453601  50.1218745 146.4914145
  96.0838080  50.4199999 146.7830882  96.9716036  50.3389144 145.5595177
  93.7615171  58.6660936 142.8987950  94.2253516  58.9448639 142.1092573
  93.4971969  57.7644380 142.7161041  90.6539252  58.2132417 145.8367714
  91.2240609  58.6419685 145.1985198  91.2447364  57.9315002 146.5351899
  92.6984057  54.7884088 139.7077515  93.4008100  55.2405132 140.1751442
  92.3664685  54.1467907 140.3357409  91.1464418  53.3795845 154.0828725
  90.5163079  54.0612125 154.3164122  91.0400506  53.2678926 153.1381863
  86.4409391  53.0467641 145.0094649  85.6508445  53.3025169 144.5334760
  86.9320638  53.8615978 145.1146690 100.4573200  60.3872880 147.7599930
 101.2790644  59.9853067 147.4782611 100.4535603  60.2841114 148.7116046
  88.3924136  53.4112220 141.9678126  87.5955299  53.5230914 142.4861621
  88.1649728  53.7498872 141.1019016  94.2229804  59.9356923 149.9160640
  94.2874236  60.3977330 150.7518812  93.5140728  59.3054288 150.0442950
  84.7247094  53.2998131 147.4409640  84.9755132  54.1845141 147.7067216
  85.2606642  53.1202733 146.6684732 108.5479193  56.7311628 144.1084901
 107.7942902  56.1619026 143.9528906 108.6826735  56.6974293 145.0555536
  93.9377821  61.6025031 139.7839621  93.8023496  62.4476566 140.2124468
  94.4787634  61.8044308 139.0205554  90.4245161  47.6816610 156.4453976
  90.0312107  47.1282809 157.1201620  91.2411301  47.9927189 156.8360493
  87.3907219  59.1200469 140.3567546  87.9031739  59.9143719 140.5073110
  88.0429932  58.4226759 140.2901147  89.2002104  62.2366225 142.4390299
  89.3768732  63.1584190 142.2511283  89.9958937  61.9224644 142.8684679
  93.3413122  49.0974490 154.0374232  94.0822835  49.6981643 153.9578695
  93.5731045  48.3552127 153.4792275  88.4854460  54.2830857 152.3152462
  88.3707975  53.3816114 152.6159561  87.6298978  54.5294554 151.9637279
  95.5646298  62.2248597 153.9139963  95.1210152  61.4384976 153.5960867
  96.2263511  62.4127748 153.2483854  90.3233419  63.7544399 148.4400641
  90.8740844  63.6261462 147.6677635  89.4844895  64.0539288 148.0895534
  97.6627536  62.5051397 151.9421364  97.6446011  63.3260278 151.4501633
  98.5847456  62.3805472 152.1671505  94.1200590  60.0195526 152.7844872
  94.6528927  59.2583815 152.5544180  93.5914671  59.7269178 153.5269027
  97.2870285  45.1255592 148.3138514  96.9434554  46.0157234 148.2377625
  97.6549248  44.9357250 147.4508099  85.3556136  57.4489123 141.1327116
  86.1931358  57.8586131 140.9160824  85.5334403  56.5088565 141.1027310
  97.2520568  55.1164204 136.8210949  96.7367191  55.8868808 137.0599337
  96.9797876  54.4429340 137.4444011  94.8367679  49.9613904 141.8796188
  93.9809275  49.5720755 141.7001826  95.2494631  50.0405865 141.0195973
  96.3666825  47.4960248 146.2787747  95.8631621  47.4590383 145.4655553
  96.6597432  48.4052990 146.3384404  92.6109711  47.5798977 145.2853929
  93.4762708  47.3841786 144.9259819  92.6787220  47.3509329 146.2123286
 102.2254842  57.8696558 138.7564123 101.4484285  57.5307718 138.3119285
 102.9046323  57.8749181 138.0819088  97.0406871  52.9891296 138.6470730
  96.7357007  53.3037445 139.4980874  97.9937313  53.0672716 138.6898063
  95.4853303  59.1481519 140.2963684  94.9574664  58.4134279 139.9836922
  94.9840806  59.9256195 140.0503653 100.4646149  57.3430539 145.4130731
  99.8069823  58.0329801 145.5010859 101.2686548  57.7326971 145.7564717
  90.2172030  49.8101185 142.6570296  90.7915782  49.5876367 141.9243489
  90.8043013  49.8789880 143.4098897  99.2751608  55.6974912 143.4634672
  99.7883489  56.3304904 143.9656382  99.9252831  55.0976108 143.0978032
  90.5441618  51.8405646 136.6766181  89.7078930  52.1780333 136.9975456
  90.4046387  51.7054626 135.7393318  92.5194698  46.6842434 141.3845365
  91.8659110  46.3691451 140.7601980  92.4775172  46.0618175 142.1105188
  93.6305903  56.9661729 133.2998657  92.7232965  56.7350983 133.4989806
  94.1276935  56.1699348 133.4872639  96.5373982  65.6759236 136.2195344
  95.8635681  65.9790933 136.8280301  96.9239804  66.4788317 135.8700801
  95.7532438  53.1724368 145.7093013  94.8355000  53.3939315 145.5514701
  96.1692582  53.2470678 144.8504720  96.5367486  54.5715783 140.8395693
  97.2839305  55.0837181 140.5302815  96.8059076  54.2499836 141.7000087
  94.8094136  57.0674324 137.8222648  93.9005356  56.7833357 137.9195117
  94.8389220  57.4873403 136.9625954 100.0413404  60.6780914 141.5913815
  99.5875731  59.8371823 141.6479006  99.4107371  61.3142312 141.9288595
  98.9846323  51.6072900 142.8214483  98.2469080  51.0950286 143.1524725
  99.2373097  51.1673281 142.0097759  98.4846343  62.5157410 142.5263633
  98.7769317  63.0762467 141.8075999  98.9944964  62.8085971 143.2816792
  99.0857951  44.3849152 143.4156252  99.3916828  43.5246515 143.1282167
  99.8110556  44.9766772 143.2155246  85.3782307  54.7879838 141.8037850
  85.1806707  54.1949199 141.0788916  84.8228971  54.4832048 142.5213789
  93.3579030  54.6802945 143.9232443  93.4127640  53.7276781 143.8474919
  92.5470232  54.8362384 144.4073741  94.5070224  58.6083068 135.1610726
  94.0689654  57.8918927 134.7016363  95.2480665  58.8359183 134.5995817
  91.2971390  53.2980004 141.6822822  90.4839256  53.5974175 142.0888014
  91.7930385  52.9035693 142.3997304  93.4479968  63.2937761 143.6157086
  93.4056147  63.5198608 142.6865618  94.3642667  63.0601136 143.7642888
  96.8945602  53.7621829 150.5137716  97.2494990  53.9893302 151.3732181
  97.5417733  54.0940206 149.8914971 102.6243339  56.8840265 141.2187045
 102.4861238  57.0741861 140.2908234 102.2679558  57.6459648 141.6755096
  90.7885465  50.8698360 147.2984057  91.4284844  50.7287119 146.6007020
  89.9562996  50.5832873 146.9222659 102.6512719  58.9516792 146.2298316
 103.0849225  58.8592081 147.0781370 103.3644299  58.9274292 145.5918332
  91.5645769  60.1700790 143.4119049  92.3586368  59.6751111 143.2101624
  90.8537461  59.6418654 143.0486755  96.3840614  62.5518886 147.7631417
  96.4377636  63.1209822 148.5309133  95.5155395  62.7220771 147.3985454
  87.8728533  54.3143872 139.4878802  86.9426121  54.2528328 139.7048764
  87.9686004  53.7919825 138.6915443  87.7914082  50.8398685 142.0757043
  88.0520899  51.7544018 141.9666204  88.6131254  50.3723128 142.2253656
  89.2639007  52.2536442 149.2455868  89.9362060  52.0453804 148.5968517
  88.4368793  52.0558528 148.8061100 103.5128268  58.9940492 148.7631202
 103.7064158  59.8986303 149.0090476 103.4128886  58.5347912 149.5969787
  95.1664579  48.8798383 151.2621529  94.5192494  49.5788333 151.1686005
  95.9365594  49.3134527 151.6297777  98.5743377  59.1447235 154.3372082
  98.4228883  58.9157787 153.4202166  98.5648056  60.1017837 154.3503427
  95.3428713  56.7179148 149.3218349  96.2720773  56.8690308 149.1487316
  94.9219743  56.8063169 148.4666995  94.1417045  60.7429812 147.0916886
  94.0028131  60.3748597 147.9642824  93.3531641  61.2577452 146.9200844
  94.7365197  65.8438909 138.4342423  94.9116953  65.3726952 139.2488045
  94.0497985  66.4704675 138.6623683  95.6922260  60.1211415 144.4805724
  95.3572093  60.0812185 145.3763374  95.1926206  59.4556131 144.0076134
  89.6666504  55.5279045 150.0058305  89.5286302  54.7959284 150.6069844
  90.5771428  55.4387945 149.7242493  98.6281452  57.4667449 134.7542784
  98.0110622  56.7414278 134.6575836  98.1597940  58.2276810 134.4109858
  92.2948805  55.2399004 149.4941985  93.0048423  54.5992197 149.4528603
  92.2518113  55.4911899 150.4168166 100.2835583  62.1766358 152.4148564
 100.2248130  61.4925578 151.7479147 100.6855102  62.9185348 151.9629190
  91.0077739  52.2264222 151.3137624  90.4715096  51.7754961 151.9659221
  90.4194447  52.3610131 150.5708089  89.3026282  68.9928272 145.2082283
  89.5422881  69.6246796 145.8861301  88.4595479  68.6416312 145.4947642
  90.4179998  51.6852874 133.8764088  89.5409464  51.5641675 133.5126335
  90.8937751  50.8938952 133.6242977 100.2852991  60.1405942 150.6462544
  99.3979770  59.8031863 150.7688943 100.8551542  59.4088973 150.8831309
  81.9382138  56.4730033 143.9705595  82.6253178  56.1591763 143.3826610
  81.7830267  57.3771398 143.6972847  86.7416860  51.3620230 148.3990619
  86.6575049  50.7545900 147.6641029  85.9199566  51.8529248 148.4000115
  93.8154144  64.8007394 147.6123787  93.7424316  65.6062366 148.1243091
  93.3731537  64.9999360 146.7871808  93.6043924  64.0379164 141.1226608
  92.8211446  64.5800844 141.2164833  94.3036669  64.5553144 141.5220850
  96.9140574  49.8473794 143.7660814  97.4109273  49.0943756 143.4461884
  96.1427555  49.8838110 143.2004023 104.7670331  55.5514159 145.4079105
 104.7560208  56.4338875 145.0373038 103.8987711  55.1985710 145.2133642
  96.2752828  64.6994228 149.7681946  96.9880800  65.3341693 149.6957847
  95.7842856  64.7958094 148.9521947  97.9970355  58.6045481 141.3399237
  97.0626633  58.7246943 141.1703942  98.1747023  57.7017948 141.0759247
  93.4975543  51.9891177 143.4932498  93.1273330  51.4362217 144.1813404
  93.9934635  51.3849310 142.9407498 101.3842906  54.4462800 141.8749271
 101.8503358  55.2790792 141.8009574 101.8350406  53.9807782 142.5794530
  91.3264741  62.4488672 150.5887516  92.0274201  63.0825155 150.7416911
  90.8559856  62.7903403 149.8283156  99.4519137  60.7906621 138.8735423
  99.7278981  60.6763216 139.7829298  98.5823636  60.3924106 138.8347597
  99.3559569  46.8143387 145.9140173  98.4422648  47.0447614 146.0822380
  99.7852670  46.8981831 146.7654205  99.1266027  55.0033279 148.4140067
  98.4737477  55.2509186 147.7592520  99.5046407  54.1897417 148.0802544
  96.0873201  65.0392972 142.5168237  96.2695596  64.2214628 142.9795989
  96.9106187  65.2560664 142.0793127  96.4215367  63.9661157 139.7783286
  96.9503133  63.4553612 139.1653448  96.6843586  63.6503688 140.6428819
  95.1753600  55.7453090 154.9006104  94.4994237  55.6447219 155.5708479
  95.9981234  55.5892304 155.3642101  86.9232459  61.9825027 147.5218619
  87.5085896  61.2368715 147.6546523  86.7257298  62.2928983 148.4055283
  89.7771114  65.0176274 142.5381061  89.1081490  65.5022402 142.0545102
  89.6383984  65.2645494 143.4524440  81.5150114  54.5530627 146.2423062
  81.5534214  54.0194218 147.0360180  81.0090407  54.0265832 145.6234039
  93.9176383  67.0520018 149.1363720  94.4694691  67.2151639 149.9012805
  94.2582577  67.6424455 148.4643745  88.8940876  49.3995167 149.7385605
  88.9582203  50.2609998 149.3263002  88.8307997  48.7869169 149.0057963
  88.3693149  51.4718300 153.3858639  88.9965188  51.0895377 153.9996163
  87.5121068  51.2532502 153.7514331  98.7687257  61.8781275 154.9912374
  99.3127161  62.4911233 154.4967329  98.1874102  62.4360853 155.5079387
  85.1458692  53.2794729 139.3176994  85.4412133  52.3705407 139.2644047
  84.2446727  53.2582468 138.9957996  97.0544770  65.0001993 146.1227402
  96.9295910  64.1991733 145.6138347  97.7123861  65.4948186 145.6341372
  88.6752939  51.3550726 145.3004542  87.9539524  51.9686693 145.1612016
  89.4646194  51.8908490 145.2221188  99.1179679  62.8011013 147.7506952
  98.1710014  62.6816364 147.6785279  99.4662452  61.9133511 147.8333214
  91.4779252  48.6905152 151.5745194  92.0013654  48.9367449 152.3371503
  91.2591585  49.5225187 151.1548331  86.8746533  50.9608827 139.4416319
  86.5459239  50.0806206 139.2591425  87.2285904  50.9056495 140.3292708
  96.1226112  62.5963729 143.9511304  95.9751074  61.6680437 144.1318874
  96.9479606  62.6183820 143.4668380  89.9888356  51.2481796 139.8091796
  90.3284429  51.7767718 139.0870405  90.4360477  51.5862203 140.5850363
  99.7260234  63.4192288 145.0376177 100.6506781  63.2135149 144.9000628
  99.5575537  63.1708689 145.9465519  92.6831797  49.6318847 149.2594865
  92.3428618  48.8326660 149.6615544  91.9770803  49.9320558 148.6871698
  93.3348269  46.7168160 147.7122188  94.1574338  46.2428638 147.5901078
  93.5786333  47.4958643 148.2120874  91.9756503  49.7456418 138.0085089
  92.6964866  50.1237671 137.5048806  91.3521808  50.4645295 138.1120067
  96.1187626  50.4501567 138.9443422  96.3351241  51.3326205 138.6432250
  95.6381693  50.0587780 138.2149064  90.8586848  53.4087280 145.5214166
  90.7131428  53.7227583 146.4138448  90.3812051  54.0272181 144.9685065
  92.7183231  50.3989828 145.5695056  92.7044799  49.5030922 145.2327354
  93.4355659  50.4060492 146.2033342  94.5709361  50.8327168 147.6148183
  94.3127139  51.7544239 147.6132514  94.0394402  50.4357603 148.3048647
  99.5155550  63.9377956 140.3938269  99.6892428  63.3724378 139.6412121
 100.0084441  64.7378850 140.2117758  85.3332510  55.9492625 148.4601827
  84.7885978  56.7252433 148.5922102  86.2111860  56.2963429 148.3020949
  92.1220127  49.2804208 140.8382626  92.2436038  48.3520855 141.0373513
  91.8322169  49.2942894 139.9260941  94.9911317  46.9659119 143.9749346
  95.0133014  47.0298452 143.0201325  95.4079376  46.1263628 144.1689852
 105.3694941  56.7014378 142.0128568 105.8126087  55.9521704 141.6147692
 104.4921452  56.6924515 141.6302300 100.5030723  63.2544720 137.4935167
 101.1981627  63.8751413 137.7122481 100.8453873  62.4040071 137.7687545
  86.1198532  55.0762521 151.3531984  85.3780268  55.2245156 151.9396615
  85.7991276  55.3370786 150.4898734 102.4022146  60.7044425 139.0222498
 102.9273470  61.0431698 138.2971818 102.3144498  59.7691441 138.8385632
  94.0642194  64.6178499 151.1512374  94.3729321  64.3727646 152.0235074
  94.8617676  64.8225138 150.6631244  94.0862806  66.7716409 143.3817751
  93.6467797  66.2792787 144.0750607  94.8370923  66.2289376 143.1409826
  86.5655145  62.9627950 143.3842379  87.3913165  62.6631721 143.0041022
  86.2149197  62.1935572 143.8332167  91.5336679  62.3154418 145.4540052
  90.9116688  61.6525123 145.1542280  92.2041545  62.3415550 144.7713700
  84.7663750  60.8814276 144.3431312  83.9295659  60.4536450 144.1615314
  84.7387396  61.0746719 145.2802104  91.6061206  50.7936206 155.0472558
  91.6549362  51.6698329 154.6650328  92.1483720  50.2513599 154.4744202
 102.0916052  61.3377329 154.3273696 101.3011595  61.3201468 153.7878195
 101.8549406  61.8765623 155.0822732 102.2113927  58.1869795 151.6406424
 102.2611932  58.0219803 152.5821947 102.1027850  57.3197054 151.2504305
  91.0950185  60.8658341 138.9298513  91.2438306  61.5493806 138.2765186
  91.9016629  60.8463431 139.4447969  99.5017689  54.1700723 152.9565731
 100.4027552  54.0307188 152.6649729  99.5765664  54.3355178 153.8963908
  93.8360495  51.5467578 151.8018917  92.9663804  51.8401144 151.5301506
  94.0719975  52.1308023 152.5226181 103.7132124  60.6066737 151.8848446
 103.4216932  60.9696718 152.7211907 103.1004255  59.8933745 151.7061778
 104.9127806  58.1719617 144.4051016 105.7474697  58.6109421 144.5688576
 105.0486935  57.6958270 143.5859262 101.9619312  55.7299352 150.3528504
 102.4373433  55.9226998 149.5447355 101.0384877  55.7858537 150.1071887
  88.8502818  56.8923519 139.9359582  88.6048860  55.9885849 140.1339792
  89.0198733  56.8940669 138.9939060  96.5399528  47.7647195 149.3184337
  97.0581472  48.5008222 148.9930826  96.1854661  48.0711188 150.1531097
  88.1198466  52.6251876 137.4345743  87.4267711  52.6996231 136.7785779
  87.8750218  51.8612220 137.9567260  96.7912123  44.1847478 144.8385234
  97.0713876  43.5170667 145.4645661  97.5762729  44.3776573 144.3259898
  94.5945591  63.3606472 136.4010260  94.0219558  63.9796659 135.9480732
  95.1678385  63.9105833 136.9350182 100.6620981  52.6065112 148.5856809
 101.6138404  52.7063209 148.6069033 100.4924431  51.8143380 149.0954894
  98.6835360  49.6920695 148.7716210  98.0885292  49.9725708 148.0762699
  98.3985057  50.1814596 149.5432951  97.8142851  63.6443622 137.5318843
  98.7473524  63.5789183 137.7351718  97.7266064  64.4799889 137.0733375
 100.4430867  62.9609492 134.4922790 100.3644499  62.6269356 135.3858548
 101.2640534  63.4531260 134.4914263 103.1409059  55.8271231 147.6999109
 103.1085379  54.8887232 147.8858793 103.7509682  55.9055268 146.9664934
  94.9792390  54.6967284 133.7426313  95.9251494  54.5673492 133.8114731
  94.6006634  53.9581946 134.2195741 103.2903547  52.6182275 147.7457392
 102.7742596  51.8340731 147.5587321 104.1743496  52.2900991 147.9103911
 100.9514274  46.3623290 143.7053205 100.7539095  46.0538379 144.5896537
 101.5613980  47.0884929 143.8351135 108.9585609  56.8887238 146.8405146
 109.6888997  56.6272526 147.4012849 108.3492554  56.1515960 146.8807214
 107.0400906  55.0295101 147.4379597 106.3134069  54.8951066 146.8296088
 106.6248193  55.3371929 148.2436315  94.8631082  58.7485030 155.2026970
  95.7834092  58.9263629 155.3967016  94.8280665  57.8041076 155.0506669
  93.1635307  52.6217261 133.6781198  92.2566762  52.3250373 133.7543912
  93.4411288  52.3247079 132.8115484  84.0813247  53.9423624 144.1280245
  83.7616031  53.0888932 143.8354619  83.5346675  54.1572202 144.8838212
  87.8593155  56.6586065 147.8449751  88.0779164  57.5903173 147.8637785
  88.2718928  56.2994040 148.6304555  94.7797372  47.1654150 139.8325439
  93.9698101  46.8201235 140.2080685  95.4681789  46.8561694 140.4213051
  96.7087921  46.2432197 141.4549736  97.2618959  46.6627651 142.1139759
  96.9458007  45.3167945 141.4972692  92.7321020  52.2319271 157.2352500
  92.6317747  53.1813628 157.1664591  92.5142562  51.9037510 156.3628570
  91.9334091  49.4804196 133.8193177  92.7953255  49.8059094 134.0788995
  92.1184435  48.6935692 133.3066243  83.9501507  57.5626536 146.0973366
  83.2564978  57.1480488 145.5843320  84.6974498  57.6047072 145.5006785
 100.0866728  48.3532722 140.9628400  99.5065397  49.0117526 140.5806453
  99.8202660  47.5310067 140.5515818  98.5370294  47.7537780 143.1649721
  99.0370073  47.8654315 142.3564039  99.1805902  47.4498833 143.8050529
  92.5952290  55.6616410 156.0517562  92.1119372  56.4616770 156.2581451
  92.6813229  55.6724355 155.0985006  85.8638250  57.4944789 143.9739381
  85.8408938  57.5932477 143.0221264  86.1738886  58.3409940 144.2956547
  88.5225627  59.5520944 148.0885995  89.4768881  59.5204887 148.0215927
  88.3238151  59.0911568 148.9036221  89.1125010  58.1222061 150.6556793
  89.9317899  58.6166139 150.6791630  89.3861817  57.2054029 150.6274361
  98.8691606  50.5132813 140.0184749  97.9817461  50.7982463 139.8004943
  99.2845595  50.3526576 139.1712025 102.2206142  50.5379334 143.7339088
 102.9966532  51.0275786 144.0063705 101.4954276  50.9637388 144.1910957
 104.6578701  51.2506953 144.7913028 105.2523191  51.0102689 144.0806337
 104.7305284  50.5314084 145.4186565  86.8775856  65.0940564 145.1056193
  86.7430324  64.3340965 144.5394191  86.4607919  65.8181464 144.6384982
  98.0134819  60.2777487 134.1132769  98.7170669  60.4827490 134.7290424
  97.2897468  60.8454249 134.3781852  98.8432630  56.0287349 140.2335039
  98.7867831  56.4855900 139.3942671  99.3960972  55.2678033 140.0557881
 102.6537435  51.8177081 141.0585158 102.3974370  51.4173716 141.8893366
 102.0290303  52.5320875 140.9335297 106.9649773  54.5573154 143.5656450
 106.4049331  54.6266343 144.3388012 106.3593277  54.3814138 142.8455946
  90.0344982  65.9909881 145.3174636  89.9177366  66.9355313 145.2153326
  89.2137428  65.6883443 145.7060435  99.9221517  60.7160017 136.1631229
 100.7567121  60.2841215 135.9808703  99.7605860  60.5442030 137.0908123
  99.5767409  57.2192130 137.5287568  99.5216213  57.0536401 136.5876012
  98.9513464  57.9268163 137.6849758  84.3659924  52.4560194 151.3548990
  85.0118787  51.9459148 151.8436215  84.1577075  53.1928876 151.9292415
  96.8913316  59.5241042 156.8541131  97.7604476  59.6981694 156.4927766
  96.4120068  60.3435459 156.7316860  92.8863534  46.7200239 137.1072886
  92.8742204  47.6642079 137.2641157  93.7786956  46.5370384 136.8132347
  91.0599496  66.6438143 148.5330564  91.9626743  66.6761753 148.8497059
  90.8336866  65.7138594 148.5476900  92.8153098  65.3969129 145.1940643
  91.8648729  65.3970991 145.0805015  93.1185584  64.6501864 144.6776678
  96.7015654  43.3143016 141.3618823  95.9348050  42.7601502 141.5075505
  97.1126359  43.3864884 142.2232975  88.7057415  49.6027811 155.4524004
  89.5688876  49.2464616 155.6627329  88.1322825  49.2641706 156.1399409
 108.5505792  71.2329668 146.2586405 109.1884202  71.1136415 145.5549745
 108.4326635  72.1810512 146.3174357 105.3595498  71.1857096 146.1947930
 105.0214010  71.0698161 145.3068465 106.2285266  70.7848261 146.1748936
 101.2182314  73.0392572 142.1844821 100.6547179  72.9482509 141.4161109
 101.1034709  72.2192477 142.6647314 105.8415281  72.3391948 152.1534136
 105.8303922  71.9444746 151.2814639 106.0035921  71.6058020 152.7467907
  98.7646746  74.5343764 145.0229041  99.5568038  74.1934589 144.6075341
  99.0043396  74.6438739 145.9431195 106.7981872  76.7063540 137.4959286
 106.1469852  77.2917620 137.1093300 107.5926235  77.2369735 137.5554323
 100.7237500  73.7952677 137.8946420 101.4968376  73.2481664 137.7559296
 101.0762898  74.6596926 138.1060882 102.5622542  75.1229059 151.1013320
 102.2712408  76.0274690 150.9859986 103.1979527  75.1645587 151.8157389
 103.4878749  72.5005908 147.6914679 104.0842321  72.2761930 146.9771642
 103.5453721  71.7590653 148.2940127 103.0603777  69.9545343 135.5264870
 103.3129298  69.4326865 134.7648333 102.1228337  69.7911489 135.6291554
 108.1047060  68.9581122 143.3339613 108.8910149  68.5400545 142.9830030
 108.3685765  69.8627214 143.5021262 108.2757138  74.3953972 138.0328270
 107.6402971  74.4688598 138.7449175 107.9454544  74.9847571 137.3547349
 113.5055487  68.8956355 144.2372592 114.2380659  68.3255572 144.4710421
 112.7494843  68.5077955 144.6779097 102.7800066  71.8573449 137.7289245
 102.6636324  71.1818353 138.3970329 102.8902326  71.3705823 136.9121398
 105.1231607  71.3183596 141.4335934 104.7589814  70.7914217 142.1448856
 105.9798723  70.9282065 141.2602420 111.0280908  62.6077929 148.6967200
 110.6964233  63.4773340 148.4728415 110.4326521  62.2914213 149.3761231
 104.7637094  66.3473496 136.4297283 104.9311496  67.2153732 136.7967754
 104.5734263  66.5100778 135.5058572 107.5212427  74.8090475 148.0963113
 107.2213150  75.7115514 147.9878920 107.1763487  74.5422658 148.9484266
 100.9724909  71.2604272 144.1299818 100.0475405  71.1280486 144.3377509
 101.2209322  72.0398491 144.6269760 110.9209571  67.3273015 145.7760551
 110.0126448  67.2588424 145.4819312 110.8697167  67.8044960 146.6042376
 104.7426315  68.8031154 137.4143950 104.6225940  69.2488204 138.2529430
 104.0478903  69.1516471 136.8557488  98.3333720  70.9037545 144.9643607
  98.4626101  71.1572024 145.8783018  97.6531171  71.4965253 144.6448262
 102.5033207  81.5734795 141.0634081 102.4257237  82.5242620 141.1422561
 101.8994851  81.2280668 141.7209007 104.9950437  68.7462661 153.7195448
 104.2183771  69.3056581 153.7098312 105.6341000  69.2319444 154.2410318
 112.7871217  65.5289454 147.5538424 112.1445598  65.8221987 146.9078219
 112.2826146  65.4142374 148.3591621 110.4411381  69.2752627 138.2424284
 111.3529237  69.5080013 138.0671981 109.9321028  69.8589671 137.6799362
 103.2496809  71.5548114 153.2813415 103.9911494  72.0933158 153.0048238
 102.5433795  72.1814403 153.4384967 108.7252149  73.6977255 151.8785576
 109.1335505  73.2559665 151.1340209 108.0029410  73.1229882 152.1319769
 105.0783219  68.6349861 149.2519133 105.9244414  69.0589275 149.3953782
 105.0181856  67.9783486 149.9457696 109.0480963  74.2578445 145.6337865
 108.4189826  74.4224159 144.9313933 108.6606626  74.6720055 146.4048829
 112.9270195  75.1932883 142.9882229 112.2421233  75.5731784 142.4379262
 113.0114045  75.8028210 143.7214177 108.2282664  66.2954230 150.9100307
 107.9843596  67.0496290 150.3734583 108.5042595  66.6739577 151.7447554
 110.1821127  72.8392842 149.5877572 110.3938022  73.4824602 148.9111954
 110.1350875  72.0055159 149.1199503 107.7847356  65.4510663 146.4914145
 106.9231835  65.7491916 146.7830882 107.8109791  65.6681062 145.5595177
 104.6008925  73.9952853 142.8987950 105.0647271  74.2740556 142.1092573
 104.3365723  73.0936298 142.7161041 101.4933006  73.5424335 145.8367714
 102.0634363  73.9711603 145.1985198 102.0841118  73.2606919 146.5351899
 103.5377811  70.1176006 139.7077515 104.2401855  70.5697049 140.1751442
 103.2058440  69.4759824 140.3357409 101.9858173  68.7087762 154.0828725
 101.3556833  69.3904043 154.3164122 101.8794261  68.5970844 153.1381863
  97.2803145  68.3759558 145.0094649  96.4902199  68.6317087 144.5334760
  97.7714393  69.1907896 145.1146690 111.2966955  75.7164797 147.7599930
 112.1184399  75.3144985 147.4782611 111.2929358  75.6133032 148.7116046
  99.2317891  68.7404138 141.9678126  98.4349054  68.8522832 142.4861621
  99.0043483  69.0790790 141.1019016 105.0623558  75.2648841 149.9160640
 105.1267991  75.7269248 150.7518812 104.3534482  74.6346206 150.0442950
  95.5640848  68.6290049 147.4409640  95.8148887  69.5137059 147.7067216
  96.1000397  68.4494650 146.6684732 119.3872948  72.0603546 144.1084901
 118.6336656  71.4910944 143.9528906 119.5220489  72.0266210 145.0555536
 104.7771576  76.9316948 139.7839621 104.6417251  77.7768484 140.2124468
 105.3181388  77.1336226 139.0205554 101.2638916  63.0108528 156.4453976
 100.8705861  62.4574727 157.1201620 102.0805056  63.3219107 156.8360493
  98.2300973  74.4492386 140.3567546  98.7425494  75.2435637 140.5073110
  98.8823686  73.7518677 140.2901147 100.0395858  77.5658143 142.4390299
 100.2162486  78.4876107 142.2511283 100.8352692  77.2516562 142.8684679
 104.1806877  64.4266407 154.0374232 104.9216590  65.0273560 153.9578695
 104.4124799  63.6844045 153.4792275  99.3248215  69.6122774 152.3152462
  99.2101730  68.7108032 152.6159561  98.4692732  69.8586471 151.9637279
 106.4040052  77.5540515 153.9139963 105.9603907  76.7676893 153.5960867
 107.0657266  77.7419665 153.2483854 101.1627174  79.0836316 148.4400641
 101.7134599  78.9553380 147.6677635 100.3238649  79.3831205 148.0895534
 108.5021290  77.8343315 151.9421364 108.4839766  78.6552196 151.4501633
 109.4241210  77.7097390 152.1671505 104.9594345  75.3487444 152.7844872
 105.4922681  74.5875732 152.5544180 104.4308426  75.0561096 153.5269027
 108.1264040  60.4547510 148.3138514 107.7828309  61.3449152 148.2377625
 108.4943002  60.2649168 147.4508099  96.1949890  72.7781041 141.1327116
  97.0325112  73.1878049 140.9160824  96.3728158  71.8380483 141.1027310
 108.0914322  70.4456121 136.8210949 107.5760946  71.2160726 137.0599337
 107.8191631  69.7721257 137.4444011 105.6761433  65.2905822 141.8796188
 104.8203030  64.9012672 141.7001826 106.0888385  65.3697783 141.0195973
 107.2060580  62.8252165 146.2787747 106.7025376  62.7882300 145.4655553
 107.4991187  63.7344908 146.3384404 103.4503466  62.9090895 145.2853929
 104.3156463  62.7133704 144.9259819 103.5180975  62.6801247 146.2123286
 113.0648596  73.1988476 138.7564123 112.2878039  72.8599635 138.3119285
 113.7440077  73.2041099 138.0819088 107.8800625  68.3183213 138.6470730
 107.5750761  68.6329363 139.4980874 108.8331068  68.3964633 138.6898063
 106.3247057  74.4773437 140.2963684 105.7968419  73.7426196 139.9836922
 105.8234560  75.2548113 140.0503653 111.3039903  72.6722457 145.4130731
 110.6463578  73.3621719 145.5010859 112.1080303  73.0618889 145.7564717
 101.0565785  65.1393103 142.6570296 101.6309537  64.9168284 141.9243489
 101.6436767  65.2081797 143.4098897 110.1145362  71.0266830 143.4634672
 110.6277244  71.6596822 143.9656382 110.7646586  70.4268025 143.0978032
 101.3835372  67.1697564 136.6766181 100.5472684  67.5072250 136.9975456
 101.2440142  67.0346544 135.7393318 103.3588453  62.0134352 141.3845365
 102.7052865  61.6983369 140.7601980 103.3168927  61.3910092 142.1105188
 104.4699657  72.2953647 133.2998657 103.5626719  72.0642900 133.4989806
 104.9670689  71.4991266 133.4872639 107.3767736  81.0051154 136.2195344
 106.7029435  81.3082851 136.8280301 107.7633558  81.8080234 135.8700801
 106.5926193  68.5016285 145.7093013 105.6748754  68.7231232 145.5514701
 107.0086337  68.5762596 144.8504720 107.3761241  69.9007701 140.8395693
 108.1233060  70.4129098 140.5302815 107.6452830  69.5791754 141.7000087
 105.6487891  72.3966242 137.8222648 104.7399110  72.1125275 137.9195117
 105.6782975  72.8165320 136.9625954 110.8807158  76.0072831 141.5913815
 110.4269485  75.1663741 141.6479006 110.2501125  76.6434230 141.9288595
 109.8240078  66.9364817 142.8214483 109.0862835  66.4242204 143.1524725
 110.0766851  66.4965199 142.0097759 109.3240098  77.8449328 142.5263633
 109.6163072  78.4054385 141.8075999 109.8338718  78.1377889 143.2816792
 109.9251705  59.7141069 143.4156252 110.2310582  58.8538433 143.1282167
 110.6504310  60.3058690 143.2155246  96.2176061  70.1171756 141.8037850
  96.0200461  69.5241117 141.0788916  95.6622725  69.8123966 142.5213789
 104.1972785  70.0094862 143.9232443 104.2521395  69.0568699 143.8474919
 103.3863987  70.1654301 144.4073741 105.3463979  73.9374985 135.1610726
 104.9083409  73.2210844 134.7016363 106.0874420  74.1651100 134.5995817
 102.1365145  68.6271922 141.6822822 101.3233010  68.9266093 142.0888014
 102.6324139  68.2327611 142.3997304 104.2873723  78.6229679 143.6157086
 104.2449902  78.8490525 142.6865618 105.2036422  78.3893054 143.7642888
 107.7339357  69.0913747 150.5137716 108.0888744  69.3185220 151.3732181
 108.3811488  69.4232123 149.8914971 113.4637093  72.2132182 141.2187045
 113.3254992  72.4033778 140.2908234 113.1073312  72.9751565 141.6755096
 101.6279220  66.1990278 147.2984057 102.2678599  66.0579037 146.6007020
 100.7956750  65.9124791 146.9222659 113.4906473  74.2808709 146.2298316
 113.9242980  74.1883999 147.0781370 114.2038054  74.2566210 145.5918332
 102.4039524  75.4992708 143.4119049 103.1980122  75.0043028 143.2101624
 101.6931216  74.9710571 143.0486755 107.2234368  77.8810804 147.7631417
 107.2771390  78.4501740 148.5309133 106.3549149  78.0512689 147.3985454
  98.7122287  69.6435790 139.4878802  97.7819875  69.5820245 139.7048764
  98.8079759  69.1211743 138.6915443  98.6307836  66.1690603 142.0757043
  98.8914653  67.0835936 141.9666204  99.4525008  65.7015045 142.2253656
 100.1032761  67.5828360 149.2455868 100.7755815  67.3745722 148.5968517
  99.2762548  67.3850446 148.8061100 114.3522023  74.3232410 148.7631202
 114.5457913  75.2278221 149.0090476 114.2522641  73.8639829 149.5969787
 106.0058333  64.2090301 151.2621529 105.3586248  64.9080250 151.1686005
 106.7759349  64.6426445 151.6297777 109.4137131  74.4739153 154.3372082
 109.2622638  74.2449705 153.4202166 109.4041811  75.4309754 154.3503427
 106.1822468  72.0471066 149.3218349 107.1114528  72.1982225 149.1487316
 105.7613498  72.1355086 148.4666995 104.9810800  76.0721730 147.0916886
 104.8421885  75.7040514 147.9642824 104.1925396  76.5869369 146.9200844
 105.5758951  81.1730827 138.4342423 105.7510707  80.7018870 139.2488045
 104.8891740  81.7996593 138.6623683 106.5316015  75.4503333 144.4805724
 106.1965847  75.4104103 145.3763374 106.0319960  74.7848049 144.0076134
 100.5060259  70.8570963 150.0058305 100.3680057  70.1251202 150.6069844
 101.4165182  70.7679863 149.7242493 109.4675206  72.7959367 134.7542784
 108.8504377  72.0706195 134.6575836 108.9991695  73.5568727 134.4109858
 103.1342559  70.5690922 149.4941985 103.8442178  69.9284114 149.4528603
 103.0911867  70.8203817 150.4168166 111.1229338  77.5058275 152.4148564
 111.0641884  76.8217496 151.7479147 111.5248856  78.2477265 151.9629190
 101.8471493  67.5556140 151.3137624 101.3108850  67.1046878 151.9659221
 101.2588202  67.6902049 150.5708089 100.1420037  84.3220189 145.2082283
 100.3816635  84.9538713 145.8861301  99.2989233  83.9708229 145.4947642
 101.2573752  67.0144791 133.8764088 100.3803219  66.8933592 133.5126335
 101.7331505  66.2230870 133.6242977 111.1246745  75.4697859 150.6462544
 110.2373524  75.1323781 150.7688943 111.6945296  74.7380891 150.8831309
  92.7775892  71.8021951 143.9705595  93.4646932  71.4883681 143.3826610
  92.6224021  72.7063316 143.6972847  97.5810615  66.6912148 148.3990619
  97.4968803  66.0837817 147.6641029  96.7593321  67.1821166 148.4000115
 104.6547899  80.1299312 147.6123787 104.5818070  80.9354283 148.1243091
 104.2125292  80.3291278 146.7871808 104.4437678  79.3671082 141.1226608
 103.6605200  79.9092762 141.2164833 105.1430423  79.8845061 141.5220850
 107.7534328  65.1765711 143.7660814 108.2503028  64.4235674 143.4461884
 106.9821310  65.2130028 143.2004023 115.6064086  70.8806077 145.4079105
 115.5953962  71.7630792 145.0373038 114.7381465  70.5277628 145.2133642
 107.1146582  80.0286146 149.7681946 107.8274554  80.6633611 149.6957847
 106.6236611  80.1250012 148.9521947 108.8364109  73.9337398 141.3399237
 107.9020388  74.0538861 141.1703942 109.0140778  73.0309865 141.0759247
 104.3369297  67.3183094 143.4932498 103.9667085  66.7654135 144.1813404
 104.8328390  66.7141228 142.9407498 112.2236660  69.7754718 141.8749271
 112.6897113  70.6082709 141.8009574 112.6744161  69.3099699 142.5794530
 102.1658496  77.7780589 150.5887516 102.8667955  78.4117072 150.7416911
 101.6953611  78.1195321 149.8283156 110.2912892  76.1198539 138.8735423
 110.5672735  76.0055134 139.7829298 109.4217390  75.7216024 138.8347597
 110.1953323  62.1435305 145.9140173 109.2816403  62.3739532 146.0822380
 110.6246425  62.2273749 146.7654205 109.9659782  70.3325197 148.4140067
 109.3131232  70.5801104 147.7592520 110.3440162  69.5189335 148.0802544
 106.9266956  80.3684890 142.5168237 107.1089350  79.5506546 142.9795989
 107.7499942  80.5852582 142.0793127 107.2609121  79.2953075 139.7783286
 107.7896887  78.7845530 139.1653448 107.5237341  78.9795605 140.6428819
 106.0147355  71.0745008 154.9006104 105.3387992  70.9739137 155.5708479
 106.8374989  70.9184221 155.3642101  97.7626214  77.3116944 147.5218619
  98.3479651  76.5660632 147.6546523  97.5651052  77.6220901 148.4055283
 100.6164869  80.3468192 142.5381061  99.9475244  80.8314319 142.0545102
 100.4777739  80.5937412 143.4524440  92.3543868  69.8822544 146.2423062
  92.3927968  69.3486135 147.0360180  91.8484161  69.3557750 145.6234039
 104.7570138  82.3811935 149.1363720 105.3088446  82.5443557 149.9012805
 105.0976331  82.9716373 148.4643745  99.7334631  64.7287085 149.7385605
  99.7975957  65.5901916 149.3263002  99.6701751  64.1161087 149.0057963
  99.2086903  66.8010218 153.3858639  99.8358942  66.4187295 153.9996163
  98.3514822  66.5824419 153.7514331 109.6081012  77.2073193 154.9912374
 110.1520916  77.8203151 154.4967329 109.0267857  77.7652771 155.5079387
  95.9852446  68.6086647 139.3176994  96.2805887  67.6997325 139.2644047
  95.0840482  68.5874386 138.9957996 107.8938525  80.3293911 146.1227402
 107.7689664  79.5283651 145.6138347 108.5517616  80.8240104 145.6341372
  99.5146693  66.6842643 145.3004542  98.7933279  67.2978611 145.1612016
 100.3039949  67.2200408 145.2221188 109.9573433  78.1302931 147.7506952
 109.0103769  78.0108282 147.6785279 110.3056206  77.2425429 147.8333214
 102.3173007  64.0197070 151.5745194 102.8407408  64.2659366 152.3371503
 102.0985340  64.8517105 151.1548331  97.7140288  66.2900744 139.4416319
  97.3852994  65.4098123 139.2591425  98.0679658  66.2348413 140.3292708
 106.9619867  77.9255647 143.9511304 106.8144829  76.9972354 144.1318874
 107.7873360  77.9475738 143.4668380 100.8282111  66.5773714 139.8091796
 101.1678183  67.1059635 139.0870405 101.2754231  66.9154120 140.5850363
 110.5653988  78.7484206 145.0376177 111.4900536  78.5427067 144.9000628
 110.3969292  78.5000607 145.9465519 103.5225552  64.9610765 149.2594865
 103.1822372  64.1618578 149.6615544 102.8164558  65.2612476 148.6871698
 104.1742023  62.0460077 147.7122188 104.9968093  61.5720555 147.5901078
 104.4180087  62.8250561 148.2120874 102.8150258  65.0748336 138.0085089
 103.5358620  65.4529588 137.5048806 102.1915562  65.7937213 138.1120067
 106.9581381  65.7793485 138.9443422 107.1744995  66.6618123 138.6432250
 106.4775448  65.3879698 138.2149064 101.6980602  68.7379198 145.5214166
 101.5525183  69.0519501 146.4138448 101.2205806  69.3564098 144.9685065
 103.5576985  65.7281746 145.5695056 103.5438554  64.8322839 145.2327354
 104.2749413  65.7352410 146.2033342 105.4103116  66.1619086 147.6148183
 105.1520894  67.0836157 147.6132514 104.8788156  65.7649521 148.3048647
 110.3549305  79.2669873 140.3938269 110.5286182  78.7016296 139.6412121
 110.8478196  80.0670768 140.2117758  96.1726264  71.2784542 148.4601827
  95.6279732  72.0544350 148.5922102  97.0505614  71.6255347 148.3020949
 102.9613881  64.6096126 140.8382626 103.0829792  63.6812772 141.0373513
 102.6715923  64.6234812 139.9260941 105.8305071  62.2951037 143.9749346
 105.8526768  62.3590370 143.0201325 106.2473130  61.4555545 144.1689852
 116.2088696  72.0306296 142.0128568 116.6519842  71.2813621 141.6147692
 115.3315206  72.0216433 141.6302300 111.3424477  78.5836638 137.4935167
 112.0375382  79.2043330 137.7122481 111.6847627  77.7331989 137.7687545
  96.9592286  70.4054439 151.3531984  96.2174022  70.5537074 151.9396615
  96.6385031  70.6662704 150.4898734 113.2415900  76.0336343 139.0222498
 113.7667224  76.3723616 138.2971818 113.1538253  75.0983358 138.8385632
 104.9035949  79.9470417 151.1512374 105.2123075  79.7019564 152.0235074
 105.7011431  80.1517055 150.6631244 104.9256561  82.1008326 143.3817751
 104.4861551  81.6084705 144.0750607 105.6764678  81.5581294 143.1409826
  97.4048900  78.2919867 143.3842379  98.2306920  77.9923639 143.0041022
  97.0542952  77.5227490 143.8332167 102.3730433  77.6446335 145.4540052
 101.7510442  76.9817041 145.1542280 103.0435300  77.6707467 144.7713700
  95.6057505  76.2106194 144.3431312  94.7689413  75.7828368 144.1615314
  95.5781150  76.4038637 145.2802104 102.4454961  66.1228124 155.0472558
 102.4943116  66.9990246 154.6650328 102.9877475  65.5805517 154.4744202
 112.9309806  76.6669247 154.3273696 112.1405350  76.6493386 153.7878195
 112.6943161  77.2057540 155.0822732 113.0507681  73.5161713 151.6406424
 113.1005686  73.3511721 152.5821947 112.9421605  72.6488972 151.2504305
 101.9343940  76.1950259 138.9298513 102.0832060  76.8785723 138.2765186
 102.7410383  76.1755349 139.4447969 110.3411444  69.4992641 152.9565731
 111.2421306  69.3599106 152.6649729 110.4159418  69.6647096 153.8963908
 104.6754249  66.8759496 151.8018917 103.8057558  67.1693062 151.5301506
 104.9113729  67.4599941 152.5226181 114.5525878  75.9358655 151.8848446
 114.2610686  76.2988635 152.7211907 113.9398009  75.2225663 151.7061778
 115.7521560  73.5011534 144.4051016 116.5868452  73.9401339 144.5688576
 115.8880689  73.0250188 143.5859262 112.8013066  71.0591269 150.3528504
 113.2767188  71.2518916 149.5447355 111.8778632  71.1150455 150.1071887
  99.6896573  72.2215436 139.9359582  99.4442615  71.3177766 140.1339792
  99.8592488  72.2232587 138.9939060 107.3793283  63.0939113 149.3184337
 107.8975227  63.8300140 148.9930826 107.0248416  63.4003106 150.1531097
  98.9592221  67.9543794 137.4345743  98.2661465  68.0288149 136.7785779
  98.7143972  67.1904138 137.9567260 107.6305877  59.5139395 144.8385234
 107.9107631  58.8462584 145.4645661 108.4156484  59.7068491 144.3259898
 105.4339346  78.6898389 136.4010260 104.8613313  79.3088576 135.9480732
 106.0072139  79.2397751 136.9350182 111.5014735  67.9357029 148.5856809
 112.4532158  68.0355127 148.6069033 111.3318186  67.1435298 149.0954894
 109.5229115  65.0212613 148.7716210 108.9279047  65.3017625 148.0762699
 109.2378812  65.5106514 149.5432951 108.6536605  78.9735539 137.5318843
 109.5867278  78.9081101 137.7351718 108.5659818  79.8091806 137.0733375
 111.2824622  78.2901410 134.4922790 111.2038254  77.9561273 135.3858548
 112.1034289  78.7823178 134.4914263 113.9802813  71.1563149 147.6999109
 113.9479133  70.2179150 147.8858793 114.5903437  71.2347186 146.9664934
 105.8186144  70.0259202 133.7426313 106.7645249  69.8965410 133.8114731
 105.4400389  69.2873864 134.2195741 114.1297302  67.9474192 147.7457392
 113.6136350  67.1632649 147.5587321 115.0137250  67.6192909 147.9103911
 111.7908029  61.6915208 143.7053205 111.5932850  61.3830296 144.5896537
 112.4007734  62.4176847 143.8351135 119.7979363  72.2179156 146.8405146
 120.5282751  71.9564444 147.4012849 119.1886308  71.4807878 146.8807214
 117.8794660  70.3587018 147.4379597 117.1527824  70.2242983 146.8296088
 117.4641947  70.6663847 148.2436315 105.7024837  74.0776948 155.2026970
 106.6227846  74.2555547 155.3967016 105.6674420  73.1332994 155.0506669
 104.0029061  67.9509178 133.6781198 103.0960517  67.6542291 133.7543912
 104.2805042  67.6538997 132.8115484  94.9207002  69.2715542 144.1280245
  94.6009786  68.4180850 143.8354619  94.3740430  69.4864120 144.8838212
  98.6986909  71.9877983 147.8449751  98.9172919  72.9195091 147.8637785
  99.1112683  71.6285957 148.6304555 105.6191127  62.4946068 139.8325439
 104.8091855  62.1493153 140.2080685 106.3075544  62.1853612 140.4213051
 107.5481675  61.5724115 141.4549736 108.1012714  61.9919568 142.1139759
 107.7851762  60.6459863 141.4972692 103.5714774  67.5611189 157.2352500
 103.4711501  68.5105546 157.1664591 103.3536316  67.2329427 156.3628570
 102.7727846  64.8096114 133.8193177 103.6347010  65.1351012 134.0788995
 102.9578190  64.0227610 133.3066243  94.7895262  72.8918453 146.0973366
  94.0958733  72.4772406 145.5843320  95.5368253  72.9338990 145.5006785
 110.9260482  63.6824640 140.9628400 110.3459151  64.3409444 140.5806453
 110.6596415  62.8601985 140.5515818 109.3764049  63.0829698 143.1649721
 109.8763827  63.1946232 142.3564039 110.0199657  62.7790751 143.8050529
 103.4346044  70.9908327 156.0517562 102.9513126  71.7908688 156.2581451
 103.5206984  71.0016272 155.0985006  96.7032004  72.8236707 143.9739381
  96.6802692  72.9224394 143.0221264  97.0132641  73.6701858 144.2956547
  99.3619382  74.8812862 148.0885995 100.3162636  74.8496804 148.0215927
  99.1631906  74.4203486 148.9036221  99.9518764  73.4513978 150.6556793
 100.7711653  73.9458057 150.6791630 100.2255572  72.5345946 150.6274361
 109.7085360  65.8424730 140.0184749 108.8211215  66.1274381 139.8004943
 110.1239349  65.6818494 139.1712025 113.0599896  65.8671251 143.7339088
 113.8360287  66.3567704 144.0063705 112.3348031  66.2929306 144.1910957
 115.4972455  66.5798871 144.7913028 116.0916946  66.3394607 144.0806337
 115.5699039  65.8606001 145.4186565  97.7169611  80.4232482 145.1056193
  97.5824079  79.6632883 144.5394191  97.3001673  81.1473381 144.6384982
 108.8528574  75.6069405 134.1132769 109.5564424  75.8119408 134.7290424
 108.1291223  76.1746167 134.3781852 109.6826384  71.3579266 140.2335039
 109.6261585  71.8147818 139.3942671 110.2354726  70.5969951 140.0557881
 113.4931190  67.1468998 141.0585158 113.2368124  66.7465634 141.8893366
 112.8684058  67.8612792 140.9335297 117.8043528  69.8865072 143.5656450
 117.2443086  69.9558261 144.3388012 117.1987031  69.7106056 142.8455946
 100.8738737  81.3201799 145.3174636 100.7571121  82.2647231 145.2153326
 100.0531183  81.0175360 145.7060435 110.7615271  76.0451934 136.1631229
 111.5960875  75.6133133 135.9808703 110.5999614  75.8733948 137.0908123
 110.4161163  72.5484048 137.5287568 110.3609967  72.3828319 136.5876012
 109.7907219  73.2560081 137.6849758  95.2053678  67.7852112 151.3548990
  95.8512542  67.2751066 151.8436215  94.9970829  68.5220794 151.9292415
 107.7307071  74.8532960 156.8541131 108.5998230  75.0273612 156.4927766
 107.2513822  75.6727376 156.7316860 103.7257289  62.0492157 137.1072886
 103.7135959  62.9933997 137.2641157 104.6180711  61.8662302 136.8132347
 101.8993251  81.9730061 148.5330564 102.8020497  82.0053671 148.8497059
 101.6730621  81.0430511 148.5476900 103.6546853  80.7261047 145.1940643
 102.7042484  80.7262909 145.0805015 103.9579339  79.9793782 144.6776678
 107.5409408  58.6434933 141.3618823 106.7741804  58.0893420 141.5075505
 107.9520113  58.7156802 142.2232975  99.5451169  64.9319729 155.4524004
 100.4082631  64.5756534 155.6627329  98.9716580  64.5933624 156.1399409
 119.3899546  86.5621585 146.2586405 120.0277956  86.4428333 145.5549745
 119.2720389  87.5102429 146.3174357 116.1989253  86.5149014 146.1947930
 115.8607764  86.3990078 145.3068465 117.0679021  86.1140179 146.1748936
 112.0576068  88.3684490 142.1844821 111.4940933  88.2774427 141.4161109
 111.9428463  87.5484394 142.6647314 116.6809036  87.6683865 152.1534136
 116.6697676  87.2736664 151.2814639 116.8429675  86.9349938 152.7467907
 109.6040500  89.8635682 145.0229041 110.3961792  89.5226506 144.6075341
 109.8437150  89.9730657 145.9431195 117.6375627  92.0355458 137.4959286
 116.9863607  92.6209538 137.1093300 118.4319990  92.5661653 137.5554323
 111.5631254  89.1244595 137.8946420 112.3362130  88.5773582 137.7559296
 111.9156653  89.9888844 138.1060882 113.4016297  90.4520977 151.1013320
 113.1106163  91.3566608 150.9859986 114.0373281  90.4937505 151.8157389
 114.3272504  87.8297826 147.6914679 114.9236076  87.6053848 146.9771642
 114.3847475  87.0882571 148.2940127 113.8997532  85.2837261 135.5264870
 114.1523053  84.7618782 134.7648333 112.9622091  85.1203406 135.6291554
 118.9440815  84.2873039 143.3339613 119.7303904  83.8692462 142.9830030
 119.2079519  85.1919132 143.5021262 119.1150892  89.7245890 138.0328270
 118.4796725  89.7980516 138.7449175 118.7848299  90.3139488 137.3547349
 124.3449242  84.2248273 144.2372592 125.0774414  83.6547489 144.4710421
 123.5888598  83.8369873 144.6779097 113.6193821  87.1865367 137.7289245
 113.5030079  86.5110270 138.3970329 113.7296081  86.6997741 136.9121398
 115.9625362  86.6475514 141.4335934 115.5983569  86.1206135 142.1448856
 116.8192478  86.2573983 141.2602420 121.8674662  77.9369847 148.6967200
 121.5357987  78.8065258 148.4728415 121.2720276  77.6206131 149.3761231
 115.6030849  81.6765414 136.4297283 115.7705251  82.5445650 136.7967754
 115.4128018  81.8392695 135.5058572 118.3606182  90.1382393 148.0963113
 118.0606905  91.0407431 147.9878920 118.0157241  89.8714576 148.9484266
 111.8118663  86.5896189 144.1299818 110.8869160  86.4572404 144.3377509
 112.0603076  87.3690409 144.6269760 121.7603326  82.6564933 145.7760551
 120.8520203  82.5880341 145.4819312 121.7090921  83.1336878 146.6042376
 115.5820069  84.1323071 137.4143950 115.4619695  84.5780122 138.2529430
 114.8872658  84.4808389 136.8557488 109.1727474  86.2329463 144.9643607
 109.3019855  86.4863942 145.8783018 108.4924926  86.8257171 144.6448262
 113.3426962  96.9026713 141.0634081 113.2650991  97.8534538 141.1422561
 112.7388605  96.5572585 141.7209007 115.8344191  84.0754578 153.7195448
 115.0577525  84.6348499 153.7098312 116.4734754  84.5611361 154.2410318
 123.6264972  80.8581371 147.5538424 122.9839352  81.1513904 146.9078219
 123.1219900  80.7434292 148.3591621 121.2805136  84.6044544 138.2424284
 122.1922992  84.8371931 138.0671981 120.7714783  85.1881589 137.6799362
 114.0890564  86.8840032 153.2813415 114.8305248  87.4225076 153.0048238
 113.3827549  87.5106321 153.4384967 115.9176973  83.9641779 149.2519133
 116.7638169  84.3881193 149.3953782 115.8575611  83.3075403 149.9457696
 119.8874718  89.5870363 145.6337865 119.2583580  89.7516077 144.9313933
 119.5000380  90.0011972 146.4048829 123.7663950  90.5224801 142.9882229
 123.0814988  90.9023702 142.4379262 123.8507799  91.1320127 143.7214177
 119.0676419  81.6246147 150.9100307 118.8237351  82.3788208 150.3734583
 119.3436349  82.0031495 151.7447554 121.0214881  88.1684760 149.5877572
 121.2331777  88.8116520 148.9111954 120.9744630  87.3347076 149.1199503
 118.6241110  80.7802580 146.4914145 117.7625589  81.0783834 146.7830882
 118.6503545  80.9972979 145.5595177 115.4402680  89.3244771 142.8987950
 115.9041025  89.6032474 142.1092573 115.1759478  88.4228216 142.7161041
 112.3326761  88.8716252 145.8367714 112.9028118  89.3003521 145.1985198
 112.9234873  88.5898837 146.5351899 114.3771566  85.4467923 139.7077515
 115.0795609  85.8988967 140.1751442 114.0452194  84.8051742 140.3357409
 112.8251927  84.0379680 154.0828725 112.1950588  84.7195961 154.3164122
 112.7188015  83.9262762 153.1381863 108.1196900  83.7051476 145.0094649
 107.3295954  83.9609005 144.5334760 108.6108147  84.5199814 145.1146690
 122.1360709  91.0456715 147.7599930 122.9578153  90.6436902 147.4782611
 122.1323112  90.9424949 148.7116046 110.0711645  84.0696055 141.9678126
 109.2742808  84.1814749 142.4861621 109.8437237  84.4082707 141.1019016
 115.9017313  90.5940758 149.9160640 115.9661745  91.0561166 150.7518812
 115.1928237  89.9638123 150.0442950 106.4034603  83.9581966 147.4409640
 106.6542641  84.8428976 147.7067216 106.9394151  83.7786568 146.6684732
 130.2266702  87.3895464 144.1084901 129.4730411  86.8202862 143.9528906
 130.3614244  87.3558128 145.0555536 115.6165330  92.2608866 139.7839621
 115.4811005  93.1060402 140.2124468 116.1575143  92.4628144 139.0205554
 112.1032670  78.3400446 156.4453976 111.7099616  77.7866644 157.1201620
 112.9198810  78.6511024 156.8360493 109.0694728  89.7784304 140.3567546
 109.5819248  90.5727554 140.5073110 109.7217441  89.0810594 140.2901147
 110.8789613  92.8950060 142.4390299 111.0556241  93.8168025 142.2511283
 111.6746446  92.5808479 142.8684679 115.0200631  79.7558325 154.0374232
 115.7610344  80.3565478 153.9578695 115.2518554  79.0135963 153.4792275
 110.1641969  84.9414692 152.3152462 110.0495484  84.0399949 152.6159561
 109.3086487  85.1878389 151.9637279 112.0020928  94.4128234 148.4400641
 112.5528353  94.2845297 147.6677635 111.1632404  94.7123123 148.0895534
 118.9657794  75.7839428 148.3138514 118.6222063  76.6741069 148.2377625
 119.3336757  75.5941085 147.4508099 107.0343645  88.1072958 141.1327116
 107.8718867  88.5169967 140.9160824 107.2121912  87.1672400 141.1027310
 118.9308077  85.7748039 136.8210949 118.4154700  86.5452644 137.0599337
 118.6585385  85.1013175 137.4444011 116.5155188  80.6197740 141.8796188
 115.6596784  80.2304590 141.7001826 116.9282140  80.6989700 141.0195973
 118.0454334  78.1544083 146.2787747 117.5419130  78.1174218 145.4655553
 118.3384941  79.0636826 146.3384404 114.2897220  78.2382813 145.2853929
 115.1550217  78.0425621 144.9259819 114.3574729  78.0093164 146.2123286
 123.9042351  88.5280394 138.7564123 123.1271794  88.1891553 138.3119285
 124.5833832  88.5333017 138.0819088 118.7194380  83.6475131 138.6470730
 118.4144516  83.9621280 139.4980874 119.6724822  83.7256551 138.6898063
 117.1640812  89.8065354 140.2963684 116.6362173  89.0718114 139.9836922
 116.6628314  90.5840031 140.0503653 122.1433658  88.0014375 145.4130731
 121.4857332  88.6913636 145.5010859 122.9474057  88.3910807 145.7564717
 111.8959539  80.4685021 142.6570296 112.4703291  80.2460202 141.9243489
 112.4830522  80.5373715 143.4098897 120.9539117  86.3558748 143.4634672
 121.4670998  86.9888739 143.9656382 121.6040340  85.7559943 143.0978032
 112.2229126  82.4989482 136.6766181 111.3866439  82.8364168 136.9975456
 112.0833896  82.3638461 135.7393318 114.1982207  77.3426270 141.3845365
 113.5446619  77.0275287 140.7601980 114.1562681  76.7202010 142.1105188
 115.3093412  87.6245565 133.2998657 114.4020474  87.3934818 133.4989806
 115.8064444  86.8283184 133.4872639 118.2161491  96.3343072 136.2195344
 117.5423190  96.6374769 136.8280301 118.6027313  97.1372152 135.8700801
 117.4319947  83.8308203 145.7093013 116.5142509  84.0523150 145.5514701
 117.8480091  83.9054514 144.8504720 118.2154995  85.2299619 140.8395693
 118.9626814  85.7421016 140.5302815 118.4846585  84.9083671 141.7000087
 116.4881645  87.7258159 137.8222648 115.5792865  87.4417192 137.9195117
 116.5176729  88.1457238 136.9625954 121.7200913  91.3364749 141.5913815
 121.2663240  90.4955659 141.6479006 121.0894880  91.9726147 141.9288595
 120.6633832  82.2656735 142.8214483 119.9256589  81.7534121 143.1524725
 120.9160606  81.8257117 142.0097759 120.1633852  93.1741246 142.5263633
 120.4556826  93.7346303 141.8075999 120.6732473  93.4669807 143.2816792
 120.7645460  75.0432987 143.4156252 121.0704336  74.1830350 143.1282167
 121.4898065  75.6350607 143.2155246 107.0569816  85.4463674 141.8037850
 106.8594216  84.8533034 141.0788916 106.5016480  85.1415884 142.5213789
 115.0366539  85.3386780 143.9232443 115.0915149  84.3860616 143.8474919
 114.2257741  85.4946219 144.4073741 116.1857733  89.2666903 135.1610726
 115.7477163  88.5502762 134.7016363 116.9268174  89.4943018 134.5995817
 112.9758899  83.9563840 141.6822822 112.1626765  84.2558010 142.0888014
 113.4717894  83.5619529 142.3997304 115.1267477  93.9521597 143.6157086
 115.0843656  94.1782443 142.6865618 116.0430176  93.7184971 143.7642888
 118.5733111  84.4205664 150.5137716 118.9282499  84.6477137 151.3732181
 119.2205242  84.7524041 149.8914971 124.3030848  87.5424100 141.2187045
 124.1648747  87.7325696 140.2908234 123.9467067  88.3043483 141.6755096
 112.4672974  81.5282195 147.2984057 113.1072353  81.3870954 146.6007020
 111.6350505  81.2416709 146.9222659 124.3300228  89.6100627 146.2298316
 124.7636734  89.5175916 147.0781370 125.0431808  89.5858128 145.5918332
 113.2433278  90.8284626 143.4119049 114.0373877  90.3334946 143.2101624
 112.5324970  90.3002489 143.0486755 118.0628122  93.2102721 147.7631417
 118.1165145  93.7793658 148.5309133 117.1942904  93.3804606 147.3985454
 109.5516041  84.9727707 139.4878802 108.6213630  84.9112163 139.7048764
 109.6473513  84.4503660 138.6915443 109.4701591  81.4982520 142.0757043
 109.7308408  82.4127854 141.9666204 110.2918763  81.0306963 142.2253656
 110.9426516  82.9120277 149.2455868 111.6149569  82.7037640 148.5968517
 110.1156302  82.7142363 148.8061100 116.8452088  79.5382218 151.2621529
 116.1980003  80.2372168 151.1686005 117.6153103  79.9718362 151.6297777
 117.0216222  87.3762983 149.3218349 117.9508282  87.5274143 149.1487316
 116.6007252  87.4647004 148.4666995 115.8204554  91.4013648 147.0916886
 115.6815640  91.0332432 147.9642824 115.0319150  91.9161287 146.9200844
 116.4152706  96.5022744 138.4342423 116.5904462  96.0310787 139.2488045
 115.7285494  97.1288510 138.6623683 117.3709769  90.7795250 144.4805724
 117.0359602  90.7396020 145.3763374 116.8713715  90.1139966 144.0076134
 111.3454013  86.1862880 150.0058305 111.2073811  85.4543119 150.6069844
 112.2558937  86.0971781 149.7242493 120.3068961  88.1251285 134.7542784
 119.6898131  87.3998113 134.6575836 119.8385449  88.8860645 134.4109858
 113.9736314  85.8982840 149.4941985 114.6835932  85.2576032 149.4528603
 113.9305622  86.1495735 150.4168166 112.6865248  82.8848058 151.3137624
 112.1502605  82.4338796 151.9659221 112.0981956  83.0193967 150.5708089
 110.9813791  99.6512107 145.2082283 111.2210389 100.2830631 145.8861301
 110.1382988  99.3000147 145.4947642 112.0967507  82.3436709 133.8764088
 111.2196973  82.2225510 133.5126335 112.5725260  81.5522787 133.6242977
 103.6169647  87.1313869 143.9705595 104.3040687  86.8175599 143.3826610
 103.4617776  88.0355233 143.6972847 108.4204369  82.0204065 148.3990619
 108.3362558  81.4129735 147.6641029 107.5987075  82.5113084 148.4000115
 115.4941653  95.4591229 147.6123787 115.4211825  96.2646201 148.1243091
 115.0519046  95.6583195 146.7871808 115.2831433  94.6962999 141.1226608
 114.4998955  95.2384680 141.2164833 115.9824178  95.2136979 141.5220850
 118.5928083  80.5057629 143.7660814 119.0896782  79.7527591 143.4461884
 117.8215064  80.5421946 143.2004023 126.4457840  86.2097994 145.4079105
 126.4347717  87.0922710 145.0373038 125.5775220  85.8569545 145.2133642
 119.6757864  89.2629316 141.3399237 118.7414142  89.3830779 141.1703942
 119.8534532  88.3601783 141.0759247 115.1763052  82.6475012 143.4932498
 114.8060839  82.0946052 144.1813404 115.6722144  82.0433145 142.9407498
 123.0630415  85.1046635 141.8749271 123.5290867  85.9374627 141.8009574
 123.5137915  84.6391617 142.5794530 113.0052250  93.1072507 150.5887516
 113.7061710  93.7408990 150.7416911 112.5347365  93.4487238 149.8283156
 121.1306646  91.4490457 138.8735423 121.4066490  91.3347051 139.7829298
 120.2611145  91.0507942 138.8347597 121.0347078  77.4727222 145.9140173
 120.1210157  77.7031449 146.0822380 121.4640179  77.5565666 146.7654205
 120.8053536  85.6617114 148.4140067 120.1524986  85.9093022 147.7592520
 121.1833916  84.8481253 148.0802544 117.7660710  95.6976808 142.5168237
 117.9483105  94.8798463 142.9795989 118.5893696  95.9144500 142.0793127
 118.1002876  94.6244993 139.7783286 118.6290642  94.1137447 139.1653448
 118.3631095  94.3087523 140.6428819 108.6019968  92.6408862 147.5218619
 109.1873405  91.8952550 147.6546523 108.4044807  92.9512819 148.4055283
 111.4558623  95.6760109 142.5381061 110.7868999  96.1606237 142.0545102
 111.3171493  95.9229330 143.4524440 103.1937623  85.2114462 146.2423062
 103.2321722  84.6778053 147.0360180 102.6877916  84.6849668 145.6234039
 110.5728385  80.0579003 149.7385605 110.6369712  80.9193834 149.3263002
 110.5095506  79.4453004 149.0057963 110.0480658  82.1302135 153.3858639
 110.6752697  81.7479213 153.9996163 109.1908577  81.9116337 153.7514331
 106.8246201  83.9378564 139.3176994 107.1199642  83.0289243 139.2644047
 105.9234236  83.9166304 138.9957996 118.7332279  95.6585828 146.1227402
 118.6083419  94.8575568 145.6138347 119.3911370  96.1532022 145.6341372
 110.3540448  82.0134561 145.3004542 109.6327033  82.6270529 145.1612016
 111.1433703  82.5492326 145.2221188 120.7967188  93.4594848 147.7506952
 119.8497523  93.3400200 147.6785279 121.1449961  92.5717347 147.8333214
 113.1566761  79.3488987 151.5745194 113.6801163  79.5951284 152.3371503
 112.9379094  80.1809022 151.1548331 108.5534042  81.6192662 139.4416319
 108.2246748  80.7390041 139.2591425 108.9073413  81.5640331 140.3292708
 117.8013621  93.2547565 143.9511304 117.6538583  92.3264272 144.1318874
 118.6267115  93.2767655 143.4668380 111.6675865  81.9065632 139.8091796
 112.0071938  82.4351553 139.0870405 112.1147986  82.2446038 140.5850363
 121.4047743  94.0776123 145.0376177 122.3294290  93.8718985 144.9000628
 121.2363046  93.8292525 145.9465519 114.3619306  80.2902683 149.2594865
 114.0216126  79.4910496 149.6615544 113.6558312  80.5904393 148.6871698
 115.0135778  77.3751995 147.7122188 115.8361847  76.9012473 147.5901078
 115.2573841  78.1542479 148.2120874 113.6544012  80.4040253 138.0085089
 114.3752375  80.7821506 137.5048806 113.0309317  81.1229130 138.1120067
 117.7975135  81.1085402 138.9443422 118.0138750  81.9910040 138.6432250
 117.3169202  80.7171616 138.2149064 112.5374357  84.0671116 145.5214166
 112.3918937  84.3811419 146.4138448 112.0599560  84.6856016 144.9685065
 114.3970740  81.0573664 145.5695056 114.3832308  80.1614757 145.2327354
 115.1143168  81.0644327 146.2033342 116.2496870  81.4911004 147.6148183
 115.9914648  82.4128074 147.6132514 115.7181911  81.0941438 148.3048647
 121.1943059  94.5961791 140.3938269 121.3679937  94.0308213 139.6412121
 121.6871950  95.3962686 140.2117758 107.0120019  86.6076460 148.4601827
 106.4673487  87.3836268 148.5922102 107.8899369  86.9547264 148.3020949
 113.8007636  79.9388044 140.8382626 113.9223547  79.0104690 141.0373513
 113.5109678  79.9526730 139.9260941 116.6698826  77.6242954 143.9749346
 116.6920523  77.6882287 143.0201325 117.0866885  76.7847463 144.1689852
 127.0482450  87.3598214 142.0128568 127.4913596  86.6105539 141.6147692
 126.1708961  87.3508350 141.6302300 122.1818232  93.9128555 137.4935167
 122.8769136  94.5335248 137.7122481 122.5241382  93.0623907 137.7687545
 107.7986041  85.7346356 151.3531984 107.0567777  85.8828992 151.9396615
 107.4778785  85.9954622 150.4898734 124.0809655  91.3628261 139.0222498
 124.6060979  91.7015534 138.2971818 123.9932007  90.4275276 138.8385632
 115.7650315  97.4300244 143.3817751 115.3255306  96.9376623 144.0750607
 116.5158432  96.8873212 143.1409826 108.2442654  93.6211785 143.3842379
 109.0700674  93.3215557 143.0041022 107.8936706  92.8519407 143.8332167
 113.2124188  92.9738253 145.4540052 112.5904197  92.3108958 145.1542280
 113.8829054  92.9999385 144.7713700 106.4451259  91.5398111 144.3431312
 105.6083168  91.1120286 144.1615314 106.4174905  91.7330555 145.2802104
 113.2848715  81.4520041 155.0472558 113.3336871  82.3282164 154.6650328
 113.8271229  80.9097434 154.4744202 112.7737694  91.5242177 138.9298513
 112.9225815  92.2077641 138.2765186 113.5804138  91.5047267 139.4447969
 115.5148004  82.2051414 151.8018917 114.6451313  82.4984980 151.5301506
 115.7507484  82.7891859 152.5226181 126.5915315  88.8303452 144.4051016
 127.4262206  89.2693256 144.5688576 126.7274444  88.3542105 143.5859262
 123.6406821  86.3883187 150.3528504 124.1160942  86.5810833 149.5447355
 122.7172386  86.4442373 150.1071887 110.5290327  87.5507354 139.9359582
 110.2836369  86.6469684 140.1339792 110.6986242  87.5524505 138.9939060
 118.2187037  78.4231031 149.3184337 118.7368981  79.1592057 148.9930826
 117.8642170  78.7295024 150.1531097 109.7985975  83.2835712 137.4345743
 109.1055220  83.3580067 136.7785779 109.5537727  82.5196055 137.9567260
 118.4699632  74.8431313 144.8385234 118.7501385  74.1754502 145.4645661
 119.2550238  75.0360409 144.3259898 116.2733100  94.0190307 136.4010260
 115.7007067  94.6380494 135.9480732 116.8465894  94.5689669 136.9350182
 122.3408490  83.2648947 148.5856809 123.2925913  83.3647045 148.6069033
 122.1711940  82.4727216 149.0954894 120.3622869  80.3504530 148.7716210
 119.7672801  80.6309543 148.0762699 120.0772566  80.8398431 149.5432951
 119.4930360  94.3027457 137.5318843 120.4261033  94.2373019 137.7351718
 119.4053573  95.1383724 137.0733375 122.1218376  93.6193327 134.4922790
 122.0432008  93.2853191 135.3858548 122.9428043  94.1115095 134.4914263
 124.8196568  86.4855067 147.6999109 124.7872888  85.5471067 147.8858793
 125.4297191  86.5639103 146.9664934 116.6579899  85.3551120 133.7426313
 117.6039003  85.2257328 133.8114731 116.2794143  84.6165782 134.2195741
 124.9691056  83.2766110 147.7457392 124.4530105  82.4924567 147.5587321
 125.8531005  82.9484827 147.9103911 122.6301783  77.0207126 143.7053205
 122.4326604  76.7122214 144.5896537 123.2401489  77.7468765 143.8351135
 130.6373117  87.5471074 146.8405146 131.3676506  87.2856362 147.4012849
 130.0280063  86.8099796 146.8807214 128.7188415  85.6878936 147.4379597
 127.9921578  85.5534901 146.8296088 128.3035701  85.9955765 148.2436315
 114.8422816  83.2801096 133.6781198 113.9354271  82.9834209 133.7543912
 115.1198797  82.9830914 132.8115484 105.7600756  84.6007460 144.1280245
 105.4403540  83.7472768 143.8354619 105.2134184  84.8156038 144.8838212
 109.5380664  87.3169901 147.8449751 109.7566673  88.2487008 147.8637785
 109.9506437  86.9577875 148.6304555 116.4584881  77.8237986 139.8325439
 115.6485610  77.4785071 140.2080685 117.1469298  77.5145530 140.4213051
 118.3875430  76.9016033 141.4549736 118.9406468  77.3211486 142.1139759
 118.6245516  75.9751781 141.4972692 113.6121600  80.1388031 133.8193177
 114.4740764  80.4642930 134.0788995 113.7971944  79.3519527 133.3066243
 105.6289016  88.2210371 146.0973366 104.9352487  87.8064324 145.5843320
 106.3762007  88.2630908 145.5006785 121.7654237  79.0116558 140.9628400
 121.1852906  79.6701362 140.5806453 121.4990169  78.1893902 140.5515818
 120.2157803  78.4121615 143.1649721 120.7157581  78.5238150 142.3564039
 120.8593411  78.1082668 143.8050529 107.5425759  88.1528625 143.9739381
 107.5196447  88.2516312 143.0221264 107.8526395  88.9993776 144.2956547
 110.2013136  90.2104780 148.0885995 111.1556390  90.1788722 148.0215927
 110.0025660  89.7495404 148.9036221 110.7912519  88.7805896 150.6556793
 111.6105408  89.2749975 150.6791630 111.0649326  87.8637864 150.6274361
 120.5479115  81.1716648 140.0184749 119.6604970  81.4566299 139.8004943
 120.9633104  81.0110412 139.1712025 123.8993651  81.1963169 143.7339088
 124.6754041  81.6859622 144.0063705 123.1741785  81.6221223 144.1910957
 126.3366210  81.9090788 144.7913028 126.9310700  81.6686524 144.0806337
 126.4092793  81.1897919 145.4186565 108.5563365  95.7524399 145.1056193
 108.4217833  94.9924800 144.5394191 108.1395428  96.4765299 144.6384982
 119.6922328  90.9361323 134.1132769 120.3958178  91.1411325 134.7290424
 118.9684977  91.5038085 134.3781852 120.5220139  86.6871184 140.2335039
 120.4655340  87.1439736 139.3942671 121.0748481  85.9261869 140.0557881
 124.3324944  82.4760916 141.0585158 124.0761879  82.0757552 141.8893366
 123.7077812  83.1904710 140.9335297 128.6437282  85.2156989 143.5656450
 128.0836840  85.2850179 144.3388012 128.0380786  85.0397974 142.8455946
 111.7132491  96.6493716 145.3174636 111.5964875  97.5939149 145.2153326
 110.8924937  96.3467278 145.7060435 121.6009026  91.3743852 136.1631229
 122.4354630  90.9425051 135.9808703 121.4393369  91.2025866 137.0908123
 121.2554918  87.8775965 137.5287568 121.2003722  87.7120237 136.5876012
 120.6300973  88.5851998 137.6849758 106.0447433  83.1144030 151.3548990
 106.6906296  82.6042984 151.8436215 105.8364584  83.8512711 151.9292415
 114.5651043  77.3784074 137.1072886 114.5529713  78.3225914 137.2641157
 115.4574465  77.1954220 136.8132347 112.7387005  97.3021978 148.5330564
 113.6414252  97.3345588 148.8497059 112.5124375  96.3722429 148.5476900
 114.4940607  96.0552965 145.1940643 113.5436238  96.0554826 145.0805015
 114.7973093  95.3085699 144.6776678 118.3803163  73.9726851 141.3618823
 117.6135559  73.4185338 141.5075505 118.7913868  74.0448720 142.2232975
 110.3844924  80.2611647 155.4524004 111.2476385  79.9048452 155.6627329
 109.8110334  79.9225542 156.1399409 122.4025009 104.4536513 137.8946420
 123.1755885 103.9065500 137.7559296 122.7550407 105.3180762 138.1060882
 124.7391286 100.6129179 135.5264870 124.9916807 100.0910700 134.7648333
 123.8015846 100.4495324 135.6291554 124.4587575 102.5157285 137.7289245
 124.3423833 101.8402188 138.3970329 124.5689835 102.0289659 136.9121398
 126.4424603  97.0057331 136.4297283 126.6099005  97.8737568 136.7967754
 126.2521772  97.1684613 135.5058572 126.4213824  99.4614989 137.4143950
 126.3013449  99.9072040 138.2529430 125.7266412  99.8100307 136.8557488
 132.1198890  99.9336462 138.2424284 133.0316746 100.1663849 138.0671981
 131.6108537 100.5173506 137.6799362 125.2165320 100.7759841 139.7077515
 125.9189364 101.2280885 140.1751442 124.8845949 100.1343660 140.3357409
 118.9590654  99.0343394 145.0094649 118.1689708  99.2900922 144.5334760
 119.4501902  99.8491732 145.1146690 120.9105400  99.3987973 141.9678126
 120.1136563  99.5106667 142.4861621 120.6830992  99.7374625 141.1019016
 119.9088482 105.1076222 140.3567546 120.4213003 105.9019472 140.5073110
 120.5611195 104.4102512 140.2901147 117.8737399 103.4364876 141.1327116
 118.7112621 103.8461884 140.9160824 118.0515667 102.4964318 141.1027310
 129.7701831 101.1039957 136.8210949 129.2548455 101.8744561 137.0599337
 129.4979140 100.4305093 137.4444011 127.3548942  95.9489657 141.8796188
 126.4990539  95.5596508 141.7001826 127.7675894  96.0281618 141.0195973
 125.1290975  93.5674730 145.2853929 125.9943972  93.3717539 144.9259819
 125.1968484  93.3385082 146.2123286 129.5588134  98.9767049 138.6470730
 129.2538270  99.2913198 139.4980874 130.5118577  99.0548469 138.6898063
 122.7353294  95.7976938 142.6570296 123.3097046  95.5752120 141.9243489
 123.3224276  95.8665633 143.4098897 123.0622881  97.8281399 136.6766181
 122.2260193  98.1656086 136.9975456 122.9227651  97.6930379 135.7393318
 125.0375962  92.6718187 141.3845365 124.3840374  92.3567204 140.7601980
 124.9956436  92.0493928 142.1105188 126.1487166 102.9537482 133.2998657
 125.2414228 102.7226736 133.4989806 126.6458198 102.1575102 133.4872639
 127.3275400 103.0550077 137.8222648 126.4186619 102.7709110 137.9195117
 127.3570484 103.4749156 136.9625954 131.6039214  90.3724905 143.4156252
 131.9098091  89.5122268 143.1282167 132.3291819  90.9642525 143.2155246
 117.8963570 100.7755591 141.8037850 117.6987970 100.1824952 141.0788916
 117.3410234 100.4707801 142.5213789 127.0251488 104.5958821 135.1610726
 126.5870918 103.8794680 134.7016363 127.7661929 104.8234936 134.5995817
 123.8152654  99.2855757 141.6822822 123.0020519  99.5849928 142.0888014
 124.3111648  98.8911446 142.3997304 120.3909796 100.3019625 139.4878802
 119.4607384 100.2404081 139.7048764 120.4867268  99.7795578 138.6915443
 120.3095345  96.8274438 142.0757043 120.5702162  97.7419771 141.9666204
 121.1312517  96.3598881 142.2253656 131.1462715 103.4543202 134.7542784
 130.5291886 102.7290031 134.6575836 130.6779204 104.2152563 134.4109858
 122.9361261  97.6728627 133.8764088 122.0590728  97.5517428 133.5126335
 123.4119014  96.8814705 133.6242977 114.4563401 102.4605786 143.9705595
 115.1434441 102.1467517 143.3826610 114.3011530 103.3647151 143.6972847
 129.4321837  95.8349547 143.7660814 129.9290537  95.0819509 143.4461884
 128.6608819  95.8713863 143.2004023 126.0156806  97.9766930 143.4932498
 125.6454594  97.4237970 144.1813404 126.5115899  97.3725063 142.9407498
 114.0331377 100.5406380 146.2423062 114.0715477 100.0069971 147.0360180
 113.5271670 100.0141585 145.6234039 117.6639955  99.2670482 139.3176994
 117.9593396  98.3581160 139.2644047 116.7627991  99.2458221 138.9957996
 121.1934202  97.3426479 145.3004542 120.4720788  97.9562446 145.1612016
 121.9827458  97.8784243 145.2221188 119.3927797  96.9484580 139.4416319
 119.0640503  96.0681959 139.2591425 119.7467167  96.8932248 140.3292708
 122.5069620  97.2357549 139.8091796 122.8465692  97.7643471 139.0870405
 122.9541740  97.5737956 140.5850363 124.4937767  95.7332171 138.0085089
 125.2146129  96.1113424 137.5048806 123.8703071  96.4521048 138.1120067
 128.6368890  96.4377320 138.9443422 128.8532504  97.3201958 138.6432250
 128.1562957  96.0463533 138.2149064 124.6401390  95.2679962 140.8382626
 124.7617301  94.3396608 141.0373513 124.3503432  95.2818647 139.9260941
 127.5092580  92.9534872 143.9749346 127.5314277  93.0174205 143.0201325
 127.9260639  92.1139381 144.1689852 123.6131449 106.8534094 138.9298513
 123.7619569 107.5369559 138.2765186 124.4197892 106.8339184 139.4447969
 121.3684082 102.8799272 139.9359582 121.1230124 101.9761602 140.1339792
 121.5379996 102.8816422 138.9939060 120.6379729  98.6127629 137.4345743
 119.9448974  98.6871984 136.7785779 120.3931481  97.8487973 137.9567260
 129.3093386  90.1723231 144.8385234 129.5895140  89.5046420 145.4645661
 130.0943993  90.3652326 144.3259898 127.4973653 100.6843037 133.7426313
 128.4432758 100.5549245 133.8114731 127.1187898  99.9457699 134.2195741
 125.6816570  98.6093014 133.6781198 124.7748026  98.3126126 133.7543912
 125.9592551  98.3122832 132.8115484 116.5994511  99.9299377 144.1280245
 116.2797295  99.0764685 143.8354619 116.0527939 100.1447955 144.8838212
 127.2978636  93.1529903 139.8325439 126.4879364  92.8076988 140.2080685
 127.9863053  92.8437447 140.4213051 129.2269184  92.2307950 141.4549736
 129.7800223  92.6503404 142.1139759 129.4639271  91.3043698 141.4972692
 124.4515355  95.4679949 133.8193177 125.3134519  95.7934847 134.0788995
 124.6365699  94.6811445 133.3066243 132.6047991  94.3408475 140.9628400
 132.0246660  94.9993279 140.5806453 132.3383924  93.5185820 140.5515818
 131.0551558  93.7413533 143.1649721 131.5551336  93.8530068 142.3564039
 131.6987166  93.4374586 143.8050529 131.3872869  96.5008566 140.0184749
 130.4998724  96.7858216 139.8004943 131.8026858  96.3402329 139.1712025
 130.5316083 106.2653241 134.1132769 131.2351933 106.4703243 134.7290424
 129.8078732 106.8330002 134.3781852 132.0948672 103.2067883 137.5287568
 132.0397476 103.0412154 136.5876012 131.4694728 103.9143916 137.6849758
 125.4044798  92.7075992 137.1072886 125.3923468  93.6517832 137.2641157
 126.2968220  92.5246137 136.8132347 129.2196917  89.3018769 141.3618823
 128.4529313  88.7477255 141.5075505 129.6307622  89.3740637 142.2232975
  74.2800610   7.7249910 124.2204593  73.6288590   8.3103990 123.8338606
  75.0744973   8.2556104 124.2799630  68.2056237   4.8139047 124.6191727
  68.9787113   4.2668034 124.4804603  68.5581636   5.6783296 124.8306188
  70.5422515   0.9731713 122.2510177  70.7948036   0.4513234 121.4893640
  69.6047074   0.8097858 122.3536860  75.7575875   5.4140342 124.7573577
  75.1221708   5.4874968 125.4694481  75.4273282   6.0033940 124.0792656
  70.2618804   2.8759819 124.4534552  70.1455062   2.2004722 125.1215636
  70.3721064   2.3892193 123.6366705  72.2455832  -2.6340134 123.1542590
  72.4130234  -1.7659898 123.5213061  72.0553001  -2.4712853 122.2303879
  72.2245053  -0.1782477 124.1389256  72.1044678   0.2674574 124.9774737
  71.5297641   0.1702841 123.5802794  69.9851945  12.5921165 127.7879388
  69.9075975  13.5428990 127.8667868  69.3813588  12.2467037 128.4454314
  77.9230119   0.2938996 124.9669590  78.8347975   0.5266383 124.7917288
  77.4139766   0.8776040 124.4044669  80.4088933   6.2119253 129.7127536
  79.7239971   6.5918154 129.1624569  80.4932782   6.8214579 130.4459483
  86.8691686   3.0789916 130.8330208  86.1155394   2.5097314 130.6774212
  87.0039227   3.0452580 131.7800843  72.2590314   7.9503318 126.5084927
  72.1235989   8.7954854 126.9369775  72.8000126   8.1522595 125.7450861
  75.5733060   1.4642491 123.5456256  75.0579683   2.2347095 123.7844643
  75.3010368   0.7907627 124.1689317  80.5467334   4.2174845 125.4809429
  79.7696777   3.8786005 125.0364591  81.2258815   4.2227469 124.8064394
  75.3619363  -0.6630417 125.3716037  75.0569499  -0.3484268 126.2226180
  76.3149805  -0.5848997 125.4143370  73.8065795   5.4959806 127.0208991
  73.2787157   4.7612566 126.7082228  73.3053298   6.2734483 126.7748959
  71.9518395   3.3140016 120.0243964  71.0445457   3.0829270 120.2235113
  72.4489427   2.5177636 120.2117946  74.8586474  12.0237524 122.9440650
  74.1848173  12.3269220 123.5525608  75.2452296  12.8266604 122.5946107
  73.1306629   3.4152611 124.5467954  72.2217848   3.1311644 124.6440424
  73.1601712   3.8351690 123.6871261  78.3625896   7.0259201 128.3159122
  77.9088223   6.1850111 128.3724312  77.7319863   7.6620599 128.6533902
  76.8058835   8.8635698 129.2508940  77.0981810   9.4240755 128.5321305
  77.3157456   9.1564259 130.0062099  72.8282716   4.9561355 121.8856033
  72.3902146   4.2397214 121.4261670  73.5693157   5.1837470 121.3241124
  71.7692461   9.6416049 130.3402393  71.7268639   9.8676895 129.4110925
  72.6855159   9.4079423 130.4888194  80.9455831   3.2318552 127.9432351
  80.8073730   3.4220148 127.0153541  80.5892050   3.9937935 128.4000402
  73.0577689  12.1917196 125.1587729  73.2329445  11.7205239 125.9733352
  72.3710477  12.8182962 125.3868990  76.9493944   3.8145737 121.4788090
  76.3323115   3.0892565 121.3821143  76.4810433   4.5755097 121.1355165
  67.6238775  15.3406559 131.9327590  67.8635373  15.9725083 132.6106608
  66.7807971  14.9894599 132.2192949  68.7392490  -1.9668839 120.6009395
  67.8621956  -2.0880038 120.2371641  69.2150243  -2.7582761 120.3488283
  71.9256416  10.3857451 127.8471915  71.1423938  10.9279132 127.9410140
  72.6249161  10.9031431 128.2466156  76.3182847   4.9523768 128.0644544
  75.3839126   5.0725230 127.8949248  76.4959515   4.0496235 127.8004554
  79.7055398   0.7941087 128.5994578  80.1715850   1.6269079 128.5254881
  80.1562899   0.3286069 129.3039837  77.7731629   7.1384909 125.5980730
  78.0491473   7.0241503 126.5074604  76.9036128   6.7402393 125.5592903
  74.4085693  11.3871259 129.2413544  74.5908088  10.5692915 129.7041296
  75.2318679  11.6038952 128.8038434  74.7427859  10.3139445 126.5028592
  75.2715625   9.8031899 125.8898754  75.0056078   9.9981975 127.3674125
  68.0983607  11.3654561 129.2626368  67.4293982  11.8500689 128.7790408
  67.9596476  11.6123782 130.1769747  75.3757263  11.3480280 132.8472709
  75.2508402  10.5470020 132.3383654  76.0336354  11.8426474 132.3586679
  74.4438604   8.9442017 130.6756611  74.2963567   8.0158724 130.8564181
  75.2692098   8.9662107 130.1913686  78.0472726   9.7670575 131.7621484
  78.9719274   9.5613437 131.6245935  77.8788030   9.5186976 132.6710825
  77.8368042  10.2856243 127.1183575  78.0104920   9.7202665 126.3657428
  78.3296934  11.0857138 126.9363065  83.6907434   3.0492666 128.7373875
  84.1338580   2.2999991 128.3392998  82.8133944   3.0402802 128.3547607
  78.8243215   9.6023007 124.2180473  79.5194119  10.2229700 124.4367788
  79.1666365   8.7518358 124.4932851  80.7234638   7.0522713 125.7467804
  81.2485962   7.3909985 125.0217124  80.6356991   6.1169728 125.5630939
  72.4075299  13.1194696 130.1063057  71.9680289  12.6271075 130.7995914
  73.1583416  12.5767664 129.8655133  69.4162678   7.2136628 125.6543820
  69.5650798   7.8972093 125.0010492  70.2229121   7.1941718 126.1693275
  83.2340298   4.5197904 131.1296322  84.0687190   4.9587708 131.2933883
  83.3699427   4.0436557 130.3104568  72.9158083   9.7084759 123.1255567
  72.3432050  10.3274946 122.6726039  73.4890877  10.2584121 123.6595489
  76.1355343   9.9921909 124.2564149  77.0686016   9.9267471 124.4597025
  76.0478556  10.8278176 123.7978682  78.7643360   9.3087779 121.2168097
  78.6856991   8.9747643 122.1103855  79.5853027   9.8009547 121.2159569
  73.3004882   1.0445572 120.4671620  74.2463987   0.9151780 120.5360038
  72.9219127   0.3060234 120.9441048  71.4847799  -1.0304452 120.4026505
  70.5779254  -1.3271339 120.4789218  71.7623780  -1.3274634 119.5360791
  70.2546584  -4.1717517 120.5438484  71.1165748  -3.8462618 120.8034301
  70.4396928  -4.9586021 120.0311550  76.3347312   6.6255775 120.8378075
  77.0383162   6.8305777 121.4535731  75.6109960   7.1932537 121.1027159
  77.1645122   2.3765636 126.9580345  77.1080323   2.8334187 126.1187978
  77.7173464   1.6156321 126.7803188  85.2862266   0.9051441 130.2901756
  84.7261824   0.9744630 131.0633318  84.6805769   0.7292426 129.5701253
  78.2434009   7.0638304 122.8876535  79.0779613   6.6319502 122.7054010
  78.0818352   6.8920318 123.8153430  77.8979901   3.5670417 124.2532875
  77.8428705   3.4014689 123.3121319  77.2725956   4.2746450 124.4095064
  71.1365591  11.7447417 131.9185950  70.1861222  11.7449278 131.8050322
  71.4398077  10.9980151 131.4021984  86.8718284  17.5807955 132.9831712
  87.5096694  17.4614702 132.2795052  86.7539127  18.5288799 133.0419664
  83.6807990  17.5335383 132.9193237  83.3426502  17.4176448 132.0313772
  84.5497759  17.1326548 132.8994243  79.5394806  19.3870860 128.9090128
  78.9759671  19.2960796 128.1406415  79.4247201  18.5670764 129.3892620
  84.1627773  18.6870235 138.8779442  84.1516414  18.2923033 138.0059946
  84.3248413  17.9536307 139.4713214  77.0859238  20.8822051 131.7474348
  77.8780530  20.5412876 131.3320647  77.3255888  20.9917026 132.6676501
  85.1194365  23.0541827 124.2204593  84.4682344  23.6395908 123.8338606
  85.9138728  23.5848022 124.2799630  79.0449992  20.1430964 124.6191727
  79.8180868  19.5959951 124.4804603  79.3975391  21.0075214 124.8306188
  80.8835034  21.4707347 137.8258626  80.5924900  22.3752978 137.7105293
  81.5192019  21.5123874 138.5402696  81.8091241  18.8484195 134.4159986
  82.4054814  18.6240218 133.7016949  81.8666213  18.1068941 135.0185434
  81.3816270  16.3023631 122.2510177  81.6341790  15.7805152 121.4893640
  80.4440829  16.1389776 122.3536860  86.4259553  15.3059409 130.0584920
  87.2122642  14.8878832 129.7075337  86.6898257  16.2105501 130.2266568
  86.5969630  20.7432259 124.7573577  85.9615463  20.8166886 125.4694481
  86.2667036  21.3325858 124.0792656  91.8267980  15.2434642 130.9617899
  92.5593152  14.6733859 131.1955728  91.0707335  14.8556243 131.4024404
  81.1012558  18.2051736 124.4534552  80.9848817  17.5296640 125.1215636
  81.2114818  17.7184110 123.6366705  83.4444099  17.6661884 128.1581241
  83.0802307  17.1392505 128.8694162  84.3011215  17.2760353 127.9847726
  89.3493400   8.9556216 135.4212507  89.0176725   9.8251627 135.1973722
  88.7539013   8.6392500 136.1006538  83.0849586  12.6951783 123.1542590
  83.2523989  13.5632020 123.5213061  82.8946755  12.8579065 122.2303879
  85.8424920  21.1568762 134.8208420  85.5425643  22.0593801 134.7124227
  85.4975979  20.8900945 135.6729573  79.2937401  17.6082559 130.8545124
  78.3687897  17.4758773 131.0622816  79.5421814  18.3876778 131.3515067
  89.2422063  13.6751302 132.5005857  88.3338941  13.6066711 132.2064618
  89.1909659  14.1523247 133.3287683  83.0638807  15.1509441 124.1389256
  82.9438432  15.5966492 124.9774737  82.3691396  15.4994758 123.5802794
  76.6546212  17.2515833 131.6888913  76.7838593  17.5050312 132.6028325
  75.9743663  17.8443541 131.3693568  80.8245699  27.9213083 127.7879388
  80.7469729  28.8720908 127.8667868  80.2207343  27.5758955 128.4454314
  91.1083710  11.8767741 134.2783731  90.4658090  12.1700274 133.6323526
  90.6038638  11.7620661 135.0836928  88.7623873  15.6230914 124.9669590
  89.6741730  15.8558301 124.7917288  88.2533520  16.2067958 124.4044669
  81.5709301  17.9026401 140.0058721  82.3123986  18.4411445 139.7293545
  80.8646287  18.5292690 140.1630273  87.0464641  20.0455542 138.6030883
  87.4547997  19.6037952 137.8585515  86.3241903  19.4708169 138.8565076
  83.3995711  14.9828149 135.9764440  84.2456906  15.4067562 136.1199089
  83.3394349  14.3261773 136.6703003  87.3693456  20.6056732 132.3583172
  86.7402318  20.7702447 131.6559240  86.9819118  21.0198342 133.1294136
  91.2482688  21.5411170 129.7127536  90.5633726  21.9210072 129.1624569
  91.3326537  22.1506497 130.4459483  86.5495156  12.6432517 137.6345614
  86.3056088  13.3974577 137.0979889  86.8255087  13.0217865 138.4692861
  88.5033619  19.1871129 136.3122879  88.7150514  19.8302889 135.6357260
  88.4563367  18.3533446 135.8444809  86.1059848  11.7988950 133.2159451
  85.2444327  12.0970204 133.5076189  86.1322283  12.0159349 132.2840484
  82.9221418  20.3431141 129.6233257  83.3859763  20.6218843 128.8337879
  82.6578216  19.4414585 129.4406348  79.8145499  19.8902622 132.5613020
  80.3846856  20.3189890 131.9230505  80.4053610  19.6085207 133.2597206
  81.8590304  16.4654293 126.4322822  82.5614347  16.9175337 126.8996748
  81.5270932  15.8238112 127.0602715  75.6015638  14.7237846 131.7339956
  74.8114692  14.9795374 131.2580066  76.0926885  15.5386183 131.8391996
  89.6179447  22.0643085 134.4845236  90.4396891  21.6623272 134.2027918
  89.6141850  21.9611319 135.4361352  77.5530383  15.0882425 128.6923432
  76.7561546  15.2001119 129.2106928  77.3255975  15.4269077 127.8264323
  83.3836051  21.6127128 136.6405947  83.4480483  22.0747535 137.4764119
  82.6746974  20.9824493 136.7688257  73.8853341  14.9768336 134.1654946
  74.1361379  15.8615346 134.4312522  74.4212889  14.7972938 133.3930038
  97.7085440  18.4081833 130.8330208  96.9549149  17.8389231 130.6774212
  97.8432981  18.3744498 131.7800843  83.0984068  23.2795235 126.5084927
  82.9629743  24.1246771 126.9369775  83.6393881  23.4814513 125.7450861
  76.5513466  20.7970674 127.0812852  77.0637986  21.5913924 127.2318417
  77.2036178  20.0996964 127.0146454  78.3608350  23.9136430 129.1635606
  78.5374979  24.8354395 128.9756589  79.1565184  23.5994849 129.5929985
  84.7252545  23.9018802 140.6385269  84.2816399  23.1155181 140.3206174
  85.3869758  24.0897953 139.9729160  79.4839666  25.4314604 135.1645948
  80.0347091  25.3031667 134.3922942  78.6451142  25.7309493 134.8140841
  86.8233783  24.1821602 138.6666671  86.8052258  25.0030483 138.1746940
  87.7453703  24.0575677 138.8916812  83.2806837  21.6965731 139.5090179
  83.8135174  20.9354020 139.2789487  82.7520918  21.4039383 140.2514333
  86.4476532   6.8025797 135.0383821  86.1040801   7.6927439 134.9622931
  86.8155494   6.6127455 134.1753406  74.5162382  19.1259328 127.8572423
  75.3537604  19.5356336 127.6406131  74.6940650  18.1858770 127.8272617
  86.4126815  16.7934408 123.5456256  85.8973438  17.5639013 123.7844643
  86.1404123  16.1199545 124.1689317  83.9973926  11.6384109 128.6041494
  83.1415522  11.2490960 128.4247133  84.4100877  11.7176070 127.7441280
  85.5273072   9.1730453 133.0033054  85.0237868   9.1360588 132.1900859
  85.8203679  10.0823195 133.0629711  81.7715958   9.2569182 132.0099236
  82.6368955   9.0611991 131.6505125  81.8393467   9.0279534 132.9368593
  91.3861089  19.5466763 125.4809429  90.6090531  19.2077923 125.0364591
  92.0652570  19.5519386 124.8064394  86.2013118  14.6661501 125.3716037
  85.8963253  14.9807650 126.2226180  87.1543560  14.7442920 125.4143370
  84.6459550  20.8251724 127.0208991  84.1180911  20.0904483 126.7082228
  84.1447052  21.6026400 126.7748959  89.6252396  19.0200744 132.1376037
  88.9676070  19.7100006 132.2256166  90.4292795  19.4097176 132.4810024
  79.3778277  11.4871390 129.3815603  79.9522029  11.2646572 128.6488796
  79.9649260  11.5560085 130.1344204  88.4357854  17.3745117 130.1879979
  88.9489736  18.0075109 130.6901689  89.0859078  16.7746313 129.8223339
  79.7047864  13.5175851 123.4011488  78.8685177  13.8550538 123.7220763
  79.5652634  13.3824831 122.4638625  81.6800945   8.3612639 128.1090672
  81.0265357   8.0461656 127.4847287  81.6381419   7.7388380 128.8350495
  82.7912150  18.6431934 120.0243964  81.8839211  18.4121188 120.2235113
  83.2883182  17.8469553 120.2117946  85.6980229  27.3529441 122.9440650
  85.0241927  27.6561138 123.5525608  86.0846051  28.1558522 122.5946107
  84.9138685  14.8494573 132.4338320  83.9961247  15.0709520 132.2760008
  85.3298829  14.9240883 131.5750027  85.6973733  16.2485988 127.5641000
  86.4445552  16.7607386 127.2548122  85.9665323  15.9270041 128.4245393
  83.9700383  18.7444529 124.5467954  83.0611602  18.4603562 124.6440424
  83.9995467  19.1643608 123.6871261  89.2019651  22.3551119 128.3159122
  88.7481978  21.5142028 128.3724312  88.5713617  22.9912517 128.6533902
  88.1452570  13.2843105 129.5459789  87.4075327  12.7720491 129.8770032
  88.3979344  12.8443486 128.7343066  87.6452590  24.1927615 129.2508940
  87.9375564  24.7532672 128.5321305  88.1551210  24.4856176 130.0062099
  88.2464197   6.0619357 130.1401558  88.5523074   5.2016720 129.8527474
  88.9716802   6.6536977 129.9400552  74.5388554  16.4650043 128.5283156
  74.3412953  15.8719404 127.8034223  73.9835218  16.1602253 129.2459095
  82.5185277  16.3573150 130.6477750  82.5733887  15.4046986 130.5720226
  81.7076479  16.5132589 131.1319048  83.6676471  20.2853273 121.8856033
  83.2295901  19.5689132 121.4261670  84.4086912  20.5129388 121.3241124
  80.4577637  14.9750209 128.4068128  79.6445503  15.2744380 128.8133321
  80.9536631  14.5805898 129.1242611  82.6086215  24.9707966 130.3402393
  82.5662394  25.1968813 129.4110925  83.5248914  24.7371341 130.4888194
  86.0551849  15.4392034 137.2383022  86.4101237  15.6663507 138.0977488
  86.7023980  15.7710411 136.6160278  91.7849586  18.5610470 127.9432351
  91.6467484  18.7512066 127.0153541  91.4285805  19.3229853 128.4000402
  79.9491712  12.5468565 134.0229363  80.5891091  12.4057324 133.3252327
  79.1169242  12.2603078 133.6467965  91.8118965  20.6286997 132.9543623
  92.2455472  20.5362286 133.8026677  92.5250546  20.6044497 132.3163639
  80.7252016  21.8470995 130.1364356  81.5192614  21.3521315 129.9346931
  80.0143708  21.3188858 129.7732061  85.5446860  24.2289091 134.4876723
  85.5983883  24.7980027 135.2554439  84.6761642  24.3990976 134.1230761
  77.0334779  15.9914077 126.2124108  76.1032367  15.9298533 126.4294071
  77.1292251  15.4690030 125.4160750  76.9520328  12.5168890 128.8002350
  77.2127146  13.4314223 128.6911511  77.7737501  12.0493332 128.9498963
  78.4245254  13.9306647 135.9701175  79.0968307  13.7224009 135.3213824
  77.5975040  13.7328733 135.5306407  92.6734515  20.6710697 135.4876508
  92.8670405  21.5756508 135.7335783  92.5735133  20.2118116 136.3215093
  87.7349624  20.8217440 141.0617389  87.5835130  20.5927992 140.1447473
  87.7254303  21.7788042 141.0748734  84.5034960  18.3949353 136.0463655
  85.4327020  18.5460512 135.8732623  84.0825990  18.4833374 135.1912302
  83.3023292  22.4200017 133.8162193  83.1634377  22.0518802 134.6888131
  82.5137888  22.9347657 133.6446151  83.8971444  27.5209114 125.1587729
  84.0723199  27.0497157 125.9733352  83.2104232  28.1474880 125.3868990
  84.8528507  21.7981620 131.2051031  84.5178340  21.7582390 132.1008681
  84.3532453  21.1326336 130.7321441  78.8272751  17.2049250 136.7303612
  78.6892549  16.4729489 137.3315151  79.7377674  17.1158150 136.4487800
  87.7887699  19.1437654 121.4788090  87.1716869  18.4184483 121.3821143
  87.3204187  19.9047015 121.1355165  81.4555052  16.9169209 136.2187291
  82.1654670  16.2762402 136.1773910  81.4124360  17.1682104 137.1413472
  89.4441830  23.8536563 139.1393871  89.3854376  23.1695783 138.4724454
  89.8461349  24.5955553 138.6874497  78.4632529  30.6698477 131.9327590
  78.7029127  31.3017001 132.6106608  77.6201726  30.3186517 132.2192949
  79.5786245  13.3623079 120.6009395  78.7015711  13.2411879 120.2371641
  80.0543998  12.5709157 120.3488283  89.4459238  21.8176147 137.3707850
  88.5586016  21.4802068 137.4934249  90.0157789  21.0859178 137.6076616
  71.0988385  18.1500238 130.6950902  71.7859424  17.8361968 130.1071917
  70.9436513  19.0541603 130.4218153  82.9760391  26.4777599 134.3369094
  82.9030562  27.2832570 134.8488398  82.5337784  26.6769565 133.5117115
  82.7650171  25.7149369 127.8471915  81.9817692  26.2571049 127.9410140
  83.4642916  26.2323349 128.2466156  86.0746821  11.5243998 130.4906121
  86.5715520  10.7713961 130.1707191  85.3033802  11.5608315 129.9249330
  93.9276578  17.2284364 132.1324412  93.9166454  18.1109079 131.7618345
  93.0593957  16.8755915 131.9378949  85.4359074  26.3764433 136.4927252
  86.1487047  27.0111898 136.4203154  84.9449103  26.4728299 135.6767254
  87.1576601  20.2815686 128.0644544  86.2232880  20.4017148 127.8949248
  87.3353270  19.3788152 127.8004554  82.6581789  13.6661381 130.2177805
  82.2879577  13.1132422 130.9058711  83.1540882  13.0619515 129.6652805
  90.5449153  16.1233005 128.5994578  91.0109605  16.9560997 128.5254881
  90.9956653  15.6577987 129.3039837  80.4870988  24.1258876 137.3132823
  81.1880447  24.7595359 137.4662217  80.0166103  24.4673608 136.5528462
  88.6125384  22.4676826 125.5980730  88.8885228  22.3533421 126.5074604
  87.7429883  22.0694311 125.5592903  88.5165815   8.4913592 132.6385479
  87.6028895   8.7217819 132.8067686  88.9458917   8.5752036 133.4899512
  88.2872274  16.6803484 135.1385373  87.6343724  16.9279391 134.4837826
  88.6652654  15.8667622 134.8047851  85.2479448  26.7163177 129.2413544
  85.4301842  25.8984833 129.7041296  86.0712434  26.9330869 128.8038434
  85.5821613  25.6431362 126.5028592  86.1109380  25.1323817 125.8898754
  85.8449833  25.3273892 127.3674125  76.0838706  23.6595232 134.2463926
  76.6692143  22.9138919 134.3791830  75.8863544  23.9699188 135.1300590
  78.9377361  26.6946479 129.2626368  78.2687737  27.1792607 128.7790408
  78.7990231  26.9415699 130.1769747  70.6756361  16.2300832 132.9668369
  70.7140460  15.6964422 133.7605487  70.1696654  15.7036037 132.3479346
  83.0782630  28.7290222 135.8609026  83.6300938  28.8921844 136.6258112
  83.4188823  29.3194660 135.1889051  87.9293504  23.5551480 141.7157681
  88.4733408  24.1681438 141.2212636  87.3480349  24.1131058 142.2324694
  74.3064938  14.9564934 126.0422300  74.6018379  14.0475612 125.9889354
  73.4052974  14.9352673 125.7203303  86.2151017  26.6772198 132.8472709
  86.0902157  25.8761938 132.3383654  86.8730108  27.1718391 132.3586679
  77.8359185  13.0320930 132.0249849  77.1145771  13.6456898 131.8857322
  78.6252441  13.5678695 131.9466495  88.2785926  24.4781218 134.4752259
  87.3316261  24.3586569 134.4030585  88.6268699  23.5903716 134.5578520
  76.0352780  12.6379032 126.1661625  75.7065486  11.7576410 125.9836731
  76.3892151  12.5826700 127.0538015  85.2832359  24.2733934 130.6756611
  85.1357321  23.3450642 130.8564181  86.1085852  24.2954025 130.1913686
  79.1494603  12.9252001 126.5337103  79.4890676  13.4537923 125.8115711
  79.5966724  13.2632407 127.3095670  88.8866481  25.0962493 131.7621484
  89.8113028  24.8905354 131.6245935  88.7181784  24.8478894 132.6710825
  82.4954516   8.3938364 134.4367494  83.3180585   7.9198843 134.3146384
  82.7392579   9.1728848 134.9366180  81.1362750  11.4226623 124.7330396
  81.8571113  11.8007876 124.2294113  80.5128054  12.1415500 124.8365374
  85.2793873  12.1271772 125.6688728  85.4957488  13.0096410 125.3677556
  84.7987940  11.7357985 124.9394370  80.0193095  15.0857485 132.2459473
  79.8737675  15.3997788 133.1383754  79.5418298  15.7042385 131.6930371
  81.8789477  12.0760033 132.2940362  81.8651046  11.1801126 131.9572660
  82.5961905  12.0830697 132.9278648  83.7315608  12.5097373 134.3393490
  83.4733386  13.4314444 134.3377820  83.2000648  12.1127808 135.0293954
  88.6761797  25.6148160 127.1183575  88.8498674  25.0494583 126.3657428
  89.1690688  26.4149055 126.9363065  74.4938757  17.6262830 135.1847134
  73.9492225  18.4022637 135.3167408  75.3718107  17.9733634 135.0266255
  81.2826373  10.9574413 127.5627932  81.4042285  10.0291060 127.7618820
  80.9928416  10.9713099 126.6506248  84.1517564   8.6429324 130.6994652
  84.1739261   8.7068657 129.7446632  84.5685623   7.8033832 130.8935158
  94.5301188  18.3784583 128.7373875  94.9732334  17.6291909 128.3392998
  93.6527698  18.3694720 128.3547607  89.6636969  24.9314925 124.2180473
  90.3587874  25.5521618 124.4367788  90.0060119  24.0810276 124.4932851
  91.5628392  22.3814630 125.7467804  92.0879717  22.7201903 125.0217124
  91.4750745  21.4461646 125.5630939  83.2248441  26.2948704 137.8757681
  83.5335568  26.0497851 138.7480380  84.0223923  26.4995342 137.3876551
  83.2469053  28.4486614 130.1063057  82.8074044  27.9562992 130.7995914
  83.9977170  27.9059581 129.8655133  75.7261392  24.6398155 130.1087685
  76.5519412  24.3401926 129.7286329  75.3755444  23.8705777 130.5577474
  80.6942925  23.9924623 132.1785359  80.0722935  23.3295328 131.8787587
  81.3647792  24.0185755 131.4959007  73.9269997  22.5584481 131.0676619
  73.0901906  22.1306655 130.8860620  73.8993643  22.7516924 132.0047410
  91.2522299  23.0147534 141.0519002  90.4617842  22.9971673 140.5123502
  91.0155653  23.5535828 141.8068039  91.3720174  19.8640000 138.3651731
  91.4218179  19.6990008 139.3067253  91.2634097  18.9967259 137.9749611
  80.2556432  22.5428546 125.6543820  80.4044553  23.2264010 125.0010492
  81.0622876  22.5233636 126.1693275  88.6623936  15.8470928 139.6811037
  89.5633799  15.7077393 139.3895035  88.7371910  16.0125383 140.6209215
  92.8738370  22.2836942 138.6093752  92.5823179  22.6466922 139.4457213
  92.2610502  21.5703950 138.4307084  94.0734053  19.8489822 131.1296322
  94.9080944  20.2879626 131.2933883  94.2093182  19.3728475 130.3104568
  91.1225559  17.4069557 137.0773810  91.5979680  17.5997203 136.2692662
  90.1991124  17.4628742 136.8317194  78.0109065  18.5693724 126.6604889
  77.7655107  17.6656054 126.8585099  78.1804980  18.5710874 125.7184367
  85.7005775   9.4417400 136.0429644  86.2187719  10.1778427 135.7176133
  85.3460908   9.7481393 136.8776403  77.2804713  14.3022081 124.1591050
  76.5873958  14.3766436 123.5031086  77.0356465  13.5382425 124.6812567
  85.9518369   5.8617683 131.5630541  86.2320123   5.1940872 132.1890967
  86.7368976   6.0546778 131.0505205  83.7551838  25.0376677 123.1255567
  83.1825805  25.6566864 122.6726039  84.3284631  25.5876038 123.6595489
  89.8227228  14.2835317 135.3102116  90.7744651  14.3833414 135.3314340
  89.6530678  13.4913585 135.8200200  87.8441607  11.3690900 135.4961517
  87.2491539  11.6495913 134.8008005  87.5591304  11.8584801 136.2678258
  86.9749098  25.3213827 124.2564149  87.9079771  25.2559388 124.4597025
  86.8872310  26.1570094 123.7978682  89.6037114  24.6379697 121.2168097
  89.5250746  24.3039561 122.1103855  90.4246781  25.1301465 121.2159569
  92.3015305  17.5041436 134.4244415  92.2691626  16.5657437 134.6104099
  92.9115929  17.5825473 133.6910240  84.1398636  16.3737489 120.4671620
  85.0857741  16.2443697 120.5360038  83.7612881  15.6352151 120.9441048
  92.4509794  14.2952480 134.4702699  91.9348843  13.5110936 134.2832628
  93.3349742  13.9671196 134.6349218  90.1120521   8.0393495 130.4298511
  89.9145342   7.7308583 131.3141843  90.7220226   8.7655134 130.5596441
  98.1191855  18.5657443 133.5650452  98.8495244  18.3042731 134.1258156
  97.5098801  17.8286165 133.6052520  96.2007152  16.7065306 134.1624903
  95.4740316  16.5721271 133.5541395  95.7854439  17.0142134 134.9681622
  84.0237329  20.4255235 141.9272276  84.9440338  20.6033834 142.1212323
  83.9886912  19.4811281 141.7751976  82.3241553  14.2987466 120.4026505
  81.4173009  14.0020578 120.4789218  82.6017534  14.0017284 119.5360791
  73.2419494  15.6193829 130.8525551  72.9222278  14.7659137 130.5599925
  72.6952922  15.8342407 131.6083518  77.0199401  18.3356270 134.5695058
  77.2385411  19.2673378 134.5883091  77.4325175  17.9764244 135.3549861
  83.9403619   8.8424355 126.5570746  83.1304347   8.4971440 126.9325992
  84.6288036   8.5331899 127.1458358  85.8694167   7.9202402 128.1795043
  86.4225206   8.3397856 128.8385066  86.1064254   6.9938150 128.2217999
  81.0940338  11.1574401 120.5438484  81.9559502  11.4829299 120.8034301
  81.2790682  10.3705897 120.0311550  73.1107754  19.2396741 132.8218673
  72.4171225  18.8250693 132.3088627  73.8580745  19.2817277 132.2252092
  89.2472975  10.0302927 127.6873707  88.6671644  10.6887731 127.3051759
  88.9808907   9.2080272 127.2761124  87.6976541   9.4307985 129.8895027
  88.1976319   9.5424520 129.0809346  88.3412149   9.1269038 130.5295836
  75.0244496  19.1714994 130.6984688  75.0015184  19.2702682 129.7466571
  75.3345133  20.0180145 131.0201854  77.6831874  21.2291149 134.8131302
  78.6375128  21.1975092 134.7461234  77.4844398  20.7681773 135.6281528
  78.2731256  19.7992265 137.3802100  79.0924145  20.2936344 137.4036937
  78.5468064  18.8824234 137.3519667  88.0297853  12.1903018 126.7430055
  87.1423708  12.4752668 126.5250250  88.4451842  12.0296781 125.8957332
  91.3812389  12.2149539 130.4584394  92.1572779  12.7045991 130.7309011
  90.6560523  12.6407593 130.9156264  93.8184947  12.9277158 131.5158335
  94.4129438  12.6872894 130.8051643  93.8911531  12.2084289 132.1431871
  76.0382103  26.7710769 131.8301500  75.9036571  26.0111170 131.2639498
  75.6214165  27.4951669 131.3630289  87.1741066  21.9547692 120.8378075
  87.8776916  22.1597695 121.4535731  86.4503715  22.5224454 121.1027159
  88.0038876  17.7057554 126.9580345  87.9474078  18.1626105 126.1187978
  88.5567219  16.9448238 126.7803188  91.8143682  13.4947286 127.7830465
  91.5580616  13.0943921 128.6138673  91.1896550  14.2091079 127.6580604
  96.1256020  16.2343359 130.2901756  95.5655578  16.3036548 131.0633318
  95.5199523  16.0584343 129.5701253  79.1951229  27.6680086 132.0419943
  79.0783613  28.6125518 131.9398633  78.3743675  27.3653647 132.4305742
  89.0827763  22.3930222 122.8876535  89.9173367  21.9611420 122.7054010
  88.9212106  22.2212235 123.8153430  88.7373656  18.8962335 124.2532875
  88.6822459  18.7306606 123.3121319  88.1119711  19.6038368 124.4095064
  86.0519563  21.2011247 143.5786437  86.9210722  21.3751899 143.2173072
  85.5726314  22.0205664 143.4562167  82.0469781   8.3970444 123.8318193
  82.0348451   9.3412284 123.9886464  82.9393203   8.2140589 123.5377654
  80.2205743  28.3208348 135.2575871  81.1232990  28.3531958 135.5742366
  79.9943113  27.3908799 135.2722207  81.9759345  27.0739334 131.9185950
  81.0254976  27.0741196 131.8050322  82.2791831  26.3272069 131.4021984
  85.8621901   4.9913221 128.0864130  85.0954296   4.4371707 128.2320812
  86.2732606   5.0635089 128.9478281  97.7112039  32.9099873 132.9831712
  98.3490448  32.7906620 132.2795052  97.5932881  33.8580717 133.0419664
  94.5201745  32.8627301 132.9193237  94.1820256  32.7468366 132.0313772
  95.3891513  32.4618466 132.8994243  90.3788561  34.7162777 128.9090128
  89.8153426  34.6252714 128.1406415  90.2640956  33.8962682 129.3892620
  95.0021528  34.0162153 138.8779442  94.9910169  33.6214951 138.0059946
  95.1642167  33.2828225 139.4713214  87.9252992  36.2113969 131.7474348
  88.7174284  35.8704793 131.3320647  88.1649643  36.3208944 132.6676501
  95.9588119  38.3833745 124.2204593  95.3076099  38.9687825 123.8338606
  96.7532482  38.9139940 124.2799630  89.8843746  35.4722882 124.6191727
  90.6574622  34.9251869 124.4804603  90.2369145  36.3367131 124.8306188
  91.7228789  36.7999264 137.8258626  91.4318655  37.7044895 137.7105293
  92.3585773  36.8415792 138.5402696  92.6484996  34.1776113 134.4159986
  93.2448568  33.9532135 133.7016949  92.7059967  33.4360858 135.0185434
  92.2210024  31.6315548 122.2510177  92.4735545  31.1097069 121.4893640
  91.2834583  31.4681694 122.3536860  97.2653307  30.6351327 130.0584920
  98.0516396  30.2170750 129.7075337  97.5292011  31.5397419 130.2266568
  97.4363384  36.0724177 124.7573577  96.8009217  36.1458803 125.4694481
  97.1060791  36.6617776 124.0792656 102.6661734  30.5726560 130.9617899
 103.3986906  30.0025777 131.1955728 101.9101090  30.1848160 131.4024404
  91.9406313  33.5343654 124.4534552  91.8242571  32.8588558 125.1215636
  92.0508573  33.0476028 123.6366705  94.2837854  32.9953801 128.1581241
  93.9196061  32.4684422 128.8694162  95.1404970  32.6052270 127.9847726
 100.1887154  24.2848134 135.4212507  99.8570479  25.1543545 135.1973722
  99.5932768  23.9684418 136.1006538  93.9243341  28.0243701 123.1542590
  94.0917743  28.8923937 123.5213061  93.7340510  28.1870983 122.2303879
  96.6818674  36.4860680 134.8208420  96.3819397  37.3885719 134.7124227
  96.3369734  36.2192863 135.6729573  90.1331155  32.9374477 130.8545124
  89.2081652  32.8050691 131.0622816  90.3815569  33.7168696 131.3515067
 100.0815818  29.0043220 132.5005857  99.1732695  28.9358628 132.2064618
 100.0303414  29.4815165 133.3287683  93.9032562  30.4801358 124.1389256
  93.7832187  30.9258409 124.9774737  93.2085150  30.8286676 123.5802794
  87.4939967  32.5807750 131.6888913  87.6232348  32.8342229 132.6028325
  86.8137418  33.1735458 131.3693568  91.6639454  43.2505000 127.7879388
  91.5863484  44.2012825 127.8667868  91.0601097  42.9050873 128.4454314
  94.1556684  30.4232866 140.4440754  93.3790018  30.9826786 140.4343619
  94.7947247  30.9089649 140.9655625 101.9477464  27.2059658 134.2783731
 101.3051844  27.4992192 133.6323526 101.4432393  27.0912579 135.0836928
  99.6017628  30.9522832 124.9669590 100.5135484  31.1850218 124.7917288
  99.0927275  31.5359876 124.4044669  92.4103056  33.2318319 140.0058721
  93.1517740  33.7703363 139.7293545  91.7040041  33.8584608 140.1630273
  97.8858396  35.3747459 138.6030883  98.2941752  34.9329870 137.8585515
  97.1635657  34.8000087 138.8565076  94.2389466  30.3120066 135.9764440
  95.0850661  30.7359480 136.1199089  94.1788103  29.6553691 136.6703003
  98.2087210  35.9348650 132.3583172  97.5796073  36.0994364 131.6559240
  97.8212872  36.3490260 133.1294136 102.0876442  36.8703088 129.7127536
 101.4027480  37.2501989 129.1624569 102.1720291  37.4798415 130.4459483
  97.3888911  27.9724435 137.6345614  97.1449843  28.7266495 137.0979889
  97.6648841  28.3509782 138.4692861  99.3427374  34.5163047 136.3122879
  99.5544269  35.1594807 135.6357260  99.2957122  33.6825364 135.8444809
  96.9453603  27.1280868 133.2159451  96.0838082  27.4262121 133.5076189
  96.9716037  27.3451267 132.2840484  93.7615172  35.6723058 129.6233257
  94.2253518  35.9510761 128.8337879  93.4971970  34.7706503 129.4406348
  90.6539253  35.2194540 132.5613020  91.2240610  35.6481808 131.9230505
  91.2447365  34.9377124 133.2597206  92.6984058  31.7946211 126.4322822
  93.4008101  32.2467254 126.8996748  92.3664687  31.1530029 127.0602715
  91.1464420  30.3857967 140.8074031  90.5163080  31.0674248 141.0409428
  91.0400508  30.2741049 139.8627170  86.4409392  30.0529763 131.7339956
  85.6508446  30.3087292 131.2580066  86.9320639  30.8678101 131.8391996
 100.4573202  37.3935002 134.4845236 101.2790645  36.9915190 134.2027918
 100.4535605  37.2903237 135.4361352  88.3924137  30.4174342 128.6923432
  87.5955301  30.5293037 129.2106928  88.1649730  30.7560995 127.8264323
  94.2229805  36.9419046 136.6405947  94.2874238  37.4039453 137.4764119
  93.5140729  36.3116411 136.7688257  84.7247095  30.3060254 134.1654946
  84.9755133  31.1907264 134.4312522  85.2606643  30.1264855 133.3930038
 108.5479195  33.7373751 130.8330208 107.7942903  33.1681149 130.6774212
 108.6826736  33.7036415 131.7800843  93.9377823  38.6087153 126.5084927
  93.8023498  39.4538689 126.9369775  94.4787635  38.8106431 125.7450861
  90.4245162  24.6878733 143.1699283  90.0312108  24.1344932 143.8446927
  91.2411303  24.9989311 143.5605800  87.3907220  36.1262591 127.0812852
  87.9031741  36.9205841 127.2318417  88.0429933  35.4288882 127.0146454
  89.2002105  39.2428347 129.1635606  89.3768733  40.1646312 128.9756589
  89.9958938  38.9286767 129.5929985  93.3413123  26.1036612 140.7619539
  94.0822837  26.7043765 140.6824002  93.5731046  25.3614250 140.2037582
  88.4854461  31.2892979 139.0397769  88.3707977  30.3878237 139.3404868
  87.6298979  31.5356676 138.6882585  95.5646299  39.2310720 140.6385269
  95.1210153  38.4447098 140.3206174  96.2263513  39.4189870 139.9729160
  90.3233420  40.7606521 135.1645948  90.8740845  40.6323585 134.3922942
  89.4844896  41.0601410 134.8140841  97.6627537  39.5113520 138.6666671
  97.6446013  40.3322401 138.1746940  98.5847457  39.3867595 138.8916812
  94.1200591  37.0257649 139.5090179  94.6528928  36.2645937 139.2789487
  93.5914672  36.7331301 140.2514333  97.2870286  22.1317715 135.0383821
  96.9434556  23.0219357 134.9622931  97.6549249  21.9419373 134.1753406
  85.3556137  34.4551246 127.8572423  86.1931359  34.8648254 127.6406131
  85.5334405  33.5150688 127.8272617  97.2520569  32.1226326 123.5456256
  96.7367192  32.8930931 123.7844643  96.9797877  31.4491462 124.1689317
  94.8367680  26.9676027 128.6041494  93.9809276  26.5782877 128.4247133
  95.2494632  27.0467988 127.7441280  96.3666827  24.5022370 133.0033054
  95.8631622  24.4652505 132.1900859  96.6597434  25.4115113 133.0629711
  92.6109713  24.5861100 132.0099236  93.4762709  24.3903909 131.6505125
  92.6787221  24.3571452 132.9368593 102.2254843  34.8758681 125.4809429
 101.4484286  34.5369840 125.0364591 102.9046324  34.8811304 124.8064394
  97.0406872  29.9953418 125.3716037  96.7357008  30.3099567 126.2226180
  97.9937314  30.0734838 125.4143370  95.4853304  36.1543642 127.0208991
  94.9574666  35.4196401 126.7082228  94.9840807  36.9318318 126.7748959
 100.4646150  34.3492662 132.1376037  99.8069825  35.0391923 132.2256166
 101.2686549  34.7389094 132.4810024  90.2172032  26.8163308 129.3815603
  90.7915784  26.5938489 128.6488796  90.8043014  26.8852002 130.1344204
  99.2751609  32.7037035 130.1879979  99.7883491  33.3367027 130.6901689
  99.9252833  32.1038230 129.8223339  90.5441619  28.8467769 123.4011488
  89.7078931  29.1842455 123.7220763  90.4046388  28.7116749 122.4638625
  92.5194699  23.6904557 128.1090672  91.8659112  23.3753574 127.4847287
  92.4775174  23.0680297 128.8350495  93.6305904  33.9723852 120.0243964
  92.7232966  33.7413105 120.2235113  94.1276936  33.1761471 120.2117946
  96.5373983  42.6821359 122.9440650  95.8635682  42.9853056 123.5525608
  96.9239805  43.4850439 122.5946107  95.7532440  30.1786490 132.4338320
  94.8355001  30.4001437 132.2760008  96.1692583  30.2532801 131.5750027
  96.5367487  31.5777906 127.5641000  97.2839306  32.0899303 127.2548122
  96.8059077  31.2561959 128.4245393  94.8094138  34.0736447 124.5467954
  93.9005357  33.7895480 124.6440424  94.8389221  34.4935525 123.6871261
 100.0413405  37.6843036 128.3159122  99.5875732  36.8433946 128.3724312
  99.4107372  38.3204435 128.6533902  98.9846325  28.6135022 129.5459789
  98.2469081  28.1012408 129.8770032  99.2373098  28.1735404 128.7343066
  98.4846344  39.5219533 129.2508940  98.7769319  40.0824590 128.5321305
  98.9944965  39.8148094 130.0062099  99.0857952  21.3911274 130.1401558
  99.3916829  20.5308638 129.8527474  99.8110557  21.9828894 129.9400552
  85.3782308  31.7941961 128.5283156  85.1806708  31.2011322 127.8034223
  84.8228972  31.4894171 129.2459095  93.3579032  31.6865067 130.6477750
  93.4127641  30.7338904 130.5720226  92.5470234  31.8424506 131.1319048
  94.5070225  35.6145190 121.8856033  94.0689655  34.8981049 121.4261670
  95.2480666  35.8421305 121.3241124  91.2971392  30.3042127 128.4068128
  90.4839257  30.6036298 128.8133321  91.7930386  29.9097816 129.1242611
  93.4479970  40.2999884 130.3402393  93.4056148  40.5260730 129.4110925
  94.3642668  40.0663259 130.4888194  96.8945603  30.7683952 137.2383022
  97.2494991  30.9955425 138.0977488  97.5417735  31.1002328 136.6160278
 102.6243340  33.8902387 127.9432351 102.4861239  34.0803983 127.0153541
 102.2679559  34.6521770 128.4000402  90.7885466  27.8760483 134.0229363
  91.4284846  27.7349242 133.3252327  89.9562997  27.5894996 133.6467965
 102.6512720  35.9578914 132.9543623 103.0849227  35.8654204 133.8026677
 103.3644301  35.9336415 132.3163639  91.5645770  37.1762913 130.1364356
  92.3586369  36.6813233 129.9346931  90.8537463  36.6480776 129.7732061
  96.3840615  39.5581009 134.4876723  96.4377637  40.1271945 135.2554439
  95.5155396  39.7282894 134.1230761  87.8728534  31.3205995 126.2124108
  86.9426122  31.2590450 126.4294071  87.9686006  30.7981947 125.4160750
  87.7914083  27.8460808 128.8002350  88.0520900  28.7606141 128.6911511
  88.6131255  27.3785250 128.9498963  89.2639008  29.2598565 135.9701175
  89.9362062  29.0515927 135.3213824  88.4368795  29.0620651 135.5306407
 103.5128269  36.0002615 135.4876508 103.7064160  36.9048426 135.7335783
 103.4128888  35.5410034 136.3215093  95.1664580  25.8860506 137.9866836
  94.5192495  26.5850455 137.8931312  95.9365596  26.3196650 138.3543084
  98.5743378  36.1509358 141.0617389  98.4228885  35.9219910 140.1447473
  98.5648058  37.1079959 141.0748734  95.3428715  33.7241271 136.0463655
  96.2720775  33.8752430 135.8732623  94.9219745  33.8125291 135.1912302
  94.1417046  37.7491935 133.8162193  94.0028132  37.3810719 134.6888131
  93.3531643  38.2639574 133.6446151  94.7365198  42.8501031 125.1587729
  94.9116954  42.3789075 125.9733352  94.0497986  43.4766798 125.3868990
  95.6922261  37.1273538 131.2051031  95.3572094  37.0874308 132.1008681
  95.1926207  36.4618254 130.7321441  89.6666505  32.5341168 136.7303612
  89.5286303  31.8021407 137.3315151  90.5771429  32.4450068 136.4487800
  98.6281453  34.4729572 121.4788090  98.0110624  33.7476400 121.3821143
  98.1597942  35.2338932 121.1355165  92.2948806  32.2461127 136.2187291
  93.0048425  31.6054319 136.1773910  92.2518114  32.4974022 137.1413472
 100.2835585  39.1828480 139.1393871 100.2248131  38.4987701 138.4724454
 100.6855103  39.9247470 138.6874497  91.0077740  29.2326345 138.0382931
  90.4715097  28.7817083 138.6904527  90.4194448  29.3672254 137.2953395
  89.3026284  45.9990394 131.9327590  89.5422882  46.6308918 132.6106608
  88.4595480  45.6478434 132.2192949  90.4179999  28.6914996 120.6009395
  89.5409465  28.5703797 120.2371641  90.8937752  27.9001075 120.3488283
 100.2852992  37.1468064 137.3707850  99.3979771  36.8093986 137.4934249
 100.8551543  36.4151096 137.6076616  81.9382139  33.4792156 130.6950902
  82.6253179  33.1653886 130.1071917  81.7830268  34.3833521 130.4218153
  86.7416861  28.3682353 135.1235925  86.6575050  27.7608022 134.3886335
  85.9199568  28.8591371 135.1245422  93.8154145  41.8069517 134.3369094
  93.7424317  42.6124488 134.8488398  93.3731539  42.0061482 133.5117115
  93.6043925  41.0441287 127.8471915  92.8211447  41.5862967 127.9410140
  94.3036670  41.5615266 128.2466156  96.9140575  26.8535916 130.4906121
  97.4109275  26.1005878 130.1707191  96.1427557  26.8900233 129.9249330
 104.7670333  32.5576282 132.1324412 104.7560209  33.4400997 131.7618345
 103.8987712  32.2047833 131.9378949  96.2752829  41.7056351 136.4927252
  96.9880801  42.3403816 136.4203154  95.7842858  41.8020217 135.6767254
  97.9970356  35.6107603 128.0644544  97.0626635  35.7309066 127.8949248
  98.1747024  34.7080070 127.8004554  93.4975544  28.9953299 130.2177805
  93.1273331  28.4424340 130.9058711  93.9934636  28.3911433 129.6652805
 101.3842907  31.4524923 128.5994578 101.8503359  32.2852914 128.5254881
 101.8350408  30.9869904 129.3039837  91.3264742  39.4550794 137.3132823
  92.0274202  40.0887277 137.4662217  90.8559857  39.7965526 136.5528462
  99.4519138  37.7968744 125.5980730  99.7278982  37.6825339 126.5074604
  98.5823637  37.3986229 125.5592903  99.3559570  23.8205510 132.6385479
  98.4422650  24.0509736 132.8067686  99.7852671  23.9043954 133.4899512
  99.1266028  32.0095402 135.1385373  98.4737479  32.2571309 134.4837826
  99.5046408  31.1959540 134.8047851  96.0873202  42.0455095 129.2413544
  96.2695597  41.2276751 129.7041296  96.9106188  42.2622787 128.8038434
  96.4215368  40.9723280 126.5028592  96.9503134  40.4615734 125.8898754
  96.6843587  40.6565810 127.3674125  95.1753601  32.7515213 141.6251410
  94.4994238  32.6509342 142.2953786  95.9981235  32.5954426 142.0887408
  86.9232461  38.9887149 134.2463926  87.5085897  38.2430837 134.3791830
  86.7257299  39.2991106 135.1300590  89.7771116  42.0238397 129.2626368
  89.1081491  42.5084524 128.7790408  89.6383985  42.2707617 130.1769747
  81.5150115  31.5592749 132.9668369  81.5534215  31.0256340 133.7605487
  81.0090408  31.0327955 132.3479346  93.9176384  44.0582140 135.8609026
  94.4694692  44.2213762 136.6258112  94.2582578  44.6486578 135.1889051
  88.8940878  26.4057290 136.4630911  88.9582204  27.2672121 136.0508309
  88.8307998  25.7931292 135.7303270  88.3693150  28.4780422 140.1103945
  88.9965189  28.0957500 140.7241470  87.5121069  28.2594624 140.4759638
  98.7687259  38.8843398 141.7157681  99.3127163  39.4973356 141.2212636
  98.1874104  39.4422976 142.2324694  85.1458693  30.2856852 126.0422300
  85.4412134  29.3767530 125.9889354  84.2446729  30.2644591 125.7203303
  97.0544772  42.0064116 132.8472709  96.9295911  41.2053855 132.3383654
  97.7123863  42.5010309 132.3586679  88.6752940  28.3612848 132.0249849
  87.9539526  28.9748816 131.8857322  89.4646196  28.8970613 131.9466495
  99.1179680  39.8073136 134.4752259  98.1710016  39.6878487 134.4030585
  99.4662453  38.9195634 134.5578520  91.4779253  25.6967275 138.2990501
  92.0013655  25.9429571 139.0616810  91.2591587  26.5287309 137.8793638
  86.8746534  27.9670949 126.1661625  86.5459241  27.0868328 125.9836731
  87.2285905  27.9118618 127.0538015  96.1226113  39.6025852 130.6756611
  95.9751076  38.6742559 130.8564181  96.9479607  39.6245943 130.1913686
  89.9888358  28.2543919 126.5337103  90.3284430  28.7829840 125.8115711
  90.4360478  28.5924325 127.3095670  99.7260235  40.4254411 131.7621484
 100.6506783  40.2197272 131.6245935  99.5575539  40.1770812 132.6710825
  92.6831798  26.6380970 135.9840171  92.3428619  25.8388783 136.3860851
  91.9770805  26.9382681 135.4117004  93.3348270  23.7230282 134.4367494
  94.1574340  23.2490760 134.3146384  93.5786334  24.5020766 134.9366180
  91.9756505  26.7518541 124.7330396  92.6964867  27.1299793 124.2294113
  91.3521809  27.4707417 124.8365374  96.1187628  27.4563690 125.6688728
  96.3351242  28.3388327 125.3677556  95.6381695  27.0649903 124.9394370
  90.8586849  30.4149403 132.2459473  90.7131430  30.7289706 133.1383754
  90.3812053  31.0334303 131.6930371  92.7183232  27.4051951 132.2940362
  92.7044801  26.5093044 131.9572660  93.4355660  27.4122615 132.9278648
  94.5709363  27.8389291 134.3393490  94.3127140  28.7606362 134.3377820
  94.0394403  27.4419726 135.0293954  99.5155551  40.9440078 127.1183575
  99.6892429  40.3786501 126.3657428 100.0084443  41.7440973 126.9363065
  85.3332511  32.9554747 135.1847134  84.7885979  33.7314555 135.3167408
  86.2111861  33.3025552 135.0266255  92.1220128  26.2866331 127.5627932
  92.2436039  25.3582977 127.7618820  91.8322170  26.3005017 126.6506248
  94.9911318  23.9721242 130.6994652  95.0133015  24.0360575 129.7446632
  95.4079377  23.1325750 130.8935158 105.3694943  33.7076501 128.7373875
 105.8126089  32.9583826 128.3392998 104.4921453  33.6986637 128.3547607
 100.5030724  40.2606843 124.2180473 101.1981628  40.8813535 124.4367788
 100.8453874  39.4102194 124.4932851  86.1198533  32.0824643 138.0777291
  85.3780269  32.2307279 138.6641921  85.7991277  32.3432909 137.2144040
 102.4022147  37.7106548 125.7467804 102.9273471  38.0493821 125.0217124
 102.3144500  36.7753563 125.5630939  94.0642196  41.6240622 137.8757681
  94.3729322  41.3789768 138.7480380  94.8617678  41.8287260 137.3876551
  94.0862808  43.7778531 130.1063057  93.6467798  43.2854910 130.7995914
  94.8370925  43.2351499 129.8655133  86.5655147  39.9690072 130.1087685
  87.3913167  39.6693844 129.7286329  86.2149199  39.1997695 130.5577474
  91.5336680  39.3216540 132.1785359  90.9116689  38.6587245 131.8787587
  92.2041547  39.3477672 131.4959007  84.7663752  37.8876399 131.0676619
  83.9295660  37.4598573 130.8860620  84.7387397  38.0808842 132.0047410
  91.6061207  27.7998328 141.7717865  91.6549363  28.6760451 141.3895635
  92.1483722  27.2575721 141.1989508 102.0916053  38.3439452 141.0519002
 101.3011597  38.3263591 140.5123502 101.8549408  38.8827745 141.8068039
 102.2113928  35.1931918 138.3651731 102.2611933  35.0281926 139.3067253
 102.1027851  34.3259177 137.9749611  91.0950187  37.8720464 125.6543820
  91.2438307  38.5555928 125.0010492  91.9016630  37.8525554 126.1693275
  99.5017690  31.1762846 139.6811037 100.4027553  31.0369311 139.3895035
  99.5765665  31.3417301 140.6209215  93.8360496  28.5529701 138.5264224
  92.9663805  28.8463267 138.2546812  94.0719976  29.1370146 139.2471487
 103.7132125  37.6128860 138.6093752 103.4216933  37.9758840 139.4457213
 103.1004256  36.8995868 138.4307084 104.9127807  35.1781739 131.1296322
 105.7474699  35.6171543 131.2933883 105.0486936  34.7020393 130.3104568
 101.9619313  32.7361474 137.0773810 102.4373435  32.9289121 136.2692662
 101.0384879  32.7920660 136.8317194  88.8502820  33.8985641 126.6604889
  88.6048862  32.9947971 126.8585099  89.0198734  33.9002792 125.7184367
  96.5399530  24.7709318 136.0429644  97.0581473  25.5070345 135.7176133
  96.1854662  25.0773311 136.8776403  88.1198467  29.6313999 124.1591050
  87.4267712  29.7058354 123.5031086  87.8750219  28.8674343 124.6812567
  96.7912124  21.1909600 131.5630541  97.0713878  20.5232789 132.1890967
  97.5762731  21.3838696 131.0505205  94.5945592  40.3668594 123.1255567
  94.0219559  40.9858781 122.6726039  95.1678386  40.9167956 123.6595489
 100.6620982  29.6127234 135.3102116 101.6138405  29.7125332 135.3314340
 100.4924433  28.8205503 135.8200200  98.6835362  26.6982818 135.4961517
  98.0885294  26.9787830 134.8008005  98.3985058  27.1876718 136.2678258
  97.8142852  40.6505744 124.2564149  98.7473525  40.5851306 124.4597025
  97.7266065  41.4862011 123.7978682 100.4430869  39.9671615 121.2168097
 100.3644500  39.6331478 122.1103855 101.2640536  40.4593383 121.2159569
 103.1409060  32.8333354 134.4244415 103.1085380  31.8949355 134.6104099
 103.7509684  32.9117391 133.6910240  94.9792391  31.7029407 120.4671620
  95.9251496  31.5735615 120.5360038  94.6006636  30.9644069 120.9441048
 103.2903548  29.6244397 134.4702699 102.7742597  28.8402854 134.2832628
 104.1743497  29.2963114 134.6349218 100.9514275  23.3685413 130.4298511
 100.7539096  23.0600501 131.3141843 101.5613981  24.0947052 130.5596441
 108.9585610  33.8949361 133.5650452 109.6888998  33.6334649 134.1258156
 108.3492555  33.1578083 133.6052520 107.0400907  32.0357223 134.1624903
 106.3134070  31.9013188 133.5541395 106.6248194  32.3434052 134.9681622
  94.8631083  35.7547153 141.9272276  95.7834093  35.9325752 142.1212323
  94.8280666  34.8103198 141.7751976  93.1635308  29.6279383 120.4026505
  92.2566763  29.3312496 120.4789218  93.4411289  29.3309201 119.5360791
  84.0813248  30.9485747 130.8525551  83.7616033  30.0951055 130.5599925
  83.5346677  31.1634325 131.6083518  87.8593156  33.6648188 134.5695058
  88.0779166  34.5965296 134.5883091  88.2718930  33.3056162 135.3549861
  94.7797374  24.1716273 126.5570746  93.9698102  23.8263358 126.9325992
  95.4681791  23.8623817 127.1458358  96.7087922  23.2494320 128.1795043
  97.2618961  23.6689773 128.8385066  96.9458008  22.3230068 128.2217999
  92.7321021  29.2381394 143.9597807  92.6317748  30.1875750 143.8909898
  92.5142563  28.9099632 143.0873877  91.9334093  26.4866319 120.5438484
  92.7953257  26.8121217 120.8034301  92.1184437  25.6997814 120.0311550
  83.9501508  34.5688658 132.8218673  83.2564980  34.1542611 132.3088627
  84.6974499  34.6109195 132.2252092 100.0866729  25.3594845 127.6873707
  99.5065398  26.0179649 127.3051759  99.8202662  24.5372190 127.2761124
  98.5370295  24.7599903 129.8895027  99.0370074  24.8716437 129.0809346
  99.1805903  24.4560956 130.5295836  92.5952291  32.6678532 142.7762868
  92.1119373  33.4678892 142.9826757  92.6813230  32.6786477 141.8230312
  85.8638251  34.5006912 130.6984688  85.8408939  34.5994599 129.7466571
  86.1738887  35.3472063 131.0201854  88.5225629  36.5583067 134.8131302
  89.4768882  36.5267009 134.7461234  88.3238152  36.0973691 135.6281528
  89.1125011  35.1284183 137.3802100  89.9317900  35.6228262 137.4036937
  89.3861819  34.2116151 137.3519667  98.8691607  27.5194935 126.7430055
  97.9817462  27.8044586 126.5250250  99.2845596  27.3588699 125.8957332
 102.2206143  27.5441456 130.4584394 102.9966533  28.0337909 130.7309011
 101.4954277  27.9699511 130.9156264 104.6578702  28.2569076 131.5158335
 105.2523193  28.0164812 130.8051643 104.7305286  27.5376206 132.1431871
  86.8775858  42.1002687 131.8301500  86.7430325  41.3403087 131.2639498
  86.4607920  42.8243586 131.3630289  98.0134821  37.2839610 120.8378075
  98.7170671  37.4889613 121.4535731  97.2897469  37.8516372 121.1027159
  98.8432631  33.0349471 126.9580345  98.7867832  33.4918023 126.1187978
  99.3960973  32.2740156 126.7803188 102.6537437  28.8239203 127.7830465
 102.3974371  28.4235839 128.6138673 102.0290305  29.5382997 127.6580604
 106.9649775  31.5635276 130.2901756 106.4049333  31.6328466 131.0633318
 106.3593278  31.3876261 129.5701253  90.0344983  42.9972004 132.0419943
  89.9177368  43.9417436 131.9398633  89.2137430  42.6945565 132.4305742
  99.9221518  37.7222139 122.8876535 100.7567122  37.2903338 122.7054010
  99.7605861  37.5504153 123.8153430  99.5767410  34.2254253 124.2532875
  99.5216214  34.0598524 123.3121319  98.9513465  34.9330285 124.4095064
  84.3659925  29.4622317 138.0794297  85.0118789  28.9521271 138.5681522
  84.1577076  30.1990999 138.6537722  96.8913317  36.5303164 143.5786437
  97.7604477  36.7043817 143.2173072  96.4120069  37.3497581 143.4562167
  92.8863536  23.7262362 123.8318193  92.8742205  24.6704202 123.9886464
  93.7786957  23.5432507 123.5377654  91.0599498  43.6500265 135.2575871
  91.9626744  43.6823876 135.5742366  90.8336868  42.7200716 135.2722207
  92.8153100  42.4031252 131.9185950  91.8648731  42.4033114 131.8050322
  93.1185586  41.6563987 131.4021984  96.7015655  20.3205138 128.0864130
  95.9348051  19.7663625 128.2320812  97.1126360  20.3927007 128.9478281
  88.7057416  26.6089934 142.1769311  89.5688878  26.2526739 142.3872636
  88.1322827  26.2703829 142.8644715 108.5505793  48.2391790 132.9831712
 109.1884203  48.1198538 132.2795052 108.4326636  49.1872634 133.0419664
 105.3595499  48.1919219 132.9193237 105.0214011  48.0760283 132.0313772
 106.2285267  47.7910384 132.8994243 101.2182315  50.0454695 128.9090128
 100.6547180  49.9544632 128.1406415 101.1034710  49.2254599 129.3892620
 105.8415282  49.3454070 138.8779442 105.8303923  48.9506868 138.0059946
 106.0035922  48.6120143 139.4713214  98.7646747  51.5405887 131.7474348
  99.5568039  51.1996711 131.3320647  99.0043397  51.6500862 132.6676501
 106.7981874  53.7125663 124.2204593 106.1469853  54.2979743 123.8338606
 107.5926237  54.2431858 124.2799630 100.7237501  50.8014800 124.6191727
 101.4968377  50.2543787 124.4804603 101.0762900  51.6659049 124.8306188
 102.5622543  52.1291182 137.8258626 102.2712409  53.0336813 137.7105293
 103.1979528  52.1707710 138.5402696 103.4878750  49.5068031 134.4159986
 104.0842323  49.2824053 133.7016949 103.5453722  48.7652776 135.0185434
 103.0603779  46.9607466 122.2510177 103.3129299  46.4388987 121.4893640
 102.1228338  46.7973611 122.3536860 108.1047062  45.9643244 130.0584920
 108.8910151  45.5462667 129.7075337 108.3685766  46.8689336 130.2266568
 108.2757139  51.4016095 124.7573577 107.6402972  51.4750721 125.4694481
 107.9454545  51.9909693 124.0792656 113.5055489  45.9018477 130.9617899
 114.2380661  45.3317694 131.1955728 112.7494844  45.5140078 131.4024404
 102.7800067  48.8635572 124.4534552 102.6636326  48.1880475 125.1215636
 102.8902327  48.3767946 123.6366705 105.1231608  48.3245719 128.1581241
 104.7589816  47.7976340 128.8694162 105.9798724  47.9344188 127.9847726
 111.0280909  39.6140052 135.4212507 110.6964234  40.4835463 135.1973722
 110.4326522  39.2976336 136.1006538 104.7637095  43.3535619 123.1542590
 104.9311498  44.2215855 123.5213061 104.5734264  43.5162900 122.2303879
 107.5212429  51.8152598 134.8208420 107.2213152  52.7177636 134.7124227
 107.1763488  51.5484781 135.6729573 100.9724910  48.2666394 130.8545124
 100.0475406  48.1342608 131.0622816 101.2209323  49.0460614 131.3515067
 110.9209572  44.3335138 132.5005857 110.0126450  44.2650546 132.2064618
 110.8697168  44.8107083 133.3287683 104.7426316  45.8093276 124.1389256
 104.6225941  46.2550327 124.9774737 104.0478905  46.1578594 123.5802794
  98.3333721  47.9099668 131.6888913  98.4626102  48.1634147 132.6028325
  97.6531172  48.5027376 131.3693568 102.5033208  58.5796918 127.7879388
 102.4257238  59.5304743 127.8667868 101.8994852  58.2342790 128.4454314
 104.9950438  45.7524783 140.4440754 104.2183772  46.3118703 140.4343619
 105.6341001  46.2381566 140.9655625 112.7871219  42.5351576 134.2783731
 112.1445599  42.8284109 133.6323526 112.2826147  42.4204496 135.0836928
 110.4411382  46.2814749 124.9669590 111.3529238  46.5142136 124.7917288
 109.9321029  46.8651794 124.4044669 103.2496810  48.5610237 140.0058721
 103.9911495  49.0995281 139.7293545 102.5433796  49.1876525 140.1630273
 108.7252150  50.7039377 138.6030883 109.1335506  50.2621788 137.8585515
 108.0029412  50.1292005 138.8565076 105.0783220  45.6411984 135.9764440
 105.9244415  46.0651397 136.1199089 105.0181858  44.9845608 136.6703003
 109.0480965  51.2640568 132.3583172 108.4189827  51.4286282 131.6559240
 108.6606627  51.6782177 133.1294136 112.9270197  52.1995006 129.7127536
 112.2421235  52.5793907 129.1624569 113.0114046  52.8090332 130.4459483
 108.2282665  43.3016352 137.6345614 107.9843597  44.0558413 137.0979889
 108.5042596  43.6801700 138.4692861 110.1821128  49.8454965 136.3122879
 110.3938023  50.4886725 135.6357260 110.1350876  49.0117281 135.8444809
 107.7847357  42.4572785 133.2159451 106.9231836  42.7554039 133.5076189
 107.8109792  42.6743184 132.2840484 104.6008927  51.0014976 129.6233257
 105.0647272  51.2802679 128.8337879 104.3365725  50.0998420 129.4406348
 101.4933008  50.5486457 132.5613020 102.0634365  50.9773726 131.9230505
 102.0841119  50.2669042 133.2597206 103.5377813  47.1238128 126.4322822
 104.2401856  47.5759172 126.8996748 103.2058441  46.4821947 127.0602715
 101.9858174  45.7149885 140.8074031 101.3556835  46.3966166 141.0409428
 101.8794262  45.6032966 139.8627170  97.2803147  45.3821681 131.7339956
  96.4902201  45.6379209 131.2580066  97.7714394  46.1970019 131.8391996
 111.2966956  52.7226920 134.4845236 112.1184400  52.3207107 134.2027918
 111.2929359  52.6195154 135.4361352  99.2317892  45.7466260 128.6923432
  98.4349055  45.8584954 129.2106928  99.0043484  46.0852912 127.8264323
 105.0623560  52.2710963 136.6405947 105.1267992  52.7331371 137.4764119
 104.3534483  51.6408328 136.7688257  95.5640850  45.6352171 134.1654946
  95.8148888  46.5199181 134.4312522  96.1000398  45.4556773 133.3930038
 119.3872949  49.0665669 130.8330208 118.6336658  48.4973067 130.6774212
 119.5220490  49.0328333 131.7800843 104.7771577  53.9379071 126.5084927
 104.6417252  54.7830607 126.9369775 105.3181390  54.1398348 125.7450861
 101.2638917  40.0170651 143.1699283 100.8705862  39.4636849 143.8446927
 102.0805057  40.3281229 143.5605800  98.2300975  51.4554509 127.0812852
  98.7425495  52.2497759 127.2318417  98.8823687  50.7580799 127.0146454
 100.0395859  54.5720265 129.1635606 100.2162488  55.4938230 128.9756589
 100.8352693  54.2578684 129.5929985 104.1806878  41.4328530 140.7619539
 104.9216591  42.0335683 140.6824002 104.4124801  40.6906168 140.2037582
  99.3248216  46.6184897 139.0397769  99.2101731  45.7170154 139.3404868
  98.4692734  46.8648594 138.6882585 106.4040054  54.5602637 140.6385269
 105.9603908  53.7739016 140.3206174 107.0657267  54.7481788 139.9729160
 101.1627175  56.0898439 135.1645948 101.7134600  55.9615502 134.3922942
 100.3238651  56.3893328 134.8140841 108.5021292  54.8405437 138.6666671
 108.4839767  55.6614318 138.1746940 109.4241212  54.7159513 138.8916812
 104.9594346  52.3549567 139.5090179 105.4922683  51.5937855 139.2789487
 104.4308427  52.0623219 140.2514333 108.1264041  37.4609633 135.0383821
 107.7828310  38.3511274 134.9622931 108.4943003  37.2711290 134.1753406
  96.1949891  49.7843163 127.8572423  97.0325113  50.1940172 127.6406131
  96.3728159  48.8442605 127.8272617 108.0914324  47.4518244 123.5456256
 107.5760947  48.2222848 123.7844643 107.8191632  46.7783380 124.1689317
 105.6761435  42.2967945 128.6041494 104.8203031  41.9074795 128.4247133
 106.0888386  42.3759905 127.7441280 107.2060581  39.8314288 133.0033054
 106.7025377  39.7944423 132.1900859 107.4991188  40.7407031 133.0629711
 103.4503467  39.9153018 132.0099236 104.3156464  39.7195826 131.6505125
 103.5180976  39.6863369 132.9368593 113.0648598  50.2050598 125.4809429
 112.2878040  49.8661758 125.0364591 113.7440079  50.2103222 124.8064394
 107.8800627  45.3245336 125.3716037 107.5750762  45.6391485 126.2226180
 108.8331069  45.4026756 125.4143370 106.3247059  51.4835559 127.0208991
 105.7968420  50.7488319 126.7082228 105.8234561  52.2610236 126.7748959
 111.3039905  49.6784580 132.1376037 110.6463579  50.3683841 132.2256166
 112.1080304  50.0681012 132.4810024 101.0565786  42.1455226 129.3815603
 101.6309538  41.9230407 128.6488796 101.6436769  42.2143920 130.1344204
 110.1145363  48.0328952 130.1879979 110.6277245  48.6658944 130.6901689
 110.7646587  47.4330148 129.8223339 101.3835373  44.1759687 123.4011488
 100.5472686  44.5134373 123.7220763 101.2440143  44.0408666 122.4638625
 103.3588454  39.0196474 128.1090672 102.7052866  38.7045492 127.4847287
 103.3168928  38.3972215 128.8350495 104.4699659  49.3015770 120.0243964
 103.5626720  49.0705023 120.2235113 104.9670691  48.5053389 120.2117946
 107.3767738  58.0113277 122.9440650 106.7029436  58.3144973 123.5525608
 107.7633560  58.8142357 122.5946107 106.5926194  45.5078408 132.4338320
 105.6748756  45.7293355 132.2760008 107.0086338  45.5824718 131.5750027
 107.3761242  46.9069824 127.5641000 108.1233061  47.4191221 127.2548122
 107.6452832  46.5853876 128.4245393 105.6487892  49.4028364 124.5467954
 104.7399111  49.1187397 124.6440424 105.6782976  49.8227443 123.6871261
 110.8807160  53.0134954 128.3159122 110.4269487  52.1725864 128.3724312
 110.2501126  53.6496352 128.6533902 109.8240079  43.9426940 129.5459789
 109.0862836  43.4304326 129.8770032 110.0766853  43.5027322 128.7343066
 109.3240099  54.8511451 129.2508940 109.6163073  55.4116508 128.5321305
 109.8338719  55.1440012 130.0062099 109.9251706  36.7203192 130.1401558
 110.2310583  35.8600555 129.8527474 110.6504311  37.3120812 129.9400552
  96.2176063  47.1233879 128.5283156  96.0200462  46.5303239 127.8034223
  95.6622727  46.8186089 129.2459095 104.1972786  47.0156985 130.6477750
 104.2521396  46.0630821 130.5720226 103.3863988  47.1716424 131.1319048
 105.3463980  50.9437108 121.8856033 104.9083410  50.2272967 121.4261670
 106.0874421  51.1713223 121.3241124 102.1365146  45.6334045 128.4068128
 101.3233012  45.9328215 128.8133321 102.6324140  45.2389733 129.1242611
 104.2873724  55.6291802 130.3402393 104.2449903  55.8552648 129.4110925
 105.2036423  55.3955176 130.4888194 107.7339358  46.0975869 137.2383022
 108.0888746  46.3247342 138.0977488 108.3811489  46.4294246 136.6160278
 113.4637095  49.2194305 127.9432351 113.3254993  49.4095901 127.0153541
 113.1073314  49.9813688 128.4000402 101.6279221  43.2052400 134.0229363
 102.2678600  43.0641159 133.3252327 100.7956751  42.9186914 133.6467965
 113.4906474  51.2870832 132.9543623 113.9242981  51.1946121 133.8026677
 114.2038055  51.2628333 132.3163639 102.4039525  52.5054831 130.1364356
 103.1980123  52.0105151 129.9346931 101.6931217  51.9772694 129.7732061
 107.2234369  54.8872926 134.4876723 107.2771392  55.4563863 135.2554439
 106.3549151  55.0574811 134.1230761  98.7122288  46.6497912 126.2124108
  97.7819876  46.5882368 126.4294071  98.8079760  46.1273865 125.4160750
  98.6307837  43.1752725 128.8002350  98.8914655  44.0898058 128.6911511
  99.4525010  42.7077168 128.9498963 100.1032763  44.5890482 135.9701175
 100.7755816  44.3807845 135.3213824  99.2762549  44.3912568 135.5306407
 114.3522024  51.3294533 135.4876508 114.5457914  52.2340343 135.7335783
 114.2522642  50.8701952 136.3215093 106.0058335  41.2152423 137.9866836
 105.3586250  41.9142373 137.8931312 106.7759350  41.6488567 138.3543084
 109.4137133  51.4801275 141.0617389 109.2622639  51.2511827 140.1447473
 109.4041812  52.4371877 141.0748734 106.1822469  49.0533188 136.0463655
 107.1114529  49.2044348 135.8732623 105.7613499  49.1417209 135.1912302
 104.9810801  53.0783853 133.8162193 104.8421886  52.7102637 134.6888131
 104.1925397  53.5931492 133.6446151 105.5758953  58.1792949 125.1587729
 105.7510708  57.7080992 125.9733352 104.8891741  58.8058715 125.3868990
 106.5316016  52.4565455 131.2051031 106.1965849  52.4166225 132.1008681
 106.0319962  51.7910171 130.7321441 100.5060260  47.8633085 136.7303612
 100.3680058  47.1313324 137.3315151 101.4165183  47.7741985 136.4487800
 109.4675208  49.8021490 121.4788090 108.8504378  49.0768318 121.3821143
 108.9991696  50.5630850 121.1355165 103.1342561  47.5753045 136.2187291
 103.8442179  46.9346237 136.1773910 103.0911869  47.8265940 137.1413472
 111.1229339  54.5120398 139.1393871 111.0641885  53.8279618 138.4724454
 111.5248858  55.2539388 138.6874497 101.8471495  44.5618263 138.0382931
 101.3108852  44.1109001 138.6904527 101.2588203  44.6964171 137.2953395
 100.1420038  61.3282312 131.9327590 100.3816636  61.9600836 132.6106608
  99.2989235  60.9770352 132.2192949 101.2573753  44.0206914 120.6009395
 100.3803220  43.8995715 120.2371641 101.7331507  43.2292992 120.3488283
 111.1246747  52.4759982 137.3707850 110.2373525  52.1385904 137.4934249
 111.6945298  51.7443013 137.6076616  92.7775894  48.8084074 130.6950902
  93.4646933  48.4945804 130.1071917  92.6224022  49.7125438 130.4218153
  97.5810616  43.6974270 135.1235925  97.4968805  43.0899940 134.3886335
  96.7593322  44.1883289 135.1245422 104.6547900  57.1361434 134.3369094
 104.5818071  57.9416406 134.8488398 104.2125293  57.3353400 133.5117115
 104.4437680  56.3733204 127.8471915 103.6605201  56.9154885 127.9410140
 105.1430425  56.8907184 128.2466156 107.7534330  42.1827834 130.4906121
 108.2503029  41.4297796 130.1707191 106.9821311  42.2192150 129.9249330
 115.6064087  47.8868199 132.1324412 115.5953963  48.7692915 131.7618345
 114.7381466  47.5339750 131.9378949 107.1146583  57.0348268 136.4927252
 107.8274556  57.6695733 136.4203154 106.6236612  57.1312134 135.6767254
 108.8364110  50.9399521 128.0644544 107.9020389  51.0600984 127.8949248
 109.0140779  50.0371988 127.8004554 104.3369298  44.3245217 130.2177805
 103.9667086  43.7716257 130.9058711 104.8328391  43.7203350 129.6652805
 112.2236662  46.7816840 128.5994578 112.6897114  47.6144832 128.5254881
 112.6744162  46.3161822 129.3039837 102.1658497  54.7842712 137.3132823
 102.8667956  55.4179195 137.4662217 101.6953612  55.1257443 136.5528462
 110.2912893  53.1260662 125.5980730 110.5672737  53.0117256 126.5074604
 109.4217392  52.7278146 125.5592903 110.1953324  39.1497427 132.6385479
 109.2816404  39.3801654 132.8067686 110.6246426  39.2335871 133.4899512
 109.9659783  47.3387319 135.1385373 109.3131233  47.5863227 134.4837826
 110.3440163  46.5251457 134.8047851 106.9266957  57.3747012 129.2413544
 107.1089351  56.5568668 129.7041296 107.7499943  57.5914705 128.8038434
 107.2609122  56.3015198 126.5028592 107.7896889  55.7907652 125.8898754
 107.5237342  55.9857728 127.3674125 106.0147356  48.0807130 141.6251410
 105.3387993  47.9801260 142.2953786 106.8374990  47.9246344 142.0887408
  97.7626215  54.3179067 134.2463926  98.3479652  53.5722755 134.3791830
  97.5651053  54.6283024 135.1300590 100.6164870  57.3530314 129.2626368
  99.9475245  57.8376442 128.7790408 100.4777740  57.5999535 130.1769747
  92.3543870  46.8884667 132.9668369  92.3927969  46.3548258 133.7605487
  91.8484163  46.3619873 132.3479346 104.7570139  59.3874058 135.8609026
 105.3088447  59.5505679 136.6258112 105.0976332  59.9778496 135.1889051
  99.7334632  41.7349208 136.4630911  99.7975959  42.5964038 136.0508309
  99.6701752  41.1223209 135.7303270  99.2086905  43.8072340 140.1103945
  99.8358943  43.4249417 140.7241470  98.3514823  43.5886542 140.4759638
 109.6081013  54.2135315 141.7157681 110.1520917  54.8265274 141.2212636
 109.0267858  54.7714894 142.2324694  95.9852447  45.6148769 126.0422300
  96.2805888  44.7059448 125.9889354  95.0840483  45.5936509 125.7203303
 107.8938526  57.3356033 132.8472709 107.7689666  56.5345773 132.3383654
 108.5517617  57.8302227 132.3586679  99.5146694  43.6904766 132.0249849
  98.7933280  44.3040734 131.8857322 100.3039950  44.2262531 131.9466495
 109.9573434  55.1365053 134.4752259 109.0103770  55.0170405 134.4030585
 110.3056208  54.2487551 134.5578520 102.3173008  41.0259192 138.2990501
 102.8407410  41.2721489 139.0616810 102.0985341  41.8579227 137.8793638
  97.7140289  43.2962867 126.1661625  97.3852995  42.4160246 125.9836731
  98.0679660  43.2410536 127.0538015 106.9619868  54.9317770 130.6756611
 106.8144830  54.0034477 130.8564181 107.7873361  54.9537860 130.1913686
 100.8282112  43.5835837 126.5337103 101.1678185  44.1121758 125.8115711
 101.2754233  43.9216243 127.3095670 110.5653990  55.7546328 131.7621484
 111.4900537  55.5489190 131.6245935 110.3969293  55.5062730 132.6710825
 103.5225553  41.9672887 135.9840171 103.1822373  41.1680700 136.3860851
 102.8164559  42.2674598 135.4117004 104.1742025  39.0522200 134.4367494
 104.9968094  38.5782678 134.3146384 104.4180088  39.8312684 134.9366180
 102.8150259  42.0810458 124.7330396 103.5358622  42.4591711 124.2294113
 102.1915563  42.7999335 124.8365374 106.9581382  42.7855607 125.6688728
 107.1744996  43.6680245 125.3677556 106.4775449  42.3941821 124.9394370
 101.6980603  45.7441320 132.2459473 101.5525184  46.0581624 133.1383754
 101.2205807  46.3626221 131.6930371 103.5576986  42.7343868 132.2940362
 103.5438555  41.8384962 131.9572660 104.2749414  42.7414532 132.9278648
 105.4103117  43.1681209 134.3393490 105.1520895  44.0898279 134.3377820
 104.8788157  42.7711643 135.0293954 110.3549306  56.2731996 127.1183575
 110.5286183  55.7078418 126.3657428 110.8478197  57.0732891 126.9363065
  96.1726266  48.2846665 135.1847134  95.6279734  49.0606473 135.3167408
  97.0505616  48.6317469 135.0266255 102.9613882  41.6158249 127.5627932
 103.0829793  40.6874895 127.7618820 102.6715925  41.6296935 126.6506248
 105.8305073  39.3013159 130.6994652 105.8526770  39.3652492 129.7446632
 106.2473132  38.4617668 130.8935158 116.2088697  49.0368419 128.7373875
 116.6519843  48.2875744 128.3392998 115.3315207  49.0278555 128.3547607
 111.3424478  55.5898760 124.2180473 112.0375383  56.2105453 124.4367788
 111.6847628  54.7394111 124.4932851  96.9592288  47.4116561 138.0777291
  96.2174024  47.5599197 138.6641921  96.6385032  47.6724827 137.2144040
 113.2415901  53.0398466 125.7467804 113.7667226  53.3785738 125.0217124
 113.1538254  52.1045481 125.5630939 104.9035950  56.9532539 137.8757681
 105.2123077  56.7081686 138.7480380 105.7011432  57.1579178 137.3876551
 104.9256562  59.1070449 130.1063057 104.4861552  58.6146828 130.7995914
 105.6764679  58.5643417 129.8655133  97.4048901  55.2981990 130.1087685
  98.2306921  54.9985762 129.7286329  97.0542953  54.5289612 130.5577474
 102.3730434  54.6508458 132.1785359 101.7510444  53.9879163 131.8787587
 103.0435301  54.6769590 131.4959007  95.6057506  53.2168316 131.0676619
  94.7689415  52.7890491 130.8860620  95.5781152  53.4100760 132.0047410
 102.4454962  43.1290246 141.7717865 102.4943117  44.0052369 141.3895635
 102.9877476  42.5867639 141.1989508 112.9309808  53.6731369 141.0519002
 112.1405351  53.6555508 140.5123502 112.6943162  54.2119663 141.8068039
 113.0507683  50.5223836 138.3651731 113.1005687  50.3573843 139.3067253
 112.9421606  49.6551095 137.9749611 101.9343941  53.2012381 125.6543820
 102.0832062  53.8847846 125.0010492 102.7410385  53.1817471 126.1693275
 110.3411445  46.5054764 139.6811037 111.2421308  46.3661229 139.3895035
 110.4159419  46.6709219 140.6209215 104.6754250  43.8821619 138.5264224
 103.8057560  44.1755185 138.2546812 104.9113731  44.4662064 139.2471487
 114.5525879  52.9420777 138.6093752 114.2610688  53.3050758 139.4457213
 113.9398011  52.2287786 138.4307084 115.7521562  50.5073657 131.1296322
 116.5868453  50.9463461 131.2933883 115.8880691  50.0312310 130.3104568
 112.8013068  48.0653392 137.0773810 113.2767189  48.2581038 136.2692662
 111.8778633  48.1212578 136.8317194  99.6896574  49.2277559 126.6604889
  99.4442616  48.3239889 126.8585099  99.8592489  49.2294710 125.7184367
 107.3793284  40.1001235 136.0429644 107.8975228  40.8362262 135.7176133
 107.0248417  40.4065229 136.8776403  98.9592222  44.9605917 124.1591050
  98.2661467  45.0350272 123.5031086  98.7143974  44.1966260 124.6812567
 107.6305878  36.5201518 131.5630541 107.9107632  35.8524707 132.1890967
 108.4156485  36.7130614 131.0505205 105.4339347  55.6960512 123.1255567
 104.8613314  56.3150699 122.6726039 106.0072140  56.2459874 123.6595489
 111.5014737  44.9419152 135.3102116 112.4532160  45.0417250 135.3314340
 111.3318187  44.1497421 135.8200200 109.5229116  42.0274735 135.4961517
 108.9279048  42.3079748 134.8008005 109.2378813  42.5168636 136.2678258
 108.6536607  55.9797662 124.2564149 109.5867280  55.9143224 124.4597025
 108.5659819  56.8153929 123.7978682 111.2824623  55.2963532 121.2168097
 111.2038255  54.9623396 122.1103855 112.1034290  55.7885300 121.2159569
 113.9802814  48.1625272 134.4244415 113.9479135  47.2241272 134.6104099
 114.5903438  48.2409308 133.6910240 105.8186145  47.0321325 120.4671620
 106.7645250  46.9027533 120.5360038 105.4400390  46.2935987 120.9441048
 114.1297303  44.9536315 134.4702699 113.6136352  44.1694772 134.2832628
 115.0137251  44.6255032 134.6349218 111.7908030  38.6977331 130.4298511
 111.5932851  38.3892419 131.3141843 112.4007735  39.4238970 130.5596441
 119.7979364  49.2241279 133.5650452 120.5282753  48.9626567 134.1258156
 119.1886310  48.4870000 133.6052520 117.8794661  47.3649141 134.1624903
 117.1527825  47.2305106 133.5541395 117.4641948  47.6725970 134.9681622
 105.7024838  51.0839071 141.9272276 106.6227847  51.2617670 142.1212323
 105.6674421  50.1395116 141.7751976 104.0029062  44.9571301 120.4026505
 103.0960518  44.6604414 120.4789218 104.2805043  44.6601119 119.5360791
  94.9207003  46.2777664 130.8525551  94.6009787  45.4242973 130.5599925
  94.3740431  46.4926243 131.6083518  98.6986910  48.9940105 134.5695058
  98.9172920  49.9257213 134.5883091  99.1112684  48.6348080 135.3549861
 105.6191128  39.5008191 126.5570746 104.8091856  39.1555276 126.9325992
 106.3075545  39.1915734 127.1458358 107.5481676  38.5786238 128.1795043
 108.1012715  38.9981691 128.8385066 107.7851763  37.6521986 128.2217999
 103.5714776  44.5673311 143.9597807 103.4711503  45.5167668 143.8909898
 103.3536318  44.2391550 143.0873877 102.7727847  41.8158236 120.5438484
 103.6347011  42.1413135 120.8034301 102.9578191  41.0289732 120.0311550
  94.7895263  49.8980576 132.8218673  94.0958734  49.4834529 132.3088627
  95.5368254  49.9401112 132.2252092 110.9260484  40.6886763 127.6873707
 110.3459153  41.3471567 127.3051759 110.6596416  39.8664107 127.2761124
 109.3764050  40.0891820 129.8895027 109.8763828  40.2008355 129.0809346
 110.0199658  39.7852873 130.5295836 103.4346046  47.9970450 142.7762868
 102.9513127  48.7970810 142.9826757 103.5206985  48.0078395 141.8230312
  96.7032005  49.8298830 130.6984688  96.6802693  49.9286517 129.7466571
  97.0132642  50.6763981 131.0201854  99.3619383  51.8874985 134.8131302
 100.3162637  51.8558927 134.7461234  99.1631907  51.4265608 135.6281528
  99.9518765  50.4576101 137.3802100 100.7711654  50.9520179 137.4036937
 100.2255573  49.5408069 137.3519667 109.7085362  42.8486853 126.7430055
 108.8211217  43.1336504 126.5250250 110.1239351  42.6880616 125.8957332
 113.0599898  42.8733374 130.4584394 113.8360288  43.3629827 130.7309011
 112.3348032  43.2991428 130.9156264 115.4972456  43.5860993 131.5158335
 116.0916947  43.3456729 130.8051643 115.5699040  42.8668124 132.1431871
  97.7169612  57.4294604 131.8301500  97.5824080  56.6695005 131.2639498
  97.3001674  58.1535504 131.3630289 108.8528575  52.6131528 120.8378075
 109.5564425  52.8181530 121.4535731 108.1291224  53.1808290 121.1027159
 109.6826385  48.3641389 126.9580345 109.6261587  48.8209940 126.1187978
 110.2354728  47.6032074 126.7803188 113.4931191  44.1531121 127.7830465
 113.2368125  43.7527757 128.6138673 112.8684059  44.8674915 127.6580604
 117.8043529  46.8927194 130.2901756 117.2443087  46.9620383 131.0633318
 117.1987032  46.7168179 129.5701253 100.8738738  58.3263921 132.0419943
 100.7571122  59.2709354 131.9398633 100.0531184  58.0237483 132.4305742
 110.7615272  53.0514057 122.8876535 111.5960876  52.6195255 122.7054010
 110.5999615  52.8796071 123.8153430 110.4161165  49.5546170 124.2532875
 110.3609968  49.3890442 123.3121319 109.7907220  50.2622203 124.4095064
  95.2053680  44.7914235 138.0794297  95.8512543  44.2813189 138.5681522
  94.9970831  45.5282916 138.6537722 107.7307072  51.8595082 143.5786437
 108.5998231  52.0335734 143.2173072 107.2513823  52.6789499 143.4562167
 103.7257290  39.0554279 123.8318193 103.7135960  39.9996119 123.9886464
 104.6180712  38.8724425 123.5377654 101.8993252  58.9792183 135.2575871
 102.8020499  59.0115793 135.5742366 101.6730622  58.0492634 135.2722207
 103.6546854  57.7323170 131.9185950 102.7042485  57.7325031 131.8050322
 103.9579340  56.9855904 131.4021984 107.5409410  35.6497056 128.0864130
 106.7741805  35.0955543 128.2320812 107.9520114  35.7218925 128.9478281
  99.5451171  41.9381852 142.1769311 100.4082632  41.5818657 142.3872636
  98.9716581  41.5995747 142.8644715 119.3899548  63.5683708 132.9831712
 120.0277957  63.4490455 132.2795052 119.2720390  64.5164552 133.0419664
 116.1989254  63.5211136 132.9193237 115.8607765  63.4052201 132.0313772
 117.0679022  63.1202301 132.8994243 112.0576069  65.3746613 128.9090128
 111.4940935  65.2836550 128.1406415 111.9428465  64.5546517 129.3892620
 116.6809037  64.6745988 138.8779442 116.6697678  64.2798786 138.0059946
 116.8429676  63.9412061 139.4713214 109.6040501  66.8697804 131.7474348
 110.3961793  66.5288629 131.3320647 109.8437152  66.9792779 132.6676501
 117.6375628  69.0417580 124.2204593 116.9863608  69.6271661 123.8338606
 118.4319991  69.5723775 124.2799630 111.5631255  66.1306717 124.6191727
 112.3362131  65.5835705 124.4804603 111.9156654  66.9950967 124.8306188
 113.4016298  67.4583100 137.8258626 113.1106164  68.3628731 137.7105293
 114.0373282  67.4999627 138.5402696 114.3272505  64.8359948 134.4159986
 114.9236077  64.6115971 133.7016949 114.3847476  64.0944694 135.0185434
 113.8997533  62.2899384 122.2510177 114.1523054  61.7680905 121.4893640
 112.9622092  62.1265529 122.3536860 118.9440816  61.2935162 130.0584920
 119.7303905  60.8754585 129.7075337 119.2079520  62.1981254 130.2266568
 119.1150893  66.7308012 124.7573577 118.4796726  66.8042639 125.4694481
 118.7848300  67.3201611 124.0792656 124.3449243  61.2310395 130.9617899
 125.0774415  60.6609612 131.1955728 123.5888599  60.8431996 131.4024404
 113.6193822  64.1927490 124.4534552 113.5030080  63.5172393 125.1215636
 113.7296082  63.7059863 123.6366705 115.9625363  63.6537637 128.1581241
 115.5983570  63.1268258 128.8694162 116.8192479  63.2636106 127.9847726
 121.8674663  54.9431969 135.4212507 121.5357988  55.8127380 135.1973722
 121.2720277  54.6268253 136.1006538 115.6030850  58.6827536 123.1542590
 115.7705252  59.5507773 123.5213061 115.4128019  58.8454818 122.2303879
 118.3606183  67.1444515 134.8208420 118.0606906  68.0469554 134.7124227
 118.0157243  66.8776698 135.6729573 111.8118664  63.5958312 130.8545124
 110.8869161  63.4634526 131.0622816 112.0603078  64.3752531 131.3515067
 121.7603327  59.6627055 132.5005857 120.8520204  59.5942464 132.2064618
 121.7090923  60.1399000 133.3287683 115.5820071  61.1385194 124.1389256
 115.4619696  61.5842245 124.9774737 114.8872659  61.4870511 123.5802794
 109.1727476  63.2391586 131.6888913 109.3019857  63.4926065 132.6028325
 108.4924927  63.8319294 131.3693568 113.3426963  73.9088836 127.7879388
 113.2650993  74.8596661 127.8667868 112.7388606  73.5634708 128.4454314
 115.8344193  61.0816701 140.4440754 115.0577527  61.6410621 140.4343619
 116.4734756  61.5673484 140.9655625 123.6264973  57.8643494 134.2783731
 122.9839353  58.1576027 133.6323526 123.1219902  57.7496414 135.0836928
 121.2805137  61.6106667 124.9669590 122.1922993  61.8434054 124.7917288
 120.7714784  62.1943711 124.4044669 114.0890565  63.8902154 140.0058721
 114.8305249  64.4287198 139.7293545 113.3827550  64.5168443 140.1630273
 119.5645905  66.0331295 138.6030883 119.9729261  65.5913705 137.8585515
 118.8423166  65.4583922 138.8565076 115.9176975  60.9703902 135.9764440
 116.7638170  61.3943315 136.1199089 115.8575612  60.3137526 136.6703003
 119.8874719  66.5932485 132.3583172 119.2583582  66.7578200 131.6559240
 119.5000381  67.0074095 133.1294136 123.7663951  67.5286923 129.7127536
 123.0814989  67.9085825 129.1624569 123.8507800  68.1382250 130.4459483
 119.0676420  58.6308270 137.6345614 118.8237352  59.3850330 137.0979889
 119.3436350  59.0093618 138.4692861 121.0214883  65.1746882 136.3122879
 121.2331778  65.8178642 135.6357260 120.9744631  64.3409199 135.8444809
 118.6241112  57.7864703 133.2159451 117.7625591  58.0845957 133.5076189
 118.6503546  58.0035102 132.2840484 115.4402681  66.3306894 129.6233257
 115.9041027  66.6094597 128.8337879 115.1759479  65.4290338 129.4406348
 112.3326762  65.8778375 132.5613020 112.9028119  66.3065643 131.9230505
 112.9234874  65.5960960 133.2597206 114.3771567  62.4530046 126.4322822
 115.0795610  62.9051090 126.8996748 114.0452196  61.8113865 127.0602715
 112.8251929  61.0441803 140.8074031 112.1950589  61.7258083 141.0409428
 112.7188017  60.9324884 139.8627170 108.1196901  60.7113599 131.7339956
 107.3295955  60.9671127 131.2580066 108.6108148  61.5261936 131.8391996
 122.1360711  68.0518838 134.4845236 122.9578154  67.6499025 134.2027918
 122.1323113  67.9487072 135.4361352 110.0711646  61.0758178 128.6923432
 109.2742810  61.1876872 129.2106928 109.8437239  61.4144830 127.8264323
 115.9017314  67.6002881 136.6405947 115.9661747  68.0623288 137.4764119
 115.1928238  66.9700246 136.7688257 106.4034604  60.9644089 134.1654946
 106.6542642  61.8491099 134.4312522 106.9394152  60.7848691 133.3930038
 130.2266704  64.3957586 130.8330208 129.4730412  63.8264984 130.6774212
 130.3614245  64.3620251 131.7800843 115.6165332  69.2670989 126.5084927
 115.4811007  70.1122524 126.9369775 116.1575144  69.4690266 125.7450861
 112.1032671  55.3462568 143.1699283 111.7099617  54.7928767 143.8446927
 112.9198812  55.6573147 143.5605800 109.0694729  66.7846427 127.0812852
 109.5819250  67.5789677 127.2318417 109.7217442  66.0872717 127.0146454
 110.8789614  69.9012183 129.1635606 111.0556242  70.8230148 128.9756589
 111.6746447  69.5870602 129.5929985 115.0200632  56.7620447 140.7619539
 115.7610346  57.3627601 140.6824002 115.2518555  56.0198085 140.2037582
 110.1641970  61.9476815 139.0397769 110.0495485  61.0462072 139.3404868
 109.3086488  62.1940511 138.6882585 117.2433808  69.8894555 140.6385269
 116.7997662  69.1030934 140.3206174 117.9051022  70.0773706 139.9729160
 112.0020929  71.4190357 135.1645948 112.5528354  71.2907420 134.3922942
 111.1632405  71.7185246 134.8140841 119.3415046  70.1697355 138.6666671
 119.3233522  70.9906236 138.1746940 120.2634966  70.0451430 138.8916812
 115.7988100  67.6841484 139.5090179 116.3316437  66.9229773 139.2789487
 115.2702181  67.3915136 140.2514333 118.9657795  52.7901550 135.0383821
 118.6222065  53.6803192 134.9622931 119.3336758  52.6003208 134.1753406
 107.0343646  65.1135081 127.8572423 107.8718868  65.5232089 127.6406131
 107.2121914  64.1734523 127.8272617 118.9308078  62.7810162 123.5456256
 118.4154701  63.5514766 123.7844643 118.6585386  62.1075298 124.1689317
 116.5155189  57.6259862 128.6041494 115.6596785  57.2366713 128.4247133
 116.9282141  57.7051823 127.7441280 118.0454336  55.1606206 133.0033054
 117.5419131  55.1236341 132.1900859 118.3384943  56.0698948 133.0629711
 114.2897222  55.2444935 132.0099236 115.1550218  55.0487744 131.6505125
 114.3574730  55.0155287 132.9368593 123.9042352  65.5342516 125.4809429
 123.1271795  65.1953676 125.0364591 124.5833833  65.5395139 124.8064394
 118.7194381  60.6537254 125.3716037 118.4144517  60.9683403 126.2226180
 119.6724823  60.7318673 125.4143370 117.1640813  66.8127477 127.0208991
 116.6362175  66.0780237 126.7082228 116.6628316  67.5902153 126.7748959
 122.1433659  65.0076497 132.1376037 121.4857333  65.6975759 132.2256166
 122.9474058  65.3972929 132.4810024 111.8959541  57.4747143 129.3815603
 112.4703293  57.2522325 128.6488796 112.4830523  57.5435838 130.1344204
 120.9539118  63.3620870 130.1879979 121.4671000  63.9950862 130.6901689
 121.6040342  62.7622066 129.8223339 112.2229128  59.5051604 123.4011488
 111.3866440  59.8426291 123.7220763 112.0833897  59.3700584 122.4638625
 114.1982208  54.3488392 128.1090672 113.5446621  54.0337409 127.4847287
 114.1562682  53.7264133 128.8350495 115.3093413  64.6307687 120.0243964
 114.4020475  64.3996941 120.2235113 115.8064445  63.8345306 120.2117946
 118.2161492  73.3405194 122.9440650 117.5423191  73.6436891 123.5525608
 118.6027314  74.1434275 122.5946107 117.4319949  60.8370326 132.4338320
 116.5142510  61.0585273 132.2760008 117.8480092  60.9116636 131.5750027
 118.2154996  62.2361741 127.5641000 118.9626815  62.7483139 127.2548122
 118.4846586  61.9145794 128.4245393 116.4881647  64.7320282 124.5467954
 115.5792866  64.4479315 124.6440424 116.5176730  65.1519361 123.6871261
 121.7200914  68.3426872 128.3159122 121.2663241  67.5017781 128.3724312
 121.0894881  68.9788270 128.6533902 120.6633834  59.2718858 129.5459789
 119.9256590  58.7596244 129.8770032 120.9160607  58.8319239 128.7343066
 120.1633853  70.1803368 129.2508940 120.4556828  70.7408425 128.5321305
 120.6732474  70.4731929 130.0062099 120.7645461  52.0495110 130.1401558
 121.0704338  51.1892473 129.8527474 121.4898066  52.6412730 129.9400552
 107.0569817  62.4525796 128.5283156 106.8594217  61.8595157 127.8034223
 106.5016481  62.1478006 129.2459095 115.0366541  62.3448903 130.6477750
 115.0915150  61.3922739 130.5720226 114.2257743  62.5008342 131.1319048
 116.1857734  66.2729026 121.8856033 115.7477164  65.5564885 121.4261670
 116.9268175  66.5005141 121.3241124 112.9758901  60.9625962 128.4068128
 112.1626766  61.2620133 128.8133321 113.4717895  60.5681651 129.1242611
 115.1267478  70.9583719 130.3402393 115.0843657  71.1844566 129.4110925
 116.0430177  70.7247094 130.4888194 118.5733112  61.4267787 137.2383022
 118.9282500  61.6539260 138.0977488 119.2205244  61.7586164 136.6160278
 124.3030849  64.5486223 127.9432351 124.1648748  64.7387819 127.0153541
 123.9467068  65.3105606 128.4000402 112.4672975  58.5344318 134.0229363
 113.1072355  58.3933077 133.3252327 111.6350506  58.2478831 133.6467965
 124.3300229  66.6162750 132.9543623 124.7636736  66.5238039 133.8026677
 125.0431810  66.5920250 132.3163639 113.2433279  67.8346748 130.1364356
 114.0373878  67.3397068 129.9346931 112.5324972  67.3064611 129.7732061
 118.0628124  70.2164844 134.4876723 118.1165146  70.7855780 135.2554439
 117.1942905  70.3866729 134.1230761 109.5516043  61.9789830 126.2124108
 108.6213631  61.9174286 126.4294071 109.6473515  61.4565783 125.4160750
 109.4701592  58.5044643 128.8002350 109.7308409  59.4189976 128.6911511
 110.2918764  58.0369085 128.9498963 110.9426517  59.9182400 135.9701175
 111.6149571  59.7099762 135.3213824 110.1156304  59.7204486 135.5306407
 125.1915778  66.6586450 135.4876508 125.3851668  67.5632261 135.7335783
 125.0916397  66.1993869 136.3215093 116.8452089  56.5444341 137.9866836
 116.1980004  57.2434291 137.8931312 117.6153105  56.9780485 138.3543084
 120.2530887  66.8093193 141.0617389 120.1016393  66.5803745 140.1447473
 120.2435567  67.7663795 141.0748734 117.0216223  64.3825106 136.0463655
 117.9508283  64.5336266 135.8732623 116.6007254  64.4709127 135.1912302
 115.8204555  68.4075770 133.8162193 115.6815641  68.0394555 134.6888131
 115.0319151  68.9223410 133.6446151 116.4152707  73.5084867 125.1587729
 116.5904463  73.0372910 125.9733352 115.7285495  74.1350633 125.3868990
 117.3709770  67.7857373 131.2051031 117.0359603  67.7458143 132.1008681
 116.8713716  67.1202089 130.7321441 111.3454014  63.1925003 136.7303612
 111.2073812  62.4605242 137.3315151 112.2558938  63.1033903 136.4487800
 120.3068962  65.1313407 121.4788090 119.6898133  64.4060236 121.3821143
 119.8385451  65.8922768 121.1355165 113.9736315  62.9044962 136.2187291
 114.6835934  62.2638155 136.1773910 113.9305623  63.1557857 137.1413472
 121.9623094  69.8412316 139.1393871 121.9035640  69.1571536 138.4724454
 122.3642612  70.5831306 138.6874497 112.6865249  59.8910180 138.0382931
 112.1502606  59.4400919 138.6904527 112.0981957  60.0256089 137.2953395
 110.9813793  76.6574230 131.9327590 111.2210391  77.2892754 132.6106608
 110.1382989  76.3062270 132.2192949 112.0967508  59.3498832 120.6009395
 111.2196974  59.2287632 120.2371641 112.5725261  58.5584910 120.3488283
 121.9640501  67.8051900 137.3707850 121.0767280  67.4677821 137.4934249
 122.5339052  67.0734931 137.6076616 103.6169648  64.1375991 130.6950902
 104.3040688  63.8237721 130.1071917 103.4617777  65.0417356 130.4218153
 108.4204370  59.0266188 135.1235925 108.3362559  58.4191858 134.3886335
 107.5987077  59.5175206 135.1245422 115.4941654  72.4653352 134.3369094
 115.4211826  73.2708324 134.8488398 115.0519047  72.6645318 133.5117115
 115.2831434  71.7025122 127.8471915 114.4998956  72.2446802 127.9410140
 115.9824179  72.2199102 128.2466156 118.5928084  57.5119751 130.4906121
 119.0896784  56.7589714 130.1707191 117.8215066  57.5484068 129.9249330
 126.4457842  63.2160117 132.1324412 126.4347718  64.0984832 131.7618345
 125.5775221  62.8631668 131.9378949 117.9540338  72.3640186 136.4927252
 118.6668310  72.9987651 136.4203154 117.4630367  72.4604052 135.6767254
 119.6757865  66.2691439 128.0644544 118.7414144  66.3892901 127.8949248
 119.8534533  65.3663905 127.8004554 115.1763053  59.6537134 130.2177805
 114.8060840  59.1008175 130.9058711 115.6722145  59.0495268 129.6652805
 123.0630416  62.1108758 128.5994578 123.5290868  62.9436750 128.5254881
 123.5137917  61.6453740 129.3039837 113.0052251  70.1134630 137.3132823
 113.7061711  70.7471112 137.4662217 112.5347366  70.4549361 136.5528462
 121.1306647  68.4552579 125.5980730 121.4066491  68.3409174 126.5074604
 120.2611146  68.0570064 125.5592903 121.0347079  54.4789345 132.6385479
 120.1210159  54.7093572 132.8067686 121.4640180  54.5627789 133.4899512
 120.8053537  62.6679237 135.1385373 120.1524988  62.9155144 134.4837826
 121.1833917  61.8543375 134.8047851 117.7660711  72.7038930 129.2413544
 117.9483106  71.8860586 129.7041296 118.5893697  72.9206622 128.8038434
 118.1002877  71.6307115 126.5028592 118.6290643  71.1199570 125.8898754
 118.3631096  71.3149645 127.3674125 116.8541110  63.4099048 141.6251410
 116.1781747  63.3093177 142.2953786 117.6768744  63.2538262 142.0887408
 108.6019970  69.6470985 134.2463926 109.1873406  68.9014672 134.3791830
 108.4044808  69.9574941 135.1300590 111.4558625  72.6822232 129.2626368
 110.7869000  73.1668360 128.7790408 111.3171494  72.9291452 130.1769747
 103.1937624  62.2176585 132.9668369 103.2321724  61.6840175 133.7605487
 102.6877917  61.6911790 132.3479346 115.5963893  74.7165975 135.8609026
 116.1482201  74.8797597 136.6258112 115.9370087  75.3070413 135.1889051
 110.5728387  57.0641125 136.4630911 110.6369713  57.9255956 136.0508309
 110.5095507  56.4515127 135.7303270 110.0480659  59.1364258 140.1103945
 110.6752698  58.7541335 140.7241470 109.1908578  58.9178460 140.4759638
 120.4474768  69.5427233 141.7157681 120.9914672  70.1557191 141.2212636
 119.8661612  70.1006811 142.2324694 106.8246202  60.9440687 126.0422300
 107.1199643  60.0351365 125.9889354 105.9234238  60.9228426 125.7203303
 118.7332281  72.6647951 132.8472709 118.6083420  71.8637691 132.3383654
 119.3911372  73.1594144 132.3586679 110.3540449  59.0196683 132.0249849
 109.6327035  59.6332651 131.8857322 111.1433705  59.5554448 131.9466495
 120.7967189  70.4656971 134.4752259 119.8497525  70.3462322 134.4030585
 121.1449962  69.5779469 134.5578520 113.1566762  56.3551110 138.2990501
 113.6801164  56.6013407 139.0616810 112.9379096  57.1871145 137.8793638
 108.5534043  58.6254785 126.1661625 108.2246750  57.7452163 125.9836731
 108.9073414  58.5702453 127.0538015 117.8013622  70.2609687 130.6756611
 117.6538585  69.3326395 130.8564181 118.6267116  70.2829778 130.1913686
 111.6675867  58.9127754 126.5337103 112.0071939  59.4413676 125.8115711
 112.1147987  59.2508160 127.3095670 121.4047744  71.0838246 131.7621484
 122.3294292  70.8781107 131.6245935 121.2363047  70.8354647 132.6710825
 114.3619307  57.2964805 135.9840171 114.0216128  56.4972618 136.3860851
 113.6558314  57.5966516 135.4117004 115.0135779  54.3814118 134.4367494
 115.8361849  53.9074596 134.3146384 115.2573843  55.1604601 134.9366180
 113.6544014  57.4102376 124.7330396 114.3752376  57.7883629 124.2294113
 113.0309318  58.1291253 124.8365374 117.7975137  58.1147525 125.6688728
 118.0138751  58.9972163 125.3677556 117.3169204  57.7233738 124.9394370
 112.5374358  61.0733238 132.2459473 112.3918939  61.3873541 133.1383754
 112.0599562  61.6918138 131.6930371 114.3970741  58.0635786 132.2940362
 114.3832310  57.1676879 131.9572660 115.1143169  58.0706450 132.9278648
 116.2496872  58.4973126 134.3393490 115.9914649  59.4190197 134.3377820
 115.7181912  58.1003561 135.0293954 121.1943060  71.6023913 127.1183575
 121.3679938  71.0370336 126.3657428 121.6871952  72.4024808 126.9363065
 107.0120020  63.6138583 135.1847134 106.4673488  64.3898391 135.3167408
 107.8899370  63.9609387 135.0266255 113.8007637  56.9450166 127.5627932
 113.9223548  56.0166813 127.7618820 113.5109679  56.9588852 126.6506248
 116.6698827  54.6305077 130.6994652 116.6920524  54.6944410 129.7446632
 117.0866886  53.7909586 130.8935158 127.0482451  64.3660336 128.7373875
 127.4913598  63.6167662 128.3392998 126.1708962  64.3570473 128.3547607
 122.1818233  70.9190678 124.2180473 122.8769137  71.5397371 124.4367788
 122.5241383  70.0686029 124.4932851 107.7986042  62.7408479 138.0777291
 107.0567778  62.8891114 138.6641921 107.4778786  63.0016744 137.2144040
 124.0809656  68.3690383 125.7467804 124.6060980  68.7077656 125.0217124
 123.9932008  67.4337399 125.5630939 115.7429705  72.2824457 137.8757681
 116.0516831  72.0373604 138.7480380 116.5405187  72.4871096 137.3876551
 115.7650317  74.4362367 130.1063057 115.3255307  73.9438745 130.7995914
 116.5158434  73.8935334 129.8655133 108.2442656  70.6273908 130.1087685
 109.0700676  70.3277679 129.7286329 107.8936708  69.8581530 130.5577474
 113.2124189  69.9800376 132.1785359 112.5904198  69.3171081 131.8787587
 113.8829056  70.0061508 131.4959007 106.4451261  68.5460234 131.0676619
 105.6083169  68.1182408 130.8860620 106.4174906  68.7392677 132.0047410
 113.2848716  58.4582164 141.7717865 113.3336872  59.3344287 141.3895635
 113.8271231  57.9159557 141.1989508 123.7703562  69.0023287 141.0519002
 122.9799106  68.9847426 140.5123502 123.5336917  69.5411581 141.8068039
 123.8901437  65.8515753 138.3651731 123.9399442  65.6865761 139.3067253
 123.7815360  64.9843012 137.9749611 112.7737696  68.5304299 125.6543820
 112.9225816  69.2139764 125.0010492 113.5804139  68.5109389 126.1693275
 121.1805199  61.8346681 139.6811037 122.0815062  61.6953146 139.3895035
 121.2553174  62.0001136 140.6209215 115.5148005  59.2113536 138.5264224
 114.6451314  59.5047102 138.2546812 115.7507485  59.7953981 139.2471487
 125.3919634  68.2712695 138.6093752 125.1004442  68.6342675 139.4457213
 124.7791765  67.5579703 138.4307084 126.5915316  65.8365575 131.1296322
 127.4262208  66.2755379 131.2933883 126.7274445  65.3604228 130.3104568
 123.6406822  63.3945310 137.0773810 124.1160944  63.5872956 136.2692662
 122.7172387  63.4504495 136.8317194 110.5290329  64.5569477 126.6604889
 110.2836371  63.6531807 126.8585099 110.6986243  64.5586627 125.7184367
 118.2187039  55.4293153 136.0429644 118.7368982  56.1654180 135.7176133
 117.8642171  55.7357146 136.8776403 109.7985976  60.2897834 124.1591050
 109.1055221  60.3642189 123.5031086 109.5537728  59.5258178 124.6812567
 118.4699633  51.8493436 131.5630541 118.7501387  51.1816625 132.1890967
 119.2550240  52.0422531 131.0505205 116.2733101  71.0252430 123.1255567
 115.7007068  71.6442617 122.6726039 116.8465895  71.5751791 123.6595489
 122.3408491  60.2711070 135.3102116 123.2925914  60.3709167 135.3314340
 122.1711942  59.4789338 135.8200200 120.3622871  57.3566653 135.4961517
 119.7672803  57.6371666 134.8008005 120.0772567  57.8460554 136.2678258
 119.4930361  71.3089580 124.2564149 120.4261034  71.2435141 124.4597025
 119.4053574  72.1445847 123.7978682 122.1218378  70.6255450 121.2168097
 122.0432009  70.2915314 122.1103855 122.9428045  71.1177218 121.2159569
 124.8196569  63.4917189 134.4244415 124.7872889  62.5533190 134.6104099
 125.4297193  63.5701226 133.6910240 116.6579900  62.3613242 120.4671620
 117.6039004  62.2319450 120.5360038 116.2794145  61.6227904 120.9441048
 124.9691057  60.2828233 134.4702699 124.4530106  59.4986689 134.2832628
 125.8531006  59.9546949 134.6349218 122.6301784  54.0269248 130.4298511
 122.4326605  53.7184337 131.3141843 123.2401490  54.7530887 130.5596441
 130.6373119  64.5533196 133.5650452 131.3676507  64.2918484 134.1258156
 130.0280064  63.8161918 133.6052520 128.7188416  62.6941059 134.1624903
 127.9921579  62.5597024 133.5541395 128.3035703  63.0017887 134.9681622
 116.5418592  66.4130988 141.9272276 117.4621602  66.5909587 142.1212323
 116.5068175  65.4687034 141.7751976 114.8422817  60.2863219 120.4026505
 113.9354272  59.9896331 120.4789218 115.1198798  59.9893037 119.5360791
 105.7600757  61.6069582 130.8525551 105.4403542  60.7534890 130.5599925
 105.2134185  61.8218160 131.6083518 109.5380665  64.3232023 134.5695058
 109.7566675  65.2549131 134.5883091 109.9506439  63.9639998 135.3549861
 116.4584883  54.8300108 126.5570746 115.6485611  54.4847193 126.9325992
 117.1469300  54.5207652 127.1458358 118.3875431  53.9078155 128.1795043
 118.9406470  54.3273609 128.8385066 118.6245517  52.9813903 128.2217999
 114.4108530  59.8965229 143.9597807 114.3105257  60.8459586 143.8909898
 114.1930072  59.5683468 143.0873877 113.6121602  57.1450154 120.5438484
 114.4740766  57.4705052 120.8034301 113.7971946  56.3581650 120.0311550
 105.6289017  65.2272494 132.8218673 104.9352489  64.8126446 132.3088627
 106.3762008  65.2693030 132.2252092 121.7654238  56.0178680 127.6873707
 121.1852907  56.6763484 127.3051759 121.4990171  55.1956025 127.2761124
 120.2157804  55.4183738 129.8895027 120.7157583  55.5300273 129.0809346
 120.8593412  55.1144791 130.5295836 114.2739800  63.3262368 142.7762868
 113.7906882  64.1262728 142.9826757 114.3600739  63.3370313 141.8230312
 107.5425760  65.1590747 130.6984688 107.5196448  65.2578435 129.7466571
 107.8526396  66.0055898 131.0201854 110.2013138  67.2166902 134.8131302
 111.1556391  67.1850845 134.7461234 110.0025661  66.7557526 135.6281528
 110.7912520  65.7868018 137.3802100 111.6105409  66.2812097 137.4036937
 111.0649328  64.8699987 137.3519667 120.5479116  58.1778771 126.7430055
 119.6604971  58.4628421 126.5250250 120.9633105  58.0172534 125.8957332
 123.8993652  58.2025292 130.4584394 124.6754042  58.6921744 130.7309011
 123.1741786  58.6283346 130.9156264 126.3366211  58.9152911 131.5158335
 126.9310702  58.6748647 130.8051643 126.4092795  58.1960042 132.1431871
 108.5563366  72.7586522 131.8301500 108.4217834  71.9986923 131.2639498
 108.1395429  73.4827422 131.3630289 119.6922330  67.9423445 120.8378075
 120.3958180  68.1473448 121.4535731 118.9684978  68.5100207 121.1027159
 120.5220140  63.6933307 126.9580345 120.4655341  64.1501858 126.1187978
 121.0748482  62.9323991 126.7803188 124.3324946  59.4823039 127.7830465
 124.0761880  59.0819674 128.6138673 123.7077814  60.1966832 127.6580604
 128.6437284  62.2219112 130.2901756 128.0836842  62.2912301 131.0633318
 128.0380787  62.0460096 129.5701253 111.7132492  73.6555839 132.0419943
 111.5964877  74.6001271 131.9398633 110.8924939  73.3529400 132.4305742
 121.6009027  68.3805975 122.8876535 122.4354631  67.9487173 122.7054010
 121.4393370  68.2087988 123.8153430 121.2554919  64.8838088 124.2532875
 121.2003723  64.7182359 123.3121319 120.6300974  65.5914121 124.4095064
 106.0447434  60.1206152 138.0794297 106.6906298  59.6105106 138.5681522
 105.8364585  60.8574834 138.6537722 118.5700826  67.1887000 143.5786437
 119.4391986  67.3627652 143.2173072 118.0907578  68.0081417 143.4562167
 114.5651045  54.3846197 123.8318193 114.5529714  55.3288037 123.9886464
 115.4574466  54.2016342 123.5377654 112.7387006  74.3084101 135.2575871
 113.6414253  74.3407711 135.5742366 112.5124377  73.3784552 135.2722207
 114.4940609  73.0615087 131.9185950 113.5436240  73.0616949 131.8050322
 114.7973095  72.3147822 131.4021984 118.3803164  50.9788974 128.0864130
 117.6135560  50.4247460 128.2320812 118.7913869  51.0510842 128.9478281
 110.3844925  57.2673769 142.1769311 111.2476387  56.9110574 142.3872636
 109.8110336  56.9287664 142.8644715 130.2293302  78.8975626 132.9831712
 130.8671712  78.7782373 132.2795052 130.1114145  79.8456470 133.0419664
 127.0383008  78.8503054 132.9193237 126.7001520  78.7344119 132.0313772
 127.9072776  78.4494219 132.8994243 122.8969824  80.7038530 128.9090128
 122.3334689  80.6128467 128.1406415 122.7822219  79.8838435 129.3892620
 127.5202791  80.0037906 138.8779442 127.5091432  79.6090704 138.0059946
 127.6823431  79.2703978 139.4713214 120.4434256  82.1989722 131.7474348
 121.2355548  81.8580547 131.3320647 120.6830906  82.3084697 132.6676501
 128.4769383  84.3709498 124.2204593 127.8257362  84.9563578 123.8338606
 129.2713746  84.9015693 124.2799630 122.4025010  81.4598635 124.6191727
 123.1755886  80.9127622 124.4804603 122.7550409  82.3242884 124.8306188
 124.2410052  82.7875017 137.8258626 123.9499918  83.6920648 137.7105293
 124.8767037  82.8291545 138.5402696 125.1666259  80.1651866 134.4159986
 125.7629832  79.9407888 133.7016949 125.2241231  79.4236611 135.0185434
 124.7391288  77.6191301 122.2510177 124.9916808  77.0972823 121.4893640
 123.8015847  77.4557447 122.3536860 129.7834570  76.6227080 130.0584920
 130.5697660  76.2046503 129.7075337 130.0473275  77.5273172 130.2266568
 129.9544648  82.0599930 124.7573577 129.3190481  82.1334556 125.4694481
 129.6242054  82.6493529 124.0792656 135.1842998  76.5602313 130.9617899
 135.9168170  75.9901530 131.1955728 134.4282353  76.1723913 131.4024404
 124.4587576  79.5219407 124.4534552 124.3423835  78.8464311 125.1215636
 124.5689836  79.0351781 123.6366705 126.8019117  78.9829554 128.1581241
 126.4377325  78.4560175 128.8694162 127.6586233  78.5928023 127.9847726
 132.7068418  70.2723887 135.4212507 132.3751743  71.1419298 135.1973722
 132.1114031  69.9560171 136.1006538 126.4424604  74.0119454 123.1542590
 126.6099007  74.8799690 123.5213061 126.2521773  74.1746736 122.2303879
 129.1999937  82.4736433 134.8208420 128.9000661  83.3761472 134.7124227
 128.8550997  82.2068616 135.6729573 122.6512419  78.9250230 130.8545124
 121.7262915  78.7926444 131.0622816 122.8996832  79.7044449 131.3515067
 132.5997081  74.9918973 132.5005857 131.6913959  74.9234382 132.2064618
 132.5484677  75.4690918 133.3287683 126.4213825  76.4677111 124.1389256
 126.3013450  76.9134162 124.9774737 125.7266414  76.8162429 123.5802794
 120.0121230  78.5683503 131.6888913 120.1413611  78.8217982 132.6028325
 119.3318681  79.1611211 131.3693568 124.1820717  89.2380753 127.7879388
 124.1044747  90.1888578 127.8667868 123.5782361  88.8926626 128.4454314
 126.6737947  76.4108619 140.4440754 125.8971281  76.9702539 140.4343619
 127.3128510  76.8965402 140.9655625 134.4658728  73.1935411 134.2783731
 133.8233108  73.4867945 133.6323526 133.9613656  73.0788332 135.0836928
 132.1198891  76.9398585 124.9669590 133.0316747  77.1725971 124.7917288
 131.6108538  77.5235629 124.4044669 124.9284319  79.2194072 140.0058721
 125.6699004  79.7579116 139.7293545 124.2221305  79.8460361 140.1630273
 130.4039659  81.3623212 138.6030883 130.8123015  80.9205623 137.8585515
 129.6816921  80.7875840 138.8565076 126.7570729  76.2995819 135.9764440
 127.6031924  76.7235233 136.1199089 126.6969367  75.6429444 136.6703003
 130.7268474  81.9224403 132.3583172 130.0977336  82.0870117 131.6559240
 130.3394136  82.3366013 133.1294136 134.6057706  82.8578841 129.7127536
 133.9208744  83.2377742 129.1624569 134.6901555  83.4674168 130.4459483
 129.9070174  73.9600188 137.6345614 129.6631106  74.7142248 137.0979889
 130.1830105  74.3385535 138.4692861 131.8608637  80.5038800 136.3122879
 132.0725532  81.1470560 135.6357260 131.8138385  79.6701117 135.8444809
 129.4634866  73.1156621 133.2159451 128.6019345  73.4137874 133.5076189
 129.4897301  73.3327020 132.2840484 126.2796436  81.6598811 129.6233257
 126.7434781  81.9386514 128.8337879 126.0153234  80.7582256 129.4406348
 123.1720517  81.2070293 132.5613020 123.7421874  81.6357561 131.9230505
 123.7628628  80.9252877 133.2597206 125.2165322  77.7821964 126.4322822
 125.9189365  78.2343007 126.8996748 124.8845950  77.1405782 127.0602715
 123.6645683  76.3733720 140.8074031 123.0344344  77.0550001 141.0409428
 123.5581771  76.2616802 139.8627170 118.9590656  76.0405516 131.7339956
 118.1689710  76.2963045 131.2580066 119.4501903  76.8553854 131.8391996
 132.9754465  83.3810755 134.4845236 133.7971909  82.9790943 134.2027918
 132.9716868  83.2778990 135.4361352 120.9105401  76.4050095 128.6923432
 120.1136564  76.5168790 129.2106928 120.6830993  76.7436748 127.8264323
 126.7411069  82.9294799 136.6405947 126.8055501  83.3915206 137.4764119
 126.0321992  82.2992164 136.7688257 117.2428359  76.2936007 134.1654946
 117.4936397  77.1783017 134.4312522 117.7787907  76.1140608 133.3930038
 141.0660458  79.7249504 130.8330208 140.3124167  79.1556902 130.6774212
 141.2007999  79.6912168 131.7800843 126.4559086  84.5962906 126.5084927
 126.3204761  85.4414442 126.9369775 126.9968899  84.7982184 125.7450861
 122.9426426  70.6754486 143.1699283 122.5493371  70.1220685 143.8446927
 123.7592566  70.9865065 143.5605800 119.9088484  82.1138344 127.0812852
 120.4213004  82.9081594 127.2318417 120.5611196  81.4164635 127.0146454
 121.7183368  85.2304101 129.1635606 121.8949997  86.1522065 128.9756589
 122.5140202  84.9162520 129.5929985 125.8594387  72.0912365 140.7619539
 126.6004100  72.6919518 140.6824002 126.0912310  71.3490003 140.2037582
 121.0035725  77.2768732 139.0397769 120.8889240  76.3753990 139.3404868
 120.1480243  77.5232429 138.6882585 128.0827563  85.2186473 140.6385269
 127.6391417  84.4322851 140.3206174 128.7444776  85.4065623 139.9729160
 122.8414684  86.7482274 135.1645948 123.3922109  86.6199338 134.3922942
 122.0026160  87.0477163 134.8140841 130.1808801  85.4989273 138.6666671
 130.1627276  86.3198154 138.1746940 131.1028721  85.3743348 138.8916812
 126.6381855  83.0133402 139.5090179 127.1710192  82.2521690 139.2789487
 126.1095936  82.7207054 140.2514333 129.8051550  68.1193468 135.0383821
 129.4615819  69.0095110 134.9622931 130.1730512  67.9295126 134.1753406
 117.8737400  80.4426999 127.8572423 118.7112622  80.8524007 127.6406131
 118.0515668  79.5026441 127.8272617 129.7701833  78.1102079 123.5456256
 129.2548456  78.8806684 123.7844643 129.4979141  77.4367215 124.1689317
 127.3548944  72.9551780 128.6041494 126.4990540  72.5658630 128.4247133
 127.7675895  73.0343741 127.7441280 128.8848090  70.4898123 133.0033054
 128.3812886  70.4528258 132.1900859 129.1778697  71.3990866 133.0629711
 125.1290976  70.5736853 132.0099236 125.9943973  70.3779662 131.6505125
 125.1968485  70.3447205 132.9368593 134.7436107  80.8634434 125.4809429
 133.9665549  80.5245593 125.0364591 135.4227588  80.8687057 124.8064394
 129.5588136  75.9829171 125.3716037 129.2538271  76.2975320 126.2226180
 130.5118578  76.0610591 125.4143370 128.0034568  82.1419395 127.0208991
 127.4755929  81.4072154 126.7082228 127.5022070  82.9194071 126.7748959
 132.9827414  80.3368415 132.1376037 132.3251088  81.0267676 132.2256166
 133.7867813  80.7264847 132.4810024 122.7353295  72.8039061 129.3815603
 123.3097047  72.5814242 128.6488796 123.3224278  72.8727755 130.1344204
 131.7932872  78.6912788 130.1879979 132.3064754  79.3242780 130.6901689
 132.4434096  78.0913983 129.8223339 123.0622882  74.8343522 123.4011488
 122.2260194  75.1718208 123.7220763 122.9227652  74.6992502 122.4638625
 125.0375963  69.6780310 128.1090672 124.3840375  69.3629327 127.4847287
 124.9956437  69.0556050 128.8350495 126.1487168  79.9599605 120.0243964
 125.2414229  79.7288858 120.2235113 126.6458200  79.1637224 120.2117946
 129.0555247  88.6697112 122.9440650 128.3816945  88.9728809 123.5525608
 129.4421069  89.4726192 122.5946107 128.2713703  76.1662243 132.4338320
 127.3536265  76.3877190 132.2760008 128.6873847  76.2408554 131.5750027
 129.0548751  77.5653659 127.5641000 129.8020570  78.0775056 127.2548122
 129.3240341  77.2437712 128.4245393 127.3275401  80.0612200 124.5467954
 126.4186620  79.7771233 124.6440424 127.3570485  80.4811278 123.6871261
 132.5594669  83.6718789 128.3159122 132.1056996  82.8309699 128.3724312
 131.9288635  84.3080188 128.6533902 131.5027588  74.6010775 129.5459789
 130.7650345  74.0888161 129.8770032 131.7554362  74.1611157 128.7343066
 131.0027608  85.5095286 129.2508940 131.2950582  86.0700343 128.5321305
 131.5126228  85.8023847 130.0062099 131.6039215  67.3787027 130.1401558
 131.9098092  66.5184391 129.8527474 132.3291820  67.9704647 129.9400552
 117.8963572  77.7817714 128.5283156 117.6987971  77.1887075 127.8034223
 117.3410236  77.4769924 129.2459095 125.8760295  77.6740820 130.6477750
 125.9308905  76.7214657 130.5720226 125.0651497  77.8300259 131.1319048
 127.0251489  81.6020943 121.8856033 126.5870919  80.8856802 121.4261670
 127.7661930  81.8297058 121.3241124 123.8152655  76.2917880 128.4068128
 123.0020521  76.5912051 128.8133321 124.3111649  75.8973569 129.1242611
 125.9661233  86.2875637 130.3402393 125.9237412  86.5136483 129.4110925
 126.8823932  86.0539012 130.4888194 129.4126867  76.7559705 137.2383022
 129.7676255  76.9831178 138.0977488 130.0598998  77.0878081 136.6160278
 135.1424604  79.8778140 127.9432351 135.0042502  80.0679736 127.0153541
 134.7860823  80.6397523 128.4000402 123.3066730  73.8636236 134.0229363
 123.9466109  73.7224995 133.3252327 122.4744260  73.5770749 133.6467965
 135.1693983  81.9454667 132.9543623 135.6030490  81.8529957 133.8026677
 135.8825564  81.9212168 132.3163639 124.0827034  83.1638666 130.1364356
 124.8767632  82.6688986 129.9346931 123.3718726  82.6356529 129.7732061
 128.9021878  85.5456762 134.4876723 128.9558901  86.1147698 135.2554439
 128.0336660  85.7158647 134.1230761 120.3909797  77.3081748 126.2124108
 119.4607385  77.2466203 126.4294071 120.4867269  76.7857701 125.4160750
 120.3095346  73.8336561 128.8002350 120.5702164  74.7481894 128.6911511
 121.1312519  73.3661003 128.9498963 121.7820272  75.2474318 135.9701175
 122.4543325  75.0391680 135.3213824 120.9550058  75.0496404 135.5306407
 136.0309533  81.9878368 135.4876508 136.2245423  82.8924179 135.7335783
 135.9310151  81.5285787 136.3215093 127.6845844  71.8736259 137.9866836
 127.0373759  72.5726208 137.8931312 128.4546859  72.3072403 138.3543084
 131.0924642  82.1385111 141.0617389 130.9410148  81.9095663 140.1447473
 131.0829321  83.0955712 141.0748734 127.8609978  79.7117024 136.0463655
 128.7902038  79.8628183 135.8732623 127.4401008  79.8001044 135.1912302
 126.6598310  83.7367688 133.8162193 126.5209395  83.3686472 134.6888131
 125.8712906  84.2515327 133.6446151 127.2546462  88.8376784 125.1587729
 127.4298217  88.3664828 125.9733352 126.5679250  89.4642551 125.3868990
 128.2103525  83.1149291 131.2051031 127.8753358  83.0750061 132.1008681
 127.7107471  82.4494007 130.7321441 122.1847769  78.5216921 136.7303612
 122.0467567  77.7897160 137.3315151 123.0952692  78.4325821 136.4487800
 131.1462717  80.4605325 121.4788090 130.5291887  79.7352153 121.3821143
 130.6779205  81.2214685 121.1355165 124.8130070  78.2336880 136.2187291
 125.5229688  77.5930072 136.1773910 124.7699378  78.4849775 137.1413472
 132.8016848  85.1704233 139.1393871 132.7429394  84.4863454 138.4724454
 133.2036367  85.9123223 138.6874497 123.5259004  75.2202098 138.0382931
 122.9896361  74.7692836 138.6904527 122.9375712  75.3548007 137.2953395
 121.8207547  91.9866147 131.9327590 122.0604145  92.6184671 132.6106608
 120.9776743  91.6354187 132.2192949 122.9361262  74.6790749 120.6009395
 122.0590729  74.5579550 120.2371641 123.4119016  73.8876828 120.3488283
 132.8034255  83.1343817 137.3707850 131.9161034  82.7969739 137.4934249
 133.3732807  82.4026849 137.6076616 114.4563403  79.4667909 130.6950902
 115.1434442  79.1529639 130.1071917 114.3011531  80.3709274 130.4218153
 119.2598125  74.3558106 135.1235925 119.1756313  73.7483775 134.3886335
 118.4380831  74.8467124 135.1245422 126.3335409  87.7945270 134.3369094
 126.2605580  88.6000241 134.8488398 125.8912802  87.9937236 133.5117115
 126.1225188  87.0317040 127.8471915 125.3392710  87.5738720 127.9410140
 126.8217934  87.5491019 128.2466156 129.4321839  72.8411669 130.4906121
 129.9290538  72.0881631 130.1707191 128.6608820  72.8775986 129.9249330
 137.2851596  78.5452035 132.1324412 137.2741472  79.4276750 131.7618345
 136.4168975  78.1923586 131.9378949 128.7934092  87.6932104 136.4927252
 129.5062065  88.3279569 136.4203154 128.3024121  87.7895970 135.6767254
 130.5151619  81.5983356 128.0644544 129.5807898  81.7184819 127.8949248
 130.6928288  80.6955823 127.8004554 126.0156807  74.9829052 130.2177805
 125.6454595  74.4300093 130.9058711 126.5115900  74.3787186 129.6652805
 133.9024171  77.4400676 128.5994578 134.3684623  78.2728667 128.5254881
 134.3531671  76.9745657 129.3039837 123.8446006  85.4426547 137.3132823
 124.5455465  86.0763030 137.4662217 123.3741121  85.7841279 136.5528462
 131.9700402  83.7844497 125.5980730 132.2460246  83.6701092 126.5074604
 131.1004901  83.3861982 125.5592903 131.8740833  69.8081263 132.6385479
 130.9603913  70.0385490 132.8067686 132.3033935  69.8919707 133.4899512
 131.6447292  77.9971155 135.1385373 130.9918742  78.2447062 134.4837826
 132.0227672  77.1835293 134.8047851 128.6054466  88.0330848 129.2413544
 128.7876860  87.2152504 129.7041296 129.4287452  88.2498540 128.8038434
 128.9396631  86.9599033 126.5028592 129.4684398  86.4491488 125.8898754
 129.2024851  86.6441563 127.3674125 127.6934865  78.7390966 141.6251410
 127.0175502  78.6385095 142.2953786 128.5162499  78.5830179 142.0887408
 119.4413724  84.9762902 134.2463926 120.0267161  84.2306590 134.3791830
 119.2438562  85.2866859 135.1300590 122.2952379  88.0114150 129.2626368
 121.6262754  88.4960277 128.7790408 122.1565249  88.2583370 130.1769747
 114.0331379  77.5468502 132.9668369 114.0715478  77.0132093 133.7605487
 113.5271672  77.0203708 132.3479346 126.4357648  90.0457893 135.8609026
 126.9875956  90.2089515 136.6258112 126.7763841  90.6362331 135.1889051
 121.4122141  72.3933043 136.4630911 121.4763468  73.2547874 136.0508309
 121.3489261  71.7807045 135.7303270 120.8874414  74.4656175 140.1103945
 121.5146452  74.0833253 140.7241470 120.0302332  74.2470377 140.4759638
 131.2868522  84.8719151 141.7157681 131.8308426  85.4849109 141.2212636
 130.7055367  85.4298729 142.2324694 117.6639956  76.2732605 126.0422300
 117.9593397  75.3643283 125.9889354 116.7627992  76.2520344 125.7203303
 129.5726035  87.9939869 132.8472709 129.4477175  87.1929609 132.3383654
 130.2305126  88.4886062 132.3586679 121.1934203  74.3488601 132.0249849
 120.4720789  74.9624569 131.8857322 121.9827459  74.8846366 131.9466495
 131.6360943  85.7948889 134.4752259 130.6891279  85.6754240 134.4030585
 131.9843717  84.9071387 134.5578520 123.9960517  71.6843028 138.2990501
 124.5194919  71.9305324 139.0616810 123.7772850  72.5163062 137.8793638
 119.3927798  73.9546702 126.1661625 119.0640504  73.0744081 125.9836731
 119.7467169  73.8994371 127.0538015 128.6407377  85.5901605 130.6756611
 128.4932339  84.6618312 130.8564181 129.4660870  85.6121696 130.1913686
 122.5069621  74.2419672 126.5337103 122.8465694  74.7705593 125.8115711
 122.9541742  74.5800078 127.3095670 132.2441499  86.4130164 131.7621484
 133.1688046  86.2073025 131.6245935 132.0756802  86.1646565 132.6710825
 125.2013062  72.6256723 135.9840171 124.8609882  71.8264536 136.3860851
 124.4952068  72.9258434 135.4117004 125.8529534  69.7106035 134.4367494
 126.6755603  69.2366513 134.3146384 126.0967597  70.4896519 134.9366180
 124.4937768  72.7394294 124.7330396 125.2146131  73.1175546 124.2294113
 123.8703072  73.4583170 124.8365374 128.6368891  73.4439443 125.6688728
 128.8532505  74.3264080 125.3677556 128.1562958  73.0525656 124.9394370
 123.3768112  76.4025156 132.2459473 123.2312693  76.7165459 133.1383754
 122.8993316  77.0210056 131.6930371 125.2364495  73.3927704 132.2940362
 125.2226064  72.4968797 131.9572660 125.9536923  73.3998368 132.9278648
 127.0890626  73.8265044 134.3393490 126.8308404  74.7482115 134.3377820
 126.5575666  73.4295479 135.0293954 132.0336815  86.9315831 127.1183575
 132.2073692  86.3662254 126.3657428 132.5265706  87.7316726 126.9363065
 117.8513775  78.9430500 135.1847134 117.3067243  79.7190308 135.3167408
 118.7293124  79.2901305 135.0266255 124.6401391  72.2742084 127.5627932
 124.7617302  71.3458730 127.7618820 124.3503434  72.2880770 126.6506248
 127.5092582  69.9596995 130.6994652 127.5314278  70.0236328 129.7446632
 127.9260641  69.1201503 130.8935158 137.8876206  79.6952254 128.7373875
 138.3307352  78.9459579 128.3392998 137.0102716  79.6862390 128.3547607
 133.0211987  86.2482596 124.2180473 133.7162892  86.8689288 124.4367788
 133.3635137  85.3977947 124.4932851 118.6379796  78.0700396 138.0777291
 117.8961533  78.2183032 138.6641921 118.3172541  78.3308662 137.2144040
 134.9203410  83.6982301 125.7467804 135.4454735  84.0369574 125.0217124
 134.8325763  82.7629316 125.5630939 126.5823459  87.6116375 137.8757681
 126.8910586  87.3665521 138.7480380 127.3798941  87.8163013 137.3876551
 126.6044071  89.7654284 130.1063057 126.1649061  89.2730663 130.7995914
 127.3552188  89.2227252 129.8655133 119.0836410  85.9565825 130.1087685
 119.9094430  85.6569597 129.7286329 118.7330462  85.1873448 130.5577474
 124.0517943  85.3092293 132.1785359 123.4297953  84.6462998 131.8787587
 124.7222810  85.3353425 131.4959007 117.2845015  83.8752152 131.0676619
 116.4476924  83.4474326 130.8860620 117.2568661  84.0684595 132.0047410
 124.1242471  73.7874081 141.7717865 124.1730626  74.6636204 141.3895635
 124.6664985  73.2451475 141.1989508 134.6097316  84.3315205 141.0519002
 133.8192860  84.3139344 140.5123502 134.3730671  84.8703498 141.8068039
 134.7295192  81.1807671 138.3651731 134.7793196  81.0157679 139.3067253
 134.6209115  80.3134930 137.9749611 123.6131450  83.8596217 125.6543820
 123.7619571  84.5431681 125.0010492 124.4197894  83.8401307 126.1693275
 132.0198954  77.1638599 139.6811037 132.9208817  77.0245064 139.3895035
 132.0946928  77.3293054 140.6209215 126.3541759  74.5405454 138.5264224
 125.4845069  74.8339020 138.2546812 126.5901240  75.1245899 139.2471487
 136.2313388  83.6004613 138.6093752 135.9398197  83.9634593 139.4457213
 135.6185520  82.8871621 138.4307084 137.4309071  81.1657492 131.1296322
 138.2655962  81.6047296 131.2933883 137.5668199  80.6896146 130.3104568
 134.4800577  78.7237227 137.0773810 134.9554698  78.9164874 136.2692662
 133.5566142  78.7796413 136.8317194 121.3684083  79.8861394 126.6604889
 121.1230125  78.9823724 126.8585099 121.5379998  79.8878545 125.7184367
 129.0580793  70.7585071 136.0429644 129.5762737  71.4946098 135.7176133
 128.7035926  71.0649064 136.8776403 120.6379731  75.6189752 124.1591050
 119.9448976  75.6934107 123.5031086 120.3931483  74.8550096 124.6812567
 129.3093387  67.1785353 131.5630541 129.5895141  66.5108542 132.1890967
 130.0943994  67.3714449 131.0505205 127.1126856  86.3544347 123.1255567
 126.5400823  86.9734534 122.6726039 127.6859649  86.9043709 123.6595489
 133.1802246  75.6002987 135.3102116 134.1319669  75.7001085 135.3314340
 133.0105696  74.8081256 135.8200200 131.2016625  72.6858571 135.4961517
 130.6066557  72.9663583 134.8008005 130.9166322  73.1752471 136.2678258
 130.3324116  86.6381497 124.2564149 131.2654789  86.5727059 124.4597025
 130.2447328  87.4737764 123.7978682 132.9612132  85.9547368 121.2168097
 132.8825764  85.6207231 122.1103855 133.7821799  86.4469136 121.2159569
 135.6590323  78.8209107 134.4244415 135.6266644  77.8825108 134.6104099
 136.2690947  78.8993144 133.6910240 127.4973654  77.6905160 120.4671620
 128.4432759  77.5611368 120.5360038 127.1187899  76.9519822 120.9441048
 135.8084812  75.6120150 134.4702699 135.2923861  74.8278607 134.2832628
 136.6924760  75.2838867 134.6349218 133.4695539  69.3561166 130.4298511
 133.2720360  69.0476254 131.3141843 134.0795244  70.0822805 130.5596441
 141.4766873  79.8825114 133.5650452 142.2070262  79.6210402 134.1258156
 140.8673819  79.1453836 133.6052520 139.5582170  78.0232976 134.1624903
 138.8315334  77.8888941 133.5541395 139.1429457  78.3309805 134.9681622
 127.3812347  81.7422906 141.9272276 128.3015356  81.9201505 142.1212323
 127.3461930  80.7978951 141.7751976 125.6816571  75.6155136 120.4026505
 124.7748027  75.3188249 120.4789218 125.9592552  75.3184954 119.5360791
 116.5994512  76.9361500 130.8525551 116.2797296  76.0826808 130.5599925
 116.0527940  77.1510078 131.6083518 120.3774419  79.6523941 134.5695058
 120.5960429  80.5841049 134.5883091 120.7900193  79.2931915 135.3549861
 127.2978637  70.1592026 126.5570746 126.4879365  69.8139111 126.9325992
 127.9863054  69.8499570 127.1458358 129.2269185  69.2370073 128.1795043
 129.7800224  69.6565526 128.8385066 129.4639272  68.3105821 128.2217999
 125.2502285  75.2257147 143.9597807 125.1499012  76.1751503 143.8909898
 125.0323827  74.8975385 143.0873877 124.4515356  72.4742072 120.5438484
 125.3134520  72.7996970 120.8034301 124.6365700  71.6873567 120.0311550
 116.4682772  80.5564411 132.8218673 115.7746243  80.1418364 132.3088627
 117.2155763  80.5984948 132.2252092 132.6047993  71.3470598 127.6873707
 132.0246662  72.0055402 127.3051759 132.3383925  70.5247943 127.2761124
 131.0551559  70.7475656 129.8895027 131.5551337  70.8592190 129.0809346
 131.6987167  70.4436709 130.5295836 125.1133555  78.6554285 142.7762868
 124.6300636  79.4554645 142.9826757 125.1994494  78.6662230 141.8230312
 118.3819514  80.4882665 130.6984688 118.3590202  80.5870352 129.7466571
 118.6920151  81.3347816 131.0201854 121.0406892  82.5458820 134.8131302
 121.9950146  82.5142762 134.7461234 120.8419416  82.0849444 135.6281528
 121.6306274  81.1159936 137.3802100 122.4499163  81.6104015 137.4036937
 121.9043082  80.1991904 137.3519667 131.3872871  73.5070688 126.7430055
 130.4998726  73.7920339 126.5250250 131.8026860  73.3464452 125.8957332
 134.7387407  73.5317209 130.4584394 135.5147797  74.0213662 130.7309011
 134.0135541  73.9575264 130.9156264 137.1759965  74.2444829 131.5158335
 137.7704456  74.0040565 130.8051643 137.2486549  73.5251959 132.1431871
 119.3957121  88.0878440 131.8301500 119.2611589  87.3278840 131.2639498
 118.9789183  88.8119339 131.3630289 130.5316084  83.2715363 120.8378075
 131.2351934  83.4765366 121.4535731 129.8078733  83.8392125 121.1027159
 131.3613894  79.0225224 126.9580345 131.3049096  79.4793776 126.1187978
 131.9142237  78.2615909 126.7803188 135.1718700  74.8114956 127.7830465
 134.9155634  74.4111592 128.6138673 134.5471568  75.5258750 127.6580604
 139.4831038  77.5511029 130.2901756 138.9230596  77.6204219 131.0633318
 138.8774541  77.3752014 129.5701253 122.5526247  88.9847757 132.0419943
 122.4358631  89.9293189 131.9398633 121.7318693  88.6821318 132.4305742
 132.4402781  83.7097892 122.8876535 133.2748385  83.2779091 122.7054010
 132.2787124  83.5379906 123.8153430 132.0948674  80.2130006 124.2532875
 132.0397477  80.0474277 123.3121319 131.4694729  80.9206039 124.4095064
 116.8841189  75.4498070 138.0794297 117.5300052  74.9397024 138.5681522
 116.6758340  76.1866752 138.6537722 129.4094581  82.5178917 143.5786437
 130.2785740  82.6919570 143.2173072 128.9301332  83.3373334 143.4562167
 125.4044799  69.7138115 123.8318193 125.3923469  70.6579955 123.9886464
 126.2968221  69.5308260 123.5377654 123.5780761  89.6376018 135.2575871
 124.4808008  89.6699629 135.5742366 123.3518131  88.7076469 135.2722207
 125.3334363  88.3907005 131.9185950 124.3829994  88.3908867 131.8050322
 125.6366849  87.6439740 131.4021984 129.2196918  66.3080891 128.0864130
 128.4529314  65.7539378 128.2320812 129.6307623  66.3802760 128.9478281
 121.2238680  72.5965687 142.1769311 122.0870141  72.2402492 142.3872636
 120.6504090  72.2579582 142.8644715 141.0687056  94.2267543 132.9831712
 141.7065466  94.1074291 132.2795052 140.9507899  95.1748387 133.0419664
 137.8776763  94.1794972 132.9193237 137.5395274  94.0636036 132.0313772
 138.7466531  93.7786137 132.8994243 133.7363578  96.0330448 128.9090128
 133.1728444  95.9420385 128.1406415 133.6215974  95.2130352 129.3892620
 138.3596546  95.3329823 138.8779442 138.3485187  94.9382622 138.0059946
 138.5217185  94.5995896 139.4713214 131.2828010  97.5281640 131.7474348
 132.0749302  97.1872464 131.3320647 131.5224661  97.6376615 132.6676501
 139.3163137  99.7001416 124.2204593 138.6651117 100.2855496 123.8338606
 140.1107500 100.2307611 124.2799630 133.2418764  96.7890553 124.6191727
 134.0149640  96.2419540 124.4804603 133.5944163  97.6534802 124.8306188
 135.0803807  98.1166935 137.8258626 134.7893673  99.0212566 137.7105293
 135.7160791  98.1583463 138.5402696 136.0060014  95.4943784 134.4159986
 136.6023586  95.2699806 133.7016949 136.0634985  94.7528529 135.0185434
 135.5785042  92.9483219 122.2510177 135.8310563  92.4264740 121.4893640
 134.6409601  92.7849364 122.3536860 140.6228325  91.9518997 130.0584920
 141.4091414  91.5338420 129.7075337 140.8867029  92.8565089 130.2266568
 140.7938402  97.3891848 124.7573577 140.1584235  97.4626474 125.4694481
 140.4635809  97.9785446 124.0792656 146.0236752  91.8894230 130.9617899
 146.7561924  91.3193447 131.1955728 145.2676108  91.5015831 131.4024404
 135.2981331  94.8511325 124.4534552 135.1817589  94.1756228 125.1215636
 135.4083591  94.3643699 123.6366705 137.6412872  94.3121472 128.1581241
 137.2771079  93.7852093 128.8694162 138.4979988  93.9219941 127.9847726
 143.5462172  85.6015805 135.4212507 143.2145497  86.4711216 135.1973722
 142.9507786  85.2852089 136.1006538 137.2818359  89.3411372 123.1542590
 137.4492761  90.2091608 123.5213061 137.0915528  89.5038653 122.2303879
 140.0393692  97.8028351 134.8208420 139.7394415  98.7053389 134.7124227
 139.6944752  97.5360534 135.6729573 133.4906173  94.2542147 130.8545124
 132.5656670  94.1218362 131.0622816 133.7390587  95.0336367 131.3515067
 143.4390836  90.3210891 132.5005857 142.5307713  90.2526299 132.2064618
 143.3878432  90.7982836 133.3287683 137.2607580  91.7969029 124.1389256
 137.1407205  92.2426080 124.9774737 136.5660168  92.1454347 123.5802794
 130.8514985  93.8975421 131.6888913 130.9807366  94.1509900 132.6028325
 130.1712436  94.4903129 131.3693568 135.0214472 104.5672671 127.7879388
 134.9438501 105.5180496 127.8667868 134.4176115 104.2218543 128.4454314
 137.5131702  91.7400536 140.4440754 136.7365036  92.2994456 140.4343619
 138.1522265  92.2257319 140.9655625 145.3052482  88.5227329 134.2783731
 144.6626862  88.8159862 133.6323526 144.8007411  88.4080249 135.0836928
 142.9592646  92.2690502 124.9669590 143.8710502  92.5017889 124.7917288
 142.4502293  92.8527547 124.4044669 135.7678074  94.5485990 140.0058721
 136.5092758  95.0871034 139.7293545 135.0615059  95.1752278 140.1630273
 137.5964484  91.6287737 135.9764440 138.4425679  92.0527150 136.1199089
 137.5363121  90.9721361 136.6703003 141.5662228  97.2516321 132.3583172
 140.9371091  97.4162035 131.6559240 141.1787890  97.6657930 133.1294136
 145.4451460  98.1870759 129.7127536 144.7602498  98.5669660 129.1624569
 145.5295309  98.7966085 130.4459483 140.7463929  89.2892105 137.6345614
 140.5024861  90.0434166 137.0979889 141.0223859  89.6677453 138.4692861
 142.7002392  95.8330718 136.3122879 142.9119287  96.4762478 135.6357260
 142.6532140  94.9993034 135.8444809 140.3028621  88.4448538 133.2159451
 139.4413100  88.7429792 133.5076189 140.3291055  88.6618937 132.2840484
 137.1190190  96.9890729 129.6233257 137.5828536  97.2678432 128.8337879
 136.8546988  96.0874173 129.4406348 134.0114271  96.5362210 132.5613020
 134.5815628  96.9649479 131.9230505 134.6022383  96.2544795 133.2597206
 136.0559076  93.1113881 126.4322822 136.7583119  93.5634925 126.8996748
 135.7239705  92.4697700 127.0602715 134.5039438  91.7025638 140.8074031
 133.8738098  92.3841919 141.0409428 134.3975525  91.5908719 139.8627170
 129.7984410  91.3697434 131.7339956 129.0083464  91.6254962 131.2580066
 130.2895657  92.1845772 131.8391996 143.8148220  98.7102673 134.4845236
 144.6365663  98.3082860 134.2027918 143.8110622  98.6070907 135.4361352
 131.7499155  91.7342013 128.6923432 130.9530319  91.8460707 129.2106928
 131.5224748  92.0728665 127.8264323 137.5804823  98.2586716 136.6405947
 137.6449256  98.7207124 137.4764119 136.8715747  97.6284081 136.7688257
 128.0822113  91.6227924 134.1654946 128.3330151  92.5074934 134.4312522
 128.6181661  91.4432526 133.3930038 151.9054213  95.0541422 130.8330208
 151.1517921  94.4848820 130.6774212 152.0401754  95.0204086 131.7800843
 137.2952841  99.9254824 126.5084927 137.1598515 100.7706360 126.9369775
 137.8362653 100.1274102 125.7450861 133.7820180  86.0046404 143.1699283
 133.3887126  85.4512602 143.8446927 134.5986321  86.3156982 143.5605800
 130.7482238  97.4430262 127.0812852 131.2606759  98.2373512 127.2318417
 131.4004951  96.7456552 127.0146454 132.5577123 100.5596018 129.1635606
 132.7343751 101.4813983 128.9756589 133.3533956 100.2454437 129.5929985
 136.6988141  87.4204283 140.7619539 137.4397855  88.0211436 140.6824002
 136.9306064  86.6781921 140.2037582 131.8429479  92.6060650 139.0397769
 131.7282994  91.7045907 139.3404868 130.9873997  92.8524347 138.6882585
 133.6808438 102.0774192 135.1645948 134.2315863 101.9491255 134.3922942
 132.8419914 102.3769081 134.8140841 140.6445304  83.4485386 135.0383821
 140.3009574  84.3387027 134.9622931 141.0124267  83.2587043 134.1753406
 128.7131155  95.7718916 127.8572423 129.5506377  96.1815925 127.6406131
 128.8909423  94.8318358 127.8272617 140.6095587  93.4393997 123.5456256
 140.0942210  94.2098602 123.7844643 140.3372895  92.7659133 124.1689317
 138.1942698  88.2843698 128.6041494 137.3384294  87.8950548 128.4247133
 138.6069650  88.3635658 127.7441280 139.7241845  85.8190041 133.0033054
 139.2206640  85.7820176 132.1900859 140.0172452  86.7282784 133.0629711
 135.9684731  85.9028771 132.0099236 136.8337727  85.7071579 131.6505125
 136.0362239  85.6739122 132.9368593 145.5829861  96.1926352 125.4809429
 144.8059304  95.8537511 125.0364591 146.2621342  96.1978975 124.8064394
 140.3981890  91.3121089 125.3716037 140.0932026  91.6267238 126.2226180
 141.3512332  91.3902509 125.4143370 138.8428322  97.4711312 127.0208991
 138.3149684  96.7364072 126.7082228 138.3415825  98.2485989 126.7748959
 143.8221168  95.6660333 132.1376037 143.1644842  96.3559594 132.2256166
 144.6261567  96.0556765 132.4810024 133.5747050  88.1330979 129.3815603
 134.1490802  87.9106160 128.6488796 134.1618032  88.2019673 130.1344204
 142.6326627  94.0204705 130.1879979 143.1458509  94.6534697 130.6901689
 143.2827851  93.4205901 129.8223339 133.9016637  90.1635440 123.4011488
 133.0653949  90.5010126 123.7220763 133.7621406  90.0284419 122.4638625
 135.8769717  85.0072227 128.1090672 135.2234130  84.6921245 127.4847287
 135.8350191  84.3847968 128.8350495 136.9880922  95.2891523 120.0243964
 136.0807984  95.0580776 120.2235113 137.4851954  94.4929142 120.2117946
 139.8949001 103.9989030 122.9440650 139.2210700 104.3020726 123.5525608
 140.2814823 104.8018110 122.5946107 139.1107458  91.4954161 132.4338320
 138.1930019  91.7169108 132.2760008 139.5267601  91.5700471 131.5750027
 139.8942505  92.8945577 127.5641000 140.6414324  93.4066974 127.2548122
 140.1634095  92.5729629 128.4245393 138.1669156  95.3904117 124.5467954
 137.2580375  95.1063150 124.6440424 138.1964239  95.8103196 123.6871261
 143.3988423  99.0010707 128.3159122 142.9450750  98.1601617 128.3724312
 142.7682390  99.6372105 128.6533902 142.3421343  89.9302693 129.5459789
 141.6044099  89.4180079 129.8770032 142.5948116  89.4903075 128.7343066
 141.8421362 100.8387204 129.2508940 142.1344337 101.3992261 128.5321305
 142.3519983 101.1315765 130.0062099 142.4432970  82.7078945 130.1401558
 142.7491847  81.8476308 129.8527474 143.1685575  83.2996565 129.9400552
 128.7357326  93.1109632 128.5283156 128.5381726  92.5178992 127.8034223
 128.1803990  92.8061842 129.2459095 136.7154050  93.0032738 130.6477750
 136.7702659  92.0506574 130.5720226 135.9045252  93.1592177 131.1319048
 137.8645243  96.9312861 121.8856033 137.4264673  96.2148720 121.4261670
 138.6055684  97.1588976 121.3241124 134.6546410  91.6209798 128.4068128
 133.8414275  91.9203968 128.8133321 135.1505404  91.2265487 129.1242611
 136.8054987 101.6167555 130.3402393 136.7631166 101.8428401 129.4110925
 137.7217686 101.3830929 130.4888194 140.2520621  92.0851622 137.2383022
 140.6070009  92.3123095 138.0977488 140.8992752  92.4169999 136.6160278
 145.9818358  95.2070058 127.9432351 145.8436257  95.3971654 127.0153541
 145.6254577  95.9689441 128.4000402 134.1460484  89.1928153 134.0229363
 134.7859864  89.0516912 133.3252327 133.3138015  88.9062667 133.6467965
 146.0087738  97.2746585 132.9543623 146.4424244  97.1821874 133.8026677
 146.7219319  97.2504086 132.3163639 134.9220788  98.4930584 130.1364356
 135.7161387  97.9980904 129.9346931 134.2112481  97.9648447 129.7732061
 139.7415633 100.8748679 134.4876723 139.7952655 101.4439616 135.2554439
 138.8730414 101.0450564 134.1230761 131.2303552  92.6373665 126.2124108
 130.3001140  92.5758121 126.4294071 131.3261024  92.1149618 125.4160750
 131.1489101  89.1628478 128.8002350 131.4095918  90.0773812 128.6911511
 131.9706273  88.6952921 128.9498963 132.6214026  90.5766235 135.9701175
 133.2937080  90.3683598 135.3213824 131.7943813  90.3788321 135.5306407
 138.5239598  87.2028176 137.9866836 137.8767513  87.9018126 137.8931312
 139.2940614  87.6364320 138.3543084 138.7003732  95.0408941 136.0463655
 139.6295792  95.1920101 135.8732623 138.2794762  95.1292962 135.1912302
 137.4992064  99.0659606 133.8162193 137.3603150  98.6978390 134.6888131
 136.7106660  99.5807245 133.6446151 138.0940216 104.1668702 125.1587729
 138.2691972 103.6956745 125.9733352 137.4073004 104.7934468 125.3868990
 139.0497279  98.4441208 131.2051031 138.7147112  98.4041978 132.1008681
 138.5501225  97.7785924 130.7321441 133.0241523  93.8508838 136.7303612
 132.8861321  93.1189077 137.3315151 133.9346447  93.7617739 136.4487800
 141.9856471  95.7897243 121.4788090 141.3685642  95.0644071 121.3821143
 141.5172960  96.5506603 121.1355165 135.6523824  93.5628798 136.2187291
 136.3623443  92.9221990 136.1773910 135.6093132  93.8141693 137.1413472
 134.3652758  90.5494016 138.0382931 133.8290115  90.0984754 138.6904527
 133.7769466  90.6839924 137.2953395 132.6601302 107.3158065 131.9327590
 132.8997900 107.9476589 132.6106608 131.8170498 106.9646105 132.2192949
 133.7755017  90.0082667 120.6009395 132.8984483  89.8871468 120.2371641
 134.2512770  89.2168745 120.3488283 125.2957157  94.7959827 130.6950902
 125.9828197  94.4821557 130.1071917 125.1405286  95.7001191 130.4218153
 130.0991879  89.6850023 135.1235925 130.0150068  89.0775693 134.3886335
 129.2774586  90.1759042 135.1245422 137.1729163 103.1237187 134.3369094
 137.0999335 103.9292159 134.8488398 136.7306556 103.3229153 133.5117115
 136.9618943 102.3608957 127.8471915 136.1786465 102.9030638 127.9410140
 137.6611688 102.8782937 128.2466156 140.2715593  88.1703587 130.4906121
 140.7684293  87.4173549 130.1707191 139.5002575  88.2067904 129.9249330
 148.1245351  93.8743952 132.1324412 148.1135227  94.7568668 131.7618345
 147.2562730  93.5215503 131.9378949 141.3545374  96.9275274 128.0644544
 140.4201653  97.0476737 127.8949248 141.5322042  96.0247741 127.8004554
 136.8550562  90.3120970 130.2177805 136.4848349  89.7592010 130.9058711
 137.3509654  89.7079103 129.6652805 144.7417925  92.7692593 128.5994578
 145.2078377  93.6020585 128.5254881 145.1925426  92.3037575 129.3039837
 134.6839760 100.7718465 137.3132823 135.3849220 101.4054948 137.4662217
 134.2134875 101.1133196 136.5528462 142.8094156  99.1136415 125.5980730
 143.0854000  98.9993009 126.5074604 141.9398655  98.7153899 125.5592903
 142.7134588  85.1373180 132.6385479 141.7997668  85.3677407 132.8067686
 143.1427689  85.2211624 133.4899512 142.4841046  93.3263072 135.1385373
 141.8312497  93.5738980 134.4837826 142.8621426  92.5127210 134.8047851
 139.4448220 103.3622765 129.2413544 139.6270615 102.5444421 129.7041296
 140.2681206 103.5790458 128.8038434 139.7790386 102.2890951 126.5028592
 140.3078152 101.7783405 125.8898754 140.0418605 101.9733481 127.3674125
 130.2807478 100.3054820 134.2463926 130.8660915  99.5598508 134.3791830
 130.0832317 100.6158777 135.1300590 133.1346134 103.3406067 129.2626368
 132.4656509 103.8252195 128.7790408 132.9959003 103.5875288 130.1769747
 124.8725133  92.8760420 132.9668369 124.9109233  92.3424011 133.7605487
 124.3665426  92.3495626 132.3479346 132.2515896  87.7224961 136.4630911
 132.3157222  88.5839792 136.0508309 132.1883016  87.1098962 135.7303270
 131.7268168  89.7948093 140.1103945 132.3540207  89.4125170 140.7241470
 130.8696087  89.5762295 140.4759638 128.5033711  91.6024522 126.0422300
 128.7987152  90.6935201 125.9889354 127.6021747  91.5812262 125.7203303
 140.4119790 103.3231786 132.8472709 140.2870929 102.5221526 132.3383654
 141.0698881 103.8177980 132.3586679 132.0327958  89.6780519 132.0249849
 131.3114544  90.2916487 131.8857322 132.8221214  90.2138284 131.9466495
 142.4754698 101.1240806 134.4752259 141.5285033 101.0046158 134.4030585
 142.8237471 100.2363304 134.5578520 134.8354271  87.0134945 138.2990501
 135.3588673  87.2597242 139.0616810 134.6166605  87.8454980 137.8793638
 130.2321552  89.2838620 126.1661625 129.9034259  88.4035999 125.9836731
 130.5860923  89.2286289 127.0538015 139.4801131 100.9193523 130.6756611
 139.3326094  99.9910230 130.8564181 140.3054625 100.9413613 130.1913686
 133.3463376  89.5711590 126.5337103 133.6859448  90.0997511 125.8115711
 133.7935496  89.9091996 127.3095670 143.0835253 101.7422081 131.7621484
 144.0081801 101.5364943 131.6245935 142.9150556 101.4938483 132.6710825
 136.0406816  87.9548640 135.9840171 135.7003637  87.1556454 136.3860851
 135.3345823  88.2550351 135.4117004 136.6923288  85.0397953 134.4367494
 137.5149358  84.5658431 134.3146384 136.9361352  85.8188437 134.9366180
 135.3331523  88.0686211 124.7330396 136.0539885  88.4467464 124.2294113
 134.7096827  88.7875088 124.8365374 139.4762646  88.7731360 125.6688728
 139.6926260  89.6555998 125.3677556 138.9956713  88.3817574 124.9394370
 134.2161867  91.7317074 132.2459473 134.0706448  92.0457377 133.1383754
 133.7387071  92.3501974 131.6930371 136.0758250  88.7219622 132.2940362
 136.0619819  87.8260715 131.9572660 136.7930678  88.7290285 132.9278648
 137.9284381  89.1556962 134.3393490 137.6702158  90.0774032 134.3377820
 137.3969421  88.7587396 135.0293954 142.8730569 102.2607749 127.1183575
 143.0467447 101.6954171 126.3657428 143.3659461 103.0608644 126.9363065
 128.6907529  94.2722418 135.1847134 128.1460997  95.0482226 135.3167408
 129.5686879  94.6193222 135.0266255 135.4795146  87.6034002 127.5627932
 135.6011057  86.6750648 127.7618820 135.1897188  87.6172688 126.6506248
 138.3486336  85.2888912 130.6994652 138.3708033  85.3528245 129.7446632
 138.7654395  84.4493421 130.8935158 148.7269960  95.0244172 128.7373875
 149.1701107  94.2751497 128.3392998 147.8496471  95.0154308 128.3547607
 143.8605742 101.5774513 124.2180473 144.5556646 102.1981206 124.4367788
 144.2028892 100.7269864 124.4932851 129.4773551  93.3992314 138.0777291
 128.7355287  93.5474950 138.6641921 129.1566295  93.6600580 137.2144040
 145.7597165  99.0274219 125.7467804 146.2848489  99.3661492 125.0217124
 145.6719517  98.0921234 125.5630939 137.4437826 105.0946202 130.1063057
 137.0042816 104.6022581 130.7995914 138.1945943 104.5519170 129.8655133
 129.9230165 101.2857743 130.1087685 130.7488185 100.9861515 129.7286329
 129.5724217 100.5165365 130.5577474 134.8911698 100.6384211 132.1785359
 134.2691707  99.9754916 131.8787587 135.5616565 100.6645343 131.4959007
 128.1238770  99.2044069 131.0676619 127.2870678  98.7766244 130.8860620
 128.0962415  99.3976513 132.0047410 134.9636225  89.1165999 141.7717865
 135.0124381  89.9928122 141.3895635 135.5058740  88.5743392 141.1989508
 134.4525205  99.1888134 125.6543820 134.6013325  99.8723599 125.0010492
 135.2591648  99.1693225 126.1693275 137.1935514  89.8697372 138.5264224
 136.3238823  90.1630938 138.2546812 137.4294994  90.4537817 139.2471487
 148.2702825  96.4949410 131.1296322 149.1049717  96.9339214 131.2933883
 148.4061954  96.0188063 130.3104568 145.3194331  94.0529145 137.0773810
 145.7948453  94.2456791 136.2692662 144.3959896  94.1088331 136.8317194
 132.2077838  95.2153312 126.6604889 131.9623880  94.3115642 126.8585099
 132.3773752  95.2170463 125.7184367 139.8974548  86.0876988 136.0429644
 140.4156491  86.8238015 135.7176133 139.5429680  86.3940982 136.8776403
 131.4773485  90.9481670 124.1591050 130.7842730  91.0226025 123.5031086
 131.2325237  90.1842013 124.6812567 140.1487142  82.5077271 131.5630541
 140.4288896  81.8400460 132.1890967 140.9337749  82.7006367 131.0505205
 137.9520610 101.6836265 123.1255567 137.3794577 102.3026452 122.6726039
 138.5253404 102.2335627 123.6595489 144.0196000  90.9294905 135.3102116
 144.9713423  91.0293003 135.3314340 143.8499451  90.1373174 135.8200200
 142.0410380  88.0150488 135.4961517 141.4460312  88.2955501 134.8008005
 141.7560076  88.5044389 136.2678258 141.1717870 101.9673415 124.2564149
 142.1048543 101.9018977 124.4597025 141.0841083 102.8029682 123.7978682
 143.8005887 101.2839285 121.2168097 143.7219518 100.9499149 122.1103855
 144.6215553 101.7761053 121.2159569 146.4984078  94.1501025 134.4244415
 146.4660398  93.2117025 134.6104099 147.1084702  94.2285061 133.6910240
 138.3367409  93.0197078 120.4671620 139.2826513  92.8903286 120.5360038
 137.9581654  92.2811740 120.9441048 146.6478566  90.9412068 134.4702699
 146.1317615  90.1570525 134.2832628 147.5318515  90.6130785 134.6349218
 144.3089293  84.6853084 130.4298511 144.1114114  84.3768172 131.3141843
 144.9188999  85.4114723 130.5596441 152.3160628  95.2117032 133.5650452
 153.0464016  94.9502320 134.1258156 151.7067573  94.4745753 133.6052520
 150.3975925  93.3524894 134.1624903 149.6709088  93.2180859 133.5541395
 149.9823212  93.6601723 134.9681622 136.5210326  90.9447054 120.4026505
 135.6141781  90.6480167 120.4789218 136.7986307  90.6476872 119.5360791
 127.4388266  92.2653417 130.8525551 127.1191051  91.4118726 130.5599925
 126.8921694  92.4801996 131.6083518 131.2168174  94.9815858 134.5695058
 131.4354184  95.9132966 134.5883091 131.6293948  94.6223833 135.3549861
 138.1372392  85.4883944 126.5570746 137.3273120  85.1431029 126.9325992
 138.8256809  85.1791487 127.1458358 140.0662940  84.5661991 128.1795043
 140.6193979  84.9857444 128.8385066 140.3033026  83.6397739 128.2217999
 135.2909111  87.8033989 120.5438484 136.1528275  88.1288888 120.8034301
 135.4759455  87.0165485 120.0311550 127.3076526  95.8856329 132.8218673
 126.6139998  95.4710282 132.3088627 128.0549517  95.9276865 132.2252092
 143.4441747  86.6762516 127.6873707 142.8640416  87.3347320 127.3051759
 143.1777680  85.8539860 127.2761124 141.8945313  86.0767573 129.8895027
 142.3945092  86.1884108 129.0809346 142.5380921  85.7728626 130.5295836
 129.2213269  95.8174583 130.6984688 129.1983957  95.9162270 129.7466571
 129.5313905  96.6639734 131.0201854 131.8800647  97.8750738 134.8131302
 132.8343900  97.8434680 134.7461234 131.6813170  97.4141361 135.6281528
 132.4700029  96.4451854 137.3802100 133.2892918  96.9395932 137.4036937
 132.7436837  95.5283822 137.3519667 142.2266625  88.8362606 126.7430055
 141.3392480  89.1212257 126.5250250 142.6420614  88.6756369 125.8957332
 145.5781161  88.8609127 130.4584394 146.3541551  89.3505580 130.7309011
 144.8529295  89.2867181 130.9156264 148.0153720  89.5736746 131.5158335
 148.6098211  89.3332482 130.8051643 148.0880303  88.8543877 132.1431871
 130.2350875 103.4170357 131.8301500 130.1005343 102.6570758 131.2639498
 129.8182938 104.1411257 131.3630289 141.3709838  98.6007281 120.8378075
 142.0745689  98.8057283 121.4535731 140.6472487  99.1684043 121.1027159
 142.2007649  94.3517142 126.9580345 142.1442850  94.8085693 126.1187978
 142.7535991  93.5907827 126.7803188 146.0112455  90.1406874 127.7830465
 145.7549389  89.7403510 128.6138673 145.3865323  90.8550668 127.6580604
 150.3224793  92.8802947 130.2901756 149.7624351  92.9496136 131.0633318
 149.7168296  92.7043932 129.5701253 133.3920001 104.3139674 132.0419943
 133.2752385 105.2585107 131.9398633 132.5712448 104.0113236 132.4305742
 143.2796536  99.0389810 122.8876535 144.1142140  98.6071008 122.7054010
 143.1180879  98.8671824 123.8153430 142.9342428  95.5421923 124.2532875
 142.8791232  95.3766195 123.3121319 142.3088483  96.2497956 124.4095064
 127.7234943  90.7789988 138.0794297 128.3693807  90.2688942 138.5681522
 127.5152094  91.5158669 138.6537722 136.2438554  85.0430032 123.8318193
 136.2317223  85.9871872 123.9886464 137.1361975  84.8600178 123.5377654
 134.4174515 104.9667936 135.2575871 135.3201762 104.9991546 135.5742366
 134.1911886 104.0368387 135.2722207 136.1728117 103.7198923 131.9185950
 135.2223749 103.7200784 131.8050322 136.4760604 102.9731657 131.4021984
 140.0590673  81.6372809 128.0864130 139.2923069  81.0831296 128.2320812
 140.4701378  81.7094678 128.9478281 132.0632434  87.9257605 142.1769311
 132.9263896  87.5694410 142.3872636 131.4897845  87.5871500 142.8644715
 144.0812519 112.1182470 124.6191727 144.8543395 111.5711458 124.4804603
 144.4337918 112.9826720 124.8306188 146.4178797 108.2775137 122.2510177
 146.6704317 107.7556658 121.4893640 145.4803356 108.1141282 122.3536860
 146.1375085 110.1803243 124.4534552 146.0211343 109.5048146 125.1215636
 146.2477345 109.6935616 123.6366705 148.1212113 104.6703289 123.1542590
 148.2886516 105.5383526 123.5213061 147.9309282 104.8330571 122.2303879
 148.1001334 107.1260947 124.1389256 147.9800959 107.5717998 124.9774737
 147.4053923 107.4746265 123.5802794 153.7986400 107.5982420 124.9669590
 154.7104256 107.8309807 124.7917288 153.2896047 108.1819464 124.4044669
 146.8952831 108.4405799 126.4322822 147.5976874 108.8926843 126.8996748
 146.5633459 107.7989618 127.0602715 140.6378165 106.6989352 131.7339956
 139.8477219 106.9546880 131.2580066 141.1289412 107.5137689 131.8391996
 142.5892910 107.0633931 128.6923432 141.7924073 107.1752625 129.2106928
 142.3618502 107.4020583 127.8264323 141.5875993 112.7722180 127.0812852
 142.1000513 113.5665430 127.2318417 142.2398705 112.0748470 127.0146454
 139.5524909 111.1010834 127.8572423 140.3900131 111.5107842 127.6406131
 139.7303177 110.1610276 127.8272617 151.4489341 108.7685915 123.5456256
 150.9335965 109.5390519 123.7844643 151.1766650 108.0951051 124.1689317
 149.0336453 103.6135615 128.6041494 148.1778049 103.2242466 128.4247133
 149.4463404 103.6927576 127.7441280 146.8078485 101.2320688 132.0099236
 147.6731482 101.0363497 131.6505125 146.8755994 101.0031040 132.9368593
 151.2375645 106.6413007 125.3716037 150.9325780 106.9559156 126.2226180
 152.1906087 106.7194427 125.4143370 144.4140804 103.4622896 129.3815603
 144.9884556 103.2398078 128.6488796 145.0011787 103.5311591 130.1344204
 144.7410391 105.4927357 123.4011488 143.9047703 105.8302044 123.7220763
 144.6015161 105.3576337 122.4638625 146.7163472 100.3364145 128.1090672
 146.0627884 100.0213162 127.4847287 146.6743946  99.7139886 128.8350495
 147.8274677 110.6183440 120.0243964 146.9201738 110.3872694 120.2235113
 148.3245709 109.8221059 120.2117946 149.0062910 110.7196035 124.5467954
 148.0974129 110.4355068 124.6440424 149.0357994 111.1395114 123.6871261
 153.2826724  98.0370863 130.1401558 153.5885601  97.1768226 129.8527474
 154.0079329  98.6288483 129.9400552 139.5751081 108.4401549 128.5283156
 139.3775480 107.8470910 127.8034223 139.0197744 108.1353759 129.2459095
 148.7038998 112.2604779 121.8856033 148.2658428 111.5440638 121.4261670
 149.4449439 112.4880894 121.3241124 145.4940164 106.9501715 128.4068128
 144.6808030 107.2495886 128.8133321 145.9899158 106.5557404 129.1242611
 142.0697306 107.9665583 126.2124108 141.1394894 107.9050039 126.4294071
 142.1654778 107.4441536 125.4160750 141.9882855 104.4920396 128.8002350
 142.2489673 105.4065729 128.6911511 142.8100028 104.0244839 128.9498963
 152.8250226 111.1189160 121.4788090 152.2079396 110.3935989 121.3821143
 152.3566714 111.8798521 121.1355165 144.6148771 105.3374585 120.6009395
 143.7378238 105.2163385 120.2371641 145.0906525 104.5460663 120.3488283
 136.1350912 110.1251744 130.6950902 136.8221951 109.8113474 130.1071917
 135.9799040 111.0293109 130.4218153 151.1109348 103.4995505 130.4906121
 151.6078047 102.7465467 130.1707191 150.3396329 103.5359821 129.9249330
 147.6944316 105.6412888 130.2177805 147.3242104 105.0883928 130.9058711
 148.1903409 105.0371021 129.6652805 135.7118888 108.2052338 132.9668369
 135.7502987 107.6715928 133.7605487 135.2059181 107.6787543 132.3479346
 139.3427465 106.9316440 126.0422300 139.6380906 106.0227118 125.9889354
 138.4415501 106.9104179 125.7203303 142.8721712 105.0072437 132.0249849
 142.1508298 105.6208404 131.8857322 143.6614968 105.5430201 131.9466495
 141.0715307 104.6130538 126.1661625 140.7428013 103.7327917 125.9836731
 141.4254678 104.5578206 127.0538015 144.1857130 104.9003507 126.5337103
 144.5253203 105.4289429 125.8115711 144.6329251 105.2383914 127.3095670
 146.1725277 103.3978129 124.7330396 146.8933640 103.7759382 124.2294113
 145.5490581 104.1167006 124.8365374 150.3156400 104.1023278 125.6688728
 150.5320014 104.9847916 125.3677556 149.8350467 103.7109491 124.9394370
 146.3188900 102.9325919 127.5627932 146.4404811 102.0042566 127.7618820
 146.0290943 102.9464605 126.6506248 149.1880091 100.6180830 130.6994652
 149.2101787 100.6820163 129.7446632 149.6048150  99.7785339 130.8935158
 145.2918959 114.5180052 125.6543820 145.4407080 115.2015517 125.0010492
 146.0985403 114.4985142 126.1693275 143.0471592 110.5445230 126.6604889
 142.8017634 109.6407560 126.8585099 143.2167507 110.5462380 125.7184367
 142.3167240 106.2773587 124.1591050 141.6236485 106.3517942 123.5031086
 142.0718992 105.5133931 124.6812567 150.9880896  97.8369189 131.5630541
 151.2682650  97.1692378 132.1890967 151.7731503  98.0298284 131.0505205
 149.1761163 108.3488995 120.4671620 150.1220268 108.2195203 120.5360038
 148.7975408 107.6103657 120.9441048 147.3604080 106.2738972 120.4026505
 146.4535536 105.9772084 120.4789218 147.6380061 105.9768790 119.5360791
 138.2782021 107.5945335 130.8525551 137.9584805 106.7410643 130.5599925
 137.7315449 107.8093913 131.6083518 148.9766146 100.8175861 126.5570746
 148.1666874 100.4722946 126.9325992 149.6650563 100.5083405 127.1458358
 150.9056694  99.8953908 128.1795043 151.4587733 100.3149362 128.8385066
 151.1426781  98.9689656 128.2217999 146.1302865 103.1325907 120.5438484
 146.9922029 103.4580805 120.8034301 146.3153209 102.3457403 120.0311550
 154.2835501 102.0054433 127.6873707 153.7034171 102.6639237 127.3051759
 154.0171434 101.1831778 127.2761124 152.7339068 101.4059491 129.8895027
 153.2338846 101.5176026 129.0809346 153.3774676 101.1020544 130.5295836
 153.0660380 104.1654524 126.7430055 152.1786235 104.4504174 126.5250250
 153.4814369 104.0048287 125.8957332 152.2103593 113.9299198 120.8378075
 152.9139443 114.1349201 121.4535731 151.4866242 114.4975960 121.1027159
 153.7736183 110.8713841 124.2532875 153.7184986 110.7058112 123.3121319
 153.1482238 111.5789874 124.4095064 147.0832308 100.3721950 123.8318193
 147.0710978 101.3163790 123.9886464 147.9755730 100.1892095 123.5377654
 150.8984427  96.9664727 128.0864130 150.1316823  96.4123213 128.2320812
 151.3095132  97.0386595 128.9478281  67.6238776  -7.6531319 118.6572896
  67.8635374  -7.0212794 119.3351915  66.7807972  -8.0043279 118.9438255
  77.0859239  -2.1115826 118.4719655  77.8780531  -2.4525002 118.0565954
  77.3255889  -2.0020851 119.3921808  85.1194366   0.0603950 110.9449899
  84.4682346   0.6458030 110.5583913  85.9138729   0.5910145 111.0044937
  79.0449993  -2.8506913 111.3437034  79.8180869  -3.3977926 111.2049909
  79.3975392  -1.9862664 111.5551495  80.8835036  -1.5230531 124.5503933
  80.5924902  -0.6184900 124.4350599  81.5192020  -1.4814003 125.2648002
  80.8245701   4.9275205 114.5124694  80.7469730   5.8783030 114.5913175
  80.2207344   4.5821078 115.1699621  83.3836052  -1.3810749 123.3651254
  83.4480484  -0.9190342 124.2009425  82.6746976  -2.0113384 123.4933563
  83.0984070   0.2857358 113.2330234  82.9629744   1.1308894 113.6615082
  83.6393882   0.4876636 112.4696168  76.5513467  -2.1967204 113.8058159
  77.0637987  -1.4023954 113.9563724  77.2036180  -2.8940913 113.7391760
  78.3608352   0.9198552 115.8880912  78.5374980   1.8416517 115.7001896
  79.1565185   0.6056972 116.3175292  84.7252546   0.9080925 127.3630576
  84.2816400   0.1217303 127.0451481  85.3869759   1.0960075 126.6974467
  79.4839667   2.4376726 121.8891255  80.0347092   2.3093790 121.1168248
  78.6451143   2.7371615 121.5386147  86.8233784   1.1883725 125.3911977
  86.8052259   2.0092606 124.8992246  87.7453704   1.0637800 125.6162118
  74.5162384  -3.8678550 114.5817730  75.3537606  -3.4581541 114.3651437
  74.6940651  -4.8079107 114.5517923  85.6980230   4.3591564 109.6685957
  85.0241929   4.6623261 110.2770915  86.0846052   5.1620644 109.3191414
  87.6452591   1.1989738 115.9754247  87.9375565   1.7594795 115.2566612
  88.1551212   1.4918299 116.7307406  82.6086216   1.9770089 117.0647700
  82.5662395   2.2030935 116.1356232  83.5248915   1.7433463 117.2133501
  80.7252017  -1.1466882 116.8609662  81.5192616  -1.6416562 116.6592237
  80.0143709  -1.6749019 116.4977368  85.5446862   1.2351213 121.2122030
  85.5983884   1.8042150 121.9799746  84.6761643   1.4053098 120.8476067
  83.3023293  -0.5737860 120.5407500  83.1634379  -0.9419076 121.4133438
  82.5137889  -0.0590221 120.3691457  83.8971445   4.5271236 111.8833036
  84.0723201   4.0559280 112.6978659  83.2104233   5.1537003 112.1114297
  89.4441832   0.8598685 125.8639177  89.3854378   0.1757905 125.1969760
  89.8461350   1.6017675 125.4119803  78.4632530   7.6760599 118.6572896
  78.7029129   8.3079123 119.3351915  77.6201727   7.3248639 118.9438255
  71.0988386  -4.8437639 117.4196208  71.7859426  -5.1575909 116.8317224
  70.9436515  -3.9396274 117.1463460  82.9760392   3.4839722 121.0614400
  82.9030564   4.2894693 121.5733705  82.5337785   3.6831687 120.2362422
  82.7650172   2.7211492 114.5717222  81.9817694   3.2633172 114.6655446
  83.4642917   3.2385471 114.9711463  85.4359076   3.3826556 123.2172559
  86.1487048   4.0174020 123.1448460  84.9449104   3.4790422 122.4012561
  80.4870989   1.1320999 124.0378130  81.1880449   1.7657482 124.1907524
  80.0166104   1.4735731 123.2773769  85.2479449   3.7225300 115.9658850
  85.4301844   2.9046956 116.4286603  86.0712435   3.9392992 115.5283740
  85.5821615   2.6493485 113.2273899  86.1109381   2.1385939 112.6144061
  85.8449834   2.3336015 114.0919432  76.0838707   0.6657354 120.9709232
  76.6692144  -0.0798958 121.1037137  75.8863546   0.9761311 121.8545896
  78.9377363   3.7008602 115.9871675  78.2687738   4.1854729 115.5035715
  78.7990232   3.9477822 116.9015053  83.0782631   5.7352345 122.5854333
  83.6300939   5.8983967 123.3503418  83.4188825   6.3256783 121.9134358
  87.9293505   0.5613603 128.4402988  88.4733409   1.1743561 127.9457942
  87.3480350   1.1193181 128.9570001  86.2151018   3.6834321 119.5718015
  86.0902158   2.8824060 119.0628961  86.8730109   4.1780514 119.0831985
  88.2785927   1.4843341 121.1997565  87.3316262   1.3648692 121.1275892
  88.6268700   0.5965839 121.2823827  85.2832360   1.2796057 117.4001918
  85.1357322   0.3512764 117.5809488  86.1085854   1.3016148 116.9158993
  88.8866482   2.1024616 118.4866790  89.8113029   1.8967477 118.3491241
  88.7181785   1.8541017 119.3956132  88.6761798   2.6210283 113.8428882
  88.8498676   2.0556706 113.0902734  89.1690689   3.4211178 113.6608372
  89.6636971   1.9377047 110.9425780  90.3587875   2.5583740 111.1613095
  90.0060121   1.0872399 111.2178158  83.2248442   3.3010827 124.6002987
  83.5335569   3.0559973 125.4725687  84.0223924   3.5057465 124.1121858
  83.2469054   5.4548736 116.8308364  82.8074045   4.9625115 117.5241221
  83.9977171   4.9121704 116.5900439  75.7261393   1.6460277 116.8332992
  76.5519413   1.3464049 116.4531636  75.3755445   0.8767900 117.2822781
  80.6942927   0.9986745 118.9030666  80.0722936   0.3357450 118.6032894
  81.3647794   1.0247877 118.2204313  73.9269998  -0.4353396 117.7921926
  73.0901907  -0.8631222 117.6105927  73.8993644  -0.2420953 118.7292717
  80.2556434  -0.4509331 112.3789126  80.4044554   0.2326133 111.7255799
  81.0622877  -0.4704241 112.8938582  83.7551839   2.0438799 109.8500874
  83.1825806   2.6628986 109.3971346  84.3284633   2.5938161 110.3840796
  86.9749099   2.3275949 110.9809456  87.9079772   2.2621511 111.1842331
  86.8872312   3.1632216 110.5223989  89.6037116   1.6441820 107.9413404
  89.5250747   1.3101683 108.8349161  90.4246782   2.1363588 107.9404876
  73.1107755  -3.7541137 119.5463979  72.4171227  -4.1687184 119.0333934
  73.8580746  -3.7120600 118.9497398  75.0244498  -3.8222883 117.4229994
  75.0015186  -3.7235196 116.4711877  75.3345134  -2.9757732 117.7447160
  77.6831875  -1.7646728 121.5376609  78.6375129  -1.7962786 121.4706540
  77.4844399  -2.2256104 122.3526835  76.0382104   3.7772891 118.5546807
  75.9036572   3.0173292 117.9884805  75.6214167   4.5013791 118.0875595
  79.1951230   4.6742208 118.7665249  79.0783614   5.6187641 118.6643939
  78.3743676   4.3715770 119.1551048  80.2205744   5.3270470 121.9821178
  81.1232991   5.3594081 122.2987673  79.9943114   4.3970921 121.9967513
  81.9759346   4.0801457 118.6431256  81.0254977   4.0803319 118.5295629
  82.2791832   3.3334191 118.1267291  97.7112040   9.9161995 119.7077019
  98.3490450   9.7968743 119.0040359  97.5932883  10.8642839 119.7664971
  94.5201746   9.8689423 119.6438543  94.1820258   9.7530488 118.7559078
  95.3891514   9.4680589 119.6239549  90.3788562  11.7224900 115.6335434
  89.8153427  11.6314837 114.8651722  90.2640957  10.9024804 116.1137927
  95.0021529  11.0224275 125.6024749  94.9910170  10.6277073 124.7305253
  95.1642169  10.2890348 126.1958520  87.9252994  13.2176091 118.4719655
  88.7174286  12.8766916 118.0565954  88.1649644  13.3271066 119.3921808
  95.9588120  15.3895868 110.9449899  95.3076100  15.9749948 110.5583913
  96.7532483  15.9202062 111.0044937  89.8843748  12.4785005 111.3437034
  90.6574624  11.9313992 111.2049909  90.2369147  13.3429254 111.5551495
  91.7228790  13.8061387 124.5503933  91.4318656  14.7107018 124.4350599
  92.3585775  13.8477915 125.2648002  92.6484997  11.1838235 121.1405292
  93.2448569  10.9594258 120.4262255  92.7059969  10.4422981 121.7430740
  92.2210025   8.6377671 108.9755483  92.4735546   8.1159192 108.2138946
  91.2834585   8.4743816 109.0782167  97.2653308   7.6413449 116.7830227
  98.0516398   7.2232872 116.4320644  97.5292013   8.5459541 116.9511875
  97.4363386  13.0786299 111.4818883  96.8009219  13.1520926 112.1939788
  97.1060792  13.6679898 110.8037963 102.6661735   7.5788682 117.6863205
 103.3986907   7.0087899 117.9201035 101.9101091   7.1910283 118.1269711
  91.9406314  10.5405777 111.1779858  91.8242572   9.8650680 111.8460943
  92.0508574  10.0538151 110.3612011  94.2837855  10.0015924 114.8826548
  93.9196062   9.4746545 115.5939469  95.1404971   9.6114393 114.7093033
  93.9243342   5.0305824 109.8787896  94.0917744   5.8986060 110.2458367
  93.7340511   5.1933105 108.9549185  96.6818675  13.4922802 121.5453727
  96.3819398  14.3947841 121.4369534  96.3369735  13.2254986 122.3974879
  90.1331157   9.9436599 117.5790431  89.2081653   9.8112813 117.7868123
  90.3815570  10.7230819 118.0760373 100.0815819   6.0105343 119.2251164
  99.1732696   5.9420751 118.9309925 100.0303415   6.4877288 120.0532989
  93.9032563   7.4863481 110.8634563  93.7832188   7.9320532 111.7020043
  93.2085151   7.8348799 110.3048101  87.4939968   9.5869873 118.4134220
  87.6232349   9.8404352 119.3273632  86.8137419  10.1797581 118.0938875
  91.6639455  20.2567123 114.5124694  91.5863485  21.2074948 114.5913175
  91.0601099  19.9112995 115.1699621  94.1556685   7.4294988 127.1686061
  93.3790019   7.9888908 127.1588926  94.7947248   7.9151771 127.6900931
  99.6017629   7.9584954 111.6914897 100.5135485   8.1912341 111.5162595
  99.0927276   8.5421998 111.1289976  92.4103057  10.2380442 126.7304028
  93.1517742  10.7765486 126.4538852  91.7040043  10.8646730 126.8875580
  97.8858397  12.3809582 125.3276190  98.2941753  11.9391993 124.5830822
  97.1635658  11.8062210 125.5810382  94.2389467   7.3182189 122.7009747
  95.0850662   7.7421602 122.8444396  94.1788105   6.6615813 123.3948310
  98.2087211  12.9410773 119.0828478  97.5796074  13.1056487 118.3804546
  97.8212874  13.3552382 119.8539443 102.0876443  13.8765211 116.4372842
 101.4027481  14.2564112 115.8869876 102.1720293  14.4860537 117.1704790
  97.3888912   4.9786557 124.3590920  97.1449844   5.7328618 123.8225196
  97.6648843   5.3571905 125.1938167  99.3427375  11.5225170 123.0368186
  99.5544270  12.1656929 122.3602567  99.2957123  10.6887486 122.5690116
  96.9453604   4.1342990 119.9404758  96.0838083   4.4324244 120.2321495
  96.9716039   4.3513389 119.0085791  93.7615173  12.6785181 116.3478564
  94.2253519  12.9572884 115.5583186  93.4971971  11.7768625 116.1651654
  90.6539254  12.2256662 119.2858327  91.2240611  12.6543931 118.6475811
  91.2447366  11.9439247 119.9842513  92.6984059   8.8008333 113.1568129
  93.4008103   9.2529377 113.6242055  92.3664688   8.1592152 113.7848022
  91.1464421   7.3920090 127.5319338  90.5163081   8.0736371 127.7654735
  91.0400509   7.2803171 126.5872476  86.4409393   7.0591886 118.4585262
  85.6508447   7.3149414 117.9825373  86.9320641   7.8740224 118.5637303
 100.4573203  14.3997125 121.2090543 101.2790647  13.9977312 120.9273225
 100.4535606  14.2965359 122.1606659  88.3924139   7.4236465 115.4168739
  87.5955302   7.5355159 115.9352235  88.1649731   7.7623117 114.5509630
  94.2229806  13.9481168 123.3651254  94.2874239  14.4101576 124.2009425
  93.5140730  13.3178533 123.4933563  84.7247096   7.3122376 120.8900253
  84.9755135   8.1969386 121.1557829  85.2606645   7.1326978 120.1175345
 108.5479196  10.7435873 117.5575515 107.7942904  10.1743272 117.4019519
 108.6826737  10.7098538 118.5046149  93.9377824  15.6149276 113.2330234
  93.8023499  16.4600811 113.6615082  94.4787637  15.8168553 112.4696168
  90.4245164   1.6940856 129.8944589  90.0312109   1.1407054 130.5692233
  91.2411304   2.0051434 130.2851107  87.3907221  13.1324714 113.8058159
  87.9031742  13.9267964 113.9563724  88.0429934  12.4351004 113.7391760
  89.2002106  16.2490470 115.8880912  89.3768734  17.1708435 115.7001896
  89.9958940  15.9348889 116.3175292  93.3413125   3.1098735 127.4864846
  94.0822838   3.7105888 127.4069308  93.5731047   2.3676372 126.9282888
  88.4854463   8.2955102 125.7643075  88.3707978   7.3940359 126.0650174
  87.6298980   8.5418799 125.4127892  95.5646300  16.2372842 127.3630576
  95.1210155  15.4509221 127.0451481  96.2263514  16.4251993 126.6974467
  90.3233422  17.7668644 121.8891255  90.8740847  17.6385707 121.1168248
  89.4844897  18.0663533 121.5386147  97.6627538  16.5175642 125.3911977
  97.6446014  17.3384523 124.8992246  98.5847458  16.3929717 125.6162118
  94.1200593  14.0319772 126.2335486  94.6528929  13.2708060 126.0034794
  93.5914674  13.7393424 126.9759640  85.3556138  11.4613368 114.5817730
  86.1931360  11.8710376 114.3651437  85.5334406  10.5212810 114.5517923
  97.2520570   9.1288449 110.2701563  96.7367194   9.8993053 110.5089950
  96.9797879   8.4553585 110.8934624  94.8367681   3.9738150 115.3286801
  93.9809278   3.5845000 115.1492440  95.2494633   4.0530110 114.4686586
  92.6109714   1.5923223 118.7344542  93.4762711   1.3966031 118.3750432
  92.6787223   1.3633574 119.6613899 102.2254844  11.8820803 112.2054736
 101.4484287  11.5431963 111.7609898 102.9046325  11.8873427 111.5309701
  97.0406873   7.0015541 112.0961344  96.7357009   7.3161690 112.9471487
  97.9937316   7.0796961 112.1388677  95.4853305  13.1605764 113.7454298
  94.9574667  12.4258524 113.4327535  94.9840808  13.9380441 113.4994266
 100.4646151  11.3554785 118.8621344  99.8069826  12.0454046 118.9501473
 101.2686551  11.7451217 119.2055330  90.2172033   3.8225430 116.1060909
  90.7915785   3.6000612 115.3734102  90.8043015   3.8914125 116.8589510
  99.2751610   9.7099157 116.9125286  99.7883492  10.3429149 117.4146995
  99.9252834   9.1100353 116.5468646  90.5441620   5.8529891 110.1256794
  89.7078932   6.1904578 110.4466069  90.4046390   5.7178871 109.1883931
  93.6305905  10.9785974 106.7489271  92.7232967  10.7475228 106.9480420
  94.1276937  10.1823594 106.9363252  96.5373984  19.6883482 109.6685957
  95.8635683  19.9915178 110.2770915  96.9239806  20.4912562 109.3191414
  95.7532441   7.1848613 119.1583626  94.8355002   7.4063560 119.0005314
  96.1692585   7.2594923 118.2995334  96.5367489   8.5840029 114.2886307
  97.2839308   9.0961426 113.9793429  96.8059078   8.2624081 115.1490700
  94.8094139  11.0798569 111.2713261  93.9005358  10.7957602 111.3685731
  94.8389223  11.4997648 110.4116568 100.0413406  14.6905159 115.0404428
  99.5875733  13.8496069 115.0969619  99.4107373  15.3266557 115.3779209
  98.9846326   5.6197145 116.2705096  98.2469083   5.1074531 116.6015338
  99.2373099   5.1797526 115.4588373  98.4846346  16.5281655 115.9754247
  98.7769320  17.0886713 115.2566612  98.9944966  16.8210216 116.7307406
  85.3782309   8.8004083 115.2528463  85.1806709   8.2073444 114.5279530
  84.8228973   8.4956294 115.9704402  93.3579033   8.6927190 117.3723056
  93.4127643   7.7401026 117.2965533  92.5470235   8.8486629 117.8564355
  94.5070227  12.6207313 108.6101339  94.0689657  11.9043172 108.1506977
  95.2480668  12.8483428 108.0486431  91.2971393   7.3104250 115.1313435
  90.4839258   7.6098420 115.5378627  91.7930387   6.9159938 115.8487917
  93.4479971  17.3062007 117.0647700  93.4056150  17.5322853 116.1356232
  94.3642670  17.0725381 117.2133501  96.8945605   7.7746074 123.9628329
  97.2494992   8.0017547 124.8222795  97.5417736   8.1064451 123.3405584
 102.6243342  10.8964510 114.6677658 102.4861240  11.0866106 113.7398847
 102.2679560  11.6583893 115.1245709  90.7885468   4.8822605 120.7474670
  91.4284847   4.7411364 120.0497633  89.9562998   4.5957119 120.3713272
 102.6512721  12.9641037 119.6788929 103.0849228  12.8716326 120.5271983
 103.3644302  12.9398537 119.0408945  91.5645772  14.1825036 116.8609662
  92.3586370  13.6875356 116.6592237  90.8537464  13.6542899 116.4977368
  96.3840616  16.5643131 121.2122030  96.4377638  17.1334067 121.9799746
  95.5155397  16.7345016 120.8476067  87.8728535   8.3268117 112.9369415
  86.9426123   8.2652573 113.1539377  87.9686007   7.8044070 112.1406056
  87.7914084   4.8522930 115.5247657  88.0520901   5.7668263 115.4156817
  88.6131256   4.3847373 115.6744270  89.2639009   6.2660687 122.6946481
  89.9362063   6.0578049 122.0459130  88.4368796   6.0682773 122.2551714
 103.5128271  13.0064738 122.2121815 103.7064161  13.9110548 122.4581090
 103.4128889  12.5472157 123.0460400  95.1664581   2.8922628 124.7112142
  94.5192496   3.5912578 124.6176619  95.9365597   3.3258772 125.0788390
  98.5743379  13.1571480 127.7862695  98.4228886  12.9282032 126.8692779
  98.5648059  14.1142082 127.7994040  95.3428716  10.7303393 122.7708962
  96.2720776  10.8814553 122.5977929  94.9219746  10.8187414 121.9157608
  94.1417048  14.7554058 120.5407500  94.0028133  14.3872842 121.4133438
  93.3531644  15.2701697 120.3691457  94.7365200  19.8563154 111.8833036
  94.9116955  19.3851197 112.6978659  94.0497988  20.4828920 112.1114297
  95.6922263  14.1335660 117.9296337  95.3572095  14.0936430 118.8253987
  95.1926208  13.4680376 117.4566748  89.6666507   9.5403290 123.4548918
  89.5286305   8.8083529 124.0560458  90.5771430   9.4512190 123.1733106
  98.6281454  11.4791695 108.2033397  98.0110625  10.7538523 108.1066450
  98.1597943  12.2401055 107.8600471  92.2948807   9.2523250 122.9432598
  93.0048426   8.6116442 122.9019217  92.2518115   9.5036144 123.8658779
 100.2835586  16.1890603 125.8639177 100.2248132  15.5049823 125.1969760
 100.6855104  16.9309593 125.4119803  91.0077741   6.2388468 124.7628238
  90.4715098   5.7879206 125.4149834  90.4194450   6.3734376 124.0198702
  89.3026285  23.0052517 118.6572896  89.5422883  23.6371041 119.3351915
  88.4595481  22.6540557 118.9438255  90.4180000   5.6977119 107.3254701
  89.5409467   5.5765920 106.9616948  90.8937753   4.9063197 107.0733590
 100.2852993  14.1530187 124.0953157  99.3979772  13.8156109 124.2179556
 100.8551544  13.4213218 124.3321922  81.9382140  10.4854279 117.4196208
  82.6253180  10.1716009 116.8317224  81.7830269  11.3895643 117.1463460
  86.7416863   5.3744475 121.8481232  86.6575051   4.7670145 121.1131642
  85.9199569   5.8653494 121.8490728  93.8154147  18.8131639 121.0614400
  93.7424318  19.6186611 121.5733705  93.3731540  19.0123605 120.2362422
  93.6043926  18.0503409 114.5717222  92.8211448  18.5925089 114.6655446
  94.3036671  18.5677389 114.9711463  96.9140576   3.8598039 117.2151427
  97.4109276   3.1068001 116.8952497  96.1427558   3.8962355 116.6494636
 104.7670334   9.5638404 118.8569719 104.7560210  10.4463120 118.4863652
 103.8987713   9.2109955 118.6624256  96.2752830  18.7118473 123.2172559
  96.9880802  19.3465938 123.1448460  95.7842859  18.8082339 122.4012561
  97.9970357  12.6169726 114.7889851  97.0626636  12.7371188 114.6194555
  98.1747026  11.7142193 114.5249860  93.4975545   6.0015422 116.9423112
  93.1273333   5.4486462 117.6304017  93.9934638   5.3973555 116.3898112
 101.3842908   8.4587045 115.3239885 101.8503361   9.2915037 115.2500187
 101.8350409   7.9932027 116.0285143  91.3264744  16.4612917 124.0378130
  92.0274203  17.0949400 124.1907524  90.8559859  16.8027648 123.2773769
  99.4519140  14.8030867 112.3226037  99.7278983  14.6887461 113.2319911
  98.5823638  14.4048351 112.2838210  99.1266030   9.0157524 121.8630680
  98.4737480   9.2633432 121.2083133  99.5046410   8.2021662 121.5293157
  96.0873204  19.0517217 115.9658850  96.2695598  18.2338873 116.4286603
  96.9106190  19.2684910 115.5283740  96.4215369  17.9785403 113.2273899
  96.9503135  17.4677857 112.6144061  96.6843589  17.6627933 114.0919432
  95.1753603   9.7577335 128.3496717  94.4994240   9.6571465 129.0199092
  95.9981237   9.6016549 128.8132714  86.9232462  15.9949272 120.9709232
  87.5085899  15.2492960 121.1037137  86.7257300  16.3053229 121.8545896
  89.7771117  19.0300519 115.9871675  89.1081492  19.5146647 115.5035715
  89.6383987  19.2769740 116.9015053  81.5150117   8.5654872 119.6913676
  81.5534216   8.0318463 120.4850794  81.0090409   8.0390078 119.0724653
  93.9176386  21.0644263 122.5854333  94.4694694  21.2275884 123.3503418
  94.2582579  21.6548701 121.9134358  88.8940879   3.4119413 123.1876218
  88.9582205   4.2734243 122.7753616  88.8307999   2.7993414 122.4548576
  88.3693151   5.4842545 126.8349252  88.9965190   5.1019622 127.4486776
  87.5121070   5.2656747 127.2004945  98.7687260  15.8905520 128.4402988
  99.3127164  16.5035478 127.9457942  98.1874105  16.4485099 128.9570001
  85.1458694   7.2918974 112.7667607  85.4412135   6.3829653 112.7134661
  84.2446730   7.2706714 112.4448609  97.0544773  19.0126238 119.5718015
  96.9295912  18.2115978 119.0628961  97.7123864  19.5072432 119.0831985
  88.6752941   5.3674971 118.7495156  87.9539527   5.9810938 118.6102629
  89.4646197   5.9032736 118.6711801  99.1179681  16.8135258 121.1997565
  98.1710017  16.6940610 121.1275892  99.4662454  15.9257756 121.2823827
  91.4779255   2.7029397 125.0235807  92.0013656   2.9491694 125.7862117
  91.2591588   3.5349432 124.6038945  86.8746536   4.9733072 112.8906932
  86.5459242   4.0930451 112.7082038  87.2285906   4.9180741 113.7783321
  96.1226115  16.6087975 117.4001918  95.9751077  15.6804682 117.5809488
  96.9479608  16.6308065 116.9158993  89.9888359   5.2606042 113.2582410
  90.3284431   5.7891963 112.5361018  90.4360479   5.5986448 114.0340976
  99.7260236  17.4316533 118.4866790 100.6506784  17.2259395 118.3491241
  99.5575540  17.1832934 119.3956132  92.6831800   3.6443092 122.7085478
  92.3428620   2.8450905 123.1106158  91.9770806   3.9444803 122.1362311
  91.9756506   3.7580663 111.4575702  92.6964868   4.1361916 110.9539419
  91.3521810   4.4769540 111.5610680  96.1187629   4.4625812 112.3934035
  96.3351243   5.3450450 112.0922863  95.6381696   4.0712026 111.6639677
  90.8586850   7.4211525 118.9704779  90.7131431   7.7351828 119.8629061
  90.3812054   8.0396426 118.4175678  92.7183233   4.4114073 119.0185669
  92.7044802   3.5155167 118.6817967  93.4355661   4.4184737 119.6523955
  94.5709364   4.8451414 121.0638796  94.3127142   5.7668484 121.0623127
  94.0394404   4.4481848 121.7539261  99.5155553  17.9502201 113.8428882
  99.6892430  17.3848623 113.0902734 100.0084444  18.7503096 113.6608372
  85.3332512   9.9616870 121.9092441  84.7885980  10.7376678 122.0412715
  86.2111862  10.3087674 121.7511562  92.1220129   3.2928454 114.2873239
  92.2436040   2.3645100 114.4864127  91.8322171   3.3067140 113.3751555
 105.3694944  10.7138624 115.4619182 105.8126090   9.9645949 115.0638305
 104.4921454  10.7048760 115.0792914 100.5030725  17.2668965 110.9425780
 101.1981630  17.8875658 111.1613095 100.8453875  16.4164316 111.2178158
  86.1198534   9.0886766 124.8022597  85.3780270   9.2369401 125.3887228
  85.7991279   9.3495032 123.9389347 102.4022148  14.7168671 112.4713111
 102.9273472  15.0555943 111.7462431 102.3144501  13.7815686 112.2876245
  94.0642197  18.6302744 124.6002987  94.3729323  18.3851891 125.4725687
  94.8617679  18.8349383 124.1121858  94.0862809  20.7840654 116.8308364
  93.6467799  20.2917033 117.5241221  94.8370926  20.2413622 116.5900439
  86.5655148  16.9752195 116.8332992  87.3913168  16.6755967 116.4531636
  86.2149200  16.2059817 117.2822781  91.5336681  16.3278663 118.9030666
  90.9116690  15.6649368 118.6032894  92.2041548  16.3539795 118.2204313
  84.7663753  14.8938521 117.7921926  83.9295661  14.4660696 117.6105927
  84.7387398  15.0870965 118.7292717  91.6061209   4.8060451 128.4963172
  91.6549364   5.6822574 128.1140941  92.1483723   4.2637844 127.9234815
 102.0916054  15.3501574 127.7764309 101.3011598  15.3325713 127.2368808
 101.8549409  15.8889868 128.5313345 102.2113929  12.1994041 125.0897037
 102.2611934  12.0344048 126.0312560 102.1027853  11.3321300 124.6994918
  91.0950188  14.8782586 112.3789126  91.2438308  15.5618051 111.7255799
  91.9016631  14.8587676 112.8938582  99.5017692   8.1824969 126.4056344
 100.4027554   8.0431434 126.1140342  99.5765666   8.3479424 127.3454521
  93.8360497   5.5591823 125.2509530  92.9663806   5.8525389 124.9792119
  94.0719977   6.1432268 125.9716794 103.7132126  14.6190982 125.3339059
 103.4216934  14.9820963 126.1702520 103.1004257  13.9057990 125.1552391
 104.9127808  12.1843862 117.8541629 105.7474700  12.6233666 118.0179189
 105.0486937  11.7082515 117.0349875 101.9619314   9.7423597 123.8019117
 102.4373436   9.9351243 122.9937968 101.0384880   9.7982783 123.5562501
  88.8502821  10.9047764 113.3850195  88.6048863  10.0010094 113.5830405
  89.0198736  10.9064914 112.4429673  88.1198469   6.6376122 110.8836357
  87.4267713   6.7120477 110.2276393  87.8750220   5.8736465 111.4057874
  94.5945594  17.3730717 109.8500874  94.0219561  17.9920904 109.3971346
  95.1678387  17.9230078 110.3840796 100.6620983   6.6189357 122.0347422
 101.6138406   6.7187455 122.0559647 100.4924434   5.8267625 122.5445507
  98.6835363   3.7044940 122.2206823  98.0885295   3.9849953 121.5253312
  98.3985060   4.1938841 122.9923564  97.8142853  17.6567867 110.9809456
  98.7473526  17.5913429 111.1842331  97.7266066  18.4924134 110.5223989
 100.4430870  16.9733737 107.9413404 100.3644502  16.6393601 108.8349161
 101.2640537  17.4655505 107.9404876 103.1409061   9.8395477 121.1489722
 103.1085381   8.9011477 121.3349406 103.7509685   9.9179513 120.4155547
  94.9792392   8.7091530 107.1916926  95.9251497   8.5797738 107.2605344
  94.6006637   7.9706191 107.6686354 103.2903550   6.6306520 121.1948005
 102.7742598   5.8464977 121.0077934 104.1743498   6.3025237 121.3594525
 108.9585611  10.9011483 120.2895759 109.6889000  10.6396772 120.8503462
 108.3492557  10.1640205 120.3297827 107.0400908   9.0419346 120.8870210
 106.3134072   8.9075311 120.2786702 106.6248195   9.3496175 121.6926928
  94.8631085  12.7609276 128.6517583  95.7834094  12.9387875 128.8457630
  94.8280668  11.8165321 128.4997282  93.1635309   6.6341506 107.1271811
  92.2566765   6.3374619 107.2034525  93.4411290   6.3371324 106.2606098
  84.0813250   7.9547869 117.5770858  83.7616034   7.1013178 117.2845232
  83.5346678   8.1696447 118.3328825  87.8593157  10.6710310 121.2940364
  88.0779167  11.6027418 121.3128398  88.2718931  10.3118285 122.0795168
  92.7321022   6.2443516 130.6843113  92.6317749   7.1937873 130.6155204
  92.5142564   5.9161755 129.8119183  91.9334094   3.4928441 107.2683791
  92.7953258   3.8183339 107.5279608  92.1184438   2.7059937 106.7556856
  83.9501510  11.5750781 119.5463979  83.2564981  11.1604734 119.0333934
  84.6974501  11.6171317 118.9497398  92.5952292   9.6740655 129.5008175
  92.1119374  10.4741015 129.7072064  92.6813232   9.6848600 128.5475619
  85.8638252  11.5069035 117.4229994  85.8408940  11.6056722 116.4711877
  86.1738889  12.3534185 117.7447160  88.5225630  13.5645190 121.5376609
  89.4768884  13.5329132 121.4706540  88.3238154  13.1035813 122.3526835
  89.1125012  12.1346306 124.1047406  89.9317901  12.6290384 124.1282244
  89.3861820  11.2178274 124.0764974  98.8691608   4.5257058 113.4675362
  97.9817463   4.8106709 113.2495557  99.2845597   4.3650821 112.6202639
 102.2206144   4.5503579 117.1829701 102.9966535   5.0400031 117.4554318
 101.4954279   4.9761633 117.6401571  86.8775859  19.1064809 118.5546807
  86.7430327  18.3465210 117.9884805  86.4607921  19.8305709 118.0875595
  98.0134822  14.2901733 107.5623382  98.7170672  14.4951735 108.1781037
  97.2897471  14.8578495 107.8272465  98.8432632  10.0411594 113.6825652
  98.7867833  10.4980145 112.8433284  99.3960975   9.2802279 113.5048495
 102.6537438   5.8301326 114.5075771 102.3974372   5.4297961 115.3383979
 102.0290306   6.5445120 114.3825911 106.9649776   8.5697399 117.0147063
 106.4049334   8.6390588 117.7878625 106.3593279   8.3938384 116.2946559
  90.0344985  20.0034126 118.7665249  89.9177369  20.9479559 118.6643939
  89.2137431  19.7007688 119.1551048  99.9221519  14.7284262 109.6121842
 100.7567123  14.2965460 109.4299317  99.7605862  14.5566276 110.5398736
  99.5767411  11.2316375 110.9778181  99.5216215  11.0660647 110.0366625
  98.9513467  11.9392408 111.1340371  84.3659926   6.4684440 124.8039603
  85.0118790   5.9583394 125.2926829  84.1577077   7.2053121 125.3783029
  96.8913319  13.5365287 130.3031744  97.7604478  13.7105939 129.9418379
  96.4120070  14.3559704 130.1807473  91.0599499  20.6562388 121.9821178
  91.9626745  20.6885998 122.2987673  90.8336869  19.7262839 121.9967513
  92.8153101  19.4093375 118.6431256  91.8648732  19.4095236 118.5295629
  93.1185587  18.6626109 118.1267291  88.7057417   3.6152057 128.9014618
  89.5688879   3.2588861 129.1117942  88.1322828   3.2765951 129.5890022
 108.5505794  25.2453913 119.7077019 109.1884204  25.1260660 119.0040359
 108.4326637  26.1934757 119.7664971 105.3595501  25.1981341 119.6438543
 105.0214012  25.0822406 118.7559078 106.2285269  24.7972506 119.6239549
 101.2182316  27.0516818 115.6335434 100.6547181  26.9606754 114.8651722
 101.1034711  26.2316722 116.1137927 105.8415284  26.3516193 125.6024749
 105.8303924  25.9568991 124.7305253 106.0035923  25.6182265 126.1958520
  98.7646748  28.5468009 118.4719655  99.5568040  28.2058834 118.0565954
  99.0043398  28.6562984 119.3921808 106.7981875  30.7187785 110.9449899
 106.1469855  31.3041866 110.5583913 107.5926238  31.2493980 111.0044937
 100.7237502  27.8076922 111.3437034 101.4968378  27.2605909 111.2049909
 101.0762901  28.6721172 111.5551495 102.5622545  29.1353305 124.5503933
 102.2712411  30.0398935 124.4350599 103.1979529  29.1769832 125.2648002
 103.4878752  26.5130153 121.1405292 104.0842324  26.2886176 120.4262255
 103.5453723  25.7714899 121.7430740 103.0603780  23.9669588 108.9755483
 103.3129301  23.4451110 108.2138946 102.1228339  23.8035734 109.0782167
 108.1047063  22.9705367 116.7830227 108.8910152  22.5524790 116.4320644
 108.3685767  23.8751459 116.9511875 108.2757140  28.4078217 111.4818883
 107.6402973  28.4812844 112.1939788 107.9454547  28.9971816 110.8037963
 113.5055490  22.9080600 117.6863205 114.2380662  22.3379817 117.9201035
 112.7494846  22.5202200 118.1269711 102.7800069  25.8697694 111.1779858
 102.6636327  25.1942598 111.8460943 102.8902329  25.3830068 110.3612011
 105.1231610  25.3307842 114.8826548 104.7589817  24.8038463 115.5939469
 105.9798726  24.9406311 114.7093033 111.0280910  16.6202174 122.1457814
 110.6964235  17.4897585 121.9219029 110.4326524  16.3038458 122.8251844
 104.7637097  20.3597741 109.8787896 104.9311499  21.2277978 110.2458367
 104.5734266  20.5225023 108.9549185 107.5212430  28.8214720 121.5453727
 107.2213153  29.7239759 121.4369534 107.1763489  28.5546903 122.3974879
 100.9724911  25.2728517 117.5790431 100.0475408  25.1404731 117.7868123
 101.2209324  26.0522736 118.0760373 110.9209574  21.3397260 119.2251164
 110.0126451  21.2712669 118.9309925 110.8697169  21.8169205 120.0532989
 104.7426317  22.8155399 110.8634563 104.6225943  23.2612449 111.7020043
 104.0478906  23.1640716 110.3048101  98.3333722  24.9161791 118.4134220
  98.4626103  25.1696269 119.3273632  97.6531174  25.5089499 118.0938875
 102.5033210  35.5859040 114.5124694 102.4257239  36.5366866 114.5913175
 101.8994853  35.2404913 115.1699621 104.9950439  22.7586906 127.1686061
 104.2183773  23.3180826 127.1588926 105.6341002  23.2443689 127.6900931
 112.7871220  19.5413699 121.0029038 112.1445600  19.8346232 120.3568832
 112.2826148  19.4266619 121.8082234 110.4411384  23.2876872 111.6914897
 111.3529240  23.5204259 111.5162595 109.9321031  23.8713916 111.1289976
 103.2496812  25.5672359 126.7304028 103.9911496  26.1057403 126.4538852
 102.5433797  26.1938648 126.8875580 108.7252151  27.7101500 125.3276190
 109.1335507  27.2683910 124.5830822 108.0029413  27.1354127 125.5810382
 105.0783221  22.6474107 122.7009747 105.9244417  23.0713520 122.8444396
 105.0181859  21.9907731 123.3948310 109.0480966  28.2702690 119.0828478
 108.4189828  28.4348404 118.3804546 108.6606628  28.6844300 119.8539443
 112.9270198  29.2057128 116.4372842 112.2421236  29.5856030 115.8869876
 113.0114047  29.8152455 117.1704790 108.2282667  20.3078475 124.3590920
 107.9843599  21.0620535 123.8225196 108.5042597  20.6863822 125.1938167
 110.1821129  26.8517087 123.0368186 110.3938025  27.4948847 122.3602567
 110.1350878  26.0179404 122.5690116 107.7847358  19.4634908 119.9404758
 106.9231837  19.7616161 120.2321495 107.8109793  19.6805307 119.0085791
 104.6008928  28.0077098 116.3478564 105.0647273  28.2864801 115.5583186
 104.3365726  27.1060543 116.1651654 101.4933009  27.5548580 119.2858327
 102.0634366  27.9835848 118.6475811 102.0841121  27.2731165 119.9842513
 103.5377814  24.1300251 113.1568129 104.2401857  24.5821294 113.6242055
 103.2058442  23.4884070 113.7848022 101.9858175  22.7212007 127.5319338
 101.3556836  23.4028288 127.7654735 101.8794263  22.6095089 126.5872476
  97.2803148  22.3883803 118.4585262  96.4902202  22.6441332 117.9825373
  97.7714395  23.2032141 118.5637303 111.2966957  29.7289043 121.2090543
 112.1184401  29.3269230 120.9273225 111.2929360  29.6257277 122.1606659
  99.2317893  22.7528383 115.4168739  98.4349056  22.8647077 115.9352235
  99.0043485  23.0915035 114.5509630 105.0623561  29.2773086 123.3651254
 105.1267993  29.7393493 124.2009425 104.3534485  28.6470451 123.4933563
  95.5640851  22.6414294 120.8900253  95.8148889  23.5261304 121.1557829
  96.1000399  22.4618895 120.1175345 119.3872950  26.0727791 117.5575515
 118.6336659  25.5035189 117.4019519 119.5220492  26.0390456 118.5046149
 104.7771578  30.9441193 113.2330234 104.6417253  31.7892729 113.6615082
 105.3181391  31.1460471 112.4696168 101.2638918  17.0232773 129.8944589
 100.8705864  16.4698972 130.5692233 102.0805058  17.3343352 130.2851107
  98.2300976  28.4616631 113.8058159  98.7425496  29.2559882 113.9563724
  98.8823689  27.7642922 113.7391760 100.0395861  31.5782388 115.8880912
 100.2162489  32.5000352 115.7001896 100.8352694  31.2640807 116.3175292
 104.1806879  18.4390652 127.4864846 104.9216592  19.0397806 127.4069308
 104.4124802  17.6968290 126.9282888  99.3248217  23.6247020 125.7643075
  99.2101732  22.7232277 126.0650174  98.4692735  23.8710716 125.4127892
 106.4040055  31.5664760 127.3630576 105.9603909  30.7801139 127.0451481
 107.0657268  31.7543910 126.6974467 101.1627176  33.0960562 121.8891255
 101.7134601  32.9677625 121.1168248 100.3238652  33.3955451 121.5386147
 108.5021293  31.8467560 125.3911977 108.4839768  32.6676441 124.8992246
 109.4241213  31.7221635 125.6162118 104.9594347  29.3611689 126.2335486
 105.4922684  28.5999978 126.0034794 104.4308428  29.0685341 126.9759640
 108.1264042  14.4671755 121.7629127 107.7828311  15.3573397 121.6868238
 108.4943005  14.2773413 120.8998712  96.1949893  26.7905286 114.5817730
  97.0325115  27.2002294 114.3651437  96.3728160  25.8504728 114.5517923
 108.0914325  24.4580366 110.2701563 107.5760948  25.2284971 110.5089950
 107.8191633  23.7845503 110.8934624 105.6761436  19.3030067 115.3286801
 104.8203032  18.9136918 115.1492440 106.0888388  19.3822028 114.4686586
 107.2060582  16.8376410 119.7278361 106.7025378  16.8006546 118.9146166
 107.4991189  17.7469153 119.7875017 103.4503468  16.9215140 118.7344542
 104.3156465  16.7257949 118.3750432 103.5180977  16.6925492 119.6613899
 113.0648599  27.2112721 112.2054736 112.2878042  26.8723881 111.7609898
 113.7440080  27.2165344 111.5309701 107.8800628  22.3307459 112.0961344
 107.5750764  22.6453608 112.9471487 108.8331070  22.4088878 112.1388677
 106.3247060  28.4897682 113.7454298 105.7968421  27.7550441 113.4327535
 105.8234563  29.2672358 113.4994266 111.3039906  26.6846702 118.8621344
 110.6463580  27.3745964 118.9501473 112.1080305  27.0743134 119.2055330
 101.0565787  19.1517348 116.1060909 101.6309539  18.9292530 115.3734102
 101.6436770  19.2206043 116.8589510 110.1145365  25.0391075 116.9125286
 110.6277246  25.6721067 117.4146995 110.7646589  24.4392271 116.5468646
 101.3835375  21.1821809 110.1256794 100.5472687  21.5196496 110.4466069
 101.2440144  21.0470789 109.1883931 103.3588455  16.0258597 114.8335979
 102.7052867  15.7107614 114.2092593 103.3168929  15.4034337 115.5595802
 104.4699660  26.3077892 106.7489271 103.5626722  26.0767146 106.9480420
 104.9670692  25.5115511 106.9363252 107.3767739  35.0175399 109.6685957
 106.7029438  35.3207096 110.2770915 107.7633561  35.8204480 109.3191414
 106.5926195  22.5140531 119.1583626 105.6748757  22.7355478 119.0005314
 107.0086339  22.5886841 118.2995334 107.3761243  23.9131946 114.2886307
 108.1233062  24.4253343 113.9793429 107.6452833  23.5915999 115.1490700
 105.6487893  26.4090487 111.2713261 104.7399113  26.1249520 111.3685731
 105.6782977  26.8289566 110.4116568 110.8807161  30.0197076 115.0404428
 110.4269488  29.1787986 115.0969619 110.2501128  30.6558475 115.3779209
 109.8240080  20.9489063 116.2705096 109.0862837  20.4366449 116.6015338
 110.0766854  20.5089444 115.4588373 109.3240100  31.8573573 115.9754247
 109.6163074  32.4178630 115.2566612 109.8338721  32.1502134 116.7307406
 109.9251708  13.7265315 116.8646865 110.2310585  12.8662678 116.5772780
 110.6504313  14.3182935 116.6645859  96.2176064  24.1296001 115.2528463
  96.0200464  23.5365362 114.5279530  95.6622728  23.8248211 115.9704402
 104.1972787  24.0219108 117.3723056 104.2521397  23.0692944 117.2965533
 103.3863989  24.1778547 117.8564355 105.3463981  27.9499231 108.6101339
 104.9083411  27.2335090 108.1506977 106.0874422  28.1775345 108.0486431
 102.1365147  22.6396167 115.1313435 101.3233013  22.9390338 115.5378627
 102.6324142  22.2451856 115.8487917 104.2873725  32.6353924 117.0647700
 104.2449904  32.8614771 116.1356232 105.2036424  32.4017299 117.2133501
 107.7339359  23.1037992 123.9628329 108.0888747  23.3309465 124.8222795
 108.3811490  23.4356369 123.3405584 113.4637096  26.2256428 114.6677658
 113.3254995  26.4158024 113.7398847 113.1073315  26.9875811 115.1245709
 101.6279222  20.2114523 120.7474670 102.2678601  20.0703282 120.0497633
 100.7956753  19.9249036 120.3713272 113.4906476  28.2932955 119.6788929
 113.9242982  28.2008244 120.5271983 114.2038056  28.2690455 119.0408945
 102.4039526  29.5116953 116.8609662 103.1980125  29.0167273 116.6592237
 101.6931218  28.9834816 116.4977368 107.2234371  31.8935049 121.2122030
 107.2771393  32.4625985 121.9799746 106.3549152  32.0636934 120.8476067
  98.7122290  23.6560035 112.9369415  97.7819878  23.5944490 113.1539377
  98.8079761  23.1335988 112.1406056  98.6307839  20.1814848 115.5247657
  98.8914656  21.0960181 115.4156817  99.4525011  19.7139290 115.6744270
 100.1032764  21.5952605 122.6946481 100.7755817  21.3869967 122.0459130
  99.2762550  21.3974691 122.2551714 114.3522025  28.3356655 122.2121815
 114.5457915  29.2402466 122.4581090 114.2522643  27.8764074 123.0460400
 106.0058336  18.2214546 124.7112142 105.3586251  18.9204496 124.6176619
 106.7759351  18.6550690 125.0788390 109.4137134  28.4863398 127.7862695
 109.2622640  28.2573950 126.8692779 109.4041813  29.4434000 127.7994040
 106.1822470  26.0595311 122.7708962 107.1114530  26.2106470 122.5977929
 105.7613500  26.1479332 121.9157608 104.9810802  30.0845975 120.5407500
 104.8421888  29.7164760 121.4133438 104.1925398  30.5993615 120.3691457
 105.5758954  35.1855072 111.8833036 105.7510710  34.7143115 112.6978659
 104.8891742  35.8120838 112.1114297 106.5316017  29.4627578 117.9296337
 106.1965850  29.4228348 118.8253987 106.0319963  28.7972294 117.4566748
 100.5060261  24.8695208 123.4548918 100.3680059  24.1375447 124.0560458
 101.4165185  24.7804108 123.1733106 109.4675209  26.8083612 108.2033397
 108.8504379  26.0830440 108.1066450 108.9991697  27.5692973 107.8600471
 103.1342562  24.5815167 122.9432598 103.8442180  23.9408359 122.9019217
 103.0911870  24.8328062 123.8658779 111.1229340  31.5182521 125.8639177
 111.0641887  30.8341741 125.1969760 111.5248859  32.2601511 125.4119803
 101.8471496  21.5680385 124.7628238 101.3108853  21.1171124 125.4149834
 101.2588204  21.7026294 124.0198702 100.1420039  38.3344434 118.6572896
 100.3816638  38.9662959 119.3351915  99.2989236  37.9832475 118.9438255
 101.2573755  21.0269037 107.3254701 100.3803221  20.9057837 106.9616948
 101.7331508  20.2355115 107.0733590 111.1246748  29.4822105 124.0953157
 110.2373527  29.1448026 124.2179556 111.6945299  28.7505136 124.3321922
  92.7775895  25.8146196 117.4196208  93.4646935  25.5007926 116.8317224
  92.6224024  26.7187561 117.1463460  97.5810617  20.7036393 121.8481232
  97.4968806  20.0962062 121.1131642  96.7593323  21.1945411 121.8490728
 104.6547901  34.1423557 121.0614400 104.5818073  34.9478528 121.5733705
 104.2125294  34.3415523 120.2362422 104.4437681  33.3795327 114.5717222
 103.6605203  33.9217007 114.6655446 105.1430426  33.8969307 114.9711463
 107.7534331  19.1889956 117.2151427 108.2503030  18.4359919 116.8952497
 106.9821312  19.2254273 116.6494636 115.6064088  24.8930322 118.8569719
 115.5953965  25.7755037 118.4863652 114.7381468  24.5401873 118.6624256
 107.1146585  34.0410391 123.2172559 107.8274557  34.6757856 123.1448460
 106.6236613  34.1374257 122.4012561 108.8364112  27.9461644 114.7889851
 107.9020390  28.0663106 114.6194555 109.0140780  27.0434110 114.5249860
 104.3369300  21.3307339 116.9423112 103.9667087  20.7778380 117.6304017
 104.8328392  20.7265473 116.3898112 112.2236663  23.7878963 115.3239885
 112.6897115  24.6206955 115.2500187 112.6744163  23.3223944 116.0285143
 102.1658498  31.7904834 124.0378130 102.8667958  32.4241317 124.1907524
 101.6953613  32.1319566 123.2773769 110.2912894  30.1322784 112.3226037
 110.5672738  30.0179379 113.2319911 109.4217393  29.7340269 112.2838210
 110.1953326  16.1559550 119.3630786 109.2816405  16.3863777 119.5312993
 110.6246427  16.2397994 120.2144818 109.9659784  24.3449442 121.8630680
 109.3131234  24.5925349 121.2083133 110.3440164  23.5313580 121.5293157
 106.9266958  34.3809135 115.9658850 107.1089353  33.5630791 116.4286603
 107.7499944  34.5976827 115.5283740 107.2609124  33.3077320 113.2273899
 107.7896890  32.7969775 112.6144061 107.5237343  32.9919850 114.0919432
 106.0147357  25.0869253 128.3496717 105.3387994  24.9863382 129.0199092
 106.8374991  24.9308467 128.8132714  97.7626216  31.3241189 120.9709232
  98.3479653  30.5784877 121.1037137  97.5651055  31.6345146 121.8545896
 100.6164871  34.3592437 115.9871675  99.9475247  34.8438564 115.5035715
 100.4777741  34.6061657 116.9015053  92.3543871  23.8946790 119.6913676
  92.3927971  23.3610380 120.4850794  91.8484164  23.3681995 119.0724653
 104.7570140  36.3936180 122.5854333 105.3088448  36.5567802 123.3503418
 105.0976334  36.9840618 121.9134358  99.7334633  18.7411330 123.1876218
  99.7975960  19.6026161 122.7753616  99.6701754  18.1285332 122.4548576
  99.2086906  20.8134463 126.8349252  99.8358945  20.4311540 127.4486776
  98.3514825  20.5948665 127.2004945 109.6081014  31.2197438 128.4402988
 110.1520918  31.8327396 127.9457942 109.0267859  31.7777016 128.9570001
  95.9852449  22.6210892 112.7667607  96.2805890  21.7121570 112.7134661
  95.0840484  22.5998631 112.4448609 107.8938527  34.3418156 119.5718015
 107.7689667  33.5407896 119.0628961 108.5517618  34.8364349 119.0831985
  99.5146696  20.6966888 118.7495156  98.7933281  21.3102856 118.6102629
 100.3039951  21.2324653 118.6711801 109.9573436  32.1427176 121.1997565
 109.0103771  32.0232527 121.1275892 110.3056209  31.2549674 121.2823827
 102.3173009  18.0321315 125.0235807 102.8407411  18.2783611 125.7862117
 102.0985342  18.8641350 124.6038945  97.7140290  20.3024989 112.8906932
  97.3852996  19.4222368 112.7082038  98.0679661  20.2472658 113.7783321
 106.9619869  31.9379892 117.4001918 106.8144831  31.0096600 117.5809488
 107.7873363  31.9599983 116.9158993 100.8282113  20.5897959 113.2582410
 101.1678186  21.1183881 112.5361018 101.2754234  20.9278365 114.0340976
 110.5653991  32.7608451 118.4866790 111.4900538  32.5551312 118.3491241
 110.3969294  32.5124852 119.3956132 103.5225554  18.9735010 122.7085478
 103.1822375  18.1742823 123.1106158 102.8164560  19.2736721 122.1362311
 104.1742026  16.0584322 121.1612801 104.9968095  15.5844801 121.0391691
 104.4180090  16.8374806 121.6611487 102.8150260  19.0872581 111.4575702
 103.5358623  19.4653834 110.9539419 102.1915565  19.8061458 111.5610680
 106.9581383  19.7917730 112.3934035 107.1744998  20.6742368 112.0922863
 106.4775451  19.4003943 111.6639677 101.6980605  22.7503443 118.9704779
 101.5525185  23.0643746 119.8629061 101.2205808  23.3688343 118.4175678
 103.5576988  19.7405991 119.0185669 103.5438556  18.8447084 118.6817967
 104.2749416  19.7476655 119.6523955 105.4103118  20.1743331 121.0638796
 105.1520896  21.0960402 121.0623127 104.8788159  19.7773766 121.7539261
 110.3549307  33.2794118 113.8428882 110.5286185  32.7140541 113.0902734
 110.8478198  34.0795013 113.6608372  96.1726267  25.2908787 121.9092441
  95.6279735  26.0668595 122.0412715  97.0505617  25.6379592 121.7511562
 102.9613884  18.6220371 114.2873239 103.0829795  17.6937018 114.4864127
 102.6715926  18.6359057 113.3751555 105.8305074  16.3075282 117.4239959
 105.8526771  16.3714615 116.4691939 106.2473133  15.4679790 117.6180465
 116.2088698  26.0430541 115.4619182 116.6519844  25.2937867 115.0638305
 115.3315209  26.0340678 115.0792914 111.3424480  32.5960883 110.9425780
 112.0375384  33.2167575 111.1613095 111.6847630  31.7456234 111.2178158
  96.9592289  24.4178684 124.8022597  96.2174025  24.5661319 125.3887228
  96.6385033  24.6786949 123.9389347 113.2415903  30.0460588 112.4713111
 113.7667227  30.3847861 111.7462431 113.1538255  29.1107604 112.2876245
 104.9035951  33.9594662 124.6002987 105.2123078  33.7143809 125.4725687
 105.7011433  34.1641300 124.1121858 104.9256563  36.1132572 116.8308364
 104.4861554  35.6208950 117.5241221 105.6764680  35.5705539 116.5900439
  97.4048902  32.3044112 116.8332992  98.2306922  32.0047884 116.4531636
  97.0542954  31.5351735 117.2822781 102.3730436  31.6570581 118.9030666
 101.7510445  30.9941286 118.6032894 103.0435303  31.6831713 118.2204313
  95.6057507  30.2230439 117.7921926  94.7689416  29.7952613 117.6105927
  95.5781153  30.4162882 118.7292717 102.4454963  20.1352369 128.4963172
 102.4943119  21.0114492 128.1140941 102.9877477  19.5929762 127.9234815
 112.9309809  30.6793492 127.7764309 112.1405352  30.6617631 127.2368808
 112.6943163  31.2181786 128.5313345 113.0507684  27.5285958 125.0897037
 113.1005689  27.3635966 126.0312560 112.9421607  26.6613217 124.6994918
 101.9343943  30.2074504 112.3789126 102.0832063  30.8909968 111.7255799
 102.7410386  30.1879594 112.8938582 110.3411446  23.5116886 126.4056344
 111.2421309  23.3723351 126.1140342 110.4159421  23.6771341 127.3454521
 104.6754252  20.8883741 125.2509530 103.8057561  21.1817307 124.9792119
 104.9113732  21.4724186 125.9716794 114.5525881  29.9482900 125.3339059
 114.2610689  30.3112880 126.1702520 113.9398012  29.2349908 125.1552391
 115.7521563  27.5135780 117.8541629 116.5868454  27.9525584 118.0179189
 115.8880692  27.0374433 117.0349875 112.8013069  25.0715514 123.8019117
 113.2767190  25.2643161 122.9937968 111.8778634  25.1274700 123.5562501
  99.6896575  26.2339682 113.3850195  99.4442617  25.3302012 113.5830405
  99.8592490  26.2356832 112.4429673 107.3793285  17.1063358 122.7674951
 107.8975229  17.8424385 122.4421439 107.0248418  17.4127351 123.6021710
  98.9592223  21.9668039 110.8836357  98.2661468  22.0412394 110.2276393
  98.7143975  21.2028383 111.4057874 107.6305880  13.5263641 118.2875847
 107.9107633  12.8586830 118.9136274 108.4156486  13.7192736 117.7750511
 105.4339348  32.7022634 109.8500874 104.8613315  33.3212822 109.3971346
 106.0072142  33.2521996 110.3840796 111.5014738  21.9481275 122.0347422
 112.4532161  22.0479372 122.0559647 111.3318188  21.1559543 122.5445507
 109.5229117  19.0336858 122.2206823 108.9279049  19.3141871 121.5253312
 109.2378814  19.5230759 122.9923564 108.6536608  32.9859785 110.9809456
 109.5867281  32.9205346 111.1842331 108.5659821  33.8216051 110.5223989
 111.2824624  32.3025655 107.9413404 111.2038256  31.9685519 108.8349161
 112.1034291  32.7947423 107.9404876 113.9802816  25.1687394 121.1489722
 113.9479136  24.2303395 121.3349406 114.5903439  25.2471431 120.4155547
 105.8186147  24.0383447 107.1916926 106.7645251  23.9089655 107.2605344
 105.4400391  23.2998109 107.6686354 114.1297304  21.9598438 121.1948005
 113.6136353  21.1756894 121.0077934 115.0137253  21.6317154 121.3594525
 111.7908031  15.7039453 117.1543818 111.5932852  15.3954541 118.0387150
 112.4007737  16.4301092 117.2841748 119.7979366  26.2303401 120.2895759
 120.5282754  25.9688689 120.8503462 119.1886311  25.4932123 120.3297827
 117.8794663  24.3711264 120.8870210 117.1527826  24.2367229 120.2786702
 117.4641950  24.6788092 121.6926928 105.7024839  28.0901193 128.6517583
 106.6227849  28.2679792 128.8457630 105.6674422  27.1457239 128.4997282
 104.0029064  21.9633424 107.1271811 103.0960519  21.6666536 107.2034525
 104.2805045  21.6663242 106.2606098  94.9207004  23.2839787 117.5770858
  94.6009788  22.4305095 117.2845232  94.3740432  23.4988365 118.3328825
  98.6986912  26.0002228 121.2940364  98.9172921  26.9319336 121.3128398
  99.1112685  25.6410202 122.0795168 105.6191129  16.5070313 113.2816053
 104.8091858  16.1617398 113.6571299 106.3075546  16.1977857 113.8703664
 107.5481678  15.5848360 114.9040349 108.1012716  16.0043814 115.5630372
 107.7851764  14.6584108 114.9463305 103.5714777  21.5735434 130.6843113
 103.4711504  22.5229791 130.6155204 103.3536319  21.2453673 129.8119183
 102.7727848  18.8220359 107.2683791 103.6347012  19.1475257 107.5279608
 102.9578192  18.0351855 106.7556856  94.7895264  26.9042699 119.5463979
  94.0958735  26.4896651 119.0333934  95.5368255  26.9463235 118.9497398
 110.9260485  17.6948885 114.4119014 110.3459154  18.3533689 114.0297066
 110.6596417  16.8726230 114.0006431 109.3764051  17.0953943 116.6140334
 109.8763830  17.2070478 115.8054653 110.0199659  16.7914996 117.2541142
 103.4346047  25.0032573 129.5008175 102.9513129  25.8032933 129.7072064
 103.5206986  25.0140517 128.5475619  96.7032007  26.8360952 117.4229994
  96.6802695  26.9348640 116.4711877  97.0132643  27.6826103 117.7447160
  99.3619384  28.8937107 121.5376609 100.3162638  28.8621050 121.4706540
  99.1631908  28.4327731 122.3526835  99.9518767  27.4638223 124.1047406
 100.7711656  27.9582302 124.1282244 100.2255574  26.5470192 124.0764974
 109.7085363  19.8548976 113.4675362 108.8211218  20.1398626 113.2495557
 110.1239352  19.6942739 112.6202639 113.0599899  19.8795497 117.1829701
 113.8360289  20.3691949 117.4554318 112.3348033  20.3053551 117.6401571
 115.4972458  20.5923116 118.2403642 116.0916948  20.3518852 117.5296950
 115.5699041  19.8730246 118.8677178  97.7169613  34.4356727 118.5546807
  97.5824081  33.6757128 117.9884805  97.3001676  35.1597627 118.0875595
 108.8528576  29.6193650 107.5623382 109.5564426  29.8243653 108.1781037
 108.1291225  30.1870412 107.8272465 109.6826387  25.3703512 113.6825652
 109.6261588  25.8272063 112.8433284 110.2354729  24.6094196 113.5048495
 113.4931192  21.1593243 114.5075771 113.2368127  20.7589879 115.3383979
 112.8684060  21.8737037 114.3825911 117.8043530  23.8989317 117.0147063
 117.2443088  23.9682506 117.7878625 117.1987034  23.7230301 116.2946559
 100.8738739  35.3326044 118.7665249 100.7571123  36.2771476 118.6643939
 100.0531185  35.0299605 119.1551048 110.7615274  30.0576180 109.6121842
 111.5960878  29.6257378 109.4299317 110.5999617  29.8858193 110.5398736
 110.4161166  26.5608293 110.9778181 110.3609970  26.3952564 110.0366625
 109.7907221  27.2684326 111.1340371  95.2053681  21.7976357 124.8039603
  95.8512544  21.2875311 125.2926829  94.9970832  22.5345039 125.3783029
 107.7307073  28.8657205 130.3031744 108.5998233  29.0397857 129.9418379
 107.2513825  29.6851622 130.1807473 103.7257291  16.0616402 110.5563500
 103.7135961  17.0058242 110.7131770 104.6180713  15.8786547 110.2622961
 101.8993253  35.9854306 121.9821178 102.8020500  36.0177916 122.2987673
 101.6730623  35.0554757 121.9967513 103.6546855  34.7385292 118.6431256
 102.7042486  34.7387154 118.5295629 103.9579341  33.9918027 118.1267291
 107.5409411  12.6559179 114.8109436 106.7741807  12.1017665 114.9566119
 107.9520116  12.7281047 115.6723588  99.5451172  18.9443974 128.9014618
 100.4082633  18.5880779 129.1117942  98.9716582  18.6057869 129.5890022
 119.3899549  40.5745831 119.7077019 120.0277959  40.4552578 119.0040359
 119.2720392  41.5226675 119.7664971 116.1989255  40.5273259 119.6438543
 115.8607767  40.4114323 118.7559078 117.0679023  40.1264424 119.6239549
 112.0576071  42.3808735 115.6335434 111.4940936  42.2898672 114.8651722
 111.9428466  41.5608640 116.1137927 116.6809038  41.6808110 125.6024749
 116.6697679  41.2860909 124.7305253 116.8429678  40.9474183 126.1958520
 109.6040503  43.8759927 118.4719655 110.3961795  43.5350751 118.0565954
 109.8437153  43.9854902 119.3921808 117.6375629  46.0479703 110.9449899
 116.9863609  46.6333783 110.5583913 118.4319992  46.5785898 111.0044937
 111.5631257  43.1368840 111.3437034 112.3362133  42.5897827 111.2049909
 111.9156655  44.0013089 111.5551495 113.4016299  44.4645222 124.5503933
 113.1106165  45.3690853 124.4350599 114.0373284  44.5061750 125.2648002
 114.3272506  41.8422071 121.1405292 114.9236078  41.6178093 120.4262255
 114.3847478  41.1006816 121.7430740 113.8997534  39.2961506 108.9755483
 114.1523055  38.7743027 108.2138946 112.9622094  39.1327652 109.0782167
 118.9440817  38.2997285 116.7830227 119.7303906  37.8816708 116.4320644
 119.2079522  39.2043377 116.9511875 119.1150895  43.7370135 111.4818883
 118.4796728  43.8104761 112.1939788 118.7848301  44.3263734 110.8037963
 124.3449244  38.2372518 117.6863205 125.0774416  37.6671735 117.9201035
 123.5888600  37.8494118 118.1269711 113.6193823  41.1989612 111.1779858
 113.5030081  40.5234515 111.8460943 113.7296083  40.7121986 110.3612011
 115.9625364  40.6599759 114.8826548 115.5983571  40.1330380 115.5939469
 116.8192480  40.2698228 114.7093033 121.8674665  31.9494092 122.1457814
 121.5357990  32.8189503 121.9219029 121.2720278  31.6330376 122.8251844
 115.6030851  35.6889659 109.8787896 115.7705253  36.5569895 110.2458367
 115.4128020  35.8516941 108.9549185 118.3606184  44.1506638 121.5453727
 118.0606907  45.0531677 121.4369534 118.0157244  43.8838821 122.3974879
 111.8118666  40.6020435 117.5790431 110.8869162  40.4696649 117.7868123
 112.0603079  41.3814654 118.0760373 121.7603328  36.6689178 119.2251164
 120.8520205  36.6004586 118.9309925 121.7090924  37.1461123 120.0532989
 115.5820072  38.1447316 110.8634563 115.4619697  38.5904367 111.7020043
 114.8872660  38.4932634 110.3048101 109.1727477  40.2453708 118.4134220
 109.3019858  40.4988187 119.3273632 108.4924928  40.8381416 118.0938875
 113.3426964  50.9150958 114.5124694 113.2650994  51.8658783 114.5913175
 112.7388608  50.5696831 115.1699621 115.8344194  38.0878824 127.1686061
 115.0577528  38.6472744 127.1588926 116.4734757  38.5735607 127.6900931
 123.6264974  34.8705616 121.0029038 122.9839355  35.1638150 120.3568832
 123.1219903  34.7558537 121.8082234 121.2805138  38.6168790 111.6914897
 122.1922994  38.8496176 111.5162595 120.7714785  39.2005834 111.1289976
 114.0890566  40.8964277 126.7304028 114.8305251  41.4349321 126.4538852
 113.3827552  41.5230566 126.8875580 119.5645906  43.0393417 125.3276190
 119.9729262  42.5975828 124.5830822 118.8423167  42.4646045 125.5810382
 115.9176976  37.9766024 122.7009747 116.7638171  38.4005438 122.8444396
 115.8575614  37.3199648 123.3948310 119.8874720  43.5994608 119.0828478
 119.2583583  43.7640322 118.3804546 119.5000383  44.0136218 119.8539443
 123.7663952  44.5349046 116.4372842 123.0814990  44.9147947 115.8869876
 123.8507802  45.1444373 117.1704790 119.0676421  35.6370393 124.3590920
 118.8237353  36.3912453 123.8225196 119.3436352  36.0155740 125.1938167
 121.0214884  42.1809005 123.0368186 121.2331779  42.8240765 122.3602567
 120.9744632  41.3471321 122.5690116 118.6241113  34.7926826 119.9404758
 117.7625592  35.0908079 120.2321495 118.6503548  35.0097224 119.0085791
 115.4402682  43.3369016 116.3478564 115.9041028  43.6156719 115.5583186
 115.1759480  42.4352461 116.1651654 112.3326763  42.8840498 119.2858327
 112.9028120  43.3127766 118.6475811 112.9234875  42.6023082 119.9842513
 114.3771568  39.4592169 113.1568129 115.0795612  39.9113212 113.6242055
 114.0452197  38.8175987 113.7848022 112.8251930  38.0503925 127.5319338
 112.1950590  38.7320206 127.7654735 112.7188018  37.9387007 126.5872476
 108.1196902  37.7175721 118.4585262 107.3295956  37.9733250 117.9825373
 108.6108150  38.5324059 118.5637303 122.1360712  45.0580960 121.2090543
 122.9578156  44.6561148 120.9273225 122.1323115  44.9549194 122.1606659
 110.0711648  38.0820300 115.4168739 109.2742811  38.1938995 115.9352235
 109.8437240  38.4206953 114.5509630 115.9017315  44.6065004 123.3651254
 115.9661748  45.0685411 124.2009425 115.1928239  43.9762369 123.4933563
 106.4034605  37.9706212 120.8900253 106.6542644  38.8553222 121.1557829
 106.9394154  37.7910813 120.1175345 130.2266705  41.4019709 117.5575515
 129.4730413  40.8327107 117.4019519 130.3614246  41.3682373 118.5046149
 115.6165333  46.2733111 113.2330234 115.4811008  47.1184647 113.6615082
 116.1575145  46.4752389 112.4696168 112.1032673  32.3524691 129.8944589
 111.7099618  31.7990890 130.5692233 112.9198813  32.6635269 130.2851107
 109.0694730  43.7908549 113.8058159 109.5819251  44.5851799 113.9563724
 109.7217443  43.0934840 113.7391760 110.8789615  46.9074305 115.8880912
 111.0556243  47.8292270 115.7001896 111.6746449  46.5932725 116.3175292
 115.0200634  33.7682570 127.4864846 115.7610347  34.3689723 127.4069308
 115.2518556  33.0260208 126.9282888 110.1641972  38.9538937 125.7643075
 110.0495487  38.0524195 126.0650174 109.3086489  39.2002634 125.4127892
 117.2433809  46.8956678 127.3630576 116.7997664  46.1093056 127.0451481
 117.9051023  47.0835828 126.6974467 112.0020931  48.4252479 121.8891255
 112.5528356  48.2969543 121.1168248 111.1632406  48.7247368 121.5386147
 119.3415047  47.1759478 125.3911977 119.3233523  47.9968359 124.8992246
 120.2634967  47.0513553 125.6162118 115.7988102  44.6903607 126.2335486
 116.3316438  43.9291895 126.0034794 115.2702183  44.3977259 126.9759640
 118.9657797  29.7963673 121.7629127 118.6222066  30.6865315 121.6868238
 119.3336759  29.6065331 120.8998712 107.0343647  42.1197203 114.5817730
 107.8718869  42.5294212 114.3651437 107.2121915  41.1796646 114.5517923
 118.9308079  39.7872284 110.2701563 118.4154703  40.5576889 110.5089950
 118.6585388  39.1137420 110.8934624 116.5155190  34.6321985 115.3286801
 115.6596787  34.2428835 115.1492440 116.9282142  34.7113946 114.4686586
 118.0454337  32.1668328 119.7278361 117.5419133  32.1298463 118.9146166
 118.3384944  33.0761071 119.7875017 114.2897223  32.2507058 118.7344542
 115.1550220  32.0549867 118.3750432 114.3574732  32.0217410 119.6613899
 123.9042353  42.5404639 112.2054736 123.1271796  42.2015798 111.7609898
 124.5833834  42.5457262 111.5309701 118.7194382  37.6599376 112.0961344
 118.4144518  37.9745525 112.9471487 119.6724825  37.7380796 112.1388677
 117.1640814  43.8189600 113.7454298 116.6362176  43.0842359 113.4327535
 116.6628317  44.5964276 113.4994266 122.1433660  42.0138620 118.8621344
 121.4857335  42.7037881 118.9501473 122.9474060  42.4035052 119.2055330
 111.8959542  34.4809266 116.1060909 112.4703294  34.2584447 115.3734102
 112.4830524  34.5497960 116.8589510 120.9539119  40.3682993 116.9125286
 121.4671001  41.0012985 117.4146995 121.6040343  39.7684188 116.5468646
 112.2229129  36.5113727 110.1256794 111.3866441  36.8488413 110.4466069
 112.0833899  36.3762707 109.1883931 114.1982210  31.3550515 114.8335979
 113.5446622  31.0399532 114.2092593 114.1562684  30.7326255 115.5595802
 115.3093414  41.6369810 106.7489271 114.4020476  41.4059063 106.9480420
 115.8064446  40.8407429 106.9363252 118.2161493  50.3467317 109.6685957
 117.5423192  50.6499014 110.2770915 118.6027315  51.1496397 109.3191414
 117.4319950  37.8432448 119.1583626 116.5142511  38.0647395 119.0005314
 117.8480094  37.9178759 118.2995334 118.2154998  39.2423864 114.2886307
 118.9626817  39.7545261 113.9793429 118.4846587  38.9207917 115.1490700
 116.4881648  41.7382405 111.2713261 115.5792867  41.4541437 111.3685731
 116.5176732  42.1581483 110.4116568 121.7200915  45.3488994 115.0404428
 121.2663242  44.5079904 115.0969619 121.0894882  45.9850393 115.3779209
 120.6633835  36.2780980 116.2705096 119.9256592  35.7658366 116.6015338
 120.9160608  35.8381362 115.4588373 120.1633855  47.1865491 115.9754247
 120.4556829  47.7470548 115.2566612 120.6732475  47.4794052 116.7307406
 120.7645462  29.0557232 116.8646865 121.0704339  28.1954596 116.5772780
 121.4898067  29.6474852 116.6645859 107.0569818  39.4587919 115.2528463
 106.8594218  38.8657279 114.5279530 106.5016482  39.1540129 115.9704402
 115.0366542  39.3511025 117.3723056 115.0915152  38.3984862 117.2965533
 114.2257744  39.5070464 117.8564355 116.1857736  43.2791148 108.6101339
 115.7477166  42.5627007 108.1506977 116.9268177  43.5067263 108.0486431
 112.9758902  37.9688085 115.1313435 112.1626767  38.2682256 115.5378627
 113.4717896  37.5743774 115.8487917 115.1267480  47.9645842 117.0647700
 115.0843659  48.1906688 116.1356232 116.0430179  47.7309217 117.2133501
 118.5733114  38.4329909 123.9628329 118.9282501  38.6601383 124.8222795
 119.2205245  38.7648286 123.3405584 124.3030850  41.5548345 114.6677658
 124.1648749  41.7449941 113.7398847 123.9467069  42.3167728 115.1245709
 112.4672977  35.5406441 120.7474670 113.1072356  35.3995200 120.0497633
 111.6350507  35.2540954 120.3713272 124.3300230  43.6224872 119.6788929
 124.7636737  43.5300161 120.5271983 125.0431811  43.5982373 119.0408945
 113.2433281  44.8408871 116.8609662 114.0373879  44.3459191 116.6592237
 112.5324973  44.3126734 116.4977368 118.0628125  47.2226966 121.2122030
 118.1165147  47.7917903 121.9799746 117.1942906  47.3928852 120.8476067
 109.5516044  38.9851953 112.9369415 108.6213632  38.9236408 113.1539377
 109.6473516  38.4627905 112.1406056 109.4701593  35.5106766 115.5247657
 109.7308410  36.4252099 115.4156817 110.2918765  35.0431208 115.6744270
 110.9426518  36.9244523 122.6946481 111.6149572  36.7161885 122.0459130
 110.1156305  36.7266609 122.2551714 125.1915780  43.6648573 122.2121815
 125.3851670  44.5694384 122.4581090 125.0916398  43.2055992 123.0460400
 116.8452090  33.5506464 124.7112142 116.1980005  34.2496413 124.6176619
 117.6153106  33.9842608 125.0788390 120.2530888  43.8155316 127.7862695
 120.1016395  43.5865867 126.8692779 120.2435568  44.7725917 127.7994040
 117.0216225  41.3887229 122.7708962 117.9508285  41.5398388 122.5977929
 116.6007255  41.4771249 121.9157608 115.8204557  45.4137893 120.5407500
 115.6815642  45.0456677 121.4133438 115.0319153  45.9285532 120.3691457
 116.4152708  50.5146989 111.8833036 116.5904464  50.0435033 112.6978659
 115.7285497  51.1412756 112.1114297 117.3709772  44.7919496 117.9296337
 117.0359604  44.7520266 118.8253987 116.8713717  44.1264212 117.4566748
 111.3454016  40.1987126 123.4548918 111.2073814  39.4667364 124.0560458
 112.2558939  40.1096026 123.1733106 120.3068963  42.1375530 108.2033397
 119.6898134  41.4122358 108.1066450 119.8385452  42.8984890 107.8600471
 113.9736316  39.9107085 122.9432598 114.6835935  39.2700277 122.9019217
 113.9305624  40.1619980 123.8658779 121.9623095  46.8474438 125.8639177
 121.9035641  46.1633658 125.1969760 122.3642613  47.5893428 125.4119803
 112.6865250  36.8972303 124.7628238 112.1502607  36.4463041 125.4149834
 112.0981959  37.0318212 124.0198702 110.9813794  53.6636352 118.6572896
 111.2210392  54.2954876 119.3351915 110.1382990  53.3124392 118.9438255
 112.0967509  36.3560954 107.3254701 111.2196976  36.2349755 106.9616948
 112.5725262  35.5647033 107.0733590 121.9640502  44.8114022 124.0953157
 121.0767281  44.4739944 124.2179556 122.5339053  44.0797053 124.3321922
 103.6169649  41.1438114 117.4196208 104.3040689  40.8299844 116.8317224
 103.4617778  42.0479479 117.1463460 108.4204372  36.0328311 121.8481232
 108.3362560  35.4253980 121.1131642 107.5987078  36.5237329 121.8490728
 115.4941656  49.4715475 121.0614400 115.4211827  50.2770446 121.5733705
 115.0519049  49.6707440 120.2362422 115.2831435  48.7087245 114.5717222
 114.4998957  49.2508925 114.6655446 115.9824180  49.2261224 114.9711463
 118.5928085  34.5181874 117.2151427 119.0896785  33.7651836 116.8952497
 117.8215067  34.5546191 116.6494636 126.4457843  40.2222240 118.8569719
 126.4347719  41.1046955 118.4863652 125.5775222  39.8693790 118.6624256
 117.9540339  49.3702309 123.2172559 118.6668311  50.0049773 123.1448460
 117.4630368  49.4666175 122.4012561 119.6757866  43.2753561 114.7889851
 118.7414145  43.3955024 114.6194555 119.8534535  42.3726028 114.5249860
 115.1763054  36.6599257 116.9423112 114.8060842  36.1070297 117.6304017
 115.6722147  36.0557391 116.3898112 123.0630417  39.1170881 115.3239885
 123.5290870  39.9498872 115.2500187 123.5137918  38.6515862 116.0285143
 113.0052253  47.1196752 124.0378130 113.7061712  47.7533235 124.1907524
 112.5347368  47.4611484 123.2773769 121.1306649  45.4614702 112.3226037
 121.4066492  45.3471296 113.2319911 120.2611147  45.0632187 112.2838210
 121.0347080  31.4851468 119.3630786 120.1210160  31.7155694 119.5312993
 121.4640182  31.5689912 120.2144818 120.8053539  39.6741360 121.8630680
 120.1524989  39.9217267 121.2083133 121.1833919  38.8605498 121.5293157
 117.7660713  49.7101053 115.9658850 117.9483107  48.8922709 116.4286603
 118.5893699  49.9268745 115.5283740 118.1002878  48.6369238 113.2273899
 118.6290644  48.1261692 112.6144061 118.3631098  48.3211768 114.0919432
 116.8541112  40.4161171 128.3496717 116.1781749  40.3155300 129.0199092
 117.6768746  40.2600384 128.8132714 108.6019971  46.6533107 120.9709232
 109.1873408  45.9076795 121.1037137 108.4044809  46.9637064 121.8545896
 111.4558626  49.6884355 115.9871675 110.7869001  50.1730482 115.5035715
 111.3171496  49.9353575 116.9015053 103.1937625  39.2238707 119.6913676
 103.2321725  38.6902298 120.4850794 102.6877918  38.6973913 119.0724653
 115.5963895  51.7228098 122.5854333 116.1482203  51.8859720 123.3503418
 115.9370088  52.3132536 121.9134358 110.5728388  34.0703248 123.1876218
 110.6369714  34.9318079 122.7753616 110.5095508  33.4577250 122.4548576
 110.0480660  36.1426380 126.8349252 110.6752699  35.7603458 127.4486776
 109.1908579  35.9240582 127.2004945 120.4474769  46.5489356 128.4402988
 120.9914673  47.1619314 127.9457942 119.8661614  47.1068934 128.9570001
 106.8246203  37.9502810 112.7667607 107.1199644  37.0413488 112.7134661
 105.9234239  37.9290549 112.4448609 118.7332282  49.6710074 119.5718015
 118.6083421  48.8699813 119.0628961 119.3911373  50.1656267 119.0831985
 110.3540450  36.0258806 118.7495156 109.6327036  36.6394774 118.6102629
 111.1433706  36.5616571 118.6711801 120.7967190  47.4719094 121.1997565
 119.8497526  47.3524445 121.1275892 121.1449963  46.5841592 121.2823827
 113.1566764  33.3613233 125.0235807 113.6801165  33.6075529 125.7862117
 112.9379097  34.1933267 124.6038945 108.5534045  35.6316907 112.8906932
 108.2246751  34.7514286 112.7082038 108.9073415  35.5764576 113.7783321
 117.8013624  47.2671810 117.4001918 117.6538586  46.3388517 117.5809488
 118.6267117  47.2891901 116.9158993 111.6675868  35.9189877 113.2582410
 112.0071940  36.4475798 112.5361018 112.1147988  36.2570283 114.0340976
 121.4047745  48.0900369 118.4866790 122.3294293  47.8843230 118.3491241
 121.2363049  47.8416770 119.3956132 114.3619309  34.3026928 122.7085478
 114.0216129  33.5034741 123.1106158 113.6558315  34.6028639 122.1362311
 115.0135780  31.3876240 121.1612801 115.8361850  30.9136718 121.0391691
 115.2573844  32.1666724 121.6611487 113.6544015  34.4164499 111.4575702
 114.3752377  34.7945751 110.9539419 113.0309319  35.1353375 111.5610680
 117.7975138  35.1209648 112.3934035 118.0138752  36.0034285 112.0922863
 117.3169205  34.7295861 111.6639677 112.5374359  38.0795361 118.9704779
 112.3918940  38.3935664 119.8629061 112.0599563  38.6980261 118.4175678
 114.3970742  35.0697909 119.0185669 114.3832311  34.1739002 118.6817967
 115.1143170  35.0768572 119.6523955 116.2496873  35.5035249 121.0638796
 115.9914651  36.4252320 121.0623127 115.7181913  35.1065683 121.7539261
 121.1943062  48.6086036 113.8428882 121.3679939  48.0432459 113.0902734
 121.6871953  49.4086931 113.6608372 107.0120021  40.6200705 121.9092441
 106.4673489  41.3960513 122.0412715 107.8899371  40.9671510 121.7511562
 113.8007638  33.9512289 114.2873239 113.9223549  33.0228935 114.4864127
 113.5109680  33.9650975 113.3751555 116.6698828  31.6367199 117.4239959
 116.6920525  31.7006533 116.4691939 117.0866887  30.7971708 117.6180465
 127.0482453  41.3722459 115.4619182 127.4913599  40.6229784 115.0638305
 126.1708963  41.3632595 115.0792914 122.1818234  47.9252800 110.9425780
 122.8769139  48.5459493 111.1613095 122.5241384  47.0748152 111.2178158
 107.7986043  39.7470601 124.8022597 107.0567779  39.8953237 125.3887228
 107.4778788  40.0078867 123.9389347 124.0809657  45.3752506 112.4713111
 124.6060981  45.7139779 111.7462431 123.9932010  44.4399521 112.2876245
 115.7429706  49.2886580 124.6002987 116.0516832  49.0435726 125.4725687
 116.5405188  49.4933218 124.1121858 115.7650318  51.4424489 116.8308364
 115.3255308  50.9500868 117.5241221 116.5158435  50.8997457 116.5900439
 108.2442657  47.6336030 116.8332992 109.0700677  47.3339802 116.4531636
 107.8936709  46.8643653 117.2822781 113.2124190  46.9862498 118.9030666
 112.5904199  46.3233203 118.6032894 113.8829057  47.0123630 118.2204313
 106.4451262  45.5522357 117.7921926 105.6083170  45.1244531 117.6105927
 106.4174907  45.7454800 118.7292717 113.2848718  35.4644286 128.4963172
 113.3336873  36.3406409 128.1140941 113.8271232  34.9221679 127.9234815
 123.7703563  46.0085410 127.7764309 122.9799107  45.9909548 127.2368808
 123.5336918  46.5473703 128.5313345 123.8901438  42.8577876 125.0897037
 123.9399443  42.6927883 126.0312560 123.7815362  41.9905135 124.6994918
 112.7737697  45.5366422 112.3789126 112.9225817  46.2201886 111.7255799
 113.5804140  45.5171512 112.8938582 121.1805201  38.8408804 126.4056344
 122.0815063  38.7015269 126.1140342 121.2553175  39.0063259 127.3454521
 115.5148006  36.2175659 125.2509530 114.6451315  36.5109225 124.9792119
 115.7507486  36.8016104 125.9716794 125.3919635  45.2774818 125.3339059
 125.1004443  45.6404798 126.1702520 124.7791766  44.5641826 125.1552391
 126.5915317  42.8427697 117.8541629 127.4262209  43.2817501 118.0179189
 126.7274446  42.3666351 117.0349875 123.6406823  40.4007432 123.8019117
 124.1160945  40.5935078 122.9937968 122.7172389  40.4566618 123.5562501
 110.5290330  41.5631599 113.3850195 110.2836372  40.6593929 113.5830405
 110.6986245  41.5648750 112.4429673 118.2187040  32.4355276 122.7674951
 118.7368984  33.1716303 122.4421439 117.8642173  32.7419269 123.6021710
 109.7985978  37.2959957 110.8836357 109.1055222  37.3704312 110.2276393
 109.5537729  36.5320301 111.4057874 118.4699634  28.8555558 118.2875847
 118.7501388  28.1878747 118.9136274 119.2550241  29.0484654 117.7750511
 116.2733103  48.0314552 109.8500874 115.7007070  48.6504739 109.3971346
 116.8465896  48.5813914 110.3840796 122.3408492  37.2773192 122.0347422
 123.2925915  37.3771290 122.0559647 122.1711943  36.4851461 122.5445507
 120.3622872  34.3628775 122.2206823 119.7672804  34.6433788 121.5253312
 120.0772569  34.8522676 122.9923564 119.4930362  48.3151702 110.9809456
 120.4261035  48.2497264 111.1842331 119.4053575  49.1507969 110.5223989
 122.1218379  47.6317573 107.9413404 122.0432011  47.2977436 108.8349161
 122.9428046  48.1239341 107.9404876 124.8196570  40.4979312 121.1489722
 124.7872890  39.5595313 121.3349406 125.4297194  40.5763349 120.4155547
 116.6579901  39.3675365 107.1916926 117.6039006  39.2381573 107.2605344
 116.2794146  38.6290027 107.6686354 124.9691059  37.2890355 121.1948005
 124.4530107  36.5048812 121.0077934 125.8531007  36.9609072 121.3594525
 122.6301786  31.0331371 117.1543818 122.4326607  30.7246459 118.0387150
 123.2401491  31.7593010 117.2841748 130.6373120  41.5595319 120.2895759
 131.3676508  41.2980607 120.8503462 130.0280065  40.8224041 120.3297827
 128.7188417  39.7003181 120.8870210 127.9921581  39.5659146 120.2786702
 128.3035704  40.0080010 121.6926928 116.5418594  43.4193111 128.6517583
 117.4621603  43.5971710 128.8457630 116.5068177  42.4749156 128.4997282
 114.8422818  37.2925341 107.1271811 113.9354274  36.9958454 107.2034525
 115.1198799  36.9955159 106.2606098 105.7600759  38.6131705 117.5770858
 105.4403543  37.7597013 117.2845232 105.2134187  38.8280283 118.3328825
 109.5380666  41.3294146 121.2940364 109.7566676  42.2611254 121.3128398
 109.9506440  40.9702120 122.0795168 116.4584884  31.8362231 113.2816053
 115.6485612  31.4909316 113.6571299 117.1469301  31.5269775 113.8703664
 118.3875432  30.9140278 114.9040349 118.9406471  31.3335731 115.5630372
 118.6245519  29.9876026 114.9463305 114.4108531  36.9027351 130.6843113
 114.3105258  37.8521708 130.6155204 114.1930073  36.5745590 129.8119183
 113.6121603  34.1512277 107.2683791 114.4740767  34.4767175 107.5279608
 113.7971947  33.3643772 106.7556856 105.6289019  42.2334616 119.5463979
 104.9352490  41.8188569 119.0333934 106.3762010  42.2755153 118.9497398
 121.7654239  33.0240803 114.4119014 121.1852908  33.6825607 114.0297066
 121.4990172  32.2018148 114.0006431 120.2157806  32.4245861 116.6140334
 120.7157584  32.5362395 115.8054653 120.8593414  32.1206914 117.2541142
 114.2739801  40.3324490 129.5008175 113.7906883  41.1324850 129.7072064
 114.3600741  40.3432435 128.5475619 107.5425761  42.1652870 117.4229994
 107.5196449  42.2640557 116.4711877 107.8526398  43.0118021 117.7447160
 110.2013139  44.2229025 121.5376609 111.1556393  44.1912967 121.4706540
 110.0025663  43.7619649 122.3526835 110.7912521  42.7930141 124.1047406
 111.6105410  43.2874220 124.1282244 111.0649329  41.8762109 124.0764974
 120.5479117  35.1840893 113.4675362 119.6604972  35.4690544 113.2495557
 120.9633106  35.0234657 112.6202639 123.8993653  35.2087414 117.1829701
 124.6754044  35.6983867 117.4554318 123.1741788  35.6345469 117.6401571
 126.3366212  35.9215034 118.2403642 126.9310703  35.6810770 117.5296950
 126.4092796  35.2022164 118.8677178 108.5563368  49.7648644 118.5546807
 108.4217836  49.0049045 117.9884805 108.1395430  50.4889544 118.0875595
 119.6922331  44.9485568 107.5623382 120.3958181  45.1535571 108.1781037
 118.9684980  45.5162330 107.8272465 120.5220141  40.6995429 113.6825652
 120.4655342  41.1563981 112.8433284 121.0748484  39.9386114 113.5048495
 124.3324947  36.4885161 114.5075771 124.0761881  36.0881797 115.3383979
 123.7077815  37.2028955 114.3825911 128.6437285  39.2281234 117.0147063
 128.0836843  39.2974424 117.7878625 128.0380788  39.0522219 116.2946559
 111.7132494  50.6617962 118.7665249 111.5964878  51.6063394 118.6643939
 110.8924940  50.3591523 119.1551048 121.6009028  45.3868097 109.6121842
 122.4354632  44.9549296 109.4299317 121.4393371  45.2150111 110.5398736
 121.2554920  41.8900211 110.9778181 121.2003724  41.7244482 110.0366625
 120.6300976  42.5976243 111.1340371 106.0447435  37.1268275 124.8039603
 106.6906299  36.6167229 125.2926829 105.8364586  37.8636957 125.3783029
 118.5700828  44.1949122 130.3031744 119.4391987  44.3689775 129.9418379
 118.0907579  45.0143539 130.1807473 114.5651046  31.3908320 110.5563500
 114.5529716  32.3350159 110.7131770 115.4574468  31.2078465 110.2622961
 112.7387008  51.3146223 121.9821178 113.6414254  51.3469834 122.2987673
 112.5124378  50.3846674 121.9967513 114.4940610  50.0677210 118.6431256
 113.5436241  50.0679072 118.5295629 114.7973096  49.3209945 118.1267291
 118.3803165  27.9851096 114.8109436 117.6135561  27.4309583 114.9566119
 118.7913870  28.0572965 115.6723588 110.3844926  34.2735892 128.9014618
 111.2476388  33.9172697 129.1117942 109.8110337  33.9349787 129.5890022
 130.2293303  55.9037748 119.7077019 130.8671713  55.7844496 119.0040359
 130.1114146  56.8518592 119.7664971 127.0383010  55.8565176 119.6438543
 126.7001521  55.7406241 118.7559078 127.9072778  55.4556342 119.6239549
 122.8969825  57.7100653 115.6335434 122.3334690  57.6190590 114.8651722
 122.7822220  56.8900557 116.1137927 127.5202793  57.0100028 125.6024749
 127.5091433  56.6152826 124.7305253 127.6823432  56.2766101 126.1958520
 120.4434257  59.2051844 118.4719655 121.2355549  58.8642669 118.0565954
 120.6830907  59.3146820 119.3921808 128.4769384  61.3771621 110.9449899
 127.8257364  61.9625701 110.5583913 129.2713747  61.9077815 111.0044937
 122.4025011  58.4660758 111.3437034 123.1755887  57.9189745 111.2049909
 122.7550410  59.3305007 111.5551495 124.2410054  59.7937140 124.5503933
 123.9499920  60.6982771 124.4350599 124.8767038  59.8353668 125.2648002
 125.1666261  57.1713988 121.1405292 125.7629833  56.9470011 120.4262255
 125.2241232  56.4298734 121.7430740 124.7391289  54.6253424 108.9755483
 124.9916810  54.1034945 108.2138946 123.8015848  54.4619569 109.0782167
 129.7834572  53.6289202 116.7830227 130.5697661  53.2108625 116.4320644
 130.0473276  54.5335294 116.9511875 129.9544649  59.0662052 111.4818883
 129.3190482  59.1396679 112.1939788 129.6242056  59.6555651 110.8037963
 135.1842999  53.5664435 117.6863205 135.9168171  52.9963652 117.9201035
 134.4282355  53.1786036 118.1269711 124.4587578  56.5281530 111.1779858
 124.3423836  55.8526433 111.8460943 124.5689838  56.0413904 110.3612011
 126.8019119  55.9891677 114.8826548 126.4377326  55.4622298 115.5939469
 127.6586235  55.5990146 114.7093033 132.7068419  47.2786009 122.1457814
 132.3751744  48.1481420 121.9219029 132.1114033  46.9622293 122.8251844
 126.4424606  51.0181577 109.8787896 126.6099008  51.8861813 110.2458367
 126.2521775  51.1808858 108.9549185 129.1999939  59.4798555 121.5453727
 128.9000662  60.3823594 121.4369534 128.8550998  59.2130739 122.3974879
 122.6512420  55.9312352 117.5790431 121.7262917  55.7988566 117.7868123
 122.8996833  56.7106572 118.0760373 132.5997083  51.9981096 119.2251164
 131.6913960  51.9296504 118.9309925 132.5484678  52.4753041 120.0532989
 126.4213826  53.4739234 110.8634563 126.3013452  53.9196285 111.7020043
 125.7266415  53.8224552 110.3048101 120.0121231  55.5745626 118.4134220
 120.1413612  55.8280105 119.3273632 119.3318683  56.1673334 118.0938875
 124.1820719  66.2442876 114.5124694 124.1044748  67.1950701 114.5913175
 123.5782362  65.8988748 115.1699621 126.6737948  53.4170741 127.1686061
 125.8971282  53.9764661 127.1588926 127.3128511  53.9027524 127.6900931
 134.4658729  50.1997534 121.0029038 133.8233109  50.4930067 120.3568832
 133.9613657  50.0850454 121.8082234 132.1198893  53.9460707 111.6914897
 133.0316749  54.1788094 111.5162595 131.6108540  54.5297751 111.1289976
 124.9284321  56.2256195 126.7304028 125.6699005  56.7641239 126.4538852
 124.2221306  56.8522483 126.8875580 130.4039660  58.3685335 125.3276190
 130.8123016  57.9267746 124.5830822 129.6816922  57.7937963 125.5810382
 126.7570730  53.3057942 122.7009747 127.6031926  53.7297355 122.8444396
 126.6969368  52.6491566 123.3948310 130.7268475  58.9286526 119.0828478
 130.0977337  59.0932240 118.3804546 130.3394137  59.3428135 119.8539443
 134.6057707  59.8640964 116.4372842 133.9208745  60.2439865 115.8869876
 134.6901556  60.4736290 117.1704790 129.9070176  50.9662310 124.3590920
 129.6631108  51.7204371 123.8225196 130.1830106  51.3447658 125.1938167
 131.8608638  57.5100923 123.0368186 132.0725534  58.1532682 122.3602567
 131.8138387  56.6763239 122.5690116 129.4634867  50.1218743 119.9404758
 128.6019346  50.4199997 120.2321495 129.4897302  50.3389142 119.0085791
 126.2796437  58.6660934 116.3478564 126.7434782  58.9448637 115.5583186
 126.0153235  57.7644378 116.1651654 123.1720518  58.2132415 119.2858327
 123.7421875  58.6419684 118.6475811 123.7628630  57.9315000 119.9842513
 125.2165323  54.7884086 113.1568129 125.9189366  55.2405130 113.6242055
 124.8845951  54.1467905 113.7848022 123.6645684  53.3795843 127.5319338
 123.0344345  54.0612124 127.7654735 123.5581772  53.2678924 126.5872476
 118.9590657  53.0467639 118.4585262 118.1689711  53.3025167 117.9825373
 119.4501904  53.8615977 118.5637303 132.9754466  60.3872878 121.2090543
 133.7971910  59.9853065 120.9273225 132.9716869  60.2841112 122.1606659
 120.9105402  53.4112218 115.4168739 120.1136565  53.5230912 115.9352235
 120.6830994  53.7498870 114.5509630 126.7411070  59.9356921 123.3651254
 126.8055502  60.3977329 124.2009425 126.0321994  59.3054286 123.4933563
 117.2428360  53.2998129 120.8900253 117.4936398  54.1845139 121.1557829
 117.7787908  53.1202731 120.1175345 141.0660459  56.7311626 117.5575515
 140.3124168  56.1619025 117.4019519 141.2008001  56.6974291 118.5046149
 126.4559087  61.6025029 113.2330234 126.3204762  62.4476565 113.6615082
 126.9968900  61.8044306 112.4696168 122.9426427  47.6816609 129.8944589
 122.5493373  47.1282807 130.5692233 123.7592567  47.9927187 130.2851107
 119.9088485  59.1200467 113.8058159 120.4213005  59.9143717 113.9563724
 120.5611198  58.4226757 113.7391760 121.7183370  62.2366223 115.8880912
 121.8949998  63.1584188 115.7001896 122.5140203  61.9224642 116.3175292
 125.8594388  49.0974488 127.4864846 126.6004101  49.6981641 127.4069308
 126.0912311  48.3552126 126.9282888 121.0035726  54.2830855 125.7643075
 120.8889241  53.3816112 126.0650174 120.1480244  54.5294552 125.4127892
 128.0827564  62.2248595 127.3630576 127.6391418  61.4384974 127.0451481
 128.7444777  62.4127746 126.6974467 122.8414685  63.7544397 121.8891255
 123.3922110  63.6261460 121.1168248 122.0026161  64.0539286 121.5386147
 130.1808802  62.5051395 125.3911977 130.1627277  63.3260276 124.8992246
 131.1028722  62.3805470 125.6162118 126.6381856  60.0195525 126.2335486
 127.1710193  59.2583813 126.0034794 126.1095937  59.7269177 126.9759640
 129.8051551  45.1255591 121.7629127 129.4615820  46.0157232 121.6868238
 130.1730514  44.9357248 120.8998712 117.8737402  57.4489121 114.5817730
 118.7112624  57.8586129 114.3651437 118.0515669  56.5088563 114.5517923
 129.7701834  55.1164202 110.2701563 129.2548457  55.8868806 110.5089950
 129.4979142  54.4429338 110.8934624 127.3548945  49.9613903 115.3286801
 126.4990541  49.5720753 115.1492440 127.7675897  50.0405863 114.4686586
 128.8848091  47.4960246 119.7278361 128.3812887  47.4590381 118.9146166
 129.1778698  48.4052989 119.7875017 125.1290977  47.5798976 118.7344542
 125.9943974  47.3841784 118.3750432 125.1968486  47.3509327 119.6613899
 134.7436108  57.8696556 112.2054736 133.9665551  57.5307716 111.7609898
 135.4227589  57.8749180 111.5309701 129.5588137  52.9891294 112.0961344
 129.2538273  53.3037443 112.9471487 130.5118579  53.0672714 112.1388677
 128.0034569  59.1481517 113.7454298 127.4755930  58.4134277 113.4327535
 127.5022072  59.9256194 113.4994266 132.9827415  57.3430538 118.8621344
 132.3251089  58.0329799 118.9501473 133.7867814  57.7326970 119.2055330
 122.7353296  49.8101183 116.1060909 123.3097048  49.5876365 115.3734102
 123.3224279  49.8789878 116.8589510 131.7932874  55.6974910 116.9125286
 132.3064755  56.3304902 117.4146995 132.4434097  55.0976106 116.5468646
 123.0622883  51.8405645 110.1256794 122.2260196  52.1780331 110.4466069
 122.9227653  51.7054624 109.1883931 125.0375964  46.6842432 114.8335979
 124.3840376  46.3691450 114.2092593 124.9956438  46.0618173 115.5595802
 126.1487169  56.9661727 106.7489271 125.2414231  56.7350981 106.9480420
 126.6458201  56.1699347 106.9363252 129.0555248  65.6759235 109.6685957
 128.3816947  65.9790931 110.2770915 129.4421070  66.4788315 109.3191414
 128.2713704  53.1724366 119.1583626 127.3536266  53.3939313 119.0005314
 128.6873848  53.2470676 118.2995334 129.0548752  54.5715782 114.2886307
 129.8020571  55.0837179 113.9793429 129.3240342  54.2499834 115.1490700
 127.3275402  57.0674322 111.2713261 126.4186622  56.7833355 111.3685731
 127.3570486  57.4873401 110.4116568 132.5594670  60.6780912 115.0404428
 132.1056997  59.8371822 115.0969619 131.9288637  61.3142310 115.3779209
 131.5027589  51.6072898 116.2705096 130.7650346  51.0950284 116.6015338
 131.7554363  51.1673279 115.4588373 131.0027609  62.5157409 115.9754247
 131.2950583  63.0762466 115.2566612 131.5126230  62.8085970 116.7307406
 131.6039217  44.3849150 116.8646865 131.9098094  43.5246513 116.5772780
 132.3291822  44.9766770 116.6645859 117.8963573  54.7879836 115.2528463
 117.6987973  54.1949197 114.5279530 117.3410237  54.4832047 115.9704402
 125.8760296  54.6802943 117.3723056 125.9308906  53.7276779 117.2965533
 125.0651498  54.8362382 117.8564355 127.0251490  58.6083066 108.6101339
 126.5870920  57.8918925 108.1506977 127.7661931  58.8359181 108.0486431
 123.8152656  53.2980003 115.1313435 123.0020522  53.5974173 115.5378627
 124.3111651  52.9035691 115.8487917 125.9661234  63.2937760 117.0647700
 125.9237413  63.5198606 116.1356232 126.8823933  63.0601134 117.2133501
 129.4126868  53.7621827 123.9628329 129.7676256  53.9893300 124.8222795
 130.0598999  54.0940204 123.3405584 135.1424605  56.8840263 114.6677658
 135.0042504  57.0741859 113.7398847 134.7860824  57.6459646 115.1245709
 123.3066731  50.8698358 120.7474670 123.9466110  50.7287117 120.0497633
 122.4744262  50.5832872 120.3713272 135.1693985  58.9516790 119.6788929
 135.6030491  58.8592079 120.5271983 135.8825565  58.9274291 119.0408945
 124.0827035  60.1700789 116.8609662 124.8767634  59.6751109 116.6592237
 123.3718727  59.6418652 116.4977368 128.9021879  62.5518884 121.2122030
 128.9558902  63.1209820 121.9799746 128.0336661  62.7220769 120.8476067
 120.3909798  54.3143870 112.9369415 119.4607387  54.2528326 113.1539377
 120.4867270  53.7919823 112.1406056 120.3095348  50.8398683 115.5247657
 120.5702165  51.7544016 115.4156817 121.1312520  50.3723126 115.6744270
 121.7820273  52.2536440 122.6946481 122.4543326  52.0453802 122.0459130
 120.9550059  52.0558526 122.2551714 136.0309534  58.9940491 122.2121815
 136.2245424  59.8986301 122.4581090 135.9310152  58.5347910 123.0460400
 127.6845845  48.8798381 124.7112142 127.0373760  49.5788331 124.6176619
 128.4546860  49.3134525 125.0788390 131.0924643  59.1447233 127.7862695
 130.9410149  58.9157785 126.8692779 131.0829322  60.1017835 127.7994040
 127.8609979  56.7179146 122.7708962 128.7902039  56.8690306 122.5977929
 127.4401009  56.8063167 121.9157608 126.6598311  60.7429811 120.5407500
 126.5209397  60.3748595 121.4133438 125.8712907  61.2577450 120.3691457
 127.2546463  65.8438907 111.8833036 127.4298219  65.3726950 112.6978659
 126.5679251  66.4704673 112.1114297 128.2103526  60.1211413 117.9296337
 127.8753359  60.0812183 118.8253987 127.7107472  59.4556129 117.4566748
 122.1847770  55.5279043 123.4548918 122.0467568  54.7959282 124.0560458
 123.0952694  55.4387943 123.1733106 131.1462718  57.4667448 108.2033397
 130.5291888  56.7414276 108.1066450 130.6779206  58.2276808 107.8600471
 124.8130071  55.2399003 122.9432598 125.5229689  54.5992195 122.9019217
 124.7699379  55.4911898 123.8658779 132.8016849  62.1766356 125.8639177
 132.7429396  61.4925576 125.1969760 133.2036368  62.9185346 125.4119803
 123.5259005  52.2264221 124.7628238 122.9896362  51.7754959 125.4149834
 122.9375713  52.3610129 124.0198702 121.8207548  68.9928270 118.6572896
 122.0604146  69.6246794 119.3351915 120.9776745  68.6416310 118.9438255
 122.9361264  51.6852872 107.3254701 122.0590730  51.5641673 106.9616948
 123.4119017  50.8938950 107.0733590 132.8034257  60.1405940 124.0953157
 131.9161036  59.8031862 124.2179556 133.3732808  59.4088971 124.3321922
 114.4563404  56.4730032 117.4196208 115.1434444  56.1591762 116.8317224
 114.3011533  57.3771396 117.1463460 119.2598126  51.3620228 121.8481232
 119.1756315  50.7545898 121.1131642 118.4380832  51.8529247 121.8490728
 126.3335410  64.8007392 121.0614400 126.2605582  65.6062364 121.5733705
 125.8912803  64.9999358 120.2362422 126.1225190  64.0379162 114.5717222
 125.3392712  64.5800842 114.6655446 126.8217935  64.5553142 114.9711463
 129.4321840  49.8473792 117.2151427 129.9290539  49.0943754 116.8952497
 128.6608821  49.8838108 116.6494636 137.2851597  55.5514157 118.8569719
 137.2741474  56.4338873 118.4863652 136.4168977  55.1985708 118.6624256
 128.7934094  64.6994226 123.2172559 129.5062066  65.3341691 123.1448460
 128.3024122  64.7958092 122.4012561 130.5151621  58.6045479 114.7889851
 129.5807899  58.7246941 114.6194555 130.6928289  57.7017946 114.5249860
 126.0156809  51.9891175 116.9423112 125.6454596  51.4362215 117.6304017
 126.5115901  51.3849308 116.3898112 133.9024172  54.4462798 115.3239885
 134.3684624  55.2790790 115.2500187 134.3531672  53.9807780 116.0285143
 123.8446007  62.4488670 124.0378130 124.5455467  63.0825153 124.1907524
 123.3741122  62.7903401 123.2773769 131.9700403  60.7906620 112.3226037
 132.2460247  60.6763214 113.2319911 131.1004902  60.3924104 112.2838210
 131.8740835  46.8143385 119.3630786 130.9603914  47.0447612 119.5312993
 132.3033936  46.8981829 120.2144818 131.6447293  55.0033277 121.8630680
 130.9918743  55.2509185 121.2083133 132.0227673  54.1897415 121.5293157
 128.6054467  65.0392970 115.9658850 128.7876862  64.2214626 116.4286603
 129.4287453  65.2560663 115.5283740 128.9396633  63.9661156 113.2273899
 129.4684399  63.4553610 112.6144061 129.2024852  63.6503686 114.0919432
 127.6934866  55.7453088 128.3496717 127.0175503  55.6447218 129.0199092
 128.5162500  55.5892302 128.8132714 119.4413725  61.9825025 120.9709232
 120.0267162  61.2368713 121.1037137 119.2438564  62.2928982 121.8545896
 122.2952380  65.0176272 115.9871675 121.6262756  65.5022400 115.5035715
 122.1565250  65.2645493 116.9015053 114.0331380  54.5530625 119.6913676
 114.0715479  54.0194216 120.4850794 113.5271673  54.0265831 119.0724653
 126.4357649  67.0520016 122.5854333 126.9875957  67.2151637 123.3503418
 126.7763843  67.6424454 121.9134358 121.4122142  49.3995166 123.1876218
 121.4763469  50.2609996 122.7753616 121.3489263  48.7869167 122.4548576
 120.8874415  51.4718298 126.8349252 121.5146454  51.0895375 127.4486776
 120.0302334  51.2532500 127.2004945 131.2868523  61.8781273 128.4402988
 131.8308427  62.4911232 127.9457942 130.7055368  62.4360852 128.9570001
 117.6639958  53.2794727 112.7667607 117.9593399  52.3705406 112.7134661
 116.7627993  53.2582467 112.4448609 129.5726036  65.0001991 119.5718015
 129.4477176  64.1991731 119.0628961 130.2305127  65.4948185 119.0831985
 121.1934205  51.3550724 118.7495156 120.4720790  51.9686691 118.6102629
 121.9827460  51.8908489 118.6711801 131.6360945  62.8011011 121.1997565
 130.6891280  62.6816363 121.1275892 131.9843718  61.9133509 121.2823827
 123.9960518  48.6905150 125.0235807 124.5194920  48.9367447 125.7862117
 123.7772851  49.5225185 124.6038945 119.3927799  50.9608825 112.8906932
 119.0640505  50.0806204 112.7082038 119.7467170  50.9056494 113.7783321
 128.6407378  62.5963728 117.4001918 128.4932340  61.6680435 117.5809488
 129.4660872  62.6183818 116.9158993 122.5069622  51.2481795 113.2582410
 122.8465695  51.7767716 112.5361018 122.9541743  51.5862201 114.0340976
 132.2441500  63.4192286 118.4866790 133.1688047  63.2135148 118.3491241
 132.0756803  63.1708687 119.3956132 125.2013063  49.6318845 122.7085478
 124.8609883  48.8326658 123.1106158 124.4952069  49.9320556 122.1362311
 125.8529535  46.7168158 121.1612801 126.6755604  46.2428636 121.0391691
 126.0967598  47.4958642 121.6611487 124.4937769  49.7456416 111.4575702
 125.2146132  50.1237669 110.9539419 123.8703074  50.4645293 111.5610680
 128.6368892  50.4501565 112.3934035 128.8532507  51.3326203 112.0922863
 128.1562959  50.0587779 111.6639677 123.3768114  53.4087278 118.9704779
 123.2312694  53.7227581 119.8629061 122.8993317  54.0272179 118.4175678
 125.2364497  50.3989826 119.0185669 125.2226065  49.5030920 118.6817967
 125.9536925  50.4060490 119.6523955 127.0890627  50.8327167 121.0638796
 126.8308405  51.7544237 121.0623127 126.5575668  50.4357601 121.7539261
 132.0336816  63.9377954 113.8428882 132.2073694  63.3724376 113.0902734
 132.5265707  64.7378849 113.6608372 117.8513776  55.9492623 121.9092441
 117.3067244  56.7252431 122.0412715 118.7293126  56.2963427 121.7511562
 124.6401393  49.2804207 114.2873239 124.7617304  48.3520853 114.4864127
 124.3503435  49.2942893 113.3751555 127.5092583  46.9659117 117.4239959
 127.5314280  47.0298450 116.4691939 127.9260642  46.1263626 117.6180465
 137.8876207  56.7014377 115.4619182 138.3307353  55.9521702 115.0638305
 137.0102718  56.6924513 115.0792914 133.0211989  63.2544718 110.9425780
 133.7162893  63.8751411 111.1613095 133.3635139  62.4040069 111.2178158
 118.6379798  55.0762519 124.8022597 117.8961534  55.2245154 125.3887228
 118.3172542  55.3370785 123.9389347 134.9203412  60.7044424 112.4713111
 135.4454736  61.0431696 111.7462431 134.8325764  59.7691439 112.2876245
 126.5823460  64.6178497 124.6002987 126.8910587  64.3727644 125.4725687
 127.3798942  64.8225136 124.1121858 126.6044072  66.7716407 116.8308364
 126.1649063  66.2792786 117.5241221 127.3552189  66.2289375 116.5900439
 119.0836411  62.9627948 116.8332992 119.9094431  62.6631720 116.4531636
 118.7330463  62.1935570 117.2822781 124.0517945  62.3154416 118.9030666
 123.4297954  61.6525121 118.6032894 124.7222811  62.3415548 118.2204313
 117.2845016  60.8814274 117.7921926 116.4476925  60.4536449 117.6105927
 117.2568662  61.0746718 118.7292717 124.1242472  50.7936204 128.4963172
 124.1730628  51.6698327 128.1140941 124.6664986  50.2513597 127.9234815
 134.6097318  61.3377327 127.7764309 133.8192861  61.3201466 127.2368808
 134.3730672  61.8765621 128.5313345 134.7295193  58.1869794 125.0897037
 134.7793198  58.0219801 126.0312560 134.6209116  57.3197053 124.6994918
 123.6131451  60.8658339 112.3789126 123.7619572  61.5493804 111.7255799
 124.4197895  60.8463429 112.8938582 132.0198955  54.1700722 126.4056344
 132.9208818  54.0307187 126.1140342 132.0946930  54.3355177 127.3454521
 126.3541761  51.5467576 125.2509530 125.4845070  51.8401143 124.9792119
 126.5901241  52.1308021 125.9716794 136.2313390  60.6066735 125.3339059
 135.9398198  60.9696716 126.1702520 135.6185521  59.8933743 125.1552391
 137.4309072  58.1719615 117.8541629 138.2655963  58.6109419 118.0179189
 137.5668201  57.6958268 117.0349875 134.4800578  55.7299350 123.8019117
 134.9554699  55.9226996 122.9937968 133.5566143  55.7858536 123.5562501
 121.3684084  56.8923517 113.3850195 121.1230126  55.9885847 113.5830405
 121.5379999  56.8940667 112.4429673 129.0580794  47.7647193 122.7674951
 129.5762738  48.5008220 122.4421439 128.7035927  48.0711187 123.6021710
 120.6379732  52.6251875 110.8836357 119.9448977  52.6996230 110.2276393
 120.3931484  51.8612218 111.4057874 129.3093389  44.1847476 118.2875847
 129.5895142  43.5170665 118.9136274 130.0943995  44.3776572 117.7750511
 127.1126857  63.3606470 109.8500874 126.5400824  63.9796657 109.3971346
 127.6859651  63.9105832 110.3840796 133.1802247  52.6065110 122.0347422
 134.1319670  52.7063208 122.0559647 133.0105697  51.8143378 122.5445507
 131.2016626  49.6920693 122.2206823 130.6066558  49.9725706 121.5253312
 130.9166323  50.1814594 122.9923564 130.3324117  63.6443620 110.9809456
 131.2654790  63.5789182 111.1842331 130.2447330  64.4799887 110.5223989
 132.9612133  62.9609490 107.9413404 132.8825765  62.6269354 108.8349161
 133.7821800  63.4531258 107.9404876 135.6590325  55.8271230 121.1489722
 135.6266645  54.8887230 121.3349406 136.2690948  55.9055266 120.4155547
 127.4973656  54.6967283 107.1916926 128.4432760  54.5673491 107.2605344
 127.1187900  53.9581944 107.6686354 135.8084813  52.6182273 121.1948005
 135.2923862  51.8340730 121.0077934 136.6924762  52.2900990 121.3594525
 133.4695540  46.3623289 117.1543818 133.2720361  46.0538377 118.0387150
 134.0795246  47.0884928 117.2841748 141.4766875  56.8887236 120.2895759
 142.2070263  56.6272525 120.8503462 140.8673820  56.1515958 120.3297827
 139.5582172  55.0295099 120.8870210 138.8315335  54.8951064 120.2786702
 139.1429459  55.3371928 121.6926928 127.3812348  58.7485029 128.6517583
 128.3015358  58.9263628 128.8457630 127.3461931  57.8041074 128.4997282
 125.6816573  52.6217259 107.1271811 124.7748028  52.3250372 107.2034525
 125.9592554  52.3247077 106.2606098 116.5994513  53.9423622 117.5770858
 116.2797297  53.0888931 117.2845232 116.0527941  54.1572201 118.3328825
 120.3774421  56.6586063 121.2940364 120.5960430  57.5903171 121.3128398
 120.7900194  56.2994038 122.0795168 127.2978638  47.1654149 113.2816053
 126.4879367  46.8201234 113.6571299 127.9863055  46.8561692 113.8703664
 129.2269187  46.2432196 114.9040349 129.7800225  46.6627649 115.5630372
 129.4639273  45.3167944 114.9463305 125.2502286  52.2319269 130.6843113
 125.1499013  53.1813626 130.6155204 125.0323828  51.9037508 129.8119183
 124.4515357  49.4804194 107.2683791 125.3134521  49.8059093 107.5279608
 124.6365701  48.6935690 106.7556856 116.4682773  57.5626534 119.5463979
 115.7746244  57.1480487 119.0333934 117.2155764  57.6047070 118.9497398
 132.6047994  48.3532721 114.4119014 132.0246663  49.0117525 114.0297066
 132.3383926  47.5310065 114.0006431 131.0551560  47.7537778 116.6140334
 131.5551338  47.8654313 115.8054653 131.6987168  47.4498831 117.2541142
 125.1133556  55.6616408 129.5008175 124.6300638  56.4616768 129.7072064
 125.1994495  55.6724353 128.5475619 118.3819516  57.4944788 117.4229994
 118.3590204  57.5932475 116.4711877 118.6920152  58.3409938 117.7447160
 121.0406893  59.5520943 121.5376609 121.9950147  59.5204885 121.4706540
 120.8419417  59.0911566 122.3526835 121.6306276  58.1222059 124.1047406
 122.4499165  58.6166137 124.1282244 121.9043083  57.2054027 124.0764974
 131.3872872  50.5132811 113.4675362 130.4998727  50.7982462 113.2495557
 131.8026861  50.3526574 112.6202639 134.7387408  50.5379332 117.1829701
 135.5147798  51.0275784 117.4554318 134.0135542  50.9637386 117.6401571
 137.1759967  51.2506951 118.2403642 137.7704457  51.0102687 117.5296950
 137.2486550  50.5314082 118.8677178 119.3957122  65.0940562 118.5546807
 119.2611590  64.3340963 117.9884805 118.9789185  65.8181462 118.0875595
 130.5316085  60.2777486 107.5623382 131.2351935  60.4827488 108.1781037
 129.8078734  60.8454248 107.8272465 131.3613896  56.0287347 113.6825652
 131.3049097  56.4855898 112.8433284 131.9142238  55.2678032 113.5048495
 135.1718701  51.8177079 114.5075771 134.9155636  51.4173715 115.3383979
 134.5471569  52.5320873 114.3825911 139.4831039  54.5573152 117.0147063
 138.9230597  54.6266341 117.7878625 138.8774543  54.3814137 116.2946559
 122.5526248  65.9909879 118.7665249 122.4358632  66.9355312 118.6643939
 121.7318694  65.6883441 119.1551048 132.4402783  60.7160015 109.6121842
 133.2748387  60.2841213 109.4299317 132.2787126  60.5442029 110.5398736
 132.0948675  57.2192128 110.9778181 132.0397479  57.0536400 110.0366625
 131.4694730  57.9268161 111.1340371 116.8841190  52.4560193 124.8039603
 117.5300053  51.9459147 125.2926829 116.6758341  53.1928874 125.3783029
 129.4094582  59.5241040 130.3031744 130.2785742  59.6981692 129.9418379
 128.9301333  60.3435457 130.1807473 125.4044800  46.7200237 110.5563500
 125.3923470  47.6642077 110.7131770 126.2968222  46.5370383 110.2622961
 123.5780762  66.6438141 121.9821178 124.4808009  66.6761751 122.2987673
 123.3518132  65.7138592 121.9967513 125.3334364  65.3969128 118.6431256
 124.3829995  65.3970989 118.5295629 125.6366850  64.6501862 118.1267291
 129.2196920  43.3143014 114.8109436 128.4529316  42.7601501 114.9566119
 129.6307625  43.3864883 115.6723588 121.2238681  49.6027810 128.9014618
 122.0870142  49.2464615 129.1117942 120.6504091  49.2641704 129.5890022
 141.0687058  71.2329666 119.7077019 141.7065468  71.1136413 119.0040359
 140.9507901  72.1810510 119.7664971 137.8776764  71.1857094 119.6438543
 137.5395276  71.0698159 118.7559078 138.7466532  70.7848259 119.6239549
 133.7363580  73.0392571 115.6335434 133.1728445  72.9482507 114.8651722
 133.6215975  72.2192475 116.1137927 138.3596547  72.3391946 125.6024749
 138.3485188  71.9444744 124.7305253 138.5217186  71.6058018 126.1958520
 131.2828012  74.5343762 118.4719655 132.0749304  74.1934587 118.0565954
 131.5224662  74.6438737 119.3921808 139.3163138  76.7063538 110.9449899
 138.6651118  77.2917619 110.5583913 140.1107501  77.2369733 111.0044937
 133.2418766  73.7952675 111.3437034 134.0149642  73.2481662 111.2049909
 133.5944164  74.6596925 111.5551495 135.0803808  75.1229058 124.5503933
 134.7893674  76.0274688 124.4350599 135.7160793  75.1645585 125.2648002
 136.0060015  72.5005906 121.1405292 136.6023587  72.2761929 120.4262255
 136.0634987  71.7590652 121.7430740 135.5785043  69.9545342 108.9755483
 135.8310564  69.4326863 108.2138946 134.6409603  69.7911487 109.0782167
 140.6228326  68.9581120 116.7830227 141.4091415  68.5400543 116.4320644
 140.8867031  69.8627212 116.9511875 140.7938404  74.3953970 111.4818883
 140.1584237  74.4688597 112.1939788 140.4635810  74.9847569 110.8037963
 146.0236753  68.8956353 117.6863205 146.7561925  68.3255570 117.9201035
 145.2676109  68.5077954 118.1269711 135.2981332  71.8573447 111.1779858
 135.1817590  71.1818351 111.8460943 135.4083592  71.3705821 110.3612011
 137.6412873  71.3183595 114.8826548 137.2771080  70.7914216 115.5939469
 138.4979989  70.9282064 114.7093033 143.5462174  62.6077927 122.1457814
 143.2145499  63.4773338 121.9219029 142.9507787  62.2914211 122.8251844
 137.2818360  66.3473494 109.8787896 137.4492762  67.2153731 110.2458367
 137.0915529  66.5100776 108.9549185 140.0393693  74.8090473 121.5453727
 139.7394416  75.7115512 121.4369534 139.6944753  74.5422656 122.3974879
 133.4906175  71.2604270 117.5790431 132.5656671  71.1280484 117.7868123
 133.7390588  72.0398489 118.0760373 143.4390837  67.3273013 119.2251164
 142.5307714  67.2588422 118.9309925 143.3878433  67.8044958 120.0532989
 137.2607581  68.8031152 110.8634563 137.1407206  69.2488203 111.7020043
 136.5660169  69.1516469 110.3048101 130.8514986  70.9037544 118.4134220
 130.9807367  71.1572022 119.3273632 130.1712437  71.4965252 118.0938875
 135.0214473  81.5734794 114.5124694 134.9438503  82.5242619 114.5913175
 134.4176117  81.2280666 115.1699621 137.5131703  68.7462659 127.1686061
 136.7365037  69.3056579 127.1588926 138.1522266  69.2319442 127.6900931
 145.3052483  65.5289452 121.0029038 144.6626864  65.8221985 120.3568832
 144.8007412  65.4142372 121.8082234 142.9592647  69.2752625 111.6914897
 143.8710503  69.5080012 111.5162595 142.4502294  69.8589669 111.1289976
 135.7678075  71.5548112 126.7304028 136.5092759  72.0933156 126.4538852
 135.0615061  72.1814401 126.8875580 141.2433415  73.6977253 125.3276190
 141.6516771  73.2559663 124.5830822 140.5210676  73.1229880 125.5810382
 137.5964485  68.6349860 122.7009747 138.4425680  69.0589273 122.8444396
 137.5363122  67.9783484 123.3948310 141.5662229  74.2578443 119.0828478
 140.9371092  74.4224158 118.3804546 141.1787891  74.6720053 119.8539443
 145.4451461  75.1932881 116.4372842 144.7602499  75.5731783 115.8869876
 145.5295311  75.8028208 117.1704790 140.7463930  66.2954228 124.3590920
 140.5024862  67.0496288 123.8225196 141.0223861  66.6739576 125.1938167
 142.7002393  72.8392840 123.0368186 142.9119288  73.4824600 122.3602567
 142.6532141  72.0055157 122.5690116 140.3028622  65.4510661 119.9404758
 139.4413101  65.7491914 120.2321495 140.3291057  65.6681060 119.0085791
 137.1190191  73.9952851 116.3478564 137.5828537  74.2740554 115.5583186
 136.8546989  73.0936296 116.1651654 134.0114272  73.5424333 119.2858327
 134.5815629  73.9711601 118.6475811 134.6022384  73.2606918 119.9842513
 136.0559077  70.1176004 113.1568129 136.7583121  70.5697048 113.6242055
 135.7239706  69.4759823 113.7848022 134.5039439  68.7087760 127.5319338
 133.8738099  69.3904041 127.7654735 134.3975527  68.5970842 126.5872476
 129.7984411  68.3759557 118.4585262 129.0083465  68.6317085 117.9825373
 130.2895659  69.1907894 118.5637303 143.8148221  75.7164796 121.2090543
 144.6365665  75.3144983 120.9273225 143.8110624  75.6133030 122.1606659
 131.7499157  68.7404136 115.4168739 130.9530320  68.8522830 115.9352235
 131.5224749  69.0790788 114.5509630 137.5804824  75.2648839 123.3651254
 137.6449257  75.7269246 124.2009425 136.8715748  74.6346204 123.4933563
 128.0822114  68.6290047 120.8900253 128.3330153  69.5137057 121.1557829
 128.6181663  68.4494648 120.1175345 151.9054214  72.0603544 117.5575515
 151.1517922  71.4910942 117.4019519 152.0401755  72.0266209 118.5046149
 137.2952842  76.9316946 113.2330234 137.1598517  77.7768482 113.6615082
 137.8362654  77.1336224 112.4696168 133.7820182  63.0108526 129.8944589
 133.3887127  62.4574725 130.5692233 134.5986322  63.3219105 130.2851107
 130.7482239  74.4492385 113.8058159 131.2606760  75.2435635 113.9563724
 131.4004952  73.7518675 113.7391760 132.5577124  77.5658141 115.8880912
 132.7343752  78.4876105 115.7001896 133.3533958  77.2516560 116.3175292
 136.6988143  64.4266405 127.4864846 137.4397856  65.0273559 127.4069308
 136.9306065  63.6844043 126.9282888 131.8429481  69.6122773 125.7643075
 131.7282996  68.7108030 126.0650174 130.9873998  69.8586469 125.4127892
 138.9221318  77.5540513 127.3630576 138.4785173  76.7676892 127.0451481
 139.5838532  77.7419663 126.6974467 133.6808440  79.0836315 121.8891255
 134.2315865  78.9553378 121.1168248 132.8419915  79.3831204 121.5386147
 141.0202556  77.8343313 125.3911977 141.0021032  78.6552194 124.8992246
 141.9422476  77.7097388 125.6162118 137.4775611  75.3487442 126.2335486
 138.0103947  74.5875731 126.0034794 136.9489692  75.0561094 126.9759640
 140.6445306  60.4547508 121.7629127 140.3009575  61.3449150 121.6868238
 141.0124268  60.2649166 120.8998712 128.7131156  72.7781039 114.5817730
 129.5506378  73.1878047 114.3651437 128.8909424  71.8380481 114.5517923
 140.6095588  70.4456119 110.2701563 140.0942212  71.2160724 110.5089950
 140.3372897  69.7721256 110.8934624 138.1942699  65.2905820 115.3286801
 137.3384296  64.9012671 115.1492440 138.6069651  65.3697781 114.4686586
 139.7241846  62.8252164 119.7278361 139.2206642  62.7882299 118.9146166
 140.0172453  63.7344906 119.7875017 135.9684732  62.9090893 118.7344542
 136.8337729  62.7133702 118.3750432 136.0362241  62.6801245 119.6613899
 145.5829862  73.1988474 112.2054736 144.8059305  72.8599634 111.7609898
 146.2621343  73.2041097 111.5309701 140.3981891  68.3183212 112.0961344
 140.0932027  68.6329361 112.9471487 141.3512334  68.3964631 112.1388677
 138.8428323  74.4773435 113.7454298 138.3149685  73.7426194 113.4327535
 138.3415826  75.2548111 113.4994266 143.8221169  72.6722455 118.8621344
 143.1644844  73.3621717 118.9501473 144.6261569  73.0618887 119.2055330
 133.5747051  65.1393101 116.1060909 134.1490803  64.9168283 115.3734102
 134.1618033  65.2081796 116.8589510 142.6326628  71.0266828 116.9125286
 143.1458510  71.6596820 117.4146995 143.2827852  70.4268024 116.5468646
 133.9016638  67.1697562 110.1256794 133.0653950  67.5072249 110.4466069
 133.7621408  67.0346542 109.1883931 135.8769719  62.0134350 114.8335979
 135.2234131  61.6983367 114.2092593 135.8350193  61.3910091 115.5595802
 136.9880923  72.2953645 106.7489271 136.0807985  72.0642899 106.9480420
 137.4851955  71.4991264 106.9363252 139.8949002  81.0051152 109.6685957
 139.2210701  81.3082849 110.2770915 140.2814824  81.8080233 109.3191414
 139.1107459  68.5016284 119.1583626 138.1930020  68.7231231 119.0005314
 139.5267603  68.5762594 118.2995334 139.8942507  69.9007699 114.2886307
 140.6414326  70.4129096 113.9793429 140.1634096  69.5791752 115.1490700
 138.1669157  72.3966240 111.2713261 137.2580376  72.1125273 111.3685731
 138.1964241  72.8165319 110.4116568 143.3988424  76.0072830 115.0404428
 142.9450751  75.1663739 115.0969619 142.7682391  76.6434228 115.3779209
 142.3421344  66.9364816 116.2705096 141.6044101  66.4242202 116.6015338
 142.5948117  66.4965197 115.4588373 141.8421364  77.8449326 115.9754247
 142.1344338  78.4054383 115.2566612 142.3519984  78.1377887 116.7307406
 142.4432971  59.7141068 116.8646865 142.7491848  58.8538431 116.5772780
 143.1685576  60.3058688 116.6645859 128.7357327  70.1171754 115.2528463
 128.5381727  69.5241115 114.5279530 128.1803991  69.8123964 115.9704402
 136.7154051  70.0094861 117.3723056 136.7702661  69.0568697 117.2965533
 135.9045253  70.1654300 117.8564355 137.8645245  73.9374984 108.6101339
 137.4264675  73.2210843 108.1506977 138.6055686  74.1651098 108.0486431
 134.6546411  68.6271920 115.1313435 133.8414276  68.9266091 115.5378627
 135.1505405  68.2327609 115.8487917 136.8054989  78.6229677 117.0647700
 136.7631168  78.8490524 116.1356232 137.7217688  78.3893052 117.2133501
 140.2520623  69.0913745 123.9628329 140.6070010  69.3185218 124.8222795
 140.8992754  69.4232122 123.3405584 145.9818359  72.2132181 114.6677658
 145.8436258  72.4033777 113.7398847 145.6254578  72.9751564 115.1245709
 134.1460486  66.1990276 120.7474670 134.7859865  66.0579035 120.0497633
 133.3138016  65.9124789 120.3713272 146.0087739  74.2808708 119.6788929
 146.4424246  74.1883997 120.5271983 146.7219320  74.2566208 119.0408945
 134.9220790  75.4992706 116.8609662 135.7161388  75.0043026 116.6592237
 134.2112482  74.9710569 116.4977368 139.7415634  77.8810802 121.2122030
 139.7952656  78.4501738 121.9799746 138.8730415  78.0512687 120.8476067
 131.2303553  69.6435788 112.9369415 130.3001141  69.5820244 113.1539377
 131.3261025  69.1211741 112.1406056 131.1489102  66.1690601 115.5247657
 131.4095919  67.0835934 115.4156817 131.9706274  65.7015043 115.6744270
 132.6214027  67.5828358 122.6946481 133.2937081  67.3745720 122.0459130
 131.7943814  67.3850444 122.2551714 146.8703289  74.3232408 122.2121815
 147.0639179  75.2278219 122.4581090 146.7703907  73.8639827 123.0460400
 138.5239599  64.2090299 124.7112142 137.8767514  64.9080249 124.6176619
 139.2940615  64.6426443 125.0788390 141.9318397  74.4739151 127.7862695
 141.7803904  74.2449703 126.8692779 141.9223077  75.4309753 127.7994040
 138.7003734  72.0471064 122.7708962 139.6295794  72.1982223 122.5977929
 138.2794764  72.1355085 121.9157608 137.4992066  76.0721728 120.5407500
 137.3603151  75.7040513 121.4133438 136.7106662  76.5869368 120.3691457
 138.0940217  81.1730825 111.8833036 138.2691973  80.7018868 112.6978659
 137.4073006  81.7996591 112.1114297 139.0497281  75.4503331 117.9296337
 138.7147113  75.4104101 118.8253987 138.5501226  74.7848047 117.4566748
 133.0241525  70.8570961 123.4548918 132.8861323  70.1251200 124.0560458
 133.9346448  70.7679861 123.1733106 141.9856472  72.7959365 108.2033397
 141.3685643  72.0706193 108.1066450 141.5172961  73.5568726 107.8600471
 135.6523825  70.5690920 122.9432598 136.3623444  69.9284113 122.9019217
 135.6093133  70.8203815 123.8658779 143.6410604  77.5058274 125.8639177
 143.5823150  76.8217494 125.1969760 144.0430122  78.2477264 125.4119803
 134.3652759  67.5556138 124.7628238 133.8290116  67.1046877 125.4149834
 133.7769468  67.6902047 124.0198702 132.6601303  84.3220188 118.6572896
 132.8997901  84.9538712 119.3351915 131.8170499  83.9708228 118.9438255
 133.7755018  67.0144790 107.3254701 132.8984485  66.8933590 106.9616948
 134.2512771  66.2230868 107.0733590 143.6428011  75.4697858 124.0953157
 142.7554790  75.1323779 124.2179556 144.2126562  74.7380889 124.3321922
 125.2957158  71.8021949 117.4196208 125.9828198  71.4883679 116.8317224
 125.1405287  72.7063314 117.1463460 130.0991880  66.6912146 121.8481232
 130.0150069  66.0837815 121.1131642 129.2774587  67.1821164 121.8490728
 137.1729165  80.1299310 121.0614400 137.0999336  80.9354281 121.5733705
 136.7306558  80.3291276 120.2362422 136.9618944  79.3671080 114.5717222
 136.1786466  79.9092760 114.6655446 137.6611689  79.8845060 114.9711463
 140.2715594  65.1765709 117.2151427 140.7684294  64.4235672 116.8952497
 139.5002576  65.2130026 116.6494636 148.1245352  70.8806075 118.8569719
 148.1135228  71.7630790 118.4863652 147.2562731  70.5277626 118.6624256
 139.6327848  80.0286144 123.2172559 140.3455820  80.6633609 123.1448460
 139.1417877  80.1250010 122.4012561 141.3545375  73.9337397 114.7889851
 140.4201654  74.0538859 114.6194555 141.5322044  73.0309863 114.5249860
 136.8550563  67.3183092 116.9423112 136.4848351  66.7654133 117.6304017
 137.3509656  66.7141226 116.3898112 144.7417926  69.7754716 115.3239885
 145.2078379  70.6082708 115.2500187 145.1925427  69.3099698 116.0285143
 134.6839762  77.7780587 124.0378130 135.3849221  78.4117070 124.1907524
 134.2134877  78.1195319 123.2773769 142.8094158  76.1198537 112.3226037
 143.0854001  76.0055132 113.2319911 141.9398656  75.7216022 112.2838210
 142.7134589  62.1435303 119.3630786 141.7997669  62.3739530 119.5312993
 143.1427691  62.2273747 120.2144818 142.4841048  70.3325195 121.8630680
 141.8312498  70.5801102 121.2083133 142.8621428  69.5189333 121.5293157
 139.4448222  80.3684888 115.9658850 139.6270616  79.5506544 116.4286603
 140.2681208  80.5852580 115.5283740 139.7790387  79.2953073 113.2273899
 140.3078153  78.7845528 112.6144061 140.0418607  78.9795603 114.0919432
 138.5328621  71.0745006 128.3496717 137.8569258  70.9739135 129.0199092
 139.3556255  70.9184220 128.8132714 130.2807480  77.3116942 120.9709232
 130.8660917  76.5660630 121.1037137 130.0832318  77.6220899 121.8545896
 133.1346135  80.3468190 115.9871675 132.4656510  80.8314318 115.5035715
 132.9959005  80.5937410 116.9015053 124.8725134  69.8822543 119.6913676
 124.9109234  69.3486133 120.4850794 124.3665427  69.3557748 119.0724653
 137.2751404  82.3811933 122.5854333 137.8269712  82.5443555 123.3503418
 137.6157597  82.9716371 121.9134358 132.2515897  64.7287083 123.1876218
 132.3157223  65.5901914 122.7753616 132.1883017  64.1161085 122.4548576
 131.7268169  66.8010216 126.8349252 132.3540208  66.4187293 127.4486776
 130.8696088  66.5824418 127.2004945 142.1262278  77.2073191 128.4402988
 142.6702182  77.8203149 127.9457942 141.5449123  77.7652769 128.9570001
 128.5033712  68.6086645 112.7667607 128.7987153  67.6997323 112.7134661
 127.6021748  68.5874384 112.4448609 140.4119791  80.3293909 119.5718015
 140.2870930  79.5283649 119.0628961 141.0698882  80.8240102 119.0831985
 132.0327959  66.6842641 118.7495156 131.3114545  67.2978609 118.6102629
 132.8221215  67.2200406 118.6711801 142.4754699  78.1302929 121.1997565
 141.5285035  78.0108280 121.1275892 142.8237472  77.2425427 121.2823827
 134.8354273  64.0197068 125.0235807 135.3588674  64.2659364 125.7862117
 134.6166606  64.8517103 124.6038945 130.2321554  66.2900743 112.8906932
 129.9034260  65.4098121 112.7082038 130.5860924  66.2348411 113.7783321
 139.4801133  77.9255645 117.4001918 139.3326095  76.9972353 117.5809488
 140.3054626  77.9475736 116.9158993 133.3463377  66.5773712 113.2582410
 133.6859449  67.1059634 112.5361018 133.7935497  66.9154118 114.0340976
 143.0835254  78.7484204 118.4866790 144.0081802  78.5427065 118.3491241
 142.9150558  78.5000605 119.3956132 136.0406818  64.9610763 122.7085478
 135.7003638  64.1618576 123.1106158 135.3345824  65.2612474 122.1362311
 136.6923289  62.0460075 121.1612801 137.5149359  61.5720554 121.0391691
 136.9361353  62.8250559 121.6611487 135.3331524  65.0748334 111.4575702
 136.0539886  65.4529587 110.9539419 134.7096828  65.7937211 111.5610680
 139.4762647  65.7793483 112.3934035 139.6926261  66.6618121 112.0922863
 138.9956714  65.3879696 111.6639677 134.2161868  68.7379196 118.9704779
 134.0706449  69.0519499 119.8629061 133.7387072  69.3564096 118.4175678
 136.0758251  65.7281744 119.0185669 136.0619820  64.8322837 118.6817967
 136.7930679  65.7352408 119.6523955 137.9284382  66.1619084 121.0638796
 137.6702160  67.0836155 121.0623127 137.3969422  65.7649519 121.7539261
 142.8730571  79.2669871 113.8428882 143.0467448  78.7016294 113.0902734
 143.3659462  80.0670766 113.6608372 128.6907530  71.2784540 121.9092441
 128.1460998  72.0544348 122.0412715 129.5686880  71.6255345 121.7511562
 135.4795147  64.6096124 114.2873239 135.6011058  63.6812771 114.4864127
 135.1897189  64.6234810 113.3751555 138.3486337  62.2951035 117.4239959
 138.3708034  62.3590368 116.4691939 138.7654396  61.4555543 117.6180465
 148.7269962  72.0306294 115.4619182 149.1701108  71.2813620 115.0638305
 147.8496472  72.0216431 115.0792914 143.8605743  78.5836636 110.9425780
 144.5556648  79.2043328 111.1613095 144.2028893  77.7331987 111.2178158
 129.4773552  70.4054437 124.8022597 128.7355288  70.5537072 125.3887228
 129.1566297  70.6662702 123.9389347 145.7597166  76.0336341 112.4713111
 146.2848490  76.3723614 111.7462431 145.6719519  75.0983357 112.2876245
 137.4217215  79.9470415 124.6002987 137.7304341  79.7019562 125.4725687
 138.2192697  80.1517053 124.1121858 137.4437827  82.1008325 116.8308364
 137.0042817  81.6084703 117.5241221 138.1945944  81.5581292 116.5900439
 129.9230166  78.2919865 116.8332992 130.7488186  77.9923637 116.4531636
 129.5724218  77.5227488 117.2822781 134.8911699  77.6446334 118.9030666
 134.2691708  76.9817039 118.6032894 135.5616566  77.6707466 118.2204313
 128.1238771  76.2106192 117.7921926 127.2870679  75.7828366 117.6105927
 128.0962416  76.4038635 118.7292717 134.9636227  66.1228122 128.4963172
 135.0124382  66.9990245 128.1140941 135.5058741  65.5805515 127.9234815
 145.4491072  76.6669245 127.7764309 144.6586616  76.6493384 127.2368808
 145.2124427  77.2057539 128.5313345 145.5688947  73.5161711 125.0897037
 145.6186952  73.3511719 126.0312560 145.4602871  72.6488970 124.6994918
 134.4525206  76.1950257 112.3789126 134.6013326  76.8785721 111.7255799
 135.2591649  76.1755347 112.8938582 142.8592710  69.4992639 126.4056344
 143.7602572  69.3599104 126.1140342 142.9340684  69.6647094 127.3454521
 137.1935515  66.8759494 125.2509530 136.3238824  67.1693060 124.9792119
 137.4294995  67.4599939 125.9716794 147.0707144  75.9358653 125.3339059
 146.7791952  76.2988633 126.1702520 146.4579275  75.2225661 125.1552391
 148.2702826  73.5011533 117.8541629 149.1049718  73.9401337 118.0179189
 148.4061955  73.0250186 117.0349875 145.3194332  71.0591268 123.8019117
 145.7948454  71.2518914 122.9937968 144.3959898  71.1150453 123.5562501
 132.2077839  72.2215435 113.3850195 131.9623881  71.3177765 113.5830405
 132.3773754  72.2232585 112.4429673 139.8974549  63.0939111 122.7674951
 140.4156493  63.8300138 122.4421439 139.5429682  63.4003104 123.6021710
 131.4773486  67.9543792 110.8836357 130.7842731  68.0288147 110.2276393
 131.2325238  67.1904136 111.4057874 140.1487143  59.5139394 118.2875847
 140.4288897  58.8462583 118.9136274 140.9337750  59.7068489 117.7750511
 137.9520612  78.6898387 109.8500874 137.3794579  79.3088575 109.3971346
 138.5253405  79.2397749 110.3840796 144.0196001  67.9357028 122.0347422
 144.9713424  68.0355125 122.0559647 143.8499452  67.1435296 122.5445507
 142.0410381  65.0212611 122.2206823 141.4460313  65.3017624 121.5253312
 141.7560078  65.5106512 122.9923564 141.1717871  78.9735538 110.9809456
 142.1048544  78.9081099 111.1842331 141.0841084  79.8091804 110.5223989
 143.8005888  78.2901408 107.9413404 143.7219519  77.9561272 108.8349161
 144.6215555  78.7823176 107.9404876 146.4984079  71.1563147 121.1489722
 146.4660399  70.2179148 121.3349406 147.1084703  71.2347184 120.4155547
 138.3367410  70.0259200 107.1916926 139.2826515  69.8965408 107.2605344
 137.9581655  69.2873862 107.6686354 146.6478568  67.9474191 121.1948005
 146.1317616  67.1632647 121.0077934 147.5318516  67.6192907 121.3594525
 144.3089295  61.6915206 117.1543818 144.1114116  61.3830294 118.0387150
 144.9189000  62.4176845 117.2841748 152.3160629  72.2179154 120.2895759
 153.0464017  71.9564442 120.8503462 151.7067574  71.4807876 120.3297827
 150.3975926  70.3587017 120.8870210 149.6709090  70.2242982 120.2786702
 149.9823213  70.6663845 121.6926928 138.2206103  74.0776946 128.6517583
 139.1409112  74.2555545 128.8457630 138.1855686  73.1332992 128.4997282
 136.5210327  67.9509177 107.1271811 135.6141783  67.6542289 107.2034525
 136.7986308  67.6538995 106.2606098 127.4388268  69.2715540 117.5770858
 127.1191052  68.4180848 117.2845232 126.8921696  69.4864118 118.3328825
 131.2168175  71.9877981 121.2940364 131.4354185  72.9195089 121.3128398
 131.6293949  71.6285955 122.0795168 138.1372393  62.4946066 113.2816053
 137.3273121  62.1493151 113.6571299 138.8256810  62.1853610 113.8703664
 140.0662941  61.5724113 114.9040349 140.6193980  61.9919567 115.5630372
 140.3033028  60.6459861 114.9463305 136.0896040  67.5611187 130.6843113
 135.9892767  68.5105544 130.6155204 135.8717582  67.2329426 129.8119183
 135.2909112  64.8096112 107.2683791 136.1528276  65.1351010 107.5279608
 135.4759456  64.0227608 106.7556856 127.3076528  72.8918452 119.5463979
 126.6139999  72.4772404 119.0333934 128.0549519  72.9338988 118.9497398
 143.4441748  63.6824638 114.4119014 142.8640417  64.3409442 114.0297066
 143.1777681  62.8601983 114.0006431 141.8945315  63.0829696 116.6140334
 142.3945093  63.1946231 115.8054653 142.5380923  62.7790749 117.2541142
 135.9527310  70.9908326 129.5008175 135.4694392  71.7908686 129.7072064
 136.0388249  71.0016271 128.5475619 129.2213270  72.8236705 117.4229994
 129.1983958  72.9224393 116.4711877 129.5313907  73.6701856 117.7447160
 131.8800648  74.8812860 121.5376609 132.8343901  74.8496803 121.4706540
 131.6813172  74.4203484 122.3526835 132.4700030  73.4513976 124.1047406
 133.2892919  73.9458055 124.1282244 132.7436838  72.5345945 124.0764974
 142.2266626  65.8424729 113.4675362 141.3392481  66.1274379 113.2495557
 142.6420615  65.6818492 112.6202639 145.5781162  65.8671250 117.1829701
 146.3541553  66.3567702 117.4554318 144.8529297  66.2929304 117.6401571
 148.0153721  66.5798869 118.2403642 148.6098212  66.3394605 117.5296950
 148.0880305  65.8605999 118.8677178 130.2350877  80.4232480 118.5546807
 130.1005345  79.6632881 117.9884805 129.8182939  81.1473380 118.0875595
 141.3709840  75.6069403 107.5623382 142.0745690  75.8119406 108.1781037
 140.6472489  76.1746165 107.8272465 142.2007650  71.3579265 113.6825652
 142.1442851  71.8147816 112.8433284 142.7535992  70.5969949 113.5048495
 146.0112456  67.1468997 114.5075771 145.7549390  66.7465632 115.3383979
 145.3865324  67.8612790 114.3825911 150.3224794  69.8865070 117.0147063
 149.7624352  69.9558259 117.7878625 149.7168297  69.7106054 116.2946559
 133.3920003  81.3201797 118.7665249 133.2752387  82.2647229 118.6643939
 132.5712449  81.0175358 119.1551048 143.2796537  76.0451933 109.6121842
 144.1142141  75.6133131 109.4299317 143.1180880  75.8733946 110.5398736
 142.9342429  72.5484046 110.9778181 142.8791233  72.3828317 110.0366625
 142.3088485  73.2560079 111.1340371 127.7234944  67.7852110 124.8039603
 128.3693808  67.2751064 125.2926829 127.5152095  68.5220792 125.3783029
 140.2488337  74.8532958 130.3031744 141.1179496  75.0273610 129.9418379
 139.7695088  75.6727375 130.1807473 136.2438555  62.0492155 110.5563500
 136.2317225  62.9933995 110.7131770 137.1361977  61.8662300 110.2622961
 134.4174517  81.9730059 121.9821178 135.3201763  82.0053669 122.2987673
 134.1911887  81.0430510 121.9967513 136.1728119  80.7261045 118.6431256
 135.2223750  80.7262907 118.5295629 136.4760605  79.9793780 118.1267291
 140.0590674  58.6434932 114.8109436 139.2923070  58.0893418 114.9566119
 140.4701379  58.7156800 115.6723588 132.0632435  64.9319727 128.9014618
 132.9263897  64.5756532 129.1117942 131.4897846  64.5933622 129.5890022
 151.9080812  86.5621584 119.7077019 152.5459222  86.4428331 119.0040359
 151.7901655  87.5102428 119.7664971 148.7170519  86.5149012 119.6438543
 148.3789030  86.3990076 118.7559078 149.5860287  86.1140177 119.6239549
 144.5757334  88.3684488 115.6335434 144.0122199  88.2774425 114.8651722
 144.4609729  87.5484393 116.1137927 149.1990302  87.6683864 125.6024749
 149.1878942  87.2736662 124.7305253 149.3610941  86.9349936 126.1958520
 142.1221766  89.8635680 118.4719655 142.9143058  89.5226504 118.0565954
 142.3618416  89.9730655 119.3921808 150.1556893  92.0355456 110.9449899
 149.5044873  92.6209536 110.5583913 150.9501256  92.5661651 111.0044937
 144.0812520  89.1244593 111.3437034 144.8543396  88.5773580 111.2049909
 144.4337919  89.9888842 111.5551495 145.9197563  90.4520975 124.5503933
 145.6287429  91.3566606 124.4350599 146.5554547  90.4937503 125.2648002
 146.8453770  87.8297824 121.1405292 147.4417342  87.6053846 120.4262255
 146.9028741  87.0882569 121.7430740 146.4178798  85.2837259 108.9755483
 146.6704319  84.7618780 108.2138946 145.4803357  85.1203405 109.0782167
 151.4622081  84.2873038 116.7830227 152.2485170  83.8692461 116.4320644
 151.7260785  85.1919130 116.9511875 151.6332158  89.7245888 111.4818883
 150.9977991  89.7980514 112.1939788 151.3029564  90.3139487 110.8037963
 146.1375087  87.1865365 111.1779858 146.0211345  86.5110269 111.8460943
 146.2477347  86.6997739 110.3612011 148.4806628  86.6475512 114.8826548
 148.1164835  86.1206133 115.5939469 149.3373743  86.2573981 114.7093033
 154.3855928  77.9369845 122.1457814 154.0539253  78.8065256 121.9219029
 153.7901542  77.6206129 122.8251844 148.1212115  81.6765412 109.8787896
 148.2886517  82.5445648 110.2458367 147.9309284  81.8392694 108.9549185
 150.8787448  90.1382391 121.5453727 150.5788171  91.0407430 121.4369534
 150.5338507  89.8714574 122.3974879 144.3299929  86.5896188 117.5790431
 143.4050426  86.4572402 117.7868123 144.5784342  87.3690407 118.0760373
 154.2784592  82.6564931 119.2251164 153.3701469  82.5880339 118.9309925
 154.2272187  83.1336876 120.0532989 148.1001335  84.1323069 110.8634563
 147.9800961  84.5780120 111.7020043 147.4053924  84.4808387 110.3048101
 141.6908740  86.2329461 118.4134220 141.8201121  86.4863940 119.3273632
 141.0106192  86.8257169 118.0938875 145.8608228  96.9026711 114.5124694
 145.7832257  97.8534536 114.5913175 145.2569871  96.5572584 115.1699621
 148.3525457  84.0754577 127.1686061 147.5758791  84.6348497 127.1588926
 148.9916020  84.5611360 127.6900931 156.1446238  80.8581369 121.0029038
 155.5020618  81.1513903 120.3568832 155.6401166  80.7434290 121.8082234
 153.7986402  84.6044543 111.6914897 154.7104258  84.8371929 111.5162595
 153.2896049  85.1881587 111.1289976 146.6071830  86.8840030 126.7304028
 147.3486514  87.4225074 126.4538852 145.9008815  87.5106319 126.8875580
 152.0827169  89.0269170 125.3276190 152.4910525  88.5851581 124.5830822
 151.3604431  88.4521798 125.5810382 148.4358239  83.9641777 122.7009747
 149.2819435  84.3881191 122.8444396 148.3756877  83.3075402 123.3948310
 152.4055984  89.5870361 119.0828478 151.7764846  89.7516075 118.3804546
 152.0181646  90.0011971 119.8539443 156.2845216  90.5224799 116.4372842
 155.5996254  90.9023700 115.8869876 156.3689065  91.1320126 117.1704790
 151.5857685  81.6246146 124.3590920 151.3418617  82.3788206 123.8225196
 151.8617615  82.0031493 125.1938167 153.5396147  88.1684758 123.0368186
 153.7513043  88.8116518 122.3602567 153.4925896  87.3347074 122.5690116
 151.1422376  80.7802579 119.9404758 150.2806855  81.0783832 120.2321495
 151.1684811  80.9972977 119.0085791 147.9583946  89.3244769 116.3478564
 148.4222291  89.6032472 115.5583186 147.6940744  88.4228214 116.1651654
 144.8508027  88.8716251 119.2858327 145.4209384  89.3003519 118.6475811
 145.4416139  88.5898835 119.9842513 146.8952832  85.4467922 113.1568129
 147.5976875  85.8988965 113.6242055 146.5633460  84.8051740 113.7848022
 145.3433193  84.0379678 127.5319338 144.7131854  84.7195959 127.7654735
 145.2369281  83.9262760 126.5872476 140.6378166  83.7051474 118.4585262
 139.8477220  83.9609003 117.9825373 141.1289413  84.5199812 118.5637303
 154.6541975  91.0456713 121.2090543 155.4759419  90.6436901 120.9273225
 154.6504378  90.9424948 122.1606659 142.5892911  84.0696053 115.4168739
 141.7924074  84.1814748 115.9352235 142.3618503  84.4082706 114.5509630
 148.4198579  90.5940757 123.3651254 148.4843011  91.0561164 124.2009425
 147.7109503  89.9638122 123.4933563 138.9215869  83.9581965 120.8900253
 139.1723907  84.8428975 121.1557829 139.4575417  83.7786566 120.1175345
 148.1346596  92.2608864 113.2330234 147.9992271  93.1060400 113.6615082
 148.6756409  92.4628142 112.4696168 144.6213936  78.3400444 129.8944589
 144.2280882  77.7866643 130.5692233 145.4380076  78.6511022 130.2851107
 141.5875994  89.7784302 113.8058159 142.1000514  90.5727552 113.9563724
 142.2398707  89.0810593 113.7391760 143.3970879  92.8950058 115.8880912
 143.5737507  93.8168023 115.7001896 144.1927712  92.5808478 116.3175292
 147.5381897  79.7558323 127.4864846 148.2791610  80.3565476 127.4069308
 147.7699820  79.0135961 126.9282888 142.6823235  84.9414690 125.7643075
 142.5676750  84.0399948 126.0650174 141.8267753  85.1878387 125.4127892
 149.7615073  92.8832431 127.3630576 149.3178927  92.0968809 127.0451481
 150.4232286  93.0711581 126.6974467 144.5202194  94.4128232 121.8891255
 145.0709619  94.2845296 121.1168248 143.6813670  94.7123121 121.5386147
 151.8596311  93.1635231 125.3911977 151.8414786  93.9844112 124.8992246
 152.7816231  93.0389306 125.6162118 148.3169365  90.6779360 126.2335486
 148.8497702  89.9167648 126.0034794 147.7883446  90.3853012 126.9759640
 151.4839060  75.7839426 121.7629127 151.1403329  76.6741068 121.6868238
 151.8518023  75.5941084 120.8998712 139.5524911  88.1072956 114.5817730
 140.3900133  88.5169965 114.3651437 139.7303178  87.1672399 114.5517923
 151.4489343  85.7748037 110.2701563 150.9335966  86.5452642 110.5089950
 151.1766651  85.1013173 110.8934624 149.0336454  80.6197738 115.3286801
 148.1778050  80.2304588 115.1492440 149.4463406  80.6989699 114.4686586
 150.5635600  78.1544081 119.7278361 150.0600396  78.1174216 118.9146166
 150.8566207  79.0636824 119.7875017 146.8078486  78.2382811 118.7344542
 147.6731483  78.0425620 118.3750432 146.8755995  78.0093163 119.6613899
 151.2375646  83.6475129 112.0961344 150.9325781  83.9621278 112.9471487
 152.1906088  83.7256549 112.1388677 149.6822078  89.8065353 113.7454298
 149.1543439  89.0718112 113.4327535 149.1809580  90.5840029 113.4994266
 154.6614924  88.0014373 118.8621344 154.0038598  88.6913634 118.9501473
 155.4655323  88.3910805 119.2055330 144.4140805  80.4685019 116.1060909
 144.9884557  80.2460200 115.3734102 145.0011788  80.5373713 116.8589510
 153.4720383  86.3558746 116.9125286 153.9852264  86.9888738 117.4146995
 154.1221606  85.7559941 116.5468646 144.7410392  82.4989480 110.1256794
 143.9047705  82.8364166 110.4466069 144.6015162  82.3638460 109.1883931
 146.7163473  77.3426268 114.8335979 146.0627885  77.0275285 114.2092593
 146.6743947  76.7202008 115.5595802 147.8274678  87.6245563 106.7489271
 146.9201740  87.3934816 106.9480420 148.3245710  86.8283182 106.9363252
 150.7342757  96.3343070 109.6685957 150.0604456  96.6374767 110.2770915
 151.1208579  97.1372150 109.3191414 149.9501213  83.8308201 119.1583626
 149.0323775  84.0523148 119.0005314 150.3661357  83.9054512 118.2995334
 150.7336261  85.2299617 114.2886307 151.4808080  85.7421014 113.9793429
 151.0027851  84.9083670 115.1490700 149.0062911  87.7258158 111.2713261
 148.0974131  87.4417190 111.3685731 149.0357995  88.1457236 110.4116568
 154.2382179  91.3364747 115.0404428 153.7844506  90.4955657 115.0969619
 153.6076146  91.9726146 115.3779209 153.1815098  82.2656733 116.2705096
 152.4437855  81.7534119 116.6015338 153.4341872  81.8257115 115.4588373
 152.6815118  93.1741244 115.9754247 152.9738092  93.7346301 115.2566612
 153.1913739  93.4669805 116.7307406 153.2826726  75.0432985 116.8646865
 153.5885602  74.1830349 116.5772780 154.0079330  75.6350605 116.6645859
 139.5751082  85.4463672 115.2528463 139.3775482  84.8533033 114.5279530
 139.0197746  85.1415882 115.9704402 147.5547805  85.3386778 117.3723056
 147.6096415  84.3860615 117.2965533 146.7439007  85.4946217 117.8564355
 148.7038999  89.2666901 108.6101339 148.2658429  88.5502760 108.1506977
 149.4449440  89.4943016 108.0486431 145.4940165  83.9563838 115.1313435
 144.6808031  84.2558009 115.5378627 145.9899160  83.5619527 115.8487917
 147.6448743  93.9521595 117.0647700 147.6024922  94.1782441 116.1356232
 148.5611442  93.7184970 117.2133501 151.0914377  84.4205663 123.9628329
 151.4463765  84.6477136 124.8222795 151.7386508  84.7524039 123.3405584
 144.9854240  81.5282194 120.7474670 145.6253619  81.3870953 120.0497633
 144.1531771  81.2416707 120.3713272 145.7614544  90.8284624 116.8609662
 146.5555142  90.3334944 116.6592237 145.0506236  90.3002487 116.4977368
 150.5809388  93.2102720 121.2122030 150.6346411  93.7793656 121.9799746
 149.7124170  93.3804605 120.8476067 142.0697307  84.9727706 112.9369415
 141.1394896  84.9112161 113.1539377 142.1654779  84.4503658 112.1406056
 141.9882857  81.4982519 115.5247657 142.2489674  82.4127852 115.4156817
 142.8100029  81.0306961 115.6744270 143.4607782  82.9120276 122.6946481
 144.1330835  82.7037638 122.0459130 142.6337568  82.7142362 122.2551714
 149.3633354  79.5382217 124.7112142 148.7161269  80.2372166 124.6176619
 150.1334369  79.9718361 125.0788390 152.7712152  89.8031069 127.7862695
 152.6197658  89.5741620 126.8692779 152.7616831  90.7601670 127.7994040
 149.5397488  87.3762982 122.7708962 150.4689548  87.5274141 122.5977929
 149.1188518  87.4647002 121.9157608 148.3385820  91.4013646 120.5407500
 148.1996906  91.0332430 121.4133438 147.5500416  91.9161285 120.3691457
 148.9333972  96.5022742 111.8833036 149.1085728  96.0310786 112.6978659
 148.2466760  97.1288509 112.1114297 149.8891035  90.7795249 117.9296337
 149.5540868  90.7396019 118.8253987 149.3894981  90.1139965 117.4566748
 143.8635279  86.1862879 123.4548918 143.7255077  85.4543118 124.0560458
 144.7740203  86.0971779 123.1733106 152.8250227  88.1251283 108.2033397
 152.2079397  87.3998111 108.1066450 152.3566715  88.8860643 107.8600471
 146.4917580  85.8982838 122.9432598 147.2017198  85.2576030 122.9019217
 146.4486888  86.1495733 123.8658779 154.4804358  92.8350191 125.8639177
 154.4216905  92.1509411 125.1969760 154.8823877  93.5769181 125.4119803
 145.2046514  82.8848056 124.7628238 144.6683871  82.4338794 125.4149834
 144.6163222  83.0193965 124.0198702 143.4995057  99.6512105 118.6572896
 143.7391655 100.2830629 119.3351915 142.6564254  99.3000145 118.9438255
 144.6148773  82.3436707 107.3254701 143.7378239  82.2225508 106.9616948
 145.0906526  81.5522786 107.0733590 154.4821766  90.7989775 124.0953157
 153.5948544  90.4615697 124.2179556 155.0520317  90.0672807 124.3321922
 136.1350913  87.1313867 117.4196208 136.8221953  86.8175597 116.8317224
 135.9799042  88.0355232 117.1463460 140.9385635  82.0204064 121.8481232
 140.8543824  81.4129733 121.1131642 140.1168341  82.5113082 121.8490728
 148.0122919  95.4591228 121.0614400 147.9393091  96.2646199 121.5733705
 147.5700312  95.6583193 120.2362422 147.8012699  94.6962998 114.5717222
 147.0180221  95.2384678 114.6655446 148.5005444  95.2136977 114.9711463
 151.1109349  80.5057627 117.2151427 151.6078048  79.7527589 116.8952497
 150.3396330  80.5421944 116.6494636 150.4721603  95.3578062 123.2172559
 151.1849575  95.9925526 123.1448460 149.9811631  95.4541928 122.4012561
 152.1939130  89.2629314 114.7889851 151.2595408  89.3830777 114.6194555
 152.3715798  88.3601781 114.5249860 147.6944318  82.6475010 116.9423112
 147.3242105  82.0946050 117.6304017 148.1903410  82.0433144 116.3898112
 155.5811681  85.1046634 115.3239885 156.0472133  85.9374625 115.2500187
 156.0319181  84.6391615 116.0285143 145.5233516  93.1072505 124.0378130
 146.2242976  93.7408988 124.1907524 145.0528631  93.4487237 123.2773769
 153.6487912  91.4490455 112.3226037 153.9247756  91.3347049 113.2319911
 152.7792411  91.0507940 112.2838210 153.5528344  77.4727221 119.3630786
 152.6391423  77.7031447 119.5312993 153.9821445  77.5565665 120.2144818
 153.3234802  85.6617113 121.8630680 152.6706252  85.9093020 121.2083133
 153.7015182  84.8481251 121.5293157 150.2841976  95.6976806 115.9658850
 150.4664371  94.8798462 116.4286603 151.1074962  95.9144498 115.5283740
 150.6184142  94.6244991 113.2273899 151.1471908  94.1137445 112.6144061
 150.8812361  94.3087521 114.0919432 149.3722375  86.4036924 128.3496717
 148.6963012  86.3031053 129.0199092 150.1950009  86.2476137 128.8132714
 141.1201234  92.6408860 120.9709232 141.7054671  91.8952548 121.1037137
 140.9226073  92.9512817 121.8545896 143.9739889  95.6760108 115.9871675
 143.3050265  96.1606235 115.5035715 143.8352759  95.9229328 116.9015053
 135.7118889  85.2114460 119.6913676 135.7502988  84.6778051 120.4850794
 135.2059182  84.6849666 119.0724653 148.1145158  97.7103851 122.5854333
 148.6663466  97.8735473 123.3503418 148.4551351  98.3008289 121.9134358
 143.0909651  80.0579001 123.1876218 143.1550978  80.9193832 122.7753616
 143.0276772  79.4453003 122.4548576 142.5661924  82.1302133 126.8349252
 143.1933963  81.7479211 127.4486776 141.7089843  81.9116335 127.2004945
 152.9656032  92.5365109 128.4402988 153.5095936  93.1495067 127.9457942
 152.3842877  93.0944687 128.9570001 139.3427467  83.9378563 112.7667607
 139.6380908  83.0289241 112.7134661 138.4415502  83.9166302 112.4448609
 151.2513545  95.6585827 119.5718015 151.1264685  94.8575566 119.0628961
 151.9092636  96.1532020 119.0831985 142.8721714  82.0134559 118.7495156
 142.1508299  82.6270527 118.6102629 143.6614969  82.5492324 118.6711801
 153.3148454  93.4594847 121.1997565 152.3678789  93.3400198 121.1275892
 153.6631227  92.5717345 121.2823827 145.6748027  79.3488986 125.0235807
 146.1982429  79.5951282 125.7862117 145.4560360  80.1809020 124.6038945
 141.0715308  81.6192660 112.8906932 140.7428014  80.7390039 112.7082038
 141.4254679  81.5640329 113.7783321 150.3194887  93.2547563 117.4001918
 150.1719849  92.3264270 117.5809488 151.1448381  93.2767654 116.9158993
 144.1857131  81.9065630 113.2582410 144.5253204  82.4351551 112.5361018
 144.6329252  82.2446036 114.0340976 153.9229009  94.0776122 118.4866790
 154.8475556  93.8718983 118.3491241 153.7544312  93.8292523 119.3956132
 146.8800572  80.2902681 122.7085478 146.5397392  79.4910494 123.1106158
 146.1739578  80.5904392 122.1362311 147.5317044  77.3751993 121.1612801
 148.3543113  76.9012471 121.0391691 147.7755107  78.1542477 121.6611487
 146.1725278  80.4040252 111.4575702 146.8933641  80.7821504 110.9539419
 145.5490583  81.1229128 111.5610680 150.3156401  81.1085401 112.3934035
 150.5320016  81.9910038 112.0922863 149.8350468  80.7171614 111.6639677
 145.0555623  84.0671114 118.9704779 144.9100203  84.3811417 119.8629061
 144.5780826  84.6856014 118.4175678 146.9152006  81.0573662 119.0185669
 146.9013574  80.1614755 118.6817967 147.6324434  81.0644326 119.6523955
 148.7678136  81.4911002 121.0638796 148.5095914  82.4128073 121.0623127
 148.2363177  81.0941437 121.7539261 153.7124325  94.5961789 113.8428882
 153.8861203  94.0308212 113.0902734 154.2053216  95.3962684 113.6608372
 139.5301285  86.6076458 121.9092441 138.9854753  87.3836266 122.0412715
 140.4080635  86.9547263 121.7511562 146.3188902  79.9388042 114.2873239
 146.4404813  79.0104688 114.4864127 146.0290944  79.9526728 113.3751555
 149.1880092  77.6242952 117.4239959 149.2101789  77.6882286 116.4691939
 149.6048151  76.7847461 117.6180465 154.6999498  93.9128554 110.9425780
 155.3950402  94.5335246 111.1613095 155.0422648  93.0623905 111.2178158
 140.3167307  85.7346354 124.8022597 139.5749043  85.8828990 125.3887228
 139.9960051  85.9954620 123.9389347 148.2610969  95.2762333 124.6002987
 148.5698096  95.0311479 125.4725687 149.0586451  95.4808971 124.1121858
 148.2831581  97.4300242 116.8308364 147.8436572  96.9376621 117.5241221
 149.0339698  96.8873210 116.5900439 140.7623920  93.6211783 116.8332992
 141.5881940  93.3215555 116.4531636 140.4117972  92.8519406 117.2822781
 145.7305454  92.9738251 118.9030666 145.1085463  92.3108956 118.6032894
 146.4010320  92.9999383 118.2204313 138.9632525  91.5398110 117.7921926
 138.1264434  91.1120284 117.6105927 138.9356171  91.7330553 118.7292717
 145.8029981  81.4520039 128.4963172 145.8518137  82.3282162 128.1140941
 146.3452495  80.9097432 127.9234815 156.2884827  91.9961163 127.7764309
 155.4980370  91.9785302 127.2368808 156.0518181  92.5349456 128.5313345
 156.4082702  88.8453629 125.0897037 156.4580707  88.6803636 126.0312560
 156.2996625  87.9780888 124.6994918 145.2918960  91.5242175 112.3789126
 145.4407081  92.2077639 111.7255799 146.0985404  91.5047265 112.8938582
 153.6986464  84.8284557 126.4056344 154.5996327  84.6891022 126.1140342
 153.7734439  84.9939012 127.3454521 148.0329269  82.2051412 125.2509530
 147.1632579  82.4984978 124.9792119 148.2688750  82.7891857 125.9716794
 156.1588087  86.3883185 123.8019117 156.6342208  86.5810831 122.9937968
 155.2353652  86.4442371 123.5562501 143.0471593  87.5507352 113.3850195
 142.8017635  86.6469682 113.5830405 143.2167508  87.5524503 112.4429673
 150.7368303  78.4231029 122.7674951 151.2550247  79.1592056 122.4421439
 150.3823436  78.7295022 123.6021710 142.3167241  83.2835710 110.8836357
 141.6236486  83.3580065 110.2276393 142.0718993  82.5196054 111.4057874
 150.9880897  74.8431311 118.2875847 151.2682651  74.1754500 118.9136274
 151.7731504  75.0360407 117.7750511 148.7914366  94.0190305 109.8500874
 148.2188333  94.6380492 109.3971346 149.3647160  94.5689667 110.3840796
 154.8589756  83.2648945 122.0347422 155.8107179  83.3647043 122.0559647
 154.6893206  82.4727214 122.5445507 152.8804135  80.3504528 122.2206823
 152.2854067  80.6309541 121.5253312 152.5953832  80.8398429 122.9923564
 152.0111626  94.3027455 110.9809456 152.9442299  94.2373017 111.1842331
 151.9234839  95.1383722 110.5223989 154.6399642  93.6193326 107.9413404
 154.5613274  93.2853189 108.8349161 155.4609309  94.1115094 107.9404876
 149.1761164  85.3551118 107.1916926 150.1220269  85.2257326 107.2605344
 148.7975409  84.6165780 107.6686354 155.1483049  77.0207124 117.1543818
 154.9507870  76.7122212 118.0387150 155.7582755  77.7468763 117.2841748
 149.0599857  89.4068864 128.6517583 149.9802866  89.5847463 128.8457630
 149.0249440  88.4624909 128.4997282 147.3604082  83.2801094 107.1271811
 146.4535537  82.9834207 107.2034525 147.6380063  82.9830912 106.2606098
 138.2782022  84.6007458 117.5770858 137.9584806  83.7472766 117.2845232
 137.7315450  84.8156036 118.3328825 142.0561930  87.3169899 121.2940364
 142.2747939  88.2487007 121.3128398 142.4687703  86.9577873 122.0795168
 148.9766147  77.8237984 113.2816053 148.1666876  77.4785069 113.6571299
 149.6650564  77.5145528 113.8703664 150.9056696  76.9016031 114.9040349
 151.4587734  77.3211484 115.5630372 151.1426782  75.9751779 114.9463305
 146.9289795  82.8903104 130.6843113 146.8286522  83.8397461 130.6155204
 146.7111337  82.5621343 129.8119183 146.1302866  80.1388030 107.2683791
 146.9922030  80.4642928 107.5279608 146.3153210  79.3519525 106.7556856
 138.1470282  88.2210369 119.5463979 137.4533753  87.8064322 119.0333934
 138.8943273  88.2630906 118.9497398 154.2835503  79.0116556 114.4119014
 153.7034172  79.6701360 114.0297066 154.0171435  78.1893901 114.0006431
 152.7339069  78.4121614 116.6140334 153.2338847  78.5238148 115.8054653
 153.3774677  78.1082667 117.2541142 146.7921065  86.3200243 129.5008175
 146.3088147  87.1200603 129.7072064 146.8782004  86.3308188 128.5475619
 140.0607025  88.1528623 117.4229994 140.0377713  88.2516310 116.4711877
 140.3707661  88.9993774 117.7447160 142.7194402  90.2104778 121.5376609
 143.6737656  90.1788720 121.4706540 142.5206926  89.7495402 122.3526835
 143.3093785  88.7805894 124.1047406 144.1286674  89.2749973 124.1282244
 143.5830592  87.8637862 124.0764974 153.0660381  81.1716646 113.4675362
 152.1786236  81.4566297 113.2495557 153.4814370  81.0110410 112.6202639
 141.0744631  95.7524398 118.5546807 140.9399099  94.9924798 117.9884805
 140.6576693  96.4765297 118.0875595 152.2103594  90.9361321 107.5623382
 152.9139444  91.1411324 108.1781037 151.4866243  91.5038083 107.8272465
 153.0401405  86.6871182 113.6825652 152.9836606  87.1439734 112.8433284
 153.5929747  85.9261867 113.5048495 144.2313757  96.6493715 118.7665249
 144.1146141  97.5939147 118.6643939 143.4106203  96.3467276 119.1551048
 154.1190292  91.3743850 109.6121842 154.9535896  90.9425049 109.4299317
 153.9574635  91.2025864 110.5398736 153.7736184  87.8775964 110.9778181
 153.7184988  87.7120235 110.0366625 153.1482239  88.5851996 111.1340371
 138.5628699  83.1144028 124.8039603 139.2087562  82.6042982 125.2926829
 138.3545850  83.8512710 125.3783029 151.0882091  90.1824875 130.3031744
 151.9573251  90.3565528 129.9418379 150.6088842  91.0019292 130.1807473
 147.0832309  77.3784073 110.5563500 147.0710979  78.3225912 110.7131770
 147.9755731  77.1954218 110.2622961 145.2568271  97.3021976 121.9821178
 146.1595518  97.3345587 122.2987673 145.0305641  96.3722427 121.9967513
 147.0121873  96.0552963 118.6431256 146.0617504  96.0554825 118.5295629
 147.3154359  95.3085698 118.1267291 150.8984429  73.9726849 114.8109436
 150.1316825  73.4185336 114.9566119 151.3095134  74.0448718 115.6723588
 142.9026190  80.2611645 128.9014618 143.7657651  79.9048450 129.1117942
 142.3291600  79.9225540 129.5890022 155.4151089 103.6976406 115.6335434
 154.8515954 103.6066343 114.8651722 155.3003484 102.8776310 116.1137927
 152.9615521 105.1927597 118.4719655 153.7536813 104.8518422 118.0565954
 153.2012171 105.3022573 119.3921808 154.9206275 104.4536511 111.3437034
 155.6937151 103.9065498 111.2049909 155.2731673 105.3180760 111.5551495
 155.1693684 101.9188105 117.5790431 154.2444180 101.7864319 117.7868123
 155.4178097 102.6982325 118.0760373 152.5302495 101.5621379 118.4134220
 152.6594876 101.8155858 119.3273632 151.8499946 102.1549087 118.0938875
 155.6901781 104.2008168 119.2858327 156.2603138 104.6295437 118.6475811
 156.2809893 103.9190753 119.9842513 156.1826948  99.3671596 127.5319338
 155.5525608 100.0487877 127.7654735 156.0763036  99.2554677 126.5872476
 151.4771920  99.0343392 118.4585262 150.6870974  99.2900920 117.9825373
 151.9683168  99.8491730 118.5637303 153.4286666  99.3987971 115.4168739
 152.6317829  99.5106665 115.9352235 153.2012258  99.7374623 114.5509630
 149.7609623  99.2873882 120.8900253 150.0117662 100.1720892 121.1557829
 150.2969172  99.1078484 120.1175345 155.4607691  93.6692362 129.8944589
 155.0674636  93.1158560 130.5692233 156.2773831  93.9802940 130.2851107
 152.4269748 105.1076220 113.8058159 152.9394269 105.9019470 113.9563724
 153.0792461 104.4102510 113.7391760 154.2364633 108.2241976 115.8880912
 154.4131261 109.1459941 115.7001896 155.0321467 107.9100395 116.3175292
 153.5216990 100.2706608 125.7643075 153.4070505  99.3691865 126.0650174
 152.6661507 100.5170305 125.4127892 155.3595949 109.7420150 121.8891255
 155.9103374 109.6137213 121.1168248 154.5207424 110.0415039 121.5386147
 150.3918665 103.4364874 114.5817730 151.2293887 103.8461883 114.3651437
 150.5696933 102.4964316 114.5517923 155.2534560  95.7976937 116.1060909
 155.8278312  95.5752118 115.3734102 155.8405542  95.8665631 116.8589510
 155.5804147  97.8281398 110.1256794 154.7441459  98.1656084 110.4466069
 155.4408917  97.6930377 109.1883931 150.4144836 100.7755589 115.2528463
 150.2169236 100.1824950 114.5279530 149.8591500 100.4707800 115.9704402
 155.8247995  96.8574111 120.7474670 156.4647374  96.7162870 120.0497633
 154.9925525  96.5708625 120.3713272 152.9091062 100.3019623 112.9369415
 151.9788650 100.2404079 113.1539377 153.0048534  99.7795576 112.1406056
 152.8276611  96.8274436 115.5247657 153.0883428  97.7419769 115.4156817
 153.6493783  96.3598879 115.6744270 154.3001536  98.2412193 122.6946481
 154.9724590  98.0329556 122.0459130 153.4731323  98.0434279 122.2551714
 154.7029034 101.5154796 123.4548918 154.5648832 100.7835035 124.0560458
 155.6133957 101.4263696 123.1733106 156.0440268  98.2139974 124.7628238
 155.5077625  97.7630712 125.4149834 155.4556977  98.3485882 124.0198702
 154.3388812 114.9804023 118.6572896 154.5785410 115.6122547 119.3351915
 153.4958008 114.6292063 118.9438255 155.4542527  97.6728625 107.3254701
 154.5771994  97.5517426 106.9616948 155.9300280  96.8814703 107.0733590
 146.9744667 102.4605785 117.4196208 147.6615707 102.1467515 116.8317224
 146.8192796 103.3647149 117.1463460 151.7779389  97.3495981 121.8481232
 151.6937578  96.7421651 121.1131642 150.9562096  97.8405000 121.8490728
 151.9594989 107.9700778 120.9709232 152.5448426 107.2244466 121.1037137
 151.7619827 108.2804735 121.8545896 154.8133644 111.0052025 115.9871675
 154.1444019 111.4898153 115.5035715 154.6746514 111.2521246 116.9015053
 146.5512643 100.5406378 119.6913676 146.5896743 100.0069969 120.4850794
 146.0452936 100.0141584 119.0724653 153.9303406  95.3870919 123.1876218
 153.9944732  96.2485749 122.7753616 153.8670526  94.7744920 122.4548576
 153.4055678  97.4594051 126.8349252 154.0327717  97.0771128 127.4486776
 152.5483597  97.2408253 127.2004945 150.1821221  99.2670480 112.7667607
 150.4774662  98.3581159 112.7134661 149.2809257  99.2458220 112.4448609
 153.7115468  97.3426477 118.7495156 152.9902054  97.9562445 118.6102629
 154.5008724  97.8784242 118.6711801 151.9109063  96.9484578 112.8906932
 151.5821769  96.0681957 112.7082038 152.2648433  96.8932247 113.7783321
 155.0250886  97.2357548 113.2582410 155.3646958  97.7643469 112.5361018
 155.4723006  97.5737954 114.0340976 155.8949377  99.3963031 118.9704779
 155.7493958  99.7103335 119.8629061 155.4174581 100.0147932 118.4175678
 150.3695039 101.9368376 121.9092441 149.8248507 102.7128184 122.0412715
 151.2474389 102.2839180 121.7511562 151.1561061 101.0638272 124.8022597
 150.4142797 101.2120907 125.3887228 150.8353805 101.3246538 123.9389347
 151.6017675 108.9503701 116.8332992 152.4275695 108.6507473 116.4531636
 151.2511727 108.1811323 117.2822781 149.8026280 106.8690027 117.7921926
 148.9658188 106.4412202 117.6105927 149.7749925 107.0622471 118.7292717
 153.8865348 102.8799270 113.3850195 153.6411390 101.9761600 113.5830405
 154.0561262 102.8816420 112.4429673 153.1560995  98.6127628 110.8836357
 152.4630240  98.6871983 110.2276393 152.9112747  97.8487971 111.4057874
 149.1175777  99.9299375 117.5770858 148.7978561  99.0764684 117.2845232
 148.5709205 100.1447954 118.3328825 152.8955684 102.6461816 121.2940364
 153.1141694 103.5778924 121.3128398 153.3081458 102.2869791 122.0795168
 148.9864037 103.5502287 119.5463979 148.2927508 103.1356240 119.0333934
 149.7337028 103.5922823 118.9497398 150.9000779 103.4820541 117.4229994
 150.8771467 103.5808228 116.4711877 151.2101416 104.3285691 117.7447160
 153.5588157 105.5396696 121.5376609 154.5131410 105.5080638 121.4706540
 153.3600681 105.0787319 122.3526835 154.1487539 104.1097812 124.1047406
 154.9680428 104.6041890 124.1282244 154.4224347 103.1929780 124.0764974
 151.9138386 111.0816315 118.5546807 151.7792854 110.3216716 117.9884805
 151.4970448 111.8057215 118.0875595 155.0707512 111.9785632 118.7665249
 154.9539896 112.9231065 118.6643939 154.2499958 111.6759194 119.1551048
 149.4022453  98.4435946 124.8039603 150.0481317  97.9334900 125.2926829
 149.1939604  99.1804627 125.3783029 153.7419944  95.5903563 128.9014618
 154.6051406  95.2340368 129.1117942 153.1685355  95.2517458 129.5890022
  89.3026286   0.0114639 105.3818203  89.5422884   0.6433164 106.0597221
  88.4595483  -0.3397321 105.6683562  98.7646749   5.5530132 105.1964961
  99.5568041   5.2120956 104.7811261  99.0043400   5.6625107 106.1167115
 106.7981876   7.7249908  97.6695206 106.1469856   8.3103988  97.2829220
 107.5926239   8.2556103  97.7290243 100.7237503   4.8139045  98.0682340
 101.4968379   4.2668032  97.9295216 101.0762902   5.6783294  98.2796802
 102.5622546   6.1415427 111.2749239 102.2712412   7.0461058 111.1595906
 103.1979530   6.1831955 111.9893309 102.5033211  12.5921163 101.2370001
 102.4257241  13.5428988 101.3158481 101.8994854  12.2467036 101.8944927
 105.0623562   6.2835209 110.0896560 105.1267995   6.7455616 110.9254732
 104.3534486   5.6532573 110.2178870 104.7771580   7.9503316  99.9575541
 104.6417255   8.7954852 100.3860388 105.3181392   8.1522594  99.1941474
  98.2300977   5.4678754 100.5303466  98.7425498   6.2622004 100.6809030
  98.8823690   4.7705045 100.4637067 100.0395862   8.5844510 102.6126219
 100.2162490   9.5062475 102.4247203 100.8352695   8.2702930 103.0420599
 106.4040056   8.5726883 114.0875883 105.9603910   7.7863261 113.7696787
 107.0657270   8.7606033 113.4219773 101.1627177  10.1022684 108.6136561
 101.7134602   9.9739748 107.8413555 100.3238653  10.4017573 108.2631454
 108.5021294   8.8529682 112.1157284 108.4839770   9.6738564 111.6237553
 109.4241214   8.7283758 112.3407425  96.1949894   3.7967408 101.3063036
  97.0325116   4.2064417 101.0896744  96.3728162   2.8566851 101.2763230
 107.3767740  12.0237522  96.3931264 106.7029439  12.3269219  97.0016221
 107.7633562  12.8266602  96.0436721 109.3240101   8.8635696 102.6999553
 109.6163076   9.4240753 101.9811919 109.8338722   9.1564257 103.4552712
 104.2873727   9.6416047 103.7893006 104.2449905   9.8676893 102.8601538
 105.2036425   9.4079421 103.9378807 102.4039527   6.5179076 103.5854969
 103.1980126   6.0229396 103.3837544 101.6931220   5.9896939 103.2222675
 107.2234372   8.8997171 107.9367337 107.2771394   9.4688108 108.7045053
 106.3549153   9.0699056 107.5721374 104.9810803   7.0908098 107.2652806
 104.8421889   6.7226882 108.1378744 104.1925400   7.6055737 107.0936764
 105.5758955  12.1917194  98.6078343 105.7510711  11.7205238  99.4223965
 104.8891743  12.8182961  98.8359603 111.1229342   8.5244643 112.5884484
 111.0641888   7.8403863 111.9215067 111.5248860   9.2663633 112.1365110
 100.1420041  15.3406557 105.3818203 100.3816639  15.9725081 106.0597221
  99.2989237  14.9894597 105.6683562  92.7775896   2.8208319 104.1441515
  93.4646936   2.5070049 103.5562530  92.6224025   3.7249684 103.8708766
 104.6547902  11.1485680 107.7859707 104.5818074  11.9540651 108.2979011
 104.2125296  11.3477645 106.9607728 104.4437682  10.3857450 101.2962528
 103.6605204  10.9279130 101.3900753 105.1430427  10.9031429 101.6956770
 107.1146586  11.0472514 109.9417865 107.8274558  11.6819978 109.8693767
 106.6236615  11.1436380 109.1257867 102.1658499   8.7966957 110.7623436
 102.8667959   9.4303440 110.9152831 101.6953614   9.1381689 110.0019076
 106.9266959  11.3871258 102.6904157 107.1089354  10.5692914 103.1531909
 107.7499945  11.6038950 102.2529047 107.2609125  10.3139443  99.9519205
 107.7896891   9.8031897  99.3389368 107.5237344   9.9981973 100.8164738
  97.7626218   8.3303312 107.6954539  98.3479654   7.5847000 107.8282443
  97.5651056   8.6407269 108.5791203 100.6164873  11.3654559 102.7116981
  99.9475248  11.8500687 102.2281021 100.4777742  11.6123780 103.6260360
 104.7570141  13.3998303 109.3099640 105.3088449  13.5629924 110.0748725
 105.0976335  13.9902741 108.6379665 109.6081016   8.2259560 115.1648294
 110.1520920   8.8389519 114.6703249 109.0267861   8.7839139 115.6815307
 107.8938529  11.3480279 106.2963322 107.7689668  10.5470018 105.7874267
 108.5517620  11.8426472 105.8077292 109.9573437   9.1489299 107.9242872
 109.0103773   9.0294650 107.8521199 110.3056210   8.2611797 108.0069133
 106.9619870   8.9442015 104.1247224 106.8144833   8.0158722 104.3054794
 107.7873364   8.9662106 103.6404299 110.5653992   9.7670574 105.2112097
 111.4900540   9.5613435 105.0736548 110.3969296   9.5186975 106.1201438
 110.3549308  10.2856241 100.5674188 110.5286186   9.7202663  99.8148041
 110.8478200  11.0857136 100.3853678 111.3424481   9.6023005  97.6671087
 112.0375385  10.2229698  97.8858401 111.6847631   8.7518357  97.9423465
 104.9035953  10.9656785 111.3248294 105.2123079  10.7205931 112.1970994
 105.7011435  11.1703423 110.8367164 104.9256565  13.1194694 103.5553671
 104.4861555  12.6271073 104.2486527 105.6764682  12.5767662 103.3145746
  97.4048904   9.3106235 103.5578299  98.2306924   9.0110007 103.1776942
  97.0542956   8.5413857 104.0068087 102.3730437   8.6632703 105.6275972
 101.7510446   8.0003408 105.3278200 103.0435304   8.6893835 104.9449620
  95.6057509   7.2292562 104.5167232  94.7689417   6.8014736 104.3351234
  95.5781154   7.4225005 105.4538024 101.9343944   7.2136627  99.1034433
 102.0832064   7.8972091  98.4501106 102.7410387   7.1941717  99.6183889
 105.4339349   9.7084757  96.5746180 104.8613316  10.3274944  96.1216652
 106.0072143  10.2584119  97.1086102 108.6536609   9.9921907  97.7054763
 109.5867282   9.9267469  97.9087638 108.5659822  10.8278174  97.2469295
 111.2824626   9.3087778  94.6658710 111.2038257   8.9747641  95.5594468
 112.1034293   9.8009545  94.6650182  94.7895265   3.9104821 106.2709286
  94.0958737   3.4958774 105.7579240  95.5368256   3.9525358 105.6742705
  96.7032008   3.8423075 104.1475301  96.6802696   3.9410762 103.1957184
  97.0132644   4.6888226 104.4692467  99.3619386   5.8999230 108.2621915
 100.3162639   5.8683172 108.1951847  99.1631909   5.4389854 109.0772141
  97.7169615  11.4418849 105.2792113  97.5824082  10.6819250 104.7130111
  97.3001677  12.1659749 104.8120902 100.8738740  12.3388166 105.4910556
 100.7571125  13.2833599 105.3889246 100.0531187  12.0361728 105.8796355
 101.8993255  12.9916428 108.7066484 102.8020501  13.0240039 109.0232979
 101.6730625  12.0616879 108.7212820 103.6546857  11.7447415 105.3676563
 102.7042488  11.7449276 105.2540935 103.9579343  10.9980149 104.8512597
 119.3899550  17.5807953 106.4322325 120.0277960  17.4614701 105.7285665
 119.2720393  18.5288797 106.4910277 116.1989256  17.5335381 106.3683850
 115.8607768  17.4176446 105.4804385 117.0679025  17.1326546 106.3484856
 112.0576072  19.3870858 102.3580741 111.4940937  19.2960795 101.5897029
 111.9428467  18.5670762 102.8383233 116.6809039  18.6870233 112.3270055
 116.6697680  18.2923031 111.4550559 116.8429679  17.9536306 112.9203827
 109.6040504  20.8822049 105.1964961 110.3961796  20.5412874 104.7811261
 109.8437154  20.9917024 106.1167115 117.6375631  23.0541825  97.6695206
 116.9863610  23.6395906  97.2829220 118.4319994  23.5848020  97.7290243
 111.5631258  20.1430963  98.0682340 112.3362134  19.5959950  97.9295216
 111.9156657  21.0075212  98.2796802 113.4016300  21.4707345 111.2749239
 113.1106166  22.3752976 111.1595906 114.0373285  21.5123873 111.9893309
 114.3272507  18.8484193 107.8650599 114.9236080  18.6240216 107.1507562
 114.3847479  18.1068939 108.4676047 113.8997536  16.3023629  95.7000790
 114.1523056  15.7805150  94.9384253 112.9622095  16.1389774  95.8027474
 118.9440819  15.3059407 103.5075533 119.7303908  14.8878830 103.1565950
 119.2079523  16.2105499 103.6757182 119.1150896  20.7432257  98.2064190
 118.4796729  20.8166884  98.9185095 118.7848302  21.3325856  97.5283269
 124.3449246  15.2434640 104.4108512 125.0774418  14.6733857 104.6446341
 123.5888601  14.8556241 104.8515017 113.6193824  18.2051735  97.9025165
 113.5030083  17.5296638  98.5706249 113.7296084  17.7184109  97.0857318
 115.9625365  17.6661882 101.6071854 115.5983573  17.1392503 102.3184776
 116.8192481  17.2760351 101.4338340 115.6030852  12.6951781  96.6033203
 115.7705255  13.5632018  96.9703674 115.4128021  12.8579063  95.6794492
 118.3606186  21.1568760 108.2699033 118.0606909  22.0593799 108.1614840
 118.0157245  20.8900944 109.1220186 111.8118667  17.6082557 104.3035738
 110.8869163  17.4758771 104.5113429 112.0603080  18.3876776 104.8005680
 121.7603329  13.6751301 105.9496470 120.8520207  13.6066709 105.6555231
 121.7090925  14.1523246 106.7778296 115.5820073  15.1509439  97.5879870
 115.4619698  15.5966490  98.4265350 114.8872662  15.4994757  97.0293408
 109.1727478  17.2515831 105.1379527 109.3019859  17.5050310 106.0518938
 108.4924929  17.8443539 104.8184182 113.3426965  27.9213081 101.2370001
 113.2650995  28.8720906 101.3158481 112.7388609  27.5758953 101.8944927
 115.8344195  15.0940946 113.8931368 115.0577529  15.6534866 113.8834232
 116.4734758  15.5797729 114.4146238 121.2805139  15.6230912  98.4160204
 122.1922995  15.8558299  98.2407901 120.7714786  16.2067956  97.8535282
 114.0890567  17.9026400 113.4549335 114.8305252  18.4411444 113.1784158
 113.3827553  18.5292688 113.6120887 119.5645907  20.0455540 112.0521496
 119.9729263  19.6037951 111.3076129 118.8423169  19.4708168 112.3055689
 115.9176977  14.9828147 109.4255053 116.7638172  15.4067560 109.5689702
 115.8575615  14.3261771 110.1193616 119.8874722  20.6056731 105.8073785
 119.2583584  20.7702445 105.1049853 119.5000384  21.0198340 106.5784749
 123.7663954  21.5411168 103.1618149 123.0814992  21.9210070 102.6115182
 123.8507803  22.1506495 103.8950097 119.0676422  12.6432515 111.0836227
 118.8237354  13.3974576 110.5470503 119.3436353  13.0217863 111.9183474
 121.0214885  19.1871128 109.7613492 121.2331780  19.8302887 109.0847873
 120.9744633  18.3533444 109.2935422 118.6241114  11.7988948 106.6650065
 117.7625593  12.0970202 106.9566802 118.6503549  12.0159347 105.7331097
 115.4402684  20.3431139 103.0723870 115.9041029  20.6218842 102.2828493
 115.1759482  19.4414583 102.8896961 112.3326765  19.8902620 106.0103633
 112.9028122  20.3189889 105.3721118 112.9234876  19.6085205 106.7087819
 114.3771570  16.4654291  99.8813435 115.0795613  16.9175335 100.3487362
 114.0452198  15.8238110 100.5093328 112.8251931  15.0566048 114.2564645
 112.1950592  15.7382329 114.4900042 112.7188019  14.9449129 113.3117783
 108.1196904  14.7237844 105.1830569 107.3295958  14.9795372 104.7070680
 108.6108151  15.5386182 105.2882609 122.1360713  22.0643083 107.9335850
 122.9578157  21.6623270 107.6518531 122.1323116  21.9611317 108.8851966
 110.0711649  15.0882423 102.1414046 109.2742812  15.2001117 102.6597541
 109.8437241  15.4269075 101.2754936 115.9017317  21.6127126 110.0896560
 115.9661749  22.0747533 110.9254732 115.1928240  20.9824491 110.2178870
 106.4034607  14.9768334 107.6145560 106.6542645  15.8615344 107.8803136
 106.9394155  14.7972936 106.8420652 130.2266706  18.4081831 104.2820821
 129.4730415  17.8389229 104.1264826 130.3614247  18.3744496 105.2291456
 115.6165334  23.2795234  99.9575541 115.4811009  24.1246769 100.3860388
 116.1575147  23.4814511  99.1941474 112.1032674   9.3586814 116.6189896
 111.7099619   8.8053012 117.2937540 112.9198814   9.6697392 117.0096413
 109.0694732  20.7970672 100.5303466 109.5819252  21.5913922 100.6809030
 109.7217444  20.0996962 100.4637067 110.8789616  23.9136428 102.6126219
 111.0556245  24.8354393 102.4247203 111.6746450  23.5994847 103.0420599
 115.0200635  10.7744693 114.2110152 115.7610348  11.3751846 114.1314615
 115.2518558  10.0322330 113.6528195 110.1641973  15.9601060 112.4888382
 110.0495488  15.0586317 112.7895481 109.3086491  16.2064757 112.1373199
 117.2433811  23.9018800 114.0875883 116.7997665  23.1155179 113.7696787
 117.9051024  24.0897951 113.4219773 112.0020932  25.4314602 108.6136561
 112.5528357  25.3031665 107.8413555 111.1632408  25.7309491 108.2631454
 119.3415049  24.1821600 112.1157284 119.3233524  25.0030481 111.6237553
 120.2634969  24.0575675 112.3407425 115.7988103  21.6965730 112.9580792
 116.3316440  20.9354018 112.7280100 115.2702184  21.4039381 113.7004947
 107.0343648  19.1259326 101.3063036 107.8718870  19.5356334 101.0896744
 107.2121916  18.1858768 101.2763230 118.9308081  16.7934407  96.9946869
 118.4154704  17.5639011  97.2335257 118.6585389  16.1199543  97.6179931
 116.5155192  11.6384107 102.0532108 115.6596788  11.2490958 101.8737746
 116.9282143  11.7176068 101.1931893 114.2897224   9.2569180 105.4589849
 115.1550221   9.0611989 105.0995738 114.3574733   9.0279532 106.3859206
 123.9042355  19.5466761  98.9300043 123.1271797  19.2077921  98.4855205
 124.5833836  19.5519385  98.2555008 118.7194384  14.6661499  98.8206650
 118.4144519  14.9807648  99.6716794 119.6724826  14.7442919  98.8633983
 117.1640816  20.8251722 100.4699604 116.6362177  20.0904482 100.1572842
 116.6628318  21.6026398 100.2239573 122.1433662  19.0200743 105.5866651
 121.4857336  19.7100004 105.6746779 122.9474061  19.4097175 105.9300637
 111.8959543  11.4871388 102.8306216 112.4703295  11.2646570 102.0979409
 112.4830526  11.5560083 103.5834817 120.9539120  17.3745115 103.6370592
 121.4671002  18.0075107 104.1392302 121.6040344  16.7746311 103.2713952
 112.2229130  13.5175849  96.8502101 111.3866443  13.8550536  97.1711376
 112.0833900  13.3824829  95.9129238 115.3093416  18.6431932  93.4734577
 114.4020477  18.4121186  93.6725726 115.8064448  17.8469552  93.6608559
 118.2161495  27.3529440  96.3931264 117.5423193  27.6561136  97.0016221
 118.6027317  28.1558520  96.0436721 117.4319951  14.8494571 105.8828933
 116.5142513  15.0709518 105.7250621 117.8480095  14.9240881 105.0240640
 118.2154999  16.2485987 101.0131613 118.9626818  16.7607384 100.7038735
 118.4846589  15.9270039 101.8736007 116.4881649  18.7444527  97.9958567
 115.5792868  18.4603560  98.0931037 116.5176733  19.1643606  97.1361874
 121.7200917  22.3551117 101.7649735 121.2663244  21.5142027 101.8214925
 121.0894883  22.9912515 102.1024515 120.6633836  13.2843103 102.9950402
 119.9256593  12.7720489 103.3260645 120.9160610  12.8443484 102.1833679
 120.1633856  24.1927613 102.6999553 120.4556830  24.7532671 101.9811919
 120.6732476  24.4856174 103.4552712 107.0569820  16.4650041 101.9773770
 106.8594219  15.8719402 101.2524836 106.5016484  16.1602252 102.6949708
 115.0366543  16.3573148 104.0968363 115.0915153  15.4046984 104.0210839
 114.2257745  16.5132587 104.5809661 116.1857737  20.2853271  95.3346646
 115.7477167  19.5689130  94.8752283 116.9268178  20.5129386  94.7731737
 112.9758903  14.9750208 101.8558742 112.1626769  15.2744378 102.2623934
 113.4717897  14.5805896 102.5733224 115.1267481  24.9707965 103.7893006
 115.0843660  25.1968811 102.8601538 116.0430180  24.7371339 103.9378807
 118.5733115  15.4392032 110.6873636 118.9282503  15.6663505 111.5468101
 119.2205246  15.7710409 110.0650891 124.3030852  18.5610468 101.3922965
 124.1648750  18.7512064 100.4644154 123.9467071  19.3229851 101.8491016
 112.4672978  12.5468563 107.4719977 113.1072357  12.4057322 106.7742940
 111.6350508  12.2603077 107.0958579 124.3300231  20.6286995 106.4034236
 124.7636738  20.5362284 107.2517290 125.0431812  20.6044495 105.7654252
 113.2433282  21.8470994 103.5854969 114.0373880  21.3521314 103.3837544
 112.5324974  21.3188857 103.2222675 118.0628126  24.2289089 107.9367337
 118.1165149  24.7980025 108.7045053 117.1942908  24.3990974 107.5721374
 109.5516045  15.9914075  99.6614722 108.6213633  15.9298531  99.8784684
 109.6473517  15.4690028  98.8651363 109.4701594  12.5168888 102.2492963
 109.7308412  13.4314221 102.1402124 110.2918767  12.0493331 102.3989576
 110.9426520  13.9306645 109.4191788 111.6149573  13.7224007 108.7704437
 110.1156306  13.7328731 108.9797020 125.1915781  20.6710696 108.9367121
 125.3851671  21.5756506 109.1826396 125.0916399  20.2118115 109.7705707
 116.8452092  10.5568586 111.4357449 116.1980007  11.2558536 111.3421925
 117.6153107  10.9904730 111.8033697 120.2530890  20.8217438 114.5108002
 120.1016396  20.5927990 113.5938086 120.2435569  21.7788040 114.5239347
 117.0216226  18.3949351 109.4954269 117.9508286  18.5460511 109.3223236
 116.6007256  18.4833372 108.6402915 115.8204558  22.4200016 107.2652806
 115.6815643  22.0518800 108.1378744 115.0319154  22.9347655 107.0936764
 116.4152710  27.5209112  98.6078343 116.5904465  27.0497155  99.4223965
 115.7285498  28.1474878  98.8359603 117.3709773  21.7981618 104.6541644
 117.0359606  21.7582388 105.5499294 116.8713719  21.1326334 104.1812054
 111.3454017  17.2049248 110.1794225 111.2073815  16.4729487 110.7805764
 112.2558940  17.1158148 109.8978413 120.3068965  19.1437653  94.9278704
 119.6898135  18.4184481  94.8311756 119.8385453  19.9047013  94.5845778
 113.9736318  16.9169208 109.6677905 114.6835936  16.2762400 109.6264523
 113.9305626  17.1682102 110.5904086 121.9623096  23.8536561 112.5884484
 121.9035642  23.1695781 111.9215067 122.3642615  24.5955551 112.1365110
 112.6865252  13.9034425 111.4873544 112.1502609  13.4525164 112.1395141
 112.0981960  14.0380334 110.7444009 110.9813795  30.6698475 105.3818203
 111.2210393  31.3016999 106.0597221 110.1382992  30.3186515 105.6683562
 112.0967510  13.3623077  94.0500008 111.2196977  13.2411878  93.6862255
 112.5725264  12.5709155  93.7978897 121.9640504  21.8176145 110.8198464
 121.0767282  21.4802067 110.9424863 122.5339055  21.0859176 111.0567229
 103.6169651  18.1500237 104.1441515 104.3040690  17.8361967 103.5562530
 103.4617779  19.0541601 103.8708766 108.4204373  13.0390433 108.5726539
 108.3362562  12.4316103 107.8376949 107.5987079  13.5299451 108.5736035
 115.4941657  26.4777597 107.7859707 115.4211828  27.2832569 108.2979011
 115.0519050  26.6769563 106.9607728 115.2831437  25.7149367 101.2962528
 114.4998958  26.2571047 101.3900753 115.9824182  26.2323347 101.6956770
 118.5928087  11.5243997 103.9396734 119.0896786  10.7713959 103.6197804
 117.8215068  11.5608313 103.3739943 126.4457844  17.2284362 105.5815025
 126.4347720  18.1109078 105.2108958 125.5775223  16.8755913 105.3869562
 117.9540340  26.3764431 109.9417865 118.6668313  27.0111896 109.8693767
 117.4630369  26.4728297 109.1257867 119.6757867  20.2815684 101.5135157
 118.7414146  20.4017146 101.3439861 119.8534536  19.3788151 101.2495167
 115.1763055  13.6661380 103.6668418 114.8060843  13.1132420 104.3549324
 115.6722148  13.0619513 103.1143418 123.0630419  16.1233003 102.0485191
 123.5290871  16.9560995 101.9745494 123.5137919  15.6577985 102.7530450
 113.0052254  24.1258875 110.7623436 113.7061713  24.7595358 110.9152831
 112.5347369  24.4673606 110.0019076 121.1306650  22.4676824  99.0471343
 121.4066494  22.3533419  99.9565217 120.2611149  22.0694309  99.0083516
 120.8053540  16.6803482 108.5875987 120.1524990  16.9279390 107.9328439
 121.1833920  15.8667620 108.2538464 117.7660714  26.7163175 102.6904157
 117.9483108  25.8984831 103.1531909 118.5893700  26.9330868 102.2529047
 118.1002879  25.6431360  99.9519205 118.6290646  25.1323815  99.3389368
 118.3631099  25.3273891 100.8164738 116.8541113  17.4223293 115.0742024
 116.1781750  17.3217423 115.7444399 117.6768747  17.2662507 115.5378021
 108.6019972  23.6595230 107.6954539 109.1873409  22.9138918 107.8282443
 108.4044810  23.9699186 108.5791203 111.4558627  26.6946477 102.7116981
 110.7869003  27.1792605 102.2281021 111.3171497  26.9415698 103.6260360
 103.1937627  16.2300830 106.4158982 103.2321726  15.6964421 107.2096100
 102.6877920  15.7036035 105.7969959 115.5963896  28.7290221 109.3099640
 116.1482204  28.8921842 110.0748725 115.9370089  29.3194658 108.6379665
 110.5728389  11.0765370 109.9121524 110.6369716  11.9380201 109.4998922
 110.5095509  10.4639372 109.1793883 110.0480662  13.1488503 113.5594559
 110.6752700  12.7665580 114.1732083 109.1908580  12.9302705 113.9250251
 120.4474770  23.5551478 115.1648294 120.9914674  24.1681436 114.6703249
 119.8661615  24.1131057 115.6815307 106.8246204  14.9564932  99.4912914
 107.1199645  14.0475611  99.4379967 105.9234240  14.9352672  99.1693916
 118.7332283  26.6772196 106.2963322 118.6083423  25.8761936 105.7874267
 119.3911374  27.1718390 105.8077292 110.3540451  13.0320929 105.4740462
 109.6327037  13.6456896 105.3347935 111.1433707  13.5678694 105.3957108
 120.7967191  24.4781216 107.9242872 119.8497527  24.3586567 107.8521199
 121.1449965  23.5903714 108.0069133 113.1566765  10.3675355 111.7481114
 113.6801167  10.6137652 112.5107423 112.9379098  11.1995390 111.3284251
 108.5534046  12.6379030  99.6152239 108.2246752  11.7576409  99.4327345
 108.9073417  12.5826698 100.5028628 117.8013625  24.2733932 104.1247224
 117.6538587  23.3450640 104.3054794 118.6267118  24.2954023 103.6404299
 111.6675869  12.9252000  99.9827716 112.0071942  13.4537921  99.2606325
 112.1147990  13.2632406 100.7586283 121.4047747  25.0962491 105.2112097
 122.3294294  24.8905353 105.0736548 121.2363050  24.8478892 106.1201438
 114.3619310  11.3089050 109.4330784 114.0216130  10.5096863 109.8351464
 113.6558316  11.6090761 108.8607618 113.6544016  11.4226621  98.1821009
 114.3752379  11.8007874  97.6784726 113.0309320  12.1415498  98.2855987
 117.7975139  12.1271770  99.1179341 118.0138753  13.0096408  98.8168170
 117.3169206  11.7357984  98.3884983 112.5374360  15.0857483 105.6950086
 112.3918941  15.3997786 106.5874368 112.0599564  15.7042384 105.1420985
 114.3970743  12.0760031 105.7430976 114.3832312  11.1801125 105.4063274
 115.1143171  12.0830695 106.3769262 116.2496874  12.5097372 107.7884103
 115.9914652  13.4314442 107.7868433 115.7181914  12.1127806 108.4784567
 121.1943063  25.6148159 100.5674188 121.3679940  25.0494581  99.8148041
 121.6871954  26.4149054 100.3853678 107.0120023  17.6262828 108.6337747
 106.4673491  18.4022636 108.7658022 107.8899373  17.9733632 108.4756869
 113.8007639  10.9574412 101.0118546 113.9223550  10.0291058 101.2109433
 113.5109682  10.9713098 100.0996861 127.0482454  18.3784582 102.1864488
 127.4913600  17.6291907 101.7883611 126.1708964  18.3694718 101.8038220
 122.1818235  24.9314923  97.6671087 122.8769140  25.5521616  97.8858401
 122.5241385  24.0810274  97.9423465 107.7986045  16.7532724 111.5267904
 107.0567781  16.9015359 112.1132535 107.4778789  17.0140990 110.6634654
 124.0809658  22.3814629  99.1958417 124.6060983  22.7201901  98.4707737
 123.9932011  21.4461644  99.0121552 115.7429707  26.2948702 111.3248294
 116.0516834  26.0497849 112.1970994 116.5405189  26.4995341 110.8367164
 115.7650319  28.4486612 103.5553671 115.3255309  27.9562991 104.2486527
 116.5158436  27.9059580 103.3145746 108.2442658  24.6398153 103.5578299
 109.0700678  24.3401925 103.1776942 107.8936710  23.8705775 104.0068087
 113.2124191  23.9924621 105.6275972 112.5904201  23.3295326 105.3278200
 113.8829058  24.0185753 104.9449620 106.4451263  22.5584479 104.5167232
 105.6083172  22.1306654 104.3351234 106.4174909  22.7516923 105.4538024
 113.2848719  12.4706409 115.2208478 113.3336874  13.3468532 114.8386248
 113.8271233  11.9283802 114.6480122 123.7703565  23.0147532 114.5009615
 122.9799108  22.9971671 113.9614115 123.5336919  23.5535826 115.2558652
 123.8901440  19.8639999 111.8142344 123.9399444  19.6990006 112.7557867
 123.7815363  18.9967258 111.4240225 112.7737698  22.5428544  99.1034433
 112.9225819  23.2264009  98.4501106 113.5804142  22.5233634  99.6183889
 121.1805202  15.8470927 113.1301651 122.0815065  15.7077391 112.8385648
 121.2553176  16.0125381 114.0699828 115.5148007  13.2237781 111.9754837
 114.6451317  13.5171347 111.7037426 115.7507488  13.8078226 112.6962101
 125.3919636  22.2836940 112.0584366 125.1004445  22.6466921 112.8947826
 124.7791768  21.5703948 111.8797698 126.5915319  19.8489820 104.5786936
 127.4262210  20.2879624 104.7424496 126.7274448  19.3728473 103.7595182
 123.6406825  17.4069555 110.5264423 124.1160946  17.5997201 109.7183275
 122.7172390  17.4628741 110.2807807 110.5290331  18.5693722 100.1095502
 110.2836373  17.6656052 100.3075712 110.6986246  18.5710872  99.1674980
 109.7985979  14.3022080  97.6081663 109.1055224  14.3766435  96.9521699
 109.5537731  13.5382423  98.1303180 116.2733104  25.0376675  96.5746180
 115.7007071  25.6566862  96.1216652 116.8465897  25.5876036  97.1086102
 122.3408494  14.2835315 108.7592729 123.2925917  14.3833413 108.7804953
 122.1711944  13.4913583 109.2690813 120.3622873  11.3690898 108.9452130
 119.7672805  11.6495911 108.2498619 120.0772570  11.8584799 109.7168871
 119.4930364  25.3213825  97.7054763 120.4261037  25.2559387  97.9087638
 119.4053576  26.1570092  97.2469295 122.1218380  24.6379695  94.6658710
 122.0432012  24.3039559  95.5594468 122.9428047  25.1301463  94.6650182
 124.8196571  17.5041435 107.8735029 124.7872892  16.5657435 108.0594713
 125.4297195  17.5825471 107.1400854 116.6579902  16.3737488  93.9162233
 117.6039007  16.2443696  93.9850651 116.2794147  15.6352149  94.3931661
 124.9691060  14.2952478 107.9193312 124.4530109  13.5110935 107.7323241
 125.8531008  13.9671195 108.0839831 130.6373121  18.5657441 107.0141066
 131.3676510  18.3042730 107.5748769 130.0280067  17.8286163 107.0543134
 128.7188418  16.7065304 107.6115517 127.9921582  16.5721269 107.0032008
 128.3035705  17.0142133 108.4172235 116.5418595  20.4255234 115.3762890
 117.4621604  20.6033833 115.5702936 116.5068178  19.4811279 115.2242589
 114.8422819  14.2987464  93.8517118 113.9354275  14.0020577  93.9279832
 115.1198800  14.0017282  92.9851404 105.7600760  15.6193827 104.3016164
 105.4403544  14.7659135 104.0090538 105.2134188  15.8342405 105.0574132
 109.5380667  18.3356268 108.0185671 109.7566677  19.2673376 108.0373705
 109.9506441  17.9764243 108.8040475 114.4108533  13.9089474 117.4088420
 114.3105260  14.8583831 117.3400511 114.1930075  13.5807713 116.5364490
 113.6121604  11.1574399  93.9929097 114.4740768  11.4829297  94.2524915
 113.7971948  10.3705895  93.4802163 105.6289020  19.2396739 106.2709286
 104.9352491  18.8250692 105.7579240 106.3762011  19.2817275 105.6742705
 114.2739803  17.3386613 116.2253482 113.7906884  18.1386973 116.4317371
 114.3600742  17.3494558 115.2720926 107.5425762  19.1714993 104.1475301
 107.5196450  19.2702680 103.1957184 107.8526399  20.0180143 104.4692467
 110.2013140  21.2291148 108.2621915 111.1556394  21.1975090 108.1951847
 110.0025664  20.7681771 109.0772141 110.7912522  19.7992264 110.8292713
 111.6105411  20.2936342 110.8527550 111.0649330  18.8824232 110.8010280
 120.5479119  12.1903016 100.1920668 119.6604974  12.4752667  99.9740863
 120.9633108  12.0296779  99.3447945 123.8993655  12.2149537 103.9075008
 124.6754045  12.7045989 104.1799625 123.1741789  12.6407591 104.3646877
 108.5563369  26.7710767 105.2792113 108.4217837  26.0111168 104.7130111
 108.1395431  27.4951667 104.8120902 119.6922332  21.9547691  94.2868688
 120.3958182  22.1597693  94.9026344 118.9684981  22.5224453  94.5517772
 120.5220142  17.7057552 100.4070959 120.4655344  18.1626103  99.5678591
 121.0748485  16.9448236 100.2293801 124.3324948  13.4947284 101.2321078
 124.0761882  13.0943919 102.0629286 123.7077816  14.2091078 101.1071217
 128.6437286  16.2343357 103.7392370 128.0836844  16.3036546 104.5123932
 128.0380789  16.0584342 103.0191866 111.7132495  27.6680084 105.4910556
 111.5964879  28.6125517 105.3889246 110.8924941  27.3653646 105.8796355
 121.6009029  22.3930220  96.3367149 122.4354633  21.9611418  96.1544623
 121.4393372  22.2212234  97.2644043 121.2554922  18.8962333  97.7023488
 121.2003725  18.7306605  96.7611932 120.6300977  19.6038366  97.8585678
 106.0447437  14.1330398 111.5284910 106.6906300  13.6229351 112.0172135
 105.8364588  14.8699079 112.1028335 118.5700829  21.2011245 117.0277051
 119.4391988  21.3751897 116.6663686 118.0907580  22.0205662 116.9052780
 112.7387009  28.3208346 108.7066484 113.6414256  28.3531956 109.0232979
 112.5124379  27.3908797 108.7212820 114.4940611  27.0739333 105.3676563
 113.5436242  27.0741194 105.2540935 114.7973097  26.3272067 104.8512597
 110.3844928  11.2798015 115.6259924 111.2476389  10.9234819 115.8363249
 109.8110338  10.9411909 116.3135329 130.2293305  32.9099871 106.4322325
 130.8671714  32.7906618 105.7285665 130.1114147  33.8580715 106.4910277
 127.0383011  32.8627299 106.3683850 126.7001522  32.7468364 105.4804385
 127.9072779  32.4618464 106.3484856 122.8969826  34.7162775 102.3580741
 122.3334692  34.6252712 101.5897029 122.7822222  33.8962680 102.8383233
 127.5202794  34.0162151 112.3270055 127.5091435  33.6214949 111.4550559
 127.6823433  33.2828223 112.9203827 120.4434258  36.2113967 105.1964961
 121.2355550  35.8704792 104.7811261 120.6830909  36.3208942 106.1167115
 128.4769385  38.3833743  97.6695206 127.8257365  38.9687824  97.2829220
 129.2713748  38.9139938  97.7290243 122.4025012  35.4722880  98.0682340
 123.1755888  34.9251867  97.9295216 122.7550411  36.3367130  98.2796802
 124.2410055  36.7999263 111.2749239 123.9499921  37.7044893 111.1595906
 124.8767039  36.8415790 111.9893309 125.1666262  34.1776111 107.8650599
 125.7629834  33.9532133 107.1507562 125.2241233  33.4360857 108.4676047
 124.7391290  31.6315546  95.7000790 124.9916811  31.1097068  94.9384253
 123.8015849  31.4681692  95.8027474 129.7834573  30.6351325 103.5075533
 130.5697662  30.2170748 103.1565950 130.0473277  31.5397417 103.6757182
 129.9544650  36.0724175  98.2064190 129.3190483  36.1458802  98.9185095
 129.6242057  36.6617774  97.5283269 135.1843000  30.5726558 104.4108512
 135.9168172  30.0025775 104.6446341 134.4282356  30.1848158 104.8515017
 124.4587579  33.5343652  97.9025165 124.3423837  32.8588556  98.5706249
 124.5689839  33.0476026  97.0857318 126.8019120  32.9953799 101.6071854
 126.4377327  32.4684420 102.3184776 127.6586236  32.6052269 101.4338340
 132.7068420  24.2848132 108.8703120 132.3751745  25.1543543 108.6464335
 132.1114034  23.9684416 109.5497151 126.4424607  28.0243699  96.6033203
 126.6099009  28.8923936  96.9703674 126.2521776  28.1870981  95.6794492
 129.1999940  36.4860678 108.2699033 128.9000663  37.3885717 108.1614840
 128.8551000  36.2192861 109.1220186 122.6512421  32.9374475 104.3035738
 121.7262918  32.8050689 104.5113429 122.8996835  33.7168694 104.8005680
 132.5997084  29.0043218 105.9496470 131.6913961  28.9358627 105.6555231
 132.5484680  29.4815163 106.7778296 126.4213828  30.4801357  97.5879870
 126.3013453  30.9258407  98.4265350 125.7266416  30.8286674  97.0293408
 120.0121233  32.5807748 105.1379527 120.1413614  32.8342227 106.0518938
 119.3318684  33.1735456 104.8184182 124.1820720  43.2504998 101.2370001
 124.1044750  44.2012824 101.3158481 123.5782363  42.9050871 101.8944927
 126.6737950  30.4232864 113.8931368 125.8971284  30.9826784 113.8834232
 127.3128513  30.9089647 114.4146238 134.4658730  27.2059657 107.7274344
 133.8233110  27.4992190 107.0814139 133.9613659  27.0912577 108.5327541
 132.1198894  30.9522830  98.4160204 133.0316750  31.1850217  98.2407901
 131.6108541  31.5359874  97.8535282 124.9284322  33.2318317 113.4549335
 125.6699006  33.7703361 113.1784158 124.2221307  33.8584606 113.6120887
 130.4039662  35.3747458 112.0521496 130.8123018  34.9329868 111.3076129
 129.6816923  34.8000085 112.3055689 126.7570732  30.3120064 109.4255053
 127.6031927  30.7359478 109.5689702 126.6969369  29.6553689 110.1193616
 130.7268476  35.9348648 105.8073785 130.0977339  36.0994362 105.1049853
 130.3394138  36.3490258 106.5784749 134.6057708  36.8703086 103.1618149
 133.9208746  37.2501988 102.6115182 134.6901557  37.4798413 103.8950097
 129.9070177  27.9724433 111.0836227 129.6631109  28.7266493 110.5470503
 130.1830107  28.3509780 111.9183474 131.8608640  34.5163045 109.7613492
 132.0725535  35.1594805 109.0847873 131.8138388  33.6825362 109.2935422
 129.4634869  27.1280866 106.6650065 128.6019348  27.4262119 106.9566802
 129.4897303  27.3451265 105.7331097 126.2796438  35.6723056 103.0723870
 126.7434784  35.9510759 102.2828493 126.0153236  34.7706501 102.8896961
 123.1720519  35.2194538 106.0103633 123.7421876  35.6481806 105.3721118
 123.7628631  34.9377123 106.7087819 125.2165324  31.7946209  99.8813435
 125.9189367  32.2467252 100.3487362 124.8845953  31.1530028 100.5093328
 123.6645686  30.3857965 114.2564645 123.0344346  31.0674246 114.4900042
 123.5581774  30.2741047 113.3117783 118.9590658  30.0529761 105.1830569
 118.1689712  30.3087290 104.7070680 119.4501905  30.8678099 105.2882609
 132.9754468  37.3935001 107.9335850 133.7971911  36.9915188 107.6518531
 132.9716870  37.2903235 108.8851966 120.9105403  30.4174341 102.1414046
 120.1136567  30.5293035 102.6597541 120.6830996  30.7560993 101.2754936
 126.7411071  36.9419044 110.0896560 126.8055504  37.4039451 110.9254732
 126.0321995  36.3116409 110.2178870 117.2428361  30.3060252 107.6145560
 117.4936399  31.1907262 107.8803136 117.7787909  30.1264853 106.8420652
 141.0660461  33.7373749 104.2820821 140.3124169  33.1681147 104.1264826
 141.2008002  33.7036414 105.2291456 126.4559089  38.6087151  99.9575541
 126.3204764  39.4538687 100.3860388 126.9968901  38.8106429  99.1941474
 122.9426428  24.6878731 116.6189896 122.5493374  24.1344930 117.2937540
 123.7592569  24.9989310 117.0096413 119.9088486  36.1262589 100.5303466
 120.4213007  36.9205840 100.6809030 120.5611199  35.4288880 100.4637067
 121.7183371  39.2428346 102.6126219 121.8949999  40.1646310 102.4247203
 122.5140204  38.9286765 103.0420599 125.8594389  26.1036610 114.2110152
 126.6004103  26.7043763 114.1314615 126.0912312  25.3614248 113.6528195
 121.0035727  31.2892978 112.4888382 120.8889243  30.3878235 112.7895481
 120.1480245  31.5356674 112.1373199 128.0827565  39.2310718 114.0875883
 127.6391419  38.4447096 113.7696787 128.7444779  39.4189868 113.4219773
 122.8414686  40.7606519 108.6136561 123.3922111  40.6323583 107.8413555
 122.0026162  41.0601409 108.2631454 130.1808803  39.5113518 112.1157284
 130.1627279  40.3322399 111.6237553 131.1028723  39.3867593 112.3407425
 126.6381857  37.0257647 112.9580792 127.1710194  36.2645935 112.7280100
 126.1095938  36.7331299 113.7004947 129.8051552  22.1317713 108.4874434
 129.4615822  23.0219355 108.4113545 130.1730515  21.9419371 107.6244019
 117.8737403  34.4551244 101.3063036 118.7112625  34.8648252 101.0896744
 118.0515671  33.5150686 101.2763230 129.7701835  32.1226324  96.9946869
 129.2548458  32.8930929  97.2335257 129.4979143  31.4491461  97.6179931
 127.3548946  26.9676025 102.0532108 126.4990542  26.5782876 101.8737746
 127.7675898  27.0467986 101.1931893 128.8848093  24.5022368 106.4523667
 128.3812888  24.4652504 105.6391473 129.1778700  25.4115111 106.5120324
 125.1290979  24.5861098 105.4589849 125.9943975  24.3903907 105.0995738
 125.1968487  24.3571450 106.3859206 134.7436109  34.8758679  98.9300043
 133.9665552  34.5369839  98.4855205 135.4227590  34.8811302  98.2555008
 129.5588138  29.9953416  98.8206650 129.2538274  30.3099566  99.6716794
 130.5118580  30.0734836  98.8633983 128.0034570  36.1543640 100.4699604
 127.4755932  35.4196399 100.1572842 127.5022073  36.9318316 100.2239573
 132.9827416  34.3492660 105.5866651 132.3251090  35.0391922 105.6746779
 133.7867815  34.7389092 105.9300637 122.7353298  26.8163306 102.8306216
 123.3097050  26.5938488 102.0979409 123.3224280  26.8852001 103.5834817
 131.7932875  32.7037033 103.6370592 132.3064757  33.3367025 104.1392302
 132.4434099  32.1038228 103.2713952 123.0622885  28.8467767  96.8502101
 122.2260197  29.1842454  97.1711376 122.9227654  28.7116747  95.9129238
 125.0375965  23.6904555 101.5581285 124.3840378  23.3753572 100.9337900
 124.9956439  23.0680295 102.2841108 126.1487170  33.9723850  93.4734577
 125.2414232  33.7413104  93.6725726 126.6458202  33.1761469  93.6608559
 129.0555249  42.6821357  96.3931264 128.3816948  42.9853054  97.0016221
 129.4421071  43.4850438  96.0436721 128.2713706  30.1786489 105.8828933
 127.3536267  30.4001436 105.7250621 128.6873849  30.2532799 105.0240640
 129.0548753  31.5777904 101.0131613 129.8020572  32.0899301 100.7038735
 129.3240343  31.2561957 101.8736007 127.3275404  34.0736445  97.9958567
 126.4186623  33.7895478  98.0931037 127.3570487  34.4935523  97.1361874
 132.5594671  37.6843034 101.7649735 132.1056998  36.8433944 101.8214925
 131.9288638  38.3204433 102.1024515 131.5027591  28.6135020 102.9950402
 130.7650347  28.1012407 103.3260645 131.7554364  28.1735402 102.1833679
 131.0027610  39.5219531 102.6999553 131.2950585  40.0824588 101.9811919
 131.5126231  39.8148092 103.4552712 131.6039218  21.3911272 103.5892172
 131.9098095  20.5308636 103.3018087 132.3291823  21.9828893 103.3891166
 117.8963574  31.7941959 101.9773770 117.6987974  31.2011320 101.2524836
 117.3410238  31.4894169 102.6949708 125.8760298  31.6865066 104.0968363
 125.9308907  30.7338902 104.0210839 125.0651500  31.8424505 104.5809661
 127.0251491  35.6145189  95.3346646 126.5870921  34.8981048  94.8752283
 127.7661932  35.8421303  94.7731737 123.8152658  30.3042125 101.8558742
 123.0020523  30.6036296 102.2623934 124.3111652  29.9097814 102.5733224
 125.9661235  40.2999882 103.7893006 125.9237414  40.5260729 102.8601538
 126.8823934  40.0663257 103.9378807 129.4126869  30.7683950 110.6873636
 129.7676257  30.9955423 111.5468101 130.0599001  31.1002327 110.0650891
 135.1424606  33.8902386 101.3922965 135.0042505  34.0803982 100.4644154
 134.7860825  34.6521768 101.8491016 123.3066732  27.8760481 107.4719977
 123.9466112  27.7349240 106.7742940 122.4744263  27.5894994 107.0958579
 135.1693986  35.9578913 106.4034236 135.6030493  35.8654202 107.2517290
 135.8825567  35.9336413 105.7654252 124.0827036  37.1762911 103.5854969
 124.8767635  36.6813231 103.3837544 123.3718729  36.6480774 103.2222675
 128.9021881  39.5581007 107.9367337 128.9558903  40.1271943 108.7045053
 128.0336662  39.7282892 107.5721374 120.3909800  31.3205993  99.6614722
 119.4607388  31.2590448  99.8784684 120.4867272  30.7981946  98.8651363
 120.3095349  27.8460806 102.2492963 120.5702166  28.7606139 102.1402124
 121.1312521  27.3785248 102.3989576 121.7820274  29.2598563 109.4191788
 122.4543328  29.0515925 108.7704437 120.9550061  29.0620649 108.9797020
 136.0309535  36.0002613 108.9367121 136.2245425  36.9048424 109.1826396
 135.9310154  35.5410032 109.7705707 127.6845846  25.8860504 111.4357449
 127.0373761  26.5850454 111.3421925 128.4546862  26.3196648 111.8033697
 131.0924644  36.1509356 114.5108002 130.9410150  35.9219908 113.5938086
 131.0829324  37.1079957 114.5239347 127.8609980  33.7241269 109.4954269
 128.7902040  33.8752428 109.3223236 127.4401011  33.8125290 108.6402915
 126.6598312  37.7491933 107.2652806 126.5209398  37.3810718 108.1378744
 125.8712909  38.2639573 107.0936764 127.2546464  42.8501030  98.6078343
 127.4298220  42.3789073  99.4223965 126.5679252  43.4766796  98.8359603
 128.2103527  37.1273536 104.6541644 127.8753360  37.0874306 105.5499294
 127.7107473  36.4618252 104.1812054 122.1847771  32.5341166 110.1794225
 122.0467569  31.8021405 110.7805764 123.0952695  32.4450066 109.8978413
 131.1462719  34.4729570  94.9278704 130.5291890  33.7476398  94.8311756
 130.6779208  35.2338931  94.5845778 124.8130072  32.2461125 109.6677905
 125.5229691  31.6054317 109.6264523 124.7699380  32.4974020 110.5904086
 132.8016851  39.1828479 112.5884484 132.7429397  38.4987699 111.9215067
 133.2036369  39.9247469 112.1365110 123.5259006  29.2326343 111.4873544
 122.9896363  28.7817082 112.1395141 122.9375714  29.3672252 110.7444009
 121.8207550  45.9990392 105.3818203 122.0604148  46.6308917 106.0597221
 120.9776746  45.6478432 105.6683562 122.9361265  28.6914995  94.0500008
 122.0590731  28.5703795  93.6862255 123.4119018  27.9001073  93.7978897
 132.8034258  37.1468063 110.8198464 131.9161037  36.8093984 110.9424863
 133.3732809  36.4151094 111.0567229 114.4563405  33.4792154 104.1441515
 115.1434445  33.1653884 103.5562530 114.3011534  34.3833519 103.8708766
 119.2598127  28.3682351 108.5726539 119.1756316  27.7608020 107.8376949
 118.4380834  28.8591369 108.5736035 126.3335411  41.8069515 107.7859707
 126.2605583  42.6124486 108.2979011 125.8912804  42.0061481 106.9607728
 126.1225191  41.0441285 101.2962528 125.3392713  41.5862965 101.3900753
 126.8217936  41.5615265 101.6956770 129.4321841  26.8535914 103.9396734
 129.9290541  26.1005877 103.6197804 128.6608823  26.8900231 103.3739943
 137.2851599  32.5576280 105.5815025 137.2741475  33.4400995 105.2108958
 136.4168978  32.2047831 105.3869562 128.7934095  41.7056349 109.9417865
 129.5062067  42.3403814 109.8693767 128.3024124  41.8020215 109.1257867
 130.5151622  35.6107602 101.5135157 129.5807901  35.7309064 101.3439861
 130.6928290  34.7080068 101.2495167 126.0156810  28.9953297 103.6668418
 125.6454597  28.4424338 104.3549324 126.5115902  28.3911431 103.1143418
 133.9024173  31.4524921 102.0485191 134.3684625  32.2852912 101.9745494
 134.3531674  30.9869902 102.7530450 123.8446008  39.4550792 110.7623436
 124.5455468  40.0887275 110.9152831 123.3741123  39.7965524 110.0019076
 131.9700404  37.7968742  99.0471343 132.2460248  37.6825337  99.9565217
 131.1004903  37.3986227  99.0083516 131.8740836  23.8205508 106.0876093
 130.9603916  24.0509735 106.2558300 132.3033937  23.9043952 106.9390125
 131.6447294  32.0095400 108.5875987 130.9918745  32.2571307 107.9328439
 132.0227674  31.1959538 108.2538464 128.6054468  42.0455093 102.6904157
 128.7876863  41.2276749 103.1531909 129.4287454  42.2622785 102.2529047
 128.9396634  40.9723278  99.9519205 129.4684400  40.4615733  99.3389368
 129.2024853  40.6565808 100.8164738 127.6934867  32.7515211 115.0742024
 127.0175504  32.6509340 115.7444399 128.5162501  32.5954425 115.5378021
 119.4413727  38.9887147 107.6954539 120.0267163  38.2430835 107.8282443
 119.2438565  39.2991104 108.5791203 122.2952382  42.0238395 102.7116981
 121.6262757  42.5084522 102.2281021 122.1565251  42.2707615 103.6260360
 114.0331381  31.5592748 106.4158982 114.0715481  31.0256338 107.2096100
 113.5271674  31.0327953 105.7969959 126.4357650  44.0582138 109.3099640
 126.9875958  44.2213760 110.0748725 126.7763844  44.6486576 108.6379665
 121.4122144  26.4057288 109.9121524 121.4763470  27.2672119 109.4998922
 121.3489264  25.7931290 109.1793883 120.8874416  28.4780421 113.5594559
 121.5146455  28.0957498 114.1732083 120.0302335  28.2594623 113.9250251
 131.2868525  38.8843396 115.1648294 131.8308429  39.4973354 114.6703249
 130.7055369  39.4422974 115.6815307 117.6639959  30.2856850  99.4912914
 117.9593400  29.3767528  99.4379967 116.7627995  30.2644589  99.1693916
 129.5726038  42.0064114 106.2963322 129.4477177  41.2053854 105.7874267
 130.2305129  42.5010307 105.8077292 121.1934206  28.3612846 105.4740462
 120.4720792  28.9748814 105.3347935 121.9827462  28.8970611 105.3957108
 131.6360946  39.8073134 107.9242872 130.6891282  39.6878485 107.8521199
 131.9843719  38.9195632 108.0069133 123.9960519  25.6967273 111.7481114
 124.5194921  25.9429569 112.5107423 123.7772853  26.5287308 111.3284251
 119.3927800  27.9670947  99.6152239 119.0640507  27.0868326  99.4327345
 119.7467171  27.9118616 100.5028628 128.6407379  39.6025850 104.1247224
 128.4932342  38.6742558 104.3054794 129.4660873  39.6245941 103.6404299
 122.5069624  28.2543917  99.9827716 122.8465696  28.7829838  99.2606325
 122.9541744  28.5924323 100.7586283 132.2441501  40.4254409 105.2112097
 133.1688049  40.2197270 105.0736548 132.0756804  40.1770810 106.1201438
 125.2013064  26.6380968 109.4330784 124.8609885  25.8388781 109.8351464
 124.4952071  26.9382679 108.8607618 125.8529536  23.7230280 107.8858107
 126.6755606  23.2490759 107.7636998 126.0967600  24.5020764 108.3856794
 124.4937771  26.7518539  98.1821009 125.2146133  27.1299792  97.6784726
 123.8703075  27.4707416  98.2855987 128.6368894  27.4563688  99.1179341
 128.8532508  28.3388326  98.8168170 128.1562961  27.0649901  98.3884983
 123.3768115  30.4149401 105.6950086 123.2312696  30.7289704 106.5874368
 122.8993319  31.0334301 105.1420985 125.2364498  27.4051949 105.7430976
 125.2226067  26.5093042 105.4063274 125.9536926  27.4122613 106.3769262
 127.0890629  27.8389289 107.7884103 126.8308406  28.7606360 107.7868433
 126.5575669  27.4419724 108.4784567 132.0336817  40.9440076 100.5674188
 132.2073695  40.3786499  99.8148041 132.5265709  41.7440971 100.3853678
 117.8513777  32.9554745 108.6337747 117.3067245  33.7314553 108.7658022
 118.7293127  33.3025550 108.4756869 124.6401394  26.2866329 101.0118546
 124.7617305  25.3582975 101.2109433 124.3503436  26.3005015 100.0996861
 127.5092584  23.9721240 104.1485266 127.5314281  24.0360573 103.1937245
 127.9260643  23.1325748 104.3425772 137.8876209  33.7076499 102.1864488
 138.3307355  32.9583824 101.7883611 137.0102719  33.6986636 101.8038220
 133.0211990  40.2606841  97.6671087 133.7162894  40.8813533  97.8858401
 133.3635140  39.4102192  97.9423465 118.6379799  32.0824642 111.5267904
 117.8961535  32.2307277 112.1132535 118.3172543  32.3432907 110.6634654
 134.9203413  37.7106546  99.1958417 135.4454737  38.0493819  98.4707737
 134.8325765  36.7753562  99.0121552 126.5823462  41.6240620 111.3248294
 126.8910588  41.3789767 112.1970994 127.3798944  41.8287258 110.8367164
 126.6044074  43.7778530 103.5553671 126.1649064  43.2854908 104.2486527
 127.3552191  43.2351497 103.3145746 119.0836413  39.9690070 103.5578299
 119.9094433  39.6693842 103.1776942 118.7330465  39.1997693 104.0068087
 124.0517946  39.3216539 105.6275972 123.4297955  38.6587244 105.3278200
 124.7222813  39.3477671 104.9449620 117.2845018  37.8876397 104.5167232
 116.4476926  37.4598571 104.3351234 117.2568663  38.0808840 105.4538024
 124.1242473  27.7998327 115.2208478 124.1730629  28.6760449 114.8386248
 124.6664988  27.2575720 114.6480122 134.6097319  38.3439450 114.5009615
 133.8192863  38.3263589 113.9614115 134.3730674  38.8827744 115.2558652
 134.7295194  35.1931916 111.8142344 134.7793199  35.0281924 112.7557867
 134.6209117  34.3259175 111.4240225 123.6131453  37.8720462  99.1034433
 123.7619573  38.5555926  98.4501106 124.4197896  37.8525552  99.6183889
 132.0198956  31.1762844 113.1301651 132.9208819  31.0369309 112.8385648
 132.0946931  31.3417299 114.0699828 126.3541762  28.5529699 111.9754837
 125.4845071  28.8463265 111.7037426 126.5901242  29.1370144 112.6962101
 136.2313391  37.6128858 112.0584366 135.9398199  37.9758838 112.8947826
 135.6185522  36.8995866 111.8797698 137.4309073  35.1781738 104.5786936
 138.2655965  35.6171542 104.7424496 137.5668202  34.7020391 103.7595182
 134.4800579  32.7361472 110.5264423 134.9554701  32.9289119 109.7183275
 133.5566145  32.7920658 110.2807807 121.3684086  33.8985640 100.1095502
 121.1230128  32.9947970 100.3075712 121.5380000  33.9002790  99.1674980
 129.0580796  24.7709316 109.4920257 129.5762739  25.5070343 109.1666746
 128.7035928  25.0773309 110.3267017 120.6379733  29.6313997  97.6081663
 119.9448978  29.7058352  96.9521699 120.3931485  28.8674341  98.1303180
 129.3093390  21.1909599 105.0121154 129.5895144  20.5232788 105.6381581
 130.0943997  21.3838694 104.4995818 127.1126858  40.3668592  96.5746180
 126.5400825  40.9858780  96.1216652 127.6859652  40.9167954  97.1086102
 133.1802248  29.6127233 108.7592729 134.1319671  29.7125330 108.7804953
 133.0105699  28.8205501 109.2690813 131.2016628  26.6982816 108.9452130
 130.6066560  26.9787828 108.2498619 130.9166324  27.1876717 109.7168871
 130.3324118  40.6505743  97.7054763 131.2654791  40.5851304  97.9087638
 130.2447331  41.4862009  97.2469295 132.9612135  39.9671613  94.6658710
 132.8825766  39.6331477  95.5594468 133.7821802  40.4593381  94.6650182
 135.6590326  32.8333352 107.8735029 135.6266646  31.8949353 108.0594713
 136.2690950  32.9117389 107.1400854 127.4973657  31.7029405  93.9162233
 128.4432761  31.5735613  93.9850651 127.1187902  30.9644067  94.3931661
 135.8084814  29.6244396 107.9193312 135.2923863  28.8402852 107.7323241
 136.6924763  29.2963112 108.0839831 133.4695541  23.3685411 103.8789125
 133.2720362  23.0600499 104.7632457 134.0795247  24.0947050 104.0087054
 141.4766876  33.8949359 107.0141066 142.2070264  33.6334647 107.5748769
 140.8673821  33.1578081 107.0543134 139.5582173  32.0357222 107.6115517
 138.8315336  31.9013187 107.0032008 139.1429460  32.3434050 108.4172235
 127.3812349  35.7547151 115.3762890 128.3015359  35.9325750 115.5702936
 127.3461932  34.8103197 115.2242589 125.6816574  29.6279382  93.8517118
 124.7748029  29.3312494  93.9279832 125.9592555  29.3309200  92.9851404
 116.5994514  30.9485745 104.3016164 116.2797299  30.0951053 104.0090538
 116.0527942  31.1634323 105.0574132 120.3774422  33.6648186 108.0185671
 120.5960432  34.5965294 108.0373705 120.7900196  33.3056160 108.8040475
 127.2978640  24.1716271 100.0061359 126.4879368  23.8263356 100.3816605
 127.9863057  23.8623815 100.5948971 129.2269188  23.2494318 101.6285656
 129.7800227  23.6689772 102.2875679 129.4639274  22.3230066 101.6708612
 125.2502287  29.2381392 117.4088420 125.1499014  30.1875749 117.3400511
 125.0323829  28.9099631 116.5364490 124.4515359  26.4866317  93.9929097
 125.3134523  26.8121215  94.2524915 124.6365703  25.6997813  93.4802163
 116.4682774  34.5688656 106.2709286 115.7746246  34.1542609 105.7579240
 117.2155765  34.6109193 105.6742705 132.6047995  25.3594843 101.1364320
 132.0246664  26.0179647 100.7542373 132.3383928  24.5372188 100.7251738
 131.0551561  24.7599901 103.3385641 131.5551340  24.8716435 102.5299959
 131.6987169  24.4560954 103.9786449 125.1133557  32.6678531 116.2253482
 124.6300639  33.4678891 116.4317371 125.1994496  32.6786475 115.2720926
 118.3819517  34.5006910 104.1475301 118.3590205  34.5994598 103.1957184
 118.6920153  35.3472061 104.4692467 121.0406895  36.5583065 108.2621915
 121.9950148  36.5267008 108.1951847 120.8419418  36.0973689 109.0772141
 121.6306277  35.1284181 110.8292713 122.4499166  35.6228260 110.8527550
 121.9043085  34.2116149 110.8010280 131.3872873  27.5194934 100.1920668
 130.4998728  27.8044584  99.9740863 131.8026862  27.3588697  99.3447945
 134.7387409  27.5441455 103.9075008 135.5147799  28.0337907 104.1799625
 134.0135543  27.9699509 104.3646877 137.1759968  28.2569074 104.9648948
 137.7704459  28.0164810 104.2542257 137.2486552  27.5376204 105.5922485
 119.3957124  42.1002685 105.2792113 119.2611591  41.3403086 104.7130111
 118.9789186  42.8243585 104.8120902 130.5316087  37.2839608  94.2868688
 131.2351937  37.4889611  94.9026344 129.8078735  37.8516370  94.5517772
 131.3613897  33.0349470 100.4070959 131.3049098  33.4918021  99.5678591
 131.9142239  32.2740154 100.2293801 135.1718703  28.8239201 101.2321078
 134.9155637  28.4235837 102.0629286 134.5471571  29.5382995 101.1071217
 139.4831041  31.5635275 103.7392370 138.9230599  31.6328464 104.5123932
 138.8774544  31.3876259 103.0191866 122.5526249  42.9972002 105.4910556
 122.4358634  43.9417434 105.3889246 121.7318696  42.6945563 105.8796355
 132.4402784  37.7222138  96.3367149 133.2748388  37.2903336  96.1544623
 132.2787127  37.5504151  97.2644043 132.0948676  34.2254251  97.7023488
 132.0397480  34.0598522  96.7611932 131.4694731  34.9330284  97.8585678
 116.8841191  29.4622315 111.5284910 117.5300055  28.9521269 112.0172135
 116.6758342  30.1990997 112.1028335 129.4094583  36.5303163 117.0277051
 130.2785743  36.7043815 116.6663686 128.9301335  37.3497579 116.9052780
 125.4044802  23.7262360  97.2808806 125.3923471  24.6704200  97.4377077
 126.2968223  23.5432505  96.9868267 123.5780764  43.6500264 108.7066484
 124.4808010  43.6823874 109.0232979 123.3518134  42.7200715 108.7212820
 125.3334366  42.4031250 105.3676563 124.3829997  42.4033112 105.2540935
 125.6366852  41.6563985 104.8512597 129.2196921  20.3205136 101.5354743
 128.4529317  19.7663623 101.6811425 129.6307626  20.3927005 102.3968895
 121.2238682  26.6089932 115.6259924 122.0870144  26.2526737 115.8363249
 120.6504093  26.2703827 116.3135329 141.0687059  48.2391789 106.4322325
 141.7065469  48.1198536 105.7285665 140.9507902  49.1872633 106.4910277
 137.8776765  48.1919217 106.3683850 137.5395277  48.0760281 105.4804385
 138.7466533  47.7910382 106.3484856 133.7363581  50.0454693 102.3580741
 133.1728446  49.9544630 101.5897029 133.6215976  49.2254598 102.8383233
 138.3596548  49.3454068 112.3270055 138.3485189  48.9506867 111.4550559
 138.5217188  48.6120141 112.9203827 131.2828013  51.5405885 105.1964961
 132.0749305  51.1996709 104.7811261 131.5224663  51.6500860 106.1167115
 139.3163140  53.7125661  97.6695206 138.6651119  54.2979741  97.2829220
 140.1107503  54.2431856  97.7290243 133.2418767  50.8014798  98.0682340
 134.0149643  50.2543785  97.9295216 133.5944166  51.6659047  98.2796802
 135.0803809  52.1291180 111.2749239 134.7893675  53.0336811 111.1595906
 135.7160794  52.1707708 111.9893309 136.0060016  49.5068029 107.8650599
 136.6023589  49.2824051 107.1507562 136.0634988  48.7652774 108.4676047
 135.5785045  46.9607464  95.7000790 135.8310565  46.4388985  94.9384253
 134.6409604  46.7973610  95.8027474 140.6228327  45.9643242 103.5075533
 141.4091417  45.5462666 103.1565950 140.8867032  46.8689335 103.6757182
 140.7938405  51.4016093  98.2064190 140.1584238  51.4750719  98.9185095
 140.4635811  51.9909692  97.5283269 146.0236755  45.9018476 104.4108512
 146.7561927  45.3317692 104.6446341 145.2676110  45.5140076 104.8515017
 135.2981333  48.8635570  97.9025165 135.1817592  48.1880473  98.5706249
 135.4083593  48.3767944  97.0857318 137.6412874  48.3245717 101.6071854
 137.2771082  47.7976338 102.3184776 138.4979990  47.9344186 101.4338340
 143.5462175  39.6140050 108.8703120 143.2145500  40.4835461 108.6464335
 142.9507788  39.2976334 109.5497151 137.2818361  43.3535617  96.6033203
 137.4492764  44.2215853  96.9703674 137.0915530  43.5162899  95.6794492
 140.0393695  51.8152596 108.2699033 139.7394418  52.7177635 108.1614840
 139.6944754  51.5484779 109.1220186 133.4906176  48.2666393 104.3035738
 132.5656672  48.1342607 104.5113429 133.7390589  49.0460612 104.8005680
 143.4390838  44.3335136 105.9496470 142.5307716  44.2650544 105.6555231
 143.3878434  44.8107081 106.7778296 137.2607582  45.8093274  97.5879870
 137.1407207  46.2550325  98.4265350 136.5660171  46.1578592  97.0293408
 130.8514987  47.9099666 105.1379527 130.9807368  48.1634145 106.0518938
 130.1712438  48.5027374 104.8184182 135.0214474  58.5796916 101.2370001
 134.9438504  59.5304741 101.3158481 134.4176118  58.2342789 101.8944927
 137.5131704  45.7524782 113.8931368 136.7365038  46.3118702 113.8834232
 138.1522267  46.2381565 114.4146238 145.3052485  42.5351574 107.7274344
 144.6626865  42.8284108 107.0814139 144.8007413  42.4204495 108.5327541
 142.9592648  46.2814748  98.4160204 143.8710504  46.5142134  98.2407901
 142.4502295  46.8651792  97.8535282 135.7678076  48.5610235 113.4549335
 136.5092761  49.0995279 113.1784158 135.0615062  49.1876524 113.6120887
 141.2433416  50.7039375 112.0521496 141.6516772  50.2621786 111.3076129
 140.5210678  50.1292003 112.3055689 137.5964486  45.6411982 109.4255053
 138.4425681  46.0651396 109.5689702 137.5363124  44.9845606 110.1193616
 141.5662231  51.2640566 105.8073785 140.9371093  51.4286280 105.1049853
 141.1787893  51.6782176 106.5784749 145.4451463  52.1995004 103.1618149
 144.7602501  52.5793905 102.6115182 145.5295312  52.8090330 103.8950097
 140.7463931  43.3016350 111.0836227 140.5024863  44.0558411 110.5470503
 141.0223862  43.6801698 111.9183474 142.7002394  49.8454963 109.7613492
 142.9119289  50.4886723 109.0847873 142.6532142  49.0117279 109.2935422
 140.3028623  42.4572784 106.6650065 139.4413102  42.7554037 106.9566802
 140.3291058  42.6743182 105.7331097 137.1190193  51.0014974 103.0723870
 137.5828538  51.2802677 102.2828493 136.8546991  50.0998419 102.8896961
 134.0114274  50.5486456 106.0103633 134.5815631  50.9773724 105.3721118
 134.6022385  50.2669040 106.7087819 136.0559079  47.1238126  99.8813435
 136.7583122  47.5759170 100.3487362 135.7239707  46.4821945 100.5093328
 134.5039440  45.7149883 114.2564645 133.8738101  46.3966164 114.4900042
 134.3975528  45.6032965 113.3117783 129.7984413  45.3821679 105.1830569
 129.0083467  45.6379208 104.7070680 130.2895660  46.1970017 105.2882609
 143.8148222  52.7226918 107.9335850 144.6365666  52.3207106 107.6518531
 143.8110625  52.6195152 108.8851966 131.7499158  45.7466258 102.1414046
 130.9530321  45.8584953 102.6597541 131.5224750  46.0852911 101.2754936
 137.5804826  52.2710962 110.0896560 137.6449258  52.7331369 110.9254732
 136.8715749  51.6408326 110.2178870 128.0822116  45.6352170 107.6145560
 128.3330154  46.5199179 107.8803136 128.6181664  45.4556771 106.8420652
 151.9054215  49.0665667 104.2820821 151.1517924  48.4973065 104.1264826
 152.0401756  49.0328331 105.2291456 137.2952843  53.9379069  99.9575541
 137.1598518  54.7830605 100.3860388 137.8362656  54.1398347  99.1941474
 133.7820183  40.0170649 116.6189896 133.3887128  39.4636847 117.2937540
 134.5986323  40.3281227 117.0096413 130.7482241  51.4554507 100.5303466
 131.2606761  52.2497757 100.6809030 131.4004953  50.7580798 100.4637067
 132.5577125  54.5720263 102.6126219 132.7343754  55.4938228 102.4247203
 133.3533959  54.2578683 103.0420599 136.6988144  41.4328528 114.2110152
 137.4397857  42.0335681 114.1314615 136.9306067  40.6906166 113.6528195
 131.8429482  46.6184895 112.4888382 131.7282997  45.7170153 112.7895481
 130.9874000  46.8648592 112.1373199 138.9221320  54.5602636 114.0875883
 138.4785174  53.7739014 113.7696787 139.5838533  54.7481786 113.4219773
 133.6808441  56.0898437 108.6136561 134.2315866  55.9615501 107.8413555
 132.8419917  56.3893326 108.2631454 141.0202558  54.8405436 112.1157284
 141.0021033  55.6614317 111.6237553 141.9422478  54.7159511 112.3407425
 137.4775612  52.3549565 112.9580792 138.0103949  51.5937853 112.7280100
 136.9489693  52.0623217 113.7004947 140.6445307  37.4609631 108.4874434
 140.3009576  38.3511273 108.4113545 141.0124269  37.2711289 107.6244019
 128.7131157  49.7843161 101.3063036 129.5506379  50.1940170 101.0896744
 128.8909425  48.8442604 101.2763230 140.6095590  47.4518242  96.9946869
 140.0942213  48.2222847  97.2335257 140.3372898  46.7783378  97.6179931
 138.1942701  42.2967943 102.0532108 137.3384297  41.9074793 101.8737746
 138.6069652  42.3759904 101.1931893 139.7241847  39.8314286 106.4523667
 139.2206643  39.7944421 105.6391473 140.0172454  40.7407029 106.5120324
 135.9684733  39.9153016 105.4589849 136.8337730  39.7195825 105.0995738
 136.0362242  39.6863368 106.3859206 145.5829864  50.2050597  98.9300043
 144.8059306  49.8661756  98.4855205 146.2621345  50.2103220  98.2555008
 140.3981893  45.3245334  98.8206650 140.0932028  45.6391483  99.6716794
 141.3512335  45.4026754  98.8633983 138.8428325  51.4835557 100.4699604
 138.3149686  50.7488317 100.1572842 138.3415827  52.2610234 100.2239573
 143.8221171  49.6784578 105.5866651 143.1644845  50.3683839 105.6746779
 144.6261570  50.0681010 105.9300637 133.5747052  42.1455224 102.8306216
 134.1490804  41.9230405 102.0979409 134.1618035  42.2143918 103.5834817
 142.6326629  48.0328951 103.6370592 143.1458511  48.6658942 104.1392302
 143.2827853  47.4330146 103.2713952 133.9016639  44.1759685  96.8502101
 133.0653952  44.5134371  97.1711376 133.7621409  44.0408665  95.9129238
 135.8769720  39.0196473 101.5581285 135.2234132  38.7045490 100.9337900
 135.8350194  38.3972213 102.2841108 136.9880925  49.3015768  93.4734577
 136.0807986  49.0705021  93.6725726 137.4851957  48.5053387  93.6608559
 139.8949004  58.0113275  96.3931264 139.2210702  58.3144972  97.0016221
 140.2814826  58.8142355  96.0436721 139.1107460  45.5078406 105.8828933
 138.1930022  45.7293353 105.7250621 139.5267604  45.5824717 105.0240640
 139.8942508  46.9069822 101.0131613 140.6414327  47.4191219 100.7038735
 140.1634098  46.5853875 101.8736007 138.1669158  49.4028363  97.9958567
 137.2580377  49.1187395  98.0931037 138.1964242  49.8227441  97.1361874
 143.3988426  53.0134952 101.7649735 142.9450753  52.1725862 101.8214925
 142.7682392  53.6496350 102.1024515 142.3421345  43.9426938 102.9950402
 141.6044102  43.4304324 103.3260645 142.5948119  43.5027320 102.1833679
 141.8421365  54.8511449 102.6999553 142.1344339  55.4116506 101.9811919
 142.3519985  55.1440010 103.4552712 142.4432972  36.7203190 103.5892172
 142.7491849  35.8600554 103.3018087 143.1685577  37.3120810 103.3891166
 128.7357329  47.1233877 101.9773770 128.5381728  46.5303237 101.2524836
 128.1803993  46.8186087 102.6949708 136.7154052  47.0156983 104.0968363
 136.7702662  46.0630820 104.0210839 135.9045254  47.1716422 104.5809661
 137.8645246  50.9437106  95.3346646 137.4264676  50.2272965  94.8752283
 138.6055687  51.1713221  94.7731737 134.6546412  45.6334043 101.8558742
 133.8414278  45.9328213 102.2623934 135.1505406  45.2389732 102.5733224
 136.8054990  55.6291800 103.7893006 136.7631169  55.8552646 102.8601538
 137.7217689  55.3955174 103.9378807 140.2520624  46.0975867 110.6873636
 140.6070012  46.3247341 111.5468101 140.8992755  46.4294244 110.0650891
 145.9818361  49.2194303 101.3922965 145.8436259  49.4095899 100.4644154
 145.6254580  49.9813686 101.8491016 134.1460487  43.2052398 107.4719977
 134.7859866  43.0641158 106.7742940 133.3138017  42.9186912 107.0958579
 146.0087740  51.2870830 106.4034236 146.4424247  51.1946119 107.2517290
 146.7219321  51.2628331 105.7654252 134.9220791  52.5054829 103.5854969
 135.7161389  52.0105149 103.3837544 134.2112483  51.9772692 103.2222675
 139.7415635  54.8872924 107.9367337 139.7952658  55.4563861 108.7045053
 138.8730417  55.0574809 107.5721374 131.2303554  46.6497911  99.6614722
 130.3001142  46.5882366  99.8784684 131.3261026  46.1273863  98.8651363
 131.1489103  43.1752723 102.2492963 131.4095921  44.0898057 102.1402124
 131.9706276  42.7077166 102.3989576 132.6214029  44.5890481 109.4191788
 133.2937082  44.3807843 108.7704437 131.7943815  44.3912567 108.9797020
 146.8703290  51.3294531 108.9367121 147.0639180  52.2340341 109.1826396
 146.7703908  50.8701950 109.7705707 138.5239601  41.2152422 111.4357449
 137.8767516  41.9142371 111.3421925 139.2940616  41.6488565 111.8033697
 141.9318399  51.4801274 114.5108002 141.7803905  51.2511825 113.5938086
 141.9223078  52.4371875 114.5239347 138.7003735  49.0533186 109.4954269
 139.6295795  49.2044346 109.3223236 138.2794765  49.1417207 108.6402915
 137.4992067  53.0783851 107.2652806 137.3603152  52.7102635 108.1378744
 136.7106663  53.5931490 107.0936764 138.0940219  58.1792947  98.6078343
 138.2691974  57.7080991  99.4223965 137.4073007  58.8058714  98.8359603
 139.0497282  52.4565454 104.6541644 138.7147115  52.4166224 105.5499294
 138.5501228  51.7910169 104.1812054 133.0241526  47.8633084 110.1794225
 132.8861324  47.1313322 110.7805764 133.9346449  47.7741984 109.8978413
 141.9856474  49.8021488  94.9278704 141.3685644  49.0768316  94.8311756
 141.5172962  50.5630848  94.5845778 135.6523827  47.5753043 109.6677905
 136.3623445  46.9346235 109.6264523 135.6093135  47.8265938 110.5904086
 143.6410605  54.5120396 112.5884484 143.5823151  53.8279616 111.9215067
 144.0430124  55.2539386 112.1365110 134.3652761  44.5618261 111.4873544
 133.8290118  44.1108999 112.1395141 133.7769469  44.6964170 110.7444009
 132.6601304  61.3282310 105.3818203 132.8997902  61.9600834 106.0597221
 131.8170500  60.9770350 105.6683562 133.7755019  44.0206912  94.0500008
 132.8984486  43.8995713  93.6862255 134.2512773  43.2292991  93.7978897
 143.6428012  52.4759980 110.8198464 142.7554791  52.1385902 110.9424863
 144.2126564  51.7443011 111.0567229 125.2957160  48.8084072 104.1441515
 125.9828199  48.4945802 103.5562530 125.1405288  49.7125437 103.8708766
 130.0991882  43.6974269 108.5726539 130.0150070  43.0899938 107.8376949
 129.2774588  44.1883287 108.5736035 137.1729166  57.1361433 107.7859707
 137.0999337  57.9416404 108.2979011 136.7306559  57.3353398 106.9607728
 136.9618946  56.3733203 101.2962528 136.1786467  56.9154883 101.3900753
 137.6611691  56.8907182 101.6956770 140.2715596  42.1827832 103.9396734
 140.7684295  41.4297794 103.6197804 139.5002577  42.2192149 103.3739943
 148.1245353  47.8868198 105.5815025 148.1135229  48.7692913 105.2108958
 147.2562732  47.5339748 105.3869562 139.6327849  57.0348267 109.9417865
 140.3455822  57.6695731 109.8693767 139.1417878  57.1312133 109.1257867
 141.3545376  50.9399519 101.5135157 140.4201655  51.0600982 101.3439861
 141.5322045  50.0371986 101.2495167 136.8550564  44.3245215 103.6668418
 136.4848352  43.7716255 104.3549324 137.3509657  43.7203349 103.1143418
 144.7417928  46.7816839 102.0485191 145.2078380  47.6144830 101.9745494
 145.1925428  46.3161820 102.7530450 134.6839763  54.7842710 110.7623436
 135.3849222  55.4179193 110.9152831 134.2134878  55.1257442 110.0019076
 142.8094159  53.1260660  99.0471343 143.0854003  53.0117254  99.9565217
 141.9398658  52.7278145  99.0083516 142.7134590  39.1497426 106.0876093
 141.7997670  39.3801652 106.2558300 143.1427692  39.2335870 106.9390125
 142.4841049  47.3387317 108.5875987 141.8312499  47.5863225 107.9328439
 142.8621429  46.5251456 108.2538464 139.4448223  57.3747011 102.6904157
 139.6270617  56.5568667 103.1531909 140.2681209  57.5914703 102.2529047
 139.7790388  56.3015196  99.9519205 140.3078155  55.7907650  99.3389368
 140.0418608  55.9857726 100.8164738 138.5328622  48.0807129 115.0742024
 137.8569259  47.9801258 115.7444399 139.3556256  47.9246342 115.5378021
 130.2807481  54.3179065 107.6954539 130.8660918  53.5722753 107.8282443
 130.0832319  54.6283022 108.5791203 133.1346136  57.3530312 102.7116981
 132.4656511  57.8376440 102.2281021 132.9959006  57.5999533 103.6260360
 124.8725136  46.8884665 106.4158982 124.9109235  46.3548256 107.2096100
 124.3665429  46.3619871 105.7969959 137.2751405  59.3874056 109.3099640
 137.8269713  59.5505678 110.0748725 137.6157598  59.9778494 108.6379665
 132.2515898  41.7349206 109.9121524 132.3157225  42.5964037 109.4998922
 132.1883018  41.1223207 109.1793883 131.7268171  43.8072338 113.5594559
 132.3540209  43.4249416 114.1732083 130.8696089  43.5886540 113.9250251
 142.1262279  54.2135314 115.1648294 142.6702183  54.8265272 114.6703249
 141.5449124  54.7714892 115.6815307 128.5033713  45.6148767  99.4912914
 128.7987154  44.7059446  99.4379967 127.6021749  45.5936507  99.1693916
 140.4119792  57.3356032 106.2963322 140.2870932  56.5345771 105.7874267
 141.0698883  57.8302225 105.8077292 132.0327960  43.6904764 105.4740462
 131.3114546  44.3040732 105.3347935 132.8221216  44.2262529 105.3957108
 142.4754700  55.1365052 107.9242872 141.5285036  55.0170403 107.8521199
 142.8237474  54.2487550 108.0069133 134.8354274  41.0259191 111.7481114
 135.3588676  41.2721487 112.5107423 134.6166607  41.8579225 111.3284251
 130.2321555  43.2962865  99.6152239 129.9034261  42.4160244  99.4327345
 130.5860926  43.2410534 100.5028628 139.4801134  54.9317768 104.1247224
 139.3326096  54.0034475 104.3054794 140.3054627  54.9537859 103.6404299
 133.3463378  43.5835835  99.9827716 133.6859451  44.1121756  99.2606325
 133.7935499  43.9216241 100.7586283 143.0835256  55.7546327 105.2112097
 144.0081803  55.5489188 105.0736548 142.9150559  55.5062728 106.1201438
 136.0406819  41.9672886 109.4330784 135.7003639  41.1680699 109.8351464
 135.3345825  42.2674596 108.8607618 136.6923291  39.0522198 107.8858107
 137.5149360  38.5782676 107.7636998 136.9361354  39.8312682 108.3856794
 135.3331525  42.0810457  98.1821009 136.0539888  42.4591709  97.6784726
 134.7096829  42.7999333  98.2855987 139.4762648  42.7855605  99.1179341
 139.6926262  43.6680243  98.8168170 138.9956715  42.3941819  98.3884983
 134.2161869  45.7441319 105.6950086 134.0706450  46.0581622 106.5874368
 133.7387073  46.3626219 105.1420985 136.0758252  42.7343867 105.7430976
 136.0619821  41.8384960 105.4063274 136.7930680  42.7414530 106.3769262
 137.9284383  43.1681207 107.7884103 137.6702161  44.0898278 107.7868433
 137.3969423  42.7711641 108.4784567 142.8730572  56.2731994 100.5674188
 143.0467449  55.7078416  99.8148041 143.3659463  57.0732889 100.3853678
 128.6907532  48.2846663 108.6337747 128.1461000  49.0606471 108.7658022
 129.5686881  48.6317468 108.4756869 135.4795148  41.6158247 101.0118546
 135.6011059  40.6874893 101.2109433 135.1897191  41.6296933 100.0996861
 138.3486339  39.3013157 104.1485266 138.3708035  39.3652490 103.1937245
 138.7654398  38.4617666 104.3425772 148.7269963  49.0368417 102.1864488
 149.1701109  48.2875742 101.7883611 147.8496473  49.0278553 101.8038220
 143.8605744  55.5898758  97.6671087 144.5556649  56.2105451  97.8858401
 144.2028894  54.7394110  97.9423465 129.4773553  47.4116559 111.5267904
 128.7355290  47.5599195 112.1132535 129.1566298  47.6724825 110.6634654
 145.7597167  53.0398464  99.1958417 146.2848492  53.3785737  98.4707737
 145.6719520  52.1045479  99.0121552 137.4217216  56.9532538 111.3248294
 137.7304343  56.7081684 112.1970994 138.2192698  57.1579176 110.8367164
 137.4437828  59.1070447 103.5553671 137.0042818  58.6146826 104.2486527
 138.1945945  58.5643415 103.3145746 129.9230167  55.2981988 103.5578299
 130.7488187  54.9985760 103.1776942 129.5724219  54.5289611 104.0068087
 134.8911700  54.6508456 105.6275972 134.2691710  53.9879161 105.3278200
 135.5616567  54.6769588 104.9449620 128.1238772  53.2168315 104.5167232
 127.2870681  52.7890489 104.3351234 128.0962418  53.4100758 105.4538024
 134.9636228  43.1290244 115.2208478 135.0124383  44.0052367 114.8386248
 135.5058742  42.5867637 114.6480122 145.4491073  53.6731368 114.5009615
 144.6586617  53.6555506 113.9614115 145.2124428  54.2119661 115.2558652
 145.5688949  50.5223834 111.8142344 145.6186953  50.3573841 112.7557867
 145.4602872  49.6551093 111.4240225 134.4525207  53.2012380  99.1034433
 134.6013328  53.8847844  98.4501106 135.2591651  53.1817470  99.6183889
 142.8592711  46.5054762 113.1301651 143.7602574  46.3661227 112.8385648
 142.9340685  46.6709217 114.0699828 137.1935516  43.8821617 111.9754837
 136.3238826  44.1755183 111.7037426 137.4294997  44.4662062 112.6962101
 147.0707145  52.9420775 112.0584366 146.7791954  53.3050756 112.8947826
 146.4579277  52.2287784 111.8797698 148.2702828  50.5073655 104.5786936
 149.1049719  50.9463459 104.7424496 148.4061956  50.0312308 103.7595182
 145.3194334  48.0653390 110.5264423 145.7948455  48.2581036 109.7183275
 144.3959899  48.1212576 110.2807807 132.2077840  49.2277557 100.1095502
 131.9623882  48.3239887 100.3075712 132.3773755  49.2294708  99.1674980
 139.8974550  40.1001234 109.4920257 140.4156494  40.8362261 109.1666746
 139.5429683  40.4065227 110.3267017 131.4773488  44.9605915  97.6081663
 130.7842733  45.0350270  96.9521699 131.2325240  44.1966259  98.1303180
 140.1487144  36.5201516 105.0121154 140.4288898  35.8524705 105.6381581
 140.9337751  36.7130612 104.4995818 137.9520613  55.6960510  96.5746180
 137.3794580  56.3150697  96.1216652 138.5253406  56.2459872  97.1086102
 144.0196003  44.9419150 108.7592729 144.9713426  45.0417248 108.7804953
 143.8499453  44.1497419 109.2690813 142.0410382  42.0274733 108.9452130
 141.4460314  42.3079746 108.2498619 141.7560079  42.5168634 109.7168871
 141.1717873  55.9797660  97.7054763 142.1048546  55.9143222  97.9087638
 141.0841085  56.8153927  97.2469295 143.8005889  55.2963531  94.6658710
 143.7219521  54.9623394  95.5594468 144.6215556  55.7885298  94.6650182
 146.4984080  48.1625270 107.8735029 146.4660401  47.2241271 108.0594713
 147.1084704  48.2409307 107.1400854 138.3367411  47.0321323  93.9162233
 139.2826516  46.9027531  93.9850651 137.9581656  46.2935985  94.3931661
 146.6478569  44.9536313 107.9193312 146.1317618  44.1694770 107.7323241
 147.5318517  44.6255030 108.0839831 144.3089296  38.6977329 103.8789125
 144.1114117  38.3892417 104.7632457 144.9189001  39.4238968 104.0087054
 152.3160630  49.2241277 107.0141066 153.0464019  48.9626565 107.5748769
 151.7067576  48.4869999 107.0543134 150.3975927  47.3649139 107.6115517
 149.6709091  47.2305104 107.0032008 149.9823214  47.6725968 108.4172235
 138.2206104  51.0839069 115.3762890 139.1409113  51.2617668 115.5702936
 138.1855687  50.1395114 115.2242589 136.5210328  44.9571299  93.8517118
 135.6141784  44.6604412  93.9279832 136.7986309  44.6601117  92.9851404
 127.4388269  46.2777663 104.3016164 127.1191053  45.4242971 104.0090538
 126.8921697  46.4926241 105.0574132 131.2168176  48.9940104 108.0185671
 131.4354186  49.9257211 108.0373705 131.6293950  48.6348078 108.8040475
 138.1372394  39.5008189 100.0061359 137.3273122  39.1555274 100.3816605
 138.8256811  39.1915733 100.5948971 140.0662942  38.5786236 101.6285656
 140.6193981  38.9981689 102.2875679 140.3033029  37.6521984 101.6708612
 136.0896042  44.5673309 117.4088420 135.9892769  45.5167666 117.3400511
 135.8717584  44.2391548 116.5364490 135.2909113  41.8158234  93.9929097
 136.1528277  42.1413133  94.2524915 135.4759457  41.0289730  93.4802163
 127.3076529  49.8980574 106.2709286 126.6140000  49.4834527 105.7579240
 128.0549520  49.9401111 105.6742705 143.4441750  40.6886761 101.1364320
 142.8640419  41.3471565 100.7542373 143.1777682  39.8664106 100.7251738
 141.8945316  40.0891819 103.3385641 142.3945094  40.2008353 102.5299959
 142.5380924  39.7852871 103.9786449 135.9527312  47.9970448 116.2253482
 135.4694393  48.7970808 116.4317371 136.0388251  48.0078393 115.2720926
 129.2213271  49.8298828 104.1475301 129.1983959  49.9286515 103.1957184
 129.5313908  50.6763979 104.4692467 131.8800649  51.8874983 108.2621915
 132.8343903  51.8558925 108.1951847 131.6813173  51.4265607 109.0772141
 132.4700031  50.4576099 110.8292713 133.2892920  50.9520178 110.8527550
 132.7436839  49.5408067 110.8010280 142.2266628  42.8486851 100.1920668
 141.3392483  43.1336502  99.9740863 142.6420617  42.6880615  99.3447945
 145.5781164  42.8733372 103.9075008 146.3541554  43.3629825 104.1799625
 144.8529298  43.2991426 104.3646877 148.0153722  43.5860992 104.9648948
 148.6098213  43.3456727 104.2542257 148.0880306  42.8668122 105.5922485
 130.2350878  57.4294602 105.2792113 130.1005346  56.6695003 104.7130111
 129.8182940  58.1535502 104.8120902 141.3709841  52.6131526  94.2868688
 142.0745691  52.8181528  94.9026344 140.6472490  53.1808288  94.5517772
 142.2007651  48.3641387 100.4070959 142.1442853  48.8209939  99.5678591
 142.7535994  47.6032072 100.2293801 146.0112457  44.1531119 101.2321078
 145.7549391  43.7527755 102.0629286 145.3865325  44.8674913 101.1071217
 150.3224795  46.8927192 103.7392370 149.7624353  46.9620382 104.5123932
 149.7168298  46.7168177 103.0191866 133.3920004  58.3263919 105.4910556
 133.2752388  59.2709352 105.3889246 132.5712450  58.0237481 105.8796355
 143.2796538  53.0514055  96.3367149 144.1142142  52.6195254  96.1544623
 143.1180881  52.8796069  97.2644043 142.9342431  49.5546168  97.7023488
 142.8791234  49.3890440  96.7611932 142.3088486  50.2622201  97.8585678
 127.7234946  44.7914233 111.5284910 128.3693809  44.2813187 112.0172135
 127.5152097  45.5282915 112.1028335 140.2488338  51.8595080 117.0277051
 141.1179497  52.0335733 116.6663686 139.7695089  52.6789497 116.9052780
 136.2438556  39.0554277  97.2808806 136.2317226  39.9996117  97.4377077
 137.1361978  38.8724423  96.9868267 134.4174518  58.9792181 108.7066484
 135.3201765  59.0115792 109.0232979 134.1911888  58.0492632 108.7212820
 136.1728120  57.7323168 105.3676563 135.2223751  57.7325030 105.2540935
 136.4760606  56.9855902 104.8512597 140.0590676  35.6497054 101.5354743
 139.2923071  35.0955541 101.6811425 140.4701380  35.7218923 102.3968895
 132.0632437  41.9381850 115.6259924 132.9263898  41.5818655 115.8363249
 131.4897847  41.5995745 116.3135329 151.9080813  63.5683706 106.4322325
 152.5459223  63.4490454 105.7285665 151.7901656  64.5164550 106.4910277
 148.7170520  63.5211134 106.3683850 148.3789031  63.4052199 105.4804385
 149.5860288  63.1202299 106.3484856 144.5757335  65.3746611 102.3580741
 144.0122201  65.2836548 101.5897029 144.4609731  64.5546515 102.8383233
 149.1990303  64.6745986 112.3270055 149.1878944  64.2798784 111.4550559
 149.3610942  63.9412059 112.9203827 142.1221767  66.8697802 105.1964961
 142.9143059  66.5288627 104.7811261 142.3618418  66.9792777 106.1167115
 150.1556894  69.0417579  97.6695206 149.5044874  69.6271659  97.2829220
 150.9501257  69.5723773  97.7290243 144.0812521  66.1306716  98.0682340
 144.8543397  65.5835703  97.9295216 144.4337920  66.9950965  98.2796802
 145.9197564  67.4583098 111.2749239 145.6287430  68.3628729 111.1595906
 146.5554548  67.4999626 111.9893309 146.8453771  64.8359946 107.8650599
 147.4417343  64.6115969 107.1507562 146.9028742  64.0944692 108.4676047
 146.4178799  62.2899382  95.7000790 146.6704320  61.7680903  94.9384253
 145.4803358  62.1265527  95.8027474 151.4622082  61.2935160 103.5075533
 152.2485171  60.8754583 103.1565950 151.7260786  62.1981252 103.6757182
 151.6332159  66.7308010  98.2064190 150.9977992  66.8042637  98.9185095
 151.3029566  67.3201609  97.5283269 146.1375088  64.1927488  97.9025165
 146.0211346  63.5172391  98.5706249 146.2477348  63.7059862  97.0857318
 148.4806629  63.6537635 101.6071854 148.1164836  63.1268256 102.3184776
 149.3373745  63.2636104 101.4338340 154.3855929  54.9431967 108.8703120
 154.0539254  55.8127378 108.6464335 153.7901543  54.6268251 109.5497151
 148.1212116  58.6827535  96.6033203 148.2886518  59.5507771  96.9703674
 147.9309285  58.8454816  95.6794492 150.8787449  67.1444513 108.2699033
 150.5788172  68.0469552 108.1614840 150.5338509  66.8776697 109.1220186
 144.3299930  63.5958310 104.3035738 143.4050427  63.4634524 104.5113429
 144.5784344  64.3752530 104.8005680 154.2784593  59.6627054 105.9496470
 153.3701470  59.5942462 105.6555231 154.2272189  60.1398999 106.7778296
 148.1001337  61.1385192  97.5879870 147.9800962  61.5842243  98.4265350
 147.4053925  61.4870510  97.0293408 141.6908742  63.2391584 105.1379527
 141.8201123  63.4926063 106.0518938 141.0106193  63.8319292 104.8184182
 145.8608229  73.9088834 101.2370001 145.7832258  74.8596659 101.3158481
 145.2569872  73.5634706 101.8944927 148.3525459  61.0816699 113.8931368
 147.5758793  61.6410619 113.8834232 148.9916022  61.5673482 114.4146238
 156.1446239  57.8643492 107.7274344 155.5020619  58.1576025 107.0814139
 155.6401168  57.7496412 108.5327541 153.7986403  61.6106665  98.4160204
 154.7104259  61.8434052  98.2407901 153.2896050  62.1943709  97.8535282
 146.6071831  63.8902153 113.4549335 147.3486515  64.4287197 113.1784158
 145.9008816  64.5168441 113.6120887 152.0827171  66.0331293 112.0521496
 152.4910527  65.5913704 111.3076129 151.3604432  65.4583921 112.3055689
 148.4358241  60.9703900 109.4255053 149.2819436  61.3943313 109.5689702
 148.3756878  60.3137524 110.1193616 152.4055985  66.5932484 105.8073785
 151.7764848  66.7578198 105.1049853 152.0181647  67.0074093 106.5784749
 156.2845217  67.5286922 103.1618149 155.5996255  67.9085823 102.6115182
 156.3689066  68.1382248 103.8950097 151.5857686  58.6308268 111.0836227
 151.3418618  59.3850329 110.5470503 151.8617616  59.0093616 111.9183474
 153.5396149  65.1746881 109.7613492 153.7513044  65.8178640 109.0847873
 153.4925897  64.3409197 109.2935422 151.1422378  57.7864701 106.6650065
 150.2806857  58.0845955 106.9566802 151.1684812  58.0035100 105.7331097
 147.9583947  66.3306892 103.0723870 148.4222293  66.6094595 102.2828493
 147.6940745  65.4290336 102.8896961 144.8508028  65.8778373 106.0103633
 145.4209385  66.3065642 105.3721118 145.4416140  65.5960958 106.7087819
 146.8952833  62.4530044  99.8813435 147.5976876  62.9051088 100.3487362
 146.5633462  61.8113863 100.5093328 145.3433195  61.0441801 114.2564645
 144.7131855  61.7258082 114.4900042 145.2369283  60.9324882 113.3117783
 140.6378167  60.7113597 105.1830569 139.8477221  60.9671125 104.7070680
 141.1289414  61.5261935 105.2882609 154.6541977  68.0518836 107.9335850
 155.4759420  67.6499023 107.6518531 154.6504379  67.9487070 108.8851966
 142.5892912  61.0758176 102.1414046 141.7924076  61.1876870 102.6597541
 142.3618505  61.4144828 101.2754936 148.4198580  67.6002879 110.0896560
 148.4843013  68.0623286 110.9254732 147.7109504  66.9700244 110.2178870
 138.9215870  60.9644087 107.6145560 139.1723908  61.8491097 107.8803136
 139.4575418  60.7848689 106.8420652 148.1346598  69.2670987  99.9575541
 147.9992272  70.1122522 100.3860388 148.6756410  69.4690264  99.1941474
 144.6213937  55.3462567 116.6189896 144.2280883  54.7928765 117.2937540
 145.4380078  55.6573145 117.0096413 141.5875995  66.7846425 100.5303466
 142.1000516  67.5789675 100.6809030 142.2398708  66.0872715 100.4637067
 143.3970880  69.9012181 102.6126219 143.5737508  70.8230146 102.4247203
 144.1927713  69.5870600 103.0420599 147.5381898  56.7620446 114.2110152
 148.2791612  57.3627599 114.1314615 147.7699821  56.0198083 113.6528195
 142.6823236  61.9476813 112.4888382 142.5676751  61.0462070 112.7895481
 141.8267754  62.1940510 112.1373199 149.7615074  69.8894553 114.0875883
 149.3178928  69.1030932 113.7696787 150.4232288  70.0773704 113.4219773
 144.5202195  71.4190355 108.6136561 145.0709620  71.2907418 107.8413555
 143.6813671  71.7185244 108.2631454 151.8596312  70.1697353 112.1157284
 151.8414788  70.9906234 111.6237553 152.7816232  70.0451428 112.3407425
 148.3169366  67.6841483 112.9580792 148.8497703  66.9229771 112.7280100
 147.7883447  67.3915134 113.7004947 151.4839061  52.7901549 108.4874434
 151.1403331  53.6803190 108.4113545 151.8518024  52.6003206 107.6244019
 139.5524912  65.1135079 101.3063036 140.3900134  65.5232087 101.0896744
 139.7303180  64.1734521 101.2763230 151.4489344  62.7810160  96.9946869
 150.9335967  63.5514764  97.2335257 151.1766652  62.1075296  97.6179931
 149.0336455  57.6259861 102.0532108 148.1778051  57.2366711 101.8737746
 149.4463407  57.7051821 101.1931893 150.5635602  55.1606204 106.4523667
 150.0600397  55.1236339 105.6391473 150.8566209  56.0698946 106.5120324
 146.8078488  55.2444933 105.4589849 147.6731484  55.0487742 105.0995738
 146.8755996  55.0155285 106.3859206 151.2375647  60.6537252  98.8206650
 150.9325783  60.9683401  99.6716794 152.1906089  60.7318672  98.8633983
 149.6822079  66.8127475 100.4699604 149.1543441  66.0780235 100.1572842
 149.1809582  67.5902151 100.2239573 154.6614925  65.0076496 105.5866651
 154.0038599  65.6975757 105.6746779 155.4655324  65.3972928 105.9300637
 144.4140807  57.4747141 102.8306216 144.9884559  57.2522323 102.0979409
 145.0011789  57.5435836 103.5834817 153.4720384  63.3620868 103.6370592
 153.9852266  63.9950860 104.1392302 154.1221608  62.7622064 103.2713952
 144.7410394  59.5051602  96.8502101 143.9047706  59.8426289  97.1711376
 144.6015163  59.3700582  95.9129238 146.7163474  54.3488390 101.5581285
 146.0627887  54.0337408 100.9337900 146.6743948  53.7264131 102.2841108
 147.8274679  64.6307685  93.4734577 146.9201741  64.3996939  93.6725726
 148.3245711  63.8345305  93.6608559 150.7342758  73.3405193  96.3931264
 150.0604457  73.6436889  97.0016221 151.1208580  74.1434273  96.0436721
 149.9501215  60.8370324 105.8828933 149.0323776  61.0585271 105.7250621
 150.3661358  60.9116634 105.0240640 150.7336262  62.2361740 101.0131613
 151.4808081  62.7483137 100.7038735 151.0027852  61.9145792 101.8736007
 149.0062913  64.7320280  97.9958567 148.0974132  64.4479313  98.0931037
 149.0357996  65.1519359  97.1361874 154.2382180  68.3426870 101.7649735
 153.7844507  67.5017780 101.8214925 153.6076147  68.9788268 102.1024515
 153.1815100  59.2718856 102.9950402 152.4437856  58.7596242 103.3260645
 153.4341873  58.8319237 102.1833679 152.6815119  70.1803366 102.6999553
 152.9738094  70.7408424 101.9811919 153.1913740  70.4731927 103.4552712
 153.2826727  52.0495108 103.5892172 153.5885604  51.1892471 103.3018087
 154.0079332  52.6412728 103.3891166 139.5751083  62.4525794 101.9773770
 139.3775483  61.8595155 101.2524836 139.0197747  62.1478005 102.6949708
 147.5547807  62.3448901 104.0968363 147.6096416  61.3922737 104.0210839
 146.7439009  62.5008340 104.5809661 148.7039000  66.2729024  95.3346646
 148.2658430  65.5564883  94.8752283 149.4449441  66.5005139  94.7731737
 145.4940167  60.9625961 101.8558742 144.6808032  61.2620131 102.2623934
 145.9899161  60.5681649 102.5733224 147.6448744  70.9583718 103.7893006
 147.6024923  71.1844564 102.8601538 148.5611443  70.7247092 103.9378807
 151.0914378  61.4267785 110.6873636 151.4463766  61.6539258 111.5468101
 151.7386510  61.7586162 110.0650891 144.9854241  58.5344316 107.4719977
 145.6253621  58.3933075 106.7742940 144.1531772  58.2478830 107.0958579
 145.7614545  67.8346747 103.5854969 146.5555144  67.3397067 103.3837544
 145.0506238  67.3064610 103.2222675 150.5809390  70.2164842 107.9367337
 150.6346412  70.7855778 108.7045053 149.7124171  70.3866727 107.5721374
 142.0697309  61.9789828  99.6614722 141.1394897  61.9174284  99.8784684
 142.1654781  61.4565781  98.8651363 141.9882858  58.5044641 102.2492963
 142.2489675  59.4189974 102.1402124 142.8100030  58.0369084 102.3989576
 143.4607783  59.9182398 109.4191788 144.1330837  59.7099760 108.7704437
 142.6337570  59.7204484 108.9797020 149.3633355  56.5444339 111.4357449
 148.7161270  57.2434289 111.3421925 150.1334371  56.9780483 111.8033697
 152.7712153  66.8093191 114.5108002 152.6197659  66.5803743 113.5938086
 152.7616833  67.7663793 114.5239347 149.5397489  64.3825104 109.4954269
 150.4689549  64.5336264 109.3223236 149.1188519  64.4709125 108.6402915
 148.3385821  68.4075769 107.2652806 148.1996907  68.0394553 108.1378744
 147.5500417  68.9223408 107.0936764 148.9333973  73.5084865  98.6078343
 149.1085729  73.0372908  99.4223965 148.2466761  74.1350631  98.8359603
 149.8891036  67.7857371 104.6541644 149.5540869  67.7458141 105.5499294
 149.3894982  67.1202087 104.1812054 143.8635280  63.1925001 110.1794225
 143.7255078  62.4605240 110.7805764 144.7740204  63.1033901 109.8978413
 152.8250228  65.1313406  94.9278704 152.2079399  64.4060234  94.8311756
 152.3566717  65.8922766  94.5845778 146.4917581  62.9044961 109.6677905
 147.2017200  62.2638153 109.6264523 146.4486889  63.1557855 110.5904086
 154.4804360  69.8412314 112.5884484 154.4216906  69.1571534 111.9215067
 154.8823878  70.5831304 112.1365110 145.2046515  59.8910178 111.4873544
 144.6683872  59.4400917 112.1395141 144.6163223  60.0256087 110.7444009
 143.4995059  76.6574228 105.3818203 143.7391657  77.2892752 106.0597221
 142.6564255  76.3062268 105.6683562 144.6148774  59.3498830  94.0500008
 143.7378240  59.2287631  93.6862255 145.0906527  58.5584908  93.7978897
 154.4821767  67.8051898 110.8198464 153.5948546  67.4677820 110.9424863
 155.0520318  67.0734929 111.0567229 136.1350914  64.1375990 104.1441515
 136.8221954  63.8237720 103.5562530 135.9799043  65.0417354 103.8708766
 140.9385636  59.0266186 108.5726539 140.8543825  58.4191856 107.8376949
 140.1168343  59.5175204 108.5736035 148.0122920  72.4653350 107.7859707
 147.9393092  73.2708322 108.2979011 147.5700313  72.6645316 106.9607728
 147.8012700  71.7025120 101.2962528 147.0180222  72.2446800 101.3900753
 148.5005445  72.2199100 101.6956770 151.1109350  57.5119750 103.9396734
 151.6078050  56.7589712 103.6197804 150.3396332  57.5484066 103.3739943
 150.4721604  72.3640184 109.9417865 151.1849576  72.9987649 109.8693767
 149.9811633  72.4604050 109.1257867 152.1939131  66.2691437 101.5135157
 151.2595410  66.3892899 101.3439861 152.3715799  65.3663904 101.2495167
 147.6944319  59.6537133 103.6668418 147.3242106  59.1008173 104.3549324
 148.1903411  59.0495266 103.1143418 155.5811682  62.1108756 102.0485191
 156.0472134  62.9436748 101.9745494 156.0319183  61.6453738 102.7530450
 145.5233517  70.1134628 110.7623436 146.2242977  70.7471111 110.9152831
 145.0528632  70.4549359 110.0019076 153.6487913  68.4552578  99.0471343
 153.9247757  68.3409172  99.9565217 152.7792412  68.0570062  99.0083516
 153.5528345  54.4789343 106.0876093 152.6391425  54.7093570 106.2558300
 153.9821446  54.5627787 106.9390125 153.3234803  62.6679235 108.5875987
 152.6706254  62.9155143 107.9328439 153.7015183  61.8543373 108.2538464
 150.2841977  72.7038928 102.6904157 150.4664372  71.8860584 103.1531909
 151.1074963  72.9206621 102.2529047 150.6184143  71.6307113  99.9519205
 151.1471909  71.1199568  99.3389368 150.8812362  71.3149644 100.8164738
 149.3722376  63.4099046 115.0742024 148.6963013  63.3093176 115.7444399
 150.1950010  63.2538260 115.5378021 141.1201235  69.6470983 107.6954539
 141.7054672  68.9014671 107.8282443 140.9226074  69.9574939 108.5791203
 143.9739891  72.6822230 102.7116981 143.3050266  73.1668358 102.2281021
 143.8352760  72.9291451 103.6260360 135.7118890  62.2176583 106.4158982
 135.7502990  61.6840174 107.2096100 135.2059183  61.6911788 105.7969959
 148.1145159  74.7165974 109.3099640 148.6663467  74.8797595 110.0748725
 148.4551353  75.3070412 108.6379665 143.0909653  57.0641123 109.9121524
 143.1550979  57.9255954 109.4998922 143.0276773  56.4515125 109.1793883
 142.5661925  59.1364256 113.5594559 143.1933964  58.7541333 114.1732083
 141.7089844  58.9178458 113.9250251 152.9656034  69.5427231 115.1648294
 153.5095938  70.1557189 114.6703249 152.3842878  70.1006810 115.6815307
 139.3427468  60.9440685  99.4912914 139.6380909  60.0351364  99.4379967
 138.4415504  60.9228425  99.1693916 151.2513547  72.6647949 106.2963322
 151.1264686  71.8637689 105.7874267 151.9092638  73.1594143 105.8077292
 142.8721715  59.0196682 105.4740462 142.1508301  59.6332649 105.3347935
 143.6614971  59.5554447 105.3957108 153.3148455  70.4656969 107.9242872
 152.3678790  70.3462320 107.8521199 153.6631228  69.5779467 108.0069133
 145.6748028  56.3551108 111.7481114 146.1982430  56.6013405 112.5107423
 145.4560362  57.1871143 111.3284251 141.0715309  58.6254783  99.6152239
 140.7428016  57.7452162  99.4327345 141.4254680  58.5702451 100.5028628
 150.3194888  70.2609686 104.1247224 150.1719851  69.3326393 104.3054794
 151.1448382  70.2829776 103.6404299 144.1857133  58.9127753  99.9827716
 144.5253205  59.4413674  99.2606325 144.6329253  59.2508159 100.7586283
 153.9229010  71.0838244 105.2112097 154.8475558  70.8781106 105.0736548
 153.7544313  70.8354645 106.1201438 146.8800573  57.2964803 109.4330784
 146.5397394  56.4972616 109.8351464 146.1739580  57.5966514 108.8607618
 147.5317045  54.3814116 107.8858107 148.3543115  53.9074594 107.7636998
 147.7755109  55.1604599 108.3856794 146.1725280  57.4102374  98.1821009
 146.8933642  57.7883627  97.6784726 145.5490584  58.1291251  98.2855987
 150.3156403  58.1147523  99.1179341 150.5320017  58.9972161  98.8168170
 149.8350470  57.7233737  98.3884983 145.0555624  61.0733236 105.6950086
 144.9100205  61.3873539 106.5874368 144.5780828  61.6918137 105.1420985
 146.9152007  58.0635784 105.7430976 146.9013576  57.1676878 105.4063274
 147.6324435  58.0706448 106.3769262 148.7678138  58.4973125 107.7884103
 148.5095915  59.4190195 107.7868433 148.2363178  58.1003559 108.4784567
 153.7124326  71.6023912 100.5674188 153.8861204  71.0370334  99.8148041
 154.2053218  72.4024807 100.3853678 139.5301286  63.6138581 108.6337747
 138.9854754  64.3898389 108.7658022 140.4080636  63.9609385 108.4756869
 146.3188903  56.9450165 101.0118546 146.4404814  56.0166811 101.2109433
 146.0290945  56.9588851 100.0996861 149.1880093  54.6305075 104.1485266
 149.2101790  54.6944408 103.1937245 149.6048152  53.7909584 104.3425772
 154.6999499  70.9190676  97.6671087 155.3950403  71.5397369  97.8858401
 155.0422649  70.0686027  97.9423465 140.3167308  62.7408477 111.5267904
 139.5749044  62.8891112 112.1132535 139.9960052  63.0016743 110.6634654
 148.2610971  72.2824455 111.3248294 148.5698097  72.0373602 112.1970994
 149.0586453  72.4871094 110.8367164 148.2831583  74.4362365 103.5553671
 147.8436573  73.9438744 104.2486527 149.0339700  73.8935333 103.3145746
 140.7623922  70.6273906 103.5578299 141.5881942  70.3277678 103.1776942
 140.4117974  69.8581528 104.0068087 145.7305455  69.9800374 105.6275972
 145.1085464  69.3171079 105.3278200 146.4010322  70.0061506 104.9449620
 138.9632527  68.5460232 104.5167232 138.1264435  68.1182407 104.3351234
 138.9356172  68.7392676 105.4538024 145.8029982  58.4582162 115.2208478
 145.8518138  59.3344285 114.8386248 146.3452497  57.9159555 114.6480122
 156.2884828  69.0023285 114.5009615 155.4980372  68.9847424 113.9614115
 156.0518183  69.5411579 115.2558652 156.4082703  65.8515752 111.8142344
 156.4580708  65.6865759 112.7557867 156.2996626  64.9843011 111.4240225
 145.2918962  68.5304297  99.1034433 145.4407082  69.2139762  98.4501106
 146.0985405  68.5109387  99.6183889 153.6986465  61.8346680 113.1301651
 154.5996328  61.6953145 112.8385648 153.7734440  62.0001135 114.0699828
 148.0329271  59.2113534 111.9754837 147.1632580  59.5047100 111.7037426
 148.2688751  59.7953979 112.6962101 156.1588088  63.3945308 110.5264423
 156.6342210  63.5872954 109.7183275 155.2353653  63.4504494 110.2807807
 143.0471595  64.5569475 100.1095502 142.8017637  63.6531805 100.3075712
 143.2167509  64.5586625  99.1674980 150.7368305  55.4293151 109.4920257
 151.2550248  56.1654178 109.1666746 150.3823437  55.7357145 110.3267017
 142.3167242  60.2897833  97.6081663 141.6236487  60.3642188  96.9521699
 142.0718994  59.5258176  98.1303180 150.9880899  51.8493434 105.0121154
 151.2682653  51.1816623 105.6381581 151.7731506  52.0422529 104.4995818
 148.7914367  71.0252428  96.5746180 148.2188334  71.6442615  96.1216652
 149.3647161  71.5751789  97.1086102 154.8589757  60.2711068 108.7592729
 155.8107180  60.3709166 108.7804953 154.6893208  59.4789336 109.2690813
 152.8804137  57.3566651 108.9452130 152.2854069  57.6371664 108.2498619
 152.5953833  57.8460552 109.7168871 152.0111627  71.3089578  97.7054763
 152.9442300  71.2435140  97.9087638 151.9234840  72.1445845  97.2469295
 154.6399644  70.6255448  94.6658710 154.5613275  70.2915312  95.5594468
 155.4609311  71.1177216  94.6650182 149.1761166  62.3613241  93.9162233
 150.1220270  62.2319449  93.9850651 148.7975411  61.6227902  94.3931661
 155.1483050  54.0269247 103.8789125 154.9507871  53.7184335 104.7632457
 155.7582756  54.7530885 104.0087054 149.0599858  66.4130987 115.3762890
 149.9802868  66.5909586 115.5702936 149.0249441  65.4687032 115.2242589
 147.3604083  60.2863217  93.8517118 146.4535538  59.9896330  93.9279832
 147.6380064  59.9893035  92.9851404 138.2782023  61.6069580 104.3016164
 137.9584808  60.7534889 104.0090538 137.7315451  61.8218158 105.0574132
 142.0561931  64.3232021 108.0185671 142.2747941  65.2549129 108.0373705
 142.4687705  63.9639996 108.8040475 148.9766149  54.8300107 100.0061359
 148.1666877  54.4847192 100.3816605 149.6650566  54.5207650 100.5948971
 150.9056697  53.9078153 101.6285656 151.4587736  54.3273607 102.2875679
 151.1426783  52.9813902 101.6708612 146.9289796  59.8965227 117.4088420
 146.8286523  60.8459584 117.3400511 146.7111338  59.5683466 116.5364490
 146.1302868  57.1450152  93.9929097 146.9922032  57.4705050  94.2524915
 146.3153212  56.3581648  93.4802163 138.1470283  65.2272492 106.2709286
 137.4533755  64.8126445 105.7579240 138.8943274  65.2693028 105.6742705
 154.2835504  56.0178679 101.1364320 153.7034173  56.6763483 100.7542373
 154.0171437  55.1956023 100.7251738 152.7339070  55.4183736 103.3385641
 153.2338849  55.5300271 102.5299959 153.3774678  55.1144789 103.9786449
 146.7921066  63.3262366 116.2253482 146.3088148  64.1262726 116.4317371
 146.8782005  63.3370311 115.2720926 140.0607026  65.1590746 104.1475301
 140.0377714  65.2578433 103.1957184 140.3707662  66.0055896 104.4692467
 142.7194404  67.2166901 108.2621915 143.6737657  67.1850843 108.1951847
 142.5206927  66.7557524 109.0772141 143.3093786  65.7868017 110.8292713
 144.1286675  66.2812095 110.8527550 143.5830594  64.8699985 110.8010280
 153.0660382  58.1778769 100.1920668 152.1786237  58.4628420  99.9740863
 153.4814371  58.0172532  99.3447945 141.0744632  72.7586520 105.2792113
 140.9399100  71.9986921 104.7130111 140.6576695  73.4827420 104.8120902
 152.2103595  67.9423444  94.2868688 152.9139446  68.1473446  94.9026344
 151.4866244  68.5100206  94.5517772 153.0401406  63.6933305 100.4070959
 152.9836607  64.1501856  99.5678591 153.5929748  62.9323990 100.2293801
 144.2313758  73.6555837 105.4910556 144.1146143  74.6001270 105.3889246
 143.4106205  73.3529399 105.8796355 154.1190293  68.3805973  96.3367149
 154.9535897  67.9487171  96.1544623 153.9574636  68.2087987  97.2644043
 153.7736185  64.8838086  97.7023488 153.7184989  64.7182358  96.7611932
 153.1482240  65.5914119  97.8585678 138.5628700  60.1206151 111.5284910
 139.2087564  59.6105105 112.0172135 138.3545851  60.8574832 112.1028335
 151.0882092  67.1886998 117.0277051 151.9573252  67.3627650 116.6663686
 150.6088844  68.0081415 116.9052780 147.0832311  54.3846195  97.2808806
 147.0710980  55.3288035  97.4377077 147.9755732  54.2016341  96.9868267
 145.2568272  74.3084099 108.7066484 146.1595519  74.3407709 109.0232979
 145.0305643  73.3784550 108.7212820 147.0121874  73.0615086 105.3676563
 146.0617506  73.0616947 105.2540935 147.3154361  72.3147820 104.8512597
 150.8984430  50.9788972 101.5354743 150.1316826  50.4247459 101.6811425
 151.3095135  51.0510841 102.3968895 142.9026191  57.2673768 115.6259924
 143.7657653  56.9110572 115.8363249 142.3291602  56.9287662 116.3135329
 155.4151090  80.7038528 102.3580741 154.8515955  80.6128465 101.5897029
 155.3003485  79.8838433 102.8383233 152.9615522  82.1989720 105.1964961
 153.7536814  81.8580545 104.7811261 153.2012172  82.3084695 106.1167115
 154.9206276  81.4598633  98.0682340 155.6937152  80.9127620  97.9295216
 155.2731675  82.3242883  98.2796802 155.1693685  78.9250228 104.3035738
 154.2444181  78.7926442 104.5113429 155.4178098  79.7044447 104.8005680
 152.5302496  78.5683502 105.1379527 152.6594877  78.8217980 106.0518938
 151.8499947  79.1611210 104.8184182 155.6901783  81.2070291 106.0103633
 156.2603140  81.6357559 105.3721118 156.2809894  80.9252876 106.7087819
 156.1826949  76.3733718 114.2564645 155.5525610  77.0549999 114.4900042
 156.0763037  76.2616800 113.3117783 151.4771922  76.0405514 105.1830569
 150.6870976  76.2963043 104.7070680 151.9683169  76.8553852 105.2882609
 153.4286667  76.4050094 102.1414046 152.6317830  76.5168788 102.6597541
 153.2012259  76.7436746 101.2754936 149.7609625  76.2936005 107.6145560
 150.0117663  77.1783015 107.8803136 150.2969173  76.1140606 106.8420652
 155.4607692  70.6754484 116.6189896 155.0674637  70.1220683 117.2937540
 156.2773832  70.9865063 117.0096413 152.4269750  82.1138342 100.5303466
 152.9394270  82.9081593 100.6809030 153.0792462  81.4164633 100.4637067
 154.2364634  85.2304099 102.6126219 154.4131263  86.1522063 102.4247203
 155.0321468  84.9162518 103.0420599 153.5216991  77.2768731 112.4888382
 153.4070506  76.3753988 112.7895481 152.6661509  77.5232427 112.1373199
 155.3595950  86.7482273 108.6136561 155.9103375  86.6199336 107.8413555
 154.5207426  87.0477162 108.2631454 150.3918666  80.4426997 101.3063036
 151.2293888  80.8524005 101.0896744 150.5696934  79.5026439 101.2763230
 155.2534561  72.8039059 102.8306216 155.8278313  72.5814241 102.0979409
 155.8405544  72.8727754 103.5834817 155.5804148  74.8343520  96.8502101
 154.7441460  75.1718207  97.1711376 155.4408918  74.6992500  95.9129238
 150.4144838  77.7817712 101.9773770 150.2169237  77.1887073 101.2524836
 149.8591502  77.4769922 102.6949708 155.8247996  73.8636234 107.4719977
 156.4647375  73.7224993 106.7742940 154.9925526  73.5770747 107.0958579
 152.9091063  77.3081746  99.6614722 151.9788651  77.2466201  99.8784684
 153.0048535  76.7857699  98.8651363 152.8276612  73.8336559 102.2492963
 153.0883430  74.7481892 102.1402124 153.6493785  73.3661001 102.3989576
 154.3001538  75.2474316 109.4191788 154.9724591  75.0391678 108.7704437
 153.4731324  75.0496402 108.9797020 154.7029035  78.5216919 110.1794225
 154.5648833  77.7897158 110.7805764 155.6133958  78.4325819 109.8978413
 156.0440269  75.2202096 111.4873544 155.5077627  74.7692835 112.1395141
 155.4556978  75.3548005 110.7444009 154.3388813  91.9866145 105.3818203
 154.5785411  92.6184670 106.0597221 153.4958009  91.6354185 105.6683562
 155.4542528  74.6790748  94.0500008 154.5771995  74.5579548  93.6862255
 155.9300282  73.8876826  93.7978897 146.9744669  79.4667907 104.1441515
 147.6615708  79.1529637 103.5562530 146.8192797  80.3709272 103.8708766
 151.7779391  74.3558104 108.5726539 151.6937579  73.7483773 107.8376949
 150.9562097  74.8467122 108.5736035 151.9594990  84.9762900 107.6954539
 152.5448427  84.2306588 107.8282443 151.7619828  85.2866857 108.5791203
 154.8133645  88.0114148 102.7116981 154.1444020  88.4960275 102.2281021
 154.6746515  88.2583368 103.6260360 146.5512645  77.5468501 106.4158982
 146.5896744  77.0132091 107.2096100 146.0452938  77.0203706 105.7969959
 153.9303407  72.3933041 109.9121524 153.9944734  73.2547872 109.4998922
 153.8670527  71.7807043 109.1793883 153.4055680  74.4656174 113.5594559
 154.0327718  74.0833251 114.1732083 152.5483598  74.2470376 113.9250251
 150.1821222  76.2732603  99.4912914 150.4774663  75.3643281  99.4379967
 149.2809258  76.2520342  99.1693916 153.7115469  74.3488599 105.4740462
 152.9902055  74.9624567 105.3347935 154.5008725  74.8846364 105.3957108
 151.9109064  73.9546700  99.6152239 151.5821770  73.0744079  99.4327345
 152.2648435  73.8994369 100.5028628 155.0250887  74.2419670  99.9827716
 155.3646960  74.7705592  99.2606325 155.4723008  74.5800076 100.7586283
 155.8949378  76.4025154 105.6950086 155.7493959  76.7165457 106.5874368
 155.4174582  77.0210054 105.1420985 150.3695041  78.9430498 108.6337747
 149.8248509  79.7190306 108.7658022 151.2474390  79.2901303 108.4756869
 151.1561062  78.0700395 111.5267904 150.4142799  78.2183030 112.1132535
 150.8353807  78.3308660 110.6634654 151.6017676  85.9565823 103.5578299
 152.4275696  85.6569595 103.1776942 151.2511728  85.1873446 104.0068087
 149.8026281  83.8752150 104.5167232 148.9658189  83.4474324 104.3351234
 149.7749927  84.0684593 105.4538024 153.8865349  79.8861393 100.1095502
 153.6411391  78.9823723 100.3075712 154.0561264  79.8878543  99.1674980
 153.1560997  75.6189750  97.6081663 152.4630242  75.6934105  96.9521699
 152.9112749  74.8550094  98.1303180 149.1175778  76.9361498 104.3016164
 148.7978562  76.0826806 104.0090538 148.5709206  77.1510076 105.0574132
 152.8955685  79.6523939 108.0185671 153.1141695  80.5841047 108.0373705
 153.3081459  79.2931913 108.8040475 148.9864038  80.5564409 106.2709286
 148.2927509  80.1418362 105.7579240 149.7337029  80.5984946 105.6742705
 150.9000780  80.4882663 104.1475301 150.8771468  80.5870351 103.1957184
 151.2101417  81.3347814 104.4692467 153.5588158  82.5458818 108.2621915
 154.5131412  82.5142761 108.1951847 153.3600682  82.0849442 109.0772141
 154.1487540  81.1159934 110.8292713 154.9680429  81.6104013 110.8527550
 154.4224348  80.1991902 110.8010280 151.9138387  88.0878438 105.2792113
 151.7792855  87.3278839 104.7130111 151.4970449  88.8119338 104.8120902
 155.0707513  88.9847755 105.4910556 154.9539897  89.9293187 105.3889246
 154.2499959  88.6821316 105.8796355 149.4022455  75.4498068 111.5284910
 150.0481318  74.9397022 112.0172135 149.1939606  76.1866750 112.1028335
 153.7419946  72.5965685 115.6259924 154.6051407  72.2402490 115.8363249
 153.1685356  72.2579580 116.3135329 110.9813796   7.6760597  92.1063509
 111.2210395   8.3079122  92.7842528 110.1382993   7.3248637  92.3928869
 120.4434260  13.2176090  91.9210268 121.2355552  12.8766914  91.5056567
 120.6830910  13.3271065  92.8412421 128.4769386  15.3895866  84.3940512
 127.8257366  15.9749946  84.0074526 129.2713749  15.9202061  84.4535550
 122.4025014  12.4785003  84.7927647 123.1755890  11.9313990  84.6540523
 122.7550412  13.3429252  85.0042108 124.2410056  13.8061385  97.9994546
 123.9499922  14.7107016  97.8841212 124.8767041  13.8477913  98.7138616
 124.1820721  20.2567121  87.9615307 124.1044751  21.2074946  88.0403788
 123.5782365  19.9112994  88.6190234 126.7411072  13.9481166  96.8141867
 126.8055505  14.4101574  97.6500039 126.0321996  13.3178531  96.9424177
 126.4559090  15.6149274  86.6820847 126.3204765  16.4600810  87.1105695
 126.9968902  15.8168552  85.9186781 119.9088487  13.1324712  87.2548772
 120.4213008  13.9267962  87.4054337 120.5611200  12.4351002  87.1882374
 121.7183372  16.2490468  89.3371525 121.8950000  17.1708433  89.1492509
 122.5140206  15.9348888  89.7665905 128.0827566  16.2372840 100.8121189
 127.6391421  15.4509219 100.4942094 128.7444780  16.4251991 100.1465080
 122.8414688  17.7668642  95.3381868 123.3922113  17.6385705  94.5658862
 122.0026163  18.0663531  94.9876761 130.1808804  16.5175640  98.8402591
 130.1627280  17.3384521  98.3482860 131.1028724  16.3929716  99.0652732
 117.8737404  11.4613366  88.0308343 118.7112626  11.8710375  87.8142051
 118.0515672  10.5212808  88.0008537 129.0555250  19.6883480  83.1176570
 128.3816949  19.9915177  83.7261528 129.4421072  20.4912560  82.7682027
 131.0027612  16.5281654  89.4244860 131.2950586  17.0886711  88.7057225
 131.5126232  16.8210215  90.1798019 125.9661237  17.3062005  90.5138313
 125.9237416  17.5322851  89.5846845 126.8823936  17.0725379  90.6624114
 124.0827038  14.1825034  90.3100276 124.8767636  13.6875354  90.1082851
 123.3718730  13.6542897  89.9467981 128.9021882  16.5643129  94.6612643
 128.9558904  17.1334066  95.4290359 128.0336663  16.7345014  94.2966680
 126.6598314  14.7554056  93.9898113 126.5209399  14.3872840  94.8624051
 125.8712910  15.2701695  93.8182071 127.2546466  19.8563152  85.3323649
 127.4298221  19.3851195  86.1469272 126.5679254  20.4828918  85.5604910
 132.8016852  16.1890601  99.3129791 132.7429398  15.5049821  98.6460374
 133.2036370  16.9309591  98.8610417 121.8207551  23.0052515  92.1063509
 122.0604149  23.6371039  92.7842528 120.9776747  22.6540555  92.3928869
 114.4563406  10.4854277  90.8686822 115.1434446  10.1716007  90.2807837
 114.3011535  11.3895642  90.5954073 126.3335413  18.8131637  94.5105013
 126.2605584  19.6186609  95.0224318 125.8912806  19.0123603  93.6853035
 126.1225192  18.0503407  88.0207835 125.3392714  18.5925088  88.1146060
 126.8217937  18.5677387  88.4202076 128.7934096  18.7118471  96.6663172
 129.5062068  19.3465936  96.5939074 128.3024125  18.8082337  95.8503174
 123.8446010  16.4612915  97.4868743 124.5455469  17.0949398  97.6398137
 123.3741125  16.8027647  96.7264382 128.6054470  19.0517216  89.4149464
 128.7876864  18.2338872  89.8777216 129.4287456  19.2684908  88.9774354
 128.9396635  17.9785401  86.6764512 129.4684401  17.4677855  86.0634674
 129.2024855  17.6627931  87.5410045 119.4413728  15.9949270  94.4199846
 120.0267165  15.2492958  94.5527750 119.2438566  16.3053227  95.3036510
 122.2952383  19.0300517  89.4362288 121.6262758  19.5146645  88.9526328
 122.1565253  19.2769738  90.3505667 126.4357652  21.0644261  96.0344946
 126.9875960  21.2275882  96.7994032 126.7763845  21.6548699  95.3624971
 131.2868526  15.8905518 101.8893601 131.8308430  16.5035477 101.3948556
 130.7055371  16.4485097 102.4060614 129.5726039  19.0126236  93.0208629
 129.4477178  18.2115976  92.5119574 130.2305130  19.5072430  92.5322599
 131.6360947  16.8135257  94.6488179 130.6891283  16.6940608  94.5766505
 131.9843720  15.9257755  94.7314440 128.6407381  16.6087973  90.8492531
 128.4932343  15.6804680  91.0300101 129.4660874  16.6308063  90.3649606
 132.2441502  17.4316531  91.9357404 133.1688050  17.2259393  91.7981855
 132.0756806  17.1832933  92.8446745 132.0336819  17.9502199  87.2919495
 132.2073696  17.3848621  86.5393348 132.5265710  18.7503094  87.1098985
 133.0211991  17.2668963  84.3916393 133.7162896  17.8875656  84.6103708
 133.3635141  16.4164315  84.6668771 126.5823463  18.6302743  98.0493601
 126.8910589  18.3851889  98.9216300 127.3798945  18.8349381  97.5612471
 126.6044075  20.7840652  90.2798977 126.1649065  20.2917031  90.9731834
 127.3552192  20.2413620  90.0391053 119.0836414  16.9752193  90.2823605
 119.9094434  16.6755965  89.9022249 118.7330466  16.2059815  90.7313394
 124.0517947  16.3278661  92.3521279 123.4297956  15.6649366  92.0523507
 124.7222814  16.3539793  91.6694927 117.2845019  14.8938519  91.2412539
 116.4476927  14.4660694  91.0596540 117.2568664  15.0870963  92.1783330
 123.6131454  14.8782585  85.8279740 123.7619574  15.5618049  85.1746412
 124.4197897  14.8587675  86.3429195 127.1126860  17.3730715  83.2991487
 126.5400827  17.9920902  82.8461959 127.6859653  17.9230077  83.8331409
 130.3324119  17.6567865  84.4300069 131.2654792  17.5913427  84.6332945
 130.2447332  18.4924132  83.9714602 132.9612136  16.9733735  81.3904017
 132.8825768  16.6393599  82.2839775 133.7821803  17.4655503  81.3895489
 116.4682776  11.5750779  92.9954593 115.7746247  11.1604732  92.4824547
 117.2155767  11.6171316  92.3988012 118.3819518  11.5069033  90.8720608
 118.3590206  11.6056720  89.9202491 118.6920155  12.3534184  91.1937774
 121.0406896  13.5645188  94.9867222 121.9950150  13.5329130  94.9197154
 120.8419420  13.1035812  95.8017448 119.3957125  19.1064807  92.0037420
 119.2611593  18.3465208  91.4375418 118.9789187  19.8305707  91.5366209
 122.5526251  20.0034124  92.2155862 122.4358635  20.9479557  92.1134553
 121.7318697  19.7007686  92.6041662 123.5780765  20.6562386  95.4311791
 124.4808011  20.6885997  95.7478286 123.3518135  19.7262837  95.4458127
 125.3334367  19.4093373  92.0921870 124.3829998  19.4095234  91.9786242
 125.6366853  18.6626107  91.5757904 141.0687060  25.2453911  93.1567632
 141.7065470  25.1260659  92.4530972 140.9507903  26.1934755  93.2155584
 137.8776767  25.1981339  93.0929157 137.5395278  25.0822404  92.2049691
 138.7466535  24.7972504  93.0730163 133.7363582  27.0516816  89.0826048
 133.1728447  26.9606753  88.3142335 133.6215977  26.2316720  89.5628540
 138.3596550  26.3516191  99.0515362 138.3485190  25.9568989  98.1795866
 138.5217189  25.6182264  99.6449134 131.2828014  28.5468007  91.9210268
 132.0749306  28.2058832  91.5056567 131.5224664  28.6562982  92.8412421
 139.3163141  30.7187783  84.3940512 138.6651121  31.3041864  84.0074526
 140.1107504  31.2493978  84.4535550 133.2418768  27.8076921  84.7927647
 134.0149644  27.2605908  84.6540523 133.5944167  28.6721170  85.0042108
 135.0803811  29.1353303  97.9994546 134.7893677  30.0398934  97.8841212
 135.7160795  29.1769830  98.7138616 136.0060018  26.5130151  94.5895906
 136.6023590  26.2886174  93.8752869 136.0634989  25.7714897  95.1921354
 135.5785046  23.9669587  82.4246097 135.8310567  23.4451108  81.6629560
 134.6409605  23.8035732  82.5272780 140.6228329  22.9705365  90.2320840
 141.4091418  22.5524788  89.8811257 140.8867033  23.8751457  90.4002488
 140.7938406  28.4078215  84.9309497 140.1584239  28.4812842  85.6430401
 140.4635813  28.9971814  84.2528576 146.0236756  22.9080598  91.1353818
 146.7561928  22.3379815  91.3691648 145.2676112  22.5202199  91.5760324
 135.2981335  25.8697693  84.6270472 135.1817593  25.1942596  85.2951556
 135.4083595  25.3830067  83.8102625 137.6412876  25.3307840  88.3317161
 137.2771083  24.8038461  89.0430082 138.4979992  24.9406309  88.1583646
 137.2818363  20.3597739  83.3278509 137.4492765  21.2277976  83.6948980
 137.0915532  20.5225021  82.4039799 140.0393696  28.8214718  94.9944340
 139.7394419  29.7239757  94.8860147 139.6944755  28.5546902  95.8465493
 133.4906177  25.2728515  91.0281044 132.5656674  25.1404729  91.2358736
 133.7390590  26.0522734  91.5250987 143.4390840  21.3397259  92.6741777
 142.5307717  21.2712667  92.3800538 143.3878435  21.8169203  93.5023603
 137.2607583  22.8155397  84.3125176 137.1407209  23.2612448  85.1510657
 136.5660172  23.1640715  83.7538714 130.8514988  24.9161789  91.8624833
 130.9807369  25.1696268  92.7764245 130.1712440  25.5089497  91.5429488
 135.0214476  35.5859039  87.9615307 134.9438505  36.5366864  88.0403788
 134.4176119  35.2404911  88.6190234 137.5131705  22.7586904 100.6176674
 136.7365039  23.3180824 100.6079539 138.1522268  23.2443687 101.1391545
 142.9592650  23.2876870  85.1405510 143.8710506  23.5204257  84.9653208
 142.4502297  23.8713914  84.5780589 135.7678078  25.5672357 100.1794641
 136.5092762  26.1057401  99.9029465 135.0615063  26.1938646 100.3366193
 141.2433417  27.7101498  98.7766803 141.6516773  27.2683908  98.0321435
 140.5210679  27.1354125  99.0300996 137.5964487  22.6474105  96.1500360
 138.4425683  23.0713518  96.2935009 137.5363125  21.9907729  96.8438923
 141.5662232  28.2702689  92.5319092 140.9371094  28.4348403  91.8295160
 141.1787894  28.6844298  93.3030056 145.4451464  29.2057126  89.8863456
 144.7602502  29.5856028  89.3360489 145.5295313  29.8152453  90.6195403
 140.7463933  20.3078473  97.8081533 140.5024865  21.0620534  97.2715809
 141.0223863  20.6863821  98.6428781 142.7002395  26.8517085  96.4858799
 142.9119291  27.4948845  95.8093180 142.6532144  26.0179402  96.0180729
 140.3028624  19.4634906  93.3895371 139.4413103  19.7616160  93.6812109
 140.3291059  19.6805305  92.4576404 137.1190194  28.0077097  89.7969177
 137.5828539  28.2864800  89.0073799 136.8546992  27.1060541  89.6142268
 134.0114275  27.5548578  92.7348940 134.5815632  27.9835847  92.0966425
 134.6022387  27.2731163  93.4333126 136.0559080  24.1300249  86.6058742
 136.7583123  24.5821293  87.0732668 135.7239708  23.4884068  87.2338635
 134.5039441  22.7212006 100.9809951 133.8738102  23.4028287 101.2145348
 134.3975529  22.6095087 100.0363090 129.7984414  22.3883802  91.9075876
 129.0083468  22.6441330  91.4315986 130.2895661  23.2032140  92.0127916
 143.8148223  29.7289041  94.6581156 144.6365667  29.3269228  94.3763838
 143.8110626  29.6257275  95.6097272 131.7499159  22.7528381  88.8659352
 130.9530322  22.8647075  89.3842848 131.5224751  23.0915033  88.0000243
 137.5804827  29.2773084  96.8141867 137.6449259  29.7393491  97.6500039
 136.8715751  28.6470449  96.9424177 128.0822117  22.6414292  94.3390866
 128.3330155  23.5261302  94.6048442 128.6181665  22.4618894  93.5665958
 151.9054216  26.0727789  91.0066128 151.1517925  25.5035187  90.8510132
 152.0401758  26.0390454  91.9536763 137.2952844  30.9441192  86.6820847
 137.1598519  31.7892727  87.1105695 137.8362657  31.1460469  85.9186781
 133.7820184  17.0232772 103.3435202 133.3887130  16.4698970 104.0182847
 134.5986324  17.3343350 103.7341720 130.7482242  28.4616630  87.2548772
 131.2606762  29.2559880  87.4054337 131.4004955  27.7642920  87.1882374
 132.5577127  31.5782386  89.3371525 132.7343755  32.5000351  89.1492509
 133.3533960  31.2640805  89.7665905 136.6988145  18.4390651 100.9355459
 137.4397858  19.0397804 100.8559921 136.9306068  17.6968288 100.3773502
 131.8429483  23.6247018  99.2133689 131.7282998  22.7232275  99.5140788
 130.9874001  23.8710715  98.8618505 138.9221321  31.5664758 100.8121189
 138.4785175  30.7801137 100.4942094 139.5838534  31.7543909 100.1465080
 133.6808442  33.0960560  95.3381868 134.2315867  32.9677623  94.5658862
 132.8419918  33.3955449  94.9876761 141.0202559  31.8467558  98.8402591
 141.0021034  32.6676439  98.3482860 141.9422479  31.7221633  99.0652732
 137.4775613  29.3611688  99.6826099 138.0103950  28.5999976  99.4525407
 136.9489694  29.0685339 100.4250253 128.7131159  26.7905284  88.0308343
 129.5506381  27.2002292  87.8142051 128.8909426  25.8504726  88.0008537
 140.6095591  24.4580365  83.7192176 140.0942214  25.2284969  83.9580563
 140.3372899  23.7845501  84.3425237 138.1942702  19.3030065  88.7777414
 137.3384298  18.9136916  88.5983053 138.6069654  19.3822026  87.9177200
 135.9684734  16.9215138  92.1835156 136.8337731  16.7257947  91.8241045
 136.0362243  16.6925490  93.1104512 145.5829865  27.2112719  85.6545349
 144.8059308  26.8723879  85.2100511 146.2621346  27.2165342  84.9800314
 140.3981894  22.3307457  85.5451957 140.0932030  22.6453606  86.3962100
 141.3512336  22.4088877  85.5879290 138.8428326  28.4897680  87.1944911
 138.3149687  27.7550440  86.8818148 138.3415829  29.2672356  86.9484879
 143.8221172  26.6846701  92.3111957 143.1644846  27.3745962  92.3992086
 144.6261571  27.0743132  92.6545944 133.5747053  19.1517346  89.5551522
 134.1490805  18.9292528  88.8224715 134.1618036  19.2206041  90.3080124
 142.6326631  25.0391073  90.3615899 143.1458512  25.6721065  90.8637609
 143.2827854  24.4392269  89.9959259 133.9016641  21.1821807  83.5747408
 133.0653953  21.5196494  83.8956682 133.7621410  21.0470787  82.6374545
 136.9880926  26.3077890  80.1979884 136.0807988  26.0767144  80.3971033
 137.4851958  25.5115510  80.3853866 139.8949005  35.0175398  83.1176570
 139.2210704  35.3207094  83.7261528 140.2814827  35.8204478  82.7682027
 139.1107461  22.5140529  92.6074240 138.1930023  22.7355476  92.4495928
 139.5267605  22.5886839  91.7485947 139.8942509  23.9131944  87.7376920
 140.6414328  24.4253342  87.4284042 140.1634099  23.5915997  88.5981313
 138.1669159  26.4090485  84.7203874 137.2580379  26.1249518  84.8176344
 138.1964243  26.8289564  83.8607181 143.3988427  30.0197075  88.4895042
 142.9450754  29.1787985  88.5460232 142.7682394  30.6558473  88.8269822
 142.3421346  20.9489061  89.7195709 141.6044103  20.4366447  90.0505952
 142.5948120  20.5089442  88.9078986 141.8421366  31.8573571  89.4244860
 142.1344340  32.4178628  88.7057225 142.3519987  32.1502132  90.1798019
 128.7357330  24.1295999  88.7019076 128.5381730  23.5365360  87.9770143
 128.1803994  23.8248210  89.4195015 136.7154053  24.0219106  90.8213669
 136.7702663  23.0692942  90.7456146 135.9045255  24.1778545  91.3054968
 137.8645247  27.9499229  82.0591953 137.4264677  27.2335088  81.5997590
 138.6055688  28.1775344  81.4977044 134.6546413  22.6396166  88.5804048
 133.8414279  22.9390336  88.9869240 135.1505408  22.2451854  89.2978531
 136.8054991  32.6353922  90.5138313 136.7631170  32.8614769  89.5846845
 137.7217690  32.4017297  90.6624114 140.2520625  23.1037990  97.4118942
 140.6070013  23.3309463  98.2713408 140.8992756  23.4356367  96.7896197
 145.9818362  26.2256426  88.1168271 145.8436261  26.4158022  87.1889460
 145.6254581  26.9875809  88.5736322 134.1460488  20.2114521  94.1965283
 134.7859867  20.0703280  93.4988247 133.3138019  19.9249034  93.8203885
 146.0087742  28.2932953  93.1279543 146.4424248  28.2008242  93.9762597
 146.7219322  28.2690453  92.4899559 134.9220792  29.5116951  90.3100276
 135.7161391  29.0167272  90.1082851 134.2112484  28.9834815  89.9467981
 139.7415636  31.8935047  94.6612643 139.7952659  32.4625983  95.4290359
 138.8730418  32.0636932  94.2966680 131.2303555  23.6560033  86.3860028
 130.3001144  23.5944489  86.6029991 131.3261027  23.1335986  85.5896670
 131.1489105  20.1814846  88.9738270 131.4095922  21.0960179  88.8647431
 131.9706277  19.7139289  89.1234883 132.6214030  21.5952603  96.1437095
 133.2937083  21.3869965  95.4949743 131.7943816  21.3974689  95.7042327
 146.8703291  28.3356654  95.6612428 147.0639181  29.2402464  95.9071703
 146.7703909  27.8764073  96.4951013 138.5239602  18.2214544  98.1602755
 137.8767517  18.9204494  98.0667232 139.2940617  18.6550688  98.5279004
 141.9318400  28.4863396 101.2353309 141.7803906  28.2573948 100.3183392
 141.9223079  29.4433998 101.2484654 138.7003736  26.0595309  96.2199575
 139.6295796  26.2106469  96.0468542 138.2794766  26.1479330  95.3648222
 137.4992068  30.0845973  93.9898113 137.3603154  29.7164758  94.8624051
 136.7106664  30.5993613  93.8182071 138.0940220  35.1855070  85.3323649
 138.2691976  34.7143113  86.1469272 137.4073008  35.8120836  85.5604910
 139.0497283  29.4627576  91.3786951 138.7147116  29.4228346  92.2744600
 138.5501229  28.7972292  90.9057361 133.0241527  24.8695206  96.9039532
 132.8861325  24.1375445  97.5051071 133.9346451  24.7804106  96.6223719
 141.9856475  26.8083611  81.6524010 141.3685645  26.0830439  81.5557063
 141.5172963  27.5692971  81.3091085 135.6523828  24.5815166  96.3923211
 136.3623446  23.9408358  96.3509830 135.6093136  24.8328060  97.3149392
 143.6410606  31.5182519  99.3129791 143.5823153  30.8341739  98.6460374
 144.0430125  32.2601509  98.8610417 134.3652762  21.5680383  98.2118851
 133.8290119  21.1171122  98.8640447 133.7769470  21.7026292  97.4689315
 132.6601305  38.3344433  92.1063509 132.8997904  38.9662957  92.7842528
 131.8170502  37.9832473  92.3928869 133.7755021  21.0269035  80.7745315
 132.8984487  20.9057836  80.4107561 134.2512774  20.2355113  80.5224203
 143.6428014  29.4822103  97.5443770 142.7554793  29.1448025  97.6670169
 144.2126565  28.7505134  97.7812536 125.2957161  25.8146195  90.8686822
 125.9828201  25.5007925  90.2807837 125.1405290  26.7187559  90.5954073
 130.0991883  20.7036391  95.2971845 130.0150072  20.0962061  94.5622255
 129.2774589  21.1945409  95.2981342 137.1729167  34.1423555  94.5105013
 137.0999339  34.9478527  95.0224318 136.7306560  34.3415521  93.6853035
 136.9618947  33.3795325  88.0207835 136.1786469  33.9217005  88.1146060
 137.6611692  33.8969305  88.4202076 140.2715597  19.1889955  90.6642040
 140.7684296  18.4359917  90.3443111 139.5002578  19.2254271  90.0985250
 148.1245354  24.8930320  92.3060332 148.1135231  25.7755036  91.9354265
 147.2562734  24.5401871  92.1114869 139.6327851  34.0410389  96.6663172
 140.3455823  34.6757854  96.5939074 139.1417879  34.1374255  95.8503174
 141.3545378  27.9461642  88.2380464 140.4201656  28.0663104  88.0685168
 141.5322046  27.0434109  87.9740474 136.8550566  21.3307338  90.3913725
 136.4848353  20.7778378  91.0794631 137.3509658  20.7265471  89.8388725
 144.7417929  23.7878961  88.7730498 145.2078381  24.6206953  88.6990801
 145.1925429  23.3223943  89.4775756 134.6839764  31.7904833  97.4868743
 135.3849224  32.4241316  97.6398137 134.2134879  32.1319564  96.7264382
 142.8094160  30.1322782  85.7716650 143.0854004  30.0179377  86.6810524
 141.9398659  29.7340267  85.7328823 142.4841050  24.3449440  95.3121293
 141.8312500  24.5925348  94.6573746 142.8621430  23.5313578  94.9783771
 139.4448224  34.3809133  89.4149464 139.6270619  33.5630789  89.8777216
 140.2681210  34.5976826  88.9774354 139.7790390  33.3077318  86.6764512
 140.3078156  32.7969773  86.0634674 140.0418609  32.9919849  87.5410045
 138.5328623  25.0869251 101.7987330 137.8569260  24.9863380 102.4689706
 139.3556257  24.9308465 102.2623328 130.2807482  31.3241188  94.4199846
 130.8660919  30.5784876  94.5527750 130.0832321  31.6345144  95.3036510
 133.1346137  34.3592435  89.4362288 132.4656513  34.8438563  88.9526328
 132.9959007  34.6061656  90.3505667 124.8725137  23.8946788  93.1404289
 124.9109237  23.3610379  93.9341407 124.3665430  23.3681993  92.5215266
 137.2751406  36.3936179  96.0344946 137.8269714  36.5567800  96.7994032
 137.6157600  36.9840616  95.3624971 132.2515899  18.7411328  96.6366831
 132.3157226  19.6026159  96.2244229 132.1883020  18.1285330  95.9039190
 131.7268172  20.8134461 100.2839865 132.3540211  20.4311538 100.8977390
 130.8696091  20.5948663 100.6495558 142.1262280  31.2197436 101.8893601
 142.6702184  31.8327394 101.3948556 141.5449125  31.7777015 102.4060614
 128.5033715  22.6210890  86.2158220 128.7987156  21.7121568  86.1625274
 127.6021750  22.5998630  85.8939223 140.4119793  34.3418154  93.0208629
 140.2870933  33.5407894  92.5119574 141.0698884  34.8364347  92.5322599
 132.0327962  20.6966887  92.1985769 131.3114547  21.3102854  92.0593242
 132.8221217  21.2324651  92.1202415 142.4754702  32.1427174  94.6488179
 141.5285037  32.0232525  94.5766505 142.8237475  31.2549672  94.7314440
 134.8354275  18.0321313  98.4726421 135.3588677  18.2783610  99.2352730
 134.6166608  18.8641348  98.0529558 130.2321556  20.3024988  86.3397545
 129.9034262  19.4222367  86.1572651 130.5860927  20.2472656  87.2273935
 139.4801135  31.9379890  90.8492531 139.3326097  31.0096598  91.0300101
 140.3054629  31.9599981  90.3649606 133.3463379  20.5897958  86.7073023
 133.6859452  21.1183879  85.9851631 133.7935500  20.9278364  87.4831590
 143.0835257  32.7608449  91.9357404 144.0081804  32.5551310  91.7981855
 142.9150560  32.5124850  92.8446745 136.0406820  18.9735008  96.1576091
 135.7003640  18.1742821  96.5596771 135.3345826  19.2736719  95.5852924
 135.3331526  19.0872579  84.9066316 136.0539889  19.4653832  84.4030033
 134.7096831  19.8061456  85.0101294 139.4762649  19.7917728  85.8424648
 139.6926264  20.6742366  85.5413476 138.9956716  19.4003941  85.1130290
 134.2161871  22.7503441  92.4195393 134.0706451  23.0643744  93.3119674
 133.7387074  23.3688342  91.8666291 136.0758254  19.7405989  92.4676282
 136.0619822  18.8447083  92.1308580 136.7930682  19.7476653  93.1014568
 137.9284384  20.1743329  94.5129410 137.6702162  21.0960400  94.5113740
 137.3969425  19.7773764  95.2029874 142.8730573  33.2794117  87.2919495
 143.0467451  32.7140539  86.5393348 143.3659464  34.0795011  87.1098985
 128.6907533  25.2908786  95.3583054 128.1461001  26.0668594  95.4903328
 129.5686883  25.6379590  95.2002175 135.4795150  18.6220370  87.7363852
 135.6011061  17.6937016  87.9354740 135.1897192  18.6359056  86.8242168
 148.7269964  26.0430540  88.9109795 149.1701110  25.2937865  88.5128918
 147.8496475  26.0340676  88.5283527 143.8605746  32.5960881  84.3916393
 144.5556650  33.2167574  84.6103708 144.2028896  31.7456232  84.6668771
 129.4773555  24.4178682  98.2513211 128.7355291  24.5661317  98.8377841
 129.1566299  24.6786948  97.3879960 145.7597169  30.0460587  85.9203724
 146.2848493  30.3847859  85.1953044 145.6719521  29.1107602  85.7366859
 137.4217217  33.9594660  98.0493601 137.7304344  33.7143807  98.9216300
 138.2192699  34.1641299  97.5612471 137.4437829  36.1132570  90.2798977
 137.0042820  35.6208949  90.9731834 138.1945946  35.5705537  90.0391053
 129.9230168  32.3044111  90.2823605 130.7488188  32.0047883  89.9022249
 129.5724220  31.5351733  90.7313394 134.8911702  31.6570579  92.3521279
 134.2691711  30.9941284  92.0523507 135.5616568  31.6831711  91.6694927
 128.1238773  30.2230437  91.2412539 127.2870682  29.7952611  91.0596540
 128.0962419  30.4162880  92.1783330 134.9636229  20.1352367 101.9453785
 135.0124385  21.0114490 101.5631555 135.5058743  19.5929760 101.3725428
 145.4491075  30.6793490 101.2254922 144.6586618  30.6617629 100.6859421
 145.2124429  31.2181784 101.9803959 145.5688950  27.5285957  98.5387651
 145.6186955  27.3635964  99.4803173 145.4602873  26.6613216  98.1485531
 134.4525208  30.2074502  85.8279740 134.6013329  30.8909967  85.1746412
 135.2591652  30.1879592  86.3429195 142.8592712  23.5116885  99.8546957
 143.7602575  23.3723349  99.5630955 142.9340687  23.6771339 100.7945135
 137.1935518  20.8883739  98.7000144 136.3238827  21.1817305  98.4282732
 137.4294998  21.4724184  99.4207407 147.0707147  29.9482898  98.7829672
 146.7791955  30.3112879  99.6193133 146.4579278  29.2349906  98.6043004
 148.2702829  27.5135778  91.3032242 149.1049720  27.9525582  91.4669803
 148.4061958  27.0374431  90.4840488 145.3194335  25.0715513  97.2509730
 145.7948456  25.2643159  96.4428582 144.3959900  25.1274699  97.0053114
 132.2077841  26.2339680  86.8340808 131.9623883  25.3302010  87.0321019
 132.3773756  26.2356830  85.8920286 131.4773489  21.9668037  84.3326970
 130.7842734  22.0412392  83.6767006 131.2325241  21.2028381  84.8548487
 137.9520614  32.7022633  83.2991487 137.3794581  33.3212820  82.8461959
 138.5253408  33.2521994  83.8331409 144.0196004  21.9481273  95.4838036
 144.9713427  22.0479370  95.5050260 143.8499454  21.1559541  95.9936120
 142.0410383  19.0336856  95.6697437 141.4460315  19.3141869  94.9743925
 141.7560080  19.5230757  96.4414178 141.1717874  32.9859783  84.4300069
 142.1048547  32.9205345  84.6332945 141.0841087  33.8216050  83.9714602
 143.8005890  32.3025653  81.3904017 143.7219522  31.9685517  82.2839775
 144.6215557  32.7947421  81.3895489 146.4984082  25.1687392  94.5980335
 146.4660402  24.2303393  94.7840019 147.1084705  25.2471429  93.8646160
 138.3367413  24.0383445  80.6407539 139.2826517  23.9089654  80.7095957
 137.9581657  23.2998107  81.1176968 146.6478570  21.9598436  94.6438619
 146.1317619  21.1756893  94.4568547 147.5318519  21.6317153  94.8085138
 152.3160632  26.2303399  93.7386372 153.0464020  25.9688687  94.2994076
 151.7067577  25.4932121  93.7788440 150.3975929  24.3711262  94.3360823
 149.6709092  24.2367227  93.7277315 149.9823216  24.6788091  95.1417541
 138.2206105  28.0901192 102.1008196 139.1409115  28.2679791 102.2948243
 138.1855688  27.1457237 101.9487896 136.5210330  21.9633422  80.5762425
 135.6141785  21.6666535  80.6525138 136.7986311  21.6663240  79.7096711
 127.4388270  23.2839785  91.0261471 127.1191054  22.4305093  90.7335845
 126.8921698  23.4988363  91.7819438 131.2168178  26.0002226  94.7430978
 131.4354187  26.9319334  94.7619011 131.6293951  25.6410201  95.5285781
 136.0896043  21.5735432 104.1333727 135.9892770  22.5229789 104.0645818
 135.8717585  21.2453671 103.2609797 135.2909114  18.8220357  80.7174404
 136.1528278  19.1475255  80.9770221 135.4759458  18.0351853  80.2047470
 127.3076530  26.9042697  92.9954593 126.6140001  26.4896650  92.4824547
 128.0549521  26.9463233  92.3988012 135.9527313  25.0032571 102.9498788
 135.4694395  25.8032931 103.1562677 136.0388252  25.0140516 101.9966232
 129.2213273  26.8360951  90.8720608 129.1983961  26.9348638  89.9202491
 129.5313909  27.6826101  91.1937774 131.8800650  28.8937106  94.9867222
 132.8343904  28.8621048  94.9197154 131.6813174  28.4327729  95.8017448
 132.4700033  27.4638222  97.5538020 133.2892922  27.9582300  97.5772857
 132.7436840  26.5470190  97.5255587 142.2266629  19.8548974  86.9165975
 141.3392484  20.1398625  86.6986170 142.6420618  19.6942737  86.0693252
 145.5781165  19.8795495  90.6320314 146.3541555  20.3691947  90.9044931
 144.8529299  20.3053549  91.0892184 130.2350879  34.4356725  92.0037420
 130.1005347  33.6757126  91.4375418 129.8182942  35.1597625  91.5366209
 141.3709842  29.6193649  81.0113995 142.0745692  29.8243651  81.6271651
 140.6472491  30.1870410  81.2763079 142.2007653  25.3703510  87.1316265
 142.1442854  25.8272061  86.2923898 142.7535995  24.6094194  86.9539108
 146.0112458  21.1593242  87.9566385 145.7549393  20.7589877  88.7874592
 145.3865326  21.8737036  87.8316524 150.3224796  23.8989315  90.4637676
 149.7624354  23.9682504  91.2369238 149.7168300  23.7230300  89.7437172
 133.3920005  35.3326042  92.2155862 133.2752389  36.2771475  92.1134553
 132.5712451  35.0299604  92.6041662 143.2796540  30.0576178  83.0612455
 144.1142144  29.6257376  82.8789930 143.1180883  29.8858191  83.9889350
 142.9342432  26.5608291  84.4268794 142.8791236  26.3952563  83.4857239
 142.3088487  27.2684324  84.5830984 127.7234947  21.7976355  98.2530217
 128.3693810  21.2875309  98.7417442 127.5152098  22.5345037  98.8273642
 140.2488339  28.8657203 103.7522357 141.1179499  29.0397855 103.3908992
 139.7695091  29.6851620 103.6298087 134.4174519  35.9854304  95.4311791
 135.3201766  36.0177914  95.7478286 134.1911889  35.0554755  95.4458127
 136.1728121  34.7385290  92.0921870 135.2223752  34.7387152  91.9786242
 136.4760607  33.9918025  91.5757904 132.0632438  18.9443973 102.3505231
 132.9263899  18.5880777 102.5608555 131.4897848  18.6057867 103.0380635
 151.9080815  40.5745829  93.1567632 152.5459225  40.4552576  92.4530972
 151.7901658  41.5226673  93.2155584 148.7170521  40.5273257  93.0929157
 148.3789033  40.4114322  92.2049691 149.5860289  40.1264422  93.0730163
 144.5757337  42.3808733  89.0826048 144.0122202  42.2898670  88.3142335
 144.4609732  41.5608638  89.5628540 149.1990304  41.6808109  99.0515362
 149.1878945  41.2860907  98.1795866 149.3610944  40.9474181  99.6449134
 142.1221769  43.8759925  91.9210268 142.9143061  43.5350750  91.5056567
 142.3618419  43.9854900  92.8412421 150.1556895  46.0479701  84.3940512
 149.5044875  46.6333782  84.0074526 150.9501258  46.5785896  84.4535550
 144.0812523  43.1368838  84.7927647 144.8543399  42.5897825  84.6540523
 144.4337921  44.0013088  85.0042108 145.9197565  44.4645221  97.9994546
 145.6287431  45.3690851  97.8841212 146.5554550  44.5061748  98.7138616
 146.8453772  41.8422069  94.5895906 147.4417344  41.6178091  93.8752869
 146.9028744  41.1006815  95.1921354 146.4178800  39.2961504  82.4246097
 146.6704321  38.7743026  81.6629560 145.4803360  39.1327650  82.5272780
 151.4622083  38.2997283  90.2320840 152.2485172  37.8816706  89.8811257
 151.7260788  39.2043375  90.4002488 151.6332161  43.7370133  84.9309497
 150.9977994  43.8104760  85.6430401 151.3029567  44.3263732  84.2528576
 146.1375089  41.1989610  84.6270472 146.0211347  40.5234514  85.2951556
 146.2477349  40.7121984  83.8102625 148.4806630  40.6599757  88.3317161
 148.1164837  40.1330378  89.0430082 149.3373746  40.2698226  88.1583646
 154.3855931  31.9494090  95.5948427 154.0539256  32.8189501  95.3709642
 153.7901544  31.6330374  96.2742457 148.1212117  35.6889657  83.3278509
 148.2886519  36.5569894  83.6948980 147.9309286  35.8516939  82.4039799
 150.8787450  44.1506636  94.9944340 150.5788173  45.0531675  94.8860147
 150.5338510  43.8838819  95.8465493 144.3299932  40.6020433  91.0281044
 143.4050428  40.4696647  91.2358736 144.5784345  41.3814652  91.5250987
 154.2784594  36.6689176  92.6741777 153.3701471  36.6004585  92.3800538
 154.2272190  37.1461121  93.5023603 148.1001338  38.1447315  84.3125176
 147.9800963  38.5904365  85.1510657 147.4053926  38.4932632  83.7538714
 141.6908743  40.2453706  91.8624833 141.8201124  40.4988185  92.7764245
 141.0106194  40.8381414  91.5429488 145.8608230  50.9150956  87.9615307
 145.7832260  51.8658781  88.0403788 145.2569874  50.5696829  88.6190234
 148.3525460  38.0878822 100.6176674 147.5758794  38.6472742 100.6079539
 148.9916023  38.5735605 101.1391545 156.1446240  34.8705615  94.4519651
 155.5020621  35.1638148  93.8059446 155.6401169  34.7558535  95.2572848
 153.7986404  38.6168788  85.1405510 154.7104260  38.8496175  84.9653208
 153.2896051  39.2005832  84.5780589 146.6071832  40.8964275 100.1794641
 147.3486517  41.4349319  99.9029465 145.9008818  41.5230564 100.3366193
 152.0827172  43.0393416  98.7766803 152.4910528  42.5975826  98.0321435
 151.3604433  42.4646043  99.0300996 148.4358242  37.9766022  96.1500360
 149.2819437  38.4005436  96.2935009 148.3756879  37.3199647  96.8438923
 152.4055986  43.5994606  92.5319092 151.7764849  43.7640320  91.8295160
 152.0181648  44.0136216  93.3030056 156.2845218  44.5349044  89.8863456
 155.5996256  44.9147945  89.3360489 156.3689068  45.1444371  90.6195403
 151.5857687  35.6370391  97.8081533 151.3418619  36.3912451  97.2715809
 151.8617618  36.0155738  98.6428781 153.5396150  42.1809003  96.4858799
 153.7513045  42.8240763  95.8093180 153.4925898  41.3471320  96.0180729
 151.1422379  34.7926824  93.3895371 150.2806858  35.0908077  93.6812109
 151.1684814  35.0097223  92.4576404 147.9583948  43.3369014  89.7969177
 148.4222294  43.6156717  89.0073799 147.6940746  42.4352459  89.6142268
 144.8508029  42.8840496  92.7348940 145.4209386  43.3127764  92.0966425
 145.4416141  42.6023081  93.4333126 146.8952834  39.4592167  86.6058742
 147.5976878  39.9113210  87.0732668 146.5633463  38.8175986  87.2338635
 145.3433196  38.0503923 100.9809951 144.7131856  38.7320204 101.2145348
 145.2369284  37.9387005 100.0363090 140.6378168  37.7175719  91.9075876
 139.8477222  37.9733248  91.4315986 141.1289416  38.5324057  92.0127916
 154.6541978  45.0580959  94.6581156 155.4759422  44.6561146  94.3763838
 154.6504381  44.9549193  95.6097272 142.5892914  38.0820299  88.8659352
 141.7924077  38.1938993  89.3842848 142.3618506  38.4206951  88.0000243
 148.4198581  44.6065002  96.8141867 148.4843014  45.0685409  97.6500039
 147.7109505  43.9762367  96.9424177 138.9215871  37.9706210  94.3390866
 139.1723910  38.8553220  94.6048442 139.4575420  37.7910811  93.5665958
 148.1346599  46.2733109  86.6820847 147.9992274  47.1184645  87.1105695
 148.6756411  46.4752387  85.9186781 144.6213939  32.3524689 103.3435202
 144.2280884  31.7990888 104.0182847 145.4380079  32.6635268 103.7341720
 141.5875996  43.7908547  87.2548772 142.1000517  44.5851798  87.4054337
 142.2398709  43.0934838  87.1882374 143.3970881  46.9074304  89.3371525
 143.5737509  47.8292268  89.1492509 144.1927715  46.5932723  89.7665905
 147.5381900  33.7682568 100.9355459 148.2791613  34.3689721 100.8559921
 147.7699822  33.0260206 100.3773502 142.6823238  38.9538936  99.2133689
 142.5676753  38.0524193  99.5140788 141.8267755  39.2002632  98.8618505
 149.7615075  46.8956676 100.8121189 149.3178930  46.1093054 100.4942094
 150.4232289  47.0835826 100.1465080 144.5202197  48.4252477  95.3381868
 145.0709622  48.2969541  94.5658862 143.6813672  48.7247366  94.9876761
 151.8596313  47.1759476  98.8402591 151.8414789  47.9968357  98.3482860
 152.7816233  47.0513551  99.0652732 148.3169368  44.6903605  99.6826099
 148.8497704  43.9291893  99.4525407 147.7883449  44.3977257 100.4250253
 151.4839063  29.7963671  95.2119741 151.1403332  30.6865313  95.1358851
 151.8518025  29.6065329  94.3489326 139.5524913  42.1197202  88.0308343
 140.3900135  42.5294210  87.8142051 139.7303181  41.1796644  88.0008537
 151.4489345  39.7872282  83.7192176 150.9335969  40.5576887  83.9580563
 151.1766654  39.1137418  84.3425237 149.0336456  34.6321983  88.7777414
 148.1778053  34.2428834  88.5983053 149.4463408  34.7113944  87.9177200
 150.5635603  32.1668326  93.1768974 150.0600399  32.1298462  92.3636779
 150.8566210  33.0761069  93.2365631 146.8078489  32.2507056  92.1835156
 147.6731486  32.0549865  91.8241045 146.8755998  32.0217408  93.1104512
 151.2375648  37.6599374  85.5451957 150.9325784  37.9745524  86.3962100
 152.1906091  37.7380794  85.5879290 149.6822080  43.8189598  87.1944911
 149.1543442  43.0842357  86.8818148 149.1809583  44.5964274  86.9484879
 154.6614926  42.0138618  92.3111957 154.0038601  42.7037880  92.3992086
 155.4655326  42.4035050  92.6545944 144.4140808  34.4809264  89.5551522
 144.9884560  34.2584446  88.8224715 145.0011790  34.5497959  90.3080124
 153.4720385  40.3682991  90.3615899 153.9852267  41.0012983  90.8637609
 154.1221609  39.7684186  89.9959259 144.7410395  36.5113725  83.5747408
 143.9047707  36.8488412  83.8956682 144.6015165  36.3762705  82.6374545
 146.7163476  31.3550513  88.2826592 146.0627888  31.0399530  87.6583207
 146.6743950  30.7326253  89.0086415 147.8274680  41.6369808  80.1979884
 146.9201742  41.4059061  80.3971033 148.3245712  40.8407427  80.3853866
 150.7342759  50.3467315  83.1176570 150.0604458  50.6499012  83.7261528
 151.1208581  51.1496396  82.7682027 149.9501216  37.8432446  92.6074240
 149.0323777  38.0647393  92.4495928 150.3661360  37.9178757  91.7485947
 150.7336264  39.2423862  87.7376920 151.4808083  39.7545259  87.4284042
 151.0027853  38.9207915  88.5981313 149.0062914  41.7382403  84.7203874
 148.0974133  41.4541436  84.8176344 149.0357998  42.1581481  83.8607181
 154.2382181  45.3488992  88.4895042 153.7844508  44.5079902  88.5460232
 153.6076148  45.9850391  88.8269822 153.1815101  36.2780978  89.7195709
 152.4437858  35.7658365  90.0505952 153.4341874  35.8381360  88.9078986
 152.6815121  47.1865489  89.4244860 152.9738095  47.7470546  88.7057225
 153.1913741  47.4794050  90.1798019 153.2826728  29.0557230  90.3137478
 153.5885605  28.1954594  90.0263393 154.0079333  29.6474851  90.1136472
 139.5751084  39.4587917  88.7019076 139.3775484  38.8657278  87.9770143
 139.0197748  39.1540127  89.4195015 147.5547808  39.3511023  90.8213669
 147.6096418  38.3984860  90.7456146 146.7439010  39.5070463  91.3054968
 148.7039002  43.2791147  82.0591953 148.2658432  42.5627005  81.5997590
 149.4449443  43.5067261  81.4977044 145.4940168  37.9688083  88.5804048
 144.6808033  38.2682254  88.9869240 145.9899162  37.5743772  89.2978531
 147.6448746  47.9645840  90.5138313 147.6024925  48.1906686  89.5846845
 148.5611445  47.7309215  90.6624114 151.0914380  38.4329908  97.4118942
 151.4463767  38.6601381  98.2713408 151.7386511  38.7648284  96.7896197
 144.9854243  35.5406439  94.1965283 145.6253622  35.3995198  93.4988247
 144.1531773  35.2540952  93.8203885 145.7614547  44.8408869  90.3100276
 146.5555145  44.3459189  90.1082851 145.0506239  44.3126732  89.9467981
 150.5809391  47.2226965  94.6612643 150.6346413  47.7917901  95.4290359
 149.7124172  47.3928850  94.2966680 142.0697310  38.9851951  86.3860028
 141.1394898  38.9236406  86.6029991 142.1654782  38.4627904  85.5896670
 141.9882859  35.5106764  88.9738270 142.2489676  36.4252097  88.8647431
 142.8100031  35.0431206  89.1234883 143.4607784  36.9244521  96.1437095
 144.1330838  36.7161883  95.4949743 142.6337571  36.7266607  95.7042327
 149.3633356  33.5506462  98.1602755 148.7161271  34.2496411  98.0667232
 150.1334372  33.9842606  98.5279004 152.7712154  43.8155314 101.2353309
 152.6197661  43.5865866 100.3183392 152.7616834  44.7725915 101.2484654
 149.5397491  41.3887227  96.2199575 150.4689551  41.5398386  96.0468542
 149.1188521  41.4771248  95.3648222 148.3385823  45.4137891  93.9898113
 148.1996908  45.0456676  94.8624051 147.5500419  45.9285531  93.8182071
 148.9333974  50.5146988  85.3323649 149.1085730  50.0435031  86.1469272
 148.2466763  51.1412754  85.5604910 149.8891038  44.7919494  91.3786951
 149.5540870  44.7520264  92.2744600 149.3894983  44.1264210  90.9057361
 143.8635282  40.1987124  96.9039532 143.7255080  39.4667363  97.5051071
 144.7740205  40.1096024  96.6223719 152.8250229  42.1375528  81.6524010
 152.2079400  41.4122356  81.5557063 152.3566718  42.8984888  81.3091085
 146.4917582  39.9107083  96.3923211 147.2017201  39.2700275  96.3509830
 146.4486890  40.1619978  97.3149392 154.4804361  46.8474437  99.3129791
 154.4216907  46.1633657  98.6460374 154.8823879  47.5893427  98.8610417
 145.2046516  36.8972301  98.2118851 144.6683873  36.4463040  98.8640447
 144.6163225  37.0318210  97.4689315 143.4995060  53.6636350  92.1063509
 143.7391658  54.2954875  92.7842528 142.6564256  53.3124390  92.3928869
 144.6148775  36.3560952  80.7745315 143.7378242  36.2349753  80.4107561
 145.0906528  35.5647031  80.5224203 154.4821768  44.8114020  97.5443770
 153.5948547  44.4739942  97.6670169 155.0520319  44.0797052  97.7812536
 136.1350915  41.1438112  90.8686822 136.8221955  40.8299842  90.2807837
 135.9799044  42.0479477  90.5954073 140.9385637  36.0328309  95.2971845
 140.8543826  35.4253978  94.5622255 140.1168344  36.5237327  95.2981342
 148.0122922  49.4715473  94.5105013 147.9393093  50.2770444  95.0224318
 147.5700315  49.6707439  93.6853035 147.8012701  48.7087243  88.0207835
 147.0180223  49.2508923  88.1146060 148.5005446  49.2261222  88.4202076
 151.1109351  34.5181872  90.6642040 151.6078051  33.7651835  90.3443111
 150.3396333  34.5546189  90.0985250 150.4721605  49.3702307  96.6663172
 151.1849577  50.0049772  96.5939074 149.9811634  49.4666173  95.8503174
 152.1939132  43.2753560  88.2380464 151.2595411  43.3955022  88.0685168
 152.3715801  42.3726026  87.9740474 147.6944320  36.6599255  90.3913725
 147.3242108  36.1070296  91.0794631 148.1903413  36.0557389  89.8388725
 155.5811683  39.1170879  88.7730498 156.0472136  39.9498870  88.6990801
 156.0319184  38.6515860  89.4775756 145.5233519  47.1196750  97.4868743
 146.2242978  47.7533233  97.6398137 145.0528634  47.4611482  96.7264382
 153.6487915  45.4614700  85.7716650 153.9247758  45.3471295  86.6810524
 152.7792413  45.0632185  85.7328823 153.5528346  31.4851466  92.8121399
 152.6391426  31.7155693  92.9803606 153.9821448  31.5689910  93.6635432
 153.3234805  39.6741358  95.3121293 152.6706255  39.9217265  94.6573746
 153.7015185  38.8605496  94.9783771 150.2841979  49.7101051  89.4149464
 150.4664373  48.8922707  89.8777216 151.1074965  49.9268743  88.9774354
 150.6184144  48.6369236  86.6764512 151.1471910  48.1261691  86.0634674
 150.8812364  48.3211766  87.5410045 149.3722378  40.4161169 101.7987330
 148.6963015  40.3155298 102.4689706 150.1950012  40.2600383 102.2623328
 141.1201237  46.6533105  94.4199846 141.7054674  45.9076793  94.5527750
 140.9226075  46.9637062  95.3036510 143.9739892  49.6884353  89.4362288
 143.3050267  50.1730480  88.9526328 143.8352762  49.9353573  90.3505667
 135.7118891  39.2238706  93.1404289 135.7502991  38.6902296  93.9341407
 135.2059184  38.6973911  92.5215266 148.1145161  51.7228096  96.0344946
 148.6663469  51.8859718  96.7994032 148.4551354  52.3132534  95.3624971
 143.0909654  34.0703246  96.6366831 143.1550980  34.9318077  96.2244229
 143.0276774  33.4577248  95.9039190 142.5661926  36.1426379 100.2839865
 143.1933965  35.7603456 100.8977390 141.7089845  35.9240581 100.6495558
 152.9656035  46.5489354 101.8893601 153.5095939  47.1619312 101.3948556
 152.3842880  47.1068932 102.4060614 139.3427469  37.9502808  86.2158220
 139.6380910  37.0413486  86.1625274 138.4415505  37.9290547  85.8939223
 151.2513548  49.6710072  93.0208629 151.1264687  48.8699812  92.5119574
 151.9092639  50.1656265  92.5322599 142.8721716  36.0258804  92.1985769
 142.1508302  36.6394772  92.0593242 143.6614972  36.5616569  92.1202415
 153.3148456  47.4719092  94.6488179 152.3678792  47.3524443  94.5766505
 153.6631229  46.5841590  94.7314440 145.6748030  33.3613231  98.4726421
 146.1982431  33.6075527  99.2352730 145.4560363  34.1933266  98.0529558
 141.0715311  35.6316905  86.3397545 140.7428017  34.7514284  86.1572651
 141.4254681  35.5764574  87.2273935 150.3194890  47.2671808  90.8492531
 150.1719852  46.3388516  91.0300101 151.1448383  47.2891899  90.3649606
 144.1857134  35.9189875  86.7073023 144.5253206  36.4475796  85.9851631
 144.6329254  36.2570281  87.4831590 153.9229011  48.0900367  91.9357404
 154.8475559  47.8843228  91.7981855 153.7544315  47.8416768  92.8446745
 146.8800575  34.3026926  96.1576091 146.5397395  33.5034739  96.5596771
 146.1739581  34.6028637  95.5852924 147.5317046  31.3876238  94.6103414
 148.3543116  30.9136717  94.4882304 147.7755110  32.1666722  95.1102100
 146.1725281  34.4164497  84.9066316 146.8933643  34.7945750  84.4030033
 145.5490585  35.1353374  85.0101294 150.3156404  35.1209646  85.8424648
 150.5320018  36.0034284  85.5413476 149.8350471  34.7295859  85.1130290
 145.0555625  38.0795359  92.4195393 144.9100206  38.3935662  93.3119674
 144.5780829  38.6980259  91.8666291 146.9152008  35.0697907  92.4676282
 146.9013577  34.1739000  92.1308580 147.6324436  35.0768571  93.1014568
 148.7678139  35.5035247  94.5129410 148.5095917  36.4252318  94.5113740
 148.2363179  35.1065682  95.2029874 153.7124328  48.6086034  87.2919495
 153.8861205  48.0432457  86.5393348 154.2053219  49.4086929  87.1098985
 139.5301287  40.6200703  95.3583054 138.9854755  41.3960511  95.4903328
 140.4080637  40.9671508  95.2002175 146.3188904  33.9512287  87.7363852
 146.4404815  33.0228933  87.9354740 146.0290946  33.9650973  86.8242168
 149.1880094  31.6367198  90.8730572 149.2101791  31.7006531  89.9182552
 149.6048153  30.7971706  91.0671078 154.6999500  47.9252799  84.3916393
 155.3950405  48.5459491  84.6103708 155.0422650  47.0748150  84.6668771
 140.3167309  39.7470600  98.2513211 139.5749045  39.8953235  98.8377841
 139.9960054  40.0078865  97.3879960 148.2610972  49.2886578  98.0493601
 148.5698098  49.0435725  98.9216300 149.0586454  49.4933216  97.5612471
 148.2831584  51.4424488  90.2798977 147.8436574  50.9500866  90.9731834
 149.0339701  50.8997455  90.0391053 140.7623923  47.6336028  90.2823605
 141.5881943  47.3339800  89.9022249 140.4117975  46.8643651  90.7313394
 145.7305456  46.9862497  92.3521279 145.1085465  46.3233202  92.0523507
 146.4010323  47.0123628  91.6694927 138.9632528  45.5522355  91.2412539
 138.1264436  45.1244529  91.0596540 138.9356173  45.7454798  92.1783330
 145.8029984  35.4644285 101.9453785 145.8518139  36.3406407 101.5631555
 146.3452498  34.9221678 101.3725428 156.2884829  46.0085408 101.2254922
 155.4980373  45.9909547 100.6859421 156.0518184  46.5473702 101.9803959
 156.4082704  42.8577874  98.5387651 156.4580709  42.6927882  99.4803173
 156.2996628  41.9905133  98.1485531 145.2918963  45.5366420  85.8279740
 145.4407083  46.2201884  85.1746412 146.0985406  45.5171510  86.3429195
 153.6986467  38.8408802  99.8546957 154.5996329  38.7015267  99.5630955
 153.7734441  39.0063257 100.7945135 148.0329272  36.2175657  98.7000144
 147.1632581  36.5109223  98.4282732 148.2688752  36.8016102  99.4207407
 156.1588089  40.4007430  97.2509730 156.6342211  40.5935077  96.4428582
 155.2353655  40.4566616  97.0053114 143.0471596  41.5631598  86.8340808
 142.8017638  40.6593928  87.0321019 143.2167511  41.5648748  85.8920286
 150.7368306  32.4355274  96.2165564 151.2550250  33.1716301  95.8912053
 150.3823439  32.7419267  97.0512323 142.3167243  37.2959955  84.3326970
 141.6236488  37.3704310  83.6767006 142.0718995  36.5320299  84.8548487
 150.9880900  28.8555556  91.7366461 151.2682654  28.1878746  92.3626887
 151.7731507  29.0484652  91.2241124 148.7914369  48.0314550  83.2991487
 148.2188336  48.6504738  82.8461959 149.3647162  48.5813912  83.8331409
 154.8589758  37.2773190  95.4838036 155.8107181  37.3771288  95.5050260
 154.6893209  36.4851459  95.9936120 152.8804138  34.3628774  95.6697437
 152.2854070  34.6433786  94.9743925 152.5953835  34.8522675  96.4414178
 152.0111628  48.3151701  84.4300069 152.9442301  48.2497262  84.6332945
 151.9234841  49.1507967  83.9714602 154.6399645  47.6317571  81.3904017
 154.5613276  47.2977434  82.2839775 155.4609312  48.1239339  81.3895489
 149.1761167  39.3675363  80.6407539 150.1220272  39.2381571  80.7095957
 148.7975412  38.6290025  81.1176968 155.1483052  31.0331369  90.6034431
 154.9507873  30.7246457  91.4877763 155.7582757  31.7593008  90.7332361
 149.0599860  43.4193109 102.1008196 149.9802869  43.5971708 102.2948243
 149.0249443  42.4749155 101.9487896 147.3604084  37.2925340  80.5762425
 146.4535540  36.9958452  80.6525138 147.6380065  36.9955158  79.7096711
 138.2782025  38.6131703  91.0261471 137.9584809  37.7597011  90.7335845
 137.7315453  38.8280281  91.7819438 142.0561932  41.3294144  94.7430978
 142.2747942  42.2611252  94.7619011 142.4687706  40.9702118  95.5285781
 148.9766150  31.8362229  86.7306666 148.1666878  31.4909314  87.1061912
 149.6650567  31.5269773  87.3194278 150.9056698  30.9140276  88.3530963
 151.4587737  31.3335729  89.0120986 151.1426785  29.9876024  88.3953919
 146.9289797  36.9027350 104.1333727 146.8286524  37.8521707 104.0645818
 146.7111339  36.5745589 103.2609797 146.1302869  34.1512275  80.7174404
 146.9922033  34.4767173  80.9770221 146.3153213  33.3643771  80.2047470
 138.1470285  42.2334614  92.9954593 137.4533756  41.8188567  92.4824547
 138.8943276  42.2755151  92.3988012 154.2835505  33.0240801  87.8609627
 153.7034174  33.6825605  87.4787679 154.0171438  32.2018146  87.4497044
 152.7339072  32.4245859  90.0630947 153.2338850  32.5362393  89.2545266
 153.3774680  32.1206912  90.7031756 146.7921067  40.3324489 102.9498788
 146.3088149  41.1324849 103.1562677 146.8782007  40.3432433 101.9966232
 140.0607027  42.1652868  90.8720608 140.0377715  42.2640555  89.9202491
 140.3707664  43.0118019  91.1937774 142.7194405  44.2229023  94.9867222
 143.6737658  44.1912966  94.9197154 142.5206929  43.7619647  95.8017448
 143.3093787  42.7930139  97.5538020 144.1286676  43.2874218  97.5772857
 143.5830595  41.8762107  97.5255587 153.0660383  35.1840892  86.9165975
 152.1786238  35.4690542  86.6986170 153.4814372  35.0234655  86.0693252
 141.0744634  49.7648643  92.0037420 140.9399102  49.0049044  91.4375418
 140.6576696  50.4889543  91.5366209 152.2103597  44.9485566  81.0113995
 152.9139447  45.1535569  81.6271651 151.4866246  45.5162328  81.2763079
 153.0401407  40.6995428  87.1316265 152.9836608  41.1563979  86.2923898
 153.5929749  39.9386112  86.9539108 144.2313760  50.6617960  92.2155862
 144.1146144  51.6063392  92.1134553 143.4106206  50.3591521  92.6041662
 154.1190294  45.3868095  83.0612455 154.9535898  44.9549294  82.8789930
 153.9574637  45.2150109  83.9889350 153.7736186  41.8900209  84.4268794
 153.7184990  41.7244480  83.4857239 153.1482242  42.5976242  84.5830984
 138.5628701  37.1268273  98.2530217 139.2087565  36.6167227  98.7417442
 138.3545852  37.8636955  98.8273642 151.0882094  44.1949121 103.7522357
 151.9573253  44.3689773 103.3908992 150.6088845  45.0143537 103.6298087
 147.0832312  31.3908318  84.0054113 147.0710982  32.3350158  84.1622384
 147.9755734  31.2078463  83.7113574 145.2568274  51.3146222  95.4311791
 146.1595520  51.3469832  95.7478286 145.0305644  50.3846673  95.4458127
 147.0121876  50.0677208  92.0921870 146.0617507  50.0679070  91.9786242
 147.3154362  49.3209943  91.5757904 150.8984431  27.9851094  88.2600050
 150.1316827  27.4309581  88.4056732 151.3095136  28.0572963  89.1214201
 142.9026192  34.2735890 102.3505231 143.7657654  33.9172695 102.5608555
 142.3291603  33.9349785 103.0380635 155.4151091  57.7100651  89.0826048
 154.8515956  57.6190588  88.3142335 155.3003486  56.8900556  89.5628540
 152.9615523  59.2051843  91.9210268 153.7536815  58.8642667  91.5056567
 153.2012173  59.3146818  92.8412421 154.9206277  58.4660756  84.7927647
 155.6937153  57.9189743  84.6540523 155.2731676  59.3305005  85.0042108
 155.1693686  55.9312351  91.0281044 154.2444183  55.7988565  91.2358736
 155.4178099  56.7106570  91.5250987 152.5302497  55.5745624  91.8624833
 152.6594878  55.8280103  92.7764245 151.8499949  56.1673332  91.5429488
 155.6901784  58.2132414  92.7348940 156.2603141  58.6419682  92.0966425
 156.2809896  57.9314998  93.4333126 156.1826950  53.3795841 100.9809951
 155.5525611  54.0612122 101.2145348 156.0763038  53.2678923 100.0363090
 151.4771923  53.0467637  91.9075876 150.6870977  53.3025166  91.4315986
 151.9683170  53.8615975  92.0127916 153.4286668  53.4112216  88.8659352
 152.6317831  53.5230911  89.3842848 153.2012260  53.7498869  88.0000243
 149.7609626  53.2998128  94.3390866 150.0117664  54.1845137  94.6048442
 150.2969174  53.1202729  93.5665958 155.4607693  47.6816607 103.3435202
 155.0674639  47.1282805 104.0182847 156.2773833  47.9927185 103.7341720
 152.4269751  59.1200465  87.2548772 152.9394271  59.9143715  87.4054337
 153.0792464  58.4226756  87.1882374 154.2364636  62.2366221  89.3371525
 154.4131264  63.1584186  89.1492509 155.0321469  61.9224641  89.7665905
 153.5216992  54.2830853  99.2133689 153.4070507  53.3816110  99.5140788
 152.6661510  54.5294550  98.8618505 155.3595951  63.7544395  95.3381868
 155.9103376  63.6261458  94.5658862 154.5207427  64.0539284  94.9876761
 150.3918668  57.4489119  88.0308343 151.2293890  57.8586128  87.8142051
 150.5696935  56.5088562  88.0008537 155.2534562  49.8101182  89.5551522
 155.8278314  49.5876363  88.8224715 155.8405545  49.8789876  90.3080124
 155.5804149  51.8405643  83.5747408 154.7441462  52.1780329  83.8956682
 155.4408919  51.7054623  82.6374545 150.4144839  54.7879835  88.7019076
 150.2169239  54.1949195  87.9770143 149.8591503  54.4832045  89.4195015
 155.8247997  50.8698356  94.1965283 156.4647376  50.7287116  93.4988247
 154.9925528  50.5832870  93.8203885 152.9091064  54.3143869  86.3860028
 151.9788653  54.2528324  86.6029991 153.0048536  53.7919821  85.5896670
 152.8276614  50.8398681  88.9738270 153.0883431  51.7544015  88.8647431
 153.6493786  50.3723124  89.1234883 154.3001539  52.2536439  96.1437095
 154.9724592  52.0453801  95.4949743 153.4731325  52.0558525  95.7042327
 154.7029036  55.5279042  96.9039532 154.5648834  54.7959280  97.5051071
 155.6133960  55.4387942  96.6223719 156.0440271  52.2264219  98.2118851
 155.5077628  51.7754957  98.8640447 155.4556979  52.3610128  97.4689315
 154.3388814  68.9928268  92.1063509 154.5785412  69.6246792  92.7842528
 153.4958011  68.6416308  92.3928869 155.4542530  51.6852870  80.7745315
 154.5771996  51.5641671  80.4107561 155.9300283  50.8938948  80.5224203
 146.9744670  56.4730030  90.8686822 147.6615710  56.1591760  90.2807837
 146.8192799  57.3771395  90.5954073 151.7779392  51.3620226  95.2971845
 151.6937581  50.7545896  94.5622255 150.9562098  51.8529245  95.2981342
 151.9594991  61.9825023  94.4199846 152.5448428  61.2368711  94.5527750
 151.7619830  62.2928980  95.3036510 154.8133646  65.0176270  89.4362288
 154.1444022  65.5022398  88.9526328 154.6746516  65.2645491  90.3505667
 146.5512646  54.5530623  93.1404289 146.5896745  54.0194214  93.9341407
 146.0452939  54.0265829  92.5215266 153.9303408  49.3995164  96.6366831
 153.9944735  50.2609995  96.2244229 153.8670529  48.7869165  95.9039190
 153.4055681  51.4718296 100.2839865 154.0327720  51.0895374 100.8977390
 152.5483600  51.2532498 100.6495558 150.1821224  53.2794725  86.2158220
 150.4774665  52.3705404  86.1625274 149.2809259  53.2582465  85.8939223
 153.7115471  51.3550722  92.1985769 152.9902056  51.9686690  92.0593242
 154.5008726  51.8908487  92.1202415 151.9109065  50.9608823  86.3397545
 151.5821771  50.0806202  86.1572651 152.2648436  50.9056492  87.2273935
 155.0250888  51.2481793  86.7073023 155.3646961  51.7767714  85.9851631
 155.4723009  51.5862199  87.4831590 155.8949380  53.4087277  92.4195393
 155.7493960  53.7227580  93.3119674 155.4174583  54.0272177  91.8666291
 150.3695042  55.9492621  95.3583054 149.8248510  56.7252429  95.4903328
 151.2474392  56.2963426  95.2002175 151.1561064  55.0762517  98.2513211
 150.4142800  55.2245153  98.8377841 150.8353808  55.3370783  97.3879960
 151.6017677  62.9627946  90.2823605 152.4275697  62.6631718  89.9022249
 151.2511729  62.1935568  90.7313394 149.8026282  60.8814272  91.2412539
 148.9658191  60.4536447  91.0596540 149.7749928  61.0746716  92.1783330
 153.8865350  56.8923515  86.8340808 153.6411392  55.9885845  87.0321019
 154.0561265  56.8940666  85.8920286 153.1560998  52.6251873  84.3326970
 152.4630243  52.6996228  83.6767006 152.9112750  51.8612216  84.8548487
 149.1175779  53.9423621  91.0261471 148.7978563  53.0888929  90.7335845
 148.5709207  54.1572199  91.7819438 152.8955687  56.6586062  94.7430978
 153.1141696  57.5903169  94.7619011 153.3081460  56.2994036  95.5285781
 148.9864039  57.5626532  92.9954593 148.2927510  57.1480485  92.4824547
 149.7337030  57.6047069  92.3988012 150.9000782  57.4944786  90.8720608
 150.8771470  57.5932473  89.9202491 151.2101418  58.3409937  91.1937774
 153.5588159  59.5520941  94.9867222 154.5131413  59.5204883  94.9197154
 153.3600683  59.0911565  95.8017448 154.1487542  58.1222057  97.5538020
 154.9680431  58.6166136  97.5772857 154.4224349  57.2054025  97.5255587
 151.9138388  65.0940560  92.0037420 151.7792856  64.3340961  91.4375418
 151.4970450  65.8181460  91.5366209 155.0707514  65.9909877  92.2155862
 154.9539898  66.9355310  92.1134553 154.2499960  65.6883439  92.6041662
 149.4022456  52.4560191  98.2530217 150.0481319  51.9459145  98.7417442
 149.1939607  53.1928872  98.8273642 153.7419947  49.6027808 102.3505231
 154.6051408  49.2464613 102.5608555 153.1685357  49.2641703 103.0380635
 132.6601307  15.3406555  78.8308816 132.8997905  15.9725079  79.5087835
 131.8170503  14.9894595  79.1174175 142.1221770  20.8822048  78.6455575
 142.9143062  20.5412872  78.2301874 142.3618420  20.9917023  79.5657728
 150.1556897  23.0541824  71.1185819 149.5044876  23.6395904  70.7319833
 150.9501260  23.5848019  71.1780857 144.0812524  20.1430961  71.5172953
 144.8543400  19.5959948  71.3785829 144.4337923  21.0075210  71.7287415
 145.9197566  21.4707343  84.7239853 145.6287432  22.3752974  84.6086519
 146.5554551  21.5123871  85.4383922 145.8608231  27.9213079  74.6860614
 145.7832261  28.8720904  74.7649095 145.2569875  27.5758951  75.3435540
 148.4198583  21.6127124  83.5387174 148.4843015  22.0747532  84.3745345
 147.7109506  20.9824489  83.6669483 148.1346600  23.2795232  73.4066154
 147.9992275  24.1246768  73.8351002 148.6756413  23.4814510  72.6432088
 141.5875998  20.7970670  73.9794079 142.1000518  21.5913920  74.1299644
 142.2398710  20.0996960  73.9127680 143.3970882  23.9136426  76.0616832
 143.5737511  24.8354391  75.8737816 144.1927716  23.5994845  76.4911212
 149.7615077  23.9018798  87.5366496 149.3178931  23.1155177  87.2187400
 150.4232290  24.0897949  86.8710387 144.5202198  25.4314600  82.0627174
 145.0709623  25.3031663  81.2904168 143.6813674  25.7309489  81.7122067
 151.8596315  24.1821598  85.5647897 151.8414790  25.0030479  85.0728166
 152.7816235  24.0575674  85.7898038 139.5524914  19.1259324  74.7553649
 140.3900136  19.5356333  74.5387357 139.7303182  18.1858766  74.7253843
 150.7342761  27.3529438  69.8421877 150.0604459  27.6561135  70.4506835
 151.1208583  28.1558518  69.4927334 152.6815122  24.1927612  76.1490166
 152.9738096  24.7532669  75.4302532 153.1913742  24.4856173  76.9043326
 147.6448747  24.9707963  77.2383620 147.6024926  25.1968809  76.3092152
 148.5611446  24.7371337  77.3869421 145.7614548  21.8470992  77.0345582
 146.5555146  21.3521312  76.8328157 145.0506240  21.3188855  76.6713288
 150.5809392  24.2289087  81.3857950 150.6346415  24.7980024  82.1535666
 149.7124174  24.3990972  81.0211987 148.3385824  22.4200014  80.7143419
 148.1996909  22.0518798  81.5869358 147.5500420  22.9347653  80.5427377
 148.9333976  27.5209110  72.0568956 149.1085731  27.0497153  72.8714579
 148.2466764  28.1474876  72.2850217 154.4804362  23.8536559  86.0375097
 154.4216908  23.1695779  85.3705680 154.8823881  24.5955549  85.5855723
 143.4995061  30.6698473  78.8308816 143.7391659  31.3016997  79.5087835
 142.6564258  30.3186513  79.1174175 136.1350917  18.1500235  77.5932128
 136.8221956  17.8361965  77.0053144 135.9799045  19.0541599  77.3199380
 148.0122923  26.4777595  81.2350320 147.9393094  27.2832567  81.7469625
 147.5700316  26.6769561  80.4098342 147.8012703  25.7149365  74.7453142
 147.0180224  26.2571046  74.8391366 148.5005448  26.2323345  75.1447383
 150.4721606  26.3764429  83.3908479 151.1849579  27.0111894  83.3184380
 149.9811635  26.4728295  82.5748481 145.5233520  24.1258873  84.2114050
 146.2242979  24.7595356  84.3643444 145.0528635  24.4673604  83.4509689
 150.2841980  26.7163174  76.1394770 150.4664374  25.8984829  76.6022523
 151.1074966  26.9330866  75.7019660 150.6184145  25.6431359  73.4009819
 151.1471912  25.1323813  72.7879981 150.8812365  25.3273889  74.2655352
 141.1201238  23.6595228  81.1445152 141.7054675  22.9138916  81.2773056
 140.9226076  23.9699185  82.0281816 143.9739893  26.6946475  76.1607595
 143.3050268  27.1792603  75.6771635 143.8352763  26.9415696  77.0750973
 148.1145162  28.7290219  82.7590253 148.6663470  28.8921840  83.5239338
 148.4551355  29.3194657  82.0870278 152.9656036  23.5551476  88.6138907
 153.5095940  24.1681435  88.1193862 152.3842881  24.1131055  89.1305920
 151.2513549  26.6772194  79.7453935 151.1264689  25.8761934  79.2364881
 151.9092640  27.1718388  79.2567905 153.3148457  24.4781214  81.3733485
 152.3678793  24.3586566  81.3011812 153.6631231  23.5903713  81.4559747
 150.3194891  24.2733931  77.5737837 150.1719853  23.3450638  77.7545408
 151.1448384  24.2954021  77.0894913 153.9229013  25.0962489  78.6602710
 154.8475560  24.8905351  78.5227161 153.7544316  24.8478891  79.5692052
 153.7124329  25.6148157  74.0164802 153.8861206  25.0494579  73.2638654
 154.2053220  26.4149052  73.8344292 154.6999501  24.9314921  71.1161700
 155.3950406  25.5521614  71.3349015 155.0422651  24.0810273  71.3914078
 148.2610973  26.2948700  84.7738907 148.5698100  26.0497847  85.6461607
 149.0586455  26.4995339  84.2857778 148.2831585  28.4486610  77.0044284
 147.8436575  27.9562989  77.6977141 149.0339702  27.9059578  76.7636359
 140.7623924  24.6398151  77.0068912 141.5881944  24.3401923  76.6267556
 140.4117976  23.8705773  77.4558701 145.7305457  23.9924619  79.0766586
 145.1085467  23.3295324  78.7768813 146.4010324  24.0185751  78.3940233
 138.9632529  22.5584477  77.9657846 138.1264438  22.1306652  77.7841847
 138.9356175  22.7516921  78.9028637 145.2918964  22.5428543  72.5525046
 145.4407085  23.2264007  71.8991719 146.0985408  22.5233633  73.0674502
 148.7914370  25.0376673  70.0236794 148.2188337  25.6566860  69.5707265
 149.3647163  25.5876035  70.5576716 152.0111630  25.3213823  71.1545376
 152.9442303  25.2559385  71.3578251 151.9234842  26.1570090  70.6959909
 154.6399646  24.6379693  68.1149323 154.5613278  24.3039557  69.0085081
 155.4609313  25.1301461  68.1140796 138.1470286  19.2396737  79.7199899
 137.4533757  18.8250690  79.2069854 138.8943277  19.2817274  79.1233318
 140.0607028  19.1714991  77.5965914 140.0377716  19.2702678  76.6447797
 140.3707665  20.0180142  77.9183080 142.7194406  21.2291146  81.7112529
 143.6737660  21.1975088  81.6442460 142.5206930  20.7681770  82.5262754
 141.0744635  26.7710765  78.7282726 140.9399103  26.0111166  78.1620724
 140.6576697  27.4951665  78.2611515 144.2313761  27.6680082  78.9401169
 144.1146145  28.6125515  78.8379859 143.4106207  27.3653644  79.3286968
 145.2568275  28.3208344  82.1557098 146.1595522  28.3531954  82.4723592
 145.0305645  27.3908795  82.1703433 147.0121877  27.0739331  78.8167176
 146.0617508  27.0741192  78.7031548 147.3154363  26.3272065  78.3003211
 155.4151092  34.7162774  75.8071354 154.8515958  34.6252711  75.0387642
 155.3003488  33.8962678  76.2873847 152.9615524  36.2113965  78.6455575
 153.7536816  35.8704790  78.2301874 153.2012175  36.3208940  79.5657728
 154.9206278  35.4722879  71.5172953 155.6937154  34.9251866  71.3785829
 155.2731677  36.3367128  71.7287415 155.1693687  32.9374473  77.7526351
 154.2444184  32.8050687  77.9604043 155.4178101  33.7168692  78.2496293
 152.5302499  32.5807747  78.5870140 152.6594880  32.8342226  79.5009552
 151.8499950  33.1735455  78.2674795 155.6901785  35.2194536  79.4594247
 156.2603142  35.6481805  78.8211731 156.2809897  34.9377121  80.1578432
 156.1826952  30.3857964  87.7055258 155.5525612  31.0674244  87.9390655
 156.0763040  30.2741045  86.7608396 151.4771924  30.0529760  78.6321182
 150.6870978  30.3087288  78.1561293 151.9683171  30.8678098  78.7373223
 153.4286669  30.4174339  75.5904659 152.6317833  30.5293033  76.1088155
 153.2012262  30.7560991  74.7245549 149.7609627  30.3060250  81.0636173
 150.0117665  31.1907260  81.3293749 150.2969175  30.1264852  80.2911265
 155.4607694  24.6878729  90.0680509 155.0674640  24.1344928  90.7428153
 156.2773835  24.9989308  90.4587027 152.4269752  36.1262588  73.9794079
 152.9394273  36.9205838  74.1299644 153.0792465  35.4288878  73.9127680
 154.2364637  39.2428344  76.0616832 154.4131265  40.1646309  75.8737816
 155.0321470  38.9286763  76.4911212 153.5216993  31.2892976  85.9378995
 153.4070508  30.3878233  86.2386094 152.6661511  31.5356673  85.5863812
 155.3595952  40.7606518  82.0627174 155.9103377  40.6323581  81.2904168
 154.5207428  41.0601407  81.7122067 150.3918669  34.4551242  74.7553649
 151.2293891  34.8648250  74.5387357 150.5696937  33.5150684  74.7253843
 155.2534564  26.8163304  76.2796829 155.8278316  26.5938486  75.5470022
 155.8405546  26.8851999  77.0325430 155.5804151  28.8467765  70.2992714
 154.7441463  29.1842452  70.6201989 155.4408920  28.7116745  69.3619851
 150.4144840  31.7941957  75.4264383 150.2169240  31.2011318  74.7015449
 149.8591504  31.4894167  76.1440322 155.8247998  27.8760479  80.9210590
 156.4647378  27.7349238  80.2233553 154.9925529  27.5894992  80.5449192
 152.9091066  31.3205991  73.1105335 151.9788654  31.2590447  73.3275297
 153.0048538  30.7981944  72.3141976 152.8276615  27.8460804  75.6983577
 153.0883432  28.7606137  75.5892737 153.6493787  27.3785247  75.8480190
 154.3001540  29.2598561  82.8682401 154.9724594  29.0515923  82.2195050
 153.4731327  29.0620647  82.4287634 154.7029037  32.5341164  83.6284838
 154.5648835  31.8021403  84.2296377 155.6133961  32.4450064  83.3469026
 156.0440272  29.2326341  84.9364158 155.5077629  28.7817080  85.5885754
 155.4556980  29.3672250  84.1934622 154.3388816  45.9990391  78.8308816
 154.5785414  46.6308915  79.5087835 153.4958012  45.6478431  79.1174175
 155.4542531  28.6914993  67.4990621 154.5771997  28.5703794  67.1352868
 155.9300284  27.9001071  67.2469510 146.9744671  33.4792152  77.5932128
 147.6615711  33.1653883  77.0053144 146.8192800  34.3833517  77.3199380
 151.7779393  28.3682349  82.0217152 151.6937582  27.7608019  81.2867562
 150.9562100  28.8591367  82.0226648 151.9594992  38.9887146  81.1445152
 152.5448429  38.2430834  81.2773056 151.7619831  39.2991102  82.0281816
 154.8133648  42.0238393  76.1607595 154.1444023  42.5084521  75.6771635
 154.6746517  42.2707613  77.0750973 146.5512647  31.5592746  79.8649595
 146.5896747  31.0256337  80.6586714 146.0452940  31.0327951  79.2460573
 153.9303410  26.4057286  83.3612138 153.9944736  27.2672117  82.9489535
 153.8670530  25.7931288  82.6284496 153.4055682  28.4780419  87.0085172
 154.0327721  28.0957496  87.6222696 152.5483601  28.2594621  87.3740864
 150.1821225  30.2856848  72.9403527 150.4774666  29.3767526  72.8870581
 149.2809261  30.2644587  72.6184529 153.7115472  28.3612845  78.9231075
 152.9902058  28.9748812  78.7838549 154.5008728  28.8970609  78.8447721
 151.9109066  27.9670946  73.0642852 151.5821773  27.0868325  72.8817958
 152.2648437  27.9118614  73.9519241 155.0250890  28.2543915  73.4318330
 155.3646962  28.7829837  72.7096938 155.4723010  28.5924322  74.2076896
 155.8949381  30.4149399  79.1440699 155.7493962  30.7289702  80.0364981
 155.4174585  31.0334300  78.5911598 150.3695043  32.9554744  82.0828361
 149.8248511  33.7314552  82.2148635 151.2474393  33.3025548  81.9247482
 151.1561065  32.0824640  84.9758517 150.4142801  32.2307275  85.5623148
 150.8353809  32.3432906  84.1125267 151.6017679  39.9690069  77.0068912
 152.4275699  39.6693840  76.6267556 151.2511731  39.1997691  77.4558701
 149.8026284  37.8876395  77.9657846 148.9658192  37.4598569  77.7841847
 149.7749929  38.0808838  78.9028637 153.8865352  33.8985638  73.5586115
 153.6411394  32.9947968  73.7566325 154.0561266  33.9002788  72.6165593
 153.1560999  29.6313995  71.0572277 152.4630244  29.7058350  70.4012312
 152.9112751  28.8674339  71.5793793 149.1175780  30.9485743  77.7506778
 148.7978565  30.0951051  77.4581152 148.5709208  31.1634321  78.5064745
 152.8955688  33.6648184  81.4676284 153.1141698  34.5965292  81.4864318
 153.3081462  33.3056159  82.2531088 148.9864040  34.5688655  79.7199899
 148.2927512  34.1542607  79.2069854 149.7337031  34.6109191  79.1233318
 150.9000783  34.5006908  77.5965914 150.8771471  34.5994596  76.6447797
 151.2101419  35.3472059  77.9183080 153.5588161  36.5583063  81.7112529
 154.5131414  36.5267006  81.6442460 153.3600684  36.0973687  82.5262754
 154.1487543  35.1284180  84.2783326 154.9680432  35.6228258  84.3018164
 154.4224351  34.2116148  84.2500894 151.9138389  42.1002683  78.7282726
 151.7792857  41.3403084  78.1620724 151.4970452  42.8243583  78.2611515
 155.0707515  42.9972000  78.9401169 154.9539900  43.9417432  78.8379859
 154.2499962  42.6945562  79.3286968 149.4022457  29.4622313  84.9775523
 150.0481321  28.9521267  85.4662748 149.1939608  30.1990995  85.5518949
 153.7419948  26.6089930  89.0750538 154.6051410  26.2526735  89.2853862
 153.1685359  26.2703825  89.7625942 154.3388817  23.0052513  65.5554123
 154.5785415  23.6371037  66.2333141 153.4958013  22.6540553  65.8419482
  52.6013098  92.0355459 164.0468670  51.9501077  92.6209540 163.6602683
  53.3957460  92.5661654 164.1063707  46.5268725  89.1244597 164.4455804
  47.2999601  88.5773584 164.3068680  46.8794124  89.9888846 164.6570265
  48.8635002  85.2837263 162.0774254  49.1160523  84.7618784 161.3157717
  47.9259562  85.1203408 162.1800937  54.0788363  89.7245891 164.5837654
  53.4434196  89.7980518 165.2958558  53.7485769  90.3139490 163.9056733
  48.5831291  87.1865369 164.2798629  48.4667549  86.5110272 164.9479713
  48.6933551  86.6997743 163.4630782  50.5668319  81.6765415 162.9806667
  50.7342721  82.5445652 163.3477138  50.3765488  81.8392697 162.0567956
  50.5457540  84.1323073 163.9653333  50.4257165  84.5780124 164.8038814
  49.8510128  84.4808391 163.4066871  48.3064432  96.9026715 167.6143465
  48.2288462  97.8534540 167.6931945  47.7026076  96.5572587 168.2718391
  56.2442606  84.6044546 164.7933667  57.1560462  84.8371933 164.6181365
  55.7352253  85.1881590 164.2308746  58.7301420  90.5224802 169.5391613
  58.0452459  90.9023704 168.9888646  58.8145270  91.1320129 170.2723560
  65.1904173  87.3895465 170.6594285  64.4367881  86.8202863 170.5038289
  65.3251714  87.3558130 171.6064920  50.5802801  92.2608868 166.3349004
  50.4448476  93.1060403 166.7633852  51.1212614  92.4628145 165.5714938
  53.8945547  85.7748041 163.3720333  53.3792171  86.5452645 163.6108720
  53.6222856  85.1013177 163.9953394  58.8679821  88.5280395 165.3073506
  58.0909264  88.1891555 164.8628668  59.5471302  88.5333019 164.6328471
  53.6831850  83.6475133 165.1980114  53.3781986  83.9621282 166.0490257
  54.6362293  83.7256553 165.2407447  52.1278282  89.8065356 166.8473068
  51.5999644  89.0718116 166.5346305  51.6265785  90.5840032 166.6013036
  50.2730882  87.6245566 159.8508041  49.3657944  87.3934820 160.0499190
  50.7701914  86.8283186 160.0382023  53.1798961  96.3343074 162.7704727
  52.5060660  96.6374770 163.3789685  53.5664783  97.1372154 162.4210184
  51.4519116  87.7258161 164.3732031  50.5430335  87.4417194 164.4704501
  51.4814200  88.1457240 163.5135338  56.6838383  91.3364751 168.1423199
  56.2300710  90.4955661 168.1988389  56.0532350  91.9726149 168.4797979
  55.1271323  93.1741247 169.0773017  55.4194297  93.7346305 168.3585382
  55.6369943  93.4669808 169.8326176  51.1495204  89.2666905 161.7120110
  50.7114634  88.5502764 161.2525747  51.8905645  89.4943020 161.1505201
  50.0904948  93.9521599 170.1666470  50.0481127  94.1782445 169.2375002
  51.0067647  93.7184973 170.3152271  59.2668319  87.5424102 167.7696428
  59.1286217  87.7325698 166.8417618  58.9104537  88.3043485 168.2264479
  51.3790177  96.5022746 164.9851806  51.5541932  96.0310789 165.7997429
  50.6922965  97.1288512 165.2133067  55.2706431  88.1251287 161.3052167
  54.6535602  87.3998115 161.2085220  54.8022920  88.8860647 160.9619242
  47.0604977  82.3436711 160.4273472  46.1834444  82.2225512 160.0635718
  47.5362730  81.5522789 160.1752360  50.2468903  94.6963001 167.6735992
  49.4636425  95.2384681 167.7674217  50.9461648  95.2136981 168.0730233
  54.6395334  89.2629318 167.8908621  53.7051613  89.3830780 167.7213325
  54.8172003  88.3601785 167.6268631  58.0267885  85.1046637 168.4258655
  58.4928338  85.9374629 168.3518958  58.4775386  84.6391619 169.1303914
  56.0944117  91.4490458 165.4244807  56.3703960  91.3347053 166.3338681
  55.2248615  91.0507943 165.3856980  52.7298181  95.6976809 169.0677621
  52.9120575  94.8798465 169.5305373  53.5531167  95.9144502 168.6302511
  53.0640346  94.6244994 166.3292669  53.5928112  94.1137449 165.7162831
  53.3268566  94.3087525 167.1938202  46.4196094  95.6760111 169.0890445
  45.7506469  96.1606239 168.6054485  46.2808964  95.9229332 170.0033824
  53.6969750  95.6585830 172.6736786  53.5720889  94.8575570 172.1647731
  54.3548841  96.1532024 172.1850756  52.7651092  93.2547566 170.5020688
  52.6176054  92.3264274 170.6828258  53.5904585  93.2767657 170.0177763
  56.3685213  94.0776125 171.5885561  57.2931761  93.8718987 171.4510012
  56.2000517  93.8292526 172.4974902  56.1580530  94.5961793 166.9447652
  56.3317407  94.0308215 166.1921505  56.6509421  95.3962688 166.7627142
  62.0119921  87.3598216 168.5637952  62.4551067  86.6105541 168.1657075
  61.1346431  87.3508352 168.1811684  57.1455702  93.9128557 164.0444550
  57.8406607  94.5335250 164.2631865  57.4878852  93.0623908 164.3196928
  59.0447125  91.3628263 165.5731881  59.5698449  91.7015535 164.8481201
  58.9569478  90.4275278 165.3895016  50.7287786  97.4300246 169.9327134
  50.2892776  96.9376625 170.6259991  51.4795903  96.8873214 169.6919210
  47.7375165  91.5242178 165.4807897  47.8863285  92.2077643 164.8274569
  48.5441608  91.5047268 165.9957352  61.5552785  88.8303454 170.9560399
  62.3899677  89.2693258 171.1197960  61.6911914  88.3542107 170.1368645
  51.2370571  94.0190309 162.9519644  50.6644538  94.6380496 162.4990116
  51.8103364  94.5689670 163.4859566  54.4567830  94.3027459 164.0828226
  55.3898503  94.2373021 164.2861102  54.3691043  95.1383726 163.6242759
  57.0855847  93.6193329 161.0432174  57.0069479  93.2853193 161.9367932
  57.9065514  94.1115097 161.0423646  51.6217369  85.3551122 160.2935697
  52.5676474  85.2257330 160.3624115  51.2431614  84.6165783 160.7705125
  49.8060286  83.2801098 160.2290582  48.8991742  82.9834211 160.3053295
  50.0836267  82.9830916 159.3624868  48.5759071  80.1388033 160.3702561
  49.4378235  80.4642931 160.6298378  48.7609415  79.3519529 159.8575627
  54.6559799  90.9361325 160.6642152  55.3595649  91.1411327 161.2799808
  53.9322448  91.5038087 160.9291236  55.4857609  86.6871186 166.7844422
  55.4292810  87.1439737 165.9452055  56.0385952  85.9261870 166.6067265
  63.6074753  85.2156991 170.1165833  63.0474311  85.2850180 170.8897395
  63.0018256  85.0397976 169.3965330  56.5646496  91.3743854 162.7140612
  57.3992100  90.9425052 162.5318087  56.4030839  91.2025868 163.6417507
  56.2192388  87.8775967 164.0796952  56.1641192  87.7120239 163.1385396
  55.5938444  88.5852000 164.2359141  49.4578078  96.0552967 171.7450027
  48.5073709  96.0554828 171.6314399  49.7610564  95.3085701 171.2286061
  57.3662479 104.4536514 164.4455804  58.1393355 103.9065501 164.3068680
  57.7187878 105.3180764 164.6570265  59.7028757 100.6129180 162.0774254
  59.9554278 100.0910702 161.3157717  58.7653316 100.4495326 162.1800937
  59.4225046 102.5157286 164.2798629  59.3061304 101.8402190 164.9479713
  59.5327306 102.0289660 163.4630782  61.4062074  97.0057333 162.9806667
  61.5736476  97.8737570 163.3477138  61.2159243  97.1684615 162.0567956
  61.3851294  99.4614991 163.9653333  61.2650920  99.9072041 164.8038814
  60.6903883  99.8100308 163.4066871  67.0836361  99.9336464 164.7933667
  67.9954217 100.1663851 164.6181365  66.5746008 100.5173508 164.2308746
  60.1802791 100.7759843 166.2586899  60.8826834 101.2280886 166.7260825
  59.8483419 100.1343662 166.8866792  53.9228125  99.0343395 171.5604033
  53.1327179  99.2900924 171.0844143  54.4139372  99.8491733 171.6656073
  55.8742870  99.3987975 168.5187509  55.0774033  99.5106669 169.0371005
  55.6468462  99.7374627 167.6528400  54.8725953 105.1076223 166.9076929
  55.3850473 105.9019474 167.0582494  55.5248666 104.4102514 166.8410531
  52.8374870 103.4364878 167.6836500  53.6750092 103.8461886 167.4670208
  53.0153137 102.4964320 167.6536694  64.7339302 101.1039958 163.3720333
  64.2185925 101.8744563 163.6108720  64.4616610 100.4305095 163.9953394
  62.3186413  95.9489659 168.4305571  61.4628009  95.5596510 168.2511210
  62.7313365  96.0281620 167.5705357  60.0928445  93.5674732 171.8363313
  60.9581442  93.3717541 171.4769202  60.1605954  93.3385084 172.7632670
  64.5225605  98.9767050 165.1980114  64.2175741  99.2913200 166.0490257
  65.4756047  99.0548470 165.2407447  57.6990764  95.7976940 169.2079680
  58.2734516  95.5752122 168.4752873  58.2861747  95.8665635 169.9608281
  58.0260352  97.8281401 163.2275565  57.1897664  98.1656088 163.5484840
  57.8865121  97.6930381 162.2902702  60.0013432  92.6718189 167.9354749
  59.3477844  92.3567206 167.3111364  59.9593906  92.0493929 168.6614572
  61.1124637 102.9537484 159.8508041  60.2051699 102.7226737 160.0499190
  61.6095669 102.1575103 160.0382023  62.2912870 103.0550079 164.3732031
  61.3824090 102.7709112 164.4704501  62.3207954 103.4749157 163.5135338
  66.5676685  90.3724906 169.9665635  66.8735562  89.5122270 169.6791551
  67.2929290  90.9642527 169.7664629  52.8601041 100.7755593 168.3547233
  52.6625441 100.1824954 167.6298300  52.3047705 100.4707803 169.0723172
  61.9888958 104.5958823 161.7120110  61.5508388 103.8794682 161.2525747
  62.7299399 104.8234937 161.1505201  58.7790124  99.2855759 168.2332205
  57.9657990  99.5849930 168.6397398  59.2749119  98.8911448 168.9506688
  55.3547267 100.3019627 166.0388185  54.4244855 100.2404082 166.2558148
  55.4504739  99.7795580 165.2424827  55.2732816  96.8274440 168.6266427
  55.5339633  97.7419773 168.5175588  56.0949988  96.3598882 168.7763040
  66.1100186 103.4543204 161.3052167  65.4929356 102.7290032 161.2085220
  65.6416674 104.2152565 160.9619242  57.8998732  97.6728629 160.4273472
  57.0228198  97.5517429 160.0635718  58.3756485  96.8814707 160.1752360
  64.3959308  95.8349548 170.3170198  64.8928007  95.0819511 169.9971268
  63.6246289  95.8713865 169.7513407  60.9794277  97.9766931 170.0441882
  60.6092064  97.4237972 170.7322788  61.4753369  97.3725065 169.4916882
  52.6277426  99.2670484 165.8686377  52.9230867  98.3581162 165.8153431
  51.7265461  99.2458223 165.5467380  56.1571673  97.3426480 171.8513926
  55.4358258  97.9562448 171.7121399  56.9464928  97.8784245 171.7730572
  54.3565267  96.9484581 165.9925702  54.0277973  96.0681960 165.8100808
  54.7104638  96.8932250 166.8802092  57.4707090  97.2357551 166.3601180
  57.8103163  97.7643472 165.6379788  57.9179211  97.5737957 167.1359747
  59.4575237  95.7332173 164.5594473  60.1783600  96.1113426 164.0558190
  58.8340542  96.4521050 164.6629451  63.6006360  96.4377322 165.4952805
  63.8169975  97.3201960 165.1941633  63.1200428  96.0463535 164.7658447
  59.6038861  95.2679963 167.3892009  59.7254772  94.3396609 167.5882897
  59.3140903  95.2818649 166.4770325  62.4730051  92.9534874 170.5258729
  62.4951748  93.0174207 169.5710709  62.8898110  92.1139382 170.7199235
  58.5768920 106.8534096 165.4807897  58.7257040 107.5369560 164.8274569
  59.3835363 106.8339186 165.9957352  56.3321552 102.8799274 166.4868966
  56.0867594 101.9761604 166.6849176  56.5017467 102.8816424 165.5448444
  55.6017200  98.6127631 163.9855127  54.9086445  98.6871986 163.3295163
  55.3568952  97.8487975 164.5076644  64.2730857  90.1723233 171.3894618
  64.5532610  89.5046422 172.0155044  65.0581463  90.3652328 170.8769282
  62.4611124 100.6843039 160.2935697  63.4070228 100.5549247 160.3624115
  62.0825368  99.9457701 160.7705125  60.6454041  98.6093016 160.2290582
  59.7385496  98.3126128 160.3053295  60.9230022  98.3122834 159.3624868
  51.5631981  99.9299379 170.6789628  51.2434765  99.0764687 170.3864002
  51.0165409 100.1447957 171.4347595  62.2616106  93.1529905 166.3834823
  61.4516835  92.8076990 166.7590069  62.9500523  92.8437449 166.9722435
  64.1906655  92.2307952 168.0059120  64.7437693  92.6503406 168.6649143
  64.4276741  91.3043700 168.0482076  59.4152825  95.4679951 160.3702561
  60.2771989  95.7934849 160.6298378  59.6003169  94.6811447 159.8575627
  67.5685462  94.3408477 167.5137784  66.9884131  94.9993281 167.1315836
  67.3021394  93.5185822 167.1025201  66.0189028  93.7413535 169.7159104
  66.5188807  93.8530069 168.9073423  66.6624636  93.4374588 170.3559913
  66.3510340  96.5008568 166.5694132  65.4636195  96.7858218 166.3514327
  66.7664329  96.3402331 165.7221409  65.4953553 106.2653242 160.6642152
  66.1989403 106.4703245 161.2799808  64.7716202 106.8330004 160.9291236
  67.0586143 103.2067885 164.0796952  67.0034947 103.0412156 163.1385396
  66.4332198 103.9143918 164.2359141  60.3682268  92.7075994 163.6582270
  60.3560938  93.6517834 163.8150541  61.2605690  92.5246139 163.3641731
  64.1834388  89.3018770 167.9128207  63.4166784  88.7477257 168.0584889
  64.5945093  89.3740639 168.7742358  52.6013099  69.0417582 150.7713976
  51.9501079  69.6271662 150.3847990  53.3957462  69.5723777 150.8309014
  46.5268726  66.1306719 151.1701111  47.2999602  65.5835706 151.0313986
  46.8794125  66.9950969 151.3815572  48.8635004  62.2899385 148.8019560
  49.1160524  61.7680907 148.0403023  47.9259563  62.1265531 148.9046244
  54.0788364  66.7308014 151.3082960  53.4434197  66.8042641 152.0203865
  53.7485770  67.3201613 150.6302040  48.5831292  64.1927491 151.0043935
  48.4667551  63.5172395 151.6725020  48.6933552  63.7059865 150.1876088
  50.5668320  58.6827538 149.7051973  50.7342723  59.5507774 150.0722444
  50.3765489  58.8454820 148.7813262  50.5457541  61.1385196 150.6898640
  50.4257166  61.5842246 151.5284120  49.8510130  61.4870513 150.1312178
  48.3064433  73.9088837 154.3388771  48.2288463  74.8596662 154.4177252
  47.7026077  73.5634710 154.9963698  56.2442607  61.6106669 151.5178974
  57.1560464  61.8434056 151.3426672  55.7352254  62.1943713 150.9554053
  58.7301422  67.5286925 156.2636919  58.0452460  67.9085826 155.7133953
  58.8145271  68.1382252 156.9968867  65.1904174  64.3957588 157.3839592
  64.4367883  63.8264986 157.2283596  65.3251715  64.3620252 158.3310226
  50.5802802  69.2670990 153.0594311  50.4448477  70.1122526 153.4879159
  51.1212615  69.4690268 152.2960245  53.8945549  62.7810163 150.0965640
  53.3792172  63.5514768 150.3354027  53.6222857  62.1075299 150.7198701
  58.8679823  65.5342518 152.0318813  58.0909265  65.1953677 151.5873975
  59.5471304  65.5395141 151.3573778  53.6831852  60.6537255 151.9225421
  53.3781987  60.9683405 152.7735564  54.6362294  60.7318675 151.9652754
  52.1278284  66.8127479 153.5718375  51.5999645  66.0780238 153.2591612
  51.6265786  67.5902155 153.3258343  50.2730884  64.6307689 146.5753348
  49.3657945  64.3996942 146.7744497  50.7701916  63.8345308 146.7627329
  53.1798963  73.3405196 149.4950034  52.5060661  73.6436893 150.1034992
  53.5664785  74.1434276 149.1455491  51.4519117  64.7320284 151.0977338
  50.5430336  64.4479317 151.1949808  51.4814201  65.1519362 150.2380645
  56.6838385  68.3426873 154.8668505  56.2300712  67.5017783 154.9233696
  56.0532351  68.9788272 155.2043286  55.1271324  70.1803370 155.8018324
  55.4194298  70.7408427 155.0830689  55.6369944  70.4731931 156.5571483
  51.1495205  66.2729028 148.4365416  50.7114635  65.5564886 147.9771054
  51.8905646  66.5005142 147.8750508  50.0904949  70.9583721 156.8911777
  50.0481128  71.1844567 155.9620309  51.0067648  70.7247096 157.0397578
  59.2668320  64.5486225 154.4941735  59.1286218  64.7387821 153.5662924
  58.9104539  65.3105607 154.9509786  51.3790178  73.5084869 151.7097113
  51.5541933  73.0372912 152.5242736  50.6922966  74.1350635 151.9378374
  55.2706433  65.1313409 148.0297474  54.6535603  64.4060237 147.9330527
  54.8022921  65.8922769 147.6864548  45.9451263  76.6574231 158.4836973
  46.1847861  77.2892756 159.1615992  45.1020460  76.3062271 158.7702332
  47.0604979  59.3498833 147.1518778  46.1834445  59.2287634 146.7881025
  47.5362732  58.5584912 146.8997667  50.2468905  71.7025124 154.3981299
  49.4636426  72.2446804 154.4919523  50.9461650  72.2199103 154.7975540
  54.6395335  66.2691440 154.6153928  53.7051614  66.3892903 154.4458632
  54.8172004  65.3663907 154.3513937  58.0267887  62.1108760 155.1503962
  58.4928339  62.9436751 155.0764264  58.4775387  61.6453741 155.8549220
  56.0944118  68.4552581 152.1490114  56.3703962  68.3409176 153.0583988
  55.2248617  68.0570066 152.1102287  52.7298182  72.7038932 155.7922927
  52.9120576  71.8860588 156.2550680  53.5531168  72.9206624 155.3547817
  53.0640347  71.6307117 153.0537976  53.5928114  71.1199572 152.4408138
  53.3268567  71.3149647 153.9183509  46.4196095  72.6822234 155.8135752
  45.7506471  73.1668361 155.3299792  46.2808965  72.9291454 156.7279130
  53.6969751  72.6647953 159.3982092  53.5720891  71.8637693 158.8893038
  54.3548842  73.1594146 158.9096062  52.7651093  70.2609689 157.2265995
  52.6176055  69.3326396 157.4073565  53.5904586  70.2829780 156.7423070
  56.3685215  71.0838248 158.3130867  57.2931762  70.8781109 158.1755318
  56.2000518  70.8354649 159.2220209  56.1580531  71.6023915 153.6692959
  56.3317408  71.0370338 152.9166811  56.6509422  72.4024810 153.4872449
  62.0119922  64.3660338 155.2883259  62.4551068  63.6167663 154.8902382
  61.1346432  64.3570475 154.9056991  57.1455703  70.9190680 150.7689857
  57.8406608  71.5397372 150.9877172  57.4878853  70.0686031 151.0442235
  59.0447126  68.3690385 152.2977188  59.5698451  68.7077658 151.5726508
  58.9569479  67.4337401 152.1140322  50.7287787  74.4362368 156.6572441
  50.2892778  73.9438747 157.3505298  51.4795904  73.8935336 156.4164516
  47.7375166  68.5304301 152.2053203  47.8863287  69.2139765 151.5519876
  48.5441610  68.5109391 152.7202659  61.5552787  65.8365576 157.6805706
  62.3899678  66.2755381 157.8443266  61.6911916  65.3604230 156.8613952
  51.2370572  71.0252431 149.6764951  50.6644539  71.6442618 149.2235423
  51.8103365  71.5751793 150.2104873  54.4567832  71.3089581 150.8073533
  55.3898505  71.2435143 151.0106408  54.3691044  72.1445848 150.3488066
  57.0855848  70.6255452 147.7677481  57.0069480  70.2915315 148.6613238
  57.9065515  71.1177220 147.7668953  51.6217370  62.3613244 147.0181003
  52.5676475  62.2319452 147.0869421  51.2431615  61.6227906 147.4950431
  49.8060287  60.2863220 146.9535888  48.8991743  59.9896333 147.0298602
  50.0836268  59.9893039 146.0870175  48.5759072  57.1450156 147.0947868
  49.4378236  57.4705054 147.3543685  48.7609416  56.3581652 146.5820933
  54.6559800  67.9423447 147.3887459  55.3595650  68.1473450 148.0045114
  53.9322449  68.5100209 147.6536542  55.4857610  63.6933308 153.5089729
  55.4292812  64.1501860 152.6697361  56.0385953  62.9323993 153.3312572
  63.6074754  62.2219114 156.8411140  63.0474312  62.2912303 157.6142702
  63.0018257  62.0460098 156.1210636  56.5646497  68.3805976 149.4385919
  57.3992101  67.9487175 149.2563394  56.4030840  68.2087990 150.3662813
  56.2192390  64.8838090 150.8042258  56.1641193  64.7182361 149.8630702
  55.5938445  65.5914123 150.9604448  49.4578079  73.0615089 158.4695333
  48.5073710  73.0616951 158.3559706  49.7610565  72.3147824 157.9531368
  65.1930773  78.8975628 159.5341096  65.8309183  78.7782375 158.8304436
  65.0751615  79.8456471 159.5929048  62.0020479  78.8503056 159.4702620
  61.6638990  78.7344120 158.5823155  62.8710247  78.4494221 159.4503626
  57.8607295  80.7038532 155.4599511  57.2972160  80.6128469 154.6915799
  57.7459690  79.8838436 155.9402004  62.4840262  80.0037907 165.4288826
  62.4728903  79.6090706 164.5569330  62.6460901  79.2703980 166.0222597
  55.4071726  82.1989724 158.2983732  56.1993018  81.8580548 157.8830031
  55.6468377  82.3084699 159.2185885  63.4406853  84.3709500 150.7713976
  62.7894833  84.9563580 150.3847990  64.2351216  84.9015695 150.8309014
  57.3662480  81.4598637 151.1701111  58.1393356  80.9127624 151.0313986
  57.7187879  82.3242886 151.3815572  59.2047523  82.7875019 164.3768010
  58.9137389  83.6920650 164.2614676  59.8404507  82.8291547 165.0912079
  60.1303730  80.1651868 160.9669369  60.7267302  79.9407890 160.2526332
  60.1878701  79.4236613 161.5694817  59.7028758  77.6191303 148.8019560
  59.9554279  77.0972824 148.0403023  58.7653317  77.4557448 148.9046244
  64.7472041  76.6227081 156.6094304  65.5335130  76.2046505 156.2584721
  65.0110745  77.5273174 156.7775952  64.9182118  82.0599932 151.3082960
  64.2827951  82.1334558 152.0203865  64.5879525  82.6493531 150.6302040
  70.1480468  76.5602315 157.5127282  70.8805640  75.9901531 157.7465112
  69.3919824  76.1723915 157.9533788  59.4225047  79.5219409 151.0043935
  59.3061305  78.8464312 151.6725020  59.5327307  79.0351783 150.1876088
  61.7656588  78.9829556 154.7090625  61.4014795  78.4560177 155.4203546
  62.6223704  78.5928025 154.5357110  67.6705889  70.2723889 161.9721891
  67.3389213  71.1419300 161.7483106  67.0751502  69.9560173 162.6515921
  61.4062075  74.0119456 149.7051973  61.5736477  74.8799692 150.0722444
  61.2159244  74.1746737 148.7813262  64.1637408  82.4736435 161.3717804
  63.8638131  83.3761473 161.2633611  63.8188468  82.2068618 162.2238956
  57.6149890  78.9250232 157.4054508  56.6900386  78.7926446 157.6132200
  57.8634303  79.7044451 157.9024450  67.5634552  74.9918975 159.0515241
  66.6551429  74.9234383 158.7574002  67.5122148  75.4690920 159.8797066
  61.3851296  76.4677113 150.6898640  61.2650921  76.9134164 151.5284120
  60.6903884  76.8162431 150.1312178  54.9758701  78.5683505 158.2398297
  55.1051082  78.8217984 159.1537709  54.2956152  79.1611213 157.9202952
  59.1458188  89.2380755 154.3388771  59.0682218  90.1888580 154.4177252
  58.5419831  88.8926628 154.9963698  69.4296198  73.1935413 160.8293115
  68.7870578  73.4867946 160.1832909  68.9251127  73.0788334 161.6346311
  67.0836362  76.9398586 151.5178974  67.9954218  77.1725973 151.3426672
  66.5746009  77.5235631 150.9554053  59.8921790  79.2194074 166.5568105
  60.6336474  79.7579118 166.2802929  59.1858775  79.8460363 166.7139657
  65.3677130  81.3623214 165.1540267  65.7760486  80.9205625 164.4094899
  64.6454391  80.7875842 165.4074460  61.7208200  76.2995821 162.5273824
  62.5669395  76.7235235 162.6708473  61.6606837  75.6429445 163.2212387
  65.6905944  81.9224405 158.9092555  65.0614807  82.0870119 158.2068623
  65.3031606  82.3366014 159.6803520  69.5695176  82.8578843 156.2636919
  68.8846214  83.2377744 155.7133953  69.6539025  83.4674169 156.9968867
  64.8707645  73.9600189 164.1854997  64.6268577  74.7142250 163.6489273
  65.1467575  74.3385537 165.0202244  66.8246108  80.5038802 162.8632263
  67.0363003  81.1470562 162.1866644  66.7775856  79.6701118 162.3954193
  64.4272337  73.1156622 159.7668835  63.5656816  73.4137876 160.0585572
  64.4534771  73.3327021 158.8349868  61.2433906  81.6598813 156.1742641
  61.7072252  81.9386516 155.3847263  60.9790704  80.7582258 155.9915731
  58.1357987  81.2070295 159.1122404  58.7059344  81.6357563 158.4739888
  58.7266099  80.9252879 159.8106590  60.1802792  77.7821965 152.9832206
  60.8826835  78.2343009 153.4506132  59.8483421  77.1405784 153.6112099
  53.9228126  76.0405518 158.2849339  53.1327180  76.2963047 157.8089450
  54.4139373  76.8553856 158.3901380  67.9391936  83.3810757 161.0354620
  68.7609379  82.9790944 160.7537302  67.9354339  83.2778991 161.9870736
  55.8742871  76.4050097 155.2432816  55.0774035  76.5168792 155.7616312
  55.6468464  76.7436749 154.3773707  61.7048539  82.9294800 163.1915331
  61.7692972  83.3915208 164.0273502  60.9959463  82.2992165 163.3197640
  52.2065829  76.2936008 160.7164330  52.4573867  77.1783018 160.9821906
  52.7425377  76.1140610 159.9439422  76.0297929  79.7249506 157.3839592
  75.2761637  79.1556904 157.2283596  76.1645470  79.6912170 158.3310226
  61.4196557  84.5962908 153.0594311  61.2842232  85.4414444 153.4879159
  61.9606369  84.7982186 152.2960245  54.8725954  82.1138346 153.6322236
  55.3850475  82.9081596 153.7827801  55.5248667  81.4164636 153.5655837
  56.6820839  85.2304102 155.7144989  56.8587467  86.1522067 155.5265973
  57.4777672  84.9162522 156.1439369  63.0465033  85.2186474 167.1894653
  62.6028887  84.4322853 166.8715558  63.7082247  85.4065625 166.5238544
  57.8052154  86.7482276 161.7155332  58.3559579  86.6199339 160.9432325
  56.9663630  87.0477165 161.3650224  65.1446271  85.4989274 165.2176054
  65.1264747  86.3198155 164.7256323  66.0666191  85.3743350 165.4426195
  61.6019325  83.0133404 166.0599563  62.1347662  82.2521692 165.8298871
  61.0733406  82.7207056 166.8023717  64.7689020  68.1193470 161.5893204
  64.4253290  69.0095112 161.5132315  65.1367983  67.9295127 160.7262789
  52.8374871  80.4427000 154.4081807  53.6750093  80.8524009 154.1915514
  53.0153139  79.5026442 154.3782000  64.7339303  78.1102081 150.0965640
  64.2185926  78.8806686 150.3354027  64.4616611  77.4367217 150.7198701
  62.3186414  72.9551782 155.1550878  61.4628010  72.5658632 154.9756517
  62.7313366  73.0343743 154.2950663  63.8485561  70.4898125 159.5542438
  63.3450356  70.4528260 158.7410243  64.1416168  71.3990868 159.6139094
  60.0928447  70.5736855 158.5608619  60.9581443  70.3779663 158.2014509
  60.1605956  70.3447207 159.4877976  69.7073577  80.8634436 152.0318813
  68.9303020  80.5245595 151.5873975  70.3865058  80.8687059 151.3573778
  64.5225606  75.9829173 151.9225421  64.2175742  76.2975322 152.7735564
  65.4756048  76.0610593 151.9652754  62.9672038  82.1419396 153.5718375
  62.4393400  81.4072156 153.2591612  62.4659541  82.9194073 153.3258343
  67.9464884  80.3368417 158.6885421  67.2888559  81.0267678 158.7765550
  68.7505283  80.7264849 159.0319407  57.6990766  72.8039063 155.9324986
  58.2734518  72.5814244 155.1998179  58.2861748  72.8727757 156.6853588
  66.7570343  78.6912790 156.7389363  67.2702225  79.3242781 157.2411072
  67.4071567  78.0913985 156.3732723  58.0260353  74.8343524 149.9520871
  57.1897665  75.1718210 150.2730146  57.8865122  74.6992503 149.0148008
  60.0013433  69.6780312 154.6600056  59.3477846  69.3629329 154.0356670
  59.9593908  69.0556052 155.3859879  61.1124638  79.9599607 146.5753348
  60.2051700  79.7288860 146.7744497  61.6095670  79.1637226 146.7627329
  64.0192717  88.6697114 149.4950034  63.3454416  88.9728811 150.1034992
  64.4058539  89.4726194 149.1455491  63.2351174  76.1662245 158.9847703
  62.3173735  76.3877192 158.8269391  63.6511317  76.2408556 158.1259411
  64.0186222  77.5653661 154.1150384  64.7658040  78.0775058 153.8057506
  64.2877811  77.2437714 154.9754777  62.2912872  80.0612202 151.0977338
  61.3824091  79.7771234 151.1949808  62.3207955  80.4811280 150.2380645
  67.5232139  83.6718791 154.8668505  67.0694466  82.8309701 154.9233696
  66.8926106  84.3080189 155.2043286  66.4665059  74.6010777 156.0969173
  65.7287815  74.0888163 156.4279415  66.7191832  74.1611159 155.2852450
  65.9665078  85.5095288 155.8018324  66.2588053  86.0700345 155.0830689
  66.4763699  85.8023849 156.5571483  66.5676686  67.3787029 156.6910942
  66.8735563  66.5184392 156.4036857  67.2929291  67.9704649 156.4909936
  52.8601042  77.7817716 155.0792540  52.6625442  77.1887076 154.3543607
  52.3047706  77.4769926 155.7968479  60.8397766  77.6740822 157.1987133
  60.8946376  76.7214659 157.1229610  60.0288968  77.8300261 157.6828432
  61.9888959  81.6020945 148.4365416  61.5508389  80.8856804 147.9771054
  62.7299400  81.8297060 147.8750508  58.7790126  76.2917882 154.9577512
  57.9657991  76.5912052 155.3642704  59.2749120  75.8973571 155.6751994
  60.9298704  86.2875639 156.8911777  60.8874882  86.5136485 155.9620309
  61.8461402  86.0539013 157.0397578  64.3764337  76.7559706 163.7892406
  64.7313725  76.9831179 164.6486872  65.0236469  77.0878083 163.1669661
  70.1062074  79.8778142 154.4941735  69.9679973  80.0679738 153.5662924
  69.7498293  80.6397525 154.9509786  58.2704200  73.8636237 160.5738747
  58.9103580  73.7224996 159.8761710  57.4381731  73.5770751 160.1977349
  70.1331454  81.9454669 159.5053006  70.5667961  81.8529958 160.3536060
  70.8463035  81.9212170 158.8673022  59.0464504  83.1638668 156.6873739
  59.8405103  82.6688988 156.4856314  58.3356197  82.6356531 156.3241445
  63.8659349  85.5456763 161.0386107  63.9196371  86.1147700 161.8063823
  62.9974130  85.7158648 160.6740144  55.3547268  77.3081750 152.7633492
  54.4244856  77.2466205 152.9803454  55.4504740  76.7857702 151.9670133
  55.2732817  73.8336562 155.3511734  55.5339634  74.7481896 155.2420894
  56.0949989  73.3661005 155.5008347  56.7457742  75.2474320 162.5210558
  57.4180796  75.0391682 161.8723207  55.9187529  75.0496406 162.0815791
  70.9947003  81.9878370 162.0385892  71.1882894  82.8924180 162.2845167
  70.8947622  81.5285789 162.8724477  66.0562112  82.1385113 167.6126772
  65.9047619  81.9095664 166.6956856  66.0466792  83.0955714 167.6258117
  62.8247449  79.7117025 162.5973039  63.7539509  79.8628185 162.4242006
  62.4038479  79.8001046 161.7421685  61.6235780  83.7367690 160.3671577
  61.4846866  83.3686474 161.2397515  60.8350377  84.2515329 160.1955534
  62.2183932  88.8376786 151.7097113  62.3935688  88.3664829 152.5242736
  61.5316720  89.4642552 151.9378374  63.1740995  83.1149292 157.7560414
  62.8390828  83.0750062 158.6518064  62.6744941  82.4494008 157.2830825
  57.1485239  78.5216923 163.2812995  57.0105037  77.7897161 163.8824535
  58.0590163  78.4325823 162.9997183  66.1100187  80.4605327 148.0297474
  65.4929358  79.7352155 147.9330527  65.6416676  81.2214687 147.6864548
  59.7767540  78.2336882 162.7696675  60.4867159  77.5930074 162.7283294
  59.7336848  78.4849777 163.6922856  67.7654319  85.1704235 165.6903254
  67.7066865  84.4863455 165.0233837  68.1673837  85.9123225 165.2383880
  56.7845018  91.9866149 158.4836973  57.0241616  92.6184673 159.1615992
  55.9414214  91.6354189 158.7702332  57.8998733  74.6790751 147.1518778
  57.0228199  74.5579552 146.7881025  58.3756486  73.8876829 146.8997667
  67.7671726  83.1343819 163.9217234  66.8798505  82.7969741 164.0443633
  68.3370277  82.4026850 164.1585999  49.4200873  79.4667911 157.2460285
  50.1071913  79.1529641 156.6581301  49.2649002  80.3709275 156.9727537
  61.2972879  87.7945271 160.8878477  61.2243051  88.6000243 161.3997782
  60.8550273  87.9937237 160.0626499  61.0862659  87.0317041 154.3981299
  60.3030181  87.5738722 154.4919523  61.7855404  87.5491021 154.7975540
  64.3959309  72.8411671 157.0415504  64.8928009  72.0881633 156.7216574
  63.6246291  72.8775988 156.4758713  72.2489067  78.5452036 158.6833796
  72.2378943  79.4276752 158.3127729  71.3806446  78.1923587 158.4888333
  63.7571563  87.6932105 163.0436636  64.4699535  88.3279570 162.9712537
  63.2661592  87.7895971 162.2276638  65.4789090  81.5983358 154.6153928
  64.5445369  81.7184821 154.4458632  65.6565758  80.6955825 154.3513937
  60.9794278  74.9829054 156.7687189  60.6092065  74.4300094 157.4568094
  61.4753370  74.3787187 156.2162189  68.8661641  77.4400677 155.1503962
  69.3322093  78.2728669 155.0764264  69.3169142  76.9745659 155.8549220
  58.8083476  85.4426549 163.8642207  59.5092936  86.0763032 164.0171601
  58.3378591  85.7841280 163.1037846  66.9337872  83.7844499 152.1490114
  67.2097716  83.6701093 153.0583988  66.0642371  83.3861984 152.1102287
  66.8378304  69.8081264 159.1894863  65.9241384  70.0385491 159.3577070
  67.2671405  69.8919709 160.0408895  66.6084762  77.9971156 161.6894757
  65.9556213  78.2447064 161.0347210  66.9865142  77.1835295 161.3557234
  63.5691936  88.0330850 155.7922927  63.7514331  87.2152506 156.2550680
  64.3924922  88.2498542 155.3547817  63.9034102  86.9599035 153.0537976
  64.4321868  86.4491489 152.4408138  64.1662321  86.6441565 153.9183509
  54.4051195  84.9762904 160.7973309  54.9904631  84.2306592 160.9301214
  54.2076033  85.2866861 161.6809973  57.2589850  88.0114151 155.8135752
  56.5900225  88.4960279 155.3299792  57.1202719  88.2583372 156.7279130
  48.9968849  77.5468504 159.5177753  49.0352949  77.0132095 160.3114871
  48.4909142  77.0203710 158.8988730  61.3995118  90.0457895 162.4118410
  61.9513426  90.2089516 163.1767495  61.7401312  90.6362333 161.7398435
  66.2505993  84.8719152 168.2667065  66.7945897  85.4849111 167.7722019
  65.6692838  85.4298731 168.7834078  52.6277427  76.2732606 152.5931684
  52.9230868  75.3643285 152.5398738  51.7265463  76.2520346 152.2712686
  64.5363506  87.9939870 159.3982092  64.4114645  87.1929610 158.8893038
  65.1942597  88.4886064 158.9096062  56.1571674  74.3488603 158.5759233
  55.4358260  74.9624571 158.4366706  56.9464930  74.8846368 158.4975878
  66.5998414  85.7948891 161.0261642  65.6528750  85.6754242 160.9539969
  66.9481187  84.9071389 161.1087904  54.3565268  73.9546704 152.7171009
  54.0277975  73.0744083 152.5346115  54.7104639  73.8994373 153.6047398
  63.6044847  85.5901607 157.2265995  63.4569810  84.6618314 157.4073565
  64.4298341  85.6121697 156.7423070  57.4707092  74.2419674 153.0846487
  57.8103164  74.7705595 152.3625095  57.9179212  74.5800080 153.8605053
  67.2078969  86.4130165 158.3130867  68.1325517  86.2073027 158.1755318
  67.0394273  86.1646567 159.2220209  60.8167004  69.7106037 160.9876878
  61.6393074  69.2366515 160.8655768  61.0605068  70.4896521 161.4875564
  59.4575239  72.7394295 151.2839780  60.1783601  73.1175548 150.7803496
  58.8340543  73.4583172 151.3874757  63.6006362  73.4439444 152.2198112
  63.8169976  74.3264082 151.9186940  63.1200429  73.0525658 151.4903754
  58.3405583  76.4025158 158.7968856  58.1950164  76.7165461 159.6893138
  57.8630787  77.0210058 158.2439755  60.2001966  73.3927706 158.8449746
  60.1863535  72.4968799 158.5082044  60.9174394  73.3998369 159.4788032
  62.0528097  73.8265046 160.8902873  61.7945874  74.7482116 160.8887204
  61.5213137  73.4295480 161.5803338  66.9974285  86.9315833 153.6692959
  67.1711163  86.3662255 152.9166811  67.4903177  87.7316728 153.4872449
  52.8151245  78.9430502 161.7356518  52.2704713  79.7190310 161.8676792
  53.6930595  79.2901306 161.5775639  59.6038862  72.2742086 154.1137316
  59.7254773  71.3458732 154.3128204  59.3140904  72.2880772 153.2015632
  62.4730052  69.9596996 157.2504036  62.4951749  70.0236329 156.2956016
  62.8898111  69.1201505 157.4444542  72.8513677  79.6952256 155.2883259
  73.2944823  78.9459581 154.8902382  71.9740187  79.6862392 154.9056991
  67.9849458  86.2482597 150.7689857  68.6800362  86.8689290 150.9877172
  68.3272608  85.3977949 151.0442235  69.8840881  83.6982303 152.2977188
  70.4092205  84.0369576 151.5726508  69.7963234  82.7629318 152.1140322
  61.5460930  87.6116377 164.4267064  61.8548056  87.3665523 165.2989764
  62.3436412  87.8163015 163.9385935  61.5681542  89.7654286 156.6572441
  61.1286532  89.2730665 157.3505298  62.3189659  89.2227254 156.4164516
  54.0473881  85.9565827 156.6597069  54.8731901  85.6569599 156.2795713
  53.6967933  85.1873449 157.1086858  59.0155414  85.3092295 158.7294743
  58.3935423  84.6463000 158.4296971  59.6860281  85.3353427 158.0468390
  52.2482486  83.8752153 157.6186003  51.4114394  83.4474328 157.4370004
  52.2206131  84.0684597 158.5556794  69.5734787  84.3315207 167.6028386
  68.7830331  84.3139345 167.0632885  69.3368142  84.8703500 168.3577422
  69.6932662  81.1807673 164.9161114  69.7430667  81.0157680 165.8576637
  69.5846585  80.3134932 164.5258995  58.5768921  83.8596219 152.2053203
  58.7257041  84.5431683 151.5519876  59.3835364  83.8401309 152.7202659
  66.9836424  77.1638601 166.2320421  67.8846287  77.0245066 165.9404419
  67.0584399  77.3293056 167.1718598  71.1950859  83.6004614 165.1603136
  70.9035667  83.9634595 165.9966597  70.5822990  82.8871623 164.9816468
  72.3946541  81.1657494 157.6805706  73.2293433  81.6047298 157.8443266
  72.5305670  80.6896147 156.8613952  69.4438047  78.7237229 163.6283194
  69.9192169  78.9164875 162.8202045  68.5203613  78.7796415 163.3826578
  56.3321554  79.8861396 153.2114272  56.0867596  78.9823726 153.4094482
  56.5017468  79.8878547 152.2693750  64.0218264  70.7585073 162.5939028
  64.5400208  71.4946100 162.2685516  63.6673396  71.0649066 163.4285787
  55.6017201  75.6189754 150.7100434  54.9086446  75.6934109 150.0540470
  55.3568953  74.8550097 151.2321951  64.2730858  67.1785355 158.1139924
  64.5532612  66.5108544 158.7400351  65.0581465  67.3714451 157.6014588
  62.0764326  86.3544349 149.6764951  61.5038293  86.9734536 149.2235423
  62.6497120  86.9043711 150.2104873  68.1439716  75.6002989 161.8611499
  69.0957139  75.7001087 161.8823724  67.9743167  74.8081258 162.3709584
  66.1654096  72.6858572 162.0470900  65.5704028  72.9663585 161.3517389
  65.8803792  73.1752473 162.8187641  65.2961586  86.6381499 150.8073533
  66.2292259  86.5727061 151.0106408  65.2084799  87.4737766 150.3488066
  67.9249603  85.9547369 147.7677481  67.8463234  85.6207233 148.6613238
  68.7459270  86.4469137 147.7668953  70.6227794  78.8209109 160.9753799
  70.5904114  77.8825110 161.1613483  71.2328418  78.8993146 160.2419624
  62.4611125  77.6905162 147.0181003  63.4070230  77.5611370 147.0869421
  62.0825370  76.9519824 147.4950431  70.7722282  75.6120152 161.0212082
  70.2561331  74.8278609 160.8342011  71.6562231  75.2838869 161.1858602
  68.4333009  69.3561168 156.9807895  68.2357830  69.0476256 157.8651227
  69.0432715  70.0822807 157.1105825  76.4404344  79.8825116 160.1159836
  77.1707732  79.6210404 160.6767539  75.8311289  79.1453838 160.1561904
  74.5219641  78.0232978 160.7134287  73.7952804  77.8888943 160.1050779
  74.1066928  78.3309807 161.5191005  62.3449817  81.7422908 168.4781660
  63.2652827  81.9201507 168.6721707  62.3099400  80.7978953 168.3261359
  60.6454042  75.6155138 146.9535888  59.7385497  75.3188251 147.0298602
  60.9230023  75.3184956 146.0870175  51.5631982  76.9361502 157.4034935
  51.2434767  76.0826810 157.1109309  51.0165411  77.1510080 158.1592902
  55.3411890  79.6523943 161.1204441  55.5597900  80.5841050 161.1392475
  55.7537664  79.2931917 161.9059245  62.2616108  70.1592028 153.1080130
  61.4516836  69.8139113 153.4835376  62.9500525  69.8499572 153.6967741
  64.1906656  69.2370075 154.7304426  64.7437695  69.6565528 155.3894449
  64.4276742  68.3105823 154.7727382  59.4152827  72.4742073 147.0947868
  60.2771991  72.7996972 147.3543685  59.6003171  71.6873569 146.5820933
  51.4320242  80.5564413 159.3728056  50.7383714  80.1418366 158.8598011
  52.1793233  80.5984950 158.7761475  67.5685463  71.3470600 154.2383091
  66.9884132  72.0055404 153.8561143  67.3021396  70.5247944 153.8270508
  66.0189029  70.7475658 156.4404411  66.5188808  70.8592192 155.6318730
  66.6624637  70.4436710 157.0805219  53.3456985  80.4882667 157.2494071
  53.3227673  80.5870354 156.2975954  53.6557621  81.3347818 157.5711237
  56.0044363  82.5458822 161.3640686  56.9587616  82.5142764 161.2970617
  55.8056886  82.0849446 162.1790912  56.5943745  81.1159938 163.9311483
  57.4136634  81.6104017 163.9546321  56.8680553  80.1991906 163.9029051
  66.3510341  73.5070690 153.2939439  65.4636196  73.7920341 153.0759634
  66.7664330  73.3464454 152.4466716  69.7024877  73.5317211 157.0093778
  70.4785267  74.0213664 157.2818395  68.9773011  73.9575265 157.4665648
  72.1397436  74.2444830 158.0667719  72.7341927  74.0040566 157.3561027
  72.2124020  73.5251961 158.6941255  54.3594592  88.0878441 158.3810884
  54.2249059  87.3278842 157.8148882  53.9426654  88.8119341 157.9139672
  65.4953555  83.2715365 147.3887459  66.1989405  83.4765367 148.0045114
  64.7716203  83.8392127 147.6536542  66.3251365  79.0225226 153.5089729
  66.2686566  79.4793778 152.6697361  66.8779707  78.2615911 153.3312572
  70.1356171  74.8114958 154.3339849  69.8793105  74.4111594 155.1648056
  69.5109039  75.5258752 154.2089988  74.4468509  77.5511031 156.8411140
  73.8868067  77.6204221 157.6142702  73.8412012  77.3752016 156.1210636
  57.5163717  88.9847758 158.5929326  57.3996102  89.9293191 158.4908016
  56.6956164  88.6821320 158.9815125  67.4040252  83.7097894 149.4385919
  68.2385856  83.2779093 149.2563394  67.2424595  83.5379908 150.3662813
  67.0586144  80.2130007 150.8042258  67.0034948  80.0474279 149.8630702
  66.4332199  80.9206040 150.9604448  64.3732051  82.5178919 170.1295821
  65.2423211  82.6919572 169.7682456  63.8938803  83.3373336 170.0071550
  60.3682270  69.7138116 150.3827577  60.3560939  70.6579956 150.5395847
  61.2605691  69.5308262 150.0887038  58.5418232  89.6376020 161.8085255
  59.4445478  89.6699631 162.1251750  58.3155602  88.7076471 161.8231590
  60.2971834  88.3907007 158.4695333  59.3467465  88.3908868 158.3559706
  60.6004320  87.6439741 157.9531368  64.1834389  66.3080893 154.6373513
  63.4166785  65.7539380 154.7830196  64.5945094  66.3802762 155.4987665
  76.0324527  94.2267545 159.5341096  76.6702937  94.1074293 158.8304436
  75.9145370  95.1748389 159.5929048  72.8414233  94.1794973 159.4702620
  72.5032745  94.0636038 158.5823155  73.7104002  93.7786138 159.4503626
  68.7001049  96.0330450 155.4599511  68.1365914  95.9420387 154.6915799
  68.5853444  95.2130354 155.9402004  73.3234016  95.3329825 165.4288826
  73.3122657  94.9382623 164.5569330  73.4854656  94.5995898 166.0222597
  66.2465481  97.5281641 158.2983732  67.0386773  97.1872466 157.8830031
  66.4862131  97.6376616 159.2185885  74.2800608  99.7001417 150.7713976
  73.6288587 100.2855498 150.3847990  75.0744971 100.2307612 150.8309014
  68.2056235  96.7890555 151.1701111  68.9787111  96.2419542 151.0313986
  68.5581634  97.6534804 151.3815572  70.0441277  98.1166937 164.3768010
  69.7531143  99.0212568 164.2614676  70.6798262  98.1583464 165.0912079
  70.9697484  95.4943785 160.9669369  71.5661057  95.2699808 160.2526332
  71.0272456  94.7528531 161.5694817  70.5422513  92.9483221 148.8019560
  70.7948033  92.4264742 148.0403023  69.6047072  92.7849366 148.9046244
  75.5865796  91.9518999 156.6094304  76.3728885  91.5338422 156.2584721
  75.8504500  92.8565091 156.7775952  75.7575873  97.3891849 151.3082960
  75.1221706  97.4626476 152.0203865  75.4273279  97.9785448 150.6302040
  80.9874223  91.8894232 157.5127282  81.7199395  91.3193449 157.7465112
  80.2313578  91.5015833 157.9533788  70.2618801  94.8511327 151.0043935
  70.1455060  94.1756230 151.6725020  70.3721061  94.3643701 150.1876088
  72.6050342  94.3121474 154.7090625  72.2408550  93.7852095 155.4203546
  73.4617458  93.9219943 154.5357110  78.5099643  85.6015806 161.9721891
  78.1782968  86.4711217 161.7483106  77.9145256  85.2852090 162.6515921
  72.2455829  89.3411373 149.7051973  72.4130232  90.2091610 150.0722444
  72.0552998  89.5038655 148.7813262  75.0031163  97.8028352 161.3717804
  74.7031886  98.7053391 161.2633611  74.6582222  97.5360536 162.2238956
  68.4543644  94.2542149 157.4054508  67.5294140  94.1218363 157.6132200
  68.7028057  95.0336368 157.9024450  78.4028306  90.3210893 159.0515241
  77.4945184  90.2526301 158.7574002  78.3515902  90.7982837 159.8797066
  72.2245050  91.7969031 150.6898640  72.1044675  92.2426082 151.5284120
  71.5297639  92.1454349 150.1312178  65.8152455  93.8975423 158.2398297
  65.9444836  94.1509902 159.1537709  65.1349906  94.4903131 157.9202952
  69.9851942 104.5672673 154.3388771  69.9075972 105.5180498 154.4177252
  69.3813586 104.2218545 154.9963698  72.4769172  91.7400538 166.9950138
  71.7002506  92.2994458 166.9853003  73.1159735  92.2257321 167.5165008
  80.2689953  88.5227331 160.8293115  79.6264333  88.8159864 160.1832909
  79.7644881  88.4080251 161.6346311  77.9230116  92.2690504 151.5178974
  78.8347972  92.5017891 151.3426672  77.4139763  92.8527548 150.9554053
  70.7315544  94.5485991 166.5568105  71.4730229  95.0871035 166.2802929
  70.0252530  95.1752280 166.7139657  72.5601954  91.6287739 162.5273824
  73.4063149  92.0527152 162.6708473  72.5000592  90.9721363 163.2212387
  76.5299699  97.2516323 158.9092555  75.9008561  97.4162037 158.2068623
  76.1425361  97.6657932 159.6803520  80.4088931  98.1870760 156.2636919
  79.7239969  98.5669662 155.7133953  80.4932780  98.7966087 156.9968867
  75.7101399  89.2892107 164.1854997  75.4662331  90.0434168 163.6489273
  75.9861330  89.6677455 165.0202244  77.6639862  95.8330719 162.8632263
  77.8756757  96.4762479 162.1866644  77.6169610  94.9993036 162.3954193
  75.2666091  88.4448540 159.7668835  74.4050570  88.7429794 160.0585572
  75.2928526  88.6618939 158.8349868  72.0827661  96.9890731 156.1742641
  72.5466006  97.2678434 155.3847263  71.8184459  96.0874175 155.9915731
  68.9751742  96.5362212 159.1122404  69.5453099  96.9649481 158.4739888
  69.5659853  96.2544797 159.8106590  71.0196547  93.1113883 152.9832206
  71.7220590  93.5634927 153.4506132  70.6877175  92.4697702 153.6112099
  69.4676908  91.7025640 167.3583415  68.8375569  92.3841921 167.5918812
  69.3612996  91.5908721 166.4136553  64.7621881  91.3697436 158.2849339
  63.9720935  91.6254964 157.8089450  65.2533128  92.1845774 158.3901380
  78.7785690  98.7102675 161.0354620  79.6003134  98.3082862 160.7537302
  78.7748093  98.6070909 161.9870736  66.7136626  91.7342015 155.2432816
  65.9167789  91.8460709 155.7616312  66.4862218  92.0728667 154.3773707
  72.5442294  98.2586718 163.1915331  72.6086726  98.7207125 164.0273502
  71.8353217  97.6284083 163.3197640  63.0459584  91.6227926 160.7164330
  63.2967622  92.5074936 160.9821906  63.5819132  91.4432528 159.9439422
  86.8691683  95.0541423 157.3839592  86.1155392  94.4848821 157.2283596
  87.0039224  95.0204088 158.3310226  72.2590311  99.9254826 153.0594311
  72.1235986 100.7706361 153.4879159  72.8000124 100.1274103 152.2960245
  68.7457651  86.0046406 169.7208666  68.3524596  85.4512604 170.3956310
  69.5623791  86.3156984 170.1115184  65.7119709  97.4430264 153.6322236
  66.2244229  98.2373514 153.7827801  66.3642421  96.7456554 153.5655837
  67.5214593 100.5596020 155.7144989  67.6981222 101.4813985 155.5265973
  68.3171427 100.2454439 156.1439369  71.6625612  87.4204285 167.3128923
  72.4035325  88.0211438 167.2333385  71.8943535  86.6781922 166.7546965
  66.8066950  92.6060652 165.5907152  66.6920465  91.7045909 165.8914251
  65.9511468  92.8524349 165.2391969  68.6445909 102.0774194 161.7155332
  69.1953334 101.9491257 160.9432325  67.8057385 102.3769083 161.3650224
  75.6082775  83.4485388 161.5893204  75.2647044  84.3387029 161.5132315
  75.9761737  83.2587045 160.7262789  63.6768625  95.7718918 154.4081807
  64.5143847  96.1815926 154.1915514  63.8546893  94.8318360 154.3782000
  75.5733058  93.4393999 150.0965640  75.0579681  94.2098603 150.3354027
  75.3010366  92.7659135 150.7198701  73.1580169  88.2843699 155.1550878
  72.3021765  87.8950550 154.9756517  73.5707120  88.3635660 154.2950663
  74.6879315  85.8190043 159.5542438  74.1844111  85.7820178 158.7410243
  74.9809922  86.7282785 159.6139094  70.9322201  85.9028772 158.5608619
  71.7975198  85.7071581 158.2014509  70.9999710  85.6739124 159.4877976
  80.5467332  96.1926353 152.0318813  79.7696774  95.8537513 151.5873975
  81.2258813  96.1978976 151.3573778  75.3619361  91.3121091 151.9225421
  75.0569496  91.6267240 152.7735564  76.3149803  91.3902511 151.9652754
  73.8065793  97.4711314 153.5718375  73.2787154  96.7364074 153.2591612
  73.3053295  98.2485990 153.3258343  78.7858639  95.6660335 158.6885421
  78.1282313  96.3559596 158.7765550  79.5899038  96.0556766 159.0319407
  68.5384520  88.1330980 155.9324986  69.1128272  87.9106162 155.1998179
  69.1255503  88.2019675 156.6853588  77.5964097  94.0204707 156.7389363
  78.1095979  94.6534699 157.2411072  78.2465321  93.4205903 156.3732723
  68.8654107  90.1635441 149.9520871  68.0291420  90.5010128 150.2730146
  68.7258877  90.0284421 149.0148008  70.8407188  85.0072229 154.6600056
  70.1871600  84.6921246 154.0356670  70.7987662  84.3847970 155.3859879
  71.9518393  95.2891524 146.5753348  71.0445454  95.0580778 146.7744497
  72.4489425  94.4929144 146.7627329  74.8586472 103.9989032 149.4950034
  74.1848170 104.3020728 150.1034992  75.2452294 104.8018112 149.1455491
  74.0744928  91.4954163 158.9847703  73.1567490  91.7169110 158.8269391
  74.4905072  91.5700473 158.1259411  74.8579976  92.8945578 154.1150384
  75.6051795  93.4066976 153.8057506  75.1271566  92.5729631 154.9754777
  73.1306626  95.3904119 151.0977338  72.2217845  95.1063152 151.1949808
  73.1601710  95.8103198 150.2380645  78.3625894  99.0010709 154.8668505
  77.9088221  98.1601619 154.9233696  77.7319860  99.6372107 155.2043286
  77.3058813  89.9302695 156.0969173  76.5681570  89.4180081 156.4279415
  77.5585587  89.4903076 155.2852450  76.8058833 100.8387205 155.8018324
  77.0981807 101.3992262 155.0830689  77.3157453 101.1315766 156.5571483
  77.4070440  82.7078947 156.6910942  77.7129317  81.8476310 156.4036857
  78.1323045  83.2996567 156.4909936  63.6994797  93.1109633 155.0792540
  63.5019196  92.5178994 154.3543607  63.1441461  92.8061843 155.7968479
  71.6791520  93.0032740 157.1987133  71.7340130  92.0506576 157.1229610
  70.8682722  93.1592179 157.6828432  72.8282714  96.9312863 148.4365416
  72.3902144  96.2148722 147.9771054  73.5693155  97.1588978 147.8750508
  69.6183880  91.6209800 154.9577512  68.8051746  91.9203970 155.3642704
  70.1142874  91.2265488 155.6751994  71.7692458 101.6167556 156.8911777
  71.7268637 101.8428403 155.9620309  72.6855157 101.3830931 157.0397578
  75.2158092  92.0851624 163.7892406  75.5707480  92.3123097 164.6486872
  75.8630223  92.4170001 163.1669661  80.9455829  95.2070060 154.4941735
  80.8073727  95.3971656 153.5662924  80.5892048  95.9689443 154.9509786
  69.1097955  89.1928155 160.5738747  69.7497334  89.0516914 159.8761710
  68.2775485  88.9062668 160.1977349  80.9725208  97.2746587 159.5053006
  81.4061715  97.1821876 160.3536060  81.6856789  97.2504087 158.8673022
  69.8858259  98.4930585 156.6873739  70.6798857  97.9980906 156.4856314
  69.1749951  97.9648449 156.3241445  74.7053103 100.8748681 161.0386107
  74.7590126 101.4439617 161.8063823  73.8367885 101.0450566 160.6740144
  66.1941022  92.6373667 152.7633492  65.2638610  92.5758123 152.9803454
  66.2898494  92.1149620 151.9670133  66.1126571  89.1628480 155.3511734
  66.3733389  90.0773813 155.2420894  66.9343744  88.6952923 155.5008347
  67.5851497  90.5766237 162.5210558  68.2574550  90.3683599 161.8723207
  66.7581283  90.3788323 162.0815791  73.4877069  87.2028178 164.5376219
  72.8404984  87.9018128 164.4440696  74.2578084  87.6364322 164.9052467
  73.6641203  95.0408943 162.5973039  74.5933263  95.1920103 162.4242006
  73.2432233  95.1292964 161.7421685  72.4629535  99.0659607 160.3671577
  72.3240620  98.6978392 161.2397515  71.6744131  99.5807247 160.1955534
  73.0577687 104.1668704 151.7097113  73.2329442 103.6956747 152.5242736
  72.3710475 104.7934470 151.9378374  74.0134750  98.4441210 157.7560414
  73.6784583  98.4041980 158.6518064  73.5138696  97.7785926 157.2830825
  67.9878994  93.8508840 163.2812995  67.8498792  93.1189079 163.8824535
  68.8983917  93.7617740 162.9997183  76.9493942  95.7897245 148.0297474
  76.3323112  95.0644073 147.9330527  76.4810430  96.5506605 147.6864548
  70.6161295  93.5628800 162.7696675  71.3260913  92.9221992 162.7283294
  70.5730603  93.8141694 163.6922856  69.3290229  90.5494017 164.5892315
  68.7927586  90.0984756 165.2413911  68.7406937  90.6839926 163.8462779
  67.6238772 107.3158067 158.4836973  67.8635370 107.9476591 159.1615992
  66.7807969 106.9646107 158.7702332  68.7392488  90.0082669 147.1518778
  67.8621954  89.8871470 146.7881025  69.2150241  89.2168747 146.8997667
  60.2594628  94.7959829 157.2460285  60.9465667  94.4821559 156.6581301
  60.1042756  95.7001193 156.9727537  65.0629350  89.6850025 161.6745309
  64.9787539  89.0775695 160.9395719  64.2412056  90.1759043 161.6754805
  72.1366634 103.1237189 160.8878477  72.0636805 103.9292161 161.3997782
  71.6944027 103.3229155 160.0626499  71.9256414 102.3608959 154.3981299
  71.1423935 102.9030639 154.4919523  72.6249159 102.8782939 154.7975540
  75.2353064  88.1703589 157.0415504  75.7321763  87.4173551 156.7216574
  74.4640045  88.2067905 156.4758713  83.0882821  93.8743954 158.6833796
  83.0772697  94.7568670 158.3127729  82.2200200  93.5215505 158.4888333
  76.3182844  96.9275276 154.6153928  75.3839123  97.0476738 154.4458632
  76.4959513  96.0247743 154.3513937  71.8188032  90.3120972 156.7687189
  71.4485820  89.7592012 157.4568094  72.3147125  89.7079105 156.2162189
  79.7055396  92.7692595 155.1503962  80.1715848  93.6020587 155.0764264
  80.1562896  92.3037577 155.8549220  69.6477231 100.7718467 163.8642207
  70.3486690 101.4054950 164.0171601  69.1772346 101.1133198 163.1037846
  77.7731627  99.1136416 152.1490114  78.0491471  98.9993011 153.0583988
  76.9036126  98.7153901 152.1102287  77.6772058  85.1373182 159.1894863
  76.7635138  85.3677409 159.3577070  78.1065160  85.2211626 160.0408895
  77.4478517  93.3263074 161.6894757  76.7949967  93.5738982 161.0347210
  77.8258897  92.5127212 161.3557234  74.4085691 103.3622767 155.7922927
  74.5908085 102.5444423 156.2550680  75.2318677 103.5790460 155.3547817
  74.7427856 102.2890952 153.0537976  75.2715623 101.7783407 152.4408138
  75.0056076 101.9733483 153.9183509  65.2444949 100.3054822 160.7973309
  65.8298386  99.5598510 160.9301214  65.0469787 100.6158778 161.6809973
  68.0983604 103.3406069 155.8135752  67.4293980 103.8252197 155.3299792
  67.9596474 103.5875290 156.7279130  59.8362604  92.8760422 159.5177753
  59.8746703  92.3424013 160.3114871  59.3302897  92.3495627 158.8988730
  67.2153366  87.7224962 163.0140295  67.2794693  88.5839793 162.6017693
  67.1520486  87.1098964 162.2812653  66.6905639  89.7948095 166.6613329
  67.3177677  89.4125172 167.2750853  65.8333557  89.5762297 167.0269022
  63.4671181  91.6024524 152.5931684  63.7624622  90.6935202 152.5398738
  62.5659217  91.5812263 152.2712686  75.3757260 103.3231788 159.3982092
  75.2508400 102.5221528 158.8893038  76.0336351 103.8177981 158.9096062
  66.9965428  89.6780521 158.5759233  66.2752014  90.2916488 158.4366706
  67.7858684  90.2138285 158.4975878  77.4392168 101.1240808 161.0261642
  76.4922504 101.0046159 160.9539969  77.7874942 100.2363306 161.1087904
  69.7991742  87.0134947 164.8499884  70.3226144  87.2597244 165.6126194
  69.5804075  87.8454982 164.4303022  65.1959023  89.2838622 152.7171009
  64.8671729  88.4036001 152.5346115  65.5498394  89.2286290 153.6047398
  74.4438602 100.9193524 157.2265995  74.2963564  99.9910232 157.4073565
  75.2692095 100.9413615 156.7423070  68.3100846  89.5711592 153.0846487
  68.6496919  90.0997513 152.3625095  68.7572967  89.9091998 153.8605053
  78.0472724 101.7422083 158.3130867  78.9719271 101.5364944 158.1755318
  77.8788027 101.4938484 159.2220209  71.0044287  87.9548642 162.5349555
  70.6641107  87.1556455 162.9370235  70.2983293  88.2550353 161.9626388
  71.6560759  85.0397955 160.9876878  72.4786828  84.5658433 160.8655768
  71.8998822  85.8188438 161.4875564  70.2968993  88.0686213 151.2839780
  71.0177356  88.4467466 150.7803496  69.6734297  88.7875090 151.3874757
  74.4400116  88.7731362 152.2198112  74.6563730  89.6556000 151.9186940
  73.9594183  88.3817575 151.4903754  69.1799337  91.7317075 158.7968856
  69.0343918  92.0457378 159.6893138  68.7024541  92.3501976 158.2439755
  71.0395720  88.7219623 158.8449746  71.0257289  87.8260717 158.5082044
  71.7568148  88.7290287 159.4788032  72.8921851  89.1556963 160.8902873
  72.6339629  90.0774034 160.8887204  72.3606891  88.7587398 161.5803338
  77.8368040 102.2607751 153.6692959  78.0104917 101.6954173 152.9166811
  78.3296931 103.0608645 153.4872449  63.6545000  94.2722420 161.7356518
  63.1098468  95.0482228 161.8676792  64.5324350  94.6193224 161.5775639
  70.4432616  87.6034004 154.1137316  70.5648528  86.6750650 154.3128204
  70.1534659  87.6172690 153.2015632  73.3123807  85.2888914 157.2504036
  73.3345504  85.3528247 156.2956016  73.7291866  84.4493423 157.4444542
  83.6907431  95.0244174 155.2883259  84.1338577  94.2751499 154.8902382
  82.8133941  95.0154310 154.9056991  78.8243212 101.5774515 150.7689857
  79.5194117 102.1981208 150.9877172  79.1666362 100.7269866 151.0442235
  64.4411022  93.3992316 164.6286674  63.6992758  93.5474951 165.2151305
  64.1203766  93.6600582 163.7653424  80.7234635  99.0274221 152.2977188
  81.2485960  99.3661493 151.5726508  80.6356988  98.0921236 152.1140322
  72.4075296 105.0946204 156.6572441  71.9680286 104.6022583 157.3505298
  73.1583413 104.5519171 156.4164516  64.8867635 101.2857745 156.6597069
  65.7125655 100.9861517 156.2795713  64.5361687 100.5165367 157.1086858
  69.8549168 100.6384213 158.7294743  69.2329178  99.9754918 158.4296971
  70.5254035 100.6645345 158.0468390  63.0876240  99.2044071 157.6186003
  62.2508149  98.7766245 157.4370004  63.0599886  99.3976514 158.5556794
  69.9273696  89.1166001 168.3227249  69.9761851  89.9928124 167.9405018
  70.4696210  88.5743394 167.7498892  69.4162675  99.1888136 152.2053203
  69.5650796  99.8723601 151.5519876  70.2229119  99.1693226 152.7202659
  72.1572984  89.8697373 165.0773607  71.2876294  90.1630939 164.8056196
  72.3932465  90.4537818 165.7980871  83.2340296  96.4949412 157.6805706
  84.0687187  96.9339216 157.8443266  83.3699425  96.0188065 156.8613952
  80.2831802  94.0529147 163.6283194  80.7585923  94.2456793 162.8202045
  79.3597367  94.1088333 163.3826578  67.1715308  95.2153314 153.2114272
  66.9261350  94.3115644 153.4094482  67.3411223  95.2170464 152.2693750
  74.8612018  86.0876990 162.5939028  75.3793962  86.8238017 162.2685516
  74.5067151  86.3940984 163.4285787  66.4410956  90.9481671 150.7100434
  65.7480201  91.0226026 150.0540470  66.1962708  90.1842015 151.2321951
  75.1124612  82.5077273 158.1139924  75.3926366  81.8400462 158.7400351
  75.8975219  82.7006368 157.6014588  72.9158081 101.6836267 149.6764951
  72.3432048 102.3026454 149.2235423  73.4890874 102.2335628 150.2104873
  78.9833471  90.9294907 161.8611499  79.9350894  91.0293004 161.8823724
  78.8136921  90.1373175 162.3709584  77.0047850  88.0150490 162.0470900
  76.4097782  88.2955503 161.3517389  76.7197547  88.5044391 162.8187641
  76.1355341 101.9673417 150.8073533  77.0686014 101.9018978 151.0106408
  76.0478553 102.8029684 150.3488066  78.7643357 101.2839287 147.7677481
  78.6856989 100.9499151 148.6613238  79.5853024 101.7761055 147.7668953
  81.4621548  94.1501026 160.9753799  81.4297869  93.2117027 161.1613483
  82.0722172  94.2285063 160.2419624  73.3004879  93.0197079 147.0181003
  74.2463984  92.8903288 147.0869421  72.9219124  92.2811741 147.4950431
  81.6116037  90.9412070 161.0212082  81.0955086  90.1570527 160.8342011
  82.4955985  90.6130787 161.1858602  79.2726764  84.6853085 156.9807895
  79.0751585  84.3768174 157.8651227  79.8826469  85.4114724 157.1105825
  87.2798098  95.2117033 160.1159836  88.0101487  94.9502321 160.6767539
  86.6705044  94.4745755 160.1561904  85.3613395  93.3524896 160.7134287
  84.6346559  93.2180861 160.1050779  84.9460682  93.6601725 161.5191005
  71.4847796  90.9447056 146.9535888  70.5779252  90.6480169 147.0298602
  71.7623777  90.6476874 146.0870175  62.4025737  92.2653419 157.4034935
  62.0828521  91.4118727 157.1109309  61.8559165  92.4801997 158.1592902
  66.1805644  94.9815860 161.1204441  66.3991654  95.9132968 161.1392475
  66.5931418  94.6223835 161.9059245  73.1009862  85.4883946 153.1080130
  72.2910590  85.1431031 153.4835376  73.7894279  85.1791489 153.6967741
  75.0300410  84.5661992 154.7304426  75.5831449  84.9857446 155.3894449
  75.2670497  83.6397740 154.7727382  70.2546581  87.8033991 147.0947868
  71.1165745  88.1288889 147.3543685  70.4396925  87.0165487 146.5820933
  62.2713997  95.8856331 159.3728056  61.5777468  95.4710284 158.8598011
  63.0186988  95.9276867 158.7761475  78.4079218  86.6762518 154.2383091
  77.8277887  87.3347322 153.8561143  78.1415150  85.8539862 153.8270508
  76.8582784  86.0767575 156.4404411  77.3582562  86.1884110 155.6318730
  77.5018392  85.7728628 157.0805219  64.1850739  95.8174585 157.2494071
  64.1621427  95.9162272 156.2975954  64.4951376  96.6639735 157.5711237
  66.8438117  97.8750740 161.3640686  67.7981371  97.8434682 161.2970617
  66.6450641  97.4141363 162.1790912  67.4337499  96.4451856 163.9311483
  68.2530388  96.9395934 163.9546321  67.7074307  95.5283824 163.9029051
  77.1904096  88.8362608 153.2939439  76.3029951  89.1212259 153.0759634
  77.6058085  88.6756371 152.4466716  80.5418632  88.8609129 157.0093778
  81.3179022  89.3505581 157.2818395  79.8166766  89.2867183 157.4665648
  82.9791190  89.5736748 158.0667719  83.5735681  89.3332484 157.3561027
  83.0517774  88.8543879 158.6941255  65.1988346 103.4170359 158.3810884
  65.0642814 102.6570760 157.8148882  64.7820408 104.1411259 157.9139672
  76.3347309  98.6007283 147.3887459  77.0383159  98.8057285 148.0045114
  75.6109958  99.1684044 147.6536542  77.1645119  94.3517144 153.5089729
  77.1080321  94.8085695 152.6697361  77.7173462  93.5907828 153.3312572
  80.9749925  90.1406876 154.3339849  80.7186859  89.7403511 155.1648056
  80.3502793  90.8550670 154.2089988  85.2862263  92.8802949 156.8411140
  84.7261821  92.9496138 157.6142702  84.6805766  92.7043934 156.1210636
  68.3557472 104.3139676 158.5929326  68.2389856 105.2585109 158.4908016
  67.5349918 104.0113238 158.9815125  78.2434006  99.0389812 149.4385919
  79.0779610  98.6071010 149.2563394  78.0818349  98.8671825 150.3662813
  77.8979899  95.5421925 150.8042258  77.8428702  95.3766197 149.8630702
  77.2725954  96.2497958 150.9604448  62.6872414  90.7789989 164.6303680
  63.3331277  90.2688943 165.1190906  62.4789565  91.5158671 165.2047106
  71.2076024  85.0430034 150.3827577  71.1954694  85.9871874 150.5395847
  72.0999446  84.8600179 150.0887038  69.3811986 104.9667938 161.8085255
  70.2839233 104.9991548 162.1251750  69.1549356 104.0368389 161.8231590
  71.1365588 103.7198924 158.4695333  70.1861219 103.7200786 158.3559706
  71.4398074 102.9731659 157.9531368  75.0228144  81.6372811 154.6373513
  74.2560539  81.0831297 154.7830196  75.4338849  81.7094679 155.4987665
  67.0269905  87.9257607 168.7278695  67.8901366  87.5694411 168.9382019
  66.4535315  87.5871501 169.4154099  79.0449989 112.1182472 151.1701111
  79.8180865 111.5711459 151.0313986  79.3975388 112.9826722 151.3815572
  81.3816267 108.2775138 148.8019560  81.6341788 107.7556660 148.0403023
  80.4440826 108.1141284 148.9046244  81.1012556 110.1803244 151.0043935
  80.9848814 109.5048148 151.6725020  81.2114816 109.6935618 150.1876088
  83.0849584 104.6703291 149.7051973  83.2523986 105.5383528 150.0722444
  82.8946753 104.8330573 148.7813262  83.0638805 107.1260949 150.6898640
  82.9438430 107.5717999 151.5284120  82.3691393 107.4746266 150.1312178
  88.7623871 107.5982422 151.5178974  89.6741727 107.8309809 151.3426672
  88.2533518 108.1819466 150.9554053  81.8590301 108.4405801 152.9832206
  82.5614344 108.8926844 153.4506132  81.5270930 107.7989620 153.6112099
  75.6015635 106.6989353 158.2849339  74.8114689 106.9546882 157.8089450
  76.0926882 107.5137691 158.3901380  77.5530380 107.0633933 155.2432816
  76.7561544 107.1752627 155.7616312  77.3255973 107.4020585 154.3773707
  76.5513463 112.7722181 153.6322236  77.0637984 113.5665432 153.7827801
  77.2036176 112.0748472 153.5655837  74.5162380 111.1010836 154.4081807
  75.3537602 111.5107844 154.1915514  74.6940648 110.1610278 154.3782000
  86.4126812 108.7685916 150.0965640  85.8973435 109.5390521 150.3354027
  86.1404120 108.0951052 150.7198701  83.9973923 103.6135617 155.1550878
  83.1415519 103.2242467 154.9756517  84.4100875 103.6927578 154.2950663
  81.7715956 101.2320690 158.5608619  82.6368952 101.0363499 158.2014509
  81.8393464 101.0031042 159.4877976  86.2013115 106.6413008 151.9225421
  85.8963251 106.9559158 152.7735564  87.1543557 106.7194428 151.9652754
  79.3778275 103.4622898 155.9324986  79.9522027 103.2398080 155.1998179
  79.9649257 103.5311593 156.6853588  79.7047862 105.4927359 149.9520871
  78.8685174 105.8302046 150.2730146  79.5652631 105.3576339 149.0148008
  81.6800942 100.3364147 154.6600056  81.0265355 100.0213164 154.0356670
  81.6381417  99.7139887 155.3859879  82.7912147 110.6183442 146.5753348
  81.8839209 110.3872695 146.7744497  83.2883179 109.8221061 146.7627329
  83.9700381 110.7196037 151.0977338  83.0611600 110.4355070 151.1949808
  83.9995464 111.1395115 150.2380645  88.2464195  98.0370864 156.6910942
  88.5523072  97.1768228 156.4036857  88.9716800  98.6288485 156.4909936
  74.5388551 108.4401551 155.0792540  74.3412951 107.8470912 154.3543607
  73.9835215 108.1353761 155.7968479  83.6676468 112.2604781 148.4365416
  83.2295898 111.5440639 147.9771054  84.4086909 112.4880895 147.8750508
  80.4577635 106.9501717 154.9577512  79.6445500 107.2495888 155.3642704
  80.9536629 106.5557406 155.6751994  77.0334777 107.9665585 152.7633492
  76.1032365 107.9050040 152.9803454  77.1292249 107.4441538 151.9670133
  76.9520326 104.4920398 155.3511734  77.2127143 105.4065731 155.2420894
  77.7737498 104.0244840 155.5008347  87.7887696 111.1189162 148.0297474
  87.1716867 110.3935990 147.9330527  87.3204185 111.8798522 147.6864548
  79.5786242 105.3374586 147.1518778  78.7015708 105.2163387 146.7881025
  80.0543995 104.5460665 146.8997667  71.0988382 110.1251746 157.2460285
  71.7859422 109.8113476 156.6581301  70.9436511 111.0293111 156.9727537
  86.0746818 103.4995506 157.0415504  86.5715518 102.7465469 156.7216574
  85.3033800 103.5359823 156.4758713  82.6581787 105.6412889 156.7687189
  82.2879574 105.0883930 157.4568094  83.1540879 105.0371023 156.2162189
  70.6756358 108.2052340 159.5177753  70.7140458 107.6715930 160.3114871
  70.1696651 107.6787545 158.8988730  74.3064936 106.9316442 152.5931684
  74.6018377 106.0227120 152.5398738  73.4052972 106.9104181 152.2712686
  77.8359183 105.0072438 158.5759233  77.1145769 105.6208406 158.4366706
  78.6252439 105.5430203 158.4975878  76.0352777 104.6130539 152.7171009
  75.7065484 103.7327918 152.5346115  76.3892148 104.5578208 153.6047398
  79.1494601 104.9003509 153.0846487  79.4890673 105.4289430 152.3625095
  79.5966721 105.2383915 153.8605053  81.1362748 103.3978131 151.2839780
  81.8571110 103.7759384 150.7803496  80.5128052 104.1167008 151.3874757
  85.2793871 104.1023280 152.2198112  85.4957485 104.9847918 151.9186940
  84.7987938 103.7109493 151.4903754  81.2826371 102.9325921 154.1137316
  81.4042282 102.0042567 154.3128204  80.9928413 102.9464607 153.2015632
  84.1517561 100.6180832 157.2504036  84.1739258 100.6820165 156.2956016
  84.5685620  99.7785340 157.4444542  80.2556430 114.5180054 152.2053203
  80.4044550 115.2015518 151.5519876  81.0622873 114.4985144 152.7202659
  78.0109063 110.5445232 153.2114272  77.7655105 109.6407562 153.4094482
  78.1804977 110.5462382 152.2693750  77.2804710 106.2773589 150.7100434
  76.5873955 106.3517944 150.0540470  77.0356462 105.5133933 151.2321951
  85.9518367  97.8369190 158.1139924  86.2320121  97.1692380 158.7400351
  86.7368974  98.0298286 157.6014588  84.1398634 108.3488997 147.0181003
  85.0857739 108.2195205 147.0869421  83.7612879 107.6103659 147.4950431
  82.3241551 106.2738974 146.9535888  81.4173006 105.9772086 147.0298602
  82.6017532 105.9768792 146.0870175  73.2419491 107.5945337 157.4034935
  72.9222276 106.7410645 157.1109309  72.6952920 107.8093915 158.1592902
  83.9403617 100.8175863 153.1080130  83.1304345 100.4722948 153.4835376
  84.6288034 100.5083407 153.6967741  85.8694165  99.8953910 154.7304426
  86.4225204 100.3149363 155.3894449  86.1064251  98.9689658 154.7727382
  81.0940336 103.1325909 147.0947868  81.9559500 103.4580807 147.3543685
  81.2790680 102.3457405 146.5820933  89.2472972 102.0054435 154.2383091
  88.6671641 102.6639239 153.8561143  88.9808905 101.1831780 153.8270508
  87.6976538 101.4059493 156.4404411  88.1976317 101.5176027 155.6318730
  88.3412146 101.1020546 157.0805219  88.0297850 104.1654526 153.2939439
  87.1423705 104.4504176 153.0759634  88.4451839 104.0048289 152.4466716
  87.1741064 113.9299200 147.3887459  87.8776914 114.1349203 148.0045114
  86.4503712 114.4975962 147.6536542  88.7373653 110.8713843 150.8042258
  88.6822457 110.7058114 149.8630702  88.1119708 111.5789876 150.9604448
  82.0469779 100.3721952 150.3827577  82.0348448 101.3163792 150.5395847
  82.9393200 100.1892097 150.0887038  85.8621898  96.9664728 154.6373513
  85.0954294  96.4123215 154.7830196  86.2732603  97.0386597 155.4987665
  52.6013100  46.0479705 137.4959283  51.9501080  46.6333785 137.1093297
  53.3957463  46.5785900 137.5554320  46.5268727  43.1368842 137.8946417
  47.2999603  42.5897829 137.7559293  46.8794126  44.0013091 138.1060879
  48.8635005  39.2961508 135.5264867  49.1160526  38.7743029 134.7648330
  47.9259564  39.1327653 135.6291551  54.0788365  43.7370137 138.0328267
  53.4434198  43.8104763 138.7449172  53.7485772  44.3263735 137.3547346
  48.5831294  41.1989614 137.7289242  48.4667552  40.5234517 138.3970326
  48.6933554  40.7121988 136.9121395  50.5668322  35.6889661 136.4297280
  50.7342724  36.5569897 136.7967751  50.3765491  35.8516942 135.5058569
  50.5457543  38.1447318 137.4143947  50.4257168  38.5904369 138.2529427
  49.8510131  38.4932636 136.8557485  48.3064435  50.9150960 141.0634078
  48.2288464  51.8658785 141.1422558  47.7026078  50.5696832 141.7209004
  56.2442609  38.6168791 138.2424281  57.1560465  38.8496178 138.0671978
  55.7352256  39.2005836 137.6799359  58.7301423  44.5349048 142.9882226
  58.0452461  44.9147949 142.4379259  58.8145272  45.1444374 143.7214174
  65.1904175  41.4019711 144.1084898  64.4367884  40.8327109 143.9528903
  65.3251717  41.3682375 145.0555533  50.5802804  46.2733113 139.7839618
  50.4448478  47.1184649 140.2124465  51.1212616  46.4752391 139.0205551
  53.8945550  39.7872286 136.8210946  53.3792173  40.5576891 137.0599334
  53.6222858  39.1137422 137.4444008  58.8679824  42.5404641 138.7564120
  58.0909267  42.2015800 138.3119282  59.5471305  42.5457264 138.0819085
  53.6831853  37.6599378 138.6470727  53.3781989  37.9745527 139.4980871
  54.6362295  37.7380798 138.6898060  52.1278285  43.8189601 140.2963681
  51.5999646  43.0842361 139.9836919  51.6265788  44.5964278 140.0503650
  50.2730885  41.6369812 133.2998654  49.3657947  41.4059065 133.4989803
  50.7701917  40.8407431 133.4872636  53.1798964  50.3467319 136.2195341
  52.5060663  50.6499016 136.8280298  53.5664786  51.1496399 135.8700798
  51.4519118  41.7382406 137.8222644  50.5430338  41.4541439 137.9195114
  51.4814202  42.1581485 136.9625951  56.6838386  45.3488996 141.5913812
  56.2300713  44.5079906 141.6479002  56.0532353  45.9850394 141.9288592
  55.1271325  47.1865493 142.5263630  55.4194299  47.7470550 141.8075996
  55.6369946  47.4794054 143.2816789  51.1495206  43.2791150 135.1610723
  50.7114636  42.5627009 134.7016360  51.8905647  43.5067265 134.5995814
  50.0904950  47.9645844 143.6157083  50.0481129  48.1906690 142.6865615
  51.0067649  47.7309218 143.7642885  59.2668321  41.5548347 141.2187042
  59.1286220  41.7449943 140.2908231  58.9104540  42.3167730 141.6755093
  51.3790179  50.5146991 138.4342420  51.5541935  50.0435034 139.2488042
  50.6922967  51.1412757 138.6623680  55.2706434  42.1375532 134.7542781
  54.6535605  41.4122360 134.6575833  54.8022922  42.8984892 134.4109855
  45.9451264  53.6636354 145.2082280  46.1847863  54.2954878 145.8861298
  45.1020461  53.3124394 145.4947639  47.0604980  36.3560956 133.8764085
  46.1834446  36.2349757 133.5126332  47.5362733  35.5647034 133.6242974
  50.2468906  48.7087246 141.1226605  49.4636428  49.2508927 141.2164830
  50.9461651  49.2261226 141.5220847  54.6395337  43.2753563 141.3399234
  53.7051615  43.3955026 141.1703939  54.8172005  42.3726030 141.0759244
  58.0267888  39.1170882 141.8749268  58.4928340  39.9498874 141.8009571
  58.4775388  38.6515864 142.5794527  56.0944119  45.4614704 138.8735420
  56.3703963  45.3471298 139.7829294  55.2248618  45.0632189 138.8347593
  52.7298183  49.7101055 142.5168234  52.9120578  48.8922710 142.9795986
  53.5531169  49.9268747 142.0793124  53.0640349  48.6369240 139.7783282
  53.5928115  48.1261694 139.1653445  53.3268568  48.3211770 140.6428815
  46.4196097  49.6884356 142.5381058  45.7506472  50.1730484 142.0545098
  46.2808966  49.9353577 143.4524437  53.6969752  49.6710075 146.1227399
  53.5720892  48.8699815 145.6138344  54.3548844  50.1656269 145.6341369
  52.7651094  47.2671812 143.9511301  52.6176057  46.3388519 144.1318871
  53.5904588  47.2891902 143.4668376  56.3685216  48.0900370 145.0376174
  57.2931763  47.8843232 144.9000625  56.2000519  47.8416772 145.9465515
  56.1580532  48.6086038 140.3938265  56.3317410  48.0432460 139.6412118
  56.6509423  49.4086933 140.2117755  62.0119923  41.3722461 142.0128565
  62.4551069  40.6229786 141.6147688  61.1346434  41.3632597 141.6302297
  57.1455705  47.9252802 137.4935164  57.8406609  48.5459495 137.7122478
  57.4878855  47.0748153 137.7687542  59.0447128  45.3752508 139.0222494
  59.5698452  45.7139781 138.2971815  58.9569480  44.4399523 138.8385629
  50.7287788  51.4424491 143.3817748  50.2892779  50.9500870 144.0750604
  51.4795905  50.8997459 143.1409823  47.7375168  45.5366423 138.9298510
  47.8863288  46.2201888 138.2765183  48.5441611  45.5171514 139.4447966
  61.5552788  42.8427699 144.4051013  62.3899679  43.2817503 144.5688573
  61.6911917  42.3666352 143.5859259  51.2370573  48.0314554 136.4010257
  50.6644540  48.6504741 135.9480729  51.8103367  48.5813916 136.9350179
  54.4567833  48.3151704 137.5318840  55.3898506  48.2497266 137.7351715
  54.3691046  49.1507971 137.0733372  57.0855850  47.6317574 134.4922787
  57.0069481  47.2977438 135.3858545  57.9065516  48.1239342 134.4914259
  51.6217372  39.3675367 133.7426310  52.5676476  39.2381575 133.8114728
  51.2431617  38.6290029 134.2195738  49.8060289  37.2925343 133.6781195
  48.8991744  36.9958456 133.7543909  50.0836270  36.9955161 132.8115481
  48.5759073  34.1512278 133.8193174  49.4378237  34.4767177 134.0788992
  48.7609418  33.3643774 133.3066240  54.6559801  44.9485570 134.1132765
  55.3595651  45.1535572 134.7290421  53.9322450  45.5162332 134.3781849
  55.4857612  40.6995431 140.2335036  55.4292813  41.1563982 139.3942668
  56.0385954  39.9386116 140.0557878  63.6074755  39.2281236 143.5656447
  63.0474313  39.2974426 144.3388009  63.0018259  39.0522221 142.8455943
  56.5646499  45.3868099 136.1631226  57.3992103  44.9549297 135.9808700
  56.4030842  45.2150113 137.0908120  56.2192391  41.8900212 137.5287565
  56.1641195  41.7244484 136.5876009  55.5938446  42.5976245 137.6849755
  49.4578080  50.0677212 145.1940640  48.5073711  50.0679073 145.0805012
  49.7610566  49.3209946 144.6776674  65.1930774  55.9037750 146.2586402
  65.8309184  55.7844497 145.5549742  65.0751617  56.8518594 146.3174354
  62.0020480  55.8565178 146.1947927  61.6638992  55.7406243 145.3068462
  62.8710248  55.4556343 146.1748933  57.8607296  57.7100655 142.1844818
  57.2972161  57.6190592 141.4161106  57.7459691  56.8900559 142.6647310
  62.4840263  57.0100030 152.1534132  62.4728904  56.6152828 151.2814636
  62.6460903  56.2766103 152.7467904  55.4071728  59.2051846 145.0229038
  56.1993020  58.8642671 144.6075338  55.6468378  59.3146821 145.9431192
  63.4406855  61.3771622 137.4959283  62.7894834  61.9625703 137.1093297
  64.2351217  61.9077817 137.5554320  57.3662482  58.4660759 137.8946417
  58.1393358  57.9189747 137.7559293  57.7187881  59.3305009 138.1060879
  59.2047524  59.7937142 151.1013316  58.9137390  60.6982773 150.9859983
  59.8404509  59.8353669 151.8157386  60.1303731  57.1713990 147.6914676
  60.7267303  56.9470013 146.9771639  60.1878703  56.4298736 148.2940124
  59.7028759  54.6253426 135.5264867  59.9554280  54.1034947 134.7648330
  58.7653319  54.4619571 135.6291551  64.7472042  53.6289204 143.3339610
  65.5335132  53.2108627 142.9830027  65.0110747  54.5335296 143.5021259
  64.9182120  59.0662054 138.0328267  64.2827953  59.1396681 138.7449172
  64.5879526  59.6555653 137.3547346  70.1480469  53.5664437 144.2372589
  70.8805641  52.9963654 144.4710418  69.3919825  53.1786038 144.6779094
  59.4225048  56.5281532 137.7289242  59.3061306  55.8526435 138.3970326
  59.5327308  56.0413905 136.9121395  61.7656589  55.9891679 141.4335931
  61.4014796  55.4622300 142.1448853  62.6223705  55.5990148 141.2602417
  67.6705890  47.2786011 148.6967197  67.3389215  48.1481422 148.4728412
  67.0751503  46.9622295 149.3761228  61.4062076  51.0181578 136.4297280
  61.5736478  51.8861815 136.7967751  61.2159245  51.1808860 135.5058569
  64.1637409  59.4798557 148.0963110  63.8638132  60.3823596 147.9878917
  63.8188469  59.2130740 148.9484263  57.6149891  55.9312354 144.1299815
  56.6900387  55.7988568 144.3377506  57.8634304  56.7106573 144.6269757
  67.5634553  51.9981097 145.7760547  66.6551430  51.9296506 145.4819308
  67.5122149  52.4753042 146.6042373  61.3851297  53.4739236 137.4143947
  61.2650922  53.9196287 138.2529427  60.6903885  53.8224554 136.8557485
  54.9758702  55.5745628 144.9643604  55.1051083  55.8280107 145.8783015
  54.2956153  56.1673336 144.6448259  59.1458189  66.2442878 141.0634078
  59.0682219  67.1950703 141.1422558  58.5419833  65.8988750 141.7209004
  69.4296199  50.1997536 147.5538421  68.7870580  50.4930069 146.9078216
  68.9251128  50.0850456 148.3591618  67.0836363  53.9460709 138.2424281
  67.9954219  54.1788096 138.0671978  66.5746010  54.5297753 137.6799359
  59.8921791  56.2256196 153.2813412  60.6336476  56.7641240 153.0048235
  59.1858777  56.8522485 153.4384964  65.3677131  58.3685337 151.8785573
  65.7760487  57.9267747 151.1340206  64.6454392  57.7937964 152.1319766
  61.7208201  53.3057944 149.2519130  62.5669396  53.7297357 149.3953779
  61.6606839  52.6491568 149.9457693  65.6905945  58.9286527 145.6337862
  65.0614808  59.0932242 144.9313930  65.3031608  59.3428137 146.4048826
  69.5695177  59.8640965 142.9882226  68.8846216  60.2439867 142.4379259
  69.6539027  60.4736292 143.7214174  64.8707646  50.9662312 150.9100304
  64.6268578  51.7204373 150.3734580  65.1467577  51.3447660 151.7447551
  66.8246109  57.5100924 149.5877569  67.0363004  58.1532684 148.9111950
  66.7775857  56.6763241 149.1199499  64.4272338  50.1218745 146.4914142
  63.5656817  50.4199999 146.7830879  64.4534773  50.3389144 145.5595174
  61.2433907  58.6660936 142.8987947  61.7072253  58.9448639 142.1092570
  60.9790705  57.7644380 142.7161038  58.1357988  58.2132417 145.8367710
  58.7059345  58.6419685 145.1985195  58.7266100  57.9315002 146.5351896
  60.1802793  54.7884088 139.7077512  60.8826837  55.2405132 140.1751439
  59.8483422  54.1467907 140.3357405  53.9228127  53.0467641 145.0094646
  53.1327181  53.3025169 144.5334757  54.4139375  53.8615978 145.1146686
  67.9391937  60.3872880 147.7599927  68.7609381  59.9853067 147.4782608
  67.9354340  60.2841114 148.7116043  55.8742873  53.4112220 141.9678123
  55.0774036  53.5230914 142.4861618  55.6468465  53.7498872 141.1019013
  61.7048540  59.9356923 149.9160637  61.7692973  60.3977330 150.7518809
  60.9959464  59.3054288 150.0442947  52.2065830  53.2998131 147.4409637
  52.4573869  54.1845141 147.7067213  52.7425379  53.1202733 146.6684729
  76.0297930  56.7311628 144.1084898  75.2761638  56.1619026 143.9528903
  76.1645471  56.6974293 145.0555533  61.4196558  61.6025031 139.7839618
  61.2842233  62.4476566 140.2124465  61.9606371  61.8044308 139.0205551
  54.8725955  59.1200469 140.3567543  55.3850476  59.9143719 140.5073107
  55.5248668  58.4226759 140.2901144  56.6820840  62.2366225 142.4390296
  56.8587468  63.1584190 142.2511280  57.4777674  61.9224644 142.8684676
  63.0465034  62.2248597 153.9139960  62.6028889  61.4384976 153.5960864
  63.7082248  62.4127748 153.2483850  57.8052156  63.7544399 148.4400638
  58.3559581  63.6261462 147.6677632  56.9663631  64.0539288 148.0895531
  65.1446272  62.5051397 151.9421361  65.1264748  63.3260278 151.4501630
  66.0666193  62.3805472 152.1671502  61.6019327  60.0195526 152.7844869
  62.1347663  59.2583815 152.5544177  61.0733408  59.7269178 153.5269024
  64.7689022  45.1255592 148.3138511  64.4253291  46.0157234 148.2377622
  65.1367984  44.9357250 147.4508096  52.8374872  57.4489123 141.1327113
  53.6750094  57.8586131 140.9160821  53.0153140  56.5088565 141.1027307
  64.7339304  55.1164204 136.8210946  64.2185928  55.8868808 137.0599334
  64.4616613  54.4429340 137.4444008  62.3186415  49.9613904 141.8796185
  61.4628012  49.5720755 141.7001823  62.7313367  50.0405865 141.0195970
  63.8485562  47.4960248 146.2787744  63.3450358  47.4590383 145.4655550
  64.1416169  48.4052990 146.3384401  60.0928448  47.5798977 145.2853926
  60.9581445  47.3841786 144.9259815  60.1605957  47.3509329 146.2123283
  69.7073578  57.8696558 138.7564120  68.9303021  57.5307718 138.3119282
  70.3865059  57.8749181 138.0819085  64.5225607  52.9891296 138.6470727
  64.2175743  53.3037445 139.4980871  65.4756050  53.0672716 138.6898060
  62.9672039  59.1481519 140.2963681  62.4393401  58.4134279 139.9836919
  62.4659542  59.9256195 140.0503650  67.9464885  57.3430539 145.4130728
  67.2888560  58.0329801 145.5010856  68.7505285  57.7326971 145.7564714
  57.6990767  49.8101185 142.6570293  58.2734519  49.5876367 141.9243486
  58.2861749  49.8789880 143.4098894  66.7570344  55.6974912 143.4634669
  67.2702226  56.3304904 143.9656379  67.4071568  55.0976108 143.0978029
  58.0260354  51.8405646 136.6766178  57.1897666  52.1780333 136.9975453
  57.8865124  51.7054626 135.7393315  60.0013435  46.6842434 141.3845362
  59.3477847  46.3691451 140.7601977  59.9593909  46.0618175 142.1105185
  61.1124639  56.9661729 133.2998654  60.2051701  56.7350983 133.4989803
  61.6095671  56.1699348 133.4872636  64.0192718  65.6759236 136.2195341
  63.3454417  65.9790933 136.8280298  64.4058540  66.4788317 135.8700798
  63.2351175  53.1724368 145.7093010  62.3173736  53.3939315 145.5514698
  63.6511319  53.2470678 144.8504717  64.0186223  54.5715783 140.8395690
  64.7658042  55.0837181 140.5302812  64.2877812  54.2499836 141.7000084
  62.2912873  57.0674324 137.8222644  61.3824092  56.7833357 137.9195114
  62.3207957  57.4873403 136.9625951  67.5232140  60.6780914 141.5913812
  67.0694467  59.8371823 141.6479002  66.8926107  61.3142312 141.9288592
  66.4665060  51.6072900 142.8214479  65.7287817  51.0950286 143.1524722
  66.7191833  51.1673281 142.0097756  65.9665080  62.5157410 142.5263630
  66.2588054  63.0762467 141.8075996  66.4763700  62.8085971 143.2816789
  66.5676687  44.3849152 143.4156249  66.8735564  43.5246515 143.1282164
  67.2929292  44.9766772 143.2155243  52.8601043  54.7879838 141.8037847
  52.6625443  54.1949199 141.0788913  52.3047707  54.4832048 142.5213785
  60.8397767  54.6802945 143.9232440  60.8946377  53.7276781 143.8474916
  60.0288969  54.8362384 144.4073738  61.9888961  58.6083068 135.1610723
  61.5508391  57.8918927 134.7016360  62.7299402  58.8359183 134.5995814
  58.7790127  53.2980004 141.6822819  57.9657992  53.5974175 142.0888011
  59.2749121  52.9035693 142.3997301  60.9298705  63.2937761 143.6157083
  60.8874884  63.5198608 142.6865615  61.8461404  63.0601136 143.7642885
  64.3764339  53.7621829 150.5137713  64.7313726  53.9893302 151.3732178
  65.0236470  54.0940206 149.8914968  70.1062076  56.8840265 141.2187042
  69.9679974  57.0741861 140.2908231  69.7498294  57.6459648 141.6755093
  58.2704202  50.8698360 147.2984054  58.9103581  50.7287119 146.6007017
  57.4381732  50.5832873 146.9222656  70.1331455  58.9516792 146.2298313
  70.5667962  58.8592081 147.0781367  70.8463036  58.9274292 145.5918329
  59.0464506  60.1700790 143.4119046  59.8405104  59.6751111 143.2101621
  58.3356198  59.6418654 143.0486752  63.8659350  62.5518886 147.7631414
  63.9196372  63.1209822 148.5309130  62.9974131  62.7220771 147.3985451
  55.3547269  54.3143872 139.4878799  54.4244857  54.2528328 139.7048761
  55.4504741  53.7919825 138.6915440  55.2732818  50.8398685 142.0757040
  55.5339635  51.7544018 141.9666201  56.0949990  50.3723128 142.2253653
  56.7457743  52.2536442 149.2455865  57.4180797  52.0453804 148.5968514
  55.9187530  52.0558528 148.8061097  70.9947005  58.9940492 148.7631198
  71.1882895  59.8986303 149.0090473  70.8947623  58.5347912 149.5969784
  66.0562113  59.1447235 154.3372079  65.9047620  58.9157787 153.4202163
  66.0466793  60.1017837 154.3503424  62.8247450  56.7179148 149.3218346
  63.7539510  56.8690308 149.1487313  62.4038480  56.8063169 148.4666992
  61.6235782  60.7429812 147.0916883  61.4846867  60.3748597 147.9642821
  60.8350378  61.2577452 146.9200841  62.2183934  65.8438909 138.4342420
  62.3935689  65.3726952 139.2488042  61.5316722  66.4704675 138.6623680
  63.1740997  60.1211415 144.4805721  62.8390829  60.0812185 145.3763371
  62.6744942  59.4556131 144.0076131  57.1485241  55.5279045 150.0058302
  57.0105039  54.7959284 150.6069841  58.0590164  55.4387945 149.7242490
  66.1100188  57.4667449 134.7542781  65.4929359  56.7414278 134.6575833
  65.6416677  58.2276810 134.4109855  59.7767541  55.2399004 149.4941982
  60.4867160  54.5992197 149.4528600  59.7336849  55.4911899 150.4168163
  67.7654320  62.1766358 152.4148561  67.7066866  61.4925578 151.7479144
  68.1673838  62.9185348 151.9629187  56.7845019  68.9928272 145.2082280
  57.0241617  69.6246796 145.8861298  55.9414215  68.6416312 145.4947639
  57.8998734  51.6852874 133.8764085  57.0228201  51.5641675 133.5126332
  58.3756487  50.8938952 133.6242974  67.7671727  60.1405942 150.6462541
  66.8798506  59.8031863 150.7688940  68.3370278  59.4088973 150.8831306
  49.4200874  56.4730033 143.9705592  50.1071914  56.1591763 143.3826607
  49.2649003  57.3771398 143.6972843  61.2972881  64.8007394 147.6123784
  61.2243052  65.6062366 148.1243088  60.8550274  64.9999360 146.7871805
  61.0862660  64.0379164 141.1226605  60.3030182  64.5800844 141.2164830
  61.7855405  64.5553144 141.5220847  64.3959310  49.8473794 143.7660811
  64.8928010  49.0943756 143.4461881  63.6246292  49.8838110 143.2004020
  72.2489068  55.5514159 145.4079102  72.2378944  56.4338875 145.0373035
  71.3806447  55.1985710 145.2133639  63.7571564  64.6994228 149.7681943
  64.4699536  65.3341693 149.6957844  63.2661593  64.7958094 148.9521944
  65.4789091  58.6045481 141.3399234  64.5445370  58.7246943 141.1703939
  65.6565760  57.7017948 141.0759244  60.9794279  51.9891177 143.4932495
  60.6092067  51.4362217 144.1813401  61.4753372  51.3849310 142.9407495
  68.8661642  54.4462800 141.8749268  69.3322095  55.2790792 141.8009571
  69.3169143  53.9807782 142.5794527  58.8083478  62.4488672 150.5887513
  59.5092937  63.0825155 150.7416908  58.3378593  62.7903403 149.8283153
  66.9337874  60.7906621 138.8735420  67.2097717  60.6763216 139.7829294
  66.0642372  60.3924106 138.8347593  66.8378305  46.8143387 145.9140170
  65.9241385  47.0447614 146.0822377  67.2671407  46.8981831 146.7654202
  66.6084764  55.0033279 148.4140064  65.9556214  55.2509186 147.7592516
  66.9865144  54.1897417 148.0802541  63.5691938  65.0392972 142.5168234
  63.7514332  64.2214628 142.9795986  64.3924924  65.2560664 142.0793124
  63.9034103  63.9661157 139.7783282  64.4321870  63.4553612 139.1653445
  64.1662323  63.6503688 140.6428815  54.4051196  61.9825027 147.5218616
  54.9904633  61.2368715 147.6546520  54.2076034  62.2928983 148.4055280
  57.2589851  65.0176274 142.5381058  56.5900226  65.5022402 142.0545098
  57.1202721  65.2645494 143.4524437  48.9968851  54.5530627 146.2423059
  49.0352950  54.0194218 147.0360177  48.4909143  54.0265832 145.6234036
  61.3995120  67.0520018 149.1363717  61.9513428  67.2151639 149.9012802
  61.7401313  67.6424455 148.4643742  66.2505994  61.8781275 154.9912371
  66.7945898  62.4911233 154.4967326  65.6692839  62.4360853 155.5079384
  52.6277428  53.2794729 139.3176991  52.9230869  52.3705407 139.2644044
  51.7265464  53.2582468 138.9957993  64.5363507  65.0001993 146.1227399
  64.4114646  64.1991733 145.6138344  65.1942598  65.4948186 145.6341369
  56.1571675  51.3550726 145.3004539  55.4358261  51.9686693 145.1612012
  56.9464931  51.8908490 145.2221185  66.5998415  62.8011013 147.7506949
  65.6528751  62.6816364 147.6785276  66.9481188  61.9133511 147.8333210
  54.3565270  50.9608827 139.4416316  54.0277976  50.0806206 139.2591422
  54.7104640  50.9056495 140.3292705  63.6044849  62.5963729 143.9511301
  63.4569811  61.6680437 144.1318871  64.4298342  62.6183820 143.4668376
  57.4707093  51.2481796 139.8091793  57.8103165  51.7767718 139.0870402
  57.9179213  51.5862203 140.5850360  67.2078970  63.4192288 145.0376174
  68.1325518  63.2135149 144.9000625  67.0394274  63.1708689 145.9465515
  60.8167005  46.7168160 147.7122184  61.6393075  46.2428638 147.5901075
  61.0605069  47.4958643 148.2120871  59.4575240  49.7456418 138.0085086
  60.1783602  50.1237671 137.5048803  58.8340544  50.4645295 138.1120064
  63.6006363  50.4501567 138.9443418  63.8169977  51.3326205 138.6432247
  63.1200430  50.0587780 138.2149060  58.3405584  53.4087280 145.5214163
  58.1950165  53.7227583 146.4138445  57.8630788  54.0272181 144.9685062
  60.2001967  50.3989828 145.5695053  60.1863536  49.5030922 145.2327351
  60.9174395  50.4060492 146.2033339  62.0528098  50.8327168 147.6148180
  61.7945876  51.7544239 147.6132510  61.5213138  50.4357603 148.3048644
  66.9974287  63.9377956 140.3938265  67.1711164  63.3724378 139.6412118
  67.4903178  64.7378850 140.2117755  52.8151246  55.9492625 148.4601824
  52.2704714  56.7252433 148.5922099  53.6930596  56.2963429 148.3020946
  59.6038863  49.2804208 140.8382623  59.7254774  48.3520855 141.0373510
  59.3140905  49.2942894 139.9260938  62.4730053  46.9659119 143.9749343
  62.4951750  47.0298452 143.0201322  62.8898112  46.1263628 144.1689849
  72.8513678  56.7014378 142.0128565  73.2944824  55.9521704 141.6147688
  71.9740188  56.6924515 141.6302297  67.9849459  63.2544720 137.4935164
  68.6800364  63.8751413 137.7122478  68.3272609  62.4040071 137.7687542
  69.8840882  60.7044425 139.0222494  70.4092206  61.0431698 138.2971815
  69.7963235  59.7691441 138.8385629  61.5460931  64.6178499 151.1512371
  61.8548057  64.3727646 152.0235071  62.3436413  64.8225138 150.6631241
  61.5681543  66.7716409 143.3817748  61.1286533  66.2792787 144.0750604
  62.3189660  66.2289376 143.1409823  54.0473882  62.9627950 143.3842376
  54.8731902  62.6631721 143.0041019  53.6967934  62.1935572 143.8332164
  59.0155415  62.3154418 145.4540049  58.3935424  61.6525123 145.1542277
  59.6860282  62.3415550 144.7713697  52.2482487  60.8814276 144.3431309
  51.4114395  60.4536450 144.1615311  52.2206132  61.0746719 145.2802101
  69.5734788  61.3377329 154.3273692  68.7830332  61.3201468 153.7878192
  69.3368143  61.8765623 155.0822729  69.6932663  58.1869795 151.6406421
  69.7430668  58.0219803 152.5821944  69.5846587  57.3197054 151.2504302
  58.5768922  60.8658341 138.9298510  58.7257042  61.5493806 138.2765183
  59.3835365  60.8463431 139.4447966  66.9836426  54.1700723 152.9565728
  67.8846288  54.0307188 152.6649725  67.0584400  54.3355178 153.8963905
  71.1950860  60.6066737 151.8848443  70.9035668  60.9696718 152.7211903
  70.5822991  59.8933745 151.7061775  72.3946542  58.1719617 144.4051013
  73.2293434  58.6109421 144.5688573  72.5305671  57.6958270 143.5859259
  69.4438048  55.7299352 150.3528501  69.9192170  55.9226998 149.5447352
  68.5203614  55.7858537 150.1071884  56.3321555  56.8923519 139.9359579
  56.0867597  55.9885849 140.1339789  56.5017470  56.8940669 138.9939057
  64.0218265  47.7647195 149.3184334  64.5400209  48.5008222 148.9930823
  63.6673398  48.0711188 150.1531094  55.6017203  52.6251876 137.4345740
  54.9086447  52.6996231 136.7785776  55.3568954  51.8612220 137.9567257
  64.2730859  44.1847478 144.8385231  64.5532613  43.5170667 145.4645658
  65.0581466  44.3776573 144.3259895  62.0764328  63.3606472 136.4010257
  61.5038295  63.9796659 135.9480729  62.6497121  63.9105833 136.9350179
  68.1439717  52.6065112 148.5856806  69.0957140  52.7063209 148.6069030
  67.9743168  51.8143380 149.0954890  66.1654097  49.6920695 148.7716207
  65.5704029  49.9725708 148.0762696  65.8803794  50.1814596 149.5432948
  65.2961587  63.6443622 137.5318840  66.2292260  63.5789183 137.7351715
  65.2084800  64.4799889 137.0733372  67.9249604  62.9609492 134.4922787
  67.8463236  62.6269356 135.3858545  68.7459271  63.4531260 134.4914259
  70.6227795  55.8271231 147.6999106  70.5904115  54.8887232 147.8858790
  71.2328419  55.9055268 146.9664931  62.4611126  54.6967284 133.7426310
  63.4070231  54.5673492 133.8114728  62.0825371  53.9581946 134.2195738
  70.7722284  52.6182275 147.7457389  70.2561332  51.8340731 147.5587318
  71.6562232  52.2900991 147.9103908  68.4333011  46.3623290 143.7053202
  68.2357832  46.0538379 144.5896534  69.0432716  47.0884929 143.8351131
  76.4404345  56.8887238 146.8405143  77.1707734  56.6272526 147.4012846
  75.8311291  56.1515960 146.8807211  74.5219642  55.0295101 147.4379594
  73.7952806  54.8951066 146.8296085  74.1066929  55.3371929 148.2436312
  62.3449819  58.7485030 155.2026967  63.2652828  58.9263629 155.3967013
  62.3099402  57.8041076 155.0506666  60.6454043  52.6217261 133.6781195
  59.7385499  52.3250373 133.7543909  60.9230024  52.3247079 132.8115481
  51.5631984  53.9423624 144.1280241  51.2434768  53.0888932 143.8354615
  51.0165412  54.1572202 144.8838209  55.3411891  56.6586065 147.8449748
  55.5597901  57.5903173 147.8637782  55.7537665  56.2994040 148.6304552
  62.2616109  47.1654150 139.8325436  61.4516837  46.8201235 140.2080682
  62.9500526  46.8561694 140.4213048  64.1906657  46.2432197 141.4549733
  64.7437696  46.6627651 142.1139756  64.4276744  45.3167945 141.4972689
  59.4152828  49.4804196 133.8193174  60.2771992  49.8059094 134.0788992
  59.6003172  48.6935692 133.3066240  51.4320244  57.5626536 146.0973363
  50.7383715  57.1480488 145.5843317  52.1793235  57.6047072 145.5006782
  67.5685464  48.3532722 140.9628397  66.9884133  49.0117526 140.5806450
  67.3021397  47.5310067 140.5515815  66.0189031  47.7537780 143.1649718
  66.5188809  47.8654315 142.3564036  66.6624639  47.4498833 143.8050526
  53.3456986  57.4944789 143.9739378  53.3227674  57.5932477 143.0221261
  53.6557623  58.3409940 144.2956544  56.0044364  59.5520944 148.0885992
  56.9587618  59.5204887 148.0215924  55.8056888  59.0911568 148.9036218
  56.5943746  58.1222061 150.6556790  57.4136635  58.6166139 150.6791627
  56.8680554  57.2054029 150.6274357  66.3510342  50.5132813 140.0184745
  65.4636197  50.7982463 139.8004940  66.7664331  50.3526576 139.1712022
  69.7024878  50.5379334 143.7339085  70.4785269  51.0275786 144.0063702
  68.9773013  50.9637388 144.1910954  72.1397437  51.2506953 144.7913025
  72.7341928  51.0102689 144.0806334  72.2124021  50.5314084 145.4186562
  54.3594593  65.0940564 145.1056190  54.2249061  64.3340965 144.5394188
  53.9426655  65.8181464 144.6384979  65.4953556  60.2777487 134.1132765
  66.1989406  60.4827490 134.7290421  64.7716205  60.8454249 134.3781849
  66.3251366  56.0287349 140.2335036  66.2686567  56.4855900 139.3942668
  66.8779709  55.2678033 140.0557878  70.1356172  51.8177081 141.0585155
  69.8793106  51.4173716 141.8893363  69.5109040  52.5320875 140.9335294
  74.4468510  54.5573154 143.5656447  73.8868068  54.6266343 144.3388009
  73.8412013  54.3814138 142.8455943  57.5163719  65.9909881 145.3174633
  57.3996103  66.9355313 145.2153323  56.6956165  65.6883443 145.7060432
  67.4040253  60.7160017 136.1631226  68.2385857  60.2841215 135.9808700
  67.2424596  60.5442030 137.0908120  67.0586145  57.2192130 137.5287565
  67.0034949  57.0536401 136.5876009  66.4332201  57.9268163 137.6849755
  64.3732053  59.5241042 156.8541128  65.2423212  59.6981694 156.4927763
  63.8938804  60.3435459 156.7316857  60.3682271  46.7200239 137.1072883
  60.3560941  47.6642079 137.2641154  61.2605693  46.5370384 136.8132344
  58.5418233  66.6438143 148.5330561  59.4445479  66.6761753 148.8497056
  58.3155603  65.7138594 148.5476897  60.2971835  65.3969129 145.1940640
  59.3467466  65.3970991 145.0805012  60.6004321  64.6501864 144.6776674
  64.1834390  43.3143016 141.3618820  63.4166786  42.7601502 141.5075502
  64.5945095  43.3864884 142.2232972  76.0324528  71.2329668 146.2586402
  76.6702938  71.1136415 145.5549742  75.9145371  72.1810512 146.3174354
  72.8414235  71.1857096 146.1947927  72.5032746  71.0698161 145.3068462
  73.7104003  70.7848261 146.1748933  68.7001050  73.0392572 142.1844818
  68.1365915  72.9482509 141.4161106  68.5853445  72.2192477 142.6647310
  73.3234018  72.3391948 152.1534132  73.3122658  71.9444746 151.2814636
  73.4854657  71.6058020 152.7467904  66.2465482  74.5343764 145.0229038
  67.0386774  74.1934589 144.6075338  66.4862132  74.6438739 145.9431192
  74.2800609  76.7063540 137.4959283  73.6288589  77.2917620 137.1093297
  75.0744972  77.2369735 137.5554320  68.2056236  73.7952677 137.8946417
  68.9787112  73.2481664 137.7559293  68.5581635  74.6596926 138.1060879
  70.0441279  75.1229059 151.1013316  69.7531145  76.0274690 150.9859983
  70.6798263  75.1645587 151.8157386  70.9697486  72.5005908 147.6914676
  71.5661058  72.2761930 146.9771639  71.0272457  71.7590653 148.2940124
  70.5422514  69.9545343 135.5264867  70.7948035  69.4326865 134.7648330
  69.6047073  69.7911489 135.6291551  75.5865797  68.9581122 143.3339610
  76.3728886  68.5400545 142.9830027  75.8504501  69.8627214 143.5021259
  75.7575874  74.3953972 138.0328267  75.1221707  74.4688598 138.7449172
  75.4273281  74.9847571 137.3547346  80.9874224  68.8956355 144.2372589
  81.7199396  68.3255572 144.4710418  80.2313580  68.5077955 144.6779094
  70.2618803  71.8573449 137.7289242  70.1455061  71.1818353 138.3970326
  70.3721063  71.3705823 136.9121395  72.6050344  71.3183596 141.4335931
  72.2408551  70.7914217 142.1448853  73.4617460  70.9282065 141.2602417
  78.5099644  62.6077929 148.6967197  78.1782969  63.4773340 148.4728412
  77.9145258  62.2914213 149.3761228  72.2455831  66.3473496 136.4297280
  72.4130233  67.2153732 136.7967751  72.0553000  66.5100778 135.5058569
  75.0031164  74.8090475 148.0963110  74.7031887  75.7115514 147.9878917
  74.6582223  74.5422658 148.9484263  68.4543645  71.2604272 144.1299815
  67.5294142  71.1280486 144.3377506  68.7028058  72.0398491 144.6269757
  78.4028308  67.3273015 145.7760547  77.4945185  67.2588424 145.4819308
  78.3515903  67.8044960 146.6042373  72.2245051  68.8031154 137.4143947
  72.1044677  69.2488204 138.2529427  71.5297640  69.1516471 136.8557485
  65.8152456  70.9037545 144.9643604  65.9444837  71.1572024 145.8783015
  65.1349908  71.4965253 144.6448259  69.9851944  81.5734795 141.0634078
  69.9075973  82.5242620 141.1422558  69.3813587  81.2280668 141.7209004
  72.4769173  68.7462661 153.7195445  71.7002507  69.3056581 153.7098309
  73.1159736  69.2319444 154.2410315  80.2689954  65.5289454 147.5538421
  79.6264334  65.8221987 146.9078216  79.7644883  65.4142374 148.3591618
  77.9230118  69.2752627 138.2424281  78.8347974  69.5080013 138.0671978
  77.4139765  69.8589671 137.6799359  70.7315546  71.5548114 153.2813412
  71.4730230  72.0933158 153.0048235  70.0252531  72.1814403 153.4384964
  76.2070885  73.6977255 151.8785573  76.6154241  73.2559665 151.1340206
  75.4848147  73.1229882 152.1319766  72.5601955  68.6349861 149.2519130
  73.4063151  69.0589275 149.3953779  72.5000593  67.9783486 149.9457693
  76.5299700  74.2578445 145.6337862  75.9008562  74.4224159 144.9313930
  76.1425362  74.6720055 146.4048826  80.4088932  75.1932883 142.9882226
  79.7239970  75.5731784 142.4379259  80.4932781  75.8028210 143.7214174
  75.7101401  66.2954230 150.9100304  75.4662333  67.0496290 150.3734580
  75.9861331  66.6739577 151.7447551  77.6639863  72.8392842 149.5877569
  77.8756759  73.4824602 148.9111950  77.6169612  72.0055159 149.1199499
  75.2666092  65.4510663 146.4914142  74.4050571  65.7491916 146.7830879
  75.2928527  65.6681062 145.5595174  72.0827662  73.9952853 142.8987947
  72.5466007  74.2740556 142.1092570  71.8184460  73.0936298 142.7161038
  68.9751743  73.5424335 145.8367710  69.5453100  73.9711603 145.1985195
  69.5659855  73.2606919 146.5351896  71.0196548  70.1176006 139.7077512
  71.7220591  70.5697049 140.1751439  70.6877176  69.4759824 140.3357405
  69.4676909  68.7087762 154.0828722  68.8375570  69.3904043 154.3164119
  69.3612997  68.5970844 153.1381860  64.7621882  68.3759558 145.0094646
  63.9720936  68.6317087 144.5334757  65.2533129  69.1907896 145.1146686
  78.7785691  75.7164797 147.7599927  79.6003135  75.3144985 147.4782608
  78.7748094  75.6133032 148.7116043  66.7136627  68.7404138 141.9678123
  65.9167791  68.8522832 142.4861618  66.4862219  69.0790790 141.1019013
  72.5442295  75.2648841 149.9160637  72.6086727  75.7269248 150.7518809
  71.8353219  74.6346206 150.0442947  63.0459585  68.6290049 147.4409637
  63.2967623  69.5137059 147.7067213  63.5819133  68.4494650 146.6684729
  86.8691684  72.0603546 144.1084898  86.1155393  71.4910944 143.9528903
  87.0039226  72.0266210 145.0555533  72.2590312  76.9316948 139.7839618
  72.1235987  77.7768484 140.2124465  72.8000125  77.1336226 139.0205551
  68.7457652  63.0108528 156.4453973  68.3524598  62.4574727 157.1201617
  69.5623792  63.3219107 156.8360490  65.7119710  74.4492386 140.3567543
  66.2244230  75.2435637 140.5073107  66.3642423  73.7518677 140.2901144
  67.5214595  77.5658143 142.4390296  67.6981223  78.4876107 142.2511280
  68.3171428  77.2516562 142.8684676  71.6625613  64.4266407 154.0374229
  72.4035327  65.0273560 153.9578692  71.8943536  63.6844045 153.4792272
  66.8066951  69.6122774 152.3152459  66.6920466  68.7108032 152.6159558
  65.9511469  69.8586471 151.9637276  73.8858789  77.5540515 153.9139960
  73.4422643  76.7676893 153.5960864  74.5476002  77.7419665 153.2483850
  68.6445910  79.0836316 148.4400638  69.1953335  78.9553380 147.6677632
  67.8057386  79.3831205 148.0895531  75.9840027  77.8343315 151.9421361
  75.9658502  78.6552196 151.4501630  76.9059947  77.7097390 152.1671502
  72.4413081  75.3487444 152.7844869  72.9741418  74.5875732 152.5544177
  71.9127162  75.0561096 153.5269024  75.6082776  60.4547510 148.3138511
  75.2647045  61.3449152 148.2377622  75.9761739  60.2649168 147.4508096
  63.6768627  72.7781041 141.1327113  64.5143849  73.1878049 140.9160821
  63.8546894  71.8380483 141.1027307  75.5733059  70.4456121 136.8210946
  75.0579682  71.2160726 137.0599334  75.3010367  69.7721257 137.4444008
  73.1580170  65.2905822 141.8796185  72.3021766  64.9012672 141.7001823
  73.5707122  65.3697783 141.0195970  74.6879316  62.8252165 146.2787744
  74.1844112  62.7882300 145.4655550  74.9809923  63.7344908 146.3384401
  70.9322202  62.9090895 145.2853926  71.7975199  62.7133704 144.9259815
  70.9999711  62.6801247 146.2123283  80.5467333  73.1988476 138.7564120
  79.7696776  72.8599635 138.3119282  81.2258814  73.2041099 138.0819085
  75.3619362  68.3183213 138.6470727  75.0569498  68.6329363 139.4980871
  76.3149804  68.3964633 138.6898060  73.8065794  74.4773437 140.2963681
  73.2787155  73.7426196 139.9836919  73.3053297  75.2548113 140.0503650
  78.7858640  72.6722457 145.4130728  78.1282314  73.3621719 145.5010856
  79.5899039  73.0618889 145.7564714  68.5384521  65.1393103 142.6570293
  69.1128273  64.9168284 141.9243486  69.1255504  65.2081797 143.4098894
  77.5964099  71.0266830 143.4634669  78.1095980  71.6596822 143.9656379
  78.2465323  70.4268025 143.0978029  68.8654109  67.1697564 136.6766178
  68.0291421  67.5072250 136.9975453  68.7258878  67.0346544 135.7393315
  70.8407189  62.0134352 141.3845362  70.1871601  61.6983369 140.7601977
  70.7987663  61.3910092 142.1105185  71.9518394  72.2953647 133.2998654
  71.0445456  72.0642900 133.4989803  72.4489426  71.4991266 133.4872636
  74.8586473  81.0051154 136.2195341  74.1848172  81.3082851 136.8280298
  75.2452295  81.8080234 135.8700798  74.0744929  68.5016285 145.7093010
  73.1567491  68.7231232 145.5514698  74.4905073  68.5762596 144.8504717
  74.8579977  69.9007701 140.8395690  75.6051796  70.4129098 140.5302812
  75.1271567  69.5791754 141.7000084  73.1306627  72.3966242 137.8222644
  72.2217847  72.1125275 137.9195114  73.1601711  72.8165320 136.9625951
  78.3625895  76.0072831 141.5913812  77.9088222  75.1663741 141.6479002
  77.7319862  76.6434230 141.9288592  77.3058814  66.9364817 142.8214479
  76.5681571  66.4242204 143.1524722  77.5585588  66.4965199 142.0097756
  76.8058834  77.8449328 142.5263630  77.0981808  78.4054385 141.8075996
  77.3157455  78.1377889 143.2816789  77.4070442  59.7141069 143.4156249
  77.7129319  58.8538433 143.1282164  78.1323047  60.3058690 143.2155243
  63.6994798  70.1171756 141.8037847  63.5019198  69.5241117 141.0788913
  63.1441462  69.8123966 142.5213785  71.6791521  70.0094862 143.9232440
  71.7340131  69.0568699 143.8474916  70.8682723  70.1654301 144.4073738
  72.8282715  73.9374985 135.1610723  72.3902145  73.2210844 134.7016360
  73.5693156  74.1651100 134.5995814  69.6183881  68.6271922 141.6822819
  68.8051747  68.9266093 142.0888011  70.1142876  68.2327611 142.3997301
  71.7692459  78.6229679 143.6157083  71.7268638  78.8490525 142.6865615
  72.6855158  78.3893054 143.7642885  75.2158093  69.0913747 150.5137713
  75.5707481  69.3185220 151.3732178  75.8630224  69.4232123 149.8914968
  80.9455830  72.2132182 141.2187042  80.8073729  72.4033778 140.2908231
  80.5892049  72.9751565 141.6755093  69.1097956  66.1990278 147.2984054
  69.7497335  66.0579037 146.6007017  68.2775487  65.9124791 146.9222656
  80.9725210  74.2808709 146.2298313  81.4061716  74.1883999 147.0781367
  81.6856790  74.2566210 145.5918329  69.8858260  75.4992708 143.4119046
  70.6798859  75.0043028 143.2101621  69.1749952  74.9710571 143.0486752
  74.7053105  77.8810804 147.7631414  74.7590127  78.4501740 148.5309130
  73.8367886  78.0512689 147.3985451  66.1941024  69.6435790 139.4878799
  65.2638612  69.5820245 139.7048761  66.2898496  69.1211743 138.6915440
  66.1126573  66.1690603 142.0757040  66.3733390  67.0835936 141.9666201
  66.9343745  65.7015045 142.2253653  67.5851498  67.5828360 149.2455865
  68.2574551  67.3745722 148.5968514  66.7581284  67.3850446 148.8061097
  81.8340759  74.3232410 148.7631198  82.0276649  75.2278221 149.0090473
  81.7341377  73.8639829 149.5969784  73.4877070  64.2090301 151.2621526
  72.8404985  64.9080250 151.1686002  74.2578085  64.6426445 151.6297774
  76.8955868  74.4739153 154.3372079  76.7441374  74.2449705 153.4202163
  76.8860547  75.4309754 154.3503424  73.6641204  72.0471066 149.3218346
  74.5933264  72.1982225 149.1487313  73.2432234  72.1355086 148.4666992
  72.4629536  76.0721730 147.0916883  72.3240622  75.7040514 147.9642821
  71.6744132  76.5869369 146.9200841  73.0577688  81.1730827 138.4342420
  73.2329444  80.7018870 139.2488042  72.3710476  81.7996593 138.6623680
  74.0134751  75.4503333 144.4805721  73.6784584  75.4104103 145.3763371
  73.5138697  74.7848049 144.0076131  67.9878995  70.8570963 150.0058302
  67.8498793  70.1251202 150.6069841  68.8983919  70.7679863 149.7242490
  76.9493943  72.7959367 134.7542781  76.3323113  72.0706195 134.6575833
  76.4810431  73.5568727 134.4109855  70.6161296  70.5690922 149.4941982
  71.3260914  69.9284114 149.4528600  70.5730604  70.8203817 150.4168163
  78.6048075  77.5058275 152.4148561  78.5460621  76.8217496 151.7479144
  79.0067593  78.2477265 151.9629187  69.3290230  67.5556140 151.3137621
  68.7927587  67.1046878 151.9659218  68.7406938  67.6902049 150.5708086
  67.6238773  84.3220189 145.2082280  67.8635372  84.9538713 145.8861298
  66.7807970  83.9708229 145.4947639  68.7392489  67.0144791 133.8764085
  67.8621955  66.8933592 133.5126332  69.2150242  66.2230870 133.6242974
  78.6065482  75.4697859 150.6462541  77.7192261  75.1323781 150.7688940
  79.1764033  74.7380891 150.8831306  60.2594629  71.8021951 143.9705592
  60.9465669  71.4883681 143.3826607  60.1042758  72.7063316 143.6972843
  65.0629351  66.6912148 148.3990616  64.9787540  66.0837817 147.6641026
  64.2412057  67.1821166 148.4000112  72.1366635  80.1299312 147.6123784
  72.0636807  80.9354283 148.1243088  71.6944028  80.3291278 146.7871805
  71.9256415  79.3671082 141.1226605  71.1423937  79.9092762 141.2164830
  72.6249160  79.8845061 141.5220847  75.2353065  65.1765711 143.7660811
  75.7321764  64.4235674 143.4461881  74.4640046  65.2130028 143.2004020
  83.0882822  70.8806077 145.4079102  83.0772699  71.7630792 145.0373035
  82.2200202  70.5277628 145.2133639  74.5965319  80.0286146 149.7681943
  75.3093291  80.6633611 149.6957844  74.1055347  80.1250012 148.9521944
  76.3182846  73.9337398 141.3399234  75.3839124  74.0538861 141.1703939
  76.4959514  73.0309865 141.0759244  71.8188034  67.3183094 143.4932495
  71.4485821  66.7654135 144.1813401  72.3147126  66.7141228 142.9407495
  79.7055397  69.7754718 141.8749268  80.1715849  70.6082709 141.8009571
  80.1562897  69.3099699 142.5794527  69.6477232  77.7780589 150.5887513
  70.3486692  78.4117072 150.7416908  69.1772347  78.1195321 149.8283153
  77.7731628  76.1198539 138.8735420  78.0491472  76.0055134 139.7829294
  76.9036127  75.7216024 138.8347593  77.6772060  62.1435305 145.9140170
  76.7635139  62.3739532 146.0822377  78.1065161  62.2273749 146.7654202
  77.4478518  70.3325197 148.4140064  76.7949968  70.5801104 147.7592516
  77.8258898  69.5189335 148.0802541  74.4085692  80.3684890 142.5168234
  74.5908087  79.5506546 142.9795986  75.2318678  80.5852582 142.0793124
  74.7427858  79.2953075 139.7783282  75.2715624  78.7845530 139.1653445
  75.0056077  78.9795605 140.6428815  73.4966091  71.0745008 154.9006101
  72.8206728  70.9739137 155.5708476  74.3193725  70.9184221 155.3642098
  65.2444950  77.3116944 147.5218616  65.8298387  76.5660632 147.6546520
  65.0469789  77.6220901 148.4055280  68.0983606  80.3468192 142.5381058
  67.4293981  80.8314319 142.0545098  67.9596475  80.5937412 143.4524437
  59.8362605  69.8822544 146.2423059  59.8746705  69.3486135 147.0360177
  59.3302898  69.3557750 145.6234036  72.2388874  82.3811935 149.1363717
  72.7907182  82.5443557 149.9012802  72.5795068  82.9716373 148.4643742
  67.2153367  64.7287085 149.7385601  67.2794694  65.5901916 149.3262999
  67.1520488  64.1161087 149.0057960  66.6905640  66.8010218 153.3858636
  67.3177679  66.4187295 153.9996160  65.8333559  66.5824419 153.7514328
  77.0899748  77.2073193 154.9912371  77.6339652  77.8203151 154.4967326
  76.5086593  77.7652771 155.5079384  63.4671183  68.6086647 139.3176991
  63.7624624  67.6997325 139.2644044  62.5659218  68.5874386 138.9957993
  75.3757261  80.3293911 146.1227399  75.2508401  79.5283651 145.6138344
  76.0336352  80.8240104 145.6341369  66.9965430  66.6842643 145.3004539
  66.2752015  67.2978611 145.1612012  67.7858685  67.2200408 145.2221185
  77.4392170  78.1302931 147.7506949  76.4922505  78.0108282 147.6785276
  77.7874943  77.2425429 147.8333210  69.7991743  64.0197070 151.5745191
  70.3226145  64.2659366 152.3371500  69.5804076  64.8517105 151.1548328
  65.1959024  66.2900744 139.4416316  64.8671730  65.4098123 139.2591422
  65.5498395  66.2348413 140.3292705  74.4438603  77.9255647 143.9511301
  74.2963565  76.9972354 144.1318871  75.2692097  77.9475738 143.4668376
  68.3100847  66.5773714 139.8091793  68.6496920  67.1059635 139.0870402
  68.7572968  66.9154120 140.5850360  78.0472725  78.7484206 145.0376174
  78.9719272  78.5427067 144.9000625  77.8788028  78.5000607 145.9465515
  71.0044288  64.9610765 149.2594861  70.6641109  64.1618578 149.6615541
  70.2983294  65.2612476 148.6871695  71.6560760  62.0460077 147.7122184
  72.4786829  61.5720555 147.5901075  71.8998824  62.8250561 148.2120871
  70.2968994  65.0748336 138.0085086  71.0177357  65.4529588 137.5048803
  69.6734299  65.7937213 138.1120064  74.4400117  65.7793485 138.9443418
  74.6563732  66.6618123 138.6432247  73.9594185  65.3879698 138.2149060
  69.1799339  68.7379198 145.5214163  69.0343919  69.0519501 146.4138445
  68.7024542  69.3564098 144.9685062  71.0395722  65.7281746 145.5695053
  71.0257290  64.8322839 145.2327351  71.7568150  65.7352410 146.2033339
  72.8921852  66.1619086 147.6148180  72.6339630  67.0836157 147.6132510
  72.3606893  65.7649521 148.3048644  77.8368041  79.2669873 140.3938265
  78.0104919  78.7016296 139.6412118  78.3296932  80.0670768 140.2117755
  63.6545001  71.2784542 148.4601824  63.1098469  72.0544350 148.5922099
  64.5324351  71.6255347 148.3020946  70.4432618  64.6096126 140.8382623
  70.5648529  63.6812772 141.0373510  70.1534660  64.6234812 139.9260938
  73.3123808  62.2951037 143.9749343  73.3345505  62.3590370 143.0201322
  73.7291867  61.4555545 144.1689849  83.6907432  72.0306296 142.0128565
  84.1338578  71.2813621 141.6147688  82.8133943  72.0216433 141.6302297
  78.8243214  78.5836638 137.4935164  79.5194118  79.2043330 137.7122478
  79.1666364  77.7331989 137.7687542  64.4411023  70.4054439 151.3531981
  63.6992759  70.5537074 151.9396612  64.1203767  70.6662704 150.4898731
  80.7234637  76.0336343 139.0222494  81.2485961  76.3723616 138.2971815
  80.6356989  75.0983358 138.8385629  72.3854685  79.9470417 151.1512371
  72.6941812  79.7019564 152.0235071  73.1830167  80.1517055 150.6631241
  72.4075297  82.1008326 143.3817748  71.9680288  81.6084705 144.0750604
  73.1583414  81.5581294 143.1409823  64.8867636  78.2919867 143.3842376
  65.7125656  77.9923639 143.0041019  64.5361688  77.5227490 143.8332164
  69.8549170  77.6446335 145.4540049  69.2329179  76.9817041 145.1542277
  70.5254037  77.6707467 144.7713697  63.0876241  76.2106194 144.3431309
  62.2508150  75.7828368 144.1615311  63.0599887  76.4038637 145.2802101
  69.9273697  66.1228124 155.0472555  69.9761853  66.9990246 154.6650325
  70.4696211  65.5805517 154.4744199  80.4128543  76.6669247 154.3273692
  79.6224086  76.6493386 153.7878192  80.1761897  77.2057540 155.0822729
  80.5326418  73.5161713 151.6406421  80.5824423  73.3511721 152.5821944
  80.4240341  72.6488972 151.2504302  69.4162677  76.1950259 138.9298510
  69.5650797  76.8785723 138.2765183  70.2229120  76.1755349 139.4447966
  77.8230180  69.4992641 152.9565728  78.7240043  69.3599106 152.6649725
  77.8978155  69.6647096 153.8963905  72.1572986  66.8759496 151.8018914
  71.2876295  67.1693062 151.5301503  72.3932466  67.4599941 152.5226178
  82.0344615  75.9358655 151.8848443  81.7429423  76.2988635 152.7211903
  81.4216746  75.2225663 151.7061775  83.2340297  73.5011534 144.4051013
  84.0687188  73.9401339 144.5688573  83.3699426  73.0250188 143.5859259
  80.2831803  71.0591269 150.3528501  80.7585924  71.2518916 149.5447352
  79.3597368  71.1150455 150.1071884  67.1715310  72.2215436 139.9359579
  66.9261351  71.3177766 140.1339789  67.3411224  72.2232587 138.9939057
  74.8612019  63.0939113 149.3184334  75.3793963  63.8300140 148.9930823
  74.5067152  63.4003106 150.1531094  66.4410957  67.9543794 137.4345740
  65.7480202  68.0288149 136.7785776  66.1962709  67.1904138 137.9567257
  75.1124614  59.5139395 144.8385231  75.3926367  58.8462584 145.4645658
  75.8975220  59.7068491 144.3259895  72.9158082  78.6898389 136.4010257
  72.3432049  79.3088576 135.9480729  73.4890876  79.2397751 136.9350179
  78.9833472  67.9357029 148.5856806  79.9350895  68.0355127 148.6069030
  78.8136922  67.1435298 149.0954890  77.0047851  65.0212613 148.7716207
  76.4097783  65.3017625 148.0762696  76.7197548  65.5106514 149.5432948
  76.1355342  78.9735539 137.5318840  77.0686015  78.9081101 137.7351715
  76.0478555  79.8091806 137.0733372  78.7643359  78.2901410 134.4922787
  78.6856990  77.9561273 135.3858545  79.5853025  78.7823178 134.4914259
  81.4621550  71.1563149 147.6999106  81.4297870  70.2179150 147.8858790
  82.0722173  71.2347186 146.9664931  73.3004881  70.0259202 133.7426310
  74.2463985  69.8965410 133.8114728  72.9219126  69.2873864 134.2195738
  81.6116038  67.9474192 147.7457389  81.0955087  67.1632649 147.5587318
  82.4955987  67.6192909 147.9103908  79.2726765  61.6915208 143.7053202
  79.0751586  61.3830296 144.5896534  79.8826471  62.4176847 143.8351131
  87.2798100  72.2179156 146.8405143  88.0101488  71.9564444 147.4012846
  86.6705045  71.4807878 146.8807211  85.3613397  70.3587018 147.4379594
  84.6346560  70.2242983 146.8296085  84.9460684  70.6663847 148.2436312
  73.1843573  74.0776948 155.2026967  74.1046583  74.2555547 155.3967013
  73.1493156  73.1332994 155.0506666  71.4847798  67.9509178 133.6781195
  70.5779253  67.6542291 133.7543909  71.7623779  67.6538997 132.8115481
  62.4025738  69.2715542 144.1280241  62.0828522  68.4180850 143.8354615
  61.8559166  69.4864120 144.8838209  66.1805646  71.9877983 147.8449748
  66.3991655  72.9195091 147.8637782  66.5931419  71.6285957 148.6304552
  73.1009863  62.4946068 139.8325436  72.2910592  62.1493153 140.2080682
  73.7894280  62.1853612 140.4213048  75.0300412  61.5724115 141.4549733
  75.5831450  61.9919568 142.1139756  75.2670498  60.6459863 141.4972689
  71.0533511  67.5611189 157.2352497  70.9530238  68.5105546 157.1664588
  70.8355053  67.2329427 156.3628567  70.2546582  64.8096114 133.8193174
  71.1165746  65.1351012 134.0788992  70.4396926  64.0227610 133.3066240
  62.2713998  72.8918453 146.0973363  61.5777470  72.4772406 145.5843317
  63.0186989  72.9338990 145.5006782  78.4079219  63.6824640 140.9628397
  77.8277888  64.3409444 140.5806450  78.1415151  62.8601985 140.5515815
  76.8582785  63.0829698 143.1649718  77.3582564  63.1946232 142.3564036
  77.5018393  62.7790751 143.8050526  70.9164781  70.9908327 156.0517559
  70.4331863  71.7908688 156.2581448  71.0025720  71.0016272 155.0985003
  64.1850741  72.8236707 143.9739378  64.1621429  72.9224394 143.0221261
  64.4951377  73.6701858 144.2956544  66.8438118  74.8812862 148.0885992
  67.7981372  74.8496804 148.0215924  66.6450642  74.4203486 148.9036218
  67.4337501  73.4513978 150.6556790  68.2530390  73.9458057 150.6791627
  67.7074308  72.5345946 150.6274357  77.1904097  65.8424730 140.0184745
  76.3029952  66.1274381 139.8004940  77.6058086  65.6818494 139.1712022
  80.5418633  65.8671251 143.7339085  81.3179023  66.3567704 144.0063702
  79.8166767  66.2929306 144.1910954  82.9791192  66.5798871 144.7913025
  83.5735682  66.3394607 144.0806334  83.0517775  65.8606001 145.4186562
  65.1988347  80.4232482 145.1056190  65.0642815  79.6632883 144.5394188
  64.7820410  81.1473381 144.6384979  76.3347310  75.6069405 134.1132765
  77.0383160  75.8119408 134.7290421  75.6109959  76.1746167 134.3781849
  77.1645121  71.3579266 140.2335036  77.1080322  71.8147818 139.3942668
  77.7173463  70.5969951 140.0557878  80.9749926  67.1468998 141.0585155
  80.7186861  66.7465634 141.8893363  80.3502795  67.8612792 140.9335294
  85.2862264  69.8865072 143.5656447  84.7261822  69.9558261 144.3388009
  84.6805768  69.7106056 142.8455943  68.3557473  81.3201799 145.3174633
  68.2389857  82.2647231 145.2153323  67.5349919  81.0175360 145.7060432
  78.2434008  76.0451934 136.1631226  79.0779612  75.6133133 135.9808700
  78.0818351  75.8733948 137.0908120  77.8979900  72.5484048 137.5287565
  77.8428704  72.3828319 136.5876009  77.2725955  73.2560081 137.6849755
  62.6872415  67.7852112 151.3548987  63.3331278  67.2751066 151.8436212
  62.4789566  68.5220794 151.9292412  75.2125807  74.8532960 156.8541128
  76.0816967  75.0273612 156.4927763  74.7332559  75.6727376 156.7316857
  71.2076025  62.0492157 137.1072883  71.1954695  62.9933997 137.2641154
  72.0999447  61.8662302 136.8132344  69.3811987  81.9730061 148.5330561
  70.2839234  82.0053671 148.8497056  69.1549357  81.0430511 148.5476897
  71.1365589  80.7261047 145.1940640  70.1861220  80.7262909 145.0805012
  71.4398075  79.9793782 144.6776674  75.0228145  58.6434933 141.3618820
  74.2560541  58.0893420 141.5075502  75.4338850  58.7156802 142.2232972
  67.0269906  64.9319729 155.4524001  67.8901367  64.5756534 155.6627326
  66.4535317  64.5933624 156.1399406  86.8718283  86.5621585 146.2586402
  87.5096693  86.4428333 145.5549742  86.7539126  87.5102429 146.3174354
  83.6807989  86.5149014 146.1947927  83.3426501  86.3990078 145.3068462
  84.5497757  86.1140179 146.1748933  79.5394805  88.3684490 142.1844818
  78.9759670  88.2774427 141.4161106  79.4247200  87.5484394 142.6647310
  84.1627772  87.6683865 152.1534132  84.1516413  87.2736664 151.2814636
  84.3248412  86.9349938 152.7467904  77.0859237  89.8635682 145.0229038
  77.8780529  89.5226506 144.6075338  77.3255887  89.9730657 145.9431192
  85.1194363  92.0355458 137.4959283  84.4682343  92.6209538 137.1093297
  85.9138726  92.5661653 137.5554320  79.0449991  89.1244595 137.8946417
  79.8180867  88.5773582 137.7559293  79.3975390  89.9888844 138.1060879
  80.8835033  90.4520977 151.1013316  80.5924899  91.3566608 150.9859983
  81.5192018  90.4937505 151.8157386  81.8091240  87.8297826 147.6914676
  82.4054812  87.6053848 146.9771639  81.8666212  87.0882571 148.2940124
  81.3816268  85.2837261 135.5264867  81.6341789  84.7618782 134.7648330
  80.4440828  85.1203406 135.6291551  86.4259551  84.2873039 143.3339610
  87.2122641  83.8692462 142.9830027  86.6898256  85.1919132 143.5021259
  86.5969629  89.7245890 138.0328267  85.9615462  89.7980516 138.7449172
  86.2667035  90.3139488 137.3547346  91.8267978  84.2248273 144.2372589
  92.5593150  83.6547489 144.4710418  91.0707334  83.8369873 144.6779094
  81.1012557  87.1865367 137.7289242  80.9848815  86.5110270 138.3970326
  81.2114817  86.6997741 136.9121395  83.4444098  86.6475514 141.4335931
  83.0802305  86.1206135 142.1448853  84.3011214  86.2573983 141.2602417
  89.3493399  77.9369847 148.6967197  89.0176724  78.8065258 148.4728412
  88.7539012  77.6206131 149.3761228  83.0849585  81.6765414 136.4297280
  83.2523987  82.5445650 136.7967751  82.8946754  81.8392695 135.5058569
  85.8424918  90.1382393 148.0963110  85.5425641  91.0407431 147.9878917
  85.4975978  89.8714576 148.9484263  79.2937400  86.5896189 144.1299815
  78.3687896  86.4572404 144.3377506  79.5421813  87.3690409 144.6269757
  89.2422062  82.6564933 145.7760547  88.3338939  82.5880341 145.4819308
  89.1909658  83.1336878 146.6042373  83.0638806  84.1323071 137.4143947
  82.9438431  84.5780122 138.2529427  82.3691394  84.4808389 136.8557485
  76.6546211  86.2329463 144.9643604  76.7838592  86.4863942 145.8783015
  75.9743662  86.8257171 144.6448259  80.8245698  96.9026713 141.0634078
  80.7469728  97.8534538 141.1422558  80.2207342  96.5572585 141.7209004
  83.3162928  84.0754578 153.7195445  82.5396262  84.6348499 153.7098309
  83.9553491  84.5611361 154.2410315  91.1083708  80.8581371 147.5538421
  90.4658089  81.1513904 146.9078216  90.6038637  80.7434292 148.3591618
  88.7623872  84.6044544 138.2424281  89.6741728  84.8371931 138.0671978
  88.2533519  85.1881589 137.6799359  81.5709300  86.8840032 153.2813412
  82.3123985  87.4225076 153.0048235  80.8646286  87.5106321 153.4384964
  87.0464640  89.0269172 151.8785573  87.4547996  88.5851583 151.1340206
  86.3241901  88.4521800 152.1319766  83.3995710  83.9641779 149.2519130
  84.2456905  84.3881193 149.3953779  83.3394348  83.3075403 149.9457693
  87.3693454  89.5870363 145.6337862  86.7402317  89.7516077 144.9313930
  86.9819117  90.0011972 146.4048826  91.2482686  90.5224801 142.9882226
  90.5633724  90.9023702 142.4379259  91.3326536  91.1320127 143.7214174
  86.5495155  81.6246147 150.9100304  86.3056087  82.3788208 150.3734580
  86.8255086  82.0031495 151.7447551  88.5033618  88.1684760 149.5877569
  88.7150513  88.8116520 148.9111950  88.4563366  87.3347076 149.1199499
  86.1059847  80.7802580 146.4914142  85.2444326  81.0783834 146.7830879
  86.1322282  80.9972979 145.5595174  82.9221416  89.3244771 142.8987947
  83.3859762  89.6032474 142.1092570  82.6578214  88.4228216 142.7161038
  79.8145497  88.8716252 145.8367710  80.3846854  89.3003521 145.1985195
  80.4053609  88.5898837 146.5351896  81.8590302  85.4467923 139.7077512
  82.5614346  85.8988967 140.1751439  81.5270931  84.8051742 140.3357405
  80.3070664  84.0379680 154.0828722  79.6769324  84.7195961 154.3164119
  80.2006752  83.9262762 153.1381860  75.6015636  83.7051476 145.0094646
  74.8114690  83.9609005 144.5334757  76.0926884  84.5199814 145.1146686
  89.6179446  91.0456715 147.7599927  90.4396890  90.6436902 147.4782608
  89.6141849  90.9424949 148.7116043  77.5530382  84.0696055 141.9678123
  76.7561545  84.1814749 142.4861618  77.3255974  84.4082707 141.1019013
  83.3836049  90.5940758 149.9160637  83.4480482  91.0561166 150.7518809
  82.6746973  89.9638123 150.0442947  73.8853339  83.9581966 147.4409637
  74.1361378  84.8428976 147.7067213  74.4212888  83.7786568 146.6684729
  97.7085439  87.3895464 144.1084898  96.9549147  86.8202862 143.9528903
  97.8432980  87.3558128 145.0555533  83.0984067  92.2608866 139.7839618
  82.9629742  93.1060402 140.2124465  83.6393879  92.4628144 139.0205551
  79.5851407  78.3400446 156.4453973  79.1918352  77.7866644 157.1201617
  80.4017547  78.6511024 156.8360490  76.5513464  89.7784304 140.3567543
  77.0637985  90.5727554 140.5073107  77.2036177  89.0810594 140.2901144
  78.3608349  92.8950060 142.4390296  78.5374977  93.8168025 142.2511280
  79.1565183  92.5808479 142.8684676  82.5019368  79.7558325 154.0374229
  83.2429081  80.3565478 153.9578692  82.7337290  79.0135963 153.4792272
  77.6460706  84.9414692 152.3152459  77.5314221  84.0399949 152.6159558
  76.7905223  85.1878389 151.9637276  84.7252543  92.8832432 153.9139960
  84.2816398  92.0968811 153.5960864  85.3869757  93.0711583 153.2483850
  79.4839665  94.4128234 148.4400638  80.0347090  94.2845297 147.6677632
  78.6451140  94.7123123 148.0895531  86.8233781  93.1635232 151.9421361
  86.8052257  93.9844113 151.4501630  87.7453701  93.0389308 152.1671502
  83.2806836  90.6779362 152.7844869  83.8135172  89.9167650 152.5544177
  82.7520917  90.3853014 153.5269024  86.4476531  75.7839428 148.3138511
  86.1040800  76.6741069 148.2377622  86.8155493  75.5941085 147.4508096
  74.5162381  88.1072958 141.1327113  75.3537603  88.5169967 140.9160821
  74.6940649  87.1672400 141.1027307  86.4126813  85.7748039 136.8210946
  85.8973437  86.5452644 137.0599334  86.1404122  85.1013175 137.4444008
  83.9973924  80.6197740 141.8796185  83.1415521  80.2304590 141.7001823
  84.4100876  80.6989700 141.0195970  85.5273071  78.1544083 146.2787744
  85.0237867  78.1174218 145.4655550  85.8203678  79.0636826 146.3384401
  81.7715957  78.2382813 145.2853926  82.6368954  78.0425621 144.9259815
  81.8393466  78.0093164 146.2123283  91.3861087  88.5280394 138.7564120
  90.6090530  88.1891553 138.3119282  92.0652568  88.5333017 138.0819085
  86.2013116  83.6475131 138.6470727  85.8963252  83.9621280 139.4980871
  87.1543559  83.7256551 138.6898060  84.6459548  89.8065354 140.2963681
  84.1180910  89.0718114 139.9836919  84.1447051  90.5840031 140.0503650
  89.6252394  88.0014375 145.4130728  88.9676069  88.6913636 145.5010856
  90.4292794  88.3910807 145.7564714  79.3778276  80.4685021 142.6570293
  79.9522028  80.2460202 141.9243486  79.9649258  80.5373715 143.4098894
  88.4357853  86.3558748 143.4634669  88.9489735  86.9888739 143.9656379
  89.0859077  85.7559943 143.0978029  79.7047863  82.4989482 136.6766178
  78.8685175  82.8364168 136.9975453  79.5652633  82.3638461 135.7393315
  81.6800944  77.3426270 141.3845362  81.0265356  77.0275287 140.7601977
  81.6381418  76.7202010 142.1105185  82.7912148  87.6245565 133.2998654
  81.8839210  87.3934818 133.4989803  83.2883180  86.8283184 133.4872636
  85.6980227  96.3343072 136.2195341  85.0241926  96.6374769 136.8280298
  86.0846049  97.1372152 135.8700798  84.9138684  83.8308203 145.7093010
  83.9961245  84.0523150 145.5514698  85.3298828  83.9054514 144.8504717
  85.6973732  85.2299619 140.8395690  86.4445551  85.7421016 140.5302812
  85.9665321  84.9083671 141.7000084  83.9700382  87.7258159 137.8222644
  83.0611601  87.4417192 137.9195114  83.9995466  88.1457238 136.9625951
  89.2019649  91.3364749 141.5913812  88.7481976  90.4955659 141.6479002
  88.5713616  91.9726147 141.9288592  88.1452569  82.2656735 142.8214479
  87.4075326  81.7534121 143.1524722  88.3979342  81.8257117 142.0097756
  87.6452589  93.1741246 142.5263630  87.9375563  93.7346303 141.8075996
  88.1551209  93.4669807 143.2816789  88.2464196  75.0432987 143.4156249
  88.5523073  74.1830350 143.1282164  88.9716801  75.6350607 143.2155243
  74.5388552  85.4463674 141.8037847  74.3412952  84.8533034 141.0788913
  73.9835216  85.1415884 142.5213785  82.5185276  85.3386780 143.9232440
  82.5733886  84.3860616 143.8474916  81.7076478  85.4946219 144.4073738
  83.6676470  89.2666903 135.1610723  83.2295900  88.5502762 134.7016360
  84.4086911  89.4943018 134.5995814  80.4577636  83.9563840 141.6822819
  79.6445501  84.2558010 142.0888011  80.9536630  83.5619529 142.3997301
  82.6086214  93.9521597 143.6157083  82.5662393  94.1782443 142.6865615
  83.5248913  93.7184971 143.7642885  86.0551848  84.4205664 150.5137713
  86.4101235  84.6477137 151.3732178  86.7023979  84.7524041 149.8914968
  91.7849585  87.5424100 141.2187042  91.6467483  87.7325696 140.2908231
  91.4285803  88.3043483 141.6755093  79.9491711  81.5282195 147.2984054
  80.5891090  81.3870954 146.6007017  79.1169241  81.2416709 146.9222656
  91.8118964  89.6100627 146.2298313  92.2455471  89.5175916 147.0781367
  92.5250545  89.5858128 145.5918329  80.7252015  90.8284626 143.4119046
  81.5192613  90.3334946 143.2101621  80.0143707  90.3002489 143.0486752
  85.5446859  93.2102721 147.7631414  85.5983881  93.7793658 148.5309130
  84.6761640  93.3804606 147.3985451  77.0334778  84.9727707 139.4878799
  76.1032366  84.9112163 139.7048761  77.1292250  84.4503660 138.6915440
  76.9520327  81.4982520 142.0757040  77.2127144  82.4127854 141.9666201
  77.7737499  81.0306963 142.2253653  78.4245252  82.9120277 149.2455865
  79.0968306  82.7037640 148.5968514  77.5975039  82.7142363 148.8061097
  92.6734514  89.6524328 148.7631198  92.8670404  90.5570138 149.0090473
  92.5735132  89.1931747 149.5969784  84.3270824  79.5382218 151.2621526
  83.6798739  80.2372168 151.1686002  85.0971840  79.9718362 151.6297774
  87.7349622  89.8031071 154.3372079  87.5835129  89.5741622 153.4202163
  87.7254302  90.7601672 154.3503424  84.5034959  87.3762983 149.3218346
  85.4327019  87.5274143 149.1487313  84.0825989  87.4647004 148.4666992
  83.3023291  91.4013648 147.0916883  83.1634376  91.0332432 147.9642821
  82.5137887  91.9161287 146.9200841  83.8971443  96.5022744 138.4342420
  84.0723198  96.0310787 139.2488042  83.2104231  97.1288510 138.6623680
  84.8528506  90.7795250 144.4805721  84.5178338  90.7396020 145.3763371
  84.3532451  90.1139966 144.0076131  78.8272750  86.1862880 150.0058302
  78.6892548  85.4543119 150.6069841  79.7377673  86.0971781 149.7242490
  87.7887697  88.1251285 134.7542781  87.1716868  87.3998113 134.6575833
  87.3204186  88.8860645 134.4109855  81.4555050  85.8982840 149.4941982
  82.1654669  85.2576032 149.4528600  81.4124358  86.1495735 150.4168163
  89.4441829  92.8350193 152.4148561  89.3854375  92.1509413 151.7479144
  89.8461347  93.5769183 151.9629187  80.1683984  82.8848058 151.3137621
  79.6321341  82.4338796 151.9659218  79.5800693  83.0193967 150.5708086
  78.4632528  99.6512107 145.2082280  78.7029126 100.2830631 145.8861298
  77.6201724  99.3000147 145.4947639  79.5786243  82.3436709 133.8764085
  78.7015710  82.2225510 133.5126332  80.0543996  81.5522787 133.6242974
  89.4459236  90.7989777 150.6462541  88.5586015  90.4615699 150.7688940
  90.0157787  90.0672808 150.8831306  71.0988383  87.1313869 143.9705592
  71.7859423  86.8175599 143.3826607  70.9436512  88.0355233 143.6972843
  75.9023106  82.0204065 148.3990616  75.8181294  81.4129735 147.6641026
  75.0805812  82.5113084 148.4000112  82.9760390  95.4591229 147.6123784
  82.9030561  96.2646201 148.1243088  82.5337783  95.6583195 146.7871805
  82.7650169  94.6962999 141.1226605  81.9817691  95.2384680 141.2164830
  83.4642914  95.2136979 141.5220847  86.0746819  80.5057629 143.7660811
  86.5715519  79.7527591 143.4461881  85.3033801  80.5421946 143.2004020
  93.9276577  86.2097994 145.4079102  93.9166453  87.0922710 145.0373035
  93.0593956  85.8569545 145.2133639  85.4359073  95.3578063 149.7681943
  86.1487045  95.9925528 149.6957844  84.9449102  95.4541929 148.9521944
  87.1576600  89.2629316 141.3399234  86.2232879  89.3830779 141.1703939
  87.3353269  88.3601783 141.0759244  82.6581788  82.6475012 143.4932495
  82.2879576  82.0946052 144.1813401  83.1540881  82.0433145 142.9407495
  90.5449151  85.1046635 141.8749268  91.0109604  85.9374627 141.8009571
  90.9956652  84.6391617 142.5794527  80.4870987  93.1072507 150.5887513
  81.1880446  93.7408990 150.7416908  80.0166102  93.4487238 149.8283153
  88.6125383  91.4490457 138.8735420  88.8885226  91.3347051 139.7829294
  87.7429881  91.0507942 138.8347593  88.5165814  77.4727222 145.9140170
  87.6028894  77.7031449 146.0822377  88.9458916  77.5565666 146.7654202
  88.2872273  85.6617114 148.4140064  87.6343723  85.9093022 147.7592516
  88.6652653  84.8481253 148.0802541  85.2479447  95.6976808 142.5168234
  85.4301841  94.8798463 142.9795986  86.0712433  95.9144500 142.0793124
  85.5821612  94.6244993 139.7783282  86.1109378  94.1137447 139.1653445
  85.8449832  94.3087523 140.6428815  84.3359846  86.4036925 154.9006101
  83.6600483  86.3031055 155.5708476  85.1587480  86.2476139 155.3642098
  76.0838705  92.6408862 147.5218616  76.6692142  91.8952550 147.6546520
  75.8863543  92.9512819 148.4055280  78.9377360  95.6760109 142.5381058
  78.2687735  96.1606237 142.0545098  78.7990230  95.9229330 143.4524437
  70.6756360  85.2114462 146.2423059  70.7140459  84.6778053 147.0360177
  70.1696652  84.6849668 145.6234036  83.0782629  97.7103853 149.1363717
  83.6300937  97.8735474 149.9012802  83.4188822  98.3008291 148.4643742
  78.0547122  80.0579003 149.7385601  78.1188448  80.9193834 149.3262999
  77.9914242  79.4453004 149.0057960  77.5299394  82.1302135 153.3858636
  78.1571433  81.7479213 153.9996160  76.6727313  81.9116337 153.7514328
  87.9293503  92.5365110 154.9912371  88.4733407  93.1495069 154.4967326
  87.3480348  93.0944689 155.5079384  74.3064937  83.9378564 139.3176991
  74.6018378  83.0289243 139.2644044  73.4052973  83.9166304 138.9957993
  86.2151016  95.6585828 146.1227399  86.0902155  94.8575568 145.6138344
  86.8730107  96.1532022 145.6341369  77.8359184  82.0134561 145.3004539
  77.1145770  82.6270529 145.1612012  78.6252440  82.5492326 145.2221185
  88.2785924  93.4594848 147.7506949  87.3316260  93.3400200 147.6785276
  88.6268697  92.5717347 147.8333210  80.6385498  79.3488987 151.5745191
  81.1619899  79.5951284 152.3371500  80.4197831  80.1809022 151.1548328
  76.0352779  81.6192662 139.4416316  75.7065485  80.7390041 139.2591422
  76.3892149  81.5640331 140.3292705  85.2832358  93.2547565 143.9511301
  85.1357320  92.3264272 144.1318871  86.1085851  93.2767655 143.4668376
  79.1494602  81.9065632 139.8091793  79.4890674  82.4351553 139.0870402
  79.5966722  82.2446038 140.5850360  88.8866479  94.0776123 145.0376174
  89.8113027  93.8718985 144.9000625  88.7181783  93.8292525 145.9465515
  81.8438043  80.2902683 149.2594861  81.5034863  79.4910496 149.6615541
  81.1377049  80.5904393 148.6871695  82.4954514  77.3751995 147.7122184
  83.3180584  76.9012473 147.5901075  82.7392578  78.1542479 148.2120871
  81.1362749  80.4040253 138.0085086  81.8571111  80.7821506 137.5048803
  80.5128053  81.1229130 138.1120064  85.2793872  81.1085402 138.9443418
  85.4957486  81.9910040 138.6432247  84.7987939  80.7171616 138.2149060
  80.0193093  84.0671116 145.5214163  79.8737674  84.3811419 146.4138445
  79.5418297  84.6856016 144.9685062  81.8789476  81.0573664 145.5695053
  81.8651045  80.1614757 145.2327351  82.5961904  81.0644327 146.2033339
  83.7315607  81.4911004 147.6148180  83.4733385  82.4128074 147.6132510
  83.2000647  81.0941438 148.3048644  88.6761796  94.5961791 140.3938265
  88.8498673  94.0308213 139.6412118  89.1690687  95.3962686 140.2117755
  74.4938755  86.6076460 148.4601824  73.9492223  87.3836268 148.5922099
  75.3718105  86.9547264 148.3020946  81.2826372  79.9388044 140.8382623
  81.4042283  79.0104690 141.0373510  80.9928414  79.9526730 139.9260938
  84.1517562  77.6242954 143.9749343  84.1739259  77.6882287 143.0201322
  84.5685621  76.7847463 144.1689849  94.5301187  87.3598214 142.0128565
  94.9732333  86.6105539 141.6147688  93.6527697  87.3508350 141.6302297
  89.6636968  93.9128555 137.4935164  90.3587873  94.5335248 137.7122478
  90.0060118  93.0623907 137.7687542  75.2804777  85.7346356 151.3531981
  74.5386513  85.8828992 151.9396612  74.9597522  85.9954622 150.4898731
  91.5628391  91.3628261 139.0222494  92.0879715  91.7015534 138.2971815
  91.4750744  90.4275276 138.8385629  83.2248440  95.2762334 151.1512371
  83.5335566  95.0311481 152.0235071  84.0223922  95.4808973 150.6631241
  83.2469052  97.4300244 143.3817748  82.8074042  96.9376623 144.0750604
  83.9977169  96.8873212 143.1409823  75.7261391  93.6211785 143.3842376
  76.5519411  93.3215557 143.0041019  75.3755443  92.8519407 143.8332164
  80.6942924  92.9738253 145.4540049  80.0722933  92.3108958 145.1542277
  81.3647791  92.9999385 144.7713697  73.9269996  91.5398111 144.3431309
  73.0901904  91.1120286 144.1615311  73.8993641  91.7330555 145.2802101
  80.7667452  81.4520041 155.0472555  80.8155607  82.3282164 154.6650325
  81.3089966  80.9097434 154.4744199  91.2522297  91.9961164 154.3273692
  90.4617841  91.9785303 153.7878192  91.0155652  92.5349458 155.0822729
  91.3720172  88.8453631 151.6406421  91.4218177  88.6803638 152.5821944
  91.2634096  87.9780890 151.2504302  80.2556431  91.5242177 138.9298510
  80.4044551  92.2077641 138.2765183  81.0622874  91.5047267 139.4447966
  88.6623935  84.8284559 152.9565728  89.5633797  84.6891024 152.6649725
  88.7371909  84.9939014 153.8963905  82.9966740  82.2051414 151.8018914
  82.1270049  82.4984980 151.5301503  83.2326220  82.7891859 152.5226178
  92.8738369  91.2650572 151.8848443  92.5823177  91.6280553 152.7211903
  92.2610500  90.5517581 151.7061775  94.0734051  88.8303452 144.4051013
  94.9080943  89.2693256 144.5688573  94.2093180  88.3542105 143.5859259
  91.1225557  86.3883187 150.3528501  91.5979679  86.5810833 149.5447352
  90.1991123  86.4442373 150.1071884  78.0109064  87.5507354 139.9359579
  77.7655106  86.6469684 140.1339789  78.1804979  87.5524505 138.9939057
  85.7005774  78.4231031 149.3184334  86.2187718  79.1592057 148.9930823
  85.3460907  78.7295024 150.1531094  77.2804712  83.2835712 137.4345740
  76.5873956  83.3580067 136.7785776  77.0356463  82.5196055 137.9567257
  85.9518368  74.8431313 144.8385231  86.2320122  74.1754502 145.4645658
  86.7368975  75.0360409 144.3259895  83.7551837  94.0190307 136.4010257
  83.1825804  94.6380494 135.9480729  84.3284630  94.5689669 136.9350179
  89.8227226  83.2648947 148.5856806  90.7744649  83.3647045 148.6069030
  89.6530677  82.4727216 149.0954890  87.8441606  80.3504530 148.7716207
  87.2491538  80.6309543 148.0762696  87.5591303  80.8398431 149.5432948
  86.9749096  94.3027457 137.5318840  87.9079769  94.2373019 137.7351715
  86.8872309  95.1383724 137.0733372  89.6037113  93.6193327 134.4922787
  89.5250745  93.2853191 135.3858545  90.4246780  94.1115095 134.4914259
  92.3015304  86.4855067 147.6999106  92.2691624  85.5471067 147.8858790
  92.9115928  86.5639103 146.9664931  84.1398635  85.3551120 133.7426310
  85.0857740  85.2257328 133.8114728  83.7612880  84.6165782 134.2195738
  92.4509793  83.2766110 147.7457389  91.9348841  82.4924567 147.5587318
  93.3349741  82.9484827 147.9103908  90.1120520  77.0207126 143.7053202
  89.9145341  76.7122214 144.5896534  90.7220225  77.7468765 143.8351131
  98.1191854  87.5471074 146.8405143  98.8495243  87.2856362 147.4012846
  97.5098800  86.8099796 146.8807211  96.2007151  85.6878936 147.4379594
  95.4740315  85.5534901 146.8296085  95.7854438  85.9955765 148.2436312
  84.0237328  89.4068866 155.2026967  84.9440337  89.5847465 155.3967013
  83.9886911  88.4624911 155.0506666  82.3241552  83.2801096 133.6781195
  81.4173008  82.9834209 133.7543909  82.6017533  82.9830914 132.8115481
  73.2419493  84.6007460 144.1280241  72.9222277  83.7472768 143.8354615
  72.6952921  84.8156038 144.8838209  77.0199400  87.3169901 147.8449748
  77.2385410  88.2487008 147.8637782  77.4325174  86.9577875 148.6304552
  83.9403618  77.8237986 139.8325436  83.1304346  77.4785071 140.2080682
  84.6288035  77.5145530 140.4213048  85.8694166  76.9016033 141.4549733
  86.4225205  77.3211486 142.1139756  86.1064253  75.9751781 141.4972689
  81.8927265  82.8903106 157.2352497  81.7923992  83.8397463 157.1664588
  81.6748807  82.5621345 156.3628567  81.0940337  80.1388031 133.8193174
  81.9559501  80.4642930 134.0788992  81.2790681  79.3519527 133.3066240
  73.1107753  88.2210371 146.0973363  72.4171224  87.8064324 145.5843317
  73.8580744  88.2630908 145.5006782  89.2472973  79.0116558 140.9628397
  88.6671642  79.6701362 140.5806450  88.9808906  78.1893902 140.5515815
  87.6976540  78.4121615 143.1649718  88.1976318  78.5238150 142.3564036
  88.3412148  78.1082668 143.8050526  81.7558535  86.3200245 156.0517559
  81.2725617  87.1200605 156.2581448  81.8419475  86.3308190 155.0985003
  75.0244495  88.1528625 143.9739378  75.0015183  88.2516312 143.0221261
  75.3345132  88.9993776 144.2956544  77.6831873  90.2104780 148.0885992
  78.6375127  90.1788722 148.0215924  77.4844397  89.7495404 148.9036218
  78.2731255  88.7805896 150.6556790  79.0924144  89.2749975 150.6791627
  78.5468063  87.8637864 150.6274357  88.0297851  81.1716648 140.0184745
  87.1423706  81.4566299 139.8004940  88.4451840  81.0110412 139.1712022
  91.3812387  81.1963169 143.7339085  92.1572778  81.6859622 144.0063702
  90.6560522  81.6221223 144.1910954  93.8184946  81.9090788 144.7913025
  94.4129437  81.6686524 144.0806334  93.8911530  81.1897919 145.4186562
  76.0382102  95.7524399 145.1056190  75.9036570  94.9924800 144.5394188
  75.6214164  96.4765299 144.6384979  87.1741065  90.9361323 134.1132765
  87.8776915  91.1411325 134.7290421  86.4503714  91.5038085 134.3781849
  88.0038875  86.6871184 140.2335036  87.9474076  87.1439736 139.3942668
  88.5567218  85.9261869 140.0557878  91.8143681  82.4760916 141.0585155
  91.5580615  82.0757552 141.8893363  91.1896549  83.1904710 140.9335294
  96.1256019  85.2156989 143.5656447  95.5655577  85.2850179 144.3388009
  95.5199522  85.0397974 142.8455943  79.1951228  96.6493716 145.3174633
  79.0783612  97.5939149 145.2153323  78.3743674  96.3467278 145.7060432
  89.0827762  91.3743852 136.1631226  89.9173366  90.9425051 135.9808700
  88.9212105  91.2025866 137.0908120  88.7373654  87.8775965 137.5287565
  88.6822458  87.7120237 136.5876009  88.1119710  88.5851998 137.6849755
  73.5266169  83.1144030 151.3548987  74.1725033  82.6042984 151.8436212
  73.3183320  83.8512711 151.9292412  86.0519562  90.1824877 156.8541128
  86.9210721  90.3565529 156.4927763  85.5726313  91.0019294 156.7316857
  82.0469780  77.3784074 137.1072883  82.0348450  78.3225914 137.2641154
  82.9393202  77.1954220 136.8132344  80.2205742  97.3021978 148.5330561
  81.1232988  97.3345588 148.8497056  79.9943112  96.3722429 148.5476897
  81.9759344  96.0552965 145.1940640  81.0254975  96.0554826 145.0805012
  82.2791830  95.3085699 144.6776674  85.8621899  73.9726851 141.3618820
  85.0954295  73.4185338 141.5075502  86.2732604  74.0448720 142.2232972
  77.8663660  80.2611647 155.4524001  78.7295122  79.9048452 155.6627326
  77.2929071  79.9225542 156.1399406  97.7112037 101.8913503 146.2586402
  98.3490447 101.7720251 145.5549742  97.5932880 102.8394347 146.3174354
  94.5201744 101.8440931 146.1947927  94.1820255 101.7281996 145.3068462
  95.3891512 101.4432096 146.1748933  90.3788559 103.6976408 142.1844818
  89.8153424 103.6066345 141.4161106  90.2640954 102.8776312 142.6647310
  95.0021527 102.9975783 152.1534132  94.9910167 102.6028581 151.2814636
  95.1642166 102.2641856 152.7467904  87.9252991 105.1927599 145.0229038
  88.7174283 104.8518424 144.6075338  88.1649641 105.3022574 145.9431192
  95.9588118 107.3647375 137.4959283  95.3076098 107.9501456 137.1093297
  96.7532481 107.8953570 137.5554320  89.8843745 104.4536513 137.8946417
  90.6574621 103.9065500 137.7559293  90.2369144 105.3180762 138.1060879
  91.7228788 105.7812895 151.1013316  91.4318654 106.6858526 150.9859983
  92.3585772 105.8229422 151.8157386  92.6484995 103.1589743 147.6914676
  93.2448567 102.9345766 146.9771639  92.7059966 102.4174489 148.2940124
  92.2210023 100.6129179 135.5264867  92.4735544 100.0910700 134.7648330
  91.2834582 100.4495324 135.6291551  97.2653306  99.6164957 143.3339610
  98.0516395  99.1984380 142.9830027  97.5292010 100.5211049 143.5021259
  97.4363383 105.0537807 138.0328267  96.8009216 105.1272434 138.7449172
  97.1060790 105.6431406 137.3547346 102.6661733  99.5540190 144.2372589
 103.3986905  98.9839407 144.4710418 101.9101089  99.1661791 144.6779094
  91.9406312 102.5157285 137.7289242  91.8242570 101.8402188 138.3970326
  92.0508572 102.0289659 136.9121395  94.2837853 101.9767432 141.4335931
  93.9196060 101.4498053 142.1448853  95.1404969 101.5865901 141.2602417
 100.1887153  93.2661764 148.6967197  99.8570478  94.1357175 148.4728412
  99.5932767  92.9498048 149.3761228  93.9243340  97.0057331 136.4297280
  94.0917742  97.8737568 136.7967751  93.7340509  97.1684613 135.5058569
  96.6818673 105.4674310 148.0963110  96.3819396 106.3699349 147.9878917
  96.3369732 105.2006494 148.9484263  90.1331154 101.9188107 144.1299815
  89.2081651 101.7864321 144.3377506  90.3815567 102.6982326 144.6269757
 100.0815817  97.9856850 145.7760547  99.1732694  97.9172259 145.4819308
 100.0303412  98.4628795 146.6042373  93.9032560  99.4614989 137.4143947
  93.7832186  99.9072040 138.2529427  93.2085149  99.8100307 136.8557485
  87.4939965 101.5621381 144.9643604  87.6232346 101.8155860 145.8783015
  86.8137417 102.1549089 144.6448259  91.6639453 112.2318631 141.0634078
  91.5863482 113.1826456 141.1422558  91.0601096 111.8864503 141.7209004
  94.1556682  99.4046496 153.7195445  93.3790016  99.9640416 153.7098309
  94.7947245  99.8903279 154.2410315 101.9477463  96.1873289 147.5538421
 101.3051843  96.4805822 146.9078216 101.4432391  96.0726209 148.3591618
  99.6017627  99.9336462 138.2424281 100.5135483 100.1663849 138.0671978
  99.0927274 100.5173506 137.6799359  92.4103055 102.2131949 153.2813412
  93.1517739 102.7516993 153.0048235  91.7040040 102.8398238 153.4384964
  94.2389464  99.2933697 149.2519130  95.0850660  99.7173110 149.3953779
  94.1788102  98.6367321 149.9457693  98.2087209 104.9162281 145.6337862
  97.5796071 105.0807995 144.9313930  97.8212871 105.3303890 146.4048826
 102.0876441 105.8516718 142.9882226 101.4027479 106.2315620 142.4379259
 102.1720290 106.4612045 143.7214174  97.3888910  96.9538065 150.9100304
  97.1449842  97.7080126 150.3734580  97.6648840  97.3323413 151.7447551
  99.3427372 103.4976677 149.5877569  99.5544268 104.1408437 148.9111950
  99.2957121 102.6638994 149.1199499  96.9453601  96.1094498 146.4914142
  96.0838080  96.4075752 146.7830879  96.9716036  96.3264897 145.5595174
  93.7615171 104.6536689 142.8987947  94.2253516 104.9324392 142.1092570
  93.4971969 103.7520133 142.7161038  90.6539252 104.2008170 145.8367710
  91.2240609 104.6295439 145.1985195  91.2447364 103.9190755 146.5351896
  92.6984057 100.7759841 139.7077512  93.4008100 101.2280885 140.1751439
  92.3664685 100.1343660 140.3357405  91.1464418  99.3671598 154.0828722
  90.5163079 100.0487878 154.3164119  91.0400506  99.2554679 153.1381860
  86.4409391  99.0343394 145.0094646  85.6508445  99.2900922 144.5334757
  86.9320638  99.8491732 145.1146686 100.4573200 106.3748633 147.7599927
 101.2790644 105.9728820 147.4782608 100.4535603 106.2716867 148.7116043
  88.3924136  99.3987973 141.9678123  87.5955299  99.5106667 142.4861618
  88.1649728  99.7374625 141.1019013  94.2229804 105.9232676 149.9160637
  94.2874236 106.3853083 150.7518809  93.5140728 105.2930041 150.0442947
  84.7247094  99.2873884 147.4409637  84.9755132 100.1720894 147.7067213
  85.2606642  99.1078486 146.6684729 108.5479193 102.7187381 144.1084898
 107.7942902 102.1494779 143.9528903 108.6826735 102.6850046 145.0555533
  93.9377821 107.5900784 139.7839618  93.8023496 108.4352319 140.2124465
  94.4787634 107.7920061 139.0205551  90.4245161  93.6692363 156.4453973
  90.0312107  93.1158562 157.1201617  91.2411301  93.9802942 156.8360490
  87.3907219 105.1076222 140.3567543  87.9031739 105.9019472 140.5073107
  88.0429932 104.4102512 140.2901144  89.2002104 108.2241978 142.4390296
  89.3768732 109.1459943 142.2511280  89.9958937 107.9100397 142.8684676
  93.3413122  95.0850243 154.0374229  94.0822835  95.6857396 153.9578692
  93.5731045  94.3427880 153.4792272  88.4854460 100.2706610 152.3152459
  88.3707975  99.3691867 152.6159558  87.6298978 100.5170307 151.9637276
  90.3233419 109.7420152 148.4400638  90.8740844 109.6137215 147.6677632
  89.4844895 110.0415041 148.0895531  97.2870285  91.1131345 148.3138511
  96.9434554  92.0032987 148.2377622  97.6549248  90.9233003 147.4508096
  85.3556136 103.4364876 141.1327113  86.1931358 103.8461884 140.9160821
  85.5334403 102.4964318 141.1027307  97.2520568 101.1039957 136.8210946
  96.7367191 101.8744561 137.0599334  96.9797876 100.4305093 137.4444008
  94.8367679  95.9489657 141.8796185  93.9809275  95.5596508 141.7001823
  95.2494631  96.0281618 141.0195970  96.3666825  93.4836001 146.2787744
  95.8631621  93.4466136 145.4655550  96.6597432  94.3928743 146.3384401
  92.6109711  93.5674730 145.2853926  93.4762708  93.3717539 144.9259815
  92.6787220  93.3385082 146.2123283 102.2254842 103.8572311 138.7564120
 101.4484285 103.5183471 138.3119282 102.9046323 103.8624934 138.0819085
  97.0406871  98.9767049 138.6470727  96.7357007  99.2913198 139.4980871
  97.9937313  99.0548469 138.6898060  95.4853303 105.1357272 140.2963681
  94.9574664 104.4010032 139.9836919  94.9840806 105.9131948 140.0503650
 100.4646149 103.3306292 145.4130728  99.8069823 104.0205554 145.5010856
 101.2686548 103.7202724 145.7564714  90.2172030  95.7976938 142.6570293
  90.7915782  95.5752120 141.9243486  90.8043013  95.8665633 143.4098894
  99.2751608 101.6850665 143.4634669  99.7883489 102.3180657 143.9656379
  99.9252831 101.0851861 143.0978029  90.5441618  97.8281399 136.6766178
  89.7078930  98.1656086 136.9975453  90.4046387  97.6930379 135.7393315
  92.5194698  92.6718187 141.3845362  91.8659110  92.3567204 140.7601977
  92.4775172  92.0493928 142.1105185  93.6305903 102.9537482 133.2998654
  92.7232965 102.7226736 133.4989803  94.1276935 102.1575102 133.4872636
  96.5373982 111.6634989 136.2195341  95.8635681 111.9666686 136.8280298
  96.9239804 112.4664070 135.8700798  95.7532438  99.1600121 145.7093010
  94.8355000  99.3815068 145.5514698  96.1692582  99.2346431 144.8504717
  96.5367486 100.5591536 140.8395690  97.2839305 101.0712934 140.5302812
  96.8059076 100.2375589 141.7000084  94.8094136 103.0550077 137.8222644
  93.9005356 102.7709110 137.9195114  94.8389220 103.4749156 136.9625951
 100.0413404 106.6656667 141.5913812  99.5875731 105.8247577 141.6479002
  99.4107371 107.3018065 141.9288592  98.9846323  97.5948653 142.8214479
  98.2469080  97.0826039 143.1524722  99.2373097  97.1549034 142.0097756
  98.4846343 108.5033163 142.5263630  98.7769317 109.0638220 141.8075996
  98.9944964 108.7961724 143.2816789  99.0857951  90.3724905 143.4156249
  99.3916828  89.5122268 143.1282164  99.8110556  90.9642525 143.2155243
  85.3782307 100.7755591 141.8037847  85.1806707 100.1824952 141.0788913
  84.8228971 100.4707801 142.5213785  93.3579030 100.6678698 143.9232440
  93.4127640  99.7152534 143.8474916  92.5470232 100.8238137 144.4073738
  94.5070224 104.5958821 135.1610723  94.0689654 103.8794680 134.7016360
  95.2480665 104.8234936 134.5995814  91.2971390  99.2855757 141.6822819
  90.4839256  99.5849928 142.0888011  91.7930385  98.8911446 142.3997301
  93.4479968 109.2813514 143.6157083  93.4056147 109.5074361 142.6865615
  94.3642667 109.0476889 143.7642885  96.8945602  99.7497582 150.5137713
  97.2494990  99.9769055 151.3732178  97.5417733 100.0815959 149.8914968
 102.6243339 102.8716018 141.2187042 102.4861238 103.0617614 140.2908231
 102.2679558 103.6335401 141.6755093  90.7885465  96.8574113 147.2984054
  91.4284844  96.7162872 146.6007017  89.9562996  96.5708626 146.9222656
 102.6512719 104.9392545 146.2298313 103.0849225 104.8467834 147.0781367
 103.3644299 104.9150045 145.5918329  91.5645769 106.1576543 143.4119046
  92.3586368 105.6626864 143.2101621  90.8537461 105.6294407 143.0486752
  96.3840614 108.5394639 147.7631414  96.4377636 109.1085575 148.5309130
  95.5155395 108.7096524 147.3985451  87.8728533 100.3019625 139.4878799
  86.9426121 100.2404081 139.7048761  87.9686004  99.7795578 138.6915440
  87.7914082  96.8274438 142.0757040  88.0520899  97.7419771 141.9666201
  88.6131254  96.3598881 142.2253653  89.2639007  98.2412195 149.2455865
  89.9362060  98.0329557 148.5968514  88.4368793  98.0434281 148.8061097
  95.1664579  94.8674136 151.2621526  94.5192494  95.5664086 151.1686002
  95.9365594  95.3010280 151.6297774  95.3428713 102.7054901 149.3218346
  96.2720773 102.8566061 149.1487313  94.9219743 102.7938922 148.4666992
  94.1417045 106.7305565 147.0916883  94.0028131 106.3624350 147.9642821
  93.3531641 107.2453205 146.9200841  94.7365197 111.8314662 138.4342420
  94.9116953 111.3602705 139.2488042  94.0497985 112.4580428 138.6623680
  95.6922260 106.1087168 144.4805721  95.3572093 106.0687938 145.3763371
  95.1926206 105.4431884 144.0076131  89.6666504 101.5154798 150.0058302
  89.5286302 100.7835037 150.6069841  90.5771428 101.4263698 149.7242490
  98.6281452 103.4543202 134.7542781  98.0110622 102.7290031 134.6575833
  98.1597940 104.2152563 134.4109855  92.2948805 101.2274757 149.4941982
  93.0048423 100.5867950 149.4528600  92.2518113 101.4787652 150.4168163
  91.0077739  98.2139975 151.3137621  90.4715096  97.7630714 151.9659218
  90.4194447  98.3485884 150.5708086  89.3026282 114.9804025 145.2082280
  89.5422881 115.6122549 145.8861298  88.4595479 114.6292065 145.4947639
  90.4179998  97.6728627 133.8764085  89.5409464  97.5517428 133.5126332
  90.8937751  96.8814705 133.6242974  81.9382138 102.4605786 143.9705592
  82.6253178 102.1467517 143.3826607  81.7830267 103.3647151 143.6972843
  86.7416860  97.3495983 148.3990616  86.6575049  96.7421653 147.6641026
  85.9199566  97.8405001 148.4000112  93.8154144 110.7883147 147.6123784
  93.7424316 111.5938119 148.1243088  93.3731537 110.9875113 146.7871805
  93.6043924 110.0254917 141.1226605  92.8211446 110.5676597 141.2164830
  94.3036669 110.5428897 141.5220847  96.9140574  95.8349547 143.7660811
  97.4109273  95.0819509 143.4461881  96.1427555  95.8713863 143.2004020
 104.7670331 101.5389912 145.4079102 104.7560208 102.4214628 145.0373035
 103.8987711 101.1861463 145.2133639  97.9970355 104.5921234 141.3399234
  97.0626633 104.7122696 141.1703939  98.1747023 103.6893701 141.0759244
  93.4975543  97.9766930 143.4932495  93.1273330  97.4237970 144.1813401
  93.9934635  97.3725063 142.9407495 101.3842906 100.4338553 141.8749268
 101.8503358 101.2666545 141.8009571 101.8350406  99.9683535 142.5794527
  91.3264741 108.4364425 150.5887513  92.0274201 109.0700908 150.7416908
  90.8559856 108.7779156 149.8283153  99.4519137 106.7782374 138.8735420
  99.7278981 106.6638969 139.7829294  98.5823636 106.3799859 138.8347593
  99.3559569  92.8019140 145.9140170  98.4422648  93.0323367 146.0822377
  99.7852670  92.8857584 146.7654202  99.1266027 100.9909032 148.4140064
  98.4737477 101.2384939 147.7592516  99.5046407 100.1773170 148.0802541
  96.0873201 111.0268725 142.5168234  96.2695596 110.2090381 142.9795986
  96.9106187 111.2436417 142.0793124  96.4215367 109.9536910 139.7783282
  96.9503133 109.4429365 139.1653445  96.6843586 109.6379441 140.6428815
  86.9232459 107.9700780 147.5218616  87.5085896 107.2244468 147.6546520
  86.7257298 108.2804736 148.4055280  89.7771114 111.0052027 142.5381058
  89.1081490 111.4898155 142.0545098  89.6383984 111.2521247 143.4524437
  81.5150114 100.5406380 146.2423059  81.5534214 100.0069971 147.0360177
  81.0090407 100.0141585 145.6234036  88.8940876  95.3870920 149.7385601
  88.9582203  96.2485751 149.3262999  88.8307997  94.7744922 149.0057960
  88.3693149  97.4594053 153.3858636  88.9965188  97.0771130 153.9996160
  87.5121068  97.2408255 153.7514328  85.1458692  99.2670482 139.3176991
  85.4412133  98.3581160 139.2644044  84.2446727  99.2458221 138.9957993
  97.0544770 110.9877746 146.1227399  96.9295910 110.1867486 145.6138344
  97.7123861 111.4823939 145.6341369  88.6752939  97.3426479 145.3004539
  87.9539524  97.9562446 145.1612012  89.4646194  97.8784243 145.2221185
  99.1179679 108.7886766 147.7506949  98.1710014 108.6692117 147.6785276
  99.4662452 107.9009264 147.8333210  91.4779252  94.6780905 151.5745191
  92.0013654  94.9243202 152.3371500  91.2591585  95.5100940 151.1548328
  86.8746533  96.9484580 139.4416316  86.5459239  96.0681959 139.2591422
  87.2285904  96.8932248 140.3292705  96.1226112 108.5839482 143.9511301
  95.9751074 107.6556190 144.1318871  96.9479606 108.6059573 143.4668376
  89.9888356  97.2357549 139.8091793  90.3284429  97.7643471 139.0870402
  90.4360477  97.5737956 140.5850360  99.7260234 109.4068041 145.0376174
 100.6506781 109.2010902 144.9000625  99.5575537 109.1584442 145.9465515
  92.6831797  95.6194600 149.2594861  92.3428618  94.8202413 149.6615541
  91.9770803  95.9196311 148.6871695  93.3348269  92.7043913 147.7122184
  94.1574338  92.2304391 147.5901075  93.5786333  93.4834396 148.2120871
  91.9756503  95.7332171 138.0085086  92.6964866  96.1113424 137.5048803
  91.3521808  96.4521048 138.1120064  96.1187626  96.4377320 138.9443418
  96.3351241  97.3201958 138.6432247  95.6381693  96.0463533 138.2149060
  90.8586848  99.3963033 145.5214163  90.7131428  99.7103336 146.4138445
  90.3812051 100.0147934 144.9685062  92.7183231  96.3865581 145.5695053
  92.7044799  95.4906675 145.2327351  93.4355659  96.3936245 146.2033339
  94.5709361  96.8202921 147.6148180  94.3127139  97.7419992 147.6132510
  94.0394402  96.4233356 148.3048644  99.5155550 109.9253709 140.3938265
  99.6892428 109.3600131 139.6412118 100.0084441 110.7254603 140.2117755
  85.3332510 101.9368378 148.4601824  84.7885978 102.7128186 148.5922099
  86.2111860 102.2839182 148.3020946  92.1220127  95.2679962 140.8382623
  92.2436038  94.3396608 141.0373510  91.8322169  95.2818647 139.9260938
  94.9911317  92.9534872 143.9749343  95.0133014  93.0174205 143.0201322
  95.4079376  92.1139381 144.1689849 105.3694941 102.6890131 142.0128565
 105.8126087 101.9397457 141.6147688 104.4921452 102.6800268 141.6302297
 100.5030723 109.2420473 137.4935164 101.1981627 109.8627166 137.7122478
 100.8453873 108.3915824 137.7687542  86.1198532 101.0638274 151.3531981
  85.3780268 101.2120909 151.9396612  85.7991276 101.3246540 150.4898731
 102.4022146 106.6920178 139.0222494 102.9273470 107.0307451 138.2971815
 102.3144498 105.7567194 138.8385629  94.0862806 112.7592162 143.3817748
  93.6467797 112.2668540 144.0750604  94.8370923 112.2165129 143.1409823
  86.5655145 108.9503703 143.3842376  87.3913165 108.6507474 143.0041019
  86.2149197 108.1811325 143.8332164  91.5336679 108.3030171 145.4540049
  90.9116688 107.6400876 145.1542277  92.2041545 108.3291303 144.7713697
  84.7663750 106.8690029 144.3431309  83.9295659 106.4412203 144.1615311
  84.7387396 107.0622472 145.2802101  91.6061206  96.7811959 155.0472555
  91.6549362  97.6574082 154.6650325  92.1483720  96.2389352 154.4744199
  91.0950185 106.8534094 138.9298510  91.2438306 107.5369559 138.2765183
  91.9016629 106.8339184 139.4447966  93.8360495  97.5343331 151.8018914
  92.9663804  97.8276897 151.5301503  94.0719975  98.1183776 152.5226178
 104.9127806 104.1595370 144.4051013 105.7474697 104.5985174 144.5688573
 105.0486935 103.6834023 143.5859259 101.9619312 101.7175105 150.3528501
 102.4373433 101.9102751 149.5447352 101.0384877 101.7734290 150.1071884
  88.8502818 102.8799272 139.9359579  88.6048860 101.9761602 140.1339789
  89.0198733 102.8816422 138.9939057  96.5399528  93.7522948 149.3184334
  97.0581472  94.4883975 148.9930823  96.1854661  94.0586941 150.1531094
  88.1198466  98.6127629 137.4345740  87.4267711  98.6871984 136.7785776
  87.8750218  97.8487973 137.9567257  96.7912123  90.1723231 144.8385231
  97.0713876  89.5046420 145.4645658  97.5762729  90.3652326 144.3259895
  94.5945591 109.3482225 136.4010257  94.0219558 109.9672412 135.9480729
  95.1678385 109.8981586 136.9350179 100.6620981  98.5940865 148.5856806
 101.6138404  98.6938962 148.6069030 100.4924431  97.8019133 149.0954890
  98.6835360  95.6796448 148.7716207  98.0885292  95.9601461 148.0762696
  98.3985057  96.1690349 149.5432948  97.8142851 109.6319375 137.5318840
  98.7473524 109.5664936 137.7351715  97.7266064 110.4675642 137.0733372
 100.4430867 108.9485245 134.4922787 100.3644499 108.6145109 135.3858545
 101.2640534 109.4407013 134.4914259 103.1409059 101.8146984 147.6999106
 103.1085379 100.8762985 147.8858790 103.7509682 101.8931021 146.9664931
  94.9792390 100.6843037 133.7426310  95.9251494 100.5549245 133.8114728
  94.6006634  99.9457699 134.2195738 103.2903547  98.6058028 147.7457389
 102.7742596  97.8216484 147.5587318 104.1743496  98.2776744 147.9103908
 100.9514274  92.3499043 143.7053202 100.7539095  92.0414132 144.5896534
 101.5613980  93.0760682 143.8351131 108.9585609 102.8762991 146.8405143
 109.6888997 102.6148279 147.4012846 108.3492554 102.1391713 146.8807211
 107.0400906 101.0170854 147.4379594 106.3134069 100.8826819 146.8296085
 106.6248193 101.3247682 148.2436312  93.1635307  98.6093014 133.6781195
  92.2566762  98.3126126 133.7543909  93.4411288  98.3122832 132.8115481
  84.0813247  99.9299377 144.1280241  83.7616031  99.0764685 143.8354615
  83.5346675 100.1447955 144.8838209  87.8593155 102.6461818 147.8449748
  88.0779164 103.5778926 147.8637782  88.2718928 102.2869793 148.6304552
  94.7797372  93.1529903 139.8325436  93.9698101  92.8076988 140.2080682
  95.4681789  92.8437447 140.4213048  96.7087921  92.2307950 141.4549733
  97.2618959  92.6503404 142.1139756  96.9458007  91.3043698 141.4972689
  91.9334091  95.4679949 133.8193174  92.7953255  95.7934847 134.0788992
  92.1184435  94.6811445 133.3066240  83.9501507 103.5502289 146.0973363
  83.2564978 103.1356241 145.5843317  84.6974498 103.5922825 145.5006782
 100.0866728  94.3408475 140.9628397  99.5065397  94.9993279 140.5806450
  99.8202660  93.5185820 140.5515815  98.5370294  93.7413533 143.1649718
  99.0370073  93.8530068 142.3564036  99.1805902  93.4374586 143.8050526
  85.8638250 103.4820542 143.9739378  85.8408938 103.5808230 143.0221261
  86.1738886 104.3285693 144.2956544  88.5225627 105.5396697 148.0885992
  89.4768881 105.5080640 148.0215924  88.3238151 105.0787321 148.9036218
  89.1125010 104.1097814 150.6556790  89.9317899 104.6041892 150.6791627
  89.3861817 103.1929782 150.6274357  98.8691606  96.5008566 140.0184745
  97.9817461  96.7858216 139.8004940  99.2845595  96.3402329 139.1712022
 102.2206142  96.5255087 143.7339085 102.9966532  97.0151539 144.0063702
 101.4954276  96.9513141 144.1910954 104.6578701  97.2382706 144.7913025
 105.2523191  96.9978442 144.0806334 104.7305284  96.5189837 145.4186562
  86.8775856 111.0816317 145.1056190  86.7430324 110.3216718 144.5394188
  86.4607919 111.8057217 144.6384979  98.0134819 106.2653241 134.1132765
  98.7170669 106.4703243 134.7290421  97.2897468 106.8330002 134.3781849
  98.8432630 102.0163102 140.2335036  98.7867831 102.4731653 139.3942668
  99.3960972 101.2553786 140.0557878 102.6537435  97.8052834 141.0585155
 102.3974370  97.4049469 141.8893363 102.0290303  98.5196628 140.9335294
 106.9649773 100.5448907 143.5656447 106.4049331 100.6142096 144.3388009
 106.3593277 100.3689892 142.8455943  90.0344982 111.9785634 145.3174633
  89.9177366 112.9231066 145.2153323  89.2137428 111.6759196 145.7060432
  99.9221517 106.7035770 136.1631226 100.7567121 106.2716968 135.9808700
  99.7605860 106.5317783 137.0908120  99.5767409 103.2067883 137.5287565
  99.5216213 103.0412154 136.5876009  98.9513464 103.9143916 137.6849755
  84.3659924  98.4435947 151.3548987  85.0118787  97.9334901 151.8436212
  84.1577075  99.1804629 151.9292412  92.8863534  92.7075992 137.1072883
  92.8742204  93.6517832 137.2641154  93.7786956  92.5246137 136.8132344
  91.0599496 112.6313896 148.5330561  91.9626743 112.6637506 148.8497056
  90.8336866 111.7014347 148.5476897  92.8153098 111.3844882 145.1940640
  91.8648729 111.3846744 145.0805012  93.1185584 110.6377617 144.6776674
  96.7015654  89.3018769 141.3618820  95.9348050  88.7477255 141.5075502
  97.1126359  89.3740637 142.2232972  88.7057415  95.5903564 155.4524001
  89.5688876  95.2340369 155.6627326  88.1322825  95.2517459 156.1399406
 100.7237500 119.7828430 137.8946417 101.4968376 119.2357417 137.7559293
 101.0762898 120.6472680 138.1060879 103.0603777 115.9421096 135.5264867
 103.3129298 115.4202618 134.7648330 102.1228337 115.7787242 135.6291551
 102.7800066 117.8449202 137.7289242 102.6636324 117.1694106 138.3970326
 102.8902326 117.3581576 136.9121395 104.7637094 112.3349249 136.4297280
 104.9311496 113.2029485 136.7967751 104.5734263 112.4976531 135.5058569
 104.7426315 114.7906907 137.4143947 104.6225940 115.2363957 138.2529427
 104.0478903 115.1392224 136.8557485 110.4411381 115.2628380 138.2424281
 111.3529237 115.4955767 138.0671978 109.9321028 115.8465424 137.6799359
 103.5377811 116.1051759 139.7077512 104.2401855 116.5572802 140.1751439
 103.2058440 115.4635578 140.3357405  97.2803145 114.3635311 145.0094646
  96.4902199 114.6192840 144.5334757  97.7714393 115.1783649 145.1146686
  99.2317891 114.7279891 141.9678123  98.4349054 114.8398585 142.4861618
  99.0043483 115.0666543 141.1019013  98.2300973 120.4368139 140.3567543
  98.7425494 121.2311390 140.5073107  98.8823686 119.7394430 140.2901144
  96.1949890 118.7656794 141.1327113  97.0325112 119.1753802 140.9160821
  96.3728158 117.8256236 141.1027307 108.0914322 116.4331874 136.8210946
 107.5760946 117.2036479 137.0599334 107.8191631 115.7597010 137.4444008
 105.6761433 111.2781575 141.8796185 104.8203030 110.8888425 141.7001823
 106.0888385 111.3573536 141.0195970 103.4503466 108.8966648 145.2853926
 104.3156463 108.7009457 144.9259815 103.5180975 108.6677000 146.2123283
 107.8800625 114.3058966 138.6470727 107.5750761 114.6205116 139.4980871
 108.8331068 114.3840386 138.6898060 101.0565785 111.1268856 142.6570293
 101.6309537 110.9044037 141.9243486 101.6436767 111.1957550 143.4098894
 101.3835372 113.1573317 136.6766178 100.5472684 113.4948004 136.9975453
 101.2440142 113.0222297 135.7393315 103.3588453 108.0010105 141.3845362
 102.7052865 107.6859122 140.7601977 103.3168927 107.3785845 142.1105185
 104.4699657 118.2829400 133.2998654 103.5626719 118.0518653 133.4989803
 104.9670689 117.4867019 133.4872636 105.6487891 118.3841995 137.8222644
 104.7399110 118.1001028 137.9195114 105.6782975 118.8041073 136.9625951
 109.9251705 105.7016822 143.4156249 110.2310582 104.8414186 143.1282164
 110.6504310 106.2934443 143.2155243  96.2176061 116.1047509 141.8037847
  96.0200461 115.5116870 141.0788913  95.6622725 115.7999719 142.5213785
 105.3463979 119.9250738 135.1610723 104.9083409 119.2086597 134.7016360
 106.0874420 120.1526853 134.5995814 102.1365145 114.6147675 141.6822819
 101.3233010 114.9141846 142.0888011 102.6324139 114.2203364 142.3997301
  98.7122287 115.6311543 139.4878799  97.7819875 115.5695998 139.7048761
  98.8079759 115.1087496 138.6915440  98.6307836 112.1566356 142.0757040
  98.8914653 113.0711689 141.9666201  99.4525008 111.6890798 142.2253653
 109.4675206 118.7835120 134.7542781 108.8504377 118.0581948 134.6575833
 108.9991695 119.5444480 134.4109855 101.2573752 113.0020544 133.8764085
 100.3803219 112.8809345 133.5126332 101.7331505 112.2106623 133.6242974
  92.7775892 117.7897704 143.9705592  93.4646932 117.4759434 143.3826607
  92.6224021 118.6939069 143.6972843 107.7534328 111.1641464 143.7660811
 108.2503028 110.4111427 143.4461881 106.9821310 111.2005781 143.2004020
 104.3369297 113.3058847 143.4932495 103.9667085 112.7529888 144.1813401
 104.8328390 112.7016981 142.9407495  92.3543868 115.8698298 146.2423059
  92.3927968 115.3361888 147.0360177  91.8484161 115.3433503 145.6234036
  95.9852446 114.5962400 139.3176991  96.2805887 113.6873078 139.2644044
  95.0840482 114.5750139 138.9957993  99.5146693 112.6718396 145.3004539
  98.7933279 113.2854364 145.1612012 100.3039949 113.2076161 145.2221185
  97.7140288 112.2776497 139.4416316  97.3852994 111.3973876 139.2591422
  98.0679658 112.2224166 140.3292705 100.8282111 112.5649467 139.8091793
 101.1678183 113.0935388 139.0870402 101.2754231 112.9029873 140.5850360
 102.8150258 111.0624089 138.0085086 103.5358620 111.4405342 137.5048803
 102.1915562 111.7812966 138.1120064 106.9581381 111.7669238 138.9443418
 107.1744995 112.6493876 138.6432247 106.4775448 111.3755451 138.2149060
 102.9613881 110.5971879 140.8382623 103.0829792 109.6688525 141.0373510
 102.6715923 110.6110565 139.9260938 105.8305071 108.2826790 143.9749343
 105.8526768 108.3466123 143.0201322 106.2473130 107.4431298 144.1689849
 101.9343940 122.1826012 138.9298510 102.0832060 122.8661476 138.2765183
 102.7410383 122.1631102 139.4447966  99.6896573 118.2091190 139.9359579
  99.4442615 117.3053519 140.1339789  99.8592488 118.2108340 138.9939057
  98.9592221 113.9419547 137.4345740  98.2661465 114.0163902 136.7785776
  98.7143972 113.1779891 137.9567257 107.6305877 105.5015148 144.8385231
 107.9107631 104.8338337 145.4645658 108.4156484 105.6944244 144.3259895
 105.8186144 116.0134955 133.7426310 106.7645249 115.8841163 133.8114728
 105.4400389 115.2749617 134.2195738 104.0029061 113.9384931 133.6781195
 103.0960517 113.6418044 133.7543909 104.2805042 113.6414750 132.8115481
  94.9207002 115.2591295 144.1280241  94.6009786 114.4056603 143.8354615
  94.3740430 115.4739873 144.8838209 105.6191127 108.4821821 139.8325436
 104.8091855 108.1368906 140.2080682 106.3075544 108.1729365 140.4213048
 107.5481675 107.5599868 141.4549733 108.1012714 107.9795321 142.1139756
 107.7851762 106.6335616 141.4972689 102.7727846 110.7971867 133.8193174
 103.6347010 111.1226765 134.0788992 102.9578190 110.0103363 133.3066240
 110.9260482 109.6700393 140.9628397 110.3459151 110.3285197 140.5806450
 110.6596415 108.8477738 140.5515815 109.3764049 109.0705451 143.1649718
 109.8763827 109.1821985 142.3564036 110.0199657 108.7666504 143.8050526
 109.7085360 111.8300484 140.0184745 108.8211215 112.1150134 139.8004940
 110.1239349 111.6694247 139.1712022 108.8528574 121.5945158 134.1132765
 109.5564424 121.7995161 134.7290421 108.1291223 122.1621920 134.3781849
 110.4161163 118.5359801 137.5287565 110.3609967 118.3704072 136.5876009
 109.7907219 119.2435834 137.6849755 103.7257289 108.0367910 137.1072883
 103.7135959 108.9809750 137.2641154 104.6180711 107.8538055 136.8132344
 107.5409408 104.6310686 141.3618820 106.7741804 104.0769173 141.5075502
 107.9520113 104.7032555 142.2232972  52.6013101  23.0541827 124.2204589
  51.9501081  23.6395908 123.8338603  53.3957464  23.5848022 124.2799627
  46.5268728  20.1430964 124.6191724  47.2999604  19.5959951 124.4804600
  46.8794127  21.0075214 124.8306185  48.8635006  16.3023631 122.2510174
  49.1160527  15.7805152 121.4893637  47.9259565  16.1389776 122.3536857
  54.0788366  20.7432259 124.7573574  53.4434199  20.8166886 125.4694478
  53.7485773  21.3325858 124.0792653  48.5831295  18.2051736 124.4534549
  48.4667553  17.5296640 125.1215633  48.6933555  17.7184110 123.6366702
  50.5668323  12.6951783 123.1542586  50.7342725  13.5632020 123.5213057
  50.3765492  12.8579065 122.2303876  50.5457544  15.1509441 124.1389253
  50.4257169  15.5966492 124.9774734  49.8510132  15.4994758 123.5802791
  48.3064436  27.9213083 127.7879384  48.2288466  28.8720908 127.8667865
  47.7026079  27.5758955 128.4454311  56.2442610  15.6230914 124.9669587
  57.1560466  15.8558301 124.7917285  55.7352257  16.2067958 124.4044666
  58.7301424  21.5411170 129.7127533  58.0452462  21.9210072 129.1624566
  58.8145273  22.1506497 130.4459480  65.1904177  18.4081833 130.8330205
  64.4367885  17.8389231 130.6774209  65.3251718  18.3744498 131.7800840
  50.5802805  23.2795235 126.5084924  50.4448480  24.1246771 126.9369772
  51.1212617  23.4814513 125.7450858  53.8945551  16.7934408 123.5456253
  53.3792175  17.5639013 123.7844640  53.6222860  16.1199545 124.1689314
  58.8679825  19.5466763 125.4809426  58.0909268  19.2077923 125.0364588
  59.5471306  19.5519386 124.8064391  53.6831854  14.6661501 125.3716034
  53.3781990  14.9807650 126.2226177  54.6362296  14.7442920 125.4143367
  52.1278286  20.8251724 127.0208988  51.5999648  20.0904483 126.7082225
  51.6265789  21.6026400 126.7748956  50.2730886  18.6431934 120.0243961
  49.3657948  18.4121188 120.2235110  50.7701918  17.8469553 120.2117943
  53.1798965  27.3529441 122.9440647  52.5060664  27.6561138 123.5525605
  53.5664787  28.1558522 122.5946104  51.4519120  18.7444529 124.5467951
  50.5430339  18.4603562 124.6440421  51.4814204  19.1643608 123.6871258
  56.6838387  22.3551119 128.3159119  56.2300714  21.5142028 128.3724309
  56.0532354  22.9912517 128.6533899  55.1271326  24.1927615 129.2508937
  55.4194301  24.7532672 128.5321302  55.6369947  24.4856176 130.0062096
  51.1495208  20.2853273 121.8856030  50.7114637  19.5689132 121.4261667
  51.8905648  20.5129388 121.3241121  50.0904952  24.9707966 130.3402390
  50.0481130  25.1968813 129.4110922  51.0067650  24.7371341 130.4888191
  59.2668322  18.5610470 127.9432348  59.1286221  18.7512066 127.0153537
  58.9104541  19.3229853 128.4000399  51.3790180  27.5209114 125.1587726
  51.5541936  27.0497157 125.9733349  50.6922968  28.1474880 125.3868987
  55.2706435  19.1437654 121.4788087  54.6535606  18.4184483 121.3821140
  54.8022924  19.9047015 121.1355162  45.9451266  30.6698477 131.9327587
  46.1847864  31.3017001 132.6106605  45.1020462  30.3186517 132.2192946
  47.0604981  13.3623079 120.6009392  46.1834447  13.2411879 120.2371638
  47.5362734  12.5709157 120.3488280  50.2468907  25.7149369 127.8471912
  49.4636429  26.2571049 127.9410137  50.9461652  26.2323349 128.2466153
  54.6395338  20.2815686 128.0644541  53.7051617  20.4017148 127.8949245
  54.8172006  19.3788152 127.8004551  58.0267889  16.1233005 128.5994575
  58.4928341  16.9560997 128.5254878  58.4775390  15.6577987 129.3039833
  56.0944120  22.4676826 125.5980727  56.3703964  22.3533421 126.5074601
  55.2248619  22.0694311 125.5592900  52.7298184  26.7163177 129.2413541
  52.9120579  25.8984833 129.7041293  53.5531170  26.9330869 128.8038431
  53.0640350  25.6431362 126.5028589  53.5928116  25.1323817 125.8898751
  53.3268569  25.3273892 127.3674122  46.4196098  26.6946479 129.2626365
  45.7506473  27.1792607 128.7790405  46.2808967  26.9415699 130.1769744
  53.6969754  26.6772198 132.8472706  53.5720893  25.8761938 132.3383651
  54.3548845  27.1718391 132.3586676  52.7651095  24.2733934 130.6756608
  52.6176058  23.3450642 130.8564178  53.5904589  24.2954025 130.1913683
  56.3685217  25.0962493 131.7621481  57.2931765  24.8905354 131.6245932
  56.2000521  24.8478894 132.6710822  56.1580533  25.6148160 127.1183572
  56.3317411  25.0494583 126.3657425  56.6509425  26.4149055 126.9363062
  62.0119925  18.3784583 128.7373872  62.4551071  17.6291909 128.3392995
  61.1346435  18.3694720 128.3547604  57.1455706  24.9314925 124.2180470
  57.8406611  25.5521618 124.4367785  57.4878856  24.0810276 124.4932848
  59.0447129  22.3814630 125.7467801  59.5698453  22.7201903 125.0217121
  58.9569482  21.4461646 125.5630936  50.7287790  28.4486614 130.1063054
  50.2892780  27.9562992 130.7995911  51.4795907  27.9059581 129.8655130
  47.7375169  22.5428546 125.6543817  47.8863289  23.2264010 125.0010489
  48.5441612  22.5233636 126.1693272  61.5552789  19.8489822 131.1296319
  62.3899681  20.2879626 131.2933880  61.6911918  19.3728475 130.3104565
  51.2370574  25.0376677 123.1255564  50.6644541  25.6566864 122.6726036
  51.8103368  25.5876038 123.6595486  54.4567834  25.3213827 124.2564146
  55.3898507  25.2559388 124.4597022  54.3691047  26.1570094 123.7978679
  57.0855851  24.6379697 121.2168094  57.0069482  24.3039561 122.1103852
  57.9065518  25.1301465 121.2159566  51.6217373  16.3737489 120.4671616
  52.5676478  16.2443697 120.5360034  51.2431618  15.6352151 120.9441045
  49.8060290  14.2987466 120.4026502  48.8991745  14.0020578 120.4789215
  50.0836271  14.0017284 119.5360788  48.5759075  11.1574401 120.5438481
  49.4378239  11.4829299 120.8034298  48.7609419  10.3705897 120.0311547
  54.6559803  21.9547692 120.8378072  55.3595653  22.1597695 121.4535728
  53.9322451  22.5224454 121.1027156  55.4857613  17.7057554 126.9580342
  55.4292814  18.1626105 126.1187975  56.0385955  16.9448238 126.7803185
  63.6074757  16.2343359 130.2901753  63.0474315  16.3036548 131.0633315
  63.0018260  16.0584343 129.5701249  56.5646500  22.3930222 122.8876532
  57.3992104  21.9611420 122.7054007  56.4030843  22.2212235 123.8153427
  56.2192392  18.8962335 124.2532871  56.1641196  18.7306606 123.3121316
  55.5938447  19.6038368 124.4095061  49.4578082  27.0739334 131.9185947
  48.5073713  27.0741196 131.8050319  49.7610568  26.3272069 131.4021981
  65.1930775  32.9099873 132.9831709  65.8309185  32.7906620 132.2795049
  65.0751618  33.8580717 133.0419661  62.0020481  32.8627301 132.9193234
  61.6638993  32.7468366 132.0313768  62.8710250  32.4618466 132.8994240
  57.8607297  34.7162777 128.9090125  57.2972162  34.6252714 128.1406412
  57.7459692  33.8962682 129.3892617  62.4840264  34.0162153 138.8779439
  62.4728905  33.6214951 138.0059943  62.6460904  33.2828225 139.4713211
  55.4071729  36.2113969 131.7474345  56.1993021  35.8704793 131.3320644
  55.6468379  36.3208944 132.6676498  63.4406856  38.3833745 124.2204589
  62.7894836  38.9687825 123.8338603  64.2351219  38.9139940 124.2799627
  57.3662483  35.4722882 124.6191724  58.1393359  34.9251869 124.4804600
  57.7187882  36.3367131 124.8306185  59.2047525  36.7999264 137.8258623
  58.9137391  37.7044895 137.7105289  59.8404510  36.8415792 138.5402693
  60.1303732  34.1776113 134.4159983  60.7267305  33.9532135 133.7016946
  60.1878704  33.4360858 135.0185431  59.7028761  31.6315548 122.2510174
  59.9554281  31.1097069 121.4893637  58.7653320  31.4681694 122.3536857
  64.7472044  30.6351327 130.0584917  65.5335133  30.2170750 129.7075334
  65.0110748  31.5397419 130.2266565  64.9182121  36.0724177 124.7573574
  64.2827954  36.1458803 125.4694478  64.5879527  36.6617776 124.0792653
  70.1480471  30.5726560 130.9617895  70.8805643  30.0025777 131.1955725
  69.3919826  30.1848160 131.4024401  59.4225049  33.5343654 124.4534549
  59.3061308  32.8588558 125.1215633  59.5327309  33.0476028 123.6366702
  61.7656590  32.9953801 128.1581238  61.4014798  32.4684422 128.8694159
  62.6223706  32.6052270 127.9847723  67.6705891  24.2848134 135.4212504
  67.3389216  25.1543545 135.1973719  67.0751504  23.9684418 136.1006534
  61.4062077  28.0243701 123.1542586  61.5736480  28.8923937 123.5213057
  61.2159246  28.1870983 122.2303876  64.1637411  36.4860680 134.8208417
  63.8638134  37.3885719 134.7124224  63.8188470  36.2192863 135.6729570
  57.6149892  32.9374477 130.8545121  56.6900389  32.8050691 131.0622813
  57.8634305  33.7168696 131.3515064  67.5634554  29.0043220 132.5005854
  66.6551432  28.9358628 132.2064615  67.5122150  29.4815165 133.3287680
  61.3851298  30.4801358 124.1389253  61.2650923  30.9258409 124.9774734
  60.6903887  30.8286676 123.5802791  54.9758703  32.5807750 131.6888910
  55.1051084  32.8342229 132.6028322  54.2956154  33.1735458 131.3693565
  59.1458190  43.2505000 127.7879384  59.0682220  44.2012825 127.8667865
  58.5419834  42.9050873 128.4454311  69.4296201  27.2059658 134.2783728
  68.7870581  27.4992192 133.6323523  68.9251129  27.0912579 135.0836925
  67.0836364  30.9522832 124.9669587  67.9954221  31.1850218 124.7917285
  66.5746011  31.5359876 124.4044666  59.8921792  33.2318319 140.0058718
  60.6336477  33.7703363 139.7293542  59.1858778  33.8584608 140.1630270
  65.3677132  35.3747459 138.6030880  65.7760488  34.9329870 137.8585512
  64.6454394  34.8000087 138.8565073  61.7208202  30.3120066 135.9764437
  62.5669397  30.7359480 136.1199086  61.6606840  29.6553691 136.6703000
  65.6905947  35.9348650 132.3583169  65.0614809  36.0994364 131.6559237
  65.3031609  36.3490260 133.1294133  69.5695179  36.8703088 129.7127533
  68.8846217  37.2501989 129.1624566  69.6539028  37.4798415 130.4459480
  64.8707647  27.9724435 137.6345610  64.6268579  28.7266495 137.0979886
  65.1467578  28.3509782 138.4692858  66.8246110  34.5163047 136.3122876
  67.0363005  35.1594807 135.6357257  66.7775858  33.6825364 135.8444806
  64.4272339  27.1280868 133.2159448  63.5656818  27.4262121 133.5076186
  64.4534774  27.3451267 132.2840481  61.2433909  35.6723058 129.6233254
  61.7072254  35.9510761 128.8337876  60.9790707  34.7706503 129.4406345
  58.1357990  35.2194540 132.5613017  58.7059347  35.6481808 131.9230502
  58.7266102  34.9377124 133.2597203  60.1802795  31.7946211 126.4322819
  60.8826838  32.2467254 126.8996745  59.8483423  31.1530029 127.0602712
  53.9228129  30.0529763 131.7339953  53.1327183  30.3087292 131.2580063
  54.4139376  30.8678101 131.8391993  67.9391938  37.3935002 134.4845233
  68.7609382  36.9915190 134.2027915  67.9354341  37.2903237 135.4361349
  55.8742874  30.4174342 128.6923429  55.0774037  30.5293037 129.2106925
  55.6468466  30.7560995 127.8264320  61.7048542  36.9419046 136.6405944
  61.7692974  37.4039453 137.4764116  60.9959465  36.3116411 136.7688254
  52.2065832  30.3060254 134.1654943  52.4573870  31.1907264 134.4312519
  52.7425380  30.1264855 133.3930035  76.0297931  33.7373751 130.8330205
  75.2761640  33.1681149 130.6774209  76.1645472  33.7036415 131.7800840
  61.4196559  38.6087153 126.5084924  61.2842234  39.4538689 126.9369772
  61.9606372  38.8106431 125.7450858  54.8725957  36.1262591 127.0812849
  55.3850477  36.9205841 127.2318414  55.5248669  35.4288882 127.0146451
  56.6820841  39.2428347 129.1635602  56.8587470  40.1646312 128.9756586
  57.4777675  38.9286767 129.5929982  63.0465036  39.2310720 140.6385266
  62.6028890  38.4447098 140.3206171  63.7082249  39.4189870 139.9729157
  57.8052157  40.7606521 135.1645945  58.3559582  40.6323585 134.3922939
  56.9663633  41.0601410 134.8140838  65.1446274  39.5113520 138.6666668
  65.1264749  40.3322401 138.1746937  66.0666194  39.3867595 138.8916809
  61.6019328  37.0257649 139.5090176  62.1347665  36.2645937 139.2789484
  61.0733409  36.7331301 140.2514330  64.7689023  22.1317715 135.0383818
  64.4253292  23.0219357 134.9622928  65.1367985  21.9419373 134.1753403
  52.8374873  34.4551246 127.8572420  53.6750095  34.8648254 127.6406128
  53.0153141  33.5150688 127.8272614  64.7339306  32.1226326 123.5456253
  64.2185929  32.8930931 123.7844640  64.4616614  31.4491462 124.1689314
  62.3186417  26.9676027 128.6041491  61.4628013  26.5782877 128.4247130
  62.7313368  27.0467988 127.7441277  63.8485563  24.5022370 133.0033051
  63.3450359  24.4652505 132.1900856  64.1416170  25.4115113 133.0629708
  60.0928449  24.5861100 132.0099233  60.9581446  24.3903909 131.6505122
  60.1605958  24.3571452 132.9368589  69.7073580  34.8758681 125.4809426
  68.9303022  34.5369840 125.0364588  70.3865061  34.8811304 124.8064391
  64.5225609  29.9953418 125.3716034  64.2175744  30.3099567 126.2226177
  65.4756051  30.0734838 125.4143367  62.9672041  36.1543642 127.0208988
  62.4393402  35.4196401 126.7082225  62.4659543  36.9318318 126.7748956
  67.9464887  34.3492662 132.1376034  67.2888561  35.0391923 132.2256163
  68.7505286  34.7389094 132.4810021  57.6990768  26.8163308 129.3815599
  58.2734520  26.5938489 128.6488792  58.2861751  26.8852002 130.1344201
  66.7570345  32.7037035 130.1879976  67.2702227  33.3367027 130.6901686
  67.4071569  32.1038230 129.8223336  58.0260355  28.8467769 123.4011485
  57.1897668  29.1842455 123.7220759  57.8865125  28.7116749 122.4638622
  60.0013436  23.6904557 128.1090669  59.3477848  23.3753574 127.4847284
  59.9593910  23.0680297 128.8350492  61.1124641  33.9723852 120.0243961
  60.2051703  33.7413105 120.2235110  61.6095673  33.1761471 120.2117943
  64.0192720  42.6821359 122.9440647  63.3454418  42.9853056 123.5525605
  64.4058542  43.4850439 122.5946104  63.2351176  30.1786490 132.4338317
  62.3173738  30.4001437 132.2760005  63.6511320  30.2532801 131.5750024
  64.0186224  31.5777906 127.5640997  64.7658043  32.0899303 127.2548119
  64.2877814  31.2561959 128.4245390  62.2912874  34.0736447 124.5467951
  61.3824093  33.7895480 124.6440421  62.3207958  34.4935525 123.6871258
  67.5232142  37.6843036 128.3159119  67.0694469  36.8433946 128.3724309
  66.8926108  38.3204435 128.6533899  66.4665061  28.6135022 129.5459786
  65.7287818  28.1012408 129.8770029  66.7191835  28.1735404 128.7343063
  65.9665081  39.5219533 129.2508937  66.2588055  40.0824590 128.5321302
  66.4763701  39.8148094 130.0062096  66.5676688  21.3911274 130.1401555
  66.8735565  20.5308638 129.8527470  67.2929293  21.9828894 129.9400549
  52.8601045  31.7941961 128.5283153  52.6625444  31.2011322 127.8034220
  52.3047709  31.4894171 129.2459092  60.8397768  31.6865067 130.6477746
  60.8946378  30.7338904 130.5720223  60.0288970  31.8424506 131.1319045
  61.9888962  35.6145190 121.8856030  61.5508392  34.8981049 121.4261667
  62.7299403  35.8421305 121.3241121  58.7790128  30.3042127 128.4068125
  57.9657994  30.6036298 128.8133317  59.2749122  29.9097816 129.1242608
  60.9298706  40.2999884 130.3402390  60.8874885  40.5260730 129.4110922
  61.8461405  40.0663259 130.4888191  64.3764340  30.7683952 137.2383019
  64.7313728  30.9955425 138.0977485  65.0236471  31.1002328 136.6160274
  70.1062077  33.8902387 127.9432348  69.9679975  34.0803983 127.0153537
  69.7498296  34.6521770 128.4000399  58.2704203  27.8760483 134.0229360
  58.9103582  27.7349242 133.3252324  57.4381733  27.5894996 133.6467962
  70.1331456  35.9578914 132.9543620  70.5667963  35.8654204 133.8026674
  70.8463037  35.9336415 132.3163636  59.0464507  37.1762913 130.1364353
  59.8405105  36.6813233 129.9346928  58.3356199  36.6480776 129.7732058
  63.8659351  39.5581009 134.4876720  63.9196374  40.1271945 135.2554436
  62.9974133  39.7282894 134.1230757  55.3547270  31.3205995 126.2124105
  54.4244858  31.2590450 126.4294068  55.4504742  30.7981947 125.4160747
  55.2732819  27.8460808 128.8002347  55.5339637  28.7606141 128.6911508
  56.0949992  27.3785250 128.9498960  56.7457745  29.2598565 135.9701172
  57.4180798  29.0515927 135.3213820  55.9187531  29.0620651 135.5306404
  70.9947006  36.0002615 135.4876505  71.1882896  36.9048426 135.7335780
  70.8947624  35.5410034 136.3215090  66.0562115  36.1509358 141.0617386
  65.9047621  35.9219910 140.1447469  66.0466794  37.1079959 141.0748731
  62.8247451  33.7241271 136.0463652  63.7539511  33.8752430 135.8732619
  62.4038481  33.8125291 135.1912299  61.6235783  37.7491935 133.8162190
  61.4846869  37.3810719 134.6888128  60.8350379  38.2639574 133.6446148
  62.2183935  42.8501031 125.1587726  62.3935690  42.3789075 125.9733349
  61.5316723  43.4766798 125.3868987  63.1740998  37.1273538 131.2051028
  62.8390831  37.0874308 132.1008677  62.6744944  36.4618254 130.7321438
  57.1485242  32.5341168 136.7303609  57.0105040  31.8021407 137.3315148
  58.0590165  32.4450068 136.4487797  66.1100190  34.4729572 121.4788087
  65.4929360  33.7476400 121.3821140  65.6416678  35.2338932 121.1355162
  59.7767543  32.2461127 136.2187288  60.4867161  31.6054319 136.1773907
  59.7336851  32.4974022 137.1413469  67.7654321  39.1828480 139.1393868
  67.7066867  38.4987701 138.4724451  68.1673840  39.9247470 138.6874494
  56.7845020  45.9990394 131.9327587  57.0241618  46.6308918 132.6106605
  55.9414217  45.6478434 132.2192946  57.8998736  28.6914996 120.6009392
  57.0228202  28.5703797 120.2371638  58.3756489  27.9001075 120.3488280
  67.7671729  37.1468064 137.3707847  66.8798507  36.8093986 137.4934246
  68.3370280  36.4151096 137.6076613  49.4200876  33.4792156 130.6950899
  50.1071916  33.1653886 130.1071914  49.2649004  34.3833521 130.4218150
  61.2972882  41.8069517 134.3369090  61.2243053  42.6124488 134.8488395
  60.8550275  42.0061482 133.5117112  61.0862662  41.0441287 127.8471912
  60.3030183  41.5862967 127.9410137  61.7855407  41.5615266 128.2466153
  64.3959312  26.8535916 130.4906117  64.8928011  26.1005878 130.1707188
  63.6246293  26.8900233 129.9249327  72.2489069  32.5576282 132.1324409
  72.2378945  33.4400997 131.7618342  71.3806449  32.2047833 131.9378946
  63.7571565  41.7056351 136.4927249  64.4699538  42.3403816 136.4203151
  63.2661594  41.8020217 135.6767251  65.4789092  35.6107603 128.0644541
  64.5445371  35.7309066 127.8949245  65.6565761  34.7080070 127.8004551
  60.9794280  28.9953299 130.2177802  60.6092068  28.4424340 130.9058708
  61.4753373  28.3911433 129.6652802  68.8661644  31.4524923 128.5994575
  69.3322096  32.2852914 128.5254878  69.3169144  30.9869904 129.3039833
  58.8083479  39.4550794 137.3132820  59.5092938  40.0887277 137.4662214
  58.3378594  39.7965526 136.5528459  66.9337875  37.7968744 125.5980727
  67.2097719  37.6825339 126.5074601  66.0642374  37.3986229 125.5592900
  66.8378306  23.8205510 132.6385476  65.9241386  24.0509736 132.8067683
  67.2671408  23.9043954 133.4899509  66.6084765  32.0095402 135.1385370
  65.9556215  32.2571309 134.4837823  66.9865145  31.1959540 134.8047848
  63.5691939  42.0455095 129.2413541  63.7514333  41.2276751 129.7041293
  64.3924925  42.2622787 128.8038431  63.9034104  40.9723280 126.5028589
  64.4321871  40.4615734 125.8898751  64.1662324  40.6565810 127.3674122
  54.4051197  38.9887149 134.2463923  54.9904634  38.2430837 134.3791827
  54.2076036  39.2991106 135.1300587  57.2589852  42.0238397 129.2626365
  56.5900228  42.5084524 128.7790405  57.1202722  42.2707617 130.1769744
  48.9968852  31.5592749 132.9668366  49.0352951  31.0256340 133.7605484
  48.4909145  31.0327955 132.3479343  61.3995121  44.0582140 135.8609023
  61.9513429  44.2213762 136.6258109  61.7401314  44.6486578 135.1889048
  66.2505995  38.8843398 141.7157678  66.7945899  39.4973356 141.2212633
  65.6692840  39.4422976 142.2324691  52.6277429  30.2856852 126.0422297
  52.9230870  29.3767530 125.9889351  51.7265465  30.2644591 125.7203300
  64.5363508  42.0064116 132.8472706  64.4114648  41.2053855 132.3383651
  65.1942599  42.5010309 132.3586676  56.1571676  28.3612848 132.0249846
  55.4358262  28.9748816 131.8857319  56.9464932  28.8970613 131.9466492
  66.5998417  39.8073136 134.4752256  65.6528752  39.6878487 134.4030582
  66.9481190  38.9195634 134.5578517  54.3565271  27.9670949 126.1661622
  54.0277977  27.0868328 125.9836728  54.7104642  27.9118618 127.0538012
  63.6044850  39.6025852 130.6756608  63.4569812  38.6742559 130.8564178
  64.4298343  39.6245943 130.1913683  57.4707094  28.2543919 126.5337100
  57.8103167  28.7829840 125.8115708  57.9179215  28.5924325 127.3095667
  67.2078972  40.4254411 131.7621481  68.1325519  40.2197272 131.6245932
  67.0394275  40.1770812 132.6710822  60.8167007  23.7230282 134.4367491
  61.6393076  23.2490760 134.3146381  61.0605070  24.5020766 134.9366177
  59.4575241  26.7518541 124.7330393  60.1783604  27.1299793 124.2294110
  58.8340545  27.4707417 124.8365371  63.6006364  27.4563690 125.6688725
  63.8169979  28.3388327 125.3677553  63.1200431  27.0649903 124.9394367
  58.3405586  30.4149403 132.2459470  58.1950166  30.7289706 133.1383751
  57.8630789  31.0334303 131.6930368  60.2001968  27.4051951 132.2940359
  60.1863537  26.5093044 131.9572657  60.9174397  27.4122615 132.9278645
  62.0528099  27.8389291 134.3393487  61.7945877  28.7606362 134.3377817
  61.5213139  27.4419726 135.0293951  66.9974288  40.9440078 127.1183572
  67.1711165  40.3786501 126.3657425  67.4903179  41.7440973 126.9363062
  52.8151248  32.9554747 135.1847131  52.2704716  33.7314555 135.3167405
  53.6930598  33.3025552 135.0266252  59.6038864  26.2866331 127.5627929
  59.7254776  25.3582977 127.7618817  59.3140907  26.3005017 126.6506245
  62.4730055  23.9721242 130.6994649  62.4951752  24.0360575 129.7446629
  62.8898114  23.1325750 130.8935155  72.8513679  33.7076501 128.7373872
  73.2944825  32.9583826 128.3392995  71.9740189  33.6986637 128.3547604
  67.9849460  40.2606843 124.2180470  68.6800365  40.8813535 124.4367785
  68.3272611  39.4102194 124.4932848  69.8840883  37.7106548 125.7467801
  70.4092208  38.0493821 125.0217121  69.7963236  36.7753563 125.5630936
  61.5460932  41.6240622 137.8757678  61.8548059  41.3789768 138.7480377
  62.3436414  41.8287260 137.3876548  61.5681544  43.7778531 130.1063054
  61.1286535  43.2854910 130.7995911  62.3189661  43.2351499 129.8655130
  54.0473883  39.9690072 130.1087682  54.8731903  39.6693844 129.7286326
  53.6967935  39.1997695 130.5577471  59.0155416  39.3216540 132.1785356
  58.3935426  38.6587245 131.8787584  59.6860283  39.3477672 131.4959004
  52.2482488  37.8876399 131.0676616  51.4114397  37.4598573 130.8860617
  52.2206134  38.0808842 132.0047407  69.5734790  38.3439452 141.0518999
  68.7830333  38.3263591 140.5123498  69.3368144  38.8827745 141.8068036
  69.6932665  35.1931918 138.3651728  69.7430670  35.0281926 139.3067250
  69.5846588  34.3259177 137.9749608  58.5768923  37.8720464 125.6543817
  58.7257044  38.5555928 125.0010489  59.3835367  37.8525554 126.1693272
  66.9836427  31.1762846 139.6811034  67.8846290  31.0369311 139.3895032
  67.0584402  31.3417301 140.6209212  71.1950861  37.6128860 138.6093749
  70.9035670  37.9758840 139.4457210  70.5822993  36.8995868 138.4307081
  72.3946544  35.1781739 131.1296319  73.2293435  35.6171543 131.2933880
  72.5305673  34.7020393 130.3104565  69.4438050  32.7361474 137.0773807
  69.9192171  32.9289121 136.2692659  68.5203615  32.7920660 136.8317191
  56.3321556  33.8985641 126.6604885  56.0867598  32.9947971 126.8585096
  56.5017471  33.9002792 125.7184363  64.0218266  24.7709318 136.0429641
  64.5400210  25.5070345 135.7176130  63.6673399  25.0773311 136.8776400
  55.6017204  29.6313999 124.1591047  54.9086449  29.7058354 123.5031083
  55.3568956  28.8674343 124.6812564  64.2730860  21.1909600 131.5630538
  64.5532614  20.5232789 132.1890964  65.0581467  21.3838696 131.0505201
  62.0764329  40.3668594 123.1255564  61.5038296  40.9858781 122.6726036
  62.6497122  40.9167956 123.6595486  68.1439719  29.6127234 135.3102113
  69.0957142  29.7125332 135.3314337  67.9743169  28.8205503 135.8200197
  66.1654098  26.6982818 135.4961514  65.5704030  26.9787830 134.8008002
  65.8803795  27.1876718 136.2678255  65.2961589  40.6505744 124.2564146
  66.2292262  40.5851306 124.4597022  65.2084801  41.4862011 123.7978679
  67.9249605  39.9671615 121.2168094  67.8463237  39.6331478 122.1103852
  68.7459272  40.4593383 121.2159566  70.6227796  32.8333354 134.4244412
  70.5904117  31.8949355 134.6104096  71.2328420  32.9117391 133.6910237
  62.4611127  31.7029407 120.4671616  63.4070232  31.5735615 120.5360034
  62.0825372  30.9644069 120.9441045  70.7722285  29.6244397 134.4702696
  70.2561334  28.8402854 134.2832624  71.6562233  29.2963114 134.6349215
  68.4333012  23.3685413 130.4298508  68.2357833  23.0600501 131.3141840
  69.0432717  24.0947052 130.5596438  76.4404346  33.8949361 133.5650449
  77.1707735  33.6334649 134.1258153  75.8311292  33.1578083 133.6052517
  74.5219643  32.0357223 134.1624900  73.7952807  31.9013188 133.5541392
  74.1066930  32.3434052 134.9681618  62.3449820  35.7547153 141.9272273
  63.2652829  35.9325752 142.1212320  62.3099403  34.8103198 141.7751973
  60.6454044  29.6279383 120.4026502  59.7385500  29.3312496 120.4789215
  60.9230025  29.3309201 119.5360788  51.5631985  30.9485747 130.8525548
  51.2434769  30.0951055 130.5599922  51.0165413  31.1634325 131.6083515
  55.3411892  33.6648188 134.5695055  55.5597902  34.5965296 134.5883088
  55.7537666  33.3056162 135.3549858  62.2616110  24.1716273 126.5570743
  61.4516839  23.8263358 126.9325989  62.9500527  23.8623817 127.1458355
  64.1906658  23.2494320 128.1795040  64.7437697  23.6689773 128.8385063
  64.4276745  22.3230068 128.2217996  59.4152829  26.4866319 120.5438481
  60.2771993  26.8121217 120.8034298  59.6003173  25.6997814 120.0311547
  51.4320245  34.5688658 132.8218670  50.7383716  34.1542611 132.3088624
  52.1793236  34.6109195 132.2252089  67.5685466  25.3594845 127.6873704
  66.9884135  26.0179649 127.3051756  67.3021398  24.5372190 127.2761121
  66.0189032  24.7599903 129.8895024  66.5188810  24.8716437 129.0809343
  66.6624640  24.4560956 130.5295833  53.3456987  34.5006912 130.6984685
  53.3227675  34.5994599 129.7466568  53.6557624  35.3472063 131.0201851
  56.0044365  36.5583067 134.8131299  56.9587619  36.5267009 134.7461231
  55.8056889  36.0973691 135.6281525  56.5943747  35.1284183 137.3802097
  57.4136636  35.6228262 137.4036934  56.8680555  34.2116151 137.3519664
  66.3510344  27.5194935 126.7430052  65.4636199  27.8044586 126.5250247
  66.7664333  27.3588699 125.8957329  69.7024880  27.5441456 130.4584391
  70.4785270  28.0337909 130.7309008  68.9773014  27.9699511 130.9156261
  72.1397438  28.2569076 131.5158332  72.7341929  28.0164812 130.8051640
  72.2124022  27.5376206 132.1431868  54.3594594  42.1002687 131.8301497
  54.2249062  41.3403087 131.2639495  53.9426656  42.8243586 131.3630286
  65.4953557  37.2839610 120.8378072  66.1989407  37.4889613 121.4535728
  64.7716206  37.8516372 121.1027156  66.3251367  33.0349471 126.9580342
  66.2686569  33.4918023 126.1187975  66.8779710  32.2740156 126.7803185
  70.1356173  28.8239203 127.7830462  69.8793107  28.4235839 128.6138669
  69.5109041  29.5382997 127.6580601  74.4468511  31.5635276 130.2901753
  73.8868069  31.6328466 131.0633315  73.8412014  31.3876261 129.5701249
  57.5163720  42.9972004 132.0419939  57.3996104  43.9417436 131.9398630
  56.6956166  42.6945565 132.4305739  67.4040254  37.7222139 122.8876532
  68.2385858  37.2903338 122.7054007  67.2424597  37.5504153 123.8153427
  67.0586147  34.2254253 124.2532871  67.0034950  34.0598524 123.3121316
  66.4332202  34.9330285 124.4095061  64.3732054  36.5303164 143.5786434
  65.2423213  36.7043817 143.2173069  63.8938805  37.3497581 143.4562164
  60.3682272  23.7262362 123.8318190  60.3560942  24.6704202 123.9886461
  61.2605694  23.5432507 123.5377651  58.5418234  43.6500265 135.2575868
  59.4445481  43.6823876 135.5742363  58.3155604  42.7200716 135.2722204
  60.2971836  42.4031252 131.9185947  59.3467467  42.4033114 131.8050319
  60.6004322  41.6563987 131.4021981  64.1834392  20.3205138 128.0864127
  63.4166787  19.7663625 128.2320809  64.5945097  20.3927007 128.9478278
  76.0324530  48.2391790 132.9831709  76.6702940  48.1198538 132.2795049
  75.9145372  49.1872634 133.0419661  72.8414236  48.1919219 132.9193234
  72.5032747  48.0760283 132.0313768  73.7104004  47.7910384 132.8994240
  68.7001052  50.0454695 128.9090125  68.1365917  49.9544632 128.1406412
  68.5853447  49.2254599 129.3892617  73.3234019  49.3454070 138.8779439
  73.3122660  48.9506868 138.0059943  73.4854658  48.6120143 139.4713211
  66.2465483  51.5405887 131.7474345  67.0386775  51.1996711 131.3320644
  66.4862134  51.6500862 132.6676498  74.2800610  53.7125663 124.2204589
  73.6288590  54.2979743 123.8338603  75.0744973  54.2431858 124.2799627
  68.2056237  50.8014800 124.6191724  68.9787113  50.2543787 124.4804600
  68.5581636  51.6659049 124.8306185  70.0441280  52.1291182 137.8258623
  69.7531146  53.0336813 137.7105289  70.6798264  52.1707710 138.5402693
  70.9697487  49.5068031 134.4159983  71.5661059  49.2824053 133.7016946
  71.0272458  48.7652776 135.0185431  70.5422515  46.9607466 122.2510174
  70.7948036  46.4388987 121.4893637  69.6047074  46.7973611 122.3536857
  75.5865798  45.9643244 130.0584917  76.3728887  45.5462667 129.7075334
  75.8504502  46.8689336 130.2266565  75.7575875  51.4016095 124.7573574
  75.1221708  51.4750721 125.4694478  75.4273282  51.9909693 124.0792653
  80.9874225  45.9018477 130.9617895  81.7199397  45.3317694 131.1955725
  80.2313581  45.5140078 131.4024401  70.2618804  48.8635572 124.4534549
  70.1455062  48.1880475 125.1215633  70.3721064  48.3767946 123.6366702
  72.6050345  48.3245719 128.1581238  72.2408552  47.7976340 128.8694159
  73.4617461  47.9344188 127.9847723  78.5099646  39.6140052 135.4212504
  78.1782970  40.4835463 135.1973719  77.9145259  39.2976336 136.1006534
  72.2455832  43.3535619 123.1542586  72.4130234  44.2215855 123.5213057
  72.0553001  43.5162900 122.2303876  75.0031165  51.8152598 134.8208417
  74.7031888  52.7177636 134.7124224  74.6582225  51.5484781 135.6729570
  68.4543647  48.2666394 130.8545121  67.5294143  48.1342608 131.0622813
  68.7028060  49.0460614 131.3515064  78.4028309  44.3335138 132.5005854
  77.4945186  44.2650546 132.2064615  78.3515905  44.8107083 133.3287680
  72.2245053  45.8093276 124.1389253  72.1044678  46.2550327 124.9774734
  71.5297641  46.1578594 123.5802791  65.8152458  47.9099668 131.6888910
  65.9444839  48.1634147 132.6028322  65.1349909  48.5027376 131.3693565
  69.9851945  58.5796918 127.7879384  69.9075975  59.5304743 127.8667865
  69.3813588  58.2342790 128.4454311  72.4769175  45.7524783 140.4440751
  71.7002509  46.3118703 140.4343616  73.1159738  46.2381566 140.9655622
  80.2689955  42.5351576 134.2783728  79.6264335  42.8284109 133.6323523
  79.7644884  42.4204496 135.0836925  77.9230119  46.2814749 124.9669587
  78.8347975  46.5142136 124.7917285  77.4139766  46.8651794 124.4044666
  70.7315547  48.5610237 140.0058718  71.4730231  49.0995281 139.7293542
  70.0252532  49.1876525 140.1630270  76.2070887  50.7039377 138.6030880
  76.6154243  50.2621788 137.8585512  75.4848148  50.1292005 138.8565073
  72.5601957  45.6411984 135.9764437  73.4063152  46.0651397 136.1199086
  72.5000594  44.9845608 136.6703000  76.5299701  51.2640568 132.3583169
  75.9008564  51.4286282 131.6559237  76.1425363  51.6782177 133.1294133
  80.4088933  52.1995006 129.7127533  79.7239971  52.5793907 129.1624566
  80.4932782  52.8090332 130.4459480  75.7101402  43.3016352 137.6345610
  75.4662334  44.0558413 137.0979886  75.9861332  43.6801700 138.4692858
  77.6639865  49.8454965 136.3122876  77.8756760  50.4886725 135.6357257
  77.6169613  49.0117281 135.8444806  75.2666094  42.4572785 133.2159448
  74.4050573  42.7554039 133.5076186  75.2928528  42.6743184 132.2840481
  72.0827663  51.0014976 129.6233254  72.5466009  51.2802679 128.8337876
  71.8184461  50.0998420 129.4406345  68.9751744  50.5486457 132.5613017
  69.5453101  50.9773726 131.9230502  69.5659856  50.2669042 133.2597203
  71.0196549  47.1238128 126.4322819  71.7220592  47.5759172 126.8996745
  70.6877178  46.4821947 127.0602712  69.4676911  45.7149885 140.8074028
  68.8375571  46.3966166 141.0409425  69.3612999  45.6032966 139.8627167
  64.7621883  45.3821681 131.7339953  63.9720937  45.6379209 131.2580063
  65.2533130  46.1970019 131.8391993  78.7785693  52.7226920 134.4845233
  79.6003136  52.3207107 134.2027915  78.7748096  52.6195154 135.4361349
  66.7136628  45.7466260 128.6923429  65.9167792  45.8584954 129.2106925
  66.4862221  46.0852912 127.8264320  72.5442296  52.2710963 136.6405944
  72.6086729  52.7331371 137.4764116  71.8353220  51.6408328 136.7688254
  63.0459586  45.6352171 134.1654943  63.2967625  46.5199181 134.4312519
  63.5819134  45.4556773 133.3930035  86.8691686  49.0665669 130.8330205
  86.1155394  48.4973067 130.6774209  87.0039227  49.0328333 131.7800840
  72.2590314  53.9379071 126.5084924  72.1235989  54.7830607 126.9369772
  72.8000126  54.1398348 125.7450858  68.7457653  40.0170651 143.1699279
  68.3524599  39.4636849 143.8446924  69.5623794  40.3281229 143.5605797
  65.7119711  51.4554509 127.0812849  66.2244232  52.2497759 127.2318414
  66.3642424  50.7580799 127.0146451  67.5214596  54.5720265 129.1635602
  67.6981224  55.4938230 128.9756586  68.3171429  54.2578684 129.5929982
  71.6625614  41.4328530 140.7619536  72.4035328  42.0335683 140.6823998
  71.8943537  40.6906168 140.2037579  66.8066952  46.6184897 139.0397766
  66.6920468  45.7170154 139.3404865  65.9511470  46.8648594 138.6882582
  73.8858790  54.5602637 140.6385266  73.4422644  53.7739016 140.3206171
  74.5476004  54.7481788 139.9729157  68.6445911  56.0898439 135.1645945
  69.1953336  55.9615502 134.3922939  67.8057387  56.3893328 134.8140838
  75.9840028  54.8405437 138.6666668  75.9658504  55.6614318 138.1746937
  76.9059948  54.7159513 138.8916809  72.4413082  52.3549567 139.5090176
  72.9741419  51.5937855 139.2789484  71.9127163  52.0623219 140.2514330
  75.6082777  37.4609633 135.0383818  75.2647047  38.3511274 134.9622928
  75.9761740  37.2711290 134.1753403  63.6768628  49.7843163 127.8572420
  64.5143850  50.1940172 127.6406128  63.8546896  48.8442605 127.8272614
  75.5733060  47.4518244 123.5456253  75.0579683  48.2222848 123.7844640
  75.3010368  46.7783380 124.1689314  73.1580171  42.2967945 128.6041491
  72.3021767  41.9074795 128.4247130  73.5707123  42.3759905 127.7441277
  74.6879318  39.8314288 133.0033051  74.1844113  39.7944423 132.1900856
  74.9809925  40.7407031 133.0629708  70.9322204  39.9153018 132.0099233
  71.7975200  39.7195826 131.6505122  70.9999713  39.6863369 132.9368589
  80.5467334  50.2050598 125.4809426  79.7696777  49.8661758 125.0364588
  81.2258815  50.2103222 124.8064391  75.3619363  45.3245336 125.3716034
  75.0569499  45.6391485 126.2226177  76.3149805  45.4026756 125.4143367
  73.8065795  51.4835559 127.0208988  73.2787157  50.7488319 126.7082225
  73.3053298  52.2610236 126.7748956  78.7858641  49.6784580 132.1376034
  78.1282316  50.3683841 132.2256163  79.5899040  50.0681012 132.4810021
  68.5384523  42.1455226 129.3815599  69.1128275  41.9230407 128.6488792
  69.1255505  42.2143920 130.1344201  77.5964100  48.0328952 130.1879976
  78.1095982  48.6658944 130.6901686  78.2465324  47.4330148 129.8223336
  68.8654110  44.1759687 123.4011485  68.0291422  44.5134373 123.7220759
  68.7258879  44.0408666 122.4638622  70.8407190  39.0196474 128.1090669
  70.1871603  38.7045492 127.4847284  70.7987665  38.3972215 128.8350492
  71.9518395  49.3015770 120.0243961  71.0445457  49.0705023 120.2235110
  72.4489427  48.5053389 120.2117943  74.8586474  58.0113277 122.9440647
  74.1848173  58.3144973 123.5525605  75.2452296  58.8142357 122.5946104
  74.0744931  45.5078408 132.4338317  73.1567492  45.7293355 132.2760005
  74.4905074  45.5824718 131.5750024  74.8579979  46.9069824 127.5640997
  75.6051797  47.4191221 127.2548119  75.1271568  46.5853876 128.4245390
  73.1306629  49.4028364 124.5467951  72.2217848  49.1187397 124.6440421
  73.1601712  49.8227443 123.6871258  78.3625896  53.0134954 128.3159119
  77.9088223  52.1725864 128.3724309  77.7319863  53.6496352 128.6533899
  77.3058816  43.9426940 129.5459786  76.5681572  43.4304326 129.8770029
  77.5585589  43.5027322 128.7343063  76.8058835  54.8511451 129.2508937
  77.0981810  55.4116508 128.5321302  77.3157456  55.1440012 130.0062096
  77.4070443  36.7203192 130.1401555  77.7129320  35.8600555 129.8527470
  78.1323048  37.3120812 129.9400549  63.6994799  47.1233879 128.5283153
  63.5019199  46.5303239 127.8034220  63.1441463  46.8186089 129.2459092
  71.6791523  47.0156985 130.6477746  71.7340133  46.0630821 130.5720223
  70.8682725  47.1716424 131.1319045  72.8282716  50.9437108 121.8856030
  72.3902146  50.2272967 121.4261667  73.5693157  51.1713223 121.3241121
  69.6183883  45.6334045 128.4068125  68.8051748  45.9328215 128.8133317
  70.1142877  45.2389733 129.1242608  71.7692461  55.6291802 130.3402390
  71.7268639  55.8552648 129.4110922  72.6855159  55.3955176 130.4888191
  75.2158094  46.0975869 137.2383019  75.5707482  46.3247342 138.0977485
  75.8630226  46.4294246 136.6160274  80.9455831  49.2194305 127.9432348
  80.8073730  49.4095901 127.0153537  80.5892050  49.9813688 128.4000399
  69.1097957  43.2052400 134.0229360  69.7497337  43.0641159 133.3252324
  68.2775488  42.9186914 133.6467962  80.9725211  51.2870832 132.9543620
  81.4061718  51.1946121 133.8026674  81.6856792  51.2628333 132.3163636
  69.8858261  52.5054831 130.1364353  70.6798860  52.0105151 129.9346928
  69.1749954  51.9772694 129.7732058  74.7053106  54.8872926 134.4876720
  74.7590128  55.4563863 135.2554436  73.8367887  55.0574811 134.1230757
  66.1941025  46.6497912 126.2124105  65.2638613  46.5882368 126.4294068
  66.2898497  46.1273865 125.4160747  66.1126574  43.1752725 128.8002347
  66.3733391  44.0898058 128.6911508  66.9343746  42.7077168 128.9498960
  67.5851499  44.5890482 135.9701172  68.2574553  44.3807845 135.3213820
  66.7581286  44.3912568 135.5306404  81.8340760  51.3294533 135.4876505
  82.0276651  52.2340343 135.7335780  81.7341379  50.8701952 136.3215090
  73.4877071  41.2152423 137.9866832  72.8404986  41.9142373 137.8931309
  74.2578087  41.6488567 138.3543081  76.8955869  51.4801275 141.0617386
  76.7441376  51.2511827 140.1447469  76.8860549  52.4371877 141.0748731
  73.6641206  49.0533188 136.0463652  74.5933266  49.2044348 135.8732619
  73.2432236  49.1417209 135.1912299  72.4629537  53.0783853 133.8162190
  72.3240623  52.7102637 134.6888128  71.6744134  53.5931492 133.6446148
  73.0577689  58.1792949 125.1587726  73.2329445  57.7080992 125.9733349
  72.3710477  58.8058715 125.3868987  74.0134752  52.4565455 131.2051028
  73.6784585  52.4166225 132.1008677  73.5138698  51.7910171 130.7321438
  67.9878996  47.8633085 136.7303609  67.8498794  47.1313324 137.3315148
  68.8983920  47.7741985 136.4487797  76.9493944  49.8021490 121.4788087
  76.3323115  49.0768318 121.3821140  76.4810433  50.5630850 121.1355162
  70.6161297  47.5753045 136.2187288  71.3260916  46.9346237 136.1773907
  70.5730605  47.8265940 137.1413469  78.6048076  54.5120398 139.1393868
  78.5460622  53.8279618 138.4724451  79.0067594  55.2539388 138.6874494
  69.3290231  44.5618263 138.0382928  68.7927588  44.1109001 138.6904524
  68.7406940  44.6964171 137.2953392  67.6238775  61.3282312 131.9327587
  67.8635373  61.9600836 132.6106605  66.7807971  60.9770352 132.2192946
  68.7392490  44.0206914 120.6009392  67.8621956  43.8995715 120.2371638
  69.2150243  43.2292992 120.3488280  78.6065483  52.4759982 137.3707847
  77.7192262  52.1385904 137.4934246  79.1764034  51.7443013 137.6076613
  60.2594630  48.8084074 130.6950899  60.9465670  48.4945804 130.1071914
  60.1042759  49.7125438 130.4218150  65.0629352  43.6974270 135.1235922
  64.9787541  43.0899940 134.3886332  64.2412059  44.1883289 135.1245419
  72.1366636  57.1361434 134.3369090  72.0636808  57.9416406 134.8488395
  71.6944030  57.3353400 133.5117112  71.9256416  56.3733204 127.8471912
  71.1423938  56.9154885 127.9410137  72.6249161  56.8907184 128.2466153
  75.2353066  42.1827834 130.4906117  75.7321766  41.4297796 130.1707188
  74.4640048  42.2192150 129.9249327  83.0882824  47.8868199 132.1324409
  83.0772700  48.7692915 131.7618342  82.2200203  47.5339750 131.9378946
  74.5965320  57.0348268 136.4927249  75.3093292  57.6695733 136.4203151
  74.1055349  57.1312134 135.6767251  76.3182847  50.9399521 128.0644541
  75.3839126  51.0600984 127.8949245  76.4959515  50.0371988 127.8004551
  71.8188035  44.3245217 130.2177802  71.4485822  43.7716257 130.9058708
  72.3147127  43.7203350 129.6652802  79.7055398  46.7816840 128.5994575
  80.1715850  47.6144832 128.5254878  80.1562899  46.3161822 129.3039833
  69.6477233  54.7842712 137.3132820  70.3486693  55.4179195 137.4662214
  69.1772348  55.1257443 136.5528459  77.7731629  53.1260662 125.5980727
  78.0491473  53.0117256 126.5074601  76.9036128  52.7278146 125.5592900
  77.6772061  39.1497427 132.6385476  76.7635141  39.3801654 132.8067683
  78.1065162  39.2335871 133.4899509  77.4478519  47.3387319 135.1385370
  76.7949970  47.5863227 134.4837823  77.8258899  46.5251457 134.8047848
  74.4085693  57.3747012 129.2413541  74.5908088  56.5568668 129.7041293
  75.2318679  57.5914705 128.8038431  74.7427859  56.3015198 126.5028589
  75.2715625  55.7907652 125.8898751  75.0056078  55.9857728 127.3674122
  73.4966092  48.0807130 141.6251407  72.8206729  47.9801260 142.2953783
  74.3193726  47.9246344 142.0887405  65.2444952  54.3179067 134.2463923
  65.8298388  53.5722755 134.3791827  65.0469790  54.6283024 135.1300587
  68.0983607  57.3530314 129.2626365  67.4293982  57.8376442 128.7790405
  67.9596476  57.5999535 130.1769744  59.8362606  46.8884667 132.9668366
  59.8746706  46.3548258 133.7605484  59.3302899  46.3619873 132.3479343
  72.2388875  59.3874058 135.8609023  72.7907183  59.5505679 136.6258109
  72.5795069  59.9778496 135.1889048  67.2153369  41.7349208 136.4630908
  67.2794695  42.5964038 136.0508306  67.1520489  41.1223209 135.7303267
  66.6905641  43.8072340 140.1103942  67.3177680  43.4249417 140.7241467
  65.8333560  43.5886542 140.4759635  77.0899750  54.2135315 141.7157678
  77.6339654  54.8265274 141.2212633  76.5086595  54.7714894 142.2324691
  63.4671184  45.6148769 126.0422297  63.7624625  44.7059448 125.9889351
  62.5659220  45.5936509 125.7203300  75.3757263  57.3356033 132.8472706
  75.2508402  56.5345773 132.3383651  76.0336354  57.8302227 132.3586676
  66.9965431  43.6904766 132.0249846  66.2752017  44.3040734 131.8857319
  67.7858687  44.2262531 131.9466492  77.4392171  55.1365053 134.4752256
  76.4922507  55.0170405 134.4030582  77.7874944  54.2487551 134.5578517
  69.7991744  41.0259192 138.2990498  70.3226146  41.2721489 139.0616807
  69.5804078  41.8579227 137.8793635  65.1959025  43.2962867 126.1661622
  64.8671732  42.4160246 125.9836728  65.5498396  43.2410536 127.0538012
  74.4438604  54.9317770 130.6756608  74.2963567  54.0034477 130.8564178
  75.2692098  54.9537860 130.1913683  68.3100849  43.5835837 126.5337100
  68.6496921  44.1121758 125.8115708  68.7572969  43.9216243 127.3095667
  78.0472726  55.7546328 131.7621481  78.9719274  55.5489190 131.6245932
  77.8788030  55.5062730 132.6710822  71.0044289  41.9672887 135.9840168
  70.6641110  41.1680700 136.3860848  70.2983296  42.2674598 135.4117001
  71.6560761  39.0522200 134.4367491  72.4786831  38.5782678 134.3146381
  71.8998825  39.8312684 134.9366177  70.2968996  42.0810458 124.7330393
  71.0177358  42.4591711 124.2294110  69.6734300  42.7999335 124.8365371
  74.4400119  42.7855607 125.6688725  74.6563733  43.6680245 125.3677553
  73.9594186  42.3941821 124.9394367  69.1799340  45.7441320 132.2459470
  69.0343921  46.0581624 133.1383751  68.7024544  46.3626221 131.6930368
  71.0395723  42.7343868 132.2940359  71.0257292  41.8384962 131.9572657
  71.7568151  42.7414532 132.9278645  72.8921854  43.1681209 134.3393487
  72.6339631  44.0898279 134.3377817  72.3606894  42.7711643 135.0293951
  77.8368042  56.2731996 127.1183572  78.0104920  55.7078418 126.3657425
  78.3296934  57.0732891 126.9363062  63.6545002  48.2846665 135.1847131
  63.1098470  49.0606473 135.3167405  64.5324352  48.6317469 135.0266252
  70.4432619  41.6158249 127.5627929  70.5648530  40.6874895 127.7618817
  70.1534661  41.6296935 126.6506245  73.3123809  39.3013159 130.6994649
  73.3345506  39.3652492 129.7446629  73.7291868  38.4617668 130.8935155
  83.6907434  49.0368419 128.7373872  84.1338580  48.2875744 128.3392995
  82.8133944  49.0278555 128.3547604  78.8243215  55.5898760 124.2180470
  79.5194119  56.2105453 124.4367785  79.1666365  54.7394111 124.4932848
  64.4411024  47.4116561 138.0777288  63.6992760  47.5599197 138.6641918
  64.1203768  47.6724827 137.2144037  80.7234638  53.0398466 125.7467801
  81.2485962  53.3785738 125.0217121  80.6356991  52.1045481 125.5630936
  72.3854687  56.9532539 137.8757678  72.6941813  56.7081686 138.7480377
  73.1830169  57.1579178 137.3876548  72.4075299  59.1070449 130.1063054
  71.9680289  58.6146828 130.7995911  73.1583416  58.5643417 129.8655130
  64.8867638  55.2981990 130.1087682  65.7125658  54.9985762 129.7286326
  64.5361690  54.5289612 130.5577471  69.8549171  54.6508458 132.1785356
  69.2329180  53.9879163 131.8787584  70.5254038  54.6769590 131.4959004
  63.0876243  53.2168316 131.0676616  62.2508151  52.7890491 130.8860617
  63.0599888  53.4100760 132.0047407  69.9273698  43.1290246 141.7717862
  69.9761854  44.0052369 141.3895632  70.4696213  42.5867639 141.1989505
  80.4128544  53.6731369 141.0518999  79.6224088  53.6555508 140.5123498
  80.1761899  54.2119663 141.8068036  80.5326419  50.5223836 138.3651728
  80.5824424  50.3573843 139.3067250  80.4240342  49.6551095 137.9749608
  69.4162678  53.2012381 125.6543817  69.5650798  53.8847846 125.0010489
  70.2229121  53.1817471 126.1693272  77.8230181  46.5054764 139.6811034
  78.7240044  46.3661229 139.3895032  77.8978156  46.6709219 140.6209212
  72.1572987  43.8821619 138.5264221  71.2876296  44.1755185 138.2546809
  72.3932467  44.4662064 139.2471484  82.0344616  52.9420777 138.6093749
  81.7429424  53.3050758 139.4457210  81.4216747  52.2287786 138.4307081
  83.2340298  50.5073657 131.1296319  84.0687190  50.9463461 131.2933880
  83.3699427  50.0312310 130.3104565  80.2831804  48.0653392 137.0773807
  80.7585926  48.2581038 136.2692659  79.3597370  48.1212578 136.8317191
  67.1715311  49.2277559 126.6604885  66.9261353  48.3239889 126.8585096
  67.3411225  49.2294710 125.7184363  74.8612021  40.1001235 136.0429641
  75.3793965  40.8362262 135.7176130  74.5067153  40.4065229 136.8776400
  66.4410958  44.9605917 124.1591047  65.7480203  45.0350272 123.5031083
  66.1962710  44.1966260 124.6812564  75.1124615  36.5201518 131.5630538
  75.3926369  35.8524707 132.1890964  75.8975222  36.7130614 131.0505201
  72.9158083  55.6960512 123.1255564  72.3432050  56.3150699 122.6726036
  73.4890877  56.2459874 123.6595486  78.9833473  44.9419152 135.3102113
  79.9350896  45.0417250 135.3314337  78.8136924  44.1497421 135.8200197
  77.0047853  42.0274735 135.4961514  76.4097785  42.3079748 134.8008002
  76.7197549  42.5168636 136.2678255  76.1355343  55.9797662 124.2564146
  77.0686016  55.9143224 124.4597022  76.0478556  56.8153929 123.7978679
  78.7643360  55.2963532 121.2168094  78.6856991  54.9623396 122.1103852
  79.5853027  55.7885300 121.2159566  81.4621551  48.1625272 134.4244412
  81.4297871  47.2241272 134.6104096  82.0722175  48.2409308 133.6910237
  73.3004882  47.0321325 120.4671616  74.2463987  46.9027533 120.5360034
  72.9219127  46.2935987 120.9441045  81.6116039  44.9536315 134.4702696
  81.0955088  44.1694772 134.2832624  82.4955988  44.6255032 134.6349215
  79.2726766  38.6977331 130.4298508  79.0751587  38.3892419 131.3141840
  79.8826472  39.4238970 130.5596438  87.2798101  49.2241279 133.5650449
  88.0101489  48.9626567 134.1258153  86.6705046  48.4870000 133.6052517
  85.3613398  47.3649141 134.1624900  84.6346561  47.2305106 133.5541392
  84.9460685  47.6725970 134.9681618  73.1843574  51.0839071 141.9272273
  74.1046584  51.2617670 142.1212320  73.1493157  50.1395116 141.7751973
  71.4847799  44.9571301 120.4026502  70.5779254  44.6604414 120.4789215
  71.7623780  44.6601119 119.5360788  62.4025739  46.2777664 130.8525548
  62.0828524  45.4242973 130.5599922  61.8559168  46.4926243 131.6083515
  66.1805647  48.9940105 134.5695055  66.3991657  49.9257213 134.5883088
  66.5931421  48.6348080 135.3549858  73.1009865  39.5008191 126.5570743
  72.2910593  39.1555276 126.9325989  73.7894282  39.1915734 127.1458355
  75.0300413  38.5786238 128.1795040  75.5831452  38.9981691 128.8385063
  75.2670499  37.6521986 128.2217996  71.0533512  44.5673311 143.9597804
  70.9530239  45.5167668 143.8909895  70.8355054  44.2391550 143.0873874
  70.2546584  41.8158236 120.5438481  71.1165748  42.1413135 120.8034298
  70.4396928  41.0289732 120.0311547  62.2713999  49.8980576 132.8218670
  61.5777471  49.4834529 132.3088624  63.0186990  49.9401112 132.2252089
  78.4079220  40.6886763 127.6873704  77.8277889  41.3471567 127.3051756
  78.1415153  39.8664107 127.2761121  76.8582786  40.0891820 129.8895024
  77.3582565  40.2008355 129.0809343  77.5018394  39.7852873 130.5295833
  70.9164782  47.9970450 142.7762865  70.4331864  48.7970810 142.9826754
  71.0025721  48.0078395 141.8230309  64.1850742  49.8298830 130.6984685
  64.1621430  49.9286517 129.7466568  64.4951378  50.6763981 131.0201851
  66.8438120  51.8874985 134.8131299  67.7981373  51.8558927 134.7461231
  66.6450643  51.4265608 135.6281525  67.4337502  50.4576101 137.3802097
  68.2530391  50.9520179 137.4036934  67.7074310  49.5408069 137.3519664
  77.1904098  42.8486853 126.7430052  76.3029953  43.1336504 126.5250247
  77.6058087  42.6880616 125.8957329  80.5418634  42.8733374 130.4584391
  81.3179024  43.3629827 130.7309008  79.8166768  43.2991428 130.9156261
  82.9791193  43.5860993 131.5158332  83.5735684  43.3456729 130.8051640
  83.0517777  42.8668124 132.1431868  65.1988349  57.4294604 131.8301497
  65.0642816  56.6695005 131.2639495  64.7820411  58.1535504 131.3630286
  76.3347312  52.6131528 120.8378072  77.0383162  52.8181530 121.4535728
  75.6109960  53.1808290 121.1027156  77.1645122  48.3641389 126.9580342
  77.1080323  48.8209940 126.1187975  77.7173464  47.6032074 126.7803185
  80.9749928  44.1531121 127.7830462  80.7186862  43.7527757 128.6138669
  80.3502796  44.8674915 127.6580601  85.2862266  46.8927194 130.2901753
  84.7261824  46.9620383 131.0633315  84.6805769  46.7168179 129.5701249
  68.3557474  58.3263921 132.0419939  68.2389859  59.2709354 131.9398630
  67.5349921  58.0237483 132.4305739  78.2434009  53.0514057 122.8876532
  79.0779613  52.6195255 122.7054007  78.0818352  52.8796071 123.8153427
  77.8979901  49.5546170 124.2532871  77.8428705  49.3890442 123.3121316
  77.2725956  50.2622203 124.4095061  62.6872416  44.7914235 138.0794294
  63.3331280  44.2813189 138.5681519  62.4789567  45.5282916 138.6537719
  75.2125808  51.8595082 143.5786434  76.0816968  52.0335734 143.2173069
  74.7332560  52.6789499 143.4562164  71.2076027  39.0554279 123.8318190
  71.1954696  39.9996119 123.9886461  72.0999448  38.8724425 123.5377651
  69.3811989  58.9792183 135.2575868  70.2839235  59.0115793 135.5742363
  69.1549359  58.0492634 135.2722204  71.1365591  57.7323170 131.9185947
  70.1861222  57.7325031 131.8050319  71.4398077  56.9855904 131.4021981
  75.0228146  35.6497056 128.0864127  74.2560542  35.0955543 128.2320809
  75.4338851  35.7218925 128.9478278  67.0269907  41.9381852 142.1769308
  67.8901369  41.5818657 142.3872632  66.4535318  41.5995747 142.8644712
  86.8718284  63.5683708 132.9831709  87.5096694  63.4490455 132.2795049
  86.7539127  64.5164552 133.0419661  83.6807990  63.5211136 132.9193234
  83.3426502  63.4052201 132.0313768  84.5497759  63.1202301 132.8994240
  79.5394806  65.3746613 128.9090125  78.9759671  65.2836550 128.1406412
  79.4247201  64.5546517 129.3892617  84.1627773  64.6745988 138.8779439
  84.1516414  64.2798786 138.0059943  84.3248413  63.9412061 139.4713211
  77.0859238  66.8697804 131.7474345  77.8780530  66.5288629 131.3320644
  77.3255888  66.9792779 132.6676498  85.1194365  69.0417580 124.2204589
  84.4682344  69.6271661 123.8338603  85.9138728  69.5723775 124.2799627
  79.0449992  66.1306717 124.6191724  79.8180868  65.5835705 124.4804600
  79.3975391  66.9950967 124.8306185  80.8835034  67.4583100 137.8258623
  80.5924900  68.3628731 137.7105289  81.5192019  67.4999627 138.5402693
  81.8091241  64.8359948 134.4159983  82.4054814  64.6115971 133.7016946
  81.8666213  64.0944694 135.0185431  81.3816270  62.2899384 122.2510174
  81.6341790  61.7680905 121.4893637  80.4440829  62.1265529 122.3536857
  86.4259553  61.2935162 130.0584917  87.2122642  60.8754585 129.7075334
  86.6898257  62.1981254 130.2266565  86.5969630  66.7308012 124.7573574
  85.9615463  66.8042639 125.4694478  86.2667036  67.3201611 124.0792653
  91.8267980  61.2310395 130.9617895  92.5593152  60.6609612 131.1955725
  91.0707335  60.8431996 131.4024401  81.1012558  64.1927490 124.4534549
  80.9848817  63.5172393 125.1215633  81.2114818  63.7059863 123.6366702
  83.4444099  63.6537637 128.1581238  83.0802307  63.1268258 128.8694159
  84.3011215  63.2636106 127.9847723  89.3493400  54.9431969 135.4212504
  89.0176725  55.8127380 135.1973719  88.7539013  54.6268253 136.1006534
  83.0849586  58.6827536 123.1542586  83.2523989  59.5507773 123.5213057
  82.8946755  58.8454818 122.2303876  85.8424920  67.1444515 134.8208417
  85.5425643  68.0469554 134.7124224  85.4975979  66.8776698 135.6729570
  79.2937401  63.5958312 130.8545121  78.3687897  63.4634526 131.0622813
  79.5421814  64.3752531 131.3515064  89.2422063  59.6627055 132.5005854
  88.3338941  59.5942464 132.2064615  89.1909659  60.1399000 133.3287680
  83.0638807  61.1385194 124.1389253  82.9438432  61.5842245 124.9774734
  82.3691396  61.4870511 123.5802791  76.6546212  63.2391586 131.6888910
  76.7838593  63.4926065 132.6028322  75.9743663  63.8319294 131.3693565
  80.8245699  73.9088836 127.7879384  80.7469729  74.8596661 127.8667865
  80.2207343  73.5634708 128.4454311  83.3162929  61.0816701 140.4440751
  82.5396263  61.6410621 140.4343616  83.9553492  61.5673484 140.9655622
  91.1083710  57.8643494 134.2783728  90.4658090  58.1576027 133.6323523
  90.6038638  57.7496414 135.0836925  88.7623873  61.6106667 124.9669587
  89.6741730  61.8434054 124.7917285  88.2533520  62.1943711 124.4044666
  81.5709301  63.8902154 140.0058718  82.3123986  64.4287198 139.7293542
  80.8646287  64.5168443 140.1630270  87.0464641  66.0331295 138.6030880
  87.4547997  65.5913705 137.8585512  86.3241903  65.4583922 138.8565073
  83.3995711  60.9703902 135.9764437  84.2456906  61.3943315 136.1199086
  83.3394349  60.3137526 136.6703000  87.3693456  66.5932485 132.3583169
  86.7402318  66.7578200 131.6559237  86.9819118  67.0074095 133.1294133
  91.2482688  67.5286923 129.7127533  90.5633726  67.9085825 129.1624566
  91.3326537  68.1382250 130.4459480  86.5495156  58.6308270 137.6345610
  86.3056088  59.3850330 137.0979886  86.8255087  59.0093618 138.4692858
  88.5033619  65.1746882 136.3122876  88.7150514  65.8178642 135.6357257
  88.4563367  64.3409199 135.8444806  86.1059848  57.7864703 133.2159448
  85.2444327  58.0845957 133.5076186  86.1322283  58.0035102 132.2840481
  82.9221418  66.3306894 129.6233254  83.3859763  66.6094597 128.8337876
  82.6578216  65.4290338 129.4406345  79.8145499  65.8778375 132.5613017
  80.3846856  66.3065643 131.9230502  80.4053610  65.5960960 133.2597203
  81.8590304  62.4530046 126.4322819  82.5614347  62.9051090 126.8996745
  81.5270932  61.8113865 127.0602712  80.3070665  61.0441803 140.8074028
  79.6769326  61.7258083 141.0409425  80.2006753  60.9324884 139.8627167
  75.6015638  60.7113599 131.7339953  74.8114692  60.9671127 131.2580063
  76.0926885  61.5261936 131.8391993  89.6179447  68.0518838 134.4845233
  90.4396891  67.6499025 134.2027915  89.6141850  67.9487072 135.4361349
  77.5530383  61.0758178 128.6923429  76.7561546  61.1876872 129.2106925
  77.3255975  61.4144830 127.8264320  83.3836051  67.6002881 136.6405944
  83.4480483  68.0623288 137.4764116  82.6746974  66.9700246 136.7688254
  73.8853341  60.9644089 134.1654943  74.1361379  61.8491099 134.4312519
  74.4212889  60.7848691 133.3930035  97.7085440  64.3957586 130.8330205
  96.9549149  63.8264984 130.6774209  97.8432981  64.3620251 131.7800840
  83.0984068  69.2670989 126.5084924  82.9629743  70.1122524 126.9369772
  83.6393881  69.4690266 125.7450858  79.5851408  55.3462568 143.1699279
  79.1918353  54.7928767 143.8446924  80.4017548  55.6573147 143.5605797
  76.5513466  66.7846427 127.0812849  77.0637986  67.5789677 127.2318414
  77.2036178  66.0872717 127.0146451  78.3608350  69.9012183 129.1635602
  78.5374979  70.8230148 128.9756586  79.1565184  69.5870602 129.5929982
  82.5019369  56.7620447 140.7619536  83.2429082  57.3627601 140.6823998
  82.7337292  56.0198085 140.2037579  77.6460707  61.9476815 139.0397766
  77.5314222  61.0462072 139.3404865  76.7905225  62.1940511 138.6882582
  84.7252545  69.8894555 140.6385266  84.2816399  69.1030934 140.3206171
  85.3869758  70.0773706 139.9729157  79.4839666  71.4190357 135.1645945
  80.0347091  71.2907420 134.3922939  78.6451142  71.7185246 134.8140838
  86.8233783  70.1697355 138.6666668  86.8052258  70.9906236 138.1746937
  87.7453703  70.0451430 138.8916809  83.2806837  67.6841484 139.5090176
  83.8135174  66.9229773 139.2789484  82.7520918  67.3915136 140.2514330
  86.4476532  52.7901550 135.0383818  86.1040801  53.6803192 134.9622928
  86.8155494  52.6003208 134.1753403  74.5162382  65.1135081 127.8572420
  75.3537604  65.5232089 127.6406128  74.6940650  64.1734523 127.8272614
  86.4126815  62.7810162 123.5456253  85.8973438  63.5514766 123.7844640
  86.1404123  62.1075298 124.1689314  83.9973926  57.6259862 128.6041491
  83.1415522  57.2366713 128.4247130  84.4100877  57.7051823 127.7441277
  85.5273072  55.1606206 133.0033051  85.0237868  55.1236341 132.1900856
  85.8203679  56.0698948 133.0629708  81.7715958  55.2444935 132.0099233
  82.6368955  55.0487744 131.6505122  81.8393467  55.0155287 132.9368589
  91.3861089  65.5342516 125.4809426  90.6090531  65.1953676 125.0364588
  92.0652570  65.5395139 124.8064391  86.2013118  60.6537254 125.3716034
  85.8963253  60.9683403 126.2226177  87.1543560  60.7318673 125.4143367
  84.6459550  66.8127477 127.0208988  84.1180911  66.0780237 126.7082225
  84.1447052  67.5902153 126.7748956  89.6252396  65.0076497 132.1376034
  88.9676070  65.6975759 132.2256163  90.4292795  65.3972929 132.4810021
  79.3778277  57.4747143 129.3815599  79.9522029  57.2522325 128.6488792
  79.9649260  57.5435838 130.1344201  88.4357854  63.3620870 130.1879976
  88.9489736  63.9950862 130.6901686  89.0859078  62.7622066 129.8223336
  79.7047864  59.5051604 123.4011485  78.8685177  59.8426291 123.7220759
  79.5652634  59.3700584 122.4638622  81.6800945  54.3488392 128.1090669
  81.0265357  54.0337409 127.4847284  81.6381419  53.7264133 128.8350492
  82.7912150  64.6307687 120.0243961  81.8839211  64.3996941 120.2235110
  83.2883182  63.8345306 120.2117943  85.6980229  73.3405194 122.9440647
  85.0241927  73.6436891 123.5525605  86.0846051  74.1434275 122.5946104
  84.9138685  60.8370326 132.4338317  83.9961247  61.0585273 132.2760005
  85.3298829  60.9116636 131.5750024  85.6973733  62.2361741 127.5640997
  86.4445552  62.7483139 127.2548119  85.9665323  61.9145794 128.4245390
  83.9700383  64.7320282 124.5467951  83.0611602  64.4479315 124.6440421
  83.9995467  65.1519361 123.6871258  89.2019651  68.3426872 128.3159119
  88.7481978  67.5017781 128.3724309  88.5713617  68.9788270 128.6533899
  88.1452570  59.2718858 129.5459786  87.4075327  58.7596244 129.8770029
  88.3979344  58.8319239 128.7343063  87.6452590  70.1803368 129.2508937
  87.9375564  70.7408425 128.5321302  88.1551210  70.4731929 130.0062096
  88.2464197  52.0495110 130.1401555  88.5523074  51.1892473 129.8527470
  88.9716802  52.6412730 129.9400549  74.5388554  62.4525796 128.5283153
  74.3412953  61.8595157 127.8034220  73.9835218  62.1478006 129.2459092
  82.5185277  62.3448903 130.6477746  82.5733887  61.3922739 130.5720223
  81.7076479  62.5008342 131.1319045  83.6676471  66.2729026 121.8856030
  83.2295901  65.5564885 121.4261667  84.4086912  66.5005141 121.3241121
  80.4577637  60.9625962 128.4068125  79.6445503  61.2620133 128.8133317
  80.9536631  60.5681651 129.1242608  82.6086215  70.9583719 130.3402390
  82.5662394  71.1844566 129.4110922  83.5248914  70.7247094 130.4888191
  86.0551849  61.4267787 137.2383019  86.4101237  61.6539260 138.0977485
  86.7023980  61.7586164 136.6160274  91.7849586  64.5486223 127.9432348
  91.6467484  64.7387819 127.0153537  91.4285805  65.3105606 128.4000399
  79.9491712  58.5344318 134.0229360  80.5891091  58.3933077 133.3252324
  79.1169242  58.2478831 133.6467962  91.8118965  66.6162750 132.9543620
  92.2455472  66.5238039 133.8026674  92.5250546  66.5920250 132.3163636
  80.7252016  67.8346748 130.1364353  81.5192614  67.3397068 129.9346928
  80.0143708  67.3064611 129.7732058  85.5446860  70.2164844 134.4876720
  85.5983883  70.7855780 135.2554436  84.6761642  70.3866729 134.1230757
  77.0334779  61.9789830 126.2124105  76.1032367  61.9174286 126.4294068
  77.1292251  61.4565783 125.4160747  76.9520328  58.5044643 128.8002347
  77.2127146  59.4189976 128.6911508  77.7737501  58.0369085 128.9498960
  78.4245254  59.9182400 135.9701172  79.0968307  59.7099762 135.3213820
  77.5975040  59.7204486 135.5306404  92.6734515  66.6586450 135.4876505
  92.8670405  67.5632261 135.7335780  92.5735133  66.1993869 136.3215090
  84.3270826  56.5444341 137.9866832  83.6798741  57.2434291 137.8931309
  85.0971841  56.9780485 138.3543081  87.7349624  66.8093193 141.0617386
  87.5835130  66.5803745 140.1447469  87.7254303  67.7663795 141.0748731
  84.5034960  64.3825106 136.0463652  85.4327020  64.5336266 135.8732619
  84.0825990  64.4709127 135.1912299  83.3023292  68.4075770 133.8162190
  83.1634377  68.0394555 134.6888128  82.5137888  68.9223410 133.6446148
  83.8971444  73.5084867 125.1587726  84.0723199  73.0372910 125.9733349
  83.2104232  74.1350633 125.3868987  84.8528507  67.7857373 131.2051028
  84.5178340  67.7458143 132.1008677  84.3532453  67.1202089 130.7321438
  78.8272751  63.1925003 136.7303609  78.6892549  62.4605242 137.3315148
  79.7377674  63.1033903 136.4487797  87.7887699  65.1313407 121.4788087
  87.1716869  64.4060236 121.3821140  87.3204187  65.8922768 121.1355162
  81.4555052  62.9044962 136.2187288  82.1654670  62.2638155 136.1773907
  81.4124360  63.1557857 137.1413469  89.4441830  69.8412316 139.1393868
  89.3854376  69.1571536 138.4724451  89.8461349  70.5831306 138.6874494
  80.1683986  59.8910180 138.0382928  79.6321343  59.4400919 138.6904524
  79.5800694  60.0256089 137.2953392  78.4632529  76.6574230 131.9327587
  78.7029127  77.2892754 132.6106605  77.6201726  76.3062270 132.2192946
  79.5786245  59.3498832 120.6009392  78.7015711  59.2287632 120.2371638
  80.0543998  58.5584910 120.3488280  89.4459238  67.8051900 137.3707847
  88.5586016  67.4677821 137.4934246  90.0157789  67.0734931 137.6076613
  71.0988385  64.1375991 130.6950899  71.7859424  63.8237721 130.1071914
  70.9436513  65.0417356 130.4218150  75.9023107  59.0266188 135.1235922
  75.8181296  58.4191858 134.3886332  75.0805813  59.5175206 135.1245419
  82.9760391  72.4653352 134.3369090  82.9030562  73.2708324 134.8488395
  82.5337784  72.6645318 133.5117112  82.7650171  71.7025122 127.8471912
  81.9817692  72.2446802 127.9410137  83.4642916  72.2199102 128.2466153
  86.0746821  57.5119751 130.4906117  86.5715520  56.7589714 130.1707188
  85.3033802  57.5484068 129.9249327  93.9276578  63.2160117 132.1324409
  93.9166454  64.0984832 131.7618342  93.0593957  62.8631668 131.9378946
  85.4359074  72.3640186 136.4927249  86.1487047  72.9987651 136.4203151
  84.9449103  72.4604052 135.6767251  87.1576601  66.2691439 128.0644541
  86.2232880  66.3892901 127.8949245  87.3353270  65.3663905 127.8004551
  82.6581789  59.6537134 130.2177802  82.2879577  59.1008175 130.9058708
  83.1540882  59.0495268 129.6652802  90.5449153  62.1108758 128.5994575
  91.0109605  62.9436750 128.5254878  90.9956653  61.6453740 129.3039833
  80.4870988  70.1134630 137.3132820  81.1880447  70.7471112 137.4662214
  80.0166103  70.4549361 136.5528459  88.6125384  68.4552579 125.5980727
  88.8885228  68.3409174 126.5074601  87.7429883  68.0570064 125.5592900
  88.5165815  54.4789345 132.6385476  87.6028895  54.7093572 132.8067683
  88.9458917  54.5627789 133.4899509  88.2872274  62.6679237 135.1385370
  87.6343724  62.9155144 134.4837823  88.6652654  61.8543375 134.8047848
  85.2479448  72.7038930 129.2413541  85.4301842  71.8860586 129.7041293
  86.0712434  72.9206622 128.8038431  85.5821613  71.6307115 126.5028589
  86.1109380  71.1199570 125.8898751  85.8449833  71.3149645 127.3674122
  84.3359847  63.4099048 141.6251407  83.6600484  63.3093177 142.2953783
  85.1587481  63.2538262 142.0887405  76.0838706  69.6470985 134.2463923
  76.6692143  68.9014672 134.3791827  75.8863544  69.9574941 135.1300587
  78.9377361  72.6822232 129.2626365  78.2687737  73.1668360 128.7790405
  78.7990231  72.9291452 130.1769744  70.6756361  62.2176585 132.9668366
  70.7140460  61.6840175 133.7605484  70.1696654  61.6911790 132.3479343
  83.0782630  74.7165975 135.8609023  83.6300938  74.8797597 136.6258109
  83.4188823  75.3070413 135.1889048  78.0547123  57.0641125 136.4630908
  78.1188450  57.9255956 136.0508306  77.9914243  56.4515127 135.7303267
  77.5299396  59.1364258 140.1103942  78.1571434  58.7541335 140.7241467
  76.6727314  58.9178460 140.4759635  87.9293504  69.5427233 141.7157678
  88.4733408  70.1557191 141.2212633  87.3480349  70.1006811 142.2324691
  74.3064938  60.9440687 126.0422297  74.6018379  60.0351365 125.9889351
  73.4052974  60.9228426 125.7203300  86.2151017  72.6647951 132.8472706
  86.0902157  71.8637691 132.3383651  86.8730108  73.1594144 132.3586676
  77.8359185  59.0196683 132.0249846  77.1145771  59.6332651 131.8857319
  78.6252441  59.5554448 131.9466492  88.2785926  70.4656971 134.4752256
  87.3316261  70.3462322 134.4030582  88.6268699  69.5779469 134.5578517
  80.6385499  56.3551110 138.2990498  81.1619901  56.6013407 139.0616807
  80.4197832  57.1871145 137.8793635  76.0352780  58.6254785 126.1661622
  75.7065486  57.7452163 125.9836728  76.3892151  58.5702453 127.0538012
  85.2832359  70.2609687 130.6756608  85.1357321  69.3326395 130.8564178
  86.1085852  70.2829778 130.1913683  79.1494603  58.9127754 126.5337100
  79.4890676  59.4413676 125.8115708  79.5966724  59.2508160 127.3095667
  88.8866481  71.0838246 131.7621481  89.8113028  70.8781107 131.6245932
  88.7181784  70.8354647 132.6710822  81.8438044  57.2964805 135.9840168
  81.5034864  56.4972618 136.3860848  81.1377050  57.5966516 135.4117001
  82.4954516  54.3814118 134.4367491  83.3180585  53.9074596 134.3146381
  82.7392579  55.1604601 134.9366177  81.1362750  57.4102376 124.7330393
  81.8571113  57.7883629 124.2294110  80.5128054  58.1291253 124.8365371
  85.2793873  58.1147525 125.6688725  85.4957488  58.9972163 125.3677553
  84.7987940  57.7233738 124.9394367  80.0193095  61.0733238 132.2459470
  79.8737675  61.3873541 133.1383751  79.5418298  61.6918138 131.6930368
  81.8789477  58.0635786 132.2940359  81.8651046  57.1676879 131.9572657
  82.5961905  58.0706450 132.9278645  83.7315608  58.4973126 134.3393487
  83.4733386  59.4190197 134.3377817  83.2000648  58.1003561 135.0293951
  88.6761797  71.6023913 127.1183572  88.8498674  71.0370336 126.3657425
  89.1690688  72.4024808 126.9363062  74.4938757  63.6138583 135.1847131
  73.9492225  64.3898391 135.3167405  75.3718107  63.9609387 135.0266252
  81.2826373  56.9450166 127.5627929  81.4042285  56.0166813 127.7618817
  80.9928416  56.9588852 126.6506245  84.1517564  54.6305077 130.6994649
  84.1739261  54.6944410 129.7446629  84.5685623  53.7909586 130.8935155
  94.5301188  64.3660336 128.7373872  94.9732334  63.6167662 128.3392995
  93.6527698  64.3570473 128.3547604  89.6636969  70.9190678 124.2180470
  90.3587874  71.5397371 124.4367785  90.0060119  70.0686029 124.4932848
  75.2804779  62.7408479 138.0777288  74.5386515  62.8891114 138.6641918
  74.9597523  63.0016744 137.2144037  91.5628392  68.3690383 125.7467801
  92.0879717  68.7077656 125.0217121  91.4750745  67.4337399 125.5630936
  83.2248441  72.2824457 137.8757678  83.5335568  72.0373604 138.7480377
  84.0223923  72.4871096 137.3876548  83.2469053  74.4362367 130.1063054
  82.8074044  73.9438745 130.7995911  83.9977170  73.8935334 129.8655130
  75.7261392  70.6273908 130.1087682  76.5519412  70.3277679 129.7286326
  75.3755444  69.8581530 130.5577471  80.6942925  69.9800376 132.1785356
  80.0722935  69.3171081 131.8787584  81.3647792  70.0061508 131.4959004
  73.9269997  68.5460234 131.0676616  73.0901906  68.1182408 130.8860617
  73.8993643  68.7392677 132.0047407  80.7667453  58.4582164 141.7717862
  80.8155608  59.3344287 141.3895632  81.3089967  57.9159557 141.1989505
  91.2522299  69.0023287 141.0518999  90.4617842  68.9847426 140.5123498
  91.0155653  69.5411581 141.8068036  91.3720174  65.8515753 138.3651728
  91.4218179  65.6865761 139.3067250  91.2634097  64.9843012 137.9749608
  80.2556432  68.5304299 125.6543817  80.4044553  69.2139764 125.0010489
  81.0622876  68.5109389 126.1693272  88.6623936  61.8346681 139.6811034
  89.5633799  61.6953146 139.3895032  88.7371910  62.0001136 140.6209212
  82.9966741  59.2113536 138.5264221  82.1270051  59.5047102 138.2546809
  83.2326222  59.7953981 139.2471484  92.8738370  68.2712695 138.6093749
  92.5823179  68.6342675 139.4457210  92.2610502  67.5579703 138.4307081
  94.0734053  65.8365575 131.1296319  94.9080944  66.2755379 131.2933880
  94.2093182  65.3604228 130.3104565  91.1225559  63.3945310 137.0773807
  91.5979680  63.5872956 136.2692659  90.1991124  63.4504495 136.8317191
  78.0109065  64.5569477 126.6604885  77.7655107  63.6531807 126.8585096
  78.1804980  64.5586627 125.7184363  85.7005775  55.4293153 136.0429641
  86.2187719  56.1654180 135.7176130  85.3460908  55.7357146 136.8776400
  77.2804713  60.2897834 124.1591047  76.5873958  60.3642189 123.5031083
  77.0356465  59.5258178 124.6812564  85.9518369  51.8493436 131.5630538
  86.2320123  51.1816625 132.1890964  86.7368976  52.0422531 131.0505201
  83.7551838  71.0252430 123.1255564  83.1825805  71.6442617 122.6726036
  84.3284631  71.5751791 123.6595486  89.8227228  60.2711070 135.3102113
  90.7744651  60.3709167 135.3314337  89.6530678  59.4789338 135.8200197
  87.8441607  57.3566653 135.4961514  87.2491539  57.6371666 134.8008002
  87.5591304  57.8460554 136.2678255  86.9749098  71.3089580 124.2564146
  87.9079771  71.2435141 124.4597022  86.8872310  72.1445847 123.7978679
  89.6037114  70.6255450 121.2168094  89.5250746  70.2915314 122.1103852
  90.4246781  71.1177218 121.2159566  92.3015305  63.4917189 134.4244412
  92.2691626  62.5533190 134.6104096  92.9115929  63.5701226 133.6910237
  84.1398636  62.3613242 120.4671616  85.0857741  62.2319450 120.5360034
  83.7612881  61.6227904 120.9441045  92.4509794  60.2828233 134.4702696
  91.9348843  59.4986689 134.2832624  93.3349742  59.9546949 134.6349215
  90.1120521  54.0269248 130.4298508  89.9145342  53.7184337 131.3141840
  90.7220226  54.7530887 130.5596438  98.1191855  64.5533196 133.5650449
  98.8495244  64.2918484 134.1258153  97.5098801  63.8161918 133.6052517
  96.2007152  62.6941059 134.1624900  95.4740316  62.5597024 133.5541392
  95.7854439  63.0017887 134.9681618  84.0237329  66.4130988 141.9272273
  84.9440338  66.5909587 142.1212320  83.9886912  65.4687034 141.7751973
  82.3241553  60.2863219 120.4026502  81.4173009  59.9896331 120.4789215
  82.6017534  59.9893037 119.5360788  73.2419494  61.6069582 130.8525548
  72.9222278  60.7534890 130.5599922  72.6952922  61.8218160 131.6083515
  77.0199401  64.3232023 134.5695055  77.2385411  65.2549131 134.5883088
  77.4325175  63.9639998 135.3549858  83.9403619  54.8300108 126.5570743
  83.1304347  54.4847193 126.9325989  84.6288036  54.5207652 127.1458355
  85.8694167  53.9078155 128.1795040  86.4225206  54.3273609 128.8385063
  86.1064254  52.9813903 128.2217996  81.8927267  59.8965229 143.9597804
  81.7923994  60.8459586 143.8909895  81.6748809  59.5683468 143.0873874
  81.0940338  57.1450154 120.5438481  81.9559502  57.4705052 120.8034298
  81.2790682  56.3581650 120.0311547  73.1107754  65.2272494 132.8218670
  72.4171225  64.8126446 132.3088624  73.8580745  65.2693030 132.2252089
  89.2472975  56.0178680 127.6873704  88.6671644  56.6763484 127.3051756
  88.9808907  55.1956025 127.2761121  87.6976541  55.4183738 129.8895024
  88.1976319  55.5300273 129.0809343  88.3412149  55.1144791 130.5295833
  81.7558537  63.3262368 142.7762865  81.2725618  64.1262728 142.9826754
  81.8419476  63.3370313 141.8230309  75.0244496  65.1590747 130.6984685
  75.0015184  65.2578435 129.7466568  75.3345133  66.0055898 131.0201851
  77.6831874  67.2166902 134.8131299  78.6375128  67.1850845 134.7461231
  77.4844398  66.7557526 135.6281525  78.2731256  65.7868018 137.3802097
  79.0924145  66.2812097 137.4036934  78.5468064  64.8699987 137.3519664
  88.0297853  58.1778771 126.7430052  87.1423708  58.4628421 126.5250247
  88.4451842  58.0172534 125.8957329  91.3812389  58.2025292 130.4584391
  92.1572779  58.6921744 130.7309008  90.6560523  58.6283346 130.9156261
  93.8184947  58.9152911 131.5158332  94.4129438  58.6748647 130.8051640
  93.8911531  58.1960042 132.1431868  76.0382103  72.7586522 131.8301497
  75.9036571  71.9986923 131.2639495  75.6214165  73.4827422 131.3630286
  87.1741066  67.9423445 120.8378072  87.8776916  68.1473448 121.4535728
  86.4503715  68.5100207 121.1027156  88.0038876  63.6933307 126.9580342
  87.9474078  64.1501858 126.1187975  88.5567219  62.9323991 126.7803185
  91.8143682  59.4823039 127.7830462  91.5580616  59.0819674 128.6138669
  91.1896550  60.1966832 127.6580601  96.1256020  62.2219112 130.2901753
  95.5655578  62.2912301 131.0633315  95.5199523  62.0460096 129.5701249
  79.1951229  73.6555839 132.0419939  79.0783613  74.6001271 131.9398630
  78.3743675  73.3529400 132.4305739  89.0827763  68.3805975 122.8876532
  89.9173367  67.9487173 122.7054007  88.9212106  68.2087988 123.8153427
  88.7373656  64.8838088 124.2532871  88.6822459  64.7182359 123.3121316
  88.1119711  65.5914121 124.4095061  73.5266171  60.1206152 138.0794294
  74.1725034  59.6105106 138.5681519  73.3183322  60.8574834 138.6537719
  86.0519563  67.1887000 143.5786434  86.9210722  67.3627652 143.2173069
  85.5726314  68.0081417 143.4562164  82.0469781  54.3846197 123.8318190
  82.0348451  55.3288037 123.9886461  82.9393203  54.2016342 123.5377651
  80.2205743  74.3084101 135.2575868  81.1232990  74.3407711 135.5742363
  79.9943113  73.3784552 135.2722204  81.9759345  73.0615087 131.9185947
  81.0254976  73.0616949 131.8050319  82.2791831  72.3147822 131.4021981
  85.8621901  50.9788974 128.0864127  85.0954296  50.4247460 128.2320809
  86.2732606  51.0510842 128.9478278  77.8663662  57.2673769 142.1769308
  78.7295123  56.9110574 142.3872632  77.2929072  56.9287664 142.8644712
  97.7112039  78.8975626 132.9831709  98.3490448  78.7782373 132.2795049
  97.5932881  79.8456470 133.0419661  94.5201745  78.8503054 132.9193234
  94.1820256  78.7344119 132.0313768  95.3891513  78.4494219 132.8994240
  90.3788561  80.7038530 128.9090125  89.8153426  80.6128467 128.1406412
  90.2640956  79.8838435 129.3892617  95.0021528  80.0037906 138.8779439
  94.9910169  79.6090704 138.0059943  95.1642167  79.2703978 139.4713211
  87.9252992  82.1989722 131.7474345  88.7174284  81.8580547 131.3320644
  88.1649643  82.3084697 132.6676498  95.9588119  84.3709498 124.2204589
  95.3076099  84.9563578 123.8338603  96.7532482  84.9015693 124.2799627
  89.8843746  81.4598635 124.6191724  90.6574622  80.9127622 124.4804600
  90.2369145  82.3242884 124.8306185  91.7228789  82.7875017 137.8258623
  91.4318655  83.6920648 137.7105289  92.3585773  82.8291545 138.5402693
  92.6484996  80.1651866 134.4159983  93.2448568  79.9407888 133.7016946
  92.7059967  79.4236611 135.0185431  92.2210024  77.6191301 122.2510174
  92.4735545  77.0972823 121.4893637  91.2834583  77.4557447 122.3536857
  97.2653307  76.6227080 130.0584917  98.0516396  76.2046503 129.7075334
  97.5292011  77.5273172 130.2266565  97.4363384  82.0599930 124.7573574
  96.8009217  82.1334556 125.4694478  97.1060791  82.6493529 124.0792653
 102.6661734  76.5602313 130.9617895 103.3986906  75.9901530 131.1955725
 101.9101090  76.1723913 131.4024401  91.9406313  79.5219407 124.4534549
  91.8242571  78.8464311 125.1215633  92.0508573  79.0351781 123.6366702
  94.2837854  78.9829554 128.1581238  93.9196061  78.4560175 128.8694159
  95.1404970  78.5928023 127.9847723 100.1887154  70.2723887 135.4212504
  99.8570479  71.1419298 135.1973719  99.5932768  69.9560171 136.1006534
  93.9243341  74.0119454 123.1542586  94.0917743  74.8799690 123.5213057
  93.7340510  74.1746736 122.2303876  96.6818674  82.4736433 134.8208417
  96.3819397  83.3761472 134.7124224  96.3369734  82.2068616 135.6729570
  90.1331155  78.9250230 130.8545121  89.2081652  78.7926444 131.0622813
  90.3815569  79.7044449 131.3515064 100.0815818  74.9918973 132.5005854
  99.1732695  74.9234382 132.2064615 100.0303414  75.4690918 133.3287680
  93.9032562  76.4677111 124.1389253  93.7832187  76.9134162 124.9774734
  93.2085150  76.8162429 123.5802791  87.4939967  78.5683503 131.6888910
  87.6232348  78.8217982 132.6028322  86.8137418  79.1611211 131.3693565
  91.6639454  89.2380753 127.7879384  91.5863484  90.1888578 127.8667865
  91.0601097  88.8926626 128.4454311  94.1556684  76.4108619 140.4440751
  93.3790018  76.9702539 140.4343616  94.7947247  76.8965402 140.9655622
 101.9477464  73.1935411 134.2783728 101.3051844  73.4867945 133.6323523
 101.4432393  73.0788332 135.0836925  99.6017628  76.9398585 124.9669587
 100.5135484  77.1725971 124.7917285  99.0927275  77.5235629 124.4044666
  92.4103056  79.2194072 140.0058718  93.1517740  79.7579116 139.7293542
  91.7040041  79.8460361 140.1630270  97.8858396  81.3623212 138.6030880
  98.2941752  80.9205623 137.8585512  97.1635657  80.7875840 138.8565073
  94.2389466  76.2995819 135.9764437  95.0850661  76.7235233 136.1199086
  94.1788103  75.6429444 136.6703000  98.2087210  81.9224403 132.3583169
  97.5796073  82.0870117 131.6559237  97.8212872  82.3366013 133.1294133
 102.0876442  82.8578841 129.7127533 101.4027480  83.2377742 129.1624566
 102.1720291  83.4674168 130.4459480  97.3888911  73.9600188 137.6345610
  97.1449843  74.7142248 137.0979886  97.6648841  74.3385535 138.4692858
  99.3427374  80.5038800 136.3122876  99.5544269  81.1470560 135.6357257
  99.2957122  79.6701117 135.8444806  96.9453603  73.1156621 133.2159448
  96.0838082  73.4137874 133.5076186  96.9716037  73.3327020 132.2840481
  93.7615172  81.6598811 129.6233254  94.2253518  81.9386514 128.8337876
  93.4971970  80.7582256 129.4406345  90.6539253  81.2070293 132.5613017
  91.2240610  81.6357561 131.9230502  91.2447365  80.9252877 133.2597203
  92.6984058  77.7821964 126.4322819  93.4008101  78.2343007 126.8996745
  92.3664687  77.1405782 127.0602712  91.1464420  76.3733720 140.8074028
  90.5163080  77.0550001 141.0409425  91.0400508  76.2616802 139.8627167
  86.4409392  76.0405516 131.7339953  85.6508446  76.2963045 131.2580063
  86.9320639  76.8553854 131.8391993 100.4573202  83.3810755 134.4845233
 101.2790645  82.9790943 134.2027915 100.4535605  83.2778990 135.4361349
  88.3924137  76.4050095 128.6923429  87.5955301  76.5168790 129.2106925
  88.1649730  76.7436748 127.8264320  94.2229805  82.9294799 136.6405944
  94.2874238  83.3915206 137.4764116  93.5140729  82.2992164 136.7688254
  84.7247095  76.2936007 134.1654943  84.9755133  77.1783017 134.4312519
  85.2606643  76.1140608 133.3930035 108.5479195  79.7249504 130.8330205
 107.7942903  79.1556902 130.6774209 108.6826736  79.6912168 131.7800840
  93.9377823  84.5962906 126.5084924  93.8023498  85.4414442 126.9369772
  94.4787635  84.7982184 125.7450858  90.4245162  70.6754486 143.1699279
  90.0312108  70.1220685 143.8446924  91.2411303  70.9865065 143.5605797
  87.3907220  82.1138344 127.0812849  87.9031741  82.9081594 127.2318414
  88.0429933  81.4164635 127.0146451  89.2002105  85.2304101 129.1635602
  89.3768733  86.1522065 128.9756586  89.9958938  84.9162520 129.5929982
  93.3413123  72.0912365 140.7619536  94.0822837  72.6919518 140.6823998
  93.5731046  71.3490003 140.2037579  88.4854461  77.2768732 139.0397766
  88.3707977  76.3753990 139.3404865  87.6298979  77.5232429 138.6882582
  95.5646299  85.2186473 140.6385266  95.1210153  84.4322851 140.3206171
  96.2263513  85.4065623 139.9729157  90.3233420  86.7482274 135.1645945
  90.8740845  86.6199338 134.3922939  89.4844896  87.0477163 134.8140838
  97.6627537  85.4989273 138.6666668  97.6446013  86.3198154 138.1746937
  98.5847457  85.3743348 138.8916809  94.1200591  83.0133402 139.5090176
  94.6528928  82.2521690 139.2789484  93.5914672  82.7207054 140.2514330
  97.2870286  68.1193468 135.0383818  96.9434556  69.0095110 134.9622928
  97.6549249  67.9295126 134.1753403  85.3556137  80.4426999 127.8572420
  86.1931359  80.8524007 127.6406128  85.5334405  79.5026441 127.8272614
  97.2520569  78.1102079 123.5456253  96.7367192  78.8806684 123.7844640
  96.9797877  77.4367215 124.1689314  94.8367680  72.9551780 128.6041491
  93.9809276  72.5658630 128.4247130  95.2494632  73.0343741 127.7441277
  96.3666827  70.4898123 133.0033051  95.8631622  70.4528258 132.1900856
  96.6597434  71.3990866 133.0629708  92.6109713  70.5736853 132.0099233
  93.4762709  70.3779662 131.6505122  92.6787221  70.3447205 132.9368589
 102.2254843  80.8634434 125.4809426 101.4484286  80.5245593 125.0364588
 102.9046324  80.8687057 124.8064391  97.0406872  75.9829171 125.3716034
  96.7357008  76.2975320 126.2226177  97.9937314  76.0610591 125.4143367
  95.4853304  82.1419395 127.0208988  94.9574666  81.4072154 126.7082225
  94.9840807  82.9194071 126.7748956 100.4646150  80.3368415 132.1376034
  99.8069825  81.0267676 132.2256163 101.2686549  80.7264847 132.4810021
  90.2172032  72.8039061 129.3815599  90.7915784  72.5814242 128.6488792
  90.8043014  72.8727755 130.1344201  99.2751609  78.6912788 130.1879976
  99.7883491  79.3242780 130.6901686  99.9252833  78.0913983 129.8223336
  90.5441619  74.8343522 123.4011485  89.7078931  75.1718208 123.7220759
  90.4046388  74.6992502 122.4638622  92.5194699  69.6780310 128.1090669
  91.8659112  69.3629327 127.4847284  92.4775174  69.0556050 128.8350492
  93.6305904  79.9599605 120.0243961  92.7232966  79.7288858 120.2235110
  94.1276936  79.1637224 120.2117943  96.5373983  88.6697112 122.9440647
  95.8635682  88.9728809 123.5525605  96.9239805  89.4726192 122.5946104
  95.7532440  76.1662243 132.4338317  94.8355001  76.3877190 132.2760005
  96.1692583  76.2408554 131.5750024  96.5367487  77.5653659 127.5640997
  97.2839306  78.0775056 127.2548119  96.8059077  77.2437712 128.4245390
  94.8094138  80.0612200 124.5467951  93.9005357  79.7771233 124.6440421
  94.8389221  80.4811278 123.6871258 100.0413405  83.6718789 128.3159119
  99.5875732  82.8309699 128.3724309  99.4107372  84.3080188 128.6533899
  98.9846325  74.6010775 129.5459786  98.2469081  74.0888161 129.8770029
  99.2373098  74.1611157 128.7343063  98.4846344  85.5095286 129.2508937
  98.7769319  86.0700343 128.5321302  98.9944965  85.8023847 130.0062096
  99.0857952  67.3787027 130.1401555  99.3916829  66.5184391 129.8527470
  99.8110557  67.9704647 129.9400549  85.3782308  77.7817714 128.5283153
  85.1806708  77.1887075 127.8034220  84.8228972  77.4769924 129.2459092
  93.3579032  77.6740820 130.6477746  93.4127641  76.7214657 130.5720223
  92.5470234  77.8300259 131.1319045  94.5070225  81.6020943 121.8856030
  94.0689655  80.8856802 121.4261667  95.2480666  81.8297058 121.3241121
  91.2971392  76.2917880 128.4068125  90.4839257  76.5912051 128.8133317
  91.7930386  75.8973569 129.1242608  93.4479970  86.2875637 130.3402390
  93.4056148  86.5136483 129.4110922  94.3642668  86.0539012 130.4888191
  96.8945603  76.7559705 137.2383019  97.2494991  76.9831178 138.0977485
  97.5417735  77.0878081 136.6160274 102.6243340  79.8778140 127.9432348
 102.4861239  80.0679736 127.0153537 102.2679559  80.6397523 128.4000399
  90.7885466  73.8636236 134.0229360  91.4284846  73.7224995 133.3252324
  89.9562997  73.5770749 133.6467962 102.6512720  81.9454667 132.9543620
 103.0849227  81.8529957 133.8026674 103.3644301  81.9212168 132.3163636
  91.5645770  83.1638666 130.1364353  92.3586369  82.6688986 129.9346928
  90.8537463  82.6356529 129.7732058  96.3840615  85.5456762 134.4876720
  96.4377637  86.1147698 135.2554436  95.5155396  85.7158647 134.1230757
  87.8728534  77.3081748 126.2124105  86.9426122  77.2466203 126.4294068
  87.9686006  76.7857701 125.4160747  87.7914083  73.8336561 128.8002347
  88.0520900  74.7481894 128.6911508  88.6131255  73.3661003 128.9498960
  89.2639008  75.2474318 135.9701172  89.9362062  75.0391680 135.3213820
  88.4368795  75.0496404 135.5306404 103.5128269  81.9878368 135.4876505
 103.7064160  82.8924179 135.7335780 103.4128888  81.5285787 136.3215090
  95.1664580  71.8736259 137.9866832  94.5192495  72.5726208 137.8931309
  95.9365596  72.3072403 138.3543081  98.5743378  82.1385111 141.0617386
  98.4228885  81.9095663 140.1447469  98.5648058  83.0955712 141.0748731
  95.3428715  79.7117024 136.0463652  96.2720775  79.8628183 135.8732619
  94.9219745  79.8001044 135.1912299  94.1417046  83.7367688 133.8162190
  94.0028132  83.3686472 134.6888128  93.3531643  84.2515327 133.6446148
  94.7365198  88.8376784 125.1587726  94.9116954  88.3664828 125.9733349
  94.0497986  89.4642551 125.3868987  95.6922261  83.1149291 131.2051028
  95.3572094  83.0750061 132.1008677  95.1926207  82.4494007 130.7321438
  89.6666505  78.5216921 136.7303609  89.5286303  77.7897160 137.3315148
  90.5771429  78.4325821 136.4487797  98.6281453  80.4605325 121.4788087
  98.0110624  79.7352153 121.3821140  98.1597942  81.2214685 121.1355162
  92.2948806  78.2336880 136.2187288  93.0048425  77.5930072 136.1773907
  92.2518114  78.4849775 137.1413469 100.2835585  85.1704233 139.1393868
 100.2248131  84.4863454 138.4724451 100.6855103  85.9123223 138.6874494
  91.0077740  75.2202098 138.0382928  90.4715097  74.7692836 138.6904524
  90.4194448  75.3548007 137.2953392  89.3026284  91.9866147 131.9327587
  89.5422882  92.6184671 132.6106605  88.4595480  91.6354187 132.2192946
  90.4179999  74.6790749 120.6009392  89.5409465  74.5579550 120.2371638
  90.8937752  73.8876828 120.3488280 100.2852992  83.1343817 137.3707847
  99.3979771  82.7969739 137.4934246 100.8551543  82.4026849 137.6076613
  81.9382139  79.4667909 130.6950899  82.6253179  79.1529639 130.1071914
  81.7830268  80.3709274 130.4218150  86.7416861  74.3558106 135.1235922
  86.6575050  73.7483775 134.3886332  85.9199568  74.8467124 135.1245419
  93.8154145  87.7945270 134.3369090  93.7424317  88.6000241 134.8488395
  93.3731539  87.9937236 133.5117112  93.6043925  87.0317040 127.8471912
  92.8211447  87.5738720 127.9410137  94.3036670  87.5491019 128.2466153
  96.9140575  72.8411669 130.4906117  97.4109275  72.0881631 130.1707188
  96.1427557  72.8775986 129.9249327 104.7670333  78.5452035 132.1324409
 104.7560209  79.4276750 131.7618342 103.8987712  78.1923586 131.9378946
  96.2752829  87.6932104 136.4927249  96.9880801  88.3279569 136.4203151
  95.7842858  87.7895970 135.6767251  97.9970356  81.5983356 128.0644541
  97.0626635  81.7184819 127.8949245  98.1747024  80.6955823 127.8004551
  93.4975544  74.9829052 130.2177802  93.1273331  74.4300093 130.9058708
  93.9934636  74.3787186 129.6652802 101.3842907  77.4400676 128.5994575
 101.8503359  78.2728667 128.5254878 101.8350408  76.9745657 129.3039833
  91.3264742  85.4426547 137.3132820  92.0274202  86.0763030 137.4662214
  90.8559857  85.7841279 136.5528459  99.4519138  83.7844497 125.5980727
  99.7278982  83.6701092 126.5074601  98.5823637  83.3861982 125.5592900
  99.3559570  69.8081263 132.6385476  98.4422650  70.0385490 132.8067683
  99.7852671  69.8919707 133.4899509  99.1266028  77.9971155 135.1385370
  98.4737479  78.2447062 134.4837823  99.5046408  77.1835293 134.8047848
  96.0873202  88.0330848 129.2413541  96.2695597  87.2152504 129.7041293
  96.9106188  88.2498540 128.8038431  96.4215368  86.9599033 126.5028589
  96.9503134  86.4491488 125.8898751  96.6843587  86.6441563 127.3674122
  95.1753601  78.7390966 141.6251407  94.4994238  78.6385095 142.2953783
  95.9981235  78.5830179 142.0887405  86.9232461  84.9762902 134.2463923
  87.5085897  84.2306590 134.3791827  86.7257299  85.2866859 135.1300587
  89.7771116  88.0114150 129.2626365  89.1081491  88.4960277 128.7790405
  89.6383985  88.2583370 130.1769744  81.5150115  77.5468502 132.9668366
  81.5534215  77.0132093 133.7605484  81.0090408  77.0203708 132.3479343
  93.9176384  90.0457893 135.8609023  94.4694692  90.2089515 136.6258109
  94.2582578  90.6362331 135.1889048  88.8940878  72.3933043 136.4630908
  88.9582204  73.2547874 136.0508306  88.8307998  71.7807045 135.7303267
  88.3693150  74.4656175 140.1103942  88.9965189  74.0833253 140.7241467
  87.5121069  74.2470377 140.4759635  98.7687259  84.8719151 141.7157678
  99.3127163  85.4849109 141.2212633  98.1874104  85.4298729 142.2324691
  85.1458693  76.2732605 126.0422297  85.4412134  75.3643283 125.9889351
  84.2446729  76.2520344 125.7203300  97.0544772  87.9939869 132.8472706
  96.9295911  87.1929609 132.3383651  97.7123863  88.4886062 132.3586676
  88.6752940  74.3488601 132.0249846  87.9539526  74.9624569 131.8857319
  89.4646196  74.8846366 131.9466492  99.1179680  85.7948889 134.4752256
  98.1710016  85.6754240 134.4030582  99.4662453  84.9071387 134.5578517
  91.4779253  71.6843028 138.2990498  92.0013655  71.9305324 139.0616807
  91.2591587  72.5163062 137.8793635  86.8746534  73.9546702 126.1661622
  86.5459241  73.0744081 125.9836728  87.2285905  73.8994371 127.0538012
  96.1226113  85.5901605 130.6756608  95.9751076  84.6618312 130.8564178
  96.9479607  85.6121696 130.1913683  89.9888358  74.2419672 126.5337100
  90.3284430  74.7705593 125.8115708  90.4360478  74.5800078 127.3095667
  99.7260235  86.4130164 131.7621481 100.6506783  86.2073025 131.6245932
  99.5575539  86.1646565 132.6710822  92.6831798  72.6256723 135.9840168
  92.3428619  71.8264536 136.3860848  91.9770805  72.9258434 135.4117001
  93.3348270  69.7106035 134.4367491  94.1574340  69.2366513 134.3146381
  93.5786334  70.4896519 134.9366177  91.9756505  72.7394294 124.7330393
  92.6964867  73.1175546 124.2294110  91.3521809  73.4583170 124.8365371
  96.1187628  73.4439443 125.6688725  96.3351242  74.3264080 125.3677553
  95.6381695  73.0525656 124.9394367  90.8586849  76.4025156 132.2459470
  90.7131430  76.7165459 133.1383751  90.3812053  77.0210056 131.6930368
  92.7183232  73.3927704 132.2940359  92.7044801  72.4968797 131.9572657
  93.4355660  73.3998368 132.9278645  94.5709363  73.8265044 134.3393487
  94.3127140  74.7482115 134.3377817  94.0394403  73.4295479 135.0293951
  99.5155551  86.9315831 127.1183572  99.6892429  86.3662254 126.3657425
 100.0084443  87.7316726 126.9363062  85.3332511  78.9430500 135.1847131
  84.7885979  79.7190308 135.3167405  86.2111861  79.2901305 135.0266252
  92.1220128  72.2742084 127.5627929  92.2436039  71.3458730 127.7618817
  91.8322170  72.2880770 126.6506245  94.9911318  69.9596995 130.6994649
  95.0133015  70.0236328 129.7446629  95.4079377  69.1201503 130.8935155
 105.3694943  79.6952254 128.7373872 105.8126089  78.9459579 128.3392995
 104.4921453  79.6862390 128.3547604 100.5030724  86.2482596 124.2180470
 101.1981628  86.8689288 124.4367785 100.8453874  85.3977947 124.4932848
  86.1198533  78.0700396 138.0777288  85.3780269  78.2183032 138.6641918
  85.7991277  78.3308662 137.2144037 102.4022147  83.6982301 125.7467801
 102.9273471  84.0369574 125.0217121 102.3144500  82.7629316 125.5630936
  94.0642196  87.6116375 137.8757678  94.3729322  87.3665521 138.7480377
  94.8617678  87.8163013 137.3876548  94.0862808  89.7654284 130.1063054
  93.6467798  89.2730663 130.7995911  94.8370925  89.2227252 129.8655130
  86.5655147  85.9565825 130.1087682  87.3913167  85.6569597 129.7286326
  86.2149199  85.1873448 130.5577471  91.5336680  85.3092293 132.1785356
  90.9116689  84.6462998 131.8787584  92.2041547  85.3353425 131.4959004
  84.7663752  83.8752152 131.0676616  83.9295660  83.4474326 130.8860617
  84.7387397  84.0684595 132.0047407  91.6061207  73.7874081 141.7717862
  91.6549363  74.6636204 141.3895632  92.1483722  73.2451475 141.1989505
 102.0916053  84.3315205 141.0518999 101.3011597  84.3139344 140.5123498
 101.8549408  84.8703498 141.8068036 102.2113928  81.1807671 138.3651728
 102.2611933  81.0157679 139.3067250 102.1027851  80.3134930 137.9749608
  91.0950187  83.8596217 125.6543817  91.2438307  84.5431681 125.0010489
  91.9016630  83.8401307 126.1693272  99.5017690  77.1638599 139.6811034
 100.4027553  77.0245064 139.3895032  99.5765665  77.3293054 140.6209212
  93.8360496  74.5405454 138.5264221  92.9663805  74.8339020 138.2546809
  94.0719976  75.1245899 139.2471484 103.7132125  83.6004613 138.6093749
 103.4216933  83.9634593 139.4457210 103.1004256  82.8871621 138.4307081
 104.9127807  81.1657492 131.1296319 105.7474699  81.6047296 131.2933880
 105.0486936  80.6896146 130.3104565 101.9619313  78.7237227 137.0773807
 102.4373435  78.9164874 136.2692659 101.0384879  78.7796413 136.8317191
  88.8502820  79.8861394 126.6604885  88.6048862  78.9823724 126.8585096
  89.0198734  79.8878545 125.7184363  96.5399530  70.7585071 136.0429641
  97.0581473  71.4946098 135.7176130  96.1854662  71.0649064 136.8776400
  88.1198467  75.6189752 124.1591047  87.4267712  75.6934107 123.5031083
  87.8750219  74.8550096 124.6812564  96.7912124  67.1785353 131.5630538
  97.0713878  66.5108542 132.1890964  97.5762731  67.3714449 131.0505201
  94.5945592  86.3544347 123.1255564  94.0219559  86.9734534 122.6726036
  95.1678386  86.9043709 123.6595486 100.6620982  75.6002987 135.3102113
 101.6138405  75.7001085 135.3314337 100.4924433  74.8081256 135.8200197
  98.6835362  72.6858571 135.4961514  98.0885294  72.9663583 134.8008002
  98.3985058  73.1752471 136.2678255  97.8142852  86.6381497 124.2564146
  98.7473525  86.5727059 124.4597022  97.7266065  87.4737764 123.7978679
 100.4430869  85.9547368 121.2168094 100.3644500  85.6207231 122.1103852
 101.2640536  86.4469136 121.2159566 103.1409060  78.8209107 134.4244412
 103.1085380  77.8825108 134.6104096 103.7509684  78.8993144 133.6910237
  94.9792391  77.6905160 120.4671616  95.9251496  77.5611368 120.5360034
  94.6006636  76.9519822 120.9441045 103.2903548  75.6120150 134.4702696
 102.7742597  74.8278607 134.2832624 104.1743497  75.2838867 134.6349215
 100.9514275  69.3561166 130.4298508 100.7539096  69.0476254 131.3141840
 101.5613981  70.0822805 130.5596438 108.9585610  79.8825114 133.5650449
 109.6888998  79.6210402 134.1258153 108.3492555  79.1453836 133.6052517
 107.0400907  78.0232976 134.1624900 106.3134070  77.8888941 133.5541392
 106.6248194  78.3309805 134.9681618  94.8631083  81.7422906 141.9272273
  95.7834093  81.9201505 142.1212320  94.8280666  80.7978951 141.7751973
  93.1635308  75.6155136 120.4026502  92.2566763  75.3188249 120.4789215
  93.4411289  75.3184954 119.5360788  84.0813248  76.9361500 130.8525548
  83.7616033  76.0826808 130.5599922  83.5346677  77.1510078 131.6083515
  87.8593156  79.6523941 134.5695055  88.0779166  80.5841049 134.5883088
  88.2718930  79.2931915 135.3549858  94.7797374  70.1592026 126.5570743
  93.9698102  69.8139111 126.9325989  95.4681791  69.8499570 127.1458355
  96.7087922  69.2370073 128.1795040  97.2618961  69.6565526 128.8385063
  96.9458008  68.3105821 128.2217996  92.7321021  75.2257147 143.9597804
  92.6317748  76.1751503 143.8909895  92.5142563  74.8975385 143.0873874
  91.9334093  72.4742072 120.5438481  92.7953257  72.7996970 120.8034298
  92.1184437  71.6873567 120.0311547  83.9501508  80.5564411 132.8218670
  83.2564980  80.1418364 132.3088624  84.6974499  80.5984948 132.2252089
 100.0866729  71.3470598 127.6873704  99.5065398  72.0055402 127.3051756
  99.8202662  70.5247943 127.2761121  98.5370295  70.7475656 129.8895024
  99.0370074  70.8592190 129.0809343  99.1805903  70.4436709 130.5295833
  92.5952291  78.6554285 142.7762865  92.1119373  79.4554645 142.9826754
  92.6813230  78.6662230 141.8230309  85.8638251  80.4882665 130.6984685
  85.8408939  80.5870352 129.7466568  86.1738887  81.3347816 131.0201851
  88.5225629  82.5458820 134.8131299  89.4768882  82.5142762 134.7461231
  88.3238152  82.0849444 135.6281525  89.1125011  81.1159936 137.3802097
  89.9317900  81.6104015 137.4036934  89.3861819  80.1991904 137.3519664
  98.8691607  73.5070688 126.7430052  97.9817462  73.7920339 126.5250247
  99.2845596  73.3464452 125.8957329 102.2206143  73.5317209 130.4584391
 102.9966533  74.0213662 130.7309008 101.4954277  73.9575264 130.9156261
 104.6578702  74.2444829 131.5158332 105.2523193  74.0040565 130.8051640
 104.7305286  73.5251959 132.1431868  86.8775858  88.0878440 131.8301497
  86.7430325  87.3278840 131.2639495  86.4607920  88.8119339 131.3630286
  98.0134821  83.2715363 120.8378072  98.7170671  83.4765366 121.4535728
  97.2897469  83.8392125 121.1027156  98.8432631  79.0225224 126.9580342
  98.7867832  79.4793776 126.1187975  99.3960973  78.2615909 126.7803185
 102.6537437  74.8114956 127.7830462 102.3974371  74.4111592 128.6138669
 102.0290305  75.5258750 127.6580601 106.9649775  77.5511029 130.2901753
 106.4049333  77.6204219 131.0633315 106.3593278  77.3752014 129.5701249
  90.0344983  88.9847757 132.0419939  89.9177368  89.9293189 131.9398630
  89.2137430  88.6821318 132.4305739  99.9221518  83.7097892 122.8876532
 100.7567122  83.2779091 122.7054007  99.7605861  83.5379906 123.8153427
  99.5767410  80.2130006 124.2532871  99.5216214  80.0474277 123.3121316
  98.9513465  80.9206039 124.4095061  84.3659925  75.4498070 138.0794294
  85.0118789  74.9397024 138.5681519  84.1577076  76.1866752 138.6537719
  96.8913317  82.5178917 143.5786434  97.7604477  82.6919570 143.2173069
  96.4120069  83.3373334 143.4562164  92.8863536  69.7138115 123.8318190
  92.8742205  70.6579955 123.9886461  93.7786957  69.5308260 123.5377651
  91.0599498  89.6376018 135.2575868  91.9626744  89.6699629 135.5742363
  90.8336868  88.7076469 135.2722204  92.8153100  88.3907005 131.9185947
  91.8648731  88.3908867 131.8050319  93.1185586  87.6439740 131.4021981
  96.7015655  66.3080891 128.0864127  95.9348051  65.7539378 128.2320809
  97.1126360  66.3802760 128.9478278  88.7057416  72.5965687 142.1769308
  89.5688878  72.2402492 142.3872632  88.1322827  72.2579582 142.8644712
 108.5505793  94.2267543 132.9831709 109.1884203  94.1074291 132.2795049
 108.4326636  95.1748387 133.0419661 105.3595499  94.1794972 132.9193234
 105.0214011  94.0636036 132.0313768 106.2285267  93.7786137 132.8994240
 101.2182315  96.0330448 128.9090125 100.6547180  95.9420385 128.1406412
 101.1034710  95.2130352 129.3892617 105.8415282  95.3329823 138.8779439
 105.8303923  94.9382622 138.0059943 106.0035922  94.5995896 139.4713211
  98.7646747  97.5281640 131.7474345  99.5568039  97.1872464 131.3320644
  99.0043397  97.6376615 132.6676498 106.7981874  99.7001416 124.2204589
 106.1469853 100.2855496 123.8338603 107.5926237 100.2307611 124.2799627
 100.7237501  96.7890553 124.6191724 101.4968377  96.2419540 124.4804600
 101.0762900  97.6534802 124.8306185 102.5622543  98.1166935 137.8258623
 102.2712409  99.0212566 137.7105289 103.1979528  98.1583463 138.5402693
 103.4878750  95.4943784 134.4159983 104.0842323  95.2699806 133.7016946
 103.5453722  94.7528529 135.0185431 103.0603779  92.9483219 122.2510174
 103.3129299  92.4264740 121.4893637 102.1228338  92.7849364 122.3536857
 108.1047062  91.9518997 130.0584917 108.8910151  91.5338420 129.7075334
 108.3685766  92.8565089 130.2266565 108.2757139  97.3891848 124.7573574
 107.6402972  97.4626474 125.4694478 107.9454545  97.9785446 124.0792653
 113.5055489  91.8894230 130.9617895 114.2380661  91.3193447 131.1955725
 112.7494844  91.5015831 131.4024401 102.7800067  94.8511325 124.4534549
 102.6636326  94.1756228 125.1215633 102.8902327  94.3643699 123.6366702
 105.1231608  94.3121472 128.1581238 104.7589816  93.7852093 128.8694159
 105.9798724  93.9219941 127.9847723 111.0280909  85.6015805 135.4212504
 110.6964234  86.4711216 135.1973719 110.4326522  85.2852089 136.1006534
 104.7637095  89.3411372 123.1542586 104.9311498  90.2091608 123.5213057
 104.5734264  89.5038653 122.2303876 107.5212429  97.8028351 134.8208417
 107.2213152  98.7053389 134.7124224 107.1763488  97.5360534 135.6729570
 100.9724910  94.2542147 130.8545121 100.0475406  94.1218362 131.0622813
 101.2209323  95.0336367 131.3515064 110.9209572  90.3210891 132.5005854
 110.0126450  90.2526299 132.2064615 110.8697168  90.7982836 133.3287680
 104.7426316  91.7969029 124.1389253 104.6225941  92.2426080 124.9774734
 104.0478905  92.1454347 123.5802791  98.3333721  93.8975421 131.6888910
  98.4626102  94.1509900 132.6028322  97.6531172  94.4903129 131.3693565
 102.5033208 104.5672671 127.7879384 102.4257238 105.5180496 127.8667865
 101.8994852 104.2218543 128.4454311 104.9950438  91.7400536 140.4440751
 104.2183772  92.2994456 140.4343616 105.6341001  92.2257319 140.9655622
 112.7871219  88.5227329 134.2783728 112.1445599  88.8159862 133.6323523
 112.2826147  88.4080249 135.0836925 110.4411382  92.2690502 124.9669587
 111.3529238  92.5017889 124.7917285 109.9321029  92.8527547 124.4044666
 103.2496810  94.5485990 140.0058718 103.9911495  95.0871034 139.7293542
 102.5433796  95.1752278 140.1630270 108.7252150  96.6915130 138.6030880
 109.1335506  96.2497541 137.8585512 108.0029412  96.1167758 138.8565073
 105.0783220  91.6287737 135.9764437 105.9244415  92.0527150 136.1199086
 105.0181858  90.9721361 136.6703000 109.0480965  97.2516321 132.3583169
 108.4189827  97.4162035 131.6559237 108.6606627  97.6657930 133.1294133
 112.9270197  98.1870759 129.7127533 112.2421235  98.5669660 129.1624566
 113.0114046  98.7966085 130.4459480 108.2282665  89.2892105 137.6345610
 107.9843597  90.0434166 137.0979886 108.5042596  89.6677453 138.4692858
 110.1821128  95.8330718 136.3122876 110.3938023  96.4762478 135.6357257
 110.1350876  94.9993034 135.8444806 107.7847357  88.4448538 133.2159448
 106.9231836  88.7429792 133.5076186 107.8109792  88.6618937 132.2840481
 104.6008927  96.9890729 129.6233254 105.0647272  97.2678432 128.8337876
 104.3365725  96.0874173 129.4406345 101.4933008  96.5362210 132.5613017
 102.0634365  96.9649479 131.9230502 102.0841119  96.2544795 133.2597203
 103.5377813  93.1113881 126.4322819 104.2401856  93.5634925 126.8996745
 103.2058441  92.4697700 127.0602712 101.9858174  91.7025638 140.8074028
 101.3556835  92.3841919 141.0409425 101.8794262  91.5908719 139.8627167
  97.2803147  91.3697434 131.7339953  96.4902201  91.6254962 131.2580063
  97.7714394  92.1845772 131.8391993 111.2966956  98.7102673 134.4845233
 112.1184400  98.3082860 134.2027915 111.2929359  98.6070907 135.4361349
  99.2317892  91.7342013 128.6923429  98.4349055  91.8460707 129.2106925
  99.0043484  92.0728665 127.8264320 105.0623560  98.2586716 136.6405944
 105.1267992  98.7207124 137.4764116 104.3534483  97.6284081 136.7688254
  95.5640850  91.6227924 134.1654943  95.8148888  92.5074934 134.4312519
  96.1000398  91.4432526 133.3930035 119.3872949  95.0541422 130.8330205
 118.6336658  94.4848820 130.6774209 119.5220490  95.0204086 131.7800840
 104.7771577  99.9254824 126.5084924 104.6417252 100.7706360 126.9369772
 105.3181390 100.1274102 125.7450858 101.2638917  86.0046404 143.1699279
 100.8705862  85.4512602 143.8446924 102.0805057  86.3156982 143.5605797
  98.2300975  97.4430262 127.0812849  98.7425495  98.2373512 127.2318414
  98.8823687  96.7456552 127.0146451 100.0395859 100.5596018 129.1635602
 100.2162488 101.4813983 128.9756586 100.8352693 100.2454437 129.5929982
 104.1806878  87.4204283 140.7619536 104.9216591  88.0211436 140.6823998
 104.4124801  86.6781921 140.2037579  99.3248216  92.6060650 139.0397766
  99.2101731  91.7045907 139.3404865  98.4692734  92.8524347 138.6882582
 106.4040054 100.5478390 140.6385266 105.9603908  99.7614769 140.3206171
 107.0657267 100.7357541 139.9729157 101.1627175 102.0774192 135.1645945
 101.7134600 101.9491255 134.3922939 100.3238651 102.3769081 134.8140838
 108.5021292 100.8281190 138.6666668 108.4839767 101.6490071 138.1746937
 109.4241212 100.7035266 138.8916809 104.9594346  98.3425320 139.5090176
 105.4922683  97.5813608 139.2789484 104.4308427  98.0498972 140.2514330
 108.1264041  83.4485386 135.0383818 107.7828310  84.3387027 134.9622928
 108.4943003  83.2587043 134.1753403  96.1949891  95.7718916 127.8572420
  97.0325113  96.1815925 127.6406128  96.3728159  94.8318358 127.8272614
 108.0914324  93.4393997 123.5456253 107.5760947  94.2098602 123.7844640
 107.8191632  92.7659133 124.1689314 105.6761435  88.2843698 128.6041491
 104.8203031  87.8950548 128.4247130 106.0888386  88.3635658 127.7441277
 107.2060581  85.8190041 133.0033051 106.7025377  85.7820176 132.1900856
 107.4991188  86.7282784 133.0629708 103.4503467  85.9028771 132.0099233
 104.3156464  85.7071579 131.6505122 103.5180976  85.6739122 132.9368589
 113.0648598  96.1926352 125.4809426 112.2878040  95.8537511 125.0364588
 113.7440079  96.1978975 124.8064391 107.8800627  91.3121089 125.3716034
 107.5750762  91.6267238 126.2226177 108.8331069  91.3902509 125.4143367
 106.3247059  97.4711312 127.0208988 105.7968420  96.7364072 126.7082225
 105.8234561  98.2485989 126.7748956 111.3039905  95.6660333 132.1376034
 110.6463579  96.3559594 132.2256163 112.1080304  96.0556765 132.4810021
 101.0565786  88.1330979 129.3815599 101.6309538  87.9106160 128.6488792
 101.6436769  88.2019673 130.1344201 110.1145363  94.0204705 130.1879976
 110.6277245  94.6534697 130.6901686 110.7646587  93.4205901 129.8223336
 101.3835373  90.1635440 123.4011485 100.5472686  90.5010126 123.7220759
 101.2440143  90.0284419 122.4638622 103.3588454  85.0072227 128.1090669
 102.7052866  84.6921245 127.4847284 103.3168928  84.3847968 128.8350492
 104.4699659  95.2891523 120.0243961 103.5626720  95.0580776 120.2235110
 104.9670691  94.4929142 120.2117943 107.3767738 103.9989030 122.9440647
 106.7029436 104.3020726 123.5525605 107.7633560 104.8018110 122.5946104
 106.5926194  91.4954161 132.4338317 105.6748756  91.7169108 132.2760005
 107.0086338  91.5700471 131.5750024 107.3761242  92.8945577 127.5640997
 108.1233061  93.4066974 127.2548119 107.6452832  92.5729629 128.4245390
 105.6487892  95.3904117 124.5467951 104.7399111  95.1063150 124.6440421
 105.6782976  95.8103196 123.6871258 110.8807160  99.0010707 128.3159119
 110.4269487  98.1601617 128.3724309 110.2501126  99.6372105 128.6533899
 109.8240079  89.9302693 129.5459786 109.0862836  89.4180079 129.8770029
 110.0766853  89.4903075 128.7343063 109.3240099 100.8387204 129.2508937
 109.6163073 101.3992261 128.5321302 109.8338719 101.1315765 130.0062096
 109.9251706  82.7078945 130.1401555 110.2310583  81.8476308 129.8527470
 110.6504311  83.2996565 129.9400549  96.2176063  93.1109632 128.5283153
  96.0200462  92.5178992 127.8034220  95.6622727  92.8061842 129.2459092
 104.1972786  93.0032738 130.6477746 104.2521396  92.0506574 130.5720223
 103.3863988  93.1592177 131.1319045 105.3463980  96.9312861 121.8856030
 104.9083410  96.2148720 121.4261667 106.0874421  97.1588976 121.3241121
 102.1365146  91.6209798 128.4068125 101.3233012  91.9203968 128.8133317
 102.6324140  91.2265487 129.1242608 104.2873724 101.6167555 130.3402390
 104.2449903 101.8428401 129.4110922 105.2036423 101.3830929 130.4888191
 107.7339358  92.0851622 137.2383019 108.0888746  92.3123095 138.0977485
 108.3811489  92.4169999 136.6160274 113.4637095  95.2070058 127.9432348
 113.3254993  95.3971654 127.0153537 113.1073314  95.9689441 128.4000399
 101.6279221  89.1928153 134.0229360 102.2678600  89.0516912 133.3252324
 100.7956751  88.9062667 133.6467962 113.4906474  97.2746585 132.9543620
 113.9242981  97.1821874 133.8026674 114.2038055  97.2504086 132.3163636
 102.4039525  98.4930584 130.1364353 103.1980123  97.9980904 129.9346928
 101.6931217  97.9648447 129.7732058 107.2234369 100.8748679 134.4876720
 107.2771392 101.4439616 135.2554436 106.3549151 101.0450564 134.1230757
  98.7122288  92.6373665 126.2124105  97.7819876  92.5758121 126.4294068
  98.8079760  92.1149618 125.4160747  98.6307837  89.1628478 128.8002347
  98.8914655  90.0773812 128.6911508  99.4525010  88.6952921 128.9498960
 100.1032763  90.5766235 135.9701172 100.7755816  90.3683598 135.3213820
  99.2762549  90.3788321 135.5306404 114.3522024  97.3170286 135.4876505
 114.5457914  98.2216096 135.7335780 114.2522642  96.8577705 136.3215090
 106.0058335  87.2028176 137.9866832 105.3586250  87.9018126 137.8931309
 106.7759350  87.6364320 138.3543081 109.4137133  97.4677029 141.0617386
 109.2622639  97.2387580 140.1447469 109.4041812  98.4247630 141.0748731
 106.1822469  95.0408941 136.0463652 107.1114529  95.1920101 135.8732619
 105.7613499  95.1292962 135.1912299 104.9810801  99.0659606 133.8162190
 104.8421886  98.6978390 134.6888128 104.1925397  99.5807245 133.6446148
 105.5758953 104.1668702 125.1587726 105.7510708 103.6956745 125.9733349
 104.8891741 104.7934468 125.3868987 106.5316016  98.4441208 131.2051028
 106.1965849  98.4041978 132.1008677 106.0319962  97.7785924 130.7321438
 100.5060260  93.8508838 136.7303609 100.3680058  93.1189077 137.3315148
 101.4165183  93.7617739 136.4487797 109.4675208  95.7897243 121.4788087
 108.8504378  95.0644071 121.3821140 108.9991696  96.5506603 121.1355162
 103.1342561  93.5628798 136.2187288 103.8442179  92.9221990 136.1773907
 103.0911869  93.8141693 137.1413469 111.1229339 100.4996151 139.1393868
 111.0641885  99.8155371 138.4724451 111.5248858 101.2415141 138.6874494
 101.8471495  90.5494016 138.0382928 101.3108852  90.0984754 138.6904524
 101.2588203  90.6839924 137.2953392 100.1420038 107.3158065 131.9327587
 100.3816636 107.9476589 132.6106605  99.2989235 106.9646105 132.2192946
 101.2573753  90.0082667 120.6009392 100.3803220  89.8871468 120.2371638
 101.7331507  89.2168745 120.3488280 111.1246747  98.4635735 137.3707847
 110.2373525  98.1261657 137.4934246 111.6945298  97.7318766 137.6076613
  92.7775894  94.7959827 130.6950899  93.4646933  94.4821557 130.1071914
  92.6224022  95.7001191 130.4218150  97.5810616  89.6850023 135.1235922
  97.4968805  89.0775693 134.3886332  96.7593322  90.1759042 135.1245419
 104.6547900 103.1237187 134.3369090 104.5818071 103.9292159 134.8488395
 104.2125293 103.3229153 133.5117112 104.4437680 102.3608957 127.8471912
 103.6605201 102.9030638 127.9410137 105.1430425 102.8782937 128.2466153
 107.7534330  88.1703587 130.4906117 108.2503029  87.4173549 130.1707188
 106.9821311  88.2067904 129.9249327 115.6064087  93.8743952 132.1324409
 115.5953963  94.7568668 131.7618342 114.7381466  93.5215503 131.9378946
 107.1146583 103.0224021 136.4927249 107.8274556 103.6571486 136.4203151
 106.6236612 103.1187887 135.6767251 108.8364110  96.9275274 128.0644541
 107.9020389  97.0476737 127.8949245 109.0140779  96.0247741 127.8004551
 104.3369298  90.3120970 130.2177802 103.9667086  89.7592010 130.9058708
 104.8328391  89.7079103 129.6652802 112.2236662  92.7692593 128.5994575
 112.6897114  93.6020585 128.5254878 112.6744162  92.3037575 129.3039833
 102.1658497 100.7718465 137.3132820 102.8667956 101.4054948 137.4662214
 101.6953612 101.1133196 136.5528459 110.2912893  99.1136415 125.5980727
 110.5672737  98.9993009 126.5074601 109.4217392  98.7153899 125.5592900
 110.1953324  85.1373180 132.6385476 109.2816404  85.3677407 132.8067683
 110.6246426  85.2211624 133.4899509 109.9659783  93.3263072 135.1385370
 109.3131233  93.5738980 134.4837823 110.3440163  92.5127210 134.8047848
 106.9266957 103.3622765 129.2413541 107.1089351 102.5444421 129.7041293
 107.7499943 103.5790458 128.8038431 107.2609122 102.2890951 126.5028589
 107.7896889 101.7783405 125.8898751 107.5237342 101.9733481 127.3674122
 106.0147356  94.0682883 141.6251407 105.3387993  93.9677013 142.2953783
 106.8374990  93.9122097 142.0887405  97.7626215 100.3054820 134.2463923
  98.3479652  99.5598508 134.3791827  97.5651053 100.6158777 135.1300587
 100.6164870 103.3406067 129.2626365  99.9475245 103.8252195 128.7790405
 100.4777740 103.5875288 130.1769744  92.3543870  92.8760420 132.9668366
  92.3927969  92.3424011 133.7605484  91.8484163  92.3495626 132.3479343
 104.7570139 105.3749811 135.8609023 105.3088447 105.5381432 136.6258109
 105.0976332 105.9654249 135.1889048  99.7334632  87.7224961 136.4630908
  99.7975959  88.5839792 136.0508306  99.6701752  87.1098962 135.7303267
  99.2086905  89.7948093 140.1103942  99.8358943  89.4125170 140.7241467
  98.3514823  89.5762295 140.4759635 109.6081013 100.2011068 141.7157678
 110.1520917 100.8141027 141.2212633 109.0267858 100.7590647 142.2324691
  95.9852447  91.6024522 126.0422297  96.2805888  90.6935201 125.9889351
  95.0840483  91.5812262 125.7203300 107.8938526 103.3231786 132.8472706
 107.7689666 102.5221526 132.3383651 108.5517617 103.8177980 132.3586676
  99.5146694  89.6780519 132.0249846  98.7933280  90.2916487 131.8857319
 100.3039950  90.2138284 131.9466492 109.9573434 101.1240806 134.4752256
 109.0103770 101.0046158 134.4030582 110.3056208 100.2363304 134.5578517
 102.3173008  87.0134945 138.2990498 102.8407410  87.2597242 139.0616807
 102.0985341  87.8454980 137.8793635  97.7140289  89.2838620 126.1661622
  97.3852995  88.4035999 125.9836728  98.0679660  89.2286289 127.0538012
 106.9619868 100.9193523 130.6756608 106.8144830  99.9910230 130.8564178
 107.7873361 100.9413613 130.1913683 100.8282112  89.5711590 126.5337100
 101.1678185  90.0997511 125.8115708 101.2754233  89.9091996 127.3095667
 110.5653990 101.7422081 131.7621481 111.4900537 101.5364943 131.6245932
 110.3969293 101.4938483 132.6710822 103.5225553  87.9548640 135.9840168
 103.1822373  87.1556454 136.3860848 102.8164559  88.2550351 135.4117001
 104.1742025  85.0397953 134.4367491 104.9968094  84.5658431 134.3146381
 104.4180088  85.8188437 134.9366177 102.8150259  88.0686211 124.7330393
 103.5358622  88.4467464 124.2294110 102.1915563  88.7875088 124.8365371
 106.9581382  88.7731360 125.6688725 107.1744996  89.6555998 125.3677553
 106.4775449  88.3817574 124.9394367 101.6980603  91.7317074 132.2459470
 101.5525184  92.0457377 133.1383751 101.2205807  92.3501974 131.6930368
 103.5576986  88.7219622 132.2940359 103.5438555  87.8260715 131.9572657
 104.2749414  88.7290285 132.9278645 105.4103117  89.1556962 134.3393487
 105.1520895  90.0774032 134.3377817 104.8788157  88.7587396 135.0293951
 110.3549306 102.2607749 127.1183572 110.5286183 101.6954171 126.3657425
 110.8478197 103.0608644 126.9363062  96.1726266  94.2722418 135.1847131
  95.6279734  95.0482226 135.3167405  97.0505616  94.6193222 135.0266252
 102.9613882  87.6034002 127.5627929 103.0829793  86.6750648 127.7618817
 102.6715925  87.6172688 126.6506245 105.8305073  85.2888912 130.6994649
 105.8526770  85.3528245 129.7446629 106.2473132  84.4493421 130.8935155
 116.2088697  95.0244172 128.7373872 116.6519843  94.2751497 128.3392995
 115.3315207  95.0154308 128.3547604 111.3424478 101.5774513 124.2180470
 112.0375383 102.1981206 124.4367785 111.6847628 100.7269864 124.4932848
  96.9592288  93.3992314 138.0777288  96.2174024  93.5474950 138.6641918
  96.6385032  93.6600580 137.2144037 113.2415901  99.0274219 125.7467801
 113.7667226  99.3661492 125.0217121 113.1538254  98.0921234 125.5630936
 104.9035950 102.9408292 137.8757678 105.2123077 102.6957439 138.7480377
 105.7011432 103.1454931 137.3876548 104.9256562 105.0946202 130.1063054
 104.4861552 104.6022581 130.7995911 105.6764679 104.5519170 129.8655130
  97.4048901 101.2857743 130.1087682  98.2306921 100.9861515 129.7286326
  97.0542953 100.5165365 130.5577471 102.3730434 100.6384211 132.1785356
 101.7510444  99.9754916 131.8787584 103.0435301 100.6645343 131.4959004
  95.6057506  99.2044069 131.0676616  94.7689415  98.7766244 130.8860617
  95.5781152  99.3976513 132.0047407 102.4454962  89.1165999 141.7717862
 102.4943117  89.9928122 141.3895632 102.9877476  88.5743392 141.1989505
 112.9309808  99.6607122 141.0518999 112.1405351  99.6431261 140.5123498
 112.6943162 100.1995416 141.8068036 113.0507683  96.5099589 138.3651728
 113.1005687  96.3449596 139.3067250 112.9421606  95.6426848 137.9749608
 101.9343941  99.1888134 125.6543817 102.0832062  99.8723599 125.0010489
 102.7410385  99.1693225 126.1693272 110.3411445  92.4930517 139.6811034
 111.2421308  92.3536982 139.3895032 110.4159419  92.6584972 140.6209212
 104.6754250  89.8697372 138.5264221 103.8057560  90.1630938 138.2546809
 104.9113731  90.4537817 139.2471484 114.5525879  98.9296530 138.6093749
 114.2610688  99.2926511 139.4457210 113.9398011  98.2163539 138.4307081
 115.7521562  96.4949410 131.1296319 116.5868453  96.9339214 131.2933880
 115.8880691  96.0188063 130.3104565 112.8013068  94.0529145 137.0773807
 113.2767189  94.2456791 136.2692659 111.8778633  94.1088331 136.8317191
  99.6896574  95.2153312 126.6604885  99.4442616  94.3115642 126.8585096
  99.8592489  95.2170463 125.7184363 107.3793284  86.0876988 136.0429641
 107.8975228  86.8238015 135.7176130 107.0248417  86.3940982 136.8776400
  98.9592222  90.9481670 124.1591047  98.2661467  91.0226025 123.5031083
  98.7143974  90.1842013 124.6812564 107.6305878  82.5077271 131.5630538
 107.9107632  81.8400460 132.1890964 108.4156485  82.7006367 131.0505201
 105.4339347 101.6836265 123.1255564 104.8613314 102.3026452 122.6726036
 106.0072140 102.2335627 123.6595486 111.5014737  90.9294905 135.3102113
 112.4532160  91.0293003 135.3314337 111.3318187  90.1373174 135.8200197
 109.5229116  88.0150488 135.4961514 108.9279048  88.2955501 134.8008002
 109.2378813  88.5044389 136.2678255 108.6536607 101.9673415 124.2564146
 109.5867280 101.9018977 124.4597022 108.5659819 102.8029682 123.7978679
 111.2824623 101.2839285 121.2168094 111.2038255 100.9499149 122.1103852
 112.1034290 101.7761053 121.2159566 113.9802814  94.1501025 134.4244412
 113.9479135  93.2117025 134.6104096 114.5903438  94.2285061 133.6910237
 105.8186145  93.0197078 120.4671616 106.7645250  92.8903286 120.5360034
 105.4400390  92.2811740 120.9441045 114.1297303  90.9412068 134.4702696
 113.6136352  90.1570525 134.2832624 115.0137251  90.6130785 134.6349215
 111.7908030  84.6853084 130.4298508 111.5932851  84.3768172 131.3141840
 112.4007735  85.4114723 130.5596438 119.7979364  95.2117032 133.5650449
 120.5282753  94.9502320 134.1258153 119.1886310  94.4745753 133.6052517
 117.8794661  93.3524894 134.1624900 117.1527825  93.2180859 133.5541392
 117.4641948  93.6601723 134.9681618 105.7024838  97.0714824 141.9272273
 106.6227847  97.2493423 142.1212320 105.6674421  96.1270869 141.7751973
 104.0029062  90.9447054 120.4026502 103.0960518  90.6480167 120.4789215
 104.2805043  90.6476872 119.5360788  94.9207003  92.2653417 130.8525548
  94.6009787  91.4118726 130.5599922  94.3740431  92.4801996 131.6083515
  98.6986910  94.9815858 134.5695055  98.9172920  95.9132966 134.5883088
  99.1112684  94.6223833 135.3549858 105.6191128  85.4883944 126.5570743
 104.8091856  85.1431029 126.9325989 106.3075545  85.1791487 127.1458355
 107.5481676  84.5661991 128.1795040 108.1012715  84.9857444 128.8385063
 107.7851763  83.6397739 128.2217996 103.5714776  90.5549064 143.9597804
 103.4711503  91.5043421 143.8909895 103.3536318  90.2267303 143.0873874
 102.7727847  87.8033989 120.5438481 103.6347011  88.1288888 120.8034298
 102.9578191  87.0165485 120.0311547  94.7895263  95.8856329 132.8218670
  94.0958734  95.4710282 132.3088624  95.5368254  95.9276865 132.2252089
 110.9260484  86.6762516 127.6873704 110.3459153  87.3347320 127.3051756
 110.6596416  85.8539860 127.2761121 109.3764050  86.0767573 129.8895024
 109.8763828  86.1884108 129.0809343 110.0199658  85.7728626 130.5295833
 103.4346046  93.9846203 142.7762865 102.9513127  94.7846563 142.9826754
 103.5206985  93.9954148 141.8230309  96.7032005  95.8174583 130.6984685
  96.6802693  95.9162270 129.7466568  97.0132642  96.6639734 131.0201851
  99.3619383  97.8750738 134.8131299 100.3162637  97.8434680 134.7461231
  99.1631907  97.4141361 135.6281525  99.9518765  96.4451854 137.3802097
 100.7711654  96.9395932 137.4036934 100.2255573  95.5283822 137.3519664
 109.7085362  88.8362606 126.7430052 108.8211217  89.1212257 126.5250247
 110.1239351  88.6756369 125.8957329 113.0599898  88.8609127 130.4584391
 113.8360288  89.3505580 130.7309008 112.3348032  89.2867181 130.9156261
 115.4972456  89.5736746 131.5158332 116.0916947  89.3332482 130.8051640
 115.5699040  88.8543877 132.1431868  97.7169612 103.4170357 131.8301497
  97.5824080 102.6570758 131.2639495  97.3001674 104.1411257 131.3630286
 108.8528575  98.6007281 120.8378072 109.5564425  98.8057283 121.4535728
 108.1291224  99.1684043 121.1027156 109.6826385  94.3517142 126.9580342
 109.6261587  94.8085693 126.1187975 110.2354728  93.5907827 126.7803185
 113.4931191  90.1406874 127.7830462 113.2368125  89.7403510 128.6138669
 112.8684059  90.8550668 127.6580601 117.8043529  92.8802947 130.2901753
 117.2443087  92.9496136 131.0633315 117.1987032  92.7043932 129.5701249
 100.8738738 104.3139674 132.0419939 100.7571122 105.2585107 131.9398630
 100.0531184 104.0113236 132.4305739 110.7615272  99.0389810 122.8876532
 111.5960876  98.6071008 122.7054007 110.5999615  98.8671824 123.8153427
 110.4161165  95.5421923 124.2532871 110.3609968  95.3766195 123.3121316
 109.7907220  96.2497956 124.4095061  95.2053680  90.7789988 138.0794294
  95.8512543  90.2688942 138.5681519  94.9970831  91.5158669 138.6537719
 107.7307072  97.8470835 143.5786434 108.5998231  98.0211487 143.2173069
 107.2513823  98.6665252 143.4562164 103.7257290  85.0430032 123.8318190
 103.7135960  85.9871872 123.9886461 104.6180712  84.8600178 123.5377651
 101.8993252 104.9667936 135.2575868 102.8020499 104.9991546 135.5742363
 101.6730622 104.0368387 135.2722204 103.6546854 103.7198923 131.9185947
 102.7042485 103.7200784 131.8050319 103.9579340 102.9731657 131.4021981
 107.5409410  81.6372809 128.0864127 106.7741805  81.0831296 128.2320809
 107.9520114  81.7094678 128.9478278  99.5451171  87.9257605 142.1769308
 100.4082632  87.5694410 142.3872632  98.9716581  87.5871500 142.8644712
 119.3899548 109.5559461 132.9831709 120.0277957 109.4366208 132.2795049
 119.2720390 110.5040305 133.0419661 116.1989254 109.5086889 132.9193234
 115.8607765 109.3927954 132.0313768 117.0679022 109.1078054 132.8994240
 112.0576069 111.3622366 128.9090125 111.4940935 111.2712303 128.1406412
 111.9428465 110.5422270 129.3892617 116.6809037 110.6621741 138.8779439
 116.6697678 110.2674539 138.0059943 116.8429676 109.9287814 139.4713211
 109.6040501 112.8573557 131.7474345 110.3961793 112.5164382 131.3320644
 109.8437152 112.9668532 132.6676498 117.6375628 115.0293333 124.2204589
 116.9863608 115.6147414 123.8338603 118.4319991 115.5599528 124.2799627
 111.5631255 112.1182470 124.6191724 112.3362131 111.5711458 124.4804600
 111.9156654 112.9826720 124.8306185 113.4016298 113.4458853 137.8258623
 113.1106164 114.3504484 137.7105289 114.0373282 113.4875380 138.5402693
 114.3272505 110.8235701 134.4159983 114.9236077 110.5991724 133.7016946
 114.3847476 110.0820447 135.0185431 113.8997533 108.2775137 122.2510174
 114.1523054 107.7556658 121.4893637 112.9622092 108.1141282 122.3536857
 118.9440816 107.2810915 130.0584917 119.7303905 106.8630338 129.7075334
 119.2079520 108.1857007 130.2266565 119.1150893 112.7183765 124.7573574
 118.4796726 112.7918392 125.4694478 118.7848300 113.3077364 124.0792653
 124.3449243 107.2186148 130.9617895 125.0774415 106.6485365 131.1955725
 123.5888599 106.8307749 131.4024401 113.6193822 110.1803243 124.4534549
 113.5030080 109.5048146 125.1215633 113.7296082 109.6935616 123.6366702
 115.9625363 109.6413390 128.1581238 115.5983570 109.1144011 128.8694159
 116.8192479 109.2511859 127.9847723 121.8674663 100.9307722 135.4212504
 121.5357988 101.8003133 135.1973719 121.2720277 100.6144006 136.1006534
 115.6030850 104.6703289 123.1542586 115.7705252 105.5383526 123.5213057
 115.4128019 104.8330571 122.2303876 118.3606183 113.1320268 134.8208417
 118.0606906 114.0345307 134.7124224 118.0157243 112.8652451 135.6729570
 111.8118664 109.5834065 130.8545121 110.8869161 109.4510279 131.0622813
 112.0603078 110.3628284 131.3515064 121.7603327 105.6502808 132.5005854
 120.8520204 105.5818217 132.2064615 121.7090923 106.1274753 133.3287680
 115.5820071 107.1260947 124.1389253 115.4619696 107.5717998 124.9774734
 114.8872659 107.4746265 123.5802791 109.1727476 109.2267339 131.6888910
 109.3019857 109.4801818 132.6028322 108.4924927 109.8195047 131.3693565
 113.3426963 119.8964589 127.7879384 113.2650993 120.8472414 127.8667865
 112.7388606 119.5510461 128.4454311 115.8344193 107.0692454 140.4440751
 115.0577527 107.6286374 140.4343616 116.4734756 107.5549237 140.9655622
 123.6264973 103.8519247 134.2783728 122.9839353 104.1451780 133.6323523
 123.1219902 103.7372167 135.0836925 121.2805137 107.5982420 124.9669587
 122.1922993 107.8309807 124.7917285 120.7714784 108.1819464 124.4044666
 114.0890565 109.8777907 140.0058718 114.8305249 110.4162951 139.7293542
 113.3827550 110.5044196 140.1630270 115.9176975 106.9579655 135.9764437
 116.7638170 107.3819068 136.1199086 115.8575612 106.3013279 136.6703000
 119.8874719 112.5808238 132.3583169 119.2583582 112.7453953 131.6559237
 119.5000381 112.9949848 133.1294133 123.7663951 113.5162676 129.7127533
 123.0814989 113.8961578 129.1624566 123.8507800 114.1258003 130.4459480
 119.0676420 104.6184023 137.6345610 118.8237352 105.3726084 137.0979886
 119.3436350 104.9969371 138.4692858 121.0214883 111.1622635 136.3122876
 121.2331778 111.8054395 135.6357257 120.9744631 110.3284952 135.8444806
 118.6241112 103.7740456 133.2159448 117.7625591 104.0721710 133.5076186
 118.6503546 103.9910855 132.2840481 115.4402681 112.3182647 129.6233254
 115.9041027 112.5970350 128.8337876 115.1759479 111.4166091 129.4406345
 112.3326762 111.8654128 132.5613017 112.9028119 112.2941396 131.9230502
 112.9234874 111.5836713 133.2597203 114.3771567 108.4405799 126.4322819
 115.0795610 108.8926843 126.8996745 114.0452196 107.7989618 127.0602712
 112.8251929 107.0317556 140.8074028 112.1950589 107.7133836 141.0409425
 112.7188017 106.9200637 139.8627167 108.1196901 106.6989352 131.7339953
 107.3295955 106.9546880 131.2580063 108.6108148 107.5137689 131.8391993
 122.1360711 114.0394591 134.4845233 122.9578154 113.6374778 134.2027915
 122.1323113 113.9362825 135.4361349 110.0711646 107.0633931 128.6923429
 109.2742810 107.1752625 129.2106925 109.8437239 107.4020583 127.8264320
 115.9017314 113.5878634 136.6405944 115.9661747 114.0499041 137.4764116
 115.1928238 112.9575999 136.7688254 106.4034604 106.9519842 134.1654943
 106.6542642 107.8366852 134.4312519 106.9394152 106.7724444 133.3930035
 130.2266704 110.3833339 130.8330205 129.4730412 109.8140737 130.6774209
 130.3614245 110.3496004 131.7800840 115.6165332 115.2546742 126.5084924
 115.4811007 116.0998277 126.9369772 116.1575144 115.4566019 125.7450858
 112.1032671 101.3338321 143.1699279 111.7099617 100.7804520 143.8446924
 112.9198812 101.6448900 143.5605797 109.0694729 112.7722180 127.0812849
 109.5819250 113.5665430 127.2318414 109.7217442 112.0748470 127.0146451
 110.8789614 115.8887936 129.1635602 111.0556242 116.8105901 128.9756586
 111.6746447 115.5746355 129.5929982 115.0200632 102.7496200 140.7619536
 115.7610346 103.3503354 140.6823998 115.2518555 102.0073838 140.2037579
 110.1641970 107.9352568 139.0397766 110.0495485 107.0337825 139.3404865
 109.3086488 108.1816265 138.6882582 112.0020929 117.4066110 135.1645945
 112.5528354 117.2783173 134.3922939 111.1632405 117.7060999 134.8140838
 118.9657795  98.7777303 135.0383818 118.6222065  99.6678945 134.9622928
 119.3336758  98.5878961 134.1753403 107.0343646 111.1010834 127.8572420
 107.8718868 111.5107842 127.6406128 107.2121914 110.1610276 127.8272614
 118.9308078 108.7685915 123.5456253 118.4154701 109.5390519 123.7844640
 118.6585386 108.0951051 124.1689314 116.5155189 103.6135615 128.6041491
 115.6596785 103.2242466 128.4247130 116.9282141 103.6927576 127.7441277
 118.0454336 101.1481959 133.0033051 117.5419131 101.1112094 132.1900856
 118.3384943 102.0574701 133.0629708 114.2897222 101.2320688 132.0099233
 115.1550218 101.0363497 131.6505122 114.3574730 101.0031040 132.9368589
 123.9042352 111.5218269 125.4809426 123.1271795 111.1829429 125.0364588
 124.5833833 111.5270892 124.8064391 118.7194381 106.6413007 125.3716034
 118.4144517 106.9559156 126.2226177 119.6724823 106.7194427 125.4143367
 117.1640813 112.8003230 127.0208988 116.6362175 112.0655990 126.7082225
 116.6628316 113.5777906 126.7748956 122.1433659 110.9952250 132.1376034
 121.4857333 111.6851512 132.2256163 122.9474058 111.3848682 132.4810021
 111.8959541 103.4622896 129.3815599 112.4703293 103.2398078 128.6488792
 112.4830523 103.5311591 130.1344201 120.9539118 109.3496623 130.1879976
 121.4671000 109.9826615 130.6901686 121.6040342 108.7497819 129.8223336
 112.2229128 105.4927357 123.4011485 111.3866440 105.8302044 123.7220759
 112.0833897 105.3576337 122.4638622 114.1982208 100.3364145 128.1090669
 113.5446621 100.0213162 127.4847284 114.1562682  99.7139886 128.8350492
 115.3093413 110.6183440 120.0243961 114.4020475 110.3872694 120.2235110
 115.8064445 109.8221059 120.2117943 118.2161492 119.3280947 122.9440647
 117.5423191 119.6312644 123.5525605 118.6027314 120.1310028 122.5946104
 117.4319949 106.8246079 132.4338317 116.5142510 107.0461026 132.2760005
 117.8480092 106.8992389 131.5750024 118.2154996 108.2237494 127.5640997
 118.9626815 108.7358892 127.2548119 118.4846586 107.9021547 128.4245390
 116.4881647 110.7196035 124.5467951 115.5792866 110.4355068 124.6440421
 116.5176730 111.1395114 123.6871258 121.7200914 114.3302625 128.3159119
 121.2663241 113.4893534 128.3724309 121.0894881 114.9664023 128.6533899
 120.6633834 105.2594611 129.5459786 119.9256590 104.7471997 129.8770029
 120.9160607 104.8194992 128.7343063 120.1633853 116.1679121 129.2508937
 120.4556828 116.7284178 128.5321302 120.6732474 116.4607682 130.0062096
 120.7645461  98.0370863 130.1401555 121.0704338  97.1768226 129.8527470
 121.4898066  98.6288483 129.9400549 107.0569817 108.4401549 128.5283153
 106.8594217 107.8470910 127.8034220 106.5016481 108.1353759 129.2459092
 115.0366541 108.3324656 130.6477746 115.0915150 107.3798492 130.5720223
 114.2257743 108.4884095 131.1319045 116.1857734 112.2604779 121.8856030
 115.7477164 111.5440638 121.4261667 116.9268175 112.4880894 121.3241121
 112.9758901 106.9501715 128.4068125 112.1626766 107.2495886 128.8133317
 113.4717895 106.5557404 129.1242608 115.1267478 116.9459472 130.3402390
 115.0843657 117.1720319 129.4110922 116.0430177 116.7122847 130.4888191
 118.5733112 107.4143540 137.2383019 118.9282500 107.6415013 138.0977485
 119.2205244 107.7461917 136.6160274 124.3030849 110.5361976 127.9432348
 124.1648748 110.7263572 127.0153537 123.9467068 111.2981359 128.4000399
 112.4672975 104.5220071 134.0229360 113.1072355 104.3808830 133.3252324
 111.6350506 104.2354584 133.6467962 124.3300229 112.6038503 132.9543620
 124.7636736 112.5113792 133.8026674 125.0431810 112.5796003 132.3163636
 113.2433279 113.8222501 130.1364353 114.0373878 113.3272822 129.9346928
 112.5324972 113.2940365 129.7732058 118.0628124 116.2040597 134.4876720
 118.1165146 116.7731533 135.2554436 117.1942905 116.3742482 134.1230757
 109.5516043 107.9665583 126.2124105 108.6213631 107.9050039 126.4294068
 109.6473515 107.4441536 125.4160747 109.4701592 104.4920396 128.8002347
 109.7308409 105.4065729 128.6911508 110.2918764 104.0244839 128.9498960
 110.9426517 105.9058153 135.9701172 111.6149571 105.6975515 135.3213820
 110.1156304 105.7080239 135.5306404 116.8452089 102.5320094 137.9866832
 116.1980004 103.2310044 137.8931309 117.6153105 102.9656238 138.3543081
 117.0216223 110.3700859 136.0463652 117.9508283 110.5212019 135.8732619
 116.6007254 110.4584880 135.1912299 115.8204555 114.3951523 133.8162190
 115.6815641 114.0270308 134.6888128 115.0319151 114.9099163 133.6446148
 116.4152707 119.4960620 125.1587726 116.5904463 119.0248663 125.9733349
 115.7285495 120.1226386 125.3868987 117.3709770 113.7733126 131.2051028
 117.0359603 113.7333896 132.1008677 116.8713716 113.1077842 130.7321438
 111.3454014 109.1800756 136.7303609 111.2073812 108.4480995 137.3315148
 112.2558938 109.0909656 136.4487797 120.3068962 111.1189160 121.4788087
 119.6898133 110.3935989 121.3821140 119.8385451 111.8798521 121.1355162
 113.9736315 108.8920715 136.2187288 114.6835934 108.2513908 136.1773907
 113.9305623 109.1433610 137.1413469 112.6865249 105.8785933 138.0382928
 112.1502606 105.4276672 138.6904524 112.0981957 106.0131842 137.2953392
 110.9813793 122.6449983 131.9327587 111.2210391 123.2768507 132.6106605
 110.1382989 122.2938023 132.2192946 112.0967508 105.3374585 120.6009392
 111.2196974 105.2163385 120.2371638 112.5725261 104.5460663 120.3488280
 103.6169648 110.1251744 130.6950899 104.3040688 109.8113474 130.1071914
 103.4617777 111.0293109 130.4218150 108.4204370 105.0141941 135.1235922
 108.3362559 104.4067611 134.3886332 107.5987077 105.5050959 135.1245419
 115.4941654 118.4529105 134.3369090 115.4211826 119.2584077 134.8488395
 115.0519047 118.6521071 133.5117112 115.2831434 117.6900875 127.8471912
 114.4998956 118.2322555 127.9410137 115.9824179 118.2074855 128.2466153
 118.5928084 103.4995505 130.4906117 119.0896784 102.7465467 130.1707188
 117.8215066 103.5359821 129.9249327 126.4457842 109.2035870 132.1324409
 126.4347718 110.0860585 131.7618342 125.5775221 108.8507421 131.9378946
 119.6757865 112.2567192 128.0644541 118.7414144 112.3768654 127.8949245
 119.8534533 111.3539659 127.8004551 115.1763053 105.6412888 130.2177802
 114.8060840 105.0883928 130.9058708 115.6722145 105.0371021 129.6652802
 123.0630416 108.0984511 128.5994575 123.5290868 108.9312503 128.5254878
 123.5137917 107.6329493 129.3039833 113.0052251 116.1010383 137.3132820
 113.7061711 116.7346866 137.4662214 112.5347366 116.4425114 136.5528459
 121.1306647 114.4428332 125.5980727 121.4066491 114.3284927 126.5074601
 120.2611146 114.0445817 125.5592900 121.0347079 100.4665098 132.6385476
 120.1210159 100.6969325 132.8067683 121.4640180 100.5503542 133.4899509
 120.8053537 108.6554990 135.1385370 120.1524988 108.9030897 134.4837823
 121.1833917 107.8419128 134.8047848 117.7660711 118.6914683 129.2413541
 117.9483106 117.8736339 129.7041293 118.5893697 118.9082375 128.8038431
 118.1002877 117.6182868 126.5028589 118.6290643 117.1075323 125.8898751
 118.3631096 117.3025399 127.3674122 108.6019970 115.6346738 134.2463923
 109.1873406 114.8890425 134.3791827 108.4044808 115.9450694 135.1300587
 111.4558625 118.6697985 129.2626365 110.7869000 119.1544113 128.7790405
 111.3171494 118.9167205 130.1769744 103.1937624 108.2052338 132.9668366
 103.2321724 107.6715928 133.7605484 102.6877917 107.6787543 132.3479343
 110.5728387 103.0516878 136.4630908 110.6369713 103.9131709 136.0508306
 110.5095507 102.4390880 135.7303267 110.0480659 105.1240011 140.1103942
 110.6752698 104.7417088 140.7241467 109.1908578 104.9054213 140.4759635
 106.8246202 106.9316440 126.0422297 107.1199643 106.0227118 125.9889351
 105.9234238 106.9104179 125.7203300 118.7332281 118.6523704 132.8472706
 118.6083420 117.8513444 132.3383651 119.3911372 119.1469897 132.3586676
 110.3540449 105.0072437 132.0249846 109.6327035 105.6208404 131.8857319
 111.1433705 105.5430201 131.9466492 120.7967189 116.4532724 134.4752256
 119.8497525 116.3338075 134.4030582 121.1449962 115.5655222 134.5578517
 113.1566762 102.3426863 138.2990498 113.6801164 102.5889160 139.0616807
 112.9379096 103.1746898 137.8793635 108.5534043 104.6130538 126.1661622
 108.2246750 103.7327917 125.9836728 108.9073414 104.5578206 127.0538012
 117.8013622 116.2485440 130.6756608 117.6538585 115.3202148 130.8564178
 118.6267116 116.2705531 130.1913683 111.6675867 104.9003507 126.5337100
 112.0071939 105.4289429 125.8115708 112.1147987 105.2383914 127.3095667
 121.4047744 117.0713999 131.7621481 122.3294292 116.8656860 131.6245932
 121.2363047 116.8230400 132.6710822 114.3619307 103.2840558 135.9840168
 114.0216128 102.4848371 136.3860848 113.6558314 103.5842269 135.4117001
 115.0135779 100.3689871 134.4367491 115.8361849  99.8950349 134.3146381
 115.2573843 101.1480354 134.9366177 113.6544014 103.3978129 124.7330393
 114.3752376 103.7759382 124.2294110 113.0309318 104.1167006 124.8365371
 117.7975137 104.1023278 125.6688725 118.0138751 104.9847916 125.3677553
 117.3169204 103.7109491 124.9394367 112.5374358 107.0608991 132.2459470
 112.3918939 107.3749294 133.1383751 112.0599562 107.6793892 131.6930368
 114.3970741 104.0511539 132.2940359 114.3832310 103.1552632 131.9572657
 115.1143169 104.0582203 132.9278645 116.2496872 104.4848879 134.3393487
 115.9914649 105.4065950 134.3377817 115.7181912 104.0879314 135.0293951
 121.1943060 117.5899666 127.1183572 121.3679938 117.0246089 126.3657425
 121.6871952 118.3900561 126.9363062 107.0120020 109.6014336 135.1847131
 106.4673488 110.3774144 135.3167405 107.8899370 109.9485140 135.0266252
 113.8007637 102.9325919 127.5627929 113.9223548 102.0042566 127.7618817
 113.5109679 102.9464605 126.6506245 116.6698827 100.6180830 130.6994649
 116.6920524 100.6820163 129.7446629 117.0866886  99.7785339 130.8935155
 127.0482451 110.3536089 128.7373872 127.4913598 109.6043415 128.3392995
 126.1708962 110.3446226 128.3547604 122.1818233 116.9066431 124.2180470
 122.8769137 117.5273124 124.4367785 122.5241383 116.0561782 124.4932848
 107.7986042 108.7284232 138.0777288 107.0567778 108.8766867 138.6641918
 107.4778786 108.9892497 137.2144037 124.0809656 114.3566136 125.7467801
 124.6060980 114.6953409 125.0217121 123.9932008 113.4213152 125.5630936
 115.7650317 120.4238120 130.1063054 115.3255307 119.9314498 130.7995911
 116.5158434 119.8811087 129.8655130 108.2442656 116.6149661 130.1087682
 109.0700676 116.3153432 129.7286326 107.8936708 115.8457283 130.5577471
 113.2124189 115.9676129 132.1785356 112.5904198 115.3046834 131.8787584
 113.8829056 115.9937261 131.4959004 106.4451261 114.5335987 131.0676616
 105.6083169 114.1058161 130.8860617 106.4174906 114.7268430 132.0047407
 113.2848716 104.4457917 141.7717862 113.3336872 105.3220040 141.3895632
 113.8271231 103.9035310 141.1989505 112.7737696 114.5180052 125.6543817
 112.9225816 115.2015517 125.0010489 113.5804139 114.4985142 126.1693272
 115.5148005 105.1989289 138.5264221 114.6451314 105.4922855 138.2546809
 115.7507485 105.7829734 139.2471484 126.5915316 111.8241328 131.1296319
 127.4262208 112.2631132 131.2933880 126.7274445 111.3479981 130.3104565
 123.6406822 109.3821063 137.0773807 124.1160944 109.5748709 136.2692659
 122.7172387 109.4380248 136.8317191 110.5290329 110.5445230 126.6604885
 110.2836371 109.6407560 126.8585096 110.6986243 110.5462380 125.7184363
 118.2187039 101.4168906 136.0429641 118.7368982 102.1529933 135.7176130
 117.8642171 101.7232899 136.8776400 109.7985976 106.2773587 124.1591047
 109.1055221 106.3517942 123.5031083 109.5537728 105.5133931 124.6812564
 118.4699633  97.8369189 131.5630538 118.7501387  97.1692378 132.1890964
 119.2550240  98.0298284 131.0505201 116.2733101 117.0128183 123.1255564
 115.7007068 117.6318370 122.6726036 116.8465895 117.5627544 123.6595486
 122.3408491 106.2586823 135.3102113 123.2925914 106.3584920 135.3314337
 122.1711942 105.4665091 135.8200197 120.3622871 103.3442406 135.4961514
 119.7672803 103.6247419 134.8008002 120.0772567 103.8336307 136.2678255
 119.4930361 117.2965333 124.2564146 120.4261034 117.2310894 124.4597022
 119.4053574 118.1321600 123.7978679 122.1218378 116.6131203 121.2168094
 122.0432009 116.2791067 122.1103852 122.9428045 117.1052971 121.2159566
 124.8196569 109.4792942 134.4244412 124.7872889 108.5408943 134.6104096
 125.4297193 109.5576979 133.6910237 116.6579900 108.3488995 120.4671616
 117.6039004 108.2195203 120.5360034 116.2794145 107.6103657 120.9441045
 124.9691057 106.2703986 134.4702696 124.4530106 105.4862442 134.2832624
 125.8531006 105.9422702 134.6349215 122.6301784 100.0145001 130.4298508
 122.4326605  99.7060090 131.3141840 123.2401490 100.7406640 130.5596438
 130.6373119 110.5408949 133.5650449 131.3676507 110.2794237 134.1258153
 130.0280064 109.8037671 133.6052517 128.7188416 108.6816812 134.1624900
 127.9921579 108.5472777 133.5541392 128.3035703 108.9893640 134.9681618
 114.8422817 106.2738972 120.4026502 113.9354272 105.9772084 120.4789215
 115.1198798 105.9768790 119.5360788 105.7600757 107.5945335 130.8525548
 105.4403542 106.7410643 130.5599922 105.2134185 107.8093913 131.6083515
 109.5380665 110.3107776 134.5695055 109.7566675 111.2424884 134.5883088
 109.9506439 109.9515751 135.3549858 116.4584883 100.8175861 126.5570743
 115.6485611 100.4722946 126.9325989 117.1469300 100.5083405 127.1458355
 118.3875431  99.8953908 128.1795040 118.9406470 100.3149362 128.8385063
 118.6245517  98.9689656 128.2217996 113.6121602 103.1325907 120.5438481
 114.4740766 103.4580805 120.8034298 113.7971946 102.3457403 120.0311547
 105.6289017 111.2148247 132.8218670 104.9352489 110.8002199 132.3088624
 106.3762008 111.2568783 132.2252089 121.7654238 102.0054433 127.6873704
 121.1852907 102.6639237 127.3051756 121.4990171 101.1831778 127.2761121
 120.2157804 101.4059491 129.8895024 120.7157583 101.5176026 129.0809343
 120.8593412 101.1020544 130.5295833 107.5425760 111.1466500 130.6984685
 107.5196448 111.2454188 129.7466568 107.8526396 111.9931651 131.0201851
 110.2013138 113.2042655 134.8131299 111.1556391 113.1726598 134.7461231
 110.0025661 112.7433279 135.6281525 110.7912520 111.7743771 137.3802097
 111.6105409 112.2687850 137.4036934 111.0649328 110.8575740 137.3519664
 120.5479116 104.1654524 126.7430052 119.6604971 104.4504174 126.5250247
 120.9633105 104.0048287 125.8957329 123.8993652 104.1901045 130.4584391
 124.6754042 104.6797497 130.7309008 123.1741786 104.6159099 130.9156261
 126.3366211 104.9028664 131.5158332 126.9310702 104.6624400 130.8051640
 126.4092795 104.1835795 132.1431868 108.5563366 118.7462275 131.8301497
 108.4217834 117.9862676 131.2639495 108.1395429 119.4703175 131.3630286
 119.6922330 113.9299198 120.8378072 120.3958180 114.1349201 121.4535728
 118.9684978 114.4975960 121.1027156 120.5220140 109.6809060 126.9580342
 120.4655341 110.1377611 126.1187975 121.0748482 108.9199744 126.7803185
 124.3324946 105.4698792 127.7830462 124.0761880 105.0695427 128.6138669
 123.7077814 106.1842586 127.6580601 128.6437284 108.2094865 130.2901753
 128.0836842 108.2788054 131.0633315 128.0380787 108.0335849 129.5701249
 111.7132492 119.6431592 132.0419939 111.5964877 120.5877024 131.9398630
 110.8924939 119.3405154 132.4305739 121.6009027 114.3681728 122.8876532
 122.4354631 113.9362926 122.7054007 121.4393370 114.1963741 123.8153427
 121.2554919 110.8713841 124.2532871 121.2003723 110.7058112 123.3121316
 120.6300974 111.5789874 124.4095061 106.0447434 106.1081905 138.0794294
 106.6906298 105.5980859 138.5681519 105.8364585 106.8450587 138.6537719
 114.5651045 100.3721950 123.8318190 114.5529714 101.3163790 123.9886461
 115.4574466 100.1892095 123.5377651 112.7387006 120.2959854 135.2575868
 113.6414253 120.3283464 135.5742363 112.5124377 119.3660305 135.2722204
 114.4940609 119.0490840 131.9185947 113.5436240 119.0492702 131.8050319
 114.7973095 118.3023575 131.4021981 118.3803164  96.9664727 128.0864127
 117.6135560  96.4123213 128.2320809 118.7913869  97.0386595 128.9478278
 110.3844925 103.2549522 142.1769308 111.2476387 102.8986327 142.3872632
 109.8110336 102.9163417 142.8644712 122.4025010 127.4474388 124.6191724
 123.1755886 126.9003375 124.4804600 122.7550409 128.3118637 124.8306185
 124.7391288 123.6067054 122.2510174 124.9916808 123.0848576 121.4893637
 123.8015847 123.4433200 122.3536857 124.4587576 125.5095160 124.4534549
 124.3423835 124.8340064 125.1215633 124.5689836 125.0227534 123.6366702
 126.4424604 119.9995207 123.1542586 126.6099007 120.8675443 123.5213057
 126.2521773 120.1622489 122.2303876 126.4213825 122.4552865 124.1389253
 126.3013450 122.9009915 124.9774734 125.7266414 122.8038182 123.5802791
 132.1198891 122.9274338 124.9669587 133.0316747 123.1601724 124.7917285
 131.6108538 123.5111382 124.4044666 125.2165322 123.7697717 126.4322819
 125.9189365 124.2218760 126.8996745 124.8845950 123.1281535 127.0602712
 118.9590656 122.0281269 131.7339953 118.1689710 122.2838798 131.2580063
 119.4501903 122.8429607 131.8391993 120.9105401 122.3925849 128.6923429
 120.1136564 122.5044543 129.2106925 120.6830993 122.7312501 127.8264320
 119.9088484 128.1014097 127.0812849 120.4213004 128.8957348 127.2318414
 120.5611196 127.4040388 127.0146451 117.8737400 126.4302752 127.8572420
 118.7112622 126.8399760 127.6406128 118.0515668 125.4902194 127.8272614
 129.7701833 124.0977832 123.5456253 129.2548456 124.8682437 123.7844640
 129.4979141 123.4242968 124.1689314 127.3548944 118.9427533 128.6041491
 126.4990540 118.5534383 128.4247130 127.7675895 119.0219494 127.7441277
 125.1290976 116.5612606 132.0099233 125.9943973 116.3655415 131.6505122
 125.1968485 116.3322958 132.9368589 129.5588136 121.9704924 125.3716034
 129.2538271 122.2851073 126.2226177 130.5118578 122.0486344 125.4143367
 122.7353295 118.7914814 129.3815599 123.3097047 118.5689995 128.6488792
 123.3224278 118.8603508 130.1344201 123.0622882 120.8219275 123.4011485
 122.2260194 121.1593961 123.7220759 122.9227652 120.6868255 122.4638622
 125.0375963 115.6656063 128.1090669 124.3840375 115.3505080 127.4847284
 124.9956437 115.0431803 128.8350492 126.1487168 125.9475358 120.0243961
 125.2414229 125.7164611 120.2235110 126.6458200 125.1512977 120.2117943
 127.3275401 126.0487953 124.5467951 126.4186620 125.7646986 124.6440421
 127.3570485 126.4687031 123.6871258 131.6039215 113.3662780 130.1401555
 131.9098092 112.5060144 129.8527470 132.3291820 113.9580400 129.9400549
 117.8963572 123.7693467 128.5283153 117.6987971 123.1762828 127.8034220
 117.3410236 123.4645677 129.2459092 127.0251489 127.5896696 121.8856030
 126.5870919 126.8732555 121.4261667 127.7661930 127.8172811 121.3241121
 123.8152655 122.2793633 128.4068125 123.0020521 122.5787804 128.8133317
 124.3111649 121.8849322 129.1242608 120.3909797 123.2957501 126.2124105
 119.4607385 123.2341956 126.4294068 120.4867269 122.7733454 125.4160747
 120.3095346 119.8212314 128.8002347 120.5702164 120.7357647 128.6911508
 121.1312519 119.3536756 128.9498960 131.1462717 126.4481078 121.4788087
 130.5291887 125.7227906 121.3821140 130.6779205 127.2090438 121.1355162
 122.9361262 120.6666502 120.6009392 122.0590729 120.5455303 120.2371638
 123.4119016 119.8752581 120.3488280 114.4563403 125.4543662 130.6950899
 115.1434442 125.1405392 130.1071914 114.3011531 126.3585027 130.4218150
 129.4321839 118.8287422 130.4906117 129.9290538 118.0757385 130.1707188
 128.6608820 118.8651739 129.9249327 126.0156807 120.9704805 130.2177802
 125.6454595 120.4175846 130.9058708 126.5115900 120.3662939 129.6652802
 114.0331379 123.5344255 132.9668366 114.0715478 123.0007846 133.7605484
 113.5271672 123.0079461 132.3479343 117.6639956 122.2608358 126.0422297
 117.9593397 121.3519036 125.9889351 116.7627992 122.2396097 125.7203300
 121.1934203 120.3364354 132.0249846 120.4720789 120.9500322 131.8857319
 121.9827459 120.8722119 131.9466492 119.3927798 119.9422455 126.1661622
 119.0640504 119.0619834 125.9836728 119.7467169 119.8870124 127.0538012
 122.5069621 120.2295425 126.5337100 122.8465694 120.7581346 125.8115708
 122.9541742 120.5675831 127.3095667 124.4937768 118.7270047 124.7330393
 125.2146131 119.1051299 124.2294110 123.8703072 119.4458923 124.8365371
 128.6368891 119.4315196 125.6688725 128.8532505 120.3139834 125.3677553
 128.1562958 119.0401409 124.9394367 124.6401391 118.2617837 127.5627929
 124.7617302 117.3334483 127.7618817 124.3503434 118.2756523 126.6506245
 127.5092582 115.9472748 130.6994649 127.5314278 116.0112081 129.7446629
 127.9260641 115.1077256 130.8935155 123.6131450 129.8471970 125.6543817
 123.7619571 130.5307434 125.0010489 124.4197894 129.8277060 126.1693272
 121.3684083 125.8737147 126.6604885 121.1230125 124.9699477 126.8585096
 121.5379998 125.8754298 125.7184363 120.6379731 121.6065505 124.1591047
 119.9448976 121.6809860 123.5031083 120.3931483 120.8425849 124.6812564
 129.3093387 113.1661106 131.5630538 129.5895141 112.4984295 132.1890964
 130.0943994 113.3590202 131.0505201 127.4973654 123.6780913 120.4671616
 128.4432759 123.5487121 120.5360034 127.1187899 122.9395575 120.9441045
 125.6816571 121.6030889 120.4026502 124.7748027 121.3064002 120.4789215
 125.9592552 121.3060707 119.5360788 116.5994512 122.9237253 130.8525548
 116.2797296 122.0702561 130.5599922 116.0527940 123.1385831 131.6083515
 127.2978637 116.1467779 126.5570743 126.4879365 115.8014864 126.9325989
 127.9863054 115.8375323 127.1458355 129.2269185 115.2245826 128.1795040
 129.7800224 115.6441279 128.8385063 129.4639272 114.2981574 128.2217996
 124.4515356 118.4617825 120.5438481 125.3134520 118.7872723 120.8034298
 124.6365700 117.6749321 120.0311547 132.6047993 117.3346351 127.6873704
 132.0246662 117.9931155 127.3051756 132.3383925 116.5123696 127.2761121
 131.0551559 116.7351409 129.8895024 131.5551337 116.8467943 129.0809343
 131.6987167 116.4312462 130.5295833 131.3872871 119.4946441 126.7430052
 130.4998726 119.7796092 126.5250247 131.8026860 119.3340205 125.8957329
 130.5316084 129.2591116 120.8378072 131.2351934 129.4641119 121.4535728
 129.8078733 129.8267878 121.1027156 132.0948674 126.2005759 124.2532871
 132.0397477 126.0350030 123.3121316 131.4694729 126.9081792 124.4095061
 125.4044799 115.7013868 123.8318190 125.3923469 116.6455708 123.9886461
 126.2968221 115.5184013 123.5377651 129.2196918 112.2956644 128.0864127
 128.4529314 111.7415131 128.2320809 129.6307623 112.3678513 128.9478278
  52.6013103   0.0603950 110.9449896  51.9501082   0.6458030 110.5583910
  53.3957465   0.5910145 111.0044934  46.5268730  -2.8506913 111.3437030
  47.2999606  -3.3977926 111.2049906  46.8794129  -1.9862664 111.5551492
  48.8635008  -6.6914247 108.9755480  49.1160528  -7.2132726 108.2138943
  47.9259567  -6.8548101 109.0782164  54.0788368  -2.2505618 111.4818880
  53.4434201  -2.1770992 112.1939785  53.7485774  -1.6612019 110.8037960
  48.5831296  -4.7886141 111.1779855  48.4667554  -5.4641238 111.8460940
  48.6933556  -5.2753767 110.3612008  50.5668324 -10.2986094 109.8787893
  50.7342727  -9.4305858 110.2458364  50.3765493 -10.1358812 108.9549182
  50.5457545  -7.8428437 110.8634560  50.4257170  -7.3971386 111.7020040
  49.8510133  -7.4943119 110.3048098  48.3064437   4.9275205 114.5124691
  48.2288467   5.8783030 114.5913172  47.7026081   4.5821078 115.1699617
  56.2442611  -7.3706963 111.6914894  57.1560467  -7.1379577 111.5162591
  55.7352258  -6.7869919 111.1289973  58.7301425  -1.4526707 116.4372839
  58.0452464  -1.0727806 115.8869872  58.8145275  -0.8431380 117.1704787
  65.1904178  -4.5856044 117.5575512  64.4367886  -5.1548646 117.4019516
  65.3251719  -4.6193380 118.5046146  50.5802806   0.2857358 113.2330231
  50.4448481   1.1308894 113.6615079  51.1212619   0.4876636 112.4696165
  53.8945552  -6.2003469 110.2701559  53.3792176  -5.4298864 110.5089947
  53.6222861  -6.8738333 110.8934621  58.8679826  -3.4471114 112.2054733
  58.0909269  -3.7859955 111.7609895  59.5471307  -3.4418491 111.5309698
  53.6831856  -8.3276377 112.0961341  53.3781991  -8.0130228 112.9471484
  54.6362298  -8.2494957 112.1388674  52.1278287  -2.1686154 113.7454295
  51.5999649  -2.9033394 113.4327532  51.6265790  -1.3911477 113.4994263
  50.2730888  -4.3505943 106.7489268  49.3657949  -4.5816690 106.9480417
  50.7701920  -5.1468324 106.9363249  53.1798966   4.3591564 109.6685954
  52.5060665   4.6623261 110.2770912  53.5664788   5.1620644 109.3191411
  51.4519121  -4.2493348 111.2713258  50.5430340  -4.5334316 111.3685727
  51.4814205  -3.8294270 110.4116565  56.6838388  -0.6386759 115.0404425
  56.2300715  -1.4795849 115.0969616  56.0532355  -0.0025361 115.3779205
  55.1271328   1.1989738 115.9754243  55.4194302   1.7594795 115.2566609
  55.6369948   1.4918299 116.7307403  51.1495209  -2.7084605 108.6101336
  50.7114639  -3.4248746 108.1506974  51.8905650  -2.4808490 108.0486428
  50.0904953   1.9770089 117.0647697  50.0481132   2.2030935 116.1356229
  51.0067652   1.7433463 117.2133498  59.2668324  -4.4327408 114.6677655
  59.1286222  -4.2425812 113.7398844  58.9104542  -3.6708025 115.1245706
  51.3790182   4.5271236 111.8833033  51.5541937   4.0559280 112.6978656
  50.6922970   5.1537003 112.1114294  55.2706436  -3.8500223 108.2033394
  54.6535607  -4.5753395 108.1066447  54.8022925  -3.0890863 107.8600468
  45.9451267   7.6760599 118.6572893  46.1847865   8.3079123 119.3351912
  45.1020463   7.3248639 118.9438252  50.2468908   2.7211492 114.5717219
  49.4636430   3.2633172 114.6655443  50.9461654   3.2385471 114.9711460
  54.6395339  -2.7122192 114.7889847  53.7051618  -2.5920729 114.6194552
  54.8172008  -3.6149725 114.5249857  58.0267890  -6.8704872 115.3239882
  58.4928343  -6.0376881 115.2500184  58.4775391  -7.3359891 116.0285140
  56.0944122  -0.5261051 112.3226034  56.3703965  -0.6404457 113.2319908
  55.2248620  -0.9243566 112.2838207  52.7298186   3.7225300 115.9658847
  52.9120580   2.9046956 116.4286600  53.5531172   3.9392992 115.5283737
  53.0640351   2.6493485 113.2273896  53.5928118   2.1385939 112.6144058
  53.3268571   2.3336015 114.0919429  46.4196099   3.7008602 115.9871672
  45.7506474   4.1854729 115.5035712  46.2808969   3.9477822 116.9015050
  53.6969755   3.6834321 119.5718012  53.5720894   2.8824060 119.0628958
  54.3548846   4.1780514 119.0831982  52.7651097   1.2796057 117.4001915
  52.6176059   0.3512764 117.5809485  53.5904590   1.3016148 116.9158990
  56.3685218   2.1024616 118.4866787  57.2931766   1.8967477 118.3491238
  56.2000522   1.8541017 119.3956129  56.1580535   2.6210283 113.8428879
  56.3317412   2.0556706 113.0902731  56.6509426   3.4211178 113.6608369
  62.0119926  -4.6153294 115.4619178  62.4551072  -5.3645969 115.0638302
  61.1346436  -4.6243158 115.0792910  57.1455707   1.9377047 110.9425777
  57.8406612   2.5583740 111.1613092  57.4878857   1.0872399 111.2178155
  59.0447130  -0.6123247 112.4713108  59.5698454  -0.2735974 111.7462428
  58.9569483  -1.5476232 112.2876242  50.7287791   5.4548736 116.8308361
  50.2892781   4.9625115 117.5241218  51.4795908   4.9121704 116.5900436
  47.7375170  -0.4509331 112.3789123  47.8863290   0.2326133 111.7255796
  48.5441614  -0.4704241 112.8938579  61.5552791  -3.1448056 117.8541626
  62.3899682  -2.7058252 118.0179186  61.6911919  -3.6209403 117.0349872
  51.2370576   2.0438799 109.8500871  50.6644543   2.6628986 109.3971342
  51.8103369   2.5938161 110.3840793  54.4567835   2.3275949 110.9809453
  55.3898509   2.2621511 111.1842328  54.3691048   3.1632216 110.5223986
  57.0855852   1.6441820 107.9413400  57.0069484   1.3101683 108.8349158
  57.9065519   2.1363588 107.9404873  51.6217374  -6.6200388 107.1916923
  52.5676479  -6.7494180 107.2605341  51.2431619  -7.3585726 107.6686351
  49.8060291  -8.6950412 107.1271808  48.8991747  -8.9917299 107.2034522
  50.0836272  -8.9920594 106.2606095  54.6559804  -1.0390185 107.5623379
  55.3595654  -0.8340183 108.1781034  53.9322453  -0.4713423 107.8272462
  55.4857614  -5.2880324 113.6825649  55.4292816  -4.8311772 112.8433281
  56.0385957  -6.0489639 113.5048492  63.6074758  -6.7594519 117.0147060
  63.0474316  -6.6901329 117.7878622  63.0018261  -6.9353534 116.2946556
  56.5646501  -0.6007656 109.6121839  57.3992105  -1.0326457 109.4299314
  56.4030844  -0.7725642 110.5398733  56.2192393  -4.0975542 110.9778178
  56.1641197  -4.2631271 110.0366622  55.5938449  -3.3899510 111.1340368
  49.4578083   4.0801457 118.6431253  48.5073714   4.0803319 118.5295625
  49.7610569   3.3334191 118.1267288  65.1930776   9.9161995 119.7077016
  65.8309186   9.7968743 119.0040356  65.0751619  10.8642839 119.7664968
  62.0020483   9.8689423 119.6438540  61.6638994   9.7530488 118.7559075
  62.8710251   9.4680589 119.6239546  57.8607298  11.7224900 115.6335431
  57.2972163  11.6314837 114.8651719  57.7459693  10.9024804 116.1137924
  62.4840266  11.0224275 125.6024746  62.4728906  10.6277073 124.7305249
  62.6460905  10.2890348 126.1958517  55.4071730  13.2176091 118.4719652
  56.1993022  12.8766916 118.0565951  55.6468380  13.3271066 119.3921805
  63.4406857  15.3895868 110.9449896  62.7894837  15.9749948 110.5583910
  64.2351220  15.9202062 111.0044934  57.3662484  12.4785005 111.3437030
  58.1393360  11.9313992 111.2049906  57.7187883  13.3429254 111.5551492
  59.2047527  13.8061387 124.5503930  58.9137393  14.7107018 124.4350596
  59.8404511  13.8477915 125.2647999  60.1303734  11.1838235 121.1405289
  60.7267306  10.9594258 120.4262252  60.1878705  10.4422981 121.7430737
  59.7028762   8.6377671 108.9755480  59.9554283   8.1159192 108.2138943
  58.7653321   8.4743816 109.0782164  64.7472045   7.6413449 116.7830224
  65.5335134   7.2232872 116.4320641  65.0110749   8.5459541 116.9511872
  64.9182122  13.0786299 111.4818880  64.2827955  13.1520926 112.1939785
  64.5879529  13.6679898 110.8037960  70.1480472   7.5788682 117.6863202
  70.8805644   7.0087899 117.9201032  69.3919828   7.1910283 118.1269708
  59.4225051  10.5405777 111.1779855  59.3061309   9.8650680 111.8460940
  59.5327311  10.0538151 110.3612008  61.7656592  10.0015924 114.8826545
  61.4014799   9.4746545 115.5939466  62.6223708   9.6114393 114.7093030
  67.6705892   1.2910256 122.1457811  67.3389217   2.1605667 121.9219026
  67.0751506   0.9746540 122.8251841  61.4062079   5.0305824 109.8787893
  61.5736481   5.8986060 110.2458364  61.2159248   5.1933105 108.9549182
  64.1637412  13.4922802 121.5453723  63.8638135  14.3947841 121.4369531
  63.8188471  13.2254986 122.3974876  57.6149893   9.9436599 117.5790428
  56.6900390   9.8112813 117.7868120  57.8634307  10.7230819 118.0760370
  67.5634556   6.0105343 119.2251161  66.6551433   5.9420751 118.9309922
  67.5122151   6.4877288 120.0532986  61.3851300   7.4863481 110.8634560
  61.2650925   7.9320532 111.7020040  60.6903888   7.8348799 110.3048098
  54.9758704   9.5869873 118.4134217  55.1051086   9.8404352 119.3273629
  54.2956156  10.1797581 118.0938872  59.1458192  20.2567123 114.5124691
  59.0682221  21.2074948 114.5913172  58.5419835  19.9112995 115.1699617
  69.4296202   4.2121781 121.0029035  68.7870582   4.5054314 120.3568829
  68.9251131   4.0974701 121.8082231  67.0836366   7.9584954 111.6914894
  67.9954222   8.1912341 111.5162591  66.5746013   8.5421998 111.1289973
  59.8921794  10.2380442 126.7304025  60.6336478  10.7765486 126.4538849
  59.1858779  10.8646730 126.8875577  65.3677133  12.3809582 125.3276187
  65.7760489  11.9391993 124.5830819  64.6454395  11.8062210 125.5810379
  61.7208203   7.3182189 122.7009743  62.5669399   7.7421602 122.8444392
  61.6606841   6.6615813 123.3948307  65.6905948  12.9410773 119.0828475
  65.0614810  13.1056487 118.3804543  65.3031610  13.3552382 119.8539439
  69.5695180  13.8765211 116.4372839  68.8846218  14.2564112 115.8869872
  69.6539029  14.4860537 117.1704787  64.8707649   4.9786557 124.3590917
  64.6268581   5.7328618 123.8225193  65.1467579   5.3571905 125.1938164
  66.8246111  11.5225170 123.0368183  67.0363007  12.1656929 122.3602564
  66.7775860  10.6887486 122.5690113  64.4272340   4.1342990 119.9404755
  63.5656819   4.4324244 120.2321492  64.4534775   4.3513389 119.0085787
  61.2433910  12.6785181 116.3478561  61.7072255  12.9572884 115.5583183
  60.9790708  11.7768625 116.1651651  58.1357991  12.2256662 119.2858324
  58.7059348  12.6543931 118.6475808  58.7266103  11.9439247 119.9842509
  60.1802796   8.8008333 113.1568126  60.8826839   9.2529377 113.6242052
  59.8483424   8.1592152 113.7848019  53.9228130   7.0591886 118.4585259
  53.1327184   7.3149414 117.9825370  54.4139377   7.8740224 118.5637300
  67.9391939  14.3997125 121.2090540  68.7609383  13.9977312 120.9273222
  67.9354342  14.2965359 122.1606656  55.8742875   7.4236465 115.4168736
  55.0774039   7.5355159 115.9352232  55.6468467   7.7623117 114.5509626
  61.7048543  13.9481168 123.3651251  61.7692975  14.4101576 124.2009422
  60.9959467  13.3178533 123.4933560  52.2065833   7.3122376 120.8900250
  52.4573871   8.1969386 121.1557826  52.7425381   7.1326978 120.1175342
  76.0297932  10.7435873 117.5575512  75.2761641  10.1743272 117.4019516
  76.1645474  10.7098538 118.5046146  61.4196561  15.6149276 113.2330231
  61.2842235  16.4600811 113.6615079  61.9606373  15.8168553 112.4696165
  54.8725958  13.1324714 113.8058156  55.3850478  13.9267964 113.9563721
  55.5248671  12.4351004 113.7391757  56.6820843  16.2490470 115.8880909
  56.8587471  17.1708435 115.7001893  57.4777676  15.9348889 116.3175289
  63.0465037  16.2372842 127.3630573  62.6028891  15.4509221 127.0451477
  63.7082250  16.4251993 126.6974464  57.8052158  17.7668644 121.8891251
  58.3559583  17.6385707 121.1168245  56.9663634  18.0663533 121.5386144
  65.1446275  16.5175642 125.3911974  65.1264750  17.3384523 124.8992243
  66.0666195  16.3929717 125.6162115  61.6019329  14.0319772 126.2335483
  62.1347666  13.2708060 126.0034791  61.0733410  13.7393424 126.9759637
  64.7689024  -0.8620162 121.7629124  64.4253293   0.0281479 121.6868235
  65.1367987  -1.0518505 120.8998709  52.8374875  11.4613368 114.5817726
  53.6750097  11.8710376 114.3651434  53.0153142  10.5212810 114.5517920
  64.7339307   9.1288449 110.2701559  64.2185930   9.8993053 110.5089947
  64.4616615   8.4553585 110.8934621  62.3186418   3.9738150 115.3286798
  61.4628014   3.5845000 115.1492437  62.7313370   4.0530110 114.4686583
  63.8485564   1.5084493 119.7278358  63.3450360   1.4714628 118.9146163
  64.1416171   2.4177236 119.7875014  60.0928450   1.5923223 118.7344539
  60.9581447   1.3966031 118.3750429  60.1605959   1.3633574 119.6613896
  69.7073581  11.8820803 112.2054733  68.9303024  11.5431963 111.7609895
  70.3865062  11.8873427 111.5309698  64.5225610   7.0015541 112.0961341
  64.2175746   7.3161690 112.9471484  65.4756052   7.0796961 112.1388674
  62.9672042  13.1605764 113.7454295  62.4393403  12.4258524 113.4327532
  62.4659545  13.9380441 113.4994263  67.9464888  11.3554785 118.8621341
  67.2888562  12.0454046 118.9501470  68.7505287  11.7451217 119.2055327
  57.6990769   3.8225430 116.1060906  58.2734521   3.6000612 115.3734099
  58.2861752   3.8914125 116.8589507  66.7570347   9.7099157 116.9125283
  67.2702228  10.3429149 117.4146992  67.4071571   9.1100353 116.5468643
  58.0260357   5.8529891 110.1256791  57.1897669   6.1904578 110.4466066
  57.8865126   5.7178871 109.1883928  60.0013437   0.6966679 114.8335976
  59.3477850   0.3815697 114.2092590  59.9593911   0.0742420 115.5595798
  61.1124642  10.9785974 106.7489268  60.2051704  10.7475228 106.9480417
  61.6095674  10.1823594 106.9363249  64.0192721  19.6883482 109.6685954
  63.3454420  19.9915178 110.2770912  64.4058543  20.4912562 109.3191411
  63.2351178   7.1848613 119.1583623  62.3173739   7.4063560 119.0005311
  63.6511321   7.2594923 118.2995331  64.0186225   8.5840029 114.2886303
  64.7658044   9.0961426 113.9793425  64.2877815   8.2624081 115.1490697
  62.2912875  11.0798569 111.2713258  61.3824095  10.7957602 111.3685727
  62.3207959  11.4997648 110.4116565  67.5232143  14.6905159 115.0404425
  67.0694470  13.8496069 115.0969616  66.8926110  15.3266557 115.3779205
  66.4665062   5.6197145 116.2705093  65.7287819   5.1074531 116.6015335
  66.7191836   5.1797526 115.4588370  65.9665082  16.5281655 115.9754243
  66.2588056  17.0886713 115.2566609  66.4763703  16.8210216 116.7307403
  66.5676690  -1.6026603 116.8646862  66.8735567  -2.4629240 116.5772777
  67.2929295  -1.0108983 116.6645856  52.8601046   8.8004083 115.2528460
  52.6625446   8.2073444 114.5279526  52.3047710   8.4956294 115.9704399
  60.8397769   8.6927190 117.3723053  60.8946379   7.7401026 117.2965530
  60.0288972   8.8486629 117.8564351  61.9888963  12.6207313 108.6101336
  61.5508393  11.9043172 108.1506974  62.7299404  12.8483428 108.0486428
  58.7790129   7.3104250 115.1313432  57.9657995   7.6098420 115.5378624
  59.2749124   6.9159938 115.8487914  60.9298707  17.3062007 117.0647697
  60.8874886  17.5322853 116.1356229  61.8461406  17.0725381 117.2133498
  64.3764341   7.7746074 123.9628326  64.7313729   8.0017547 124.8222792
  65.0236472   8.1064451 123.3405581  70.1062078  10.8964510 114.6677655
  69.9679977  11.0866106 113.7398844  69.7498297  11.6583893 115.1245706
  58.2704204   4.8822605 120.7474667  58.9103583   4.7411364 120.0497630
  57.4381735   4.5957119 120.3713269  70.1331458  12.9641037 119.6788926
  70.5667964  12.8716326 120.5271980  70.8463038  12.9398537 119.0408942
  59.0464508  14.1825036 116.8609659  59.8405107  13.6875356 116.6592234
  58.3356200  13.6542899 116.4977365  63.8659353  16.5643131 121.2122027
  63.9196375  17.1334067 121.9799743  62.9974134  16.7345016 120.8476064
  55.3547272   8.3268117 112.9369412  54.4244860   8.2652573 113.1539374
  55.4504744   7.8044070 112.1406053  55.2732821   4.8522930 115.5247654
  55.5339638   5.7668263 115.4156814  56.0949993   4.3847373 115.6744267
  56.7457746   6.2660687 122.6946478  57.4180799   6.0578049 122.0459127
  55.9187532   6.0682773 122.2551711  70.9947007  13.0064738 122.2121812
  71.1882897  13.9110548 122.4581087  70.8947625  12.5472157 123.0460397
  66.0562116  13.1571480 127.7862692  65.9047622  12.9282032 126.8692776
  66.0466795  14.1142082 127.7994037  62.8247452  10.7303393 122.7708959
  63.7539512  10.8814553 122.5977926  62.4038482  10.8187414 121.9157605
  61.6235784  14.7554058 120.5407496  61.4846870  14.3872842 121.4133435
  60.8350380  15.2701697 120.3691454  62.2183936  19.8563154 111.8833033
  62.3935692  19.3851197 112.6978656  61.5316724  20.4828920 112.1114294
  63.1740999  14.1335660 117.9296334  62.8390832  14.0936430 118.8253984
  62.6744945  13.4680376 117.4566744  57.1485243   9.5403290 123.4548915
  57.0105041   8.8083529 124.0560454  58.0590167   9.4512190 123.1733103
  66.1100191  11.4791695 108.2033394  65.4929362  10.7538523 108.1066447
  65.6416679  12.2401055 107.8600468  59.7767544   9.2523250 122.9432595
  60.4867162   8.6116442 122.9019213  59.7336852   9.5036144 123.8658776
  67.7654323  16.1890603 125.8639174  67.7066869  15.5049823 125.1969757
  68.1673841  16.9309593 125.4119800  56.7845021  23.0052517 118.6572893
  57.0241620  23.6371041 119.3351912  55.9414218  22.6540557 118.9438252
  57.8998737   5.6977119 107.3254698  57.0228203   5.5765920 106.9616945
  58.3756490   4.9063197 107.0733587  67.7671730  14.1530187 124.0953154
  66.8798509  13.8156109 124.2179553  68.3370281  13.4213218 124.3321919
  49.4200877  10.4854279 117.4196205  50.1071917  10.1716009 116.8317221
  49.2649006  11.3895643 117.1463457  61.2972883  18.8131639 121.0614397
  61.2243055  19.6186611 121.5733702  60.8550276  19.0123605 120.2362419
  61.0862663  18.0503409 114.5717219  60.3030185  18.5925089 114.6655443
  61.7855408  18.5677389 114.9711460  64.3959313   3.8598039 117.2151424
  64.8928012   3.1068001 116.8952494  63.6246294   3.8962355 116.6494633
  72.2489070   9.5638404 118.8569716  72.2378947  10.4463120 118.4863649
  71.3806450   9.2109955 118.6624253  63.7571567  18.7118473 123.2172556
  64.4699539  19.3465938 123.1448457  63.2661595  18.8082339 122.4012558
  65.4789094  12.6169726 114.7889847  64.5445372  12.7371188 114.6194552
  65.6565762  11.7142193 114.5249857  60.9794282   6.0015422 116.9423109
  60.6092069   5.4486462 117.6304014  61.4753374   5.3973555 116.3898109
  68.8661645   8.4587045 115.3239882  69.3322097   9.2915037 115.2500184
  69.3169145   7.9932027 116.0285140  58.8083480  16.4612917 124.0378127
  59.5092940  17.0949400 124.1907521  58.3378595  16.8027648 123.2773766
  66.9337876  14.8030867 112.3226034  67.2097720  14.6887461 113.2319908
  66.0642375  14.4048351 112.2838207  66.8378308   0.8267632 119.3630783
  65.9241388   1.0571859 119.5312990  67.2671409   0.9106076 120.2144815
  66.6084766   9.0157524 121.8630677  65.9556216   9.2633432 121.2083130
  66.9865146   8.2021662 121.5293154  63.5691940  19.0517217 115.9658847
  63.7514335  18.2338873 116.4286600  64.3924926  19.2684910 115.5283737
  63.9034106  17.9785403 113.2273896  64.4321872  17.4677857 112.6144058
  64.1662325  17.6627933 114.0919429  54.4051198  15.9949272 120.9709229
  54.9904635  15.2492960 121.1037133  54.2076037  16.3053229 121.8545893
  57.2589854  19.0300519 115.9871672  56.5900229  19.5146647 115.5035712
  57.1202723  19.2769740 116.9015050  48.9968853   8.5654872 119.6913672
  49.0352953   8.0318463 120.4850791  48.4909146   8.0390078 119.0724650
  61.3995122  21.0644263 122.5854330  61.9513430  21.2275884 123.3503415
  61.7401316  21.6548701 121.9134355  66.2505996  15.8905520 128.4402984
  66.7945900  16.5035478 127.9457939  65.6692841  16.4485099 128.9569997
  52.6277431   7.2918974 112.7667604  52.9230872   6.3829653 112.7134658
  51.7265466   7.2706714 112.4448606  64.5363509  19.0126238 119.5718012
  64.4114649  18.2115978 119.0628958  65.1942601  19.5072432 119.0831982
  56.1571678   5.3674971 118.7495152  55.4358263   5.9810938 118.6102626
  56.9464933   5.9032736 118.6711798  66.5998418  16.8135258 121.1997562
  65.6528753  16.6940610 121.1275889  66.9481191  15.9257756 121.2823824
  54.3565272   4.9733072 112.8906929  54.0277978   4.0930451 112.7082035
  54.7104643   4.9180741 113.7783318  63.6044851  16.6087975 117.4001915
  63.4569814  15.6804682 117.5809485  64.4298345  16.6308065 116.9158990
  57.4707095   5.2606042 113.2582407  57.8103168   5.7891963 112.5361015
  57.9179216   5.5986448 114.0340973  67.2078973  17.4316533 118.4866787
  68.1325520  17.2259395 118.3491238  67.0394276  17.1832934 119.3956129
  60.8167008   0.7292405 121.1612798  61.6393077   0.2552883 121.0391688
  61.0605072   1.5082889 121.6611484  59.4575243   3.7580663 111.4575699
  60.1783605   4.1361916 110.9539416  58.8340547   4.4769540 111.5610677
  63.6006365   4.4625812 112.3934032  63.8169980   5.3450450 112.0922860
  63.1200433   4.0712026 111.6639674  58.3405587   7.4211525 118.9704776
  58.1950167   7.7351828 119.8629058  57.8630790   8.0396426 118.4175675
  60.2001970   4.4114073 119.0185666  60.1863538   3.5155167 118.6817964
  60.9174398   4.4184737 119.6523952  62.0528100   4.8451414 121.0638793
  61.7945878   5.7668484 121.0623124  61.5213141   4.4481848 121.7539257
  66.9974289  17.9502201 113.8428879  67.1711167  17.3848623 113.0902731
  67.4903180  18.7503096 113.6608369  52.8151249   9.9616870 121.9092438
  52.2704717  10.7376678 122.0412712  53.6930599  10.3087674 121.7511559
  59.6038866   3.2928454 114.2873236  59.7254777   2.3645100 114.4864124
  59.3140908   3.3067140 113.3751551  62.4730056   0.9783364 117.4239956
  62.4951753   1.0422697 116.4691935  62.8898115   0.1387873 117.6180462
  72.8513680  10.7138624 115.4619178  73.2944826   9.9645949 115.0638302
  71.9740191  10.7048760 115.0792910  67.9849462  17.2668965 110.9425777
  68.6800366  17.8875658 111.1613092  68.3272612  16.4164316 111.2178155
  69.8840885  14.7168671 112.4713108  70.4092209  15.0555943 111.7462428
  69.7963237  13.7815686 112.2876242  61.5460933  18.6302744 124.6002984
  61.8548060  18.3851891 125.4725684  62.3436415  18.8349383 124.1121855
  61.5681545  20.7840654 116.8308361  61.1286536  20.2917033 117.5241218
  62.3189662  20.2413622 116.5900436  54.0473884  16.9752195 116.8332989
  54.8731904  16.6755967 116.4531633  53.6967936  16.2059817 117.2822778
  59.0155418  16.3278663 118.9030663  58.3935427  15.6649368 118.6032890
  59.6860285  16.3539795 118.2204310  52.2482490  14.8938521 117.7921923
  51.4114398  14.4660696 117.6105924  52.2206135  15.0870965 118.7292714
  69.5734791  15.3501574 127.7764306  68.7830335  15.3325713 127.2368805
  69.3368145  15.8889868 128.5313342  69.6932666  12.1994041 125.0897034
  69.7430671  12.0344048 126.0312557  69.5846589  11.3321300 124.6994915
  58.5768925  14.8782586 112.3789123  58.7257045  15.5618051 111.7255796
  59.3835368  14.8587676 112.8938579  66.9836428   8.1824969 126.4056341
  67.8846291   8.0431434 126.1140339  67.0584403   8.3479424 127.3454518
  71.1950863  14.6190982 125.3339056  70.9035671  14.9820963 126.1702517
  70.5822994  13.9057990 125.1552388  72.3946545  12.1843862 117.8541626
  73.2293436  12.6233666 118.0179186  72.5305674  11.7082515 117.0349872
  69.4438051   9.7423597 123.8019114  69.9192173   9.9351243 122.9937965
  68.5203616   9.7982783 123.5562497  56.3321558  10.9047764 113.3850192
  56.0867599  10.0010094 113.5830402  56.5017472  10.9064914 112.4429670
  64.0218267   1.7771440 122.7674948  64.5400211   2.5132467 122.4421436
  63.6673400   2.0835434 123.6021707  55.6017205   6.6376122 110.8836354
  54.9086450   6.7120477 110.2276390  55.3568957   5.8736465 111.4057870
  64.2730862  -1.8028277 118.2875844  64.5532615  -2.4705088 118.9136271
  65.0581469  -1.6099181 117.7750508  62.0764330  17.3730717 109.8500871
  61.5038297  17.9920904 109.3971342  62.6497124  17.9230078 110.3840793
  68.1439720   6.6189357 122.0347419  69.0957143   6.7187455 122.0559643
  67.9743170   5.8267625 122.5445504  66.1654099   3.7044940 122.2206820
  65.5704032   3.9849953 121.5253309  65.8803796   4.1938841 122.9923561
  65.2961590  17.6567867 110.9809453  66.2292263  17.5913429 111.1842328
  65.2084803  18.4924134 110.5223986  67.9249607  16.9733737 107.9413400
  67.8463238  16.6393601 108.8349158  68.7459273  17.4655505 107.9404873
  70.6227798   9.8395477 121.1489719  70.5904118   8.9011477 121.3349403
  71.2328421   9.9179513 120.4155544  62.4611129   8.7091530 107.1916923
  63.4070233   8.5797738 107.2605341  62.0825374   7.9706191 107.6686351
  70.7722286   6.6306520 121.1948002  70.2561335   5.8464977 121.0077931
  71.6562235   6.3025237 121.3594522  68.4333013   0.3747536 117.1543815
  68.2357834   0.0662624 118.0387147  69.0432719   1.1009174 117.2841745
  76.4404348  10.9011483 120.2895756  77.1707736  10.6396772 120.8503459
  75.8311293  10.1640205 120.3297824  74.5219645   9.0419346 120.8870207
  73.7952808   8.9075311 120.2786699  74.1066932   9.3496175 121.6926925
  62.3449821  12.7609276 128.6517580  63.2652831  12.9387875 128.8457627
  62.3099404  11.8165321 128.4997279  60.6454046   6.6341506 107.1271808
  59.7385501   6.3374619 107.2034522  60.9230027   6.3371324 106.2606095
  51.5631986   7.9547869 117.5770855  51.2434770   7.1013178 117.2845229
  51.0165414   8.1696447 118.3328822  55.3411894  10.6710310 121.2940361
  55.5597903  11.6027418 121.3128395  55.7537667  10.3118285 122.0795165
  62.2616111   1.1778396 113.2816050  61.4516840   0.8325481 113.6571296
  62.9500528   0.8685939 113.8703661  64.1906660   0.2556442 114.9040346
  64.7437698   0.6751896 115.5630369  64.4276746  -0.6707809 114.9463302
  59.4152830   3.4928441 107.2683788  60.2771994   3.8183339 107.5279605
  59.6003175   2.7059937 106.7556853  51.4320246  11.5750781 119.5463976
  50.7383718  11.1604734 119.0333931  52.1793237  11.6171317 118.9497395
  67.5685467   2.3656968 114.4119011  66.9884136   3.0241772 114.0297063
  67.3021400   1.5434312 114.0006428  66.0189033   1.7662025 116.6140331
  66.5188812   1.8778560 115.8054650  66.6624641   1.4623078 117.2541139
  53.3456989  11.5069035 117.4229991  53.3227677  11.6056722 116.4711874
  53.6557625  12.3534185 117.7447157  56.0044367  13.5645190 121.5376606
  56.9587620  13.5329132 121.4706537  55.8056890  13.1035813 122.3526831
  56.5943749  12.1346306 124.1047403  57.4136638  12.6290384 124.1282241
  56.8680556  11.2178274 124.0764971  66.3510345   4.5257058 113.4675359
  65.4636200   4.8106709 113.2495554  66.7664334   4.3650821 112.6202636
  69.7024881   4.5503579 117.1829698  70.4785271   5.0400031 117.4554315
  68.9773015   4.9761633 117.6401568  72.1397440   5.2631198 118.2403639
  72.7341930   5.0226934 117.5296947  72.2124023   4.5438329 118.8677175
  54.3594595  19.1064809 118.5546803  54.2249063  18.3465210 117.9884802
  53.9426658  19.8305709 118.0875592  65.4953558  14.2901733 107.5623379
  66.1989408  14.4951735 108.1781034  64.7716207  14.8578495 107.8272462
  66.3251369  10.0411594 113.6825649  66.2686570  10.4980145 112.8433281
  66.8779711   9.2802279 113.5048492  70.1356175   5.8301326 114.5075768
  69.8793109   5.4297961 115.3383976  69.5109043   6.5445120 114.3825908
  74.4468512   8.5697399 117.0147060  73.8868070   8.6390588 117.7878622
  73.8412016   8.3938384 116.2946556  57.5163721  20.0034126 118.7665246
  57.3996105  20.9479559 118.6643936  56.6956167  19.7007688 119.1551045
  67.4040256  14.7284262 109.6121839  68.2385860  14.2965460 109.4299314
  67.2424599  14.5566276 110.5398733  67.0586148  11.2316375 110.9778178
  67.0034952  11.0660647 110.0366622  66.4332203  11.9392408 111.1340368
  64.3732055  13.5365287 130.3031741  65.2423215  13.7105939 129.9418376
  63.8938807  14.3559704 130.1807470  60.3682273   0.7324484 110.5563497
  60.3560943   1.6766324 110.7131767  61.2605695   0.5494630 110.2622958
  58.5418235  20.6562388 121.9821175  59.4445482  20.6885998 122.2987669
  58.3155605  19.7262839 121.9967510  60.2971837  19.4093375 118.6431253
  59.3467468  19.4095236 118.5295625  60.6004323  18.6626109 118.1267288
  64.1834393  -2.6732739 114.8109433  63.4166789  -3.2274252 114.9566116
  64.5945098  -2.6010870 115.6723585  76.0324531  25.2453913 119.7077016
  76.6702941  25.1260660 119.0040356  75.9145374  26.1934757 119.7664968
  72.8414237  25.1981341 119.6438540  72.5032749  25.0822406 118.7559075
  73.7104005  24.7972506 119.6239546  68.7001053  27.0516818 115.6335431
  68.1365918  26.9606754 114.8651719  68.5853448  26.2316722 116.1137924
  73.3234020  26.3516193 125.6024746  73.3122661  25.9568991 124.7305249
  73.4854660  25.6182265 126.1958517  66.2465485  28.5468009 118.4719652
  67.0386777  28.2058834 118.0565951  66.4862135  28.6562984 119.3921805
  74.2800612  30.7187785 110.9449896  73.6288591  31.3041866 110.5583910
  75.0744974  31.2493980 111.0044934  68.2056239  27.8076922 111.3437030
  68.9787115  27.2605909 111.2049906  68.5581638  28.6721172 111.5551492
  70.0441281  29.1353305 124.5503930  69.7531147  30.0398935 124.4350596
  70.6798266  29.1769832 125.2647999  70.9697488  26.5130153 121.1405289
  71.5661060  26.2886176 120.4262252  71.0272460  25.7714899 121.7430737
  70.5422516  23.9669588 108.9755480  70.7948037  23.4451110 108.2138943
  69.6047076  23.8035734 109.0782164  75.5865799  22.9705367 116.7830224
  76.3728889  22.5524790 116.4320641  75.8504504  23.8751459 116.9511872
  75.7575877  28.4078217 111.4818880  75.1221710  28.4812844 112.1939785
  75.4273283  28.9971816 110.8037960  80.9874226  22.9080600 117.6863202
  81.7199398  22.3379817 117.9201032  80.2313582  22.5202200 118.1269708
  70.2618805  25.8697694 111.1779855  70.1455063  25.1942598 111.8460940
  70.3721065  25.3830068 110.3612008  72.6050346  25.3307842 114.8826545
  72.2408553  24.8038463 115.5939466  73.4617462  24.9406311 114.7093030
  78.5099647  16.6202174 122.1457811  78.1782972  17.4897585 121.9219026
  77.9145260  16.3038458 122.8251841  72.2455833  20.3597741 109.8787893
  72.4130235  21.2277978 110.2458364  72.0553002  20.5225023 108.9549182
  75.0031166  28.8214720 121.5453723  74.7031889  29.7239759 121.4369531
  74.6582226  28.5546903 122.3974876  68.4543648  25.2728517 117.5790428
  67.5294144  25.1404731 117.7868120  68.7028061  26.0522736 118.0760370
  78.4028310  21.3397260 119.2251161  77.4945187  21.2712669 118.9309922
  78.3515906  21.8169205 120.0532986  72.2245054  22.8155399 110.8634560
  72.1044679  23.2612449 111.7020040  71.5297642  23.1640716 110.3048098
  65.8152459  24.9161791 118.4134217  65.9444840  25.1696269 119.3273629
  65.1349910  25.5089499 118.0938872  69.9851946  35.5859040 114.5124691
  69.9075976  36.5366866 114.5913172  69.3813590  35.2404913 115.1699617
  72.4769176  22.7586906 127.1686058  71.7002510  23.3180826 127.1588923
  73.1159739  23.2443689 127.6900928  80.2689957  19.5413699 121.0029035
  79.6264337  19.8346232 120.3568829  79.7644885  19.4266619 121.8082231
  77.9230120  23.2876872 111.6914894  78.8347976  23.5204259 111.5162591
  77.4139767  23.8713916 111.1289973  70.7315548  25.5672359 126.7304025
  71.4730233  26.1057403 126.4538849  70.0252534  26.1938648 126.8875577
  76.2070888  27.7101500 125.3276187  76.6154244  27.2683910 124.5830819
  75.4848149  27.1354127 125.5810379  72.5601958  22.6474107 122.7009743
  73.4063153  23.0713520 122.8444392  72.5000596  21.9907731 123.3948307
  76.5299702  28.2702690 119.0828475  75.9008565  28.4348404 118.3804543
  76.1425365  28.6844300 119.8539439  80.4088934  29.2057128 116.4372839
  79.7239973  29.5856030 115.8869872  80.4932784  29.8152455 117.1704787
  75.7101403  20.3078475 124.3590917  75.4662335  21.0620535 123.8225193
  75.9861334  20.6863822 125.1938164  77.6639866  26.8517087 123.0368183
  77.8756761  27.4948847 122.3602564  77.6169614  26.0179404 122.5690113
  75.2666095  19.4634908 119.9404755  74.4050574  19.7616161 120.2321492
  75.2928530  19.6805307 119.0085787  72.0827664  28.0077098 116.3478561
  72.5466010  28.2864801 115.5583183  71.8184462  27.1060543 116.1651651
  68.9751745  27.5548580 119.2858324  69.5453102  27.9835848 118.6475808
  69.5659857  27.2731165 119.9842509  71.0196550  24.1300251 113.1568126
  71.7220594  24.5821294 113.6242052  70.6877179  23.4884070 113.7848019
  69.4676912  22.7212007 127.5319335  68.8375573  23.4028288 127.7654732
  69.3613000  22.6095089 126.5872473  64.7621884  22.3883803 118.4585259
  63.9720938  22.6441332 117.9825370  65.2533132  23.2032141 118.5637300
  78.7785694  29.7289043 121.2090540  79.6003138  29.3269230 120.9273222
  78.7748097  29.6257277 122.1606656  66.7136630  22.7528383 115.4168736
  65.9167793  22.8647077 115.9352232  66.4862222  23.0915035 114.5509626
  72.5442297  29.2773086 123.3651251  72.6086730  29.7393493 124.2009422
  71.8353221  28.6470451 123.4933560  63.0459587  22.6414294 120.8900250
  63.2967626  23.5261304 121.1557826  63.5819136  22.4618895 120.1175342
  86.8691687  26.0727791 117.5575512  86.1155395  25.5035189 117.4019516
  87.0039228  26.0390456 118.5046146  72.2590315  30.9441193 113.2330231
  72.1235990  31.7892729 113.6615079  72.8000128  31.1460471 112.4696165
  68.7457655  17.0232773 129.8944586  68.3524600  16.4698972 130.5692230
  69.5623795  17.3343352 130.2851104  65.7119712  28.4616631 113.8058156
  66.2244233  29.2559882 113.9563721  66.3642425  27.7642922 113.7391757
  67.5214597  31.5782388 115.8880909  67.6981225  32.5000352 115.7001893
  68.3171431  31.2640807 116.3175289  71.6625616  18.4390652 127.4864843
  72.4035329  19.0397806 127.4069305  71.8943538  17.6968290 126.9282885
  66.8066954  23.6247020 125.7643072  66.6920469  22.7232277 126.0650171
  65.9511471  23.8710716 125.4127889  73.8858791  31.5664760 127.3630573
  73.4422646  30.7801139 127.0451477  74.5476005  31.7543910 126.6974464
  68.6445913  33.0960562 121.8891251  69.1953338  32.9677625 121.1168245
  67.8057388  33.3955451 121.5386144  75.9840029  31.8467560 125.3911974
  75.9658505  32.6676441 124.8992243  76.9059950  31.7221635 125.6162115
  72.4413084  29.3611689 126.2335483  72.9741420  28.5999978 126.0034791
  71.9127165  29.0685341 126.9759637  75.6082779  14.4671755 121.7629124
  75.2647048  15.3573397 121.6868235  75.9761741  14.2773413 120.8998709
  63.6768629  26.7905286 114.5817726  64.5143851  27.2002294 114.3651434
  63.8546897  25.8504728 114.5517920  75.5733061  24.4580366 110.2701559
  75.0579685  25.2284971 110.5089947  75.3010370  23.7845503 110.8934621
  73.1580172  19.3030067 115.3286798  72.3021769  18.9136918 115.1492437
  73.5707124  19.3822028 114.4686583  74.6879319  16.8376410 119.7278358
  74.1844115  16.8006546 118.9146163  74.9809926  17.7469153 119.7875014
  70.9322205  16.9215140 118.7344539  71.7975202  16.7257949 118.3750429
  70.9999714  16.6925492 119.6613896  80.5467335  27.2112721 112.2054733
  79.7696778  26.8723881 111.7609895  81.2258816  27.2165344 111.5309698
  75.3619364  22.3307459 112.0961341  75.0569500  22.6453608 112.9471484
  76.3149807  22.4088878 112.1388674  73.8065796  28.4897682 113.7454295
  73.2787158  27.7550441 113.4327532  73.3053299  29.2672358 113.4994263
  78.7858642  26.6846702 118.8621341  78.1282317  27.3745964 118.9501470
  79.5899042  27.0743134 119.2055327  68.5384524  19.1517348 116.1060906
  69.1128276  18.9292530 115.3734099  69.1255506  19.2206043 116.8589507
  77.5964101  25.0391075 116.9125283  78.1095983  25.6721067 117.4146992
  78.2465325  24.4392271 116.5468643  68.8654111  21.1821809 110.1256791
  68.0291423  21.5196496 110.4466066  68.7258881  21.0470789 109.1883928
  70.8407192  16.0258597 114.8335976  70.1871604  15.7107614 114.2092590
  70.7987666  15.4034337 115.5595798  71.9518397  26.3077892 106.7489268
  71.0445458  26.0767146 106.9480417  72.4489428  25.5115511 106.9363249
  74.8586475  35.0175399 109.6685954  74.1848174  35.3207096 110.2770912
  75.2452297  35.8204480 109.3191411  74.0744932  22.5140531 119.1583623
  73.1567493  22.7355478 119.0005311  74.4905076  22.5886841 118.2995331
  74.8579980  23.9131946 114.2886303  75.6051799  24.4253343 113.9793425
  75.1271569  23.5915999 115.1490697  73.1306630  26.4090487 111.2713258
  72.2217849  26.1249520 111.3685727  73.1601714  26.8289566 110.4116565
  78.3625897  30.0197076 115.0404425  77.9088224  29.1787986 115.0969616
  77.7319864  30.6558475 115.3779205  77.3058817  20.9489063 116.2705093
  76.5681574  20.4366449 116.6015335  77.5585590  20.5089444 115.4588370
  76.8058837  31.8573573 115.9754243  77.0981811  32.4178630 115.2566609
  77.3157457  32.1502134 116.7307403  77.4070444  13.7265315 116.8646862
  77.7129321  12.8662678 116.5772777  78.1323049  14.3182935 116.6645856
  63.6994800  24.1296001 115.2528460  63.5019200  23.5365362 114.5279526
  63.1441464  23.8248211 115.9704399  71.6791524  24.0219108 117.3723053
  71.7340134  23.0692944 117.2965530  70.8682726  24.1778547 117.8564351
  72.8282718  27.9499231 108.6101336  72.3902148  27.2335090 108.1506974
  73.5693159  28.1775345 108.0486428  69.6183884  22.6396167 115.1313432
  68.8051749  22.9390338 115.5378624  70.1142878  22.2451856 115.8487914
  71.7692462  32.6353924 117.0647697  71.7268641  32.8614771 116.1356229
  72.6855161  32.4017299 117.2133498  75.2158096  23.1037992 123.9628326
  75.5707483  23.3309465 124.8222792  75.8630227  23.4356369 123.3405581
  80.9455833  26.2256428 114.6677655  80.8073731  26.4158024 113.7398844
  80.5892051  26.9875811 115.1245706  69.1097959  20.2114523 120.7474667
  69.7497338  20.0703282 120.0497630  68.2775489  19.9249036 120.3713269
  80.9725212  28.2932955 119.6788926  81.4061719  28.2008244 120.5271980
  81.6856793  28.2690455 119.0408942  69.8858263  29.5116953 116.8609659
  70.6798861  29.0167273 116.6592234  69.1749955  28.9834816 116.4977365
  74.7053107  31.8935049 121.2122027  74.7590129  32.4625985 121.9799743
  73.8367888  32.0636934 120.8476064  66.1941026  23.6560035 112.9369412
  65.2638614  23.5944490 113.1539374  66.2898498  23.1335988 112.1406053
  66.1126575  20.1814848 115.5247654  66.3733392  21.0960181 115.4156814
  66.9343747  19.7139290 115.6744267  67.5851500  21.5952605 122.6946478
  68.2574554  21.3869967 122.0459127  66.7581287  21.3974691 122.2551711
  81.8340762  28.3356655 122.2121812  82.0276652  29.2402466 122.4581087
  81.7341380  27.8764074 123.0460397  73.4877072  18.2214546 124.7112139
  72.8404987  18.9204496 124.6176616  74.2578088  18.6550690 125.0788387
  76.8955870  28.4863398 127.7862692  76.7441377  28.2573950 126.8692776
  76.8860550  29.4434000 127.7994037  73.6641207  26.0595311 122.7708959
  74.5933267  26.2106470 122.5977926  73.2432237  26.1479332 121.9157605
  72.4629539  30.0845975 120.5407496  72.3240624  29.7164760 121.4133435
  71.6744135  30.5993615 120.3691454  73.0577691  35.1855072 111.8833033
  73.2329446  34.7143115 112.6978656  72.3710479  35.8120838 112.1114294
  74.0134754  29.4627578 117.9296334  73.6784586  29.4228348 118.8253984
  73.5138699  28.7972294 117.4566744  67.9878998  24.8695208 123.4548915
  67.8498796  24.1375447 124.0560454  68.8983921  24.7804108 123.1733103
  76.9493945  26.8083612 108.2033394  76.3323116  26.0830440 108.1066447
  76.4810434  27.5692973 107.8600468  70.6161298  24.5815167 122.9432595
  71.3260917  23.9408359 122.9019213  70.5730607  24.8328062 123.8658776
  78.6048077  31.5182521 125.8639174  78.5460623  30.8341741 125.1969757
  79.0067595  32.2601511 125.4119800  69.3290232  21.5680385 124.7628235
  68.7927589  21.1171124 125.4149831  68.7406941  21.7026294 124.0198699
  67.6238776  38.3344434 118.6572893  67.8635374  38.9662959 119.3351912
  66.7807972  37.9832475 118.9438252  68.7392491  21.0269037 107.3254698
  67.8621958  20.9057837 106.9616945  69.2150244  20.2355115 107.0733587
  78.6065484  29.4822105 124.0953154  77.7192263  29.1448026 124.2179553
  79.1764035  28.7505136 124.3321919  60.2594631  25.8146196 117.4196205
  60.9465671  25.5007926 116.8317221  60.1042760  26.7187561 117.1463457
  65.0629354  20.7036393 121.8481229  64.9787542  20.0962062 121.1131639
  64.2412060  21.1945411 121.8490725  72.1366638  34.1423557 121.0614397
  72.0636809  34.9478528 121.5733702  71.6944031  34.3415523 120.2362419
  71.9256417  33.3795327 114.5717219  71.1423939  33.9217007 114.6655443
  72.6249162  33.8969307 114.9711460  75.2353067  19.1889956 117.2151424
  75.7321767  18.4359919 116.8952494  74.4640049  19.2254273 116.6494633
  83.0882825  24.8930322 118.8569716  83.0772701  25.7755037 118.4863649
  82.2200204  24.5401873 118.6624253  74.5965321  34.0410391 123.2172556
  75.3093293  34.6757856 123.1448457  74.1055350  34.1374257 122.4012558
  76.3182848  27.9461644 114.7889847  75.3839127  28.0663106 114.6194552
  76.4959517  27.0434110 114.5249857  71.8188036  21.3307339 116.9423109
  71.4485824  20.7778380 117.6304014  72.3147129  20.7265473 116.3898109
  79.7055399  23.7878963 115.3239882  80.1715852  24.6206955 115.2500184
  80.1562900  23.3223944 116.0285140  69.6477235  31.7904834 124.0378127
  70.3486694  32.4241317 124.1907521  69.1772350  32.1319566 123.2773766
  77.7731631  30.1322784 112.3226034  78.0491474  30.0179379 113.2319908
  76.9036129  29.7340269 112.2838207  77.6772062  16.1559550 119.3630783
  76.7635142  16.3863777 119.5312990  78.1065164  16.2397994 120.2144815
  77.4478521  24.3449442 121.8630677  76.7949971  24.5925349 121.2083130
  77.8258901  23.5313580 121.5293154  74.4085695  34.3809135 115.9658847
  74.5908089  33.5630791 116.4286600  75.2318681  34.5976827 115.5283737
  74.7427860  33.3077320 113.2273896  75.2715627  32.7969775 112.6144058
  75.0056080  32.9919850 114.0919429  73.4966094  25.0869253 128.3496714
  72.8206731  24.9863382 129.0199089  74.3193728  24.9308467 128.8132711
  65.2444953  31.3241189 120.9709229  65.8298390  30.5784877 121.1037133
  65.0469791  31.6345146 121.8545893  68.0983608  34.3592437 115.9871672
  67.4293983  34.8438564 115.5035712  67.9596478  34.6061657 116.9015050
  59.8362608  23.8946790 119.6913672  59.8746707  23.3610380 120.4850791
  59.3302900  23.3681995 119.0724650  72.2388877  36.3936180 122.5854330
  72.7907185  36.5567802 123.3503415  72.5795070  36.9840618 121.9134355
  67.2153370  18.7411330 123.1876215  67.2794696  19.6026161 122.7753612
  67.1520490  18.1285332 122.4548573  66.6905642  20.8134463 126.8349249
  67.3177681  20.4311540 127.4486773  65.8333561  20.5948665 127.2004941
  77.0899751  31.2197438 128.4402984  77.6339655  31.8327396 127.9457939
  76.5086596  31.7777016 128.9569997  63.4671185  22.6210892 112.7667604
  63.7624626  21.7121570 112.7134658  62.5659221  22.5998631 112.4448606
  75.3757264  34.3418156 119.5718012  75.2508403  33.5407896 119.0628958
  76.0336355  34.8364349 119.0831982  66.9965432  20.6966888 118.7495152
  66.2752018  21.3102856 118.6102626  67.7858688  21.2324653 118.6711798
  77.4392172  32.1427176 121.1997562  76.4922508  32.0232527 121.1275889
  77.7874945  31.2549674 121.2823824  69.7991746  18.0321315 125.0235804
  70.3226147  18.2783611 125.7862113  69.5804079  18.8641350 124.6038942
  65.1959027  20.3024989 112.8906929  64.8671733  19.4222368 112.7082035
  65.5498397  20.2472658 113.7783318  74.4438606  31.9379892 117.4001915
  74.2963568  31.0096600 117.5809485  75.2692099  31.9599983 116.9158990
  68.3100850  20.5897959 113.2582407  68.6496922  21.1183881 112.5361015
  68.7572970  20.9278365 114.0340973  78.0472727  32.7608451 118.4866787
  78.9719275  32.5551312 118.3491238  77.8788031  32.5124852 119.3956129
  71.0044291  18.9735010 122.7085475  70.6641111  18.1742823 123.1106155
  70.2983297  19.2736721 122.1362308  71.6560763  16.0584322 121.1612798
  72.4786832  15.5844801 121.0391688  71.8998826  16.8374806 121.6611484
  70.2968997  19.0872581 111.4575699  71.0177359  19.4653834 110.9539416
  69.6734301  19.8061458 111.5610677  74.4400120  19.7917730 112.3934032
  74.6563734  20.6742368 112.0922860  73.9594187  19.4003943 111.6639674
  69.1799341  22.7503443 118.9704776  69.0343922  23.0643746 119.8629058
  68.7024545  23.3688343 118.4175675  71.0395724  19.7405991 119.0185666
  71.0257293  18.8447084 118.6817964  71.7568152  19.7476655 119.6523952
  72.8921855  20.1743331 121.0638793  72.6339633  21.0960402 121.0623124
  72.3606895  19.7773766 121.7539257  77.8368044  33.2794118 113.8428879
  78.0104921  32.7140541 113.0902731  78.3296935  34.0795013 113.6608369
  63.6545003  25.2908787 121.9092438  63.1098471  26.0668595 122.0412712
  64.5324353  25.6379592 121.7511559  70.4432620  18.6220371 114.2873236
  70.5648531  17.6937018 114.4864124  70.1534662  18.6359057 113.3751551
  73.3123810  16.3075282 117.4239956  73.3345507  16.3714615 116.4691935
  73.7291869  15.4679790 117.6180462  83.6907435  26.0430541 115.4619178
  84.1338581  25.2937867 115.0638302  82.8133945  26.0340678 115.0792910
  78.8243216  32.5960883 110.9425777  79.5194121  33.2167575 111.1613092
  79.1666366  31.7456234 111.2178155  64.4411025  24.4178684 124.8022594
  63.6992761  24.5661319 125.3887225  64.1203770  24.6786949 123.9389344
  80.7234639  30.0460588 112.4713108  81.2485963  30.3847861 111.7462428
  80.6356992  29.1107604 112.2876242  72.3854688  33.9594662 124.6002984
  72.6941814  33.7143809 125.4725684  73.1830170  34.1641300 124.1121855
  72.4075300  36.1132572 116.8308361  71.9680290  35.6208950 117.5241218
  73.1583417  35.5705539 116.5900436  64.8867639  32.3044112 116.8332989
  65.7125659  32.0047884 116.4531633  64.5361691  31.5351735 117.2822778
  69.8549172  31.6570581 118.9030663  69.2329181  30.9941286 118.6032890
  70.5254039  31.6831713 118.2204310  63.0876244  30.2230439 117.7921923
  62.2508152  29.7952613 117.6105924  63.0599889  30.4162882 118.7292714
  69.9273700  20.1352369 128.4963169  69.9761855  21.0114492 128.1140938
  70.4696214  19.5929762 127.9234812  80.4128545  30.6793492 127.7764306
  79.6224089  30.6617631 127.2368805  80.1761900  31.2181786 128.5313342
  80.5326420  27.5285958 125.0897034  80.5824425  27.3635966 126.0312557
  80.4240344  26.6613217 124.6994915  69.4162679  30.2074504 112.3789123
  69.5650799  30.8909968 111.7255796  70.2229122  30.1879594 112.8938579
  77.8230183  23.5116886 126.4056341  78.7240045  23.3723351 126.1140339
  77.8978157  23.6771341 127.3454518  72.1572988  20.8883741 125.2509527
  71.2876297  21.1817307 124.9792116  72.3932468  21.4724186 125.9716791
  82.0344617  29.9482900 125.3339056  81.7429425  30.3112880 126.1702517
  81.4216748  29.2349908 125.1552388  83.2340299  27.5135780 117.8541626
  84.0687191  27.9525584 118.0179186  83.3699428  27.0374433 117.0349872
  80.2831805  25.0715514 123.8019114  80.7585927  25.2643161 122.9937965
  79.3597371  25.1274700 123.5562497  67.1715312  26.2339682 113.3850192
  66.9261354  25.3302012 113.5830402  67.3411227  26.2356832 112.4429670
  74.8612022  17.1063358 122.7674948  75.3793966  17.8424385 122.4421436
  74.5067155  17.4127351 123.6021707  66.4410960  21.9668039 110.8836354
  65.7480204  22.0412394 110.2276390  66.1962711  21.2028383 111.4057870
  75.1124616  13.5263641 118.2875844  75.3926370  12.8586830 118.9136271
  75.8975223  13.7192736 117.7750508  72.9158085  32.7022634 109.8500871
  72.3432052  33.3212822 109.3971342  73.4890878  33.2521996 110.3840793
  78.9833474  21.9481275 122.0347419  79.9350897  22.0479372 122.0559643
  78.8136925  21.1559543 122.5445504  77.0047854  19.0336858 122.2206820
  76.4097786  19.3141871 121.5253309  76.7197551  19.5230759 122.9923561
  76.1355344  32.9859785 110.9809453  77.0686018  32.9205346 111.1842328
  76.0478557  33.8216051 110.5223986  78.7643361  32.3025655 107.9413400
  78.6856993  31.9685519 108.8349158  79.5853028  32.7947423 107.9404873
  81.4621552  25.1687394 121.1489719  81.4297872  24.2303395 121.3349403
  82.0722176  25.2471431 120.4155544  73.3004883  24.0383447 107.1916923
  74.2463988  23.9089655 107.2605341  72.9219128  23.2998109 107.6686351
  81.6116041  21.9598438 121.1948002  81.0955089  21.1756894 121.0077931
  82.4955989  21.6317154 121.3594522  79.2726768  15.7039453 117.1543815
  79.0751589  15.3954541 118.0387147  79.8826473  16.4301092 117.2841745
  87.2798102  26.2303401 120.2895756  88.0101491  25.9688689 120.8503459
  86.6705048  25.4932123 120.3297824  85.3613399  24.3711264 120.8870207
  84.6346563  24.2367229 120.2786699  84.9460686  24.6788092 121.6926925
  73.1843576  28.0901193 128.6517580  74.1046585  28.2679792 128.8457627
  73.1493159  27.1457239 128.4997279  71.4847800  21.9633424 107.1271808
  70.5779256  21.6666536 107.2034522  71.7623781  21.6663242 106.2606095
  62.4025741  23.2839787 117.5770855  62.0828525  22.4305095 117.2845229
  61.8559169  23.4988365 118.3328822  66.1805648  26.0002228 121.2940361
  66.3991658  26.9319336 121.3128395  66.5931422  25.6410202 122.0795165
  73.1009866  16.5070313 113.2816050  72.2910594  16.1617398 113.6571296
  73.7894283  16.1977857 113.8703661  75.0300414  15.5848360 114.9040346
  75.5831453  16.0043814 115.5630369  75.2670501  14.6584108 114.9463302
  71.0533513  21.5735434 130.6843110  70.9530240  22.5229791 130.6155201
  70.8355056  21.2453673 129.8119180  70.2546585  18.8220359 107.2683788
  71.1165749  19.1475257 107.5279605  70.4396929  18.0351855 106.7556853
  62.2714001  26.9042699 119.5463976  61.5777472  26.4896651 119.0333931
  63.0186992  26.9463235 118.9497395  78.4079221  17.6948885 114.4119011
  77.8277890  18.3533689 114.0297063  78.1415154  16.8726230 114.0006428
  76.8582788  17.0953943 116.6140331  77.3582566  17.2070478 115.8054650
  77.5018396  16.7914996 117.2541139  70.9164784  25.0032573 129.5008172
  70.4331865  25.8032933 129.7072061  71.0025723  25.0140517 128.5475616
  64.1850743  26.8360952 117.4229991  64.1621431  26.9348640 116.4711874
  64.4951380  27.6826103 117.7447157  66.8438121  28.8937107 121.5376606
  67.7981375  28.8621050 121.4706537  66.6450645  28.4327731 122.3526831
  67.4337503  27.4638223 124.1047403  68.2530392  27.9582302 124.1282241
  67.7074311  26.5470192 124.0764971  77.1904099  19.8548976 113.4675359
  76.3029954  20.1398626 113.2495554  77.6058088  19.6942739 112.6202636
  80.5418635  19.8795497 117.1829698  81.3179026  20.3691949 117.4554315
  79.8166770  20.3053551 117.6401568  82.9791194  20.5923116 118.2403639
  83.5735685  20.3518852 117.5296947  83.0517778  19.8730246 118.8677175
  65.1988350  34.4356727 118.5546803  65.0642818  33.6757128 117.9884802
  64.7820412  35.1597627 118.0875592  76.3347313  29.6193650 107.5623379
  77.0383163  29.8243653 108.1781034  75.6109962  30.1870412 107.8272462
  77.1645123  25.3703512 113.6825649  77.1080324  25.8272063 112.8433281
  77.7173466  24.6094196 113.5048492  80.9749929  21.1593243 114.5075768
  80.7186863  20.7589879 115.3383976  80.3502797  21.8737037 114.3825908
  85.2862267  23.8989317 117.0147060  84.7261825  23.9682506 117.7878622
  84.6805770  23.7230301 116.2946556  68.3557476  35.3326044 118.7665246
  68.2389860  36.2771476 118.6643936  67.5349922  35.0299605 119.1551045
  78.2434010  30.0576180 109.6121839  79.0779614  29.6257378 109.4299314
  78.0818353  29.8858193 110.5398733  77.8979902  26.5608293 110.9778178
  77.8428706  26.3952564 110.0366622  77.2725958  27.2684326 111.1340368
  62.6872417  21.7976357 124.8039600  63.3331281  21.2875311 125.2926825
  62.4789568  22.5345039 125.3783026  75.2125810  28.8657205 130.3031741
  76.0816969  29.0397857 129.9418376  74.7332561  29.6851622 130.1807470
  71.2076028  16.0616402 110.5563497  71.1954698  17.0058242 110.7131767
  72.0999450  15.8786547 110.2622958  69.3811990  35.9854306 121.9821175
  70.2839237  36.0177916 122.2987669  69.1549360  35.0554757 121.9967510
  71.1365592  34.7385292 118.6431253  70.1861223  34.7387154 118.5295625
  71.4398078  33.9918027 118.1267288  75.0228147  12.6559179 114.8109433
  74.2560543  12.1017665 114.9566116  75.4338852  12.7281047 115.6723585
  67.0269908  18.9443974 128.9014615  67.8901370  18.5880779 129.1117939
  66.4535319  18.6057869 129.5890019  86.8718285  40.5745831 119.7077016
  87.5096695  40.4552578 119.0040356  86.7539128  41.5226675 119.7664968
  83.6807992  40.5273259 119.6438540  83.3426503  40.4114323 118.7559075
  84.5497760  40.1264424 119.6239546  79.5394807  42.3808735 115.6335431
  78.9759672  42.2898672 114.8651719  79.4247202  41.5608640 116.1137924
  84.1627775  41.6808110 125.6024746  84.1516415  41.2860909 124.7305249
  84.3248414  40.9474183 126.1958517  77.0859239  43.8759927 118.4719652
  77.8780531  43.5350751 118.0565951  77.3255889  43.9854902 119.3921805
  85.1194366  46.0479703 110.9449896  84.4682346  46.6333783 110.5583910
  85.9138729  46.5785898 111.0044934  79.0449993  43.1368840 111.3437030
  79.8180869  42.5897827 111.2049906  79.3975392  44.0013089 111.5551492
  80.8835036  44.4645222 124.5503930  80.5924902  45.3690853 124.4350596
  81.5192020  44.5061750 125.2647999  81.8091243  41.8422071 121.1405289
  82.4054815  41.6178093 120.4262252  81.8666214  41.1006816 121.7430737
  81.3816271  39.2961506 108.9755480  81.6341792  38.7743027 108.2138943
  80.4440830  39.1327652 109.0782164  86.4259554  38.2997285 116.7830224
  87.2122643  37.8816708 116.4320641  86.6898258  39.2043377 116.9511872
  86.5969631  43.7370135 111.4818880  85.9615464  43.8104761 112.1939785
  86.2667038  44.3263734 110.8037960  91.8267981  38.2372518 117.6863202
  92.5593153  37.6671735 117.9201032  91.0707337  37.8494118 118.1269708
  81.1012560  41.1989612 111.1779855  80.9848818  40.5234515 111.8460940
  81.2114820  40.7121986 110.3612008  83.4444101  40.6599759 114.8826545
  83.0802308  40.1330380 115.5939466  84.3011217  40.2698228 114.7093030
  89.3493401  31.9494092 122.1457811  89.0176726  32.8189503 121.9219026
  88.7539015  31.6330376 122.8251841  83.0849588  35.6889659 109.8787893
  83.2523990  36.5569895 110.2458364  82.8946757  35.8516941 108.9549182
  85.8424921  44.1506638 121.5453723  85.5425644  45.0531677 121.4369531
  85.4975980  43.8838821 122.3974876  79.2937402  40.6020435 117.5790428
  78.3687899  40.4696649 117.7868120  79.5421815  41.3814654 118.0760370
  89.2422065  36.6689178 119.2251161  88.3338942  36.6004586 118.9309922
  89.1909660  37.1461123 120.0532986  83.0638808  38.1447316 110.8634560
  82.9438434  38.5904367 111.7020040  82.3691397  38.4932634 110.3048098
  76.6546213  40.2453708 118.4134217  76.7838594  40.4988187 119.3273629
  75.9743665  40.8381416 118.0938872  80.8245701  50.9150958 114.5124691
  80.7469730  51.8658783 114.5913172  80.2207344  50.5696831 115.1699617
  83.3162930  38.0878824 127.1686058  82.5396264  38.6472744 127.1588923
  83.9553493  38.5735607 127.6900928  91.1083711  34.8705616 121.0029035
  90.4658091  35.1638150 120.3568829  90.6038640  34.7558537 121.8082231
  88.7623875  38.6168790 111.6914894  89.6741731  38.8496176 111.5162591
  88.2533522  39.2005834 111.1289973  81.5709303  40.8964277 126.7304025
  82.3123987  41.4349321 126.4538849  80.8646288  41.5230566 126.8875577
  87.0464642  43.0393417 125.3276187  87.4547998  42.5975828 124.5830819
  86.3241904  42.4646045 125.5810379  83.3995712  37.9766024 122.7009743
  84.2456908  38.4005438 122.8444392  83.3394350  37.3199648 123.3948307
  87.3693457  43.5994608 119.0828475  86.7402319  43.7640322 118.3804543
  86.9819119  44.0136218 119.8539439  91.2482689  44.5349046 116.4372839
  90.5633727  44.9147947 115.8869872  91.3326538  45.1444373 117.1704787
  86.5495158  35.6370393 124.3590917  86.3056090  36.3912453 123.8225193
  86.8255088  36.0155740 125.1938164  88.5033620  42.1809005 123.0368183
  88.7150516  42.8240765 122.3602564  88.4563369  41.3471321 122.5690113
  86.1059849  34.7926826 119.9404755  85.2444328  35.0908079 120.2321492
  86.1322284  35.0097224 119.0085787  82.9221419  43.3369016 116.3478561
  83.3859764  43.6156719 115.5583183  82.6578217  42.4352461 116.1651651
  79.8145500  42.8840498 119.2858324  80.3846857  43.3127766 118.6475808
  80.4053612  42.6023082 119.9842509  81.8590305  39.4592169 113.1568126
  82.5614348  39.9113212 113.6242052  81.5270933  38.8175987 113.7848019
  80.3070666  38.0503925 127.5319335  79.6769327  38.7320206 127.7654732
  80.2006754  37.9387007 126.5872473  75.6015639  37.7175721 118.4585259
  74.8114693  37.9733250 117.9825370  76.0926886  38.5324059 118.5637300
  89.6179448  45.0580960 121.2090540  90.4396892  44.6561148 120.9273222
  89.6141851  44.9549194 122.1606656  77.5530384  38.0820300 115.4168736
  76.7561548  38.1938995 115.9352232  77.3255976  38.4206953 114.5509626
  83.3836052  44.6065004 123.3651251  83.4480484  45.0685411 124.2009422
  82.6746976  43.9762369 123.4933560  73.8853342  37.9706212 120.8900250
  74.1361380  38.8553222 121.1557826  74.4212890  37.7910813 120.1175342
  97.7085441  41.4019709 117.5575512  96.9549150  40.8327107 117.4019516
  97.8432983  41.3682373 118.5046146  83.0984070  46.2733111 113.2330231
  82.9629744  47.1184647 113.6615079  83.6393882  46.4752389 112.4696165
  79.5851409  32.3524691 129.8944586  79.1918355  31.7990890 130.5692230
  80.4017549  32.6635269 130.2851104  76.5513467  43.7908549 113.8058156
  77.0637987  44.5851799 113.9563721  77.2036180  43.0934840 113.7391757
  78.3608352  46.9074305 115.8880909  78.5374980  47.8292270 115.7001893
  79.1565185  46.5932725 116.3175289  82.5019370  33.7682570 127.4864843
  83.2429084  34.3689723 127.4069305  82.7337293  33.0260208 126.9282885
  77.6460708  38.9538937 125.7643072  77.5314223  38.0524195 126.0650171
  76.7905226  39.2002634 125.4127889  84.7252546  46.8956678 127.3630573
  84.2816400  46.1093056 127.0451477  85.3869759  47.0835828 126.6974464
  79.4839667  48.4252479 121.8891251  80.0347092  48.2969543 121.1168245
  78.6451143  48.7247368 121.5386144  86.8233784  47.1759478 125.3911974
  86.8052259  47.9968359 124.8992243  87.7453704  47.0513553 125.6162115
  83.2806838  44.6903607 126.2335483  83.8135175  43.9291895 126.0034791
  82.7520919  44.3977259 126.9759637  86.4476533  29.7963673 121.7629124
  86.1040802  30.6865315 121.6868235  86.8155496  29.6065331 120.8998709
  74.5162384  42.1197203 114.5817726  75.3537606  42.5294212 114.3651434
  74.6940651  41.1796646 114.5517920  86.4126816  39.7872284 110.2701559
  85.8973439  40.5576889 110.5089947  86.1404124  39.1137420 110.8934621
  83.9973927  34.6321985 115.3286798  83.1415523  34.2428835 115.1492437
  84.4100879  34.7113946 114.4686583  85.5273073  32.1668328 119.7278358
  85.0237869  32.1298463 118.9146163  85.8203680  33.0761071 119.7875014
  81.7715959  32.2507058 118.7344539  82.6368956  32.0549867 118.3750429
  81.8393468  32.0217410 119.6613896  91.3861090  42.5404639 112.2054733
  90.6090533  42.2015798 111.7609895  92.0652571  42.5457262 111.5309698
  86.2013119  37.6599376 112.0961341  85.8963255  37.9745525 112.9471484
  87.1543561  37.7380796 112.1388674  84.6459551  43.8189600 113.7454295
  84.1180912  43.0842359 113.4327532  84.1447054  44.5964276 113.4994263
  89.6252397  42.0138620 118.8621341  88.9676071  42.7037881 118.9501470
  90.4292796  42.4035052 119.2055327  79.3778278  34.4809266 116.1060906
  79.9522030  34.2584447 115.3734099  79.9649261  34.5497960 116.8589507
  88.4357856  40.3682993 116.9125283  88.9489737  41.0012985 117.4146992
  89.0859080  39.7684188 116.5468643  79.7047866  36.5113727 110.1256791
  78.8685178  36.8488413 110.4466066  79.5652635  36.3762707 109.1883928
  81.6800946  31.3550515 114.8335976  81.0265358  31.0399532 114.2092590
  81.6381420  30.7326255 115.5595798  82.7912151  41.6369810 106.7489268
  81.8839213  41.4059063 106.9480417  83.2883183  40.8407429 106.9363249
  85.6980230  50.3467317 109.6685954  85.0241929  50.6499014 110.2770912
  86.0846052  51.1496397 109.3191411  84.9138686  37.8432448 119.1583623
  83.9961248  38.0647395 119.0005311  85.3298830  37.9178759 118.2995331
  85.6973734  39.2423864 114.2886303  86.4445553  39.7545261 113.9793425
  85.9665324  38.9207917 115.1490697  83.9700384  41.7382405 111.2713258
  83.0611604  41.4541437 111.3685727  83.9995468  42.1581483 110.4116565
  89.2019652  45.3488994 115.0404425  88.7481979  44.5079904 115.0969616
  88.5713619  45.9850393 115.3779205  88.1452571  36.2780980 116.2705093
  87.4075328  35.7658366 116.6015335  88.3979345  35.8381362 115.4588370
  87.6452591  47.1865491 115.9754243  87.9375565  47.7470548 115.2566609
  88.1551212  47.4794052 116.7307403  88.2464199  29.0557232 116.8646862
  88.5523076  28.1954596 116.5772777  88.9716804  29.6474852 116.6645856
  74.5388555  39.4587919 115.2528460  74.3412955  38.8657279 114.5279526
  73.9835219  39.1540129 115.9704399  82.5185278  39.3511025 117.3723053
  82.5733888  38.3984862 117.2965530  81.7076481  39.5070464 117.8564351
  83.6676472  43.2791148 108.6101336  83.2295902  42.5627007 108.1506974
  84.4086913  43.5067263 108.0486428  80.4577638  37.9688085 115.1313432
  79.6445504  38.2682256 115.5378624  80.9536633  37.5743774 115.8487914
  82.6086216  47.9645842 117.0647697  82.5662395  48.1906688 116.1356229
  83.5248915  47.7309217 117.2133498  86.0551850  38.4329909 123.9628326
  86.4101238  38.6601383 124.8222792  86.7023981  38.7648286 123.3405581
  91.7849587  41.5548345 114.6677655  91.6467486  41.7449941 113.7398844
  91.4285806  42.3167728 115.1245706  79.9491713  35.5406441 120.7474667
  80.5891092  35.3995200 120.0497630  79.1169244  35.2540954 120.3713269
  91.8118967  43.6224872 119.6788926  92.2455473  43.5300161 120.5271980
  92.5250547  43.5982373 119.0408942  80.7252017  44.8408871 116.8609659
  81.5192616  44.3459191 116.6592234  80.0143709  44.3126734 116.4977365
  85.5446862  47.2226966 121.2122027  85.5983884  47.7917903 121.9799743
  84.6761643  47.3928852 120.8476064  77.0334781  38.9851953 112.9369412
  76.1032369  38.9236408 113.1539374  77.1292253  38.4627905 112.1406053
  76.9520330  35.5106766 115.5247654  77.2127147  36.4252099 115.4156814
  77.7737502  35.0431208 115.6744267  78.4245255  36.9244523 122.6946478
  79.0968308  36.7161885 122.0459127  77.5975041  36.7266609 122.2551711
  92.6734516  43.6648573 122.2121812  92.8670406  44.5694384 122.4581087
  92.5735134  43.2055992 123.0460397  84.3270827  33.5506464 124.7112139
  83.6798742  34.2496413 124.6176616  85.0971842  33.9842608 125.0788387
  87.7349625  43.8155316 127.7862692  87.5835131  43.5865867 126.8692776
  87.7254304  44.7725917 127.7994037  84.5034961  41.3887229 122.7708959
  85.4327021  41.5398388 122.5977926  84.0825991  41.4771249 121.9157605
  83.3023293  45.4137893 120.5407496  83.1634379  45.0456677 121.4133435
  82.5137889  45.9285532 120.3691454  83.8971445  50.5146989 111.8833033
  84.0723201  50.0435033 112.6978656  83.2104233  51.1412756 112.1114294
  84.8528508  44.7919496 117.9296334  84.5178341  44.7520266 118.8253984
  84.3532454  44.1264212 117.4566744  78.8272752  40.1987126 123.4548915
  78.6892550  39.4667364 124.0560454  79.7377676  40.1096026 123.1733103
  87.7887700  42.1375530 108.2033394  87.1716870  41.4122358 108.1066447
  87.3204188  42.8984890 107.8600468  81.4555053  39.9107085 122.9432595
  82.1654671  39.2700277 122.9019213  81.4124361  40.1619980 123.8658776
  89.4441832  46.8474438 125.8639174  89.3854378  46.1633658 125.1969757
  89.8461350  47.5893428 125.4119800  80.1683987  36.8972303 124.7628235
  79.6321344  36.4463041 125.4149831  79.5800695  37.0318212 124.0198699
  78.4632530  53.6636352 118.6572893  78.7029129  54.2954876 119.3351912
  77.6201727  53.3124392 118.9438252  79.5786246  36.3560954 107.3254698
  78.7015712  36.2349755 106.9616945  80.0543999  35.5647033 107.0733587
  89.4459239  44.8114022 124.0953154  88.5586018  44.4739944 124.2179553
  90.0157790  44.0797053 124.3321919  71.0988386  41.1438114 117.4196205
  71.7859426  40.8299844 116.8317221  70.9436515  42.0479479 117.1463457
  75.9023108  36.0328311 121.8481229  75.8181297  35.4253980 121.1131639
  75.0805814  36.5237329 121.8490725  82.9760392  49.4715475 121.0614397
  82.9030564  50.2770446 121.5733702  82.5337785  49.6707440 120.2362419
  82.7650172  48.7087245 114.5717219  81.9817694  49.2508925 114.6655443
  83.4642917  49.2261224 114.9711460  86.0746822  34.5181874 117.2151424
  86.5715521  33.7651836 116.8952494  85.3033803  34.5546191 116.6494633
  93.9276579  40.2222240 118.8569716  93.9166456  41.1046955 118.4863649
  93.0593959  39.8693790 118.6624253  85.4359076  49.3702309 123.2172556
  86.1487048  50.0049773 123.1448457  84.9449104  49.4666175 122.4012558
  87.1576603  43.2753561 114.7889847  86.2232881  43.3955024 114.6194552
  87.3353271  42.3726028 114.5249857  82.6581791  36.6599257 116.9423109
  82.2879578  36.1070297 117.6304014  83.1540883  36.0557391 116.3898109
  90.5449154  39.1170881 115.3239882  91.0109606  39.9498872 115.2500184
  90.9956654  38.6515862 116.0285140  80.4870989  47.1196752 124.0378127
  81.1880449  47.7533235 124.1907521  80.0166104  47.4611484 123.2773766
  88.6125385  45.4614702 112.3226034  88.8885229  45.3471296 113.2319908
  87.7429884  45.0632187 112.2838207  88.5165817  31.4851468 119.3630783
  87.6028896  31.7155694 119.5312990  88.9458918  31.5689912 120.2144815
  88.2872275  39.6741360 121.8630677  87.6343725  39.9217267 121.2083130
  88.6652655  38.8605498 121.5293154  85.2479449  49.7101053 115.9658847
  85.4301844  48.8922709 116.4286600  86.0712435  49.9268745 115.5283737
  85.5821615  48.6369238 113.2273896  86.1109381  48.1261692 112.6144058
  85.8449834  48.3211768 114.0919429  84.3359848  40.4161171 128.3496714
  83.6600485  40.3155300 129.0199089  85.1587482  40.2600384 128.8132711
  76.0838707  46.6533107 120.9709229  76.6692144  45.9076795 121.1037133
  75.8863546  46.9637064 121.8545893  78.9377363  49.6884355 115.9871672
  78.2687738  50.1730482 115.5035712  78.7990232  49.9353575 116.9015050
  70.6756362  39.2238707 119.6913672  70.7140462  38.6902298 120.4850791
  70.1696655  38.6973913 119.0724650  83.0782631  51.7228098 122.5854330
  83.6300939  51.8859720 123.3503415  83.4188825  52.3132536 121.9134355
  78.0547124  34.0703248 123.1876215  78.1188451  34.9318079 122.7753612
  77.9914245  33.4577250 122.4548573  77.5299397  36.1426380 126.8349249
  78.1571436  35.7603458 127.4486773  76.6727316  35.9240582 127.2004941
  87.9293505  46.5489356 128.4402984  88.4733409  47.1619314 127.9457939
  87.3480350  47.1068934 128.9569997  74.3064940  37.9502810 112.7667604
  74.6018381  37.0413488 112.7134658  73.4052975  37.9290549 112.4448606
  86.2151018  49.6710074 119.5718012  86.0902158  48.8699813 119.0628958
  86.8730109  50.1656267 119.0831982  77.8359187  36.0258806 118.7495152
  77.1145772  36.6394774 118.6102626  78.6252442  36.5616571 118.6711798
  88.2785927  47.4719094 121.1997562  87.3316262  47.3524445 121.1275889
  88.6268700  46.5841592 121.2823824  80.6385500  33.3613233 125.0235804
  81.1619902  33.6075529 125.7862113  80.4197833  34.1933267 124.6038942
  76.0352781  35.6316907 112.8906929  75.7065487  34.7514286 112.7082035
  76.3892152  35.5764576 113.7783318  85.2832360  47.2671810 117.4001915
  85.1357322  46.3388517 117.5809485  86.1085854  47.2891901 116.9158990
  79.1494604  35.9189877 113.2582407  79.4890677  36.4475798 112.5361015
  79.5966725  36.2570283 114.0340973  88.8866482  48.0900369 118.4866787
  89.8113029  47.8843230 118.3491238  88.7181785  47.8416770 119.3956129
  81.8438045  34.3026928 122.7085475  81.5034866  33.5034741 123.1106155
  81.1377051  34.6028639 122.1362308  82.4954517  31.3876240 121.1612798
  83.3180586  30.9136718 121.0391688  82.7392581  32.1666724 121.6611484
  81.1362751  34.4164499 111.4575699  81.8571114  34.7945751 110.9539416
  80.5128056  35.1353375 111.5610677  85.2793874  35.1209648 112.3934032
  85.4957489  36.0034285 112.0922860  84.7987942  34.7295861 111.6639674
  80.0193096  38.0795361 118.9704776  79.8737676  38.3935664 119.8629058
  79.5418299  38.6980261 118.4175675  81.8789479  35.0697909 119.0185666
  81.8651047  34.1739002 118.6817964  82.5961907  35.0768572 119.6523952
  83.7315609  35.5035249 121.0638793  83.4733387  36.4252320 121.0623124
  83.2000650  35.1065683 121.7539257  88.6761798  48.6086036 113.8428879
  88.8498676  48.0432459 113.0902731  89.1690689  49.4086931 113.6608369
  74.4938758  40.6200705 121.9092438  73.9492226  41.3960513 122.0412712
  75.3718108  40.9671510 121.7511559  81.2826375  33.9512289 114.2873236
  81.4042286  33.0228935 114.4864124  80.9928417  33.9650975 113.3751551
  84.1517565  31.6367199 117.4239956  84.1739262  31.7006533 116.4691935
  84.5685624  30.7971708 117.6180462  94.5301189  41.3722459 115.4619178
  94.9732335  40.6229784 115.0638302  93.6527700  41.3632595 115.0792910
  89.6636971  47.9252800 110.9425777  90.3587875  48.5459493 111.1613092
  90.0060121  47.0748152 111.2178155  75.2804780  39.7470601 124.8022594
  74.5386516  39.8953237 125.3887225  74.9597524  40.0078867 123.9389344
  91.5628394  45.3752506 112.4713108  92.0879718  45.7139779 111.7462428
  91.4750746  44.4399521 112.2876242  83.2248442  49.2886580 124.6002984
  83.5335569  49.0435726 125.4725684  84.0223924  49.4933218 124.1121855
  83.2469054  51.4424489 116.8308361  82.8074045  50.9500868 117.5241218
  83.9977171  50.8997457 116.5900436  75.7261393  47.6336030 116.8332989
  76.5519413  47.3339802 116.4531633  75.3755445  46.8643653 117.2822778
  80.6942927  46.9862498 118.9030663  80.0722936  46.3233203 118.6032890
  81.3647794  47.0123630 118.2204310  73.9269998  45.5522357 117.7921923
  73.0901907  45.1244531 117.6105924  73.8993644  45.7454800 118.7292714
  80.7667454  35.4644286 128.4963169  80.8155610  36.3406409 128.1140938
  81.3089968  34.9221679 127.9234812  91.2522300  46.0085410 127.7764306
  90.4617843  45.9909548 127.2368805  91.0155654  46.5473703 128.5313342
  91.3720175  42.8577876 125.0897034  91.4218180  42.6927883 126.0312557
  91.2634098  41.9905135 124.6994915  80.2556434  45.5366422 112.3789123
  80.4044554  46.2201886 111.7255796  81.0622877  45.5171512 112.8938579
  88.6623937  38.8408804 126.4056341  89.5633800  38.7015269 126.1140339
  88.7371912  39.0063259 127.3454518  82.9966743  36.2175659 125.2509527
  82.1270052  36.5109225 124.9792116  83.2326223  36.8016104 125.9716791
  92.8738372  45.2774818 125.3339056  92.5823180  45.6404798 126.1702517
  92.2610503  44.5641826 125.1552388  94.0734054  42.8427697 117.8541626
  94.9080945  43.2817501 118.0179186  94.2093183  42.3666351 117.0349872
  91.1225560  40.4007432 123.8019114  91.5979682  40.5935078 122.9937965
  90.1991125  40.4566618 123.5562497  78.0109067  41.5631599 113.3850192
  77.7655108  40.6593929 113.5830402  78.1804981  41.5648750 112.4429670
  85.7005776  32.4355276 122.7674948  86.2187720  33.1716303 122.4421436
  85.3460909  32.7419269 123.6021707  77.2804714  37.2959957 110.8836354
  76.5873959  37.3704312 110.2276390  77.0356466  36.5320301 111.4057870
  85.9518371  28.8555558 118.2875844  86.2320124  28.1878747 118.9136271
  86.7368977  29.0484654 117.7750508  83.7551839  48.0314552 109.8500871
  83.1825806  48.6504739 109.3971342  84.3284633  48.5813914 110.3840793
  89.8227229  37.2773192 122.0347419  90.7744652  37.3771290 122.0559643
  89.6530679  36.4851461 122.5445504  87.8441608  34.3628775 122.2206820
  87.2491540  34.6433788 121.5253309  87.5591305  34.8522676 122.9923561
  86.9749099  48.3151702 110.9809453  87.9079772  48.2497264 111.1842328
  86.8872312  49.1507969 110.5223986  89.6037116  47.6317573 107.9413400
  89.5250747  47.2977436 108.8349158  90.4246782  48.1239341 107.9404873
  92.3015307  40.4979312 121.1489719  92.2691627  39.5595313 121.3349403
  92.9115930  40.5763349 120.4155544  84.1398638  39.3675365 107.1916923
  85.0857742  39.2381573 107.2605341  83.7612883  38.6290027 107.6686351
  92.4509795  37.2890355 121.1948002  91.9348844  36.5048812 121.0077931
  93.3349744  36.9609072 121.3594522  90.1120522  31.0331371 117.1543815
  89.9145343  30.7246459 118.0387147  90.7220228  31.7593010 117.2841745
  98.1191857  41.5595319 120.2895756  98.8495245  41.2980607 120.8503459
  97.5098802  40.8224041 120.3297824  96.2007154  39.7003181 120.8870207
  95.4740317  39.5659146 120.2786699  95.7854441  40.0080010 121.6926925
  84.0237330  43.4193111 128.6517580  84.9440340  43.5971710 128.8457627
  83.9886913  42.4749156 128.4997279  82.3241555  37.2925341 107.1271808
  81.4173010  36.9958454 107.2034522  82.6017536  36.9955159 106.2606095
  73.2419495  38.6131705 117.5770855  72.9222279  37.7597013 117.2845229
  72.6952923  38.8280283 118.3328822  77.0199403  41.3294146 121.2940361
  77.2385412  42.2611254 121.3128395  77.4325176  40.9702120 122.0795165
  83.9403620  31.8362231 113.2816050  83.1304349  31.4909316 113.6571296
  84.6288037  31.5269775 113.8703661  85.8694169  30.9140278 114.9040346
  86.4225207  31.3335731 115.5630369  86.1064255  29.9876026 114.9463302
  81.8927268  36.9027351 130.6843110  81.7923995  37.8521708 130.6155201
  81.6748810  36.5745590 129.8119180  81.0940339  34.1512277 107.2683788
  81.9559503  34.4767175 107.5279605  81.2790683  33.3643772 106.7556853
  73.1107755  42.2334616 119.5463976  72.4171227  41.8188569 119.0333931
  73.8580746  42.2755153 118.9497395  89.2472976  33.0240803 114.4119011
  88.6671645  33.6825607 114.0297063  88.9808908  32.2018148 114.0006428
  87.6976542  32.4245861 116.6140331  88.1976321  32.5362395 115.8054650
  88.3412150  32.1206914 117.2541139  81.7558538  40.3324490 129.5008172
  81.2725620  41.1324850 129.7072061  81.8419477  40.3432435 128.5475616
  75.0244498  42.1652870 117.4229991  75.0015186  42.2640557 116.4711874
  75.3345134  43.0118021 117.7447157  77.6831875  44.2229025 121.5376606
  78.6375129  44.1912967 121.4706537  77.4844399  43.7619649 122.3526831
  78.2731258  42.7930141 124.1047403  79.0924147  43.2874220 124.1282241
  78.5468065  41.8762109 124.0764971  88.0297854  35.1840893 113.4675359
  87.1423709  35.4690544 113.2495554  88.4451843  35.0234657 112.6202636
  91.3812390  35.2087414 117.1829698  92.1572780  35.6983867 117.4554315
  90.6560524  35.6345469 117.6401568  93.8184949  35.9215034 118.2403639
  94.4129439  35.6810770 117.5296947  93.8911532  35.2022164 118.8677175
  76.0382104  49.7648644 118.5546803  75.9036572  49.0049045 117.9884802
  75.6214167  50.4889544 118.0875592  87.1741067  44.9485568 107.5623379
  87.8776917  45.1535571 108.1781034  86.4503716  45.5162330 107.8272462
  88.0038878  40.6995429 113.6825649  87.9474079  41.1563981 112.8433281
  88.5567220  39.9386114 113.5048492  91.8143683  36.4885161 114.5075768
  91.5580618  36.0881797 115.3383976  91.1896552  37.2028955 114.3825908
  96.1256021  39.2281234 117.0147060  95.5655579  39.2974424 117.7878622
  95.5199525  39.0522219 116.2946556  79.1951230  50.6617962 118.7665246
  79.0783614  51.6063394 118.6643936  78.3743676  50.3591523 119.1551045
  89.0827765  45.3868097 109.6121839  89.9173369  44.9549296 109.4299314
  88.9212108  45.2150111 110.5398733  88.7373657  41.8900211 110.9778178
  88.6822461  41.7244482 110.0366622  88.1119712  42.5976243 111.1340368
  73.5266172  37.1268275 124.8039600  74.1725035  36.6167229 125.2926825
  73.3183323  37.8636957 125.3783026  86.0519564  44.1949122 130.3031741
  86.9210724  44.3689775 129.9418376  85.5726316  45.0143539 130.1807470
  82.0469782  31.3908320 110.5563497  82.0348452  32.3350159 110.7131767
  82.9393204  31.2078465 110.2622958  80.2205744  51.3146223 121.9821175
  81.1232991  51.3469834 122.2987669  79.9943114  50.3846674 121.9967510
  81.9759346  50.0677210 118.6431253  81.0254977  50.0679072 118.5295625
  82.2791832  49.3209945 118.1267288  85.8621902  27.9851096 114.8109433
  85.0954298  27.4309583 114.9566116  86.2732607  28.0572965 115.6723585
  77.8663663  34.2735892 128.9014615  78.7295124  33.9172697 129.1117939
  77.2929074  33.9349787 129.5890019  97.7112040  55.9037748 119.7077016
  98.3490450  55.7844496 119.0040356  97.5932883  56.8518592 119.7664968
  94.5201746  55.8565176 119.6438540  94.1820258  55.7406241 118.7559075
  95.3891514  55.4556342 119.6239546  90.3788562  57.7100653 115.6335431
  89.8153427  57.6190590 114.8651719  90.2640957  56.8900557 116.1137924
  95.0021529  57.0100028 125.6024746  94.9910170  56.6152826 124.7305249
  95.1642169  56.2766101 126.1958517  87.9252994  59.2051844 118.4719652
  88.7174286  58.8642669 118.0565951  88.1649644  59.3146820 119.3921805
  95.9588120  61.3771621 110.9449896  95.3076100  61.9625701 110.5583910
  96.7532483  61.9077815 111.0044934  89.8843748  58.4660758 111.3437030
  90.6574624  57.9189745 111.2049906  90.2369147  59.3305007 111.5551492
  91.7228790  59.7937140 124.5503930  91.4318656  60.6982771 124.4350596
  92.3585775  59.8353668 125.2647999  92.6484997  57.1713988 121.1405289
  93.2448569  56.9470011 120.4262252  92.7059969  56.4298734 121.7430737
  92.2210025  54.6253424 108.9755480  92.4735546  54.1034945 108.2138943
  91.2834585  54.4619569 109.0782164  97.2653308  53.6289202 116.7830224
  98.0516398  53.2108625 116.4320641  97.5292013  54.5335294 116.9511872
  97.4363386  59.0662052 111.4818880  96.8009219  59.1396679 112.1939785
  97.1060792  59.6555651 110.8037960 102.6661735  53.5664435 117.6863202
 103.3986907  52.9963652 117.9201032 101.9101091  53.1786036 118.1269708
  91.9406314  56.5281530 111.1779855  91.8242572  55.8526433 111.8460940
  92.0508574  56.0413904 110.3612008  94.2837855  55.9891677 114.8826545
  93.9196062  55.4622298 115.5939466  95.1404971  55.5990146 114.7093030
 100.1887156  47.2786009 122.1457811  99.8570481  48.1481420 121.9219026
  99.5932769  46.9622293 122.8251841  93.9243342  51.0181577 109.8787893
  94.0917744  51.8861813 110.2458364  93.7340511  51.1808858 108.9549182
  96.6818675  59.4798555 121.5453723  96.3819398  60.3823594 121.4369531
  96.3369735  59.2130739 122.3974876  90.1331157  55.9312352 117.5790428
  89.2081653  55.7988566 117.7868120  90.3815570  56.7106572 118.0760370
 100.0815819  51.9981096 119.2251161  99.1732696  51.9296504 118.9309922
 100.0303415  52.4753041 120.0532986  93.9032563  53.4739234 110.8634560
  93.7832188  53.9196285 111.7020040  93.2085151  53.8224552 110.3048098
  87.4939968  55.5745626 118.4134217  87.6232349  55.8280105 119.3273629
  86.8137419  56.1673334 118.0938872  91.6639455  66.2442876 114.5124691
  91.5863485  67.1950701 114.5913172  91.0601099  65.8988748 115.1699617
  94.1556685  53.4170741 127.1686058  93.3790019  53.9764661 127.1588923
  94.7947248  53.9027524 127.6900928 101.9477465  50.1997534 121.0029035
 101.3051846  50.4930067 120.3568829 101.4432394  50.0850454 121.8082231
  99.6017629  53.9460707 111.6914894 100.5135485  54.1788094 111.5162591
  99.0927276  54.5297751 111.1289973  92.4103057  56.2256195 126.7304025
  93.1517742  56.7641239 126.4538849  91.7040043  56.8522483 126.8875577
  97.8858397  58.3685335 125.3276187  98.2941753  57.9267746 124.5830819
  97.1635658  57.7937963 125.5810379  94.2389467  53.3057942 122.7009743
  95.0850662  53.7297355 122.8444392  94.1788105  52.6491566 123.3948307
  98.2087211  58.9286526 119.0828475  97.5796074  59.0932240 118.3804543
  97.8212874  59.3428135 119.8539439 102.0876443  59.8640964 116.4372839
 101.4027481  60.2439865 115.8869872 102.1720293  60.4736290 117.1704787
  97.3888912  50.9662310 124.3590917  97.1449844  51.7204371 123.8225193
  97.6648843  51.3447658 125.1938164  99.3427375  57.5100923 123.0368183
  99.5544270  58.1532682 122.3602564  99.2957123  56.6763239 122.5690113
  96.9453604  50.1218743 119.9404755  96.0838083  50.4199997 120.2321492
  96.9716039  50.3389142 119.0085787  93.7615173  58.6660934 116.3478561
  94.2253519  58.9448637 115.5583183  93.4971971  57.7644378 116.1651651
  90.6539254  58.2132415 119.2858324  91.2240611  58.6419684 118.6475808
  91.2447366  57.9315000 119.9842509  92.6984059  54.7884086 113.1568126
  93.4008103  55.2405130 113.6242052  92.3664688  54.1467905 113.7848019
  91.1464421  53.3795843 127.5319335  90.5163081  54.0612124 127.7654732
  91.0400509  53.2678924 126.5872473  86.4409393  53.0467639 118.4585259
  85.6508447  53.3025167 117.9825370  86.9320641  53.8615977 118.5637300
 100.4573203  60.3872878 121.2090540 101.2790647  59.9853065 120.9273222
 100.4535606  60.2841112 122.1606656  88.3924139  53.4112218 115.4168736
  87.5955302  53.5230912 115.9352232  88.1649731  53.7498870 114.5509626
  94.2229806  59.9356921 123.3651251  94.2874239  60.3977329 124.2009422
  93.5140730  59.3054286 123.4933560  84.7247096  53.2998129 120.8900250
  84.9755135  54.1845139 121.1557826  85.2606645  53.1202731 120.1175342
 108.5479196  56.7311626 117.5575512 107.7942904  56.1619025 117.4019516
 108.6826737  56.6974291 118.5046146  93.9377824  61.6025029 113.2330231
  93.8023499  62.4476565 113.6615079  94.4787637  61.8044306 112.4696165
  90.4245164  47.6816609 129.8944586  90.0312109  47.1282807 130.5692230
  91.2411304  47.9927187 130.2851104  87.3907221  59.1200467 113.8058156
  87.9031742  59.9143717 113.9563721  88.0429934  58.4226757 113.7391757
  89.2002106  62.2366223 115.8880909  89.3768734  63.1584188 115.7001893
  89.9958940  61.9224642 116.3175289  93.3413125  49.0974488 127.4864843
  94.0822838  49.6981641 127.4069305  93.5731047  48.3552126 126.9282885
  88.4854463  54.2830855 125.7643072  88.3707978  53.3816112 126.0650171
  87.6298980  54.5294552 125.4127889  95.5646300  62.2248595 127.3630573
  95.1210155  61.4384974 127.0451477  96.2263514  62.4127746 126.6974464
  90.3233422  63.7544397 121.8891251  90.8740847  63.6261460 121.1168245
  89.4844897  64.0539286 121.5386144  97.6627538  62.5051395 125.3911974
  97.6446014  63.3260276 124.8992243  98.5847458  62.3805470 125.6162115
  94.1200593  60.0195525 126.2335483  94.6528929  59.2583813 126.0034791
  93.5914674  59.7269177 126.9759637  97.2870288  45.1255591 121.7629124
  96.9434557  46.0157232 121.6868235  97.6549250  44.9357248 120.8998709
  85.3556138  57.4489121 114.5817726  86.1931360  57.8586129 114.3651434
  85.5334406  56.5088563 114.5517920  97.2520570  55.1164202 110.2701559
  96.7367194  55.8868806 110.5089947  96.9797879  54.4429338 110.8934621
  94.8367681  49.9613903 115.3286798  93.9809278  49.5720753 115.1492437
  95.2494633  50.0405863 114.4686583  96.3666828  47.4960246 119.7278358
  95.8631624  47.4590381 118.9146163  96.6597435  48.4052989 119.7875014
  92.6109714  47.5798976 118.7344539  93.4762711  47.3841784 118.3750429
  92.6787223  47.3509327 119.6613896 102.2254844  57.8696556 112.2054733
 101.4484287  57.5307716 111.7609895 102.9046325  57.8749180 111.5309698
  97.0406873  52.9891294 112.0961341  96.7357009  53.3037443 112.9471484
  97.9937316  53.0672714 112.1388674  95.4853305  59.1481517 113.7454295
  94.9574667  58.4134277 113.4327532  94.9840808  59.9256194 113.4994263
 100.4646151  57.3430538 118.8621341  99.8069826  58.0329799 118.9501470
 101.2686551  57.7326970 119.2055327  90.2172033  49.8101183 116.1060906
  90.7915785  49.5876365 115.3734099  90.8043015  49.8789878 116.8589507
  99.2751610  55.6974910 116.9125283  99.7883492  56.3304902 117.4146992
  99.9252834  55.0976106 116.5468643  90.5441620  51.8405645 110.1256791
  89.7078932  52.1780331 110.4466066  90.4046390  51.7054624 109.1883928
  92.5194701  46.6842432 114.8335976  91.8659113  46.3691450 114.2092590
  92.4775175  46.0618173 115.5595798  93.6305905  56.9661727 106.7489268
  92.7232967  56.7350981 106.9480417  94.1276937  56.1699347 106.9363249
  96.5373984  65.6759235 109.6685954  95.8635683  65.9790931 110.2770912
  96.9239806  66.4788315 109.3191411  95.7532441  53.1724366 119.1583623
  94.8355002  53.3939313 119.0005311  96.1692585  53.2470676 118.2995331
  96.5367489  54.5715782 114.2886303  97.2839308  55.0837179 113.9793425
  96.8059078  54.2499834 115.1490697  94.8094139  57.0674322 111.2713258
  93.9005358  56.7833355 111.3685727  94.8389223  57.4873401 110.4116565
 100.0413406  60.6780912 115.0404425  99.5875733  59.8371822 115.0969616
  99.4107373  61.3142310 115.3779205  98.9846326  51.6072898 116.2705093
  98.2469083  51.0950284 116.6015335  99.2373099  51.1673279 115.4588370
  98.4846346  62.5157409 115.9754243  98.7769320  63.0762466 115.2566609
  98.9944966  62.8085970 116.7307403  99.0857953  44.3849150 116.8646862
  99.3916830  43.5246513 116.5772777  99.8110558  44.9766770 116.6645856
  85.3782309  54.7879836 115.2528460  85.1806709  54.1949197 114.5279526
  84.8228973  54.4832047 115.9704399  93.3579033  54.6802943 117.3723053
  93.4127643  53.7276779 117.2965530  92.5470235  54.8362382 117.8564351
  94.5070227  58.6083066 108.6101336  94.0689657  57.8918925 108.1506974
  95.2480668  58.8359181 108.0486428  91.2971393  53.2980003 115.1313432
  90.4839258  53.5974173 115.5378624  91.7930387  52.9035691 115.8487914
  93.4479971  63.2937760 117.0647697  93.4056150  63.5198606 116.1356229
  94.3642670  63.0601134 117.2133498  96.8945605  53.7621827 123.9628326
  97.2494992  53.9893300 124.8222792  97.5417736  54.0940204 123.3405581
 102.6243342  56.8840263 114.6677655 102.4861240  57.0741859 113.7398844
 102.2679560  57.6459646 115.1245706  90.7885468  50.8698358 120.7474667
  91.4284847  50.7287117 120.0497630  89.9562998  50.5832872 120.3713269
 102.6512721  58.9516790 119.6788926 103.0849228  58.8592079 120.5271980
 103.3644302  58.9274291 119.0408942  91.5645772  60.1700789 116.8609659
  92.3586370  59.6751109 116.6592234  90.8537464  59.6418652 116.4977365
  96.3840616  62.5518884 121.2122027  96.4377638  63.1209820 121.9799743
  95.5155397  62.7220769 120.8476064  87.8728535  54.3143870 112.9369412
  86.9426123  54.2528326 113.1539374  87.9686007  53.7919823 112.1406053
  87.7914084  50.8398683 115.5247654  88.0520901  51.7544016 115.4156814
  88.6131256  50.3723126 115.6744267  89.2639009  52.2536440 122.6946478
  89.9362063  52.0453802 122.0459127  88.4368796  52.0558526 122.2551711
 103.5128271  58.9940491 122.2121812 103.7064161  59.8986301 122.4581087
 103.4128889  58.5347910 123.0460397  95.1664581  48.8798381 124.7112139
  94.5192496  49.5788331 124.6176616  95.9365597  49.3134525 125.0788387
  98.5743379  59.1447233 127.7862692  98.4228886  58.9157785 126.8692776
  98.5648059  60.1017835 127.7994037  95.3428716  56.7179146 122.7708959
  96.2720776  56.8690306 122.5977926  94.9219746  56.8063167 121.9157605
  94.1417048  60.7429811 120.5407496  94.0028133  60.3748595 121.4133435
  93.3531644  61.2577450 120.3691454  94.7365200  65.8438907 111.8833033
  94.9116955  65.3726950 112.6978656  94.0497988  66.4704673 112.1114294
  95.6922263  60.1211413 117.9296334  95.3572095  60.0812183 118.8253984
  95.1926208  59.4556129 117.4566744  89.6666507  55.5279043 123.4548915
  89.5286305  54.7959282 124.0560454  90.5771430  55.4387943 123.1733103
  98.6281454  57.4667448 108.2033394  98.0110625  56.7414276 108.1066447
  98.1597943  58.2276808 107.8600468  92.2948807  55.2399003 122.9432595
  93.0048426  54.5992195 122.9019213  92.2518115  55.4911898 123.8658776
 100.2835586  62.1766356 125.8639174 100.2248132  61.4925576 125.1969757
 100.6855104  62.9185346 125.4119800  91.0077741  52.2264221 124.7628235
  90.4715098  51.7754959 125.4149831  90.4194450  52.3610129 124.0198699
  89.3026285  68.9928270 118.6572893  89.5422883  69.6246794 119.3351912
  88.4595481  68.6416310 118.9438252  90.4180000  51.6852872 107.3254698
  89.5409467  51.5641673 106.9616945  90.8937753  50.8938950 107.0733587
 100.2852993  60.1405940 124.0953154  99.3979772  59.8031862 124.2179553
 100.8551544  59.4088971 124.3321919  81.9382140  56.4730032 117.4196205
  82.6253180  56.1591762 116.8317221  81.7830269  57.3771396 117.1463457
  86.7416863  51.3620228 121.8481229  86.6575051  50.7545898 121.1131639
  85.9199569  51.8529247 121.8490725  93.8154147  64.8007392 121.0614397
  93.7424318  65.6062364 121.5733702  93.3731540  64.9999358 120.2362419
  93.6043926  64.0379162 114.5717219  92.8211448  64.5800842 114.6655443
  94.3036671  64.5553142 114.9711460  96.9140576  49.8473792 117.2151424
  97.4109276  49.0943754 116.8952494  96.1427558  49.8838108 116.6494633
 104.7670334  55.5514157 118.8569716 104.7560210  56.4338873 118.4863649
 103.8987713  55.1985708 118.6624253  96.2752830  64.6994226 123.2172556
  96.9880802  65.3341691 123.1448457  95.7842859  64.7958092 122.4012558
  97.9970357  58.6045479 114.7889847  97.0626636  58.7246941 114.6194552
  98.1747026  57.7017946 114.5249857  93.4975545  51.9891175 116.9423109
  93.1273333  51.4362215 117.6304014  93.9934638  51.3849308 116.3898109
 101.3842908  54.4462798 115.3239882 101.8503361  55.2790790 115.2500184
 101.8350409  53.9807780 116.0285140  91.3264744  62.4488670 124.0378127
  92.0274203  63.0825153 124.1907521  90.8559859  62.7903401 123.2773766
  99.4519140  60.7906620 112.3226034  99.7278983  60.6763214 113.2319908
  98.5823638  60.3924104 112.2838207  99.3559571  46.8143385 119.3630783
  98.4422651  47.0447612 119.5312990  99.7852673  46.8981829 120.2144815
  99.1266030  55.0033277 121.8630677  98.4737480  55.2509185 121.2083130
  99.5046410  54.1897415 121.5293154  96.0873204  65.0392970 115.9658847
  96.2695598  64.2214626 116.4286600  96.9106190  65.2560663 115.5283737
  96.4215369  63.9661156 113.2273896  96.9503135  63.4553610 112.6144058
  96.6843589  63.6503686 114.0919429  95.1753603  55.7453088 128.3496714
  94.4994240  55.6447218 129.0199089  95.9981237  55.5892302 128.8132711
  86.9232462  61.9825025 120.9709229  87.5085899  61.2368713 121.1037133
  86.7257300  62.2928982 121.8545893  89.7771117  65.0176272 115.9871672
  89.1081492  65.5022400 115.5035712  89.6383987  65.2645493 116.9015050
  81.5150117  54.5530625 119.6913672  81.5534216  54.0194216 120.4850791
  81.0090409  54.0265831 119.0724650  93.9176386  67.0520016 122.5854330
  94.4694694  67.2151637 123.3503415  94.2582579  67.6424454 121.9134355
  88.8940879  49.3995166 123.1876215  88.9582205  50.2609996 122.7753612
  88.8307999  48.7869167 122.4548573  88.3693151  51.4718298 126.8349249
  88.9965190  51.0895375 127.4486773  87.5121070  51.2532500 127.2004941
  98.7687260  61.8781273 128.4402984  99.3127164  62.4911232 127.9457939
  98.1874105  62.4360852 128.9569997  85.1458694  53.2794727 112.7667604
  85.4412135  52.3705406 112.7134658  84.2446730  53.2582467 112.4448606
  97.0544773  65.0001991 119.5718012  96.9295912  64.1991731 119.0628958
  97.7123864  65.4948185 119.0831982  88.6752941  51.3550724 118.7495152
  87.9539527  51.9686691 118.6102626  89.4646197  51.8908489 118.6711798
  99.1179681  62.8011011 121.1997562  98.1710017  62.6816363 121.1275889
  99.4662454  61.9133509 121.2823824  91.4779255  48.6905150 125.0235804
  92.0013656  48.9367447 125.7862113  91.2591588  49.5225185 124.6038942
  86.8746536  50.9608825 112.8906929  86.5459242  50.0806204 112.7082035
  87.2285906  50.9056494 113.7783318  96.1226115  62.5963728 117.4001915
  95.9751077  61.6680435 117.5809485  96.9479608  62.6183818 116.9158990
  89.9888359  51.2481795 113.2582407  90.3284431  51.7767716 112.5361015
  90.4360479  51.5862201 114.0340973  99.7260236  63.4192286 118.4866787
 100.6506784  63.2135148 118.3491238  99.5575540  63.1708687 119.3956129
  92.6831800  49.6318845 122.7085475  92.3428620  48.8326658 123.1106155
  91.9770806  49.9320556 122.1362308  93.3348271  46.7168158 121.1612798
  94.1574341  46.2428636 121.0391688  93.5786335  47.4958642 121.6611484
  91.9756506  49.7456416 111.4575699  92.6964868  50.1237669 110.9539416
  91.3521810  50.4645293 111.5610677  96.1187629  50.4501565 112.3934032
  96.3351243  51.3326203 112.0922860  95.6381696  50.0587779 111.6639674
  90.8586850  53.4087278 118.9704776  90.7131431  53.7227581 119.8629058
  90.3812054  54.0272179 118.4175675  92.7183233  50.3989826 119.0185666
  92.7044802  49.5030920 118.6817964  93.4355661  50.4060490 119.6523952
  94.5709364  50.8327167 121.0638793  94.3127142  51.7544237 121.0623124
  94.0394404  50.4357601 121.7539257  99.5155553  63.9377954 113.8428879
  99.6892430  63.3724376 113.0902731 100.0084444  64.7378849 113.6608369
  85.3332512  55.9492623 121.9092438  84.7885980  56.7252431 122.0412712
  86.2111862  56.2963427 121.7511559  92.1220129  49.2804207 114.2873236
  92.2436040  48.3520853 114.4864124  91.8322171  49.2942893 113.3751551
  94.9911319  46.9659117 117.4239956  95.0133016  47.0298450 116.4691935
  95.4079378  46.1263626 117.6180462 105.3694944  56.7014377 115.4619178
 105.8126090  55.9521702 115.0638302 104.4921454  56.6924513 115.0792910
 100.5030725  63.2544718 110.9425777 101.1981630  63.8751411 111.1613092
 100.8453875  62.4040069 111.2178155  86.1198534  55.0762519 124.8022594
  85.3780270  55.2245154 125.3887225  85.7991279  55.3370785 123.9389344
 102.4022148  60.7044424 112.4713108 102.9273472  61.0431696 111.7462428
 102.3144501  59.7691439 112.2876242  94.0642197  64.6178497 124.6002984
  94.3729323  64.3727644 125.4725684  94.8617679  64.8225136 124.1121855
  94.0862809  66.7716407 116.8308361  93.6467799  66.2792786 117.5241218
  94.8370926  66.2289375 116.5900436  86.5655148  62.9627948 116.8332989
  87.3913168  62.6631720 116.4531633  86.2149200  62.1935570 117.2822778
  91.5336681  62.3154416 118.9030663  90.9116690  61.6525121 118.6032890
  92.2041548  62.3415548 118.2204310  84.7663753  60.8814274 117.7921923
  83.9295661  60.4536449 117.6105924  84.7387398  61.0746718 118.7292714
  91.6061209  50.7936204 128.4963169  91.6549364  51.6698327 128.1140938
  92.1483723  50.2513597 127.9234812 102.0916054  61.3377327 127.7764306
 101.3011598  61.3201466 127.2368805 101.8549409  61.8765621 128.5313342
 102.2113929  58.1869794 125.0897034 102.2611934  58.0219801 126.0312557
 102.1027853  57.3197053 124.6994915  91.0950188  60.8658339 112.3789123
  91.2438308  61.5493804 111.7255796  91.9016631  60.8463429 112.8938579
  99.5017692  54.1700722 126.4056341 100.4027554  54.0307187 126.1140339
  99.5765666  54.3355177 127.3454518  93.8360497  51.5467576 125.2509527
  92.9663806  51.8401143 124.9792116  94.0719977  52.1308021 125.9716791
 103.7132126  60.6066735 125.3339056 103.4216934  60.9696716 126.1702517
 103.1004257  59.8933743 125.1552388 104.9127808  58.1719615 117.8541626
 105.7474700  58.6109419 118.0179186 105.0486937  57.6958268 117.0349872
 101.9619314  55.7299350 123.8019114 102.4373436  55.9226996 122.9937965
 101.0384880  55.7858536 123.5562497  88.8502821  56.8923517 113.3850192
  88.6048863  55.9885847 113.5830402  89.0198736  56.8940667 112.4429670
  96.5399531  47.7647193 122.7674948  97.0581475  48.5008220 122.4421436
  96.1854664  48.0711187 123.6021707  88.1198469  52.6251875 110.8836354
  87.4267713  52.6996230 110.2276390  87.8750220  51.8612218 111.4057870
  96.7912125  44.1847476 118.2875844  97.0713879  43.5170665 118.9136271
  97.5762732  44.3776572 117.7750508  94.5945594  63.3606470 109.8500871
  94.0219561  63.9796657 109.3971342  95.1678387  63.9105832 110.3840793
 100.6620983  52.6065110 122.0347419 101.6138406  52.7063208 122.0559643
 100.4924434  51.8143378 122.5445504  98.6835363  49.6920693 122.2206820
  98.0885295  49.9725706 121.5253309  98.3985060  50.1814594 122.9923561
  97.8142853  63.6443620 110.9809453  98.7473526  63.5789182 111.1842328
  97.7266066  64.4799887 110.5223986 100.4430870  62.9609490 107.9413400
 100.3644502  62.6269354 108.8349158 101.2640537  63.4531258 107.9404873
 103.1409061  55.8271230 121.1489719 103.1085381  54.8887230 121.3349403
 103.7509685  55.9055266 120.4155544  94.9792392  54.6967283 107.1916923
  95.9251497  54.5673491 107.2605341  94.6006637  53.9581944 107.6686351
 103.2903550  52.6182273 121.1948002 102.7742598  51.8340730 121.0077931
 104.1743498  52.2900990 121.3594522 100.9514277  46.3623289 117.1543815
 100.7539098  46.0538377 118.0387147 101.5613982  47.0884928 117.2841745
 108.9585611  56.8887236 120.2895756 109.6889000  56.6272525 120.8503459
 108.3492557  56.1515958 120.3297824 107.0400908  55.0295099 120.8870207
 106.3134072  54.8951064 120.2786699 106.6248195  55.3371928 121.6926925
  94.8631085  58.7485029 128.6517580  95.7834094  58.9263628 128.8457627
  94.8280668  57.8041074 128.4997279  93.1635309  52.6217259 107.1271808
  92.2566765  52.3250372 107.2034522  93.4411290  52.3247077 106.2606095
  84.0813250  53.9423622 117.5770855  83.7616034  53.0888931 117.2845229
  83.5346678  54.1572201 118.3328822  87.8593157  56.6586063 121.2940361
  88.0779167  57.5903171 121.3128395  88.2718931  56.2994038 122.0795165
  94.7797375  47.1654149 113.2816050  93.9698103  46.8201234 113.6571296
  95.4681792  46.8561692 113.8703661  96.7087923  46.2432196 114.9040346
  97.2618962  46.6627649 115.5630369  96.9458010  45.3167944 114.9463302
  92.7321022  52.2319269 130.6843110  92.6317749  53.1813626 130.6155201
  92.5142564  51.9037508 129.8119180  91.9334094  49.4804194 107.2683788
  92.7953258  49.8059093 107.5279605  92.1184438  48.6935690 106.7556853
  83.9501510  57.5626534 119.5463976  83.2564981  57.1480487 119.0333931
  84.6974501  57.6047070 118.9497395 100.0866730  48.3532721 114.4119011
  99.5065399  49.0117525 114.0297063  99.8202663  47.5310065 114.0006428
  98.5370297  47.7537778 116.6140331  99.0370075  47.8654313 115.8054650
  99.1805905  47.4498831 117.2541139  92.5952292  55.6616408 129.5008172
  92.1119374  56.4616768 129.7072061  92.6813232  55.6724353 128.5475616
  85.8638252  57.4944788 117.4229991  85.8408940  57.5932475 116.4711874
  86.1738889  58.3409938 117.7447157  88.5225630  59.5520943 121.5376606
  89.4768884  59.5204885 121.4706537  88.3238154  59.0911566 122.3526831
  89.1125012  58.1222059 124.1047403  89.9317901  58.6166137 124.1282241
  89.3861820  57.2054027 124.0764971  98.8691608  50.5132811 113.4675359
  97.9817463  50.7982462 113.2495554  99.2845597  50.3526574 112.6202636
 102.2206144  50.5379332 117.1829698 102.9966535  51.0275784 117.4554315
 101.4954279  50.9637386 117.6401568 104.6578703  51.2506951 118.2403639
 105.2523194  51.0102687 117.5296947 104.7305287  50.5314082 118.8677175
  86.8775859  65.0940562 118.5546803  86.7430327  64.3340963 117.9884802
  86.4607921  65.8181462 118.0875592  98.0134822  60.2777486 107.5623379
  98.7170672  60.4827488 108.1781034  97.2897471  60.8454248 107.8272462
  98.8432632  56.0287347 113.6825649  98.7867833  56.4855898 112.8433281
  99.3960975  55.2678032 113.5048492 102.6537438  51.8177079 114.5075768
 102.3974372  51.4173715 115.3383976 102.0290306  52.5320873 114.3825908
 106.9649776  54.5573152 117.0147060 106.4049334  54.6266341 117.7878622
 106.3593279  54.3814137 116.2946556  90.0344985  65.9909879 118.7665246
  89.9177369  66.9355312 118.6643936  89.2137431  65.6883441 119.1551045
  99.9221519  60.7160015 109.6121839 100.7567123  60.2841213 109.4299314
  99.7605862  60.5442029 110.5398733  99.5767411  57.2192128 110.9778178
  99.5216215  57.0536400 110.0366622  98.9513467  57.9268161 111.1340368
  84.3659926  52.4560193 124.8039600  85.0118790  51.9459147 125.2926825
  84.1577077  53.1928874 125.3783026  96.8913319  59.5241040 130.3031741
  97.7604478  59.6981692 129.9418376  96.4120070  60.3435457 130.1807470
  92.8863537  46.7200237 110.5563497  92.8742207  47.6642077 110.7131767
  93.7786959  46.5370383 110.2622958  91.0599499  66.6438141 121.9821175
  91.9626745  66.6761751 122.2987669  90.8336869  65.7138592 121.9967510
  92.8153101  65.3969128 118.6431253  91.8648732  65.3970989 118.5295625
  93.1185587  64.6501862 118.1267288  96.7015656  43.3143014 114.8109433
  95.9348052  42.7601501 114.9566116  97.1126361  43.3864883 115.6723585
  88.7057417  49.6027810 128.9014615  89.5688879  49.2464615 129.1117939
  88.1322828  49.2641704 129.5890019 108.5505794  71.2329666 119.7077016
 109.1884204  71.1136413 119.0040356 108.4326637  72.1810510 119.7664968
 105.3595501  71.1857094 119.6438540 105.0214012  71.0698159 118.7559075
 106.2285269  70.7848259 119.6239546 101.2182316  73.0392571 115.6335431
 100.6547181  72.9482507 114.8651719 101.1034711  72.2192475 116.1137924
 105.8415284  72.3391946 125.6024746 105.8303924  71.9444744 124.7305249
 106.0035923  71.6058018 126.1958517  98.7646748  74.5343762 118.4719652
  99.5568040  74.1934587 118.0565951  99.0043398  74.6438737 119.3921805
 106.7981875  76.7063538 110.9449896 106.1469855  77.2917619 110.5583910
 107.5926238  77.2369733 111.0044934 100.7237502  73.7952675 111.3437030
 101.4968378  73.2481662 111.2049906 101.0762901  74.6596925 111.5551492
 102.5622545  75.1229058 124.5503930 102.2712411  76.0274688 124.4350596
 103.1979529  75.1645585 125.2647999 103.4878752  72.5005906 121.1405289
 104.0842324  72.2761929 120.4262252 103.5453723  71.7590652 121.7430737
 103.0603780  69.9545342 108.9755480 103.3129301  69.4326863 108.2138943
 102.1228339  69.7911487 109.0782164 108.1047063  68.9581120 116.7830224
 108.8910152  68.5400543 116.4320641 108.3685767  69.8627212 116.9511872
 108.2757140  74.3953970 111.4818880 107.6402973  74.4688597 112.1939785
 107.9454547  74.9847569 110.8037960 113.5055490  68.8956353 117.6863202
 114.2380662  68.3255570 117.9201032 112.7494846  68.5077954 118.1269708
 102.7800069  71.8573447 111.1779855 102.6636327  71.1818351 111.8460940
 102.8902329  71.3705821 110.3612008 105.1231610  71.3183595 114.8826545
 104.7589817  70.7914216 115.5939466 105.9798726  70.9282064 114.7093030
 111.0280910  62.6077927 122.1457811 110.6964235  63.4773338 121.9219026
 110.4326524  62.2914211 122.8251841 104.7637097  66.3473494 109.8787893
 104.9311499  67.2153731 110.2458364 104.5734266  66.5100776 108.9549182
 107.5212430  74.8090473 121.5453723 107.2213153  75.7115512 121.4369531
 107.1763489  74.5422656 122.3974876 100.9724911  71.2604270 117.5790428
 100.0475408  71.1280484 117.7868120 101.2209324  72.0398489 118.0760370
 110.9209574  67.3273013 119.2251161 110.0126451  67.2588422 118.9309922
 110.8697169  67.8044958 120.0532986 104.7426317  68.8031152 110.8634560
 104.6225943  69.2488203 111.7020040 104.0478906  69.1516469 110.3048098
  98.3333722  70.9037544 118.4134217  98.4626103  71.1572022 119.3273629
  97.6531174  71.4965252 118.0938872 102.5033210  81.5734794 114.5124691
 102.4257239  82.5242619 114.5913172 101.8994853  81.2280666 115.1699617
 104.9950439  68.7462659 127.1686058 104.2183773  69.3056579 127.1588923
 105.6341002  69.2319442 127.6900928 112.7871220  65.5289452 121.0029035
 112.1445600  65.8221985 120.3568829 112.2826148  65.4142372 121.8082231
 110.4411384  69.2752625 111.6914894 111.3529240  69.5080012 111.5162591
 109.9321031  69.8589669 111.1289973 103.2496812  71.5548112 126.7304025
 103.9911496  72.0933156 126.4538849 102.5433797  72.1814401 126.8875577
 108.7252151  73.6977253 125.3276187 109.1335507  73.2559663 124.5830819
 108.0029413  73.1229880 125.5810379 105.0783221  68.6349860 122.7009743
 105.9244417  69.0589273 122.8444392 105.0181859  67.9783484 123.3948307
 109.0480966  74.2578443 119.0828475 108.4189828  74.4224158 118.3804543
 108.6606628  74.6720053 119.8539439 112.9270198  75.1932881 116.4372839
 112.2421236  75.5731783 115.8869872 113.0114047  75.8028208 117.1704787
 108.2282667  66.2954228 124.3590917 107.9843599  67.0496288 123.8225193
 108.5042597  66.6739576 125.1938164 110.1821129  72.8392840 123.0368183
 110.3938025  73.4824600 122.3602564 110.1350878  72.0055157 122.5690113
 107.7847358  65.4510661 119.9404755 106.9231837  65.7491914 120.2321492
 107.8109793  65.6681060 119.0085787 104.6008928  73.9952851 116.3478561
 105.0647273  74.2740554 115.5583183 104.3365726  73.0936296 116.1651651
 101.4933009  73.5424333 119.2858324 102.0634366  73.9711601 118.6475808
 102.0841121  73.2606918 119.9842509 103.5377814  70.1176004 113.1568126
 104.2401857  70.5697048 113.6242052 103.2058442  69.4759823 113.7848019
 101.9858175  68.7087760 127.5319335 101.3556836  69.3904041 127.7654732
 101.8794263  68.5970842 126.5872473  97.2803148  68.3759557 118.4585259
  96.4902202  68.6317085 117.9825370  97.7714395  69.1907894 118.5637300
 111.2966957  75.7164796 121.2090540 112.1184401  75.3144983 120.9273222
 111.2929360  75.6133030 122.1606656  99.2317893  68.7404136 115.4168736
  98.4349056  68.8522830 115.9352232  99.0043485  69.0790788 114.5509626
 105.0623561  75.2648839 123.3651251 105.1267993  75.7269246 124.2009422
 104.3534485  74.6346204 123.4933560  95.5640851  68.6290047 120.8900250
  95.8148889  69.5137057 121.1557826  96.1000399  68.4494648 120.1175342
 119.3872950  72.0603544 117.5575512 118.6336659  71.4910942 117.4019516
 119.5220492  72.0266209 118.5046146 104.7771578  76.9316946 113.2330231
 104.6417253  77.7768482 113.6615079 105.3181391  77.1336224 112.4696165
 101.2638918  63.0108526 129.8944586 100.8705864  62.4574725 130.5692230
 102.0805058  63.3219105 130.2851104  98.2300976  74.4492385 113.8058156
  98.7425496  75.2435635 113.9563721  98.8823689  73.7518675 113.7391757
 100.0395861  77.5658141 115.8880909 100.2162489  78.4876105 115.7001893
 100.8352694  77.2516560 116.3175289 104.1806879  64.4266405 127.4864843
 104.9216592  65.0273559 127.4069305 104.4124802  63.6844043 126.9282885
  99.3248217  69.6122773 125.7643072  99.2101732  68.7108030 126.0650171
  98.4692735  69.8586469 125.4127889 106.4040055  77.5540513 127.3630573
 105.9603909  76.7676892 127.0451477 107.0657268  77.7419663 126.6974464
 101.1627176  79.0836315 121.8891251 101.7134601  78.9553378 121.1168245
 100.3238652  79.3831204 121.5386144 108.5021293  77.8343313 125.3911974
 108.4839768  78.6552194 124.8992243 109.4241213  77.7097388 125.6162115
 104.9594347  75.3487442 126.2335483 105.4922684  74.5875731 126.0034791
 104.4308428  75.0561094 126.9759637 108.1264042  60.4547508 121.7629124
 107.7828311  61.3449150 121.6868235 108.4943005  60.2649166 120.8998709
  96.1949893  72.7781039 114.5817726  97.0325115  73.1878047 114.3651434
  96.3728160  71.8380481 114.5517920 108.0914325  70.4456119 110.2701559
 107.5760948  71.2160724 110.5089947 107.8191633  69.7721256 110.8934621
 105.6761436  65.2905820 115.3286798 104.8203032  64.9012671 115.1492437
 106.0888388  65.3697781 114.4686583 107.2060582  62.8252164 119.7278358
 106.7025378  62.7882299 118.9146163 107.4991189  63.7344906 119.7875014
 103.4503468  62.9090893 118.7344539 104.3156465  62.7133702 118.3750429
 103.5180977  62.6801245 119.6613896 113.0648599  73.1988474 112.2054733
 112.2878042  72.8599634 111.7609895 113.7440080  73.2041097 111.5309698
 107.8800628  68.3183212 112.0961341 107.5750764  68.6329361 112.9471484
 108.8331070  68.3964631 112.1388674 106.3247060  74.4773435 113.7454295
 105.7968421  73.7426194 113.4327532 105.8234563  75.2548111 113.4994263
 111.3039906  72.6722455 118.8621341 110.6463580  73.3621717 118.9501470
 112.1080305  73.0618887 119.2055327 101.0565787  65.1393101 116.1060906
 101.6309539  64.9168283 115.3734099 101.6436770  65.2081796 116.8589507
 110.1145365  71.0266828 116.9125283 110.6277246  71.6596820 117.4146992
 110.7646589  70.4268024 116.5468643 101.3835375  67.1697562 110.1256791
 100.5472687  67.5072249 110.4466066 101.2440144  67.0346542 109.1883928
 103.3588455  62.0134350 114.8335976 102.7052867  61.6983367 114.2092590
 103.3168929  61.3910091 115.5595798 104.4699660  72.2953645 106.7489268
 103.5626722  72.0642899 106.9480417 104.9670692  71.4991264 106.9363249
 107.3767739  81.0051152 109.6685954 106.7029438  81.3082849 110.2770912
 107.7633561  81.8080233 109.3191411 106.5926195  68.5016284 119.1583623
 105.6748757  68.7231231 119.0005311 107.0086339  68.5762594 118.2995331
 107.3761243  69.9007699 114.2886303 108.1233062  70.4129096 113.9793425
 107.6452833  69.5791752 115.1490697 105.6487893  72.3966240 111.2713258
 104.7399113  72.1125273 111.3685727 105.6782977  72.8165319 110.4116565
 110.8807161  76.0072830 115.0404425 110.4269488  75.1663739 115.0969616
 110.2501128  76.6434228 115.3779205 109.8240080  66.9364816 116.2705093
 109.0862837  66.4242202 116.6015335 110.0766854  66.4965197 115.4588370
 109.3240100  77.8449326 115.9754243 109.6163074  78.4054383 115.2566609
 109.8338721  78.1377887 116.7307403 109.9251708  59.7141068 116.8646862
 110.2310585  58.8538431 116.5772777 110.6504313  60.3058688 116.6645856
  96.2176064  70.1171754 115.2528460  96.0200464  69.5241115 114.5279526
  95.6622728  69.8123964 115.9704399 104.1972787  70.0094861 117.3723053
 104.2521397  69.0568697 117.2965530 103.3863989  70.1654300 117.8564351
 105.3463981  73.9374984 108.6101336 104.9083411  73.2210843 108.1506974
 106.0874422  74.1651098 108.0486428 102.1365147  68.6271920 115.1313432
 101.3233013  68.9266091 115.5378624 102.6324142  68.2327609 115.8487914
 104.2873725  78.6229677 117.0647697 104.2449904  78.8490524 116.1356229
 105.2036424  78.3893052 117.2133498 107.7339359  69.0913745 123.9628326
 108.0888747  69.3185218 124.8222792 108.3811490  69.4232122 123.3405581
 113.4637096  72.2132181 114.6677655 113.3254995  72.4033777 113.7398844
 113.1073315  72.9751564 115.1245706 101.6279222  66.1990276 120.7474667
 102.2678601  66.0579035 120.0497630 100.7956753  65.9124789 120.3713269
 113.4906476  74.2808708 119.6788926 113.9242982  74.1883997 120.5271980
 114.2038056  74.2566208 119.0408942 102.4039526  75.4992706 116.8609659
 103.1980125  75.0043026 116.6592234 101.6931218  74.9710569 116.4977365
 107.2234371  77.8810802 121.2122027 107.2771393  78.4501738 121.9799743
 106.3549152  78.0512687 120.8476064  98.7122290  69.6435788 112.9369412
  97.7819878  69.5820244 113.1539374  98.8079761  69.1211741 112.1406053
  98.6307839  66.1690601 115.5247654  98.8914656  67.0835934 115.4156814
  99.4525011  65.7015043 115.6744267 100.1032764  67.5828358 122.6946478
 100.7755817  67.3745720 122.0459127  99.2762550  67.3850444 122.2551711
 114.3522025  74.3232408 122.2121812 114.5457915  75.2278219 122.4581087
 114.2522643  73.8639827 123.0460397 106.0058336  64.2090299 124.7112139
 105.3586251  64.9080249 124.6176616 106.7759351  64.6426443 125.0788387
 109.4137134  74.4739151 127.7862692 109.2622640  74.2449703 126.8692776
 109.4041813  75.4309753 127.7994037 106.1822470  72.0471064 122.7708959
 107.1114530  72.1982223 122.5977926 105.7613500  72.1355085 121.9157605
 104.9810802  76.0721728 120.5407496 104.8421888  75.7040513 121.4133435
 104.1925398  76.5869368 120.3691454 105.5758954  81.1730825 111.8833033
 105.7510710  80.7018868 112.6978656 104.8891742  81.7996591 112.1114294
 106.5316017  75.4503331 117.9296334 106.1965850  75.4104101 118.8253984
 106.0319963  74.7848047 117.4566744 100.5060261  70.8570961 123.4548915
 100.3680059  70.1251200 124.0560454 101.4165185  70.7679861 123.1733103
 109.4675209  72.7959365 108.2033394 108.8504379  72.0706193 108.1066447
 108.9991697  73.5568726 107.8600468 103.1342562  70.5690920 122.9432595
 103.8442180  69.9284113 122.9019213 103.0911870  70.8203815 123.8658776
 111.1229340  77.5058274 125.8639174 111.0641887  76.8217494 125.1969757
 111.5248859  78.2477264 125.4119800 101.8471496  67.5556138 124.7628235
 101.3108853  67.1046877 125.4149831 101.2588204  67.6902047 124.0198699
 100.1420039  84.3220188 118.6572893 100.3816638  84.9538712 119.3351912
  99.2989236  83.9708228 118.9438252 101.2573755  67.0144790 107.3254698
 100.3803221  66.8933590 106.9616945 101.7331508  66.2230868 107.0733587
 111.1246748  75.4697858 124.0953154 110.2373527  75.1323779 124.2179553
 111.6945299  74.7380889 124.3321919  92.7775895  71.8021949 117.4196205
  93.4646935  71.4883679 116.8317221  92.6224024  72.7063314 117.1463457
  97.5810617  66.6912146 121.8481229  97.4968806  66.0837815 121.1131639
  96.7593323  67.1821164 121.8490725 104.6547901  80.1299310 121.0614397
 104.5818073  80.9354281 121.5733702 104.2125294  80.3291276 120.2362419
 104.4437681  79.3671080 114.5717219 103.6605203  79.9092760 114.6655443
 105.1430426  79.8845060 114.9711460 107.7534331  65.1765709 117.2151424
 108.2503030  64.4235672 116.8952494 106.9821312  65.2130026 116.6494633
 115.6064088  70.8806075 118.8569716 115.5953965  71.7630790 118.4863649
 114.7381468  70.5277626 118.6624253 107.1146585  80.0286144 123.2172556
 107.8274557  80.6633609 123.1448457 106.6236613  80.1250010 122.4012558
 108.8364112  73.9337397 114.7889847 107.9020390  74.0538859 114.6194552
 109.0140780  73.0309863 114.5249857 104.3369300  67.3183092 116.9423109
 103.9667087  66.7654133 117.6304014 104.8328392  66.7141226 116.3898109
 112.2236663  69.7754716 115.3239882 112.6897115  70.6082708 115.2500184
 112.6744163  69.3099698 116.0285140 102.1658498  77.7780587 124.0378127
 102.8667958  78.4117070 124.1907521 101.6953613  78.1195319 123.2773766
 110.2912894  76.1198537 112.3226034 110.5672738  76.0055132 113.2319908
 109.4217393  75.7216022 112.2838207 110.1953326  62.1435303 119.3630783
 109.2816405  62.3739530 119.5312990 110.6246427  62.2273747 120.2144815
 109.9659784  70.3325195 121.8630677 109.3131234  70.5801102 121.2083130
 110.3440164  69.5189333 121.5293154 106.9266958  80.3684888 115.9658847
 107.1089353  79.5506544 116.4286600 107.7499944  80.5852580 115.5283737
 107.2609124  79.2953073 113.2273896 107.7896890  78.7845528 112.6144058
 107.5237343  78.9795603 114.0919429 106.0147357  71.0745006 128.3496714
 105.3387994  70.9739135 129.0199089 106.8374991  70.9184220 128.8132711
  97.7626216  77.3116942 120.9709229  98.3479653  76.5660630 121.1037133
  97.5651055  77.6220899 121.8545893 100.6164871  80.3468190 115.9871672
  99.9475247  80.8314318 115.5035712 100.4777741  80.5937410 116.9015050
  92.3543871  69.8822543 119.6913672  92.3927971  69.3486133 120.4850791
  91.8484164  69.3557748 119.0724650 104.7570140  82.3811933 122.5854330
 105.3088448  82.5443555 123.3503415 105.0976334  82.9716371 121.9134355
  99.7334633  64.7287083 123.1876215  99.7975960  65.5901914 122.7753612
  99.6701754  64.1161085 122.4548573  99.2086906  66.8010216 126.8349249
  99.8358945  66.4187293 127.4486773  98.3514825  66.5824418 127.2004941
 109.6081014  77.2073191 128.4402984 110.1520918  77.8203149 127.9457939
 109.0267859  77.7652769 128.9569997  95.9852449  68.6086645 112.7667604
  96.2805890  67.6997323 112.7134658  95.0840484  68.5874384 112.4448606
 107.8938527  80.3293909 119.5718012 107.7689667  79.5283649 119.0628958
 108.5517618  80.8240102 119.0831982  99.5146696  66.6842641 118.7495152
  98.7933281  67.2978609 118.6102626 100.3039951  67.2200406 118.6711798
 109.9573436  78.1302929 121.1997562 109.0103771  78.0108280 121.1275889
 110.3056209  77.2425427 121.2823824 102.3173009  64.0197068 125.0235804
 102.8407411  64.2659364 125.7862113 102.0985342  64.8517103 124.6038942
  97.7140290  66.2900743 112.8906929  97.3852996  65.4098121 112.7082035
  98.0679661  66.2348411 113.7783318 106.9619869  77.9255645 117.4001915
 106.8144831  76.9972353 117.5809485 107.7873363  77.9475736 116.9158990
 100.8282113  66.5773712 113.2582407 101.1678186  67.1059634 112.5361015
 101.2754234  66.9154118 114.0340973 110.5653991  78.7484204 118.4866787
 111.4900538  78.5427065 118.3491238 110.3969294  78.5000605 119.3956129
 103.5225554  64.9610763 122.7085475 103.1822375  64.1618576 123.1106155
 102.8164560  65.2612474 122.1362308 104.1742026  62.0460075 121.1612798
 104.9968095  61.5720554 121.0391688 104.4180090  62.8250559 121.6611484
 102.8150260  65.0748334 111.4575699 103.5358623  65.4529587 110.9539416
 102.1915565  65.7937211 111.5610677 106.9581383  65.7793483 112.3934032
 107.1744998  66.6618121 112.0922860 106.4775451  65.3879696 111.6639674
 101.6980605  68.7379196 118.9704776 101.5525185  69.0519499 119.8629058
 101.2205808  69.3564096 118.4175675 103.5576988  65.7281744 119.0185666
 103.5438556  64.8322837 118.6817964 104.2749416  65.7352408 119.6523952
 105.4103118  66.1619084 121.0638793 105.1520896  67.0836155 121.0623124
 104.8788159  65.7649519 121.7539257 110.3549307  79.2669871 113.8428879
 110.5286185  78.7016294 113.0902731 110.8478198  80.0670766 113.6608369
  96.1726267  71.2784540 121.9092438  95.6279735  72.0544348 122.0412712
  97.0505617  71.6255345 121.7511559 102.9613884  64.6096124 114.2873236
 103.0829795  63.6812771 114.4864124 102.6715926  64.6234810 113.3751551
 105.8305074  62.2951035 117.4239956 105.8526771  62.3590368 116.4691935
 106.2473133  61.4555543 117.6180462 116.2088698  72.0306294 115.4619178
 116.6519844  71.2813620 115.0638302 115.3315209  72.0216431 115.0792910
 111.3424480  78.5836636 110.9425777 112.0375384  79.2043328 111.1613092
 111.6847630  77.7331987 111.2178155  96.9592289  70.4054437 124.8022594
  96.2174025  70.5537072 125.3887225  96.6385033  70.6662702 123.9389344
 113.2415903  76.0336341 112.4713108 113.7667227  76.3723614 111.7462428
 113.1538255  75.0983357 112.2876242 104.9035951  79.9470415 124.6002984
 105.2123078  79.7019562 125.4725684 105.7011433  80.1517053 124.1121855
 104.9256563  82.1008325 116.8308361 104.4861554  81.6084703 117.5241218
 105.6764680  81.5581292 116.5900436  97.4048902  78.2919865 116.8332989
  98.2306922  77.9923637 116.4531633  97.0542954  77.5227488 117.2822778
 102.3730436  77.6446334 118.9030663 101.7510445  76.9817039 118.6032890
 103.0435303  77.6707466 118.2204310  95.6057507  76.2106192 117.7921923
  94.7689416  75.7828366 117.6105924  95.5781153  76.4038635 118.7292714
 102.4454963  66.1228122 128.4963169 102.4943119  66.9990245 128.1140938
 102.9877477  65.5805515 127.9234812 112.9309809  76.6669245 127.7764306
 112.1405352  76.6493384 127.2368805 112.6943163  77.2057539 128.5313342
 113.0507684  73.5161711 125.0897034 113.1005689  73.3511719 126.0312557
 112.9421607  72.6488970 124.6994915 101.9343943  76.1950257 112.3789123
 102.0832063  76.8785721 111.7255796 102.7410386  76.1755347 112.8938579
 110.3411446  69.4992639 126.4056341 111.2421309  69.3599104 126.1140339
 110.4159421  69.6647094 127.3454518 104.6754252  66.8759494 125.2509527
 103.8057561  67.1693060 124.9792116 104.9113732  67.4599939 125.9716791
 114.5525881  75.9358653 125.3339056 114.2610689  76.2988633 126.1702517
 113.9398012  75.2225661 125.1552388 115.7521563  73.5011533 117.8541626
 116.5868454  73.9401337 118.0179186 115.8880692  73.0250186 117.0349872
 112.8013069  71.0591268 123.8019114 113.2767190  71.2518914 122.9937965
 111.8778634  71.1150453 123.5562497  99.6896575  72.2215435 113.3850192
  99.4442617  71.3177765 113.5830402  99.8592490  72.2232585 112.4429670
 107.3793285  63.0939111 122.7674948 107.8975229  63.8300138 122.4421436
 107.0248418  63.4003104 123.6021707  98.9592223  67.9543792 110.8836354
  98.2661468  68.0288147 110.2276390  98.7143975  67.1904136 111.4057870
 107.6305880  59.5139394 118.2875844 107.9107633  58.8462583 118.9136271
 108.4156486  59.7068489 117.7750508 105.4339348  78.6898387 109.8500871
 104.8613315  79.3088575 109.3971342 106.0072142  79.2397749 110.3840793
 111.5014738  67.9357028 122.0347419 112.4532161  68.0355125 122.0559643
 111.3318188  67.1435296 122.5445504 109.5229117  65.0212611 122.2206820
 108.9279049  65.3017624 121.5253309 109.2378814  65.5106512 122.9923561
 108.6536608  78.9735538 110.9809453 109.5867281  78.9081099 111.1842328
 108.5659821  79.8091804 110.5223986 111.2824624  78.2901408 107.9413400
 111.2038256  77.9561272 108.8349158 112.1034291  78.7823176 107.9404873
 113.9802816  71.1563147 121.1489719 113.9479136  70.2179148 121.3349403
 114.5903439  71.2347184 120.4155544 105.8186147  70.0259200 107.1916923
 106.7645251  69.8965408 107.2605341 105.4400391  69.2873862 107.6686351
 114.1297304  67.9474191 121.1948002 113.6136353  67.1632647 121.0077931
 115.0137253  67.6192907 121.3594522 111.7908031  61.6915206 117.1543815
 111.5932852  61.3830294 118.0387147 112.4007737  62.4176845 117.2841745
 119.7979366  72.2179154 120.2895756 120.5282754  71.9564442 120.8503459
 119.1886311  71.4807876 120.3297824 117.8794663  70.3587017 120.8870207
 117.1527826  70.2242982 120.2786699 117.4641950  70.6663845 121.6926925
 105.7024839  74.0776946 128.6517580 106.6227849  74.2555545 128.8457627
 105.6674422  73.1332992 128.4997279 104.0029064  67.9509177 107.1271808
 103.0960519  67.6542289 107.2034522 104.2805045  67.6538995 106.2606095
  94.9207004  69.2715540 117.5770855  94.6009788  68.4180848 117.2845229
  94.3740432  69.4864118 118.3328822  98.6986912  71.9877981 121.2940361
  98.9172921  72.9195089 121.3128395  99.1112685  71.6285955 122.0795165
 105.6191129  62.4946066 113.2816050 104.8091858  62.1493151 113.6571296
 106.3075546  62.1853610 113.8703661 107.5481678  61.5724113 114.9040346
 108.1012716  61.9919567 115.5630369 107.7851764  60.6459861 114.9463302
 103.5714777  67.5611187 130.6843110 103.4711504  68.5105544 130.6155201
 103.3536319  67.2329426 129.8119180 102.7727848  64.8096112 107.2683788
 103.6347012  65.1351010 107.5279605 102.9578192  64.0227608 106.7556853
  94.7895264  72.8918452 119.5463976  94.0958735  72.4772404 119.0333931
  95.5368255  72.9338988 118.9497395 110.9260485  63.6824638 114.4119011
 110.3459154  64.3409442 114.0297063 110.6596417  62.8601983 114.0006428
 109.3764051  63.0829696 116.6140331 109.8763830  63.1946231 115.8054650
 110.0199659  62.7790749 117.2541139 103.4346047  70.9908326 129.5008172
 102.9513129  71.7908686 129.7072061 103.5206986  71.0016271 128.5475616
  96.7032007  72.8236705 117.4229991  96.6802695  72.9224393 116.4711874
  97.0132643  73.6701856 117.7447157  99.3619384  74.8812860 121.5376606
 100.3162638  74.8496803 121.4706537  99.1631908  74.4203484 122.3526831
  99.9518767  73.4513976 124.1047403 100.7711656  73.9458055 124.1282241
 100.2255574  72.5345945 124.0764971 109.7085363  65.8424729 113.4675359
 108.8211218  66.1274379 113.2495554 110.1239352  65.6818492 112.6202636
 113.0599899  65.8671250 117.1829698 113.8360289  66.3567702 117.4554315
 112.3348033  66.2929304 117.6401568 115.4972458  66.5798869 118.2403639
 116.0916948  66.3394605 117.5296947 115.5699041  65.8605999 118.8677175
  97.7169613  80.4232480 118.5546803  97.5824081  79.6632881 117.9884802
  97.3001676  81.1473380 118.0875592 108.8528576  75.6069403 107.5623379
 109.5564426  75.8119406 108.1781034 108.1291225  76.1746165 107.8272462
 109.6826387  71.3579265 113.6825649 109.6261588  71.8147816 112.8433281
 110.2354729  70.5969949 113.5048492 113.4931192  67.1468997 114.5075768
 113.2368127  66.7465632 115.3383976 112.8684060  67.8612790 114.3825908
 117.8043530  69.8865070 117.0147060 117.2443088  69.9558259 117.7878622
 117.1987034  69.7106054 116.2946556 100.8738739  81.3201797 118.7665246
 100.7571123  82.2647229 118.6643936 100.0531185  81.0175358 119.1551045
 110.7615274  76.0451933 109.6121839 111.5960878  75.6133131 109.4299314
 110.5999617  75.8733946 110.5398733 110.4161166  72.5484046 110.9778178
 110.3609970  72.3828317 110.0366622 109.7907221  73.2560079 111.1340368
  95.2053681  67.7852110 124.8039600  95.8512544  67.2751064 125.2926825
  94.9970832  68.5220792 125.3783026 107.7307073  74.8532958 130.3031741
 108.5998233  75.0273610 129.9418376 107.2513825  75.6727375 130.1807470
 103.7257291  62.0492155 110.5563497 103.7135961  62.9933995 110.7131767
 104.6180713  61.8662300 110.2622958 101.8993253  81.9730059 121.9821175
 102.8020500  82.0053669 122.2987669 101.6730623  81.0430510 121.9967510
 103.6546855  80.7261045 118.6431253 102.7042486  80.7262907 118.5295625
 103.9579341  79.9793780 118.1267288 107.5409411  58.6434932 114.8109433
 106.7741807  58.0893418 114.9566116 107.9520116  58.7156800 115.6723585
  99.5451172  64.9319727 128.9014615 100.4082633  64.5756532 129.1117939
  98.9716582  64.5933622 129.5890019 119.3899549  86.5621584 119.7077016
 120.0277959  86.4428331 119.0040356 119.2720392  87.5102428 119.7664968
 116.1989255  86.5149012 119.6438540 115.8607767  86.3990076 118.7559075
 117.0679023  86.1140177 119.6239546 112.0576071  88.3684488 115.6335431
 111.4940936  88.2774425 114.8651719 111.9428466  87.5484393 116.1137924
 116.6809038  87.6683864 125.6024746 116.6697679  87.2736662 124.7305249
 116.8429678  86.9349936 126.1958517 109.6040503  89.8635680 118.4719652
 110.3961795  89.5226504 118.0565951 109.8437153  89.9730655 119.3921805
 117.6375629  92.0355456 110.9449896 116.9863609  92.6209536 110.5583910
 118.4319992  92.5661651 111.0044934 111.5631257  89.1244593 111.3437030
 112.3362133  88.5773580 111.2049906 111.9156655  89.9888842 111.5551492
 113.4016299  90.4520975 124.5503930 113.1106165  91.3566606 124.4350596
 114.0373284  90.4937503 125.2647999 114.3272506  87.8297824 121.1405289
 114.9236078  87.6053846 120.4262252 114.3847478  87.0882569 121.7430737
 113.8997534  85.2837259 108.9755480 114.1523055  84.7618780 108.2138943
 112.9622094  85.1203405 109.0782164 118.9440817  84.2873038 116.7830224
 119.7303906  83.8692461 116.4320641 119.2079522  85.1919130 116.9511872
 119.1150895  89.7245888 111.4818880 118.4796728  89.7980514 112.1939785
 118.7848301  90.3139487 110.8037960 124.3449244  84.2248271 117.6863202
 125.0774416  83.6547488 117.9201032 123.5888600  83.8369871 118.1269708
 113.6193823  87.1865365 111.1779855 113.5030081  86.5110269 111.8460940
 113.7296083  86.6997739 110.3612008 115.9625364  86.6475512 114.8826545
 115.5983571  86.1206133 115.5939466 116.8192480  86.2573981 114.7093030
 121.8674665  77.9369845 122.1457811 121.5357990  78.8065256 121.9219026
 121.2720278  77.6206129 122.8251841 115.6030851  81.6765412 109.8787893
 115.7705253  82.5445648 110.2458364 115.4128020  81.8392694 108.9549182
 118.3606184  90.1382391 121.5453723 118.0606907  91.0407430 121.4369531
 118.0157244  89.8714574 122.3974876 111.8118666  86.5896188 117.5790428
 110.8869162  86.4572402 117.7868120 112.0603079  87.3690407 118.0760370
 121.7603328  82.6564931 119.2251161 120.8520205  82.5880339 118.9309922
 121.7090924  83.1336876 120.0532986 115.5820072  84.1323069 110.8634560
 115.4619697  84.5780120 111.7020040 114.8872660  84.4808387 110.3048098
 109.1727477  86.2329461 118.4134217 109.3019858  86.4863940 119.3273629
 108.4924928  86.8257169 118.0938872 113.3426964  96.9026711 114.5124691
 113.2650994  97.8534536 114.5913172 112.7388608  96.5572584 115.1699617
 115.8344194  84.0754577 127.1686058 115.0577528  84.6348497 127.1588923
 116.4734757  84.5611360 127.6900928 123.6264974  80.8581369 121.0029035
 122.9839355  81.1513903 120.3568829 123.1219903  80.7434290 121.8082231
 121.2805138  84.6044543 111.6914894 122.1922994  84.8371929 111.5162591
 120.7714785  85.1881587 111.1289973 114.0890566  86.8840030 126.7304025
 114.8305251  87.4225074 126.4538849 113.3827552  87.5106319 126.8875577
 119.5645906  89.0269170 125.3276187 119.9729262  88.5851581 124.5830819
 118.8423167  88.4521798 125.5810379 115.9176976  83.9641777 122.7009743
 116.7638171  84.3881191 122.8444392 115.8575614  83.3075402 123.3948307
 119.8874720  89.5870361 119.0828475 119.2583583  89.7516075 118.3804543
 119.5000383  90.0011971 119.8539439 123.7663952  90.5224799 116.4372839
 123.0814990  90.9023700 115.8869872 123.8507802  91.1320126 117.1704787
 119.0676421  81.6246146 124.3590917 118.8237353  82.3788206 123.8225193
 119.3436352  82.0031493 125.1938164 121.0214884  88.1684758 123.0368183
 121.2331779  88.8116518 122.3602564 120.9744632  87.3347074 122.5690113
 118.6241113  80.7802579 119.9404755 117.7625592  81.0783832 120.2321492
 118.6503548  80.9972977 119.0085787 115.4402682  89.3244769 116.3478561
 115.9041028  89.6032472 115.5583183 115.1759480  88.4228214 116.1651651
 112.3326763  88.8716251 119.2858324 112.9028120  89.3003519 118.6475808
 112.9234875  88.5898835 119.9842509 114.3771568  85.4467922 113.1568126
 115.0795612  85.8988965 113.6242052 114.0452197  84.8051740 113.7848019
 112.8251930  84.0379678 127.5319335 112.1950590  84.7195959 127.7654732
 112.7188018  83.9262760 126.5872473 108.1196902  83.7051474 118.4585259
 107.3295956  83.9609003 117.9825370 108.6108150  84.5199812 118.5637300
 122.1360712  91.0456713 121.2090540 122.9578156  90.6436901 120.9273222
 122.1323115  90.9424948 122.1606656 110.0711648  84.0696053 115.4168736
 109.2742811  84.1814748 115.9352232 109.8437240  84.4082706 114.5509626
 115.9017315  90.5940757 123.3651251 115.9661748  91.0561164 124.2009422
 115.1928239  89.9638122 123.4933560 106.4034605  83.9581965 120.8900250
 106.6542644  84.8428975 121.1557826 106.9394154  83.7786566 120.1175342
 130.2266705  87.3895462 117.5575512 129.4730413  86.8202860 117.4019516
 130.3614246  87.3558126 118.5046146 115.6165333  92.2608864 113.2330231
 115.4811008  93.1060400 113.6615079 116.1575145  92.4628142 112.4696165
 112.1032673  78.3400444 129.8944586 111.7099618  77.7866643 130.5692230
 112.9198813  78.6511022 130.2851104 109.0694730  89.7784302 113.8058156
 109.5819251  90.5727552 113.9563721 109.7217443  89.0810593 113.7391757
 110.8789615  92.8950058 115.8880909 111.0556243  93.8168023 115.7001893
 111.6746449  92.5808478 116.3175289 115.0200634  79.7558323 127.4864843
 115.7610347  80.3565476 127.4069305 115.2518556  79.0135961 126.9282885
 110.1641972  84.9414690 125.7643072 110.0495487  84.0399948 126.0650171
 109.3086489  85.1878387 125.4127889 117.2433809  92.8832431 127.3630573
 116.7997664  92.0968809 127.0451477 117.9051023  93.0711581 126.6974464
 112.0020931  94.4128232 121.8891251 112.5528356  94.2845296 121.1168245
 111.1632406  94.7123121 121.5386144 119.3415047  93.1635231 125.3911974
 119.3233523  93.9844112 124.8992243 120.2634967  93.0389306 125.6162115
 115.7988102  90.6779360 126.2335483 116.3316438  89.9167648 126.0034791
 115.2702183  90.3853012 126.9759637 118.9657797  75.7839426 121.7629124
 118.6222066  76.6741068 121.6868235 119.3336759  75.5941084 120.8998709
 107.0343647  88.1072956 114.5817726 107.8718869  88.5169965 114.3651434
 107.2121915  87.1672399 114.5517920 118.9308079  85.7748037 110.2701559
 118.4154703  86.5452642 110.5089947 118.6585388  85.1013173 110.8934621
 116.5155190  80.6197738 115.3286798 115.6596787  80.2304588 115.1492437
 116.9282142  80.6989699 114.4686583 118.0454337  78.1544081 119.7278358
 117.5419133  78.1174216 118.9146163 118.3384944  79.0636824 119.7875014
 114.2897223  78.2382811 118.7344539 115.1550220  78.0425620 118.3750429
 114.3574732  78.0093163 119.6613896 123.9042353  88.5280392 112.2054733
 123.1271796  88.1891551 111.7609895 124.5833834  88.5333015 111.5309698
 118.7194382  83.6475129 112.0961341 118.4144518  83.9621278 112.9471484
 119.6724825  83.7256549 112.1388674 117.1640814  89.8065353 113.7454295
 116.6362176  89.0718112 113.4327532 116.6628317  90.5840029 113.4994263
 122.1433660  88.0014373 118.8621341 121.4857335  88.6913634 118.9501470
 122.9474060  88.3910805 119.2055327 111.8959542  80.4685019 116.1060906
 112.4703294  80.2460200 115.3734099 112.4830524  80.5373713 116.8589507
 120.9539119  86.3558746 116.9125283 121.4671001  86.9888738 117.4146992
 121.6040343  85.7559941 116.5468643 112.2229129  82.4989480 110.1256791
 111.3866441  82.8364166 110.4466066 112.0833899  82.3638460 109.1883928
 114.1982210  77.3426268 114.8335976 113.5446622  77.0275285 114.2092590
 114.1562684  76.7202008 115.5595798 115.3093414  87.6245563 106.7489268
 114.4020476  87.3934816 106.9480417 115.8064446  86.8283182 106.9363249
 118.2161493  96.3343070 109.6685954 117.5423192  96.6374767 110.2770912
 118.6027315  97.1372150 109.3191411 117.4319950  83.8308201 119.1583623
 116.5142511  84.0523148 119.0005311 117.8480094  83.9054512 118.2995331
 118.2154998  85.2299617 114.2886303 118.9626817  85.7421014 113.9793425
 118.4846587  84.9083670 115.1490697 116.4881648  87.7258158 111.2713258
 115.5792867  87.4417190 111.3685727 116.5176732  88.1457236 110.4116565
 121.7200915  91.3364747 115.0404425 121.2663242  90.4955657 115.0969616
 121.0894882  91.9726146 115.3779205 120.6633835  82.2656733 116.2705093
 119.9256592  81.7534119 116.6015335 120.9160608  81.8257115 115.4588370
 120.1633855  93.1741244 115.9754243 120.4556829  93.7346301 115.2566609
 120.6732475  93.4669805 116.7307403 120.7645462  75.0432985 116.8646862
 121.0704339  74.1830349 116.5772777 121.4898067  75.6350605 116.6645856
 107.0569818  85.4463672 115.2528460 106.8594218  84.8533033 114.5279526
 106.5016482  85.1415882 115.9704399 115.0366542  85.3386778 117.3723053
 115.0915152  84.3860615 117.2965530 114.2257744  85.4946217 117.8564351
 116.1857736  89.2666901 108.6101336 115.7477166  88.5502760 108.1506974
 116.9268177  89.4943016 108.0486428 112.9758902  83.9563838 115.1313432
 112.1626767  84.2558009 115.5378624 113.4717896  83.5619527 115.8487914
 115.1267480  93.9521595 117.0647697 115.0843659  94.1782441 116.1356229
 116.0430179  93.7184970 117.2133498 118.5733114  84.4205663 123.9628326
 118.9282501  84.6477136 124.8222792 119.2205245  84.7524039 123.3405581
 124.3030850  87.5424098 114.6677655 124.1648749  87.7325694 113.7398844
 123.9467069  88.3043481 115.1245706 112.4672977  81.5282194 120.7474667
 113.1072356  81.3870953 120.0497630 111.6350507  81.2416707 120.3713269
 124.3300230  89.6100625 119.6788926 124.7636737  89.5175914 120.5271980
 125.0431811  89.5858126 119.0408942 113.2433281  90.8284624 116.8609659
 114.0373879  90.3334944 116.6592234 112.5324973  90.3002487 116.4977365
 118.0628125  93.2102720 121.2122027 118.1165147  93.7793656 121.9799743
 117.1942906  93.3804605 120.8476064 109.5516044  84.9727706 112.9369412
 108.6213632  84.9112161 113.1539374 109.6473516  84.4503658 112.1406053
 109.4701593  81.4982519 115.5247654 109.7308410  82.4127852 115.4156814
 110.2918765  81.0306961 115.6744267 110.9426518  82.9120276 122.6946478
 111.6149572  82.7037638 122.0459127 110.1156305  82.7142362 122.2551711
 125.1915780  89.6524326 122.2121812 125.3851670  90.5570137 122.4581087
 125.0916398  89.1931745 123.0460397 116.8452090  79.5382217 124.7112139
 116.1980005  80.2372166 124.6176616 117.6153106  79.9718361 125.0788387
 120.2530888  89.8031069 127.7862692 120.1016395  89.5741620 126.8692776
 120.2435568  90.7601670 127.7994037 117.0216225  87.3762982 122.7708959
 117.9508285  87.5274141 122.5977926 116.6007255  87.4647002 121.9157605
 115.8204557  91.4013646 120.5407496 115.6815642  91.0332430 121.4133435
 115.0319153  91.9161285 120.3691454 116.4152708  96.5022742 111.8833033
 116.5904464  96.0310786 112.6978656 115.7285497  97.1288509 112.1114294
 117.3709772  90.7795249 117.9296334 117.0359604  90.7396019 118.8253984
 116.8713717  90.1139965 117.4566744 111.3454016  86.1862879 123.4548915
 111.2073814  85.4543118 124.0560454 112.2558939  86.0971779 123.1733103
 120.3068963  88.1251283 108.2033394 119.6898134  87.3998111 108.1066447
 119.8385452  88.8860643 107.8600468 113.9736316  85.8982838 122.9432595
 114.6835935  85.2576030 122.9019213 113.9305624  86.1495733 123.8658776
 121.9623095  92.8350191 125.8639174 121.9035641  92.1509411 125.1969757
 122.3642613  93.5769181 125.4119800 112.6865250  82.8848056 124.7628235
 112.1502607  82.4338794 125.4149831 112.0981959  83.0193965 124.0198699
 110.9813794  99.6512105 118.6572893 111.2210392 100.2830629 119.3351912
 110.1382990  99.3000145 118.9438252 112.0967509  82.3436707 107.3254698
 111.2196976  82.2225508 106.9616945 112.5725262  81.5522786 107.0733587
 121.9640502  90.7989775 124.0953154 121.0767281  90.4615697 124.2179553
 122.5339053  90.0672807 124.3321919 103.6169649  87.1313867 117.4196205
 104.3040689  86.8175597 116.8317221 103.4617778  88.0355232 117.1463457
 108.4204372  82.0204064 121.8481229 108.3362560  81.4129733 121.1131639
 107.5987078  82.5113082 121.8490725 115.4941656  95.4591228 121.0614397
 115.4211827  96.2646199 121.5733702 115.0519049  95.6583193 120.2362419
 115.2831435  94.6962998 114.5717219 114.4998957  95.2384678 114.6655443
 115.9824180  95.2136977 114.9711460 118.5928085  80.5057627 117.2151424
 119.0896785  79.7527589 116.8952494 117.8215067  80.5421944 116.6494633
 126.4457843  86.2097993 118.8569716 126.4347719  87.0922708 118.4863649
 125.5775222  85.8569543 118.6624253 117.9540339  95.3578062 123.2172556
 118.6668311  95.9925526 123.1448457 117.4630368  95.4541928 122.4012558
 119.6757866  89.2629314 114.7889847 118.7414145  89.3830777 114.6194552
 119.8534535  88.3601781 114.5249857 115.1763054  82.6475010 116.9423109
 114.8060842  82.0946050 117.6304014 115.6722147  82.0433144 116.3898109
 123.0630417  85.1046634 115.3239882 123.5290870  85.9374625 115.2500184
 123.5137918  84.6391615 116.0285140 113.0052253  93.1072505 124.0378127
 113.7061712  93.7408988 124.1907521 112.5347368  93.4487237 123.2773766
 121.1306649  91.4490455 112.3226034 121.4066492  91.3347049 113.2319908
 120.2611147  91.0507940 112.2838207 121.0347080  77.4727221 119.3630783
 120.1210160  77.7031447 119.5312990 121.4640182  77.5565665 120.2144815
 120.8053539  85.6617113 121.8630677 120.1524989  85.9093020 121.2083130
 121.1833919  84.8481251 121.5293154 117.7660713  95.6976806 115.9658847
 117.9483107  94.8798462 116.4286600 118.5893699  95.9144498 115.5283737
 118.1002878  94.6244991 113.2273896 118.6290644  94.1137445 112.6144058
 118.3631098  94.3087521 114.0919429 116.8541112  86.4036924 128.3496714
 116.1781749  86.3031053 129.0199089 117.6768746  86.2476137 128.8132711
 108.6019971  92.6408860 120.9709229 109.1873408  91.8952548 121.1037133
 108.4044809  92.9512817 121.8545893 111.4558626  95.6760108 115.9871672
 110.7869001  96.1606235 115.5035712 111.3171496  95.9229328 116.9015050
 103.1937625  85.2114460 119.6913672 103.2321725  84.6778051 120.4850791
 102.6877918  84.6849666 119.0724650 115.5963895  97.7103851 122.5854330
 116.1482203  97.8735473 123.3503415 115.9370088  98.3008289 121.9134355
 110.5728388  80.0579001 123.1876215 110.6369714  80.9193832 122.7753612
 110.5095508  79.4453003 122.4548573 110.0480660  82.1302133 126.8349249
 110.6752699  81.7479211 127.4486773 109.1908579  81.9116335 127.2004941
 120.4474769  92.5365109 128.4402984 120.9914673  93.1495067 127.9457939
 119.8661614  93.0944687 128.9569997 106.8246203  83.9378563 112.7667604
 107.1199644  83.0289241 112.7134658 105.9234239  83.9166302 112.4448606
 118.7332282  95.6585827 119.5718012 118.6083421  94.8575566 119.0628958
 119.3911373  96.1532020 119.0831982 110.3540450  82.0134559 118.7495152
 109.6327036  82.6270527 118.6102626 111.1433706  82.5492324 118.6711798
 120.7967190  93.4594847 121.1997562 119.8497526  93.3400198 121.1275889
 121.1449963  92.5717345 121.2823824 113.1566764  79.3488986 125.0235804
 113.6801165  79.5951282 125.7862113 112.9379097  80.1809020 124.6038942
 108.5534045  81.6192660 112.8906929 108.2246751  80.7390039 112.7082035
 108.9073415  81.5640329 113.7783318 117.8013624  93.2547563 117.4001915
 117.6538586  92.3264270 117.5809485 118.6267117  93.2767654 116.9158990
 111.6675868  81.9065630 113.2582407 112.0071940  82.4351551 112.5361015
 112.1147988  82.2446036 114.0340973 121.4047745  94.0776122 118.4866787
 122.3294293  93.8718983 118.3491238 121.2363049  93.8292523 119.3956129
 114.3619309  80.2902681 122.7085475 114.0216129  79.4910494 123.1106155
 113.6558315  80.5904392 122.1362308 115.0135780  77.3751993 121.1612798
 115.8361850  76.9012471 121.0391688 115.2573844  78.1542477 121.6611484
 113.6544015  80.4040252 111.4575699 114.3752377  80.7821504 110.9539416
 113.0309319  81.1229128 111.5610677 117.7975138  81.1085401 112.3934032
 118.0138752  81.9910038 112.0922860 117.3169205  80.7171614 111.6639674
 112.5374359  84.0671114 118.9704776 112.3918940  84.3811417 119.8629058
 112.0599563  84.6856014 118.4175675 114.3970742  81.0573662 119.0185666
 114.3832311  80.1614755 118.6817964 115.1143170  81.0644326 119.6523952
 116.2496873  81.4911002 121.0638793 115.9914651  82.4128073 121.0623124
 115.7181913  81.0941437 121.7539257 121.1943062  94.5961789 113.8428879
 121.3679939  94.0308212 113.0902731 121.6871953  95.3962684 113.6608369
 107.0120021  86.6076458 121.9092438 106.4673489  87.3836266 122.0412712
 107.8899371  86.9547263 121.7511559 113.8007638  79.9388042 114.2873236
 113.9223549  79.0104688 114.4864124 113.5109680  79.9526728 113.3751551
 116.6698828  77.6242952 117.4239956 116.6920525  77.6882286 116.4691935
 117.0866887  76.7847461 117.6180462 127.0482453  87.3598212 115.4619178
 127.4913599  86.6105537 115.0638302 126.1708963  87.3508348 115.0792910
 122.1818234  93.9128554 110.9425777 122.8769139  94.5335246 111.1613092
 122.5241384  93.0623905 111.2178155 107.7986043  85.7346354 124.8022594
 107.0567779  85.8828990 125.3887225 107.4778788  85.9954620 123.9389344
 124.0809657  91.3628259 112.4713108 124.6060981  91.7015532 111.7462428
 123.9932010  90.4275274 112.2876242 115.7429706  95.2762333 124.6002984
 116.0516832  95.0311479 125.4725684 116.5405188  95.4808971 124.1121855
 115.7650318  97.4300242 116.8308361 115.3255308  96.9376621 117.5241218
 116.5158435  96.8873210 116.5900436 108.2442657  93.6211783 116.8332989
 109.0700677  93.3215555 116.4531633 107.8936709  92.8519406 117.2822778
 113.2124190  92.9738251 118.9030663 112.5904199  92.3108956 118.6032890
 113.8829057  92.9999383 118.2204310 106.4451262  91.5398110 117.7921923
 105.6083170  91.1120284 117.6105924 106.4174907  91.7330553 118.7292714
 113.2848718  81.4520039 128.4963169 113.3336873  82.3282162 128.1140938
 113.8271232  80.9097432 127.9234812 123.7703563  91.9961163 127.7764306
 122.9799107  91.9785302 127.2368805 123.5336918  92.5349456 128.5313342
 123.8901438  88.8453629 125.0897034 123.9399443  88.6803636 126.0312557
 123.7815362  87.9780888 124.6994915 112.7737697  91.5242175 112.3789123
 112.9225817  92.2077639 111.7255796 113.5804140  91.5047265 112.8938579
 121.1805201  84.8284557 126.4056341 122.0815063  84.6891022 126.1140339
 121.2553175  84.9939012 127.3454518 115.5148006  82.2051412 125.2509527
 114.6451315  82.4984978 124.9792116 115.7507486  82.7891857 125.9716791
 125.3919635  91.2650571 125.3339056 125.1004443  91.6280551 126.1702517
 124.7791766  90.5517579 125.1552388 126.5915317  88.8303450 117.8541626
 127.4262209  89.2693254 118.0179186 126.7274446  88.3542104 117.0349872
 123.6406823  86.3883185 123.8019114 124.1160945  86.5810831 122.9937965
 122.7172389  86.4442371 123.5562497 110.5290330  87.5507352 113.3850192
 110.2836372  86.6469682 113.5830402 110.6986245  87.5524503 112.4429670
 118.2187040  78.4231029 122.7674948 118.7368984  79.1592056 122.4421436
 117.8642173  78.7295022 123.6021707 109.7985978  83.2835710 110.8836354
 109.1055222  83.3580065 110.2276390 109.5537729  82.5196054 111.4057870
 118.4699634  74.8431311 118.2875844 118.7501388  74.1754500 118.9136271
 119.2550241  75.0360407 117.7750508 116.2733103  94.0190305 109.8500871
 115.7007070  94.6380492 109.3971342 116.8465896  94.5689667 110.3840793
 122.3408492  83.2648945 122.0347419 123.2925915  83.3647043 122.0559643
 122.1711943  82.4727214 122.5445504 120.3622872  80.3504528 122.2206820
 119.7672804  80.6309541 121.5253309 120.0772569  80.8398429 122.9923561
 119.4930362  94.3027455 110.9809453 120.4261035  94.2373017 111.1842328
 119.4053575  95.1383722 110.5223986 122.1218379  93.6193326 107.9413400
 122.0432011  93.2853189 108.8349158 122.9428046  94.1115094 107.9404873
 124.8196570  86.4855065 121.1489719 124.7872890  85.5471066 121.3349403
 125.4297194  86.5639102 120.4155544 116.6579901  85.3551118 107.1916923
 117.6039006  85.2257326 107.2605341 116.2794146  84.6165780 107.6686351
 124.9691059  83.2766108 121.1948002 124.4530107  82.4924565 121.0077931
 125.8531007  82.9484825 121.3594522 122.6301786  77.0207124 117.1543815
 122.4326607  76.7122212 118.0387147 123.2401491  77.7468763 117.2841745
 130.6373120  87.5471072 120.2895756 131.3676508  87.2856360 120.8503459
 130.0280065  86.8099794 120.3297824 128.7188417  85.6878934 120.8870207
 127.9921581  85.5534899 120.2786699 128.3035704  85.9955763 121.6926925
 116.5418594  89.4068864 128.6517580 117.4621603  89.5847463 128.8457627
 116.5068177  88.4624909 128.4997279 114.8422818  83.2801094 107.1271808
 113.9354274  82.9834207 107.2034522 115.1198799  82.9830912 106.2606095
 105.7600759  84.6007458 117.5770855 105.4403543  83.7472766 117.2845229
 105.2134187  84.8156036 118.3328822 109.5380666  87.3169899 121.2940361
 109.7566676  88.2487007 121.3128395 109.9506440  86.9577873 122.0795165
 116.4584884  77.8237984 113.2816050 115.6485612  77.4785069 113.6571296
 117.1469301  77.5145528 113.8703661 118.3875432  76.9016031 114.9040346
 118.9406471  77.3211484 115.5630369 118.6245519  75.9751779 114.9463302
 114.4108531  82.8903104 130.6843110 114.3105258  83.8397461 130.6155201
 114.1930073  82.5621343 129.8119180 113.6121603  80.1388030 107.2683788
 114.4740767  80.4642928 107.5279605 113.7971947  79.3519525 106.7556853
 105.6289019  88.2210369 119.5463976 104.9352490  87.8064322 119.0333931
 106.3762010  88.2630906 118.9497395 121.7654239  79.0116556 114.4119011
 121.1852908  79.6701360 114.0297063 121.4990172  78.1893901 114.0006428
 120.2157806  78.4121614 116.6140331 120.7157584  78.5238148 115.8054650
 120.8593414  78.1082667 117.2541139 114.2739801  86.3200243 129.5008172
 113.7906883  87.1200603 129.7072061 114.3600741  86.3308188 128.5475616
 107.5425761  88.1528623 117.4229991 107.5196449  88.2516310 116.4711874
 107.8526398  88.9993774 117.7447157 110.2013139  90.2104778 121.5376606
 111.1556393  90.1788720 121.4706537 110.0025663  89.7495402 122.3526831
 110.7912521  88.7805894 124.1047403 111.6105410  89.2749973 124.1282241
 111.0649329  87.8637862 124.0764971 120.5479117  81.1716646 113.4675359
 119.6604972  81.4566297 113.2495554 120.9633106  81.0110410 112.6202636
 123.8993653  81.1963167 117.1829698 124.6754044  81.6859620 117.4554315
 123.1741788  81.6221222 117.6401568 126.3366212  81.9090787 118.2403639
 126.9310703  81.6686523 117.5296947 126.4092796  81.1897917 118.8677175
 108.5563368  95.7524398 118.5546803 108.4217836  94.9924798 117.9884802
 108.1395430  96.4765297 118.0875592 119.6922331  90.9361321 107.5623379
 120.3958181  91.1411324 108.1781034 118.9684980  91.5038083 107.8272462
 120.5220141  86.6871182 113.6825649 120.4655342  87.1439734 112.8433281
 121.0748484  85.9261867 113.5048492 124.3324947  82.4760914 114.5075768
 124.0761881  82.0757550 115.3383976 123.7077815  83.1904708 114.3825908
 128.6437285  85.2156987 117.0147060 128.0836843  85.2850177 117.7878622
 128.0380788  85.0397972 116.2946556 111.7132494  96.6493715 118.7665246
 111.5964878  97.5939147 118.6643936 110.8924940  96.3467276 119.1551045
 121.6009028  91.3743850 109.6121839 122.4354632  90.9425049 109.4299314
 121.4393371  91.2025864 110.5398733 121.2554920  87.8775964 110.9778178
 121.2003724  87.7120235 110.0366622 120.6300976  88.5851996 111.1340368
 106.0447435  83.1144028 124.8039600 106.6906299  82.6042982 125.2926825
 105.8364586  83.8512710 125.3783026 118.5700828  90.1824875 130.3031741
 119.4391987  90.3565528 129.9418376 118.0907579  91.0019292 130.1807470
 114.5651046  77.3784073 110.5563497 114.5529716  78.3225912 110.7131767
 115.4574468  77.1954218 110.2622958 112.7387008  97.3021976 121.9821175
 113.6414254  97.3345587 122.2987669 112.5124378  96.3722427 121.9967510
 114.4940610  96.0552963 118.6431253 113.5436241  96.0554825 118.5295625
 114.7973096  95.3085698 118.1267288 118.3803165  73.9726849 114.8109433
 117.6135561  73.4185336 114.9566116 118.7913870  74.0448718 115.6723585
 110.3844926  80.2611645 128.9014615 111.2476388  79.9048450 129.1117939
 109.8110337  79.9225540 129.5890019 130.2293303 101.8913501 119.7077016
 130.8671713 101.7720249 119.0040356 130.1114146 102.8394345 119.7664968
 127.0383010 101.8440929 119.6438540 126.7001521 101.7281994 118.7559075
 127.9072778 101.4432095 119.6239546 122.8969825 103.6976406 115.6335431
 122.3334690 103.6066343 114.8651719 122.7822220 102.8776310 116.1137924
 127.5202793 102.9975781 125.6024746 127.5091433 102.6028579 124.7305249
 127.6823432 102.2641854 126.1958517 120.4434257 105.1927597 118.4719652
 121.2355549 104.8518422 118.0565951 120.6830907 105.3022573 119.3921805
 128.4769384 107.3647374 110.9449896 127.8257364 107.9501454 110.5583910
 129.2713747 107.8953568 111.0044934 122.4025011 104.4536511 111.3437030
 123.1755887 103.9065498 111.2049906 122.7550410 105.3180760 111.5551492
 124.2410054 105.7812893 124.5503930 123.9499920 106.6858524 124.4350596
 124.8767038 105.8229421 125.2647999 125.1666261 103.1589742 121.1405289
 125.7629833 102.9345764 120.4262252 125.2241232 102.4174487 121.7430737
 124.7391289 100.6129177 108.9755480 124.9916810 100.0910698 108.2138943
 123.8015848 100.4495322 109.0782164 129.7834572  99.6164955 116.7830224
 130.5697661  99.1984378 116.4320641 130.0473276 100.5211047 116.9511872
 129.9544649 105.0537806 111.4818880 129.3190482 105.1272432 112.1939785
 129.6242056 105.6431404 110.8037960 135.1842999  99.5540188 117.6863202
 135.9168171  98.9839405 117.9201032 134.4282355  99.1661789 118.1269708
 124.4587578 102.5157283 111.1779855 124.3423836 101.8402186 111.8460940
 124.5689838 102.0289657 110.3612008 126.8019119 101.9767430 114.8826545
 126.4377326 101.4498051 115.5939466 127.6586235 101.5865899 114.7093030
 132.7068419  93.2661763 122.1457811 132.3751744  94.1357173 121.9219026
 132.1114033  92.9498047 122.8251841 126.4424606  97.0057330 109.8787893
 126.6099008  97.8737566 110.2458364 126.2521775  97.1684611 108.9549182
 129.1999939 105.4674309 121.5453723 128.9000662 106.3699347 121.4369531
 128.8550998 105.2006492 122.3974876 122.6512420 101.9188105 117.5790428
 121.7262917 101.7864319 117.7868120 122.8996833 102.6982325 118.0760370
 132.5997083  97.9856849 119.2251161 131.6913960  97.9172257 118.9309922
 132.5484678  98.4628794 120.0532986 126.4213826  99.4614987 110.8634560
 126.3013452  99.9072038 111.7020040 125.7266415  99.8100305 110.3048098
 120.0121231 101.5621379 118.4134217 120.1413612 101.8155858 119.3273629
 119.3318683 102.1549087 118.0938872 124.1820719 112.2318629 114.5124691
 124.1044748 113.1826454 114.5913172 123.5782362 111.8864501 115.1699617
 126.6737948  99.4046494 127.1686058 125.8971282  99.9640414 127.1588923
 127.3128511  99.8903277 127.6900928 134.4658729  96.1873287 121.0029035
 133.8233109  96.4805820 120.3568829 133.9613657  96.0726207 121.8082231
 132.1198893  99.9336460 111.6914894 133.0316749 100.1663847 111.5162591
 131.6108540 100.5173505 111.1289973 124.9284321 102.2131948 126.7304025
 125.6699005 102.7516992 126.4538849 124.2221306 102.8398236 126.8875577
 130.4039660 104.3561088 125.3276187 130.8123016 103.9143499 124.5830819
 129.6816922 103.7813716 125.5810379 126.7570730  99.2933695 122.7009743
 127.6031926  99.7173108 122.8444392 126.6969368  98.6367319 123.3948307
 130.7268475 104.9162279 119.0828475 130.0977337 105.0807993 118.3804543
 130.3394137 105.3303888 119.8539439 134.6057707 105.8516717 116.4372839
 133.9208745 106.2315618 115.8869872 134.6901556 106.4612043 117.1704787
 129.9070176  96.9538063 124.3590917 129.6631108  97.7080124 123.8225193
 130.1830106  97.3323411 125.1938164 131.8608638 103.4976676 123.0368183
 132.0725534 104.1408436 122.3602564 131.8138387 102.6638992 122.5690113
 129.4634867  96.1094496 119.9404755 128.6019346  96.4075750 120.2321492
 129.4897302  96.3264895 119.0085787 126.2796437 104.6536687 116.3478561
 126.7434782 104.9324390 115.5583183 126.0153235 103.7520131 116.1651651
 123.1720518 104.2008168 119.2858324 123.7421875 104.6295437 118.6475808
 123.7628630 103.9190753 119.9842509 125.2165323 100.7759839 113.1568126
 125.9189366 101.2280883 113.6242052 124.8845951 100.1343658 113.7848019
 123.6645684  99.3671596 127.5319335 123.0344345 100.0487877 127.7654732
 123.5581772  99.2554677 126.5872473 118.9590657  99.0343392 118.4585259
 118.1689711  99.2900920 117.9825370 119.4501904  99.8491730 118.5637300
 132.9754466 106.3748631 121.2090540 133.7971910 105.9728818 120.9273222
 132.9716869 106.2716865 122.1606656 120.9105402  99.3987971 115.4168736
 120.1136565  99.5106665 115.9352232 120.6830994  99.7374623 114.5509626
 126.7411070 105.9232674 123.3651251 126.8055502 106.3853082 124.2009422
 126.0321994 105.2930039 123.4933560 117.2428360  99.2873882 120.8900250
 117.4936398 100.1720892 121.1557826 117.7787908  99.1078484 120.1175342
 141.0660459 102.7187380 117.5575512 140.3124168 102.1494778 117.4019516
 141.2008001 102.6850044 118.5046146 126.4559087 107.5900782 113.2330231
 126.3204762 108.4352318 113.6615079 126.9968900 107.7920059 112.4696165
 122.9426427  93.6692362 129.8944586 122.5493373  93.1158560 130.5692230
 123.7592567  93.9802940 130.2851104 119.9088485 105.1076220 113.8058156
 120.4213005 105.9019470 113.9563721 120.5611198 104.4102510 113.7391757
 121.7183370 108.2241976 115.8880909 121.8949998 109.1459941 115.7001893
 122.5140203 107.9100395 116.3175289 125.8594388  95.0850241 127.4864843
 126.6004101  95.6857394 127.4069305 126.0912311  94.3427879 126.9282885
 121.0035726 100.2706608 125.7643072 120.8889241  99.3691865 126.0650171
 120.1480244 100.5170305 125.4127889 128.0827564 108.2124348 127.3630573
 127.6391418 107.4260727 127.0451477 128.7444777 108.4003499 126.6974464
 122.8414685 109.7420150 121.8891251 123.3922110 109.6137213 121.1168245
 122.0026161 110.0415039 121.5386144 130.1808802 108.4927148 125.3911974
 130.1627277 109.3136029 124.8992243 131.1028722 108.3681223 125.6162115
 126.6381856 106.0071278 126.2335483 127.1710193 105.2459566 126.0034791
 126.1095937 105.7144930 126.9759637 129.8051551  91.1131344 121.7629124
 129.4615820  92.0032985 121.6868235 130.1730514  90.9233001 120.8998709
 117.8737402 103.4364874 114.5817726 118.7112624 103.8461883 114.3651434
 118.0515669 102.4964316 114.5517920 129.7701834 101.1039955 110.2701559
 129.2548457 101.8744559 110.5089947 129.4979142 100.4305091 110.8934621
 127.3548945  95.9489656 115.3286798 126.4990541  95.5596506 115.1492437
 127.7675897  96.0281616 114.4686583 128.8848091  93.4835999 119.7278358
 128.3812887  93.4466134 118.9146163 129.1778698  94.3928742 119.7875014
 125.1290977  93.5674729 118.7344539 125.9943974  93.3717537 118.3750429
 125.1968486  93.3385080 119.6613896 134.7436108 103.8572309 112.2054733
 133.9665551 103.5183469 111.7609895 135.4227589 103.8624933 111.5309698
 129.5588137  98.9767047 112.0961341 129.2538273  99.2913196 112.9471484
 130.5118579  99.0548467 112.1388674 128.0034569 105.1357270 113.7454295
 127.4755930 104.4010030 113.4327532 127.5022072 105.9131947 113.4994263
 132.9827415 103.3306291 118.8621341 132.3251089 104.0205552 118.9501470
 133.7867814 103.7202723 119.2055327 122.7353296  95.7976937 116.1060906
 123.3097048  95.5752118 115.3734099 123.3224279  95.8665631 116.8589507
 131.7932874 101.6850663 116.9125283 132.3064755 102.3180655 117.4146992
 132.4434097 101.0851859 116.5468643 123.0622883  97.8281398 110.1256791
 122.2260196  98.1656084 110.4466066 122.9227653  97.6930377 109.1883928
 125.0375964  92.6718185 114.8335976 124.3840376  92.3567203 114.2092590
 124.9956438  92.0493926 115.5595798 126.1487169 102.9537480 106.7489268
 125.2414231 102.7226734 106.9480417 126.6458201 102.1575100 106.9363249
 129.0555248 111.6634988 109.6685954 128.3816947 111.9666684 110.2770912
 129.4421070 112.4664068 109.3191411 128.2713704  99.1600119 119.1583623
 127.3536266  99.3815066 119.0005311 128.6873848  99.2346429 118.2995331
 129.0548752 100.5591535 114.2886303 129.8020571 101.0712932 113.9793425
 129.3240342 100.2375587 115.1490697 127.3275402 103.0550075 111.2713258
 126.4186622 102.7709108 111.3685727 127.3570486 103.4749154 110.4116565
 132.5594670 106.6656665 115.0404425 132.1056997 105.8247575 115.0969616
 131.9288637 107.3018063 115.3779205 131.5027589  97.5948651 116.2705093
 130.7650346  97.0826037 116.6015335 131.7554363  97.1549032 115.4588370
 131.0027609 108.5033162 115.9754243 131.2950583 109.0638219 115.2566609
 131.5126230 108.7961723 116.7307403 131.6039217  90.3724903 116.8646862
 131.9098094  89.5122266 116.5772777 132.3291822  90.9642523 116.6645856
 117.8963573 100.7755589 115.2528460 117.6987973 100.1824950 114.5279526
 117.3410237 100.4707800 115.9704399 125.8760296 100.6678696 117.3723053
 125.9308906  99.7152532 117.2965530 125.0651498 100.8238135 117.8564351
 127.0251490 104.5958819 108.6101336 126.5870920 103.8794678 108.1506974
 127.7661931 104.8234934 108.0486428 123.8152656  99.2855756 115.1313432
 123.0020522  99.5849926 115.5378624 124.3111651  98.8911444 115.8487914
 125.9661234 109.2813513 117.0647697 125.9237413 109.5074359 116.1356229
 126.8823933 109.0476887 117.2133498 129.4126868  99.7497580 123.9628326
 129.7676256  99.9769053 124.8222792 130.0598999 100.0815957 123.3405581
 135.1424605 102.8716016 114.6677655 135.0042504 103.0617612 113.7398844
 134.7860824 103.6335399 115.1245706 123.3066731  96.8574111 120.7474667
 123.9466110  96.7162870 120.0497630 122.4744262  96.5708625 120.3713269
 135.1693985 104.9392543 119.6788926 135.6030491 104.8467832 120.5271980
 135.8825565 104.9150044 119.0408942 124.0827035 106.1576542 116.8609659
 124.8767634 105.6626862 116.6592234 123.3718727 105.6294405 116.4977365
 128.9021879 108.5394637 121.2122027 128.9558902 109.1085573 121.9799743
 128.0336661 108.7096522 120.8476064 120.3909798 100.3019623 112.9369412
 119.4607387 100.2404079 113.1539374 120.4867270  99.7795576 112.1406053
 120.3095348  96.8274436 115.5247654 120.5702165  97.7419769 115.4156814
 121.1312520  96.3598879 115.6744267 121.7820273  98.2412193 122.6946478
 122.4543326  98.0329556 122.0459127 120.9550059  98.0434279 122.2551711
 136.0309534 104.9816244 122.2121812 136.2245424 105.8862054 122.4581087
 135.9310152 104.5223663 123.0460397 127.6845845  94.8674134 124.7112139
 127.0373760  95.5664084 124.6176616 128.4546860  95.3010278 125.0788387
 131.0924643 105.1322986 127.7862692 130.9410149 104.9033538 126.8692776
 131.0829322 106.0893588 127.7994037 127.8609979 102.7054899 122.7708959
 128.7902039 102.8566059 122.5977926 127.4401009 102.7938920 121.9157605
 126.6598311 106.7305564 120.5407496 126.5209397 106.3624348 121.4133435
 125.8712907 107.2453203 120.3691454 127.2546463 111.8314660 111.8833033
 127.4298219 111.3602703 112.6978656 126.5679251 112.4580426 112.1114294
 128.2103526 106.1087166 117.9296334 127.8753359 106.0687936 118.8253984
 127.7107472 105.4431882 117.4566744 122.1847770 101.5154796 123.4548915
 122.0467568 100.7835035 124.0560454 123.0952694 101.4263696 123.1733103
 131.1462718 103.4543201 108.2033394 130.5291888 102.7290029 108.1066447
 130.6779206 104.2152561 107.8600468 124.8130071 101.2274756 122.9432595
 125.5229689 100.5867948 122.9019213 124.7699379 101.4787651 123.8658776
 132.8016849 108.1642109 125.8639174 132.7429396 107.4801329 125.1969757
 133.2036368 108.9061099 125.4119800 123.5259005  98.2139974 124.7628235
 122.9896362  97.7630712 125.4149831 122.9375713  98.3485882 124.0198699
 121.8207548 114.9804023 118.6572893 122.0604146 115.6122547 119.3351912
 120.9776745 114.6292063 118.9438252 122.9361264  97.6728625 107.3254698
 122.0590730  97.5517426 106.9616945 123.4119017  96.8814703 107.0733587
 132.8034257 106.1281693 124.0953154 131.9161036 105.7907615 124.2179553
 133.3732808 105.3964724 124.3321919 114.4563404 102.4605785 117.4196205
 115.1434444 102.1467515 116.8317221 114.3011533 103.3647149 117.1463457
 119.2598126  97.3495981 121.8481229 119.1756315  96.7421651 121.1131639
 118.4380832  97.8405000 121.8490725 126.3335410 110.7883145 121.0614397
 126.2605582 111.5938117 121.5733702 125.8912803 110.9875111 120.2362419
 126.1225190 110.0254915 114.5717219 125.3392712 110.5676596 114.6655443
 126.8217935 110.5428895 114.9711460 129.4321840  95.8349545 117.2151424
 129.9290539  95.0819507 116.8952494 128.6608821  95.8713861 116.6494633
 137.2851597 101.5389910 118.8569716 137.2741474 102.4214626 118.4863649
 136.4168977 101.1861461 118.6624253 128.7934094 110.6869979 123.2172556
 129.5062066 111.3217444 123.1448457 128.3024122 110.7833845 122.4012558
 130.5151621 104.5921232 114.7889847 129.5807899 104.7122694 114.6194552
 130.6928289 103.6893699 114.5249857 126.0156809  97.9766928 116.9423109
 125.6454596  97.4237968 117.6304014 126.5115901  97.3725061 116.3898109
 133.9024172 100.4338551 115.3239882 134.3684624 101.2666543 115.2500184
 134.3531672  99.9683533 116.0285140 123.8446007 108.4364423 124.0378127
 124.5455467 109.0700906 124.1907521 123.3741122 108.7779154 123.2773766
 131.9700403 106.7782373 112.3226034 132.2460247 106.6638967 113.2319908
 131.1004902 106.3799857 112.2838207 131.8740835  92.8019138 119.3630783
 130.9603914  93.0323365 119.5312990 132.3033936  92.8857582 120.2144815
 131.6447293 100.9909030 121.8630677 130.9918743 101.2384938 121.2083130
 132.0227673 100.1773168 121.5293154 128.6054467 111.0268723 115.9658847
 128.7876862 110.2090379 116.4286600 129.4287453 111.2436416 115.5283737
 128.9396633 109.9536909 113.2273896 129.4684399 109.4429363 112.6144058
 129.2024852 109.6379439 114.0919429 127.6934866 101.7328841 128.3496714
 127.0175503 101.6322971 129.0199089 128.5162500 101.5768055 128.8132711
 119.4413725 107.9700778 120.9709229 120.0267162 107.2244466 121.1037133
 119.2438564 108.2804735 121.8545893 122.2952380 111.0052025 115.9871672
 121.6262756 111.4898153 115.5035712 122.1565250 111.2521246 116.9015050
 114.0331380 100.5406378 119.6913672 114.0715479 100.0069969 120.4850791
 113.5271673 100.0141584 119.0724650 126.4357649 113.0395769 122.5854330
 126.9875957 113.2027390 123.3503415 126.7763843 113.6300207 121.9134355
 121.4122142  95.3870919 123.1876215 121.4763469  96.2485749 122.7753612
 121.3489263  94.7744920 122.4548573 120.8874415  97.4594051 126.8349249
 121.5146454  97.0771128 127.4486773 120.0302334  97.2408253 127.2004941
 131.2868523 107.8657026 128.4402984 131.8308427 108.4786985 127.9457939
 130.7055368 108.4236605 128.9569997 117.6639958  99.2670480 112.7667604
 117.9593399  98.3581159 112.7134658 116.7627993  99.2458220 112.4448606
 129.5726036 110.9877744 119.5718012 129.4477176 110.1867484 119.0628958
 130.2305127 111.4823938 119.0831982 121.1934205  97.3426477 118.7495152
 120.4720790  97.9562445 118.6102626 121.9827460  97.8784242 118.6711798
 131.6360945 108.7886764 121.1997562 130.6891280 108.6692116 121.1275889
 131.9843718 107.9009262 121.2823824 123.9960518  94.6780903 125.0235804
 124.5194920  94.9243200 125.7862113 123.7772851  95.5100938 124.6038942
 119.3927799  96.9484578 112.8906929 119.0640505  96.0681957 112.7082035
 119.7467170  96.8932247 113.7783318 128.6407378 108.5839481 117.4001915
 128.4932340 107.6556188 117.5809485 129.4660872 108.6059571 116.9158990
 122.5069622  97.2357548 113.2582407 122.8465695  97.7643469 112.5361015
 122.9541743  97.5737954 114.0340973 132.2441500 109.4068039 118.4866787
 133.1688047 109.2010901 118.3491238 132.0756803 109.1584440 119.3956129
 125.2013063  95.6194598 122.7085475 124.8609883  94.8202411 123.1106155
 124.4952069  95.9196309 122.1362308 125.8529535  92.7043911 121.1612798
 126.6755604  92.2304389 121.0391688 126.0967598  93.4834395 121.6611484
 124.4937769  95.7332169 111.4575699 125.2146132  96.1113422 110.9539416
 123.8703074  96.4521046 111.5610677 128.6368892  96.4377318 112.3934032
 128.8532507  97.3201956 112.0922860 128.1562959  96.0463532 111.6639674
 123.3768114  99.3963031 118.9704776 123.2312694  99.7103335 119.8629058
 122.8993317 100.0147932 118.4175675 125.2364497  96.3865579 119.0185666
 125.2226065  95.4906673 118.6817964 125.9536925  96.3936243 119.6523952
 127.0890627  96.8202920 121.0638793 126.8308405  97.7419990 121.0623124
 126.5575668  96.4233354 121.7539257 132.0336816 109.9253707 113.8428879
 132.2073694 109.3600129 113.0902731 132.5265707 110.7254602 113.6608369
 117.8513776 101.9368376 121.9092438 117.3067244 102.7128184 122.0412712
 118.7293126 102.2839180 121.7511559 124.6401393  95.2679960 114.2873236
 124.7617304  94.3396606 114.4864124 124.3503435  95.2818646 113.3751551
 127.5092583  92.9534870 117.4239956 127.5314280  93.0174203 116.4691935
 127.9260642  92.1139379 117.6180462 137.8876207 102.6890130 115.4619178
 138.3307353 101.9397455 115.0638302 137.0102718 102.6800266 115.0792910
 133.0211989 109.2420471 110.9425777 133.7162893 109.8627164 111.1613092
 133.3635139 108.3915822 111.2178155 118.6379798 101.0638272 124.8022594
 117.8961534 101.2120907 125.3887225 118.3172542 101.3246538 123.9389344
 134.9203412 106.6920177 112.4713108 135.4454736 107.0307449 111.7462428
 134.8325764 105.7567192 112.2876242 126.5823460 110.6054250 124.6002984
 126.8910587 110.3603397 125.4725684 127.3798942 110.8100889 124.1121855
 126.6044072 112.7592160 116.8308361 126.1649063 112.2668539 117.5241218
 127.3552189 112.2165128 116.5900436 119.0836411 108.9503701 116.8332989
 119.9094431 108.6507473 116.4531633 118.7330463 108.1811323 117.2822778
 124.0517945 108.3030169 118.9030663 123.4297954 107.6400874 118.6032890
 124.7222811 108.3291301 118.2204310 117.2845016 106.8690027 117.7921923
 116.4476925 106.4412202 117.6105924 117.2568662 107.0622471 118.7292714
 124.1242472  96.7811957 128.4963169 124.1730628  97.6574080 128.1140938
 124.6664986  96.2389350 127.9234812 134.6097318 107.3253080 127.7764306
 133.8192861 107.3077219 127.2368805 134.3730672 107.8641374 128.5313342
 134.7295193 104.1745547 125.0897034 134.7793198 104.0095554 126.0312557
 134.6209116 103.3072806 124.6994915 123.6131451 106.8534092 112.3789123
 123.7619572 107.5369557 111.7255796 124.4197895 106.8339182 112.8938579
 132.0198955 100.1576475 126.4056341 132.9208818 100.0182940 126.1140339
 132.0946930 100.3230930 127.3454518 126.3541761  97.5343330 125.2509527
 125.4845070  97.8276896 124.9792116 126.5901241  98.1183775 125.9716791
 136.2313390 106.5942488 125.3339056 135.9398198 106.9572469 126.1702517
 135.6185521 105.8809497 125.1552388 137.4309072 104.1595368 117.8541626
 138.2655963 104.5985172 118.0179186 137.5668201 103.6834021 117.0349872
 134.4800578 101.7175103 123.8019114 134.9554699 101.9102749 122.9937965
 133.5566143 101.7734289 123.5562497 121.3684084 102.8799270 113.3850192
 121.1230126 101.9761600 113.5830402 121.5379999 102.8816420 112.4429670
 129.0580794  93.7522946 122.7674948 129.5762738  94.4883973 122.4421436
 128.7035927  94.0586940 123.6021707 120.6379732  98.6127628 110.8836354
 119.9448977  98.6871983 110.2276390 120.3931484  97.8487971 111.4057870
 129.3093389  90.1723229 118.2875844 129.5895142  89.5046418 118.9136271
 130.0943995  90.3652325 117.7750508 127.1126857 109.3482223 109.8500871
 126.5400824 109.9672410 109.3971342 127.6859651 109.8981585 110.3840793
 133.1802247  98.5940863 122.0347419 134.1319670  98.6938961 122.0559643
 133.0105697  97.8019132 122.5445504 131.2016626  95.6796446 122.2206820
 130.6066558  95.9601459 121.5253309 130.9166323  96.1690347 122.9923561
 130.3324117 109.6319373 110.9809453 131.2654790 109.5664935 111.1842328
 130.2447330 110.4675640 110.5223986 132.9612133 108.9485243 107.9413400
 132.8825765 108.6145107 108.8349158 133.7821800 109.4407011 107.9404873
 135.6590325 101.8146983 121.1489719 135.6266645 100.8762983 121.3349403
 136.2690948 101.8931019 120.4155544 127.4973656 100.6843036 107.1916923
 128.4432760 100.5549244 107.2605341 127.1187900  99.9457698 107.6686351
 135.8084813  98.6058026 121.1948002 135.2923862  97.8216483 121.0077931
 136.6924762  98.2776743 121.3594522 133.4695540  92.3499042 117.1543815
 133.2720361  92.0414130 118.0387147 134.0795246  93.0760681 117.2841745
 141.4766875 102.8762989 120.2895756 142.2070263 102.6148278 120.8503459
 140.8673820 102.1391711 120.3297824 139.5582172 101.0170852 120.8870207
 138.8315335 100.8826817 120.2786699 139.1429459 101.3247681 121.6926925
 127.3812348 104.7360782 128.6517580 128.3015358 104.9139381 128.8457627
 127.3461931 103.7916827 128.4997279 125.6816573  98.6093012 107.1271808
 124.7748028  98.3126125 107.2034522 125.9592554  98.3122830 106.2606095
 116.5994513  99.9299375 117.5770855 116.2797297  99.0764684 117.2845229
 116.0527941 100.1447954 118.3328822 120.3774421 102.6461816 121.2940361
 120.5960430 103.5778924 121.3128395 120.7900194 102.2869791 122.0795165
 127.2978638  93.1529902 113.2816050 126.4879367  92.8076987 113.6571296
 127.9863055  92.8437445 113.8703661 129.2269187  92.2307949 114.9040346
 129.7800225  92.6503402 115.5630369 129.4639273  91.3043697 114.9463302
 125.2502286  98.2195022 130.6843110 125.1499013  99.1689379 130.6155201
 125.0323828  97.8913261 129.8119180 124.4515357  95.4679947 107.2683788
 125.3134521  95.7934846 107.5279605 124.6365701  94.6811443 106.7556853
 116.4682773 103.5502287 119.5463976 115.7746244 103.1356240 119.0333931
 117.2155764 103.5922823 118.9497395 132.6047994  94.3408474 114.4119011
 132.0246663  94.9993278 114.0297063 132.3383926  93.5185818 114.0006428
 131.0551560  93.7413531 116.6140331 131.5551338  93.8530066 115.8054650
 131.6987168  93.4374584 117.2541139 125.1133556 101.6492161 129.5008172
 124.6300638 102.4492521 129.7072061 125.1994495 101.6600106 128.5475616
 118.3819516 103.4820541 117.4229991 118.3590204 103.5808228 116.4711874
 118.6920152 104.3285691 117.7447157 121.0406893 105.5396696 121.5376606
 121.9950147 105.5080638 121.4706537 120.8419417 105.0787319 122.3526831
 121.6306276 104.1097812 124.1047403 122.4499165 104.6041890 124.1282241
 121.9043083 103.1929780 124.0764971 131.3872872  96.5008564 113.4675359
 130.4998727  96.7858215 113.2495554 131.8026861  96.3402327 112.6202636
 134.7387408  96.5255085 117.1829698 135.5147798  97.0151537 117.4554315
 134.0135542  96.9513139 117.6401568 137.1759967  97.2382704 118.2403639
 137.7704457  96.9978440 117.5296947 137.2486550  96.5189835 118.8677175
 119.3957122 111.0816315 118.5546803 119.2611590 110.3216716 117.9884802
 118.9789185 111.8057215 118.0875592 130.5316085 106.2653239 107.5623379
 131.2351935 106.4703241 108.1781034 129.8078734 106.8330001 107.8272462
 131.3613896 102.0163100 113.6825649 131.3049097 102.4731651 112.8433281
 131.9142238 101.2553785 113.5048492 135.1718701  97.8052832 114.5075768
 134.9155636  97.4049468 115.3383976 134.5471569  98.5196626 114.3825908
 139.4831039 100.5448905 117.0147060 138.9230597 100.6142094 117.7878622
 138.8774543 100.3689890 116.2946556 122.5526248 111.9785632 118.7665246
 122.4358632 112.9231065 118.6643936 121.7318694 111.6759194 119.1551045
 132.4402783 106.7035768 109.6121839 133.2748387 106.2716966 109.4299314
 132.2787126 106.5317782 110.5398733 132.0948675 103.2067881 110.9778178
 132.0397479 103.0412153 110.0366622 131.4694730 103.9143914 111.1340368
 116.8841190  98.4435946 124.8039600 117.5300053  97.9334900 125.2926825
 116.6758341  99.1804627 125.3783026 129.4094582 105.5116793 130.3031741
 130.2785742 105.6857445 129.9418376 128.9301333 106.3311210 130.1807470
 125.4044800  92.7075990 110.5563497 125.3923470  93.6517830 110.7131767
 126.2968222  92.5246136 110.2622958 123.5780762 112.6313894 121.9821175
 124.4808009 112.6637504 122.2987669 123.3518132 111.7014345 121.9967510
 125.3334364 111.3844881 118.6431253 124.3829995 111.3846742 118.5295625
 125.6366850 110.6377615 118.1267288 129.2196920  89.3018767 114.8109433
 128.4529316  88.7477254 114.9566116 129.6307625  89.3740636 115.6723585
 121.2238681  95.5903563 128.9014615 122.0870142  95.2340368 129.1117939
 120.6504091  95.2517458 129.5890019 141.0687058 117.2205419 119.7077016
 141.7065468 117.1012166 119.0040356 140.9507901 118.1686263 119.7664968
 137.8776764 117.1732847 119.6438540 137.5395276 117.0573912 118.7559075
 138.7466532 116.7724012 119.6239546 133.7363580 119.0268324 115.6335431
 133.1728445 118.9358261 114.8651719 133.6215975 118.2068228 116.1137924
 138.3596547 118.3267699 125.6024746 138.3485188 117.9320497 124.7305249
 138.5217186 117.5933771 126.1958517 131.2828012 120.5219515 118.4719652
 132.0749304 120.1810340 118.0565951 131.5224662 120.6314490 119.3921805
 139.3163138 122.6939291 110.9449896 138.6651118 123.2793372 110.5583910
 140.1107501 123.2245486 111.0044934 133.2418766 119.7828428 111.3437030
 134.0149642 119.2357416 111.2049906 133.5944164 120.6472678 111.5551492
 135.0803808 121.1104811 124.5503930 134.7893674 122.0150442 124.4350596
 135.7160793 121.1521338 125.2647999 136.0060015 118.4881659 121.1405289
 136.6023587 118.2637682 120.4262252 136.0634987 117.7466405 121.7430737
 135.5785043 115.9421095 108.9755480 135.8310564 115.4202616 108.2138943
 134.6409603 115.7787240 109.0782164 140.6228326 114.9456873 116.7830224
 141.4091415 114.5276296 116.4320641 140.8867031 115.8502965 116.9511872
 140.7938404 120.3829723 111.4818880 140.1584237 120.4564350 112.1939785
 140.4635810 120.9723322 110.8037960 146.0236753 114.8832106 117.6863202
 146.7561925 114.3131323 117.9201032 145.2676109 114.4953707 118.1269708
 135.2981332 117.8449200 111.1779855 135.1817590 117.1694104 111.8460940
 135.4083592 117.3581574 110.3612008 137.6412873 117.3059348 114.8826545
 137.2771080 116.7789969 115.5939466 138.4979989 116.9157817 114.7093030
 143.5462174 108.5953680 122.1457811 143.2145499 109.4649091 121.9219026
 142.9507787 108.2789964 122.8251841 137.2818360 112.3349247 109.8787893
 137.4492762 113.2029484 110.2458364 137.0915529 112.4976529 108.9549182
 140.0393693 120.7966226 121.5453723 139.7394416 121.6991265 121.4369531
 139.6944753 120.5298409 122.3974876 133.4906175 117.2480023 117.5790428
 132.5656671 117.1156237 117.7868120 133.7390588 118.0274242 118.0760370
 143.4390837 113.3148766 119.2251161 142.5307714 113.2464175 118.9309922
 143.3878433 113.7920711 120.0532986 137.2607581 114.7906905 110.8634560
 137.1407206 115.2363956 111.7020040 136.5660169 115.1392222 110.3048098
 130.8514986 116.8913297 118.4134217 130.9807367 117.1447776 119.3273629
 130.1712437 117.4841005 118.0938872 135.0214473 127.5610547 114.5124691
 134.9438503 128.5118372 114.5913172 134.4176117 127.2156419 115.1699617
 137.5131703 114.7338412 127.1686058 136.7365037 115.2932332 127.1588923
 138.1522266 115.2195195 127.6900928 145.3052483 111.5165205 121.0029035
 144.6626864 111.8097738 120.3568829 144.8007412 111.4018125 121.8082231
 142.9592647 115.2628378 111.6914894 143.8710503 115.4955765 111.5162591
 142.4502294 115.8465422 111.1289973 135.7678075 117.5423865 126.7304025
 136.5092759 118.0808909 126.4538849 135.0615061 118.1690154 126.8875577
 137.5964485 114.6225613 122.7009743 138.4425680 115.0465026 122.8444392
 137.5363122 113.9659237 123.3948307 141.5662229 120.2454196 119.0828475
 140.9371092 120.4099911 118.3804543 141.1787891 120.6595806 119.8539439
 145.4451461 121.1808634 116.4372839 144.7602499 121.5607536 115.8869872
 145.5295311 121.7903961 117.1704787 140.7463930 112.2829981 124.3590917
 140.5024862 113.0372041 123.8225193 141.0223861 112.6615329 125.1938164
 142.7002393 118.8268593 123.0368183 142.9119288 119.4700353 122.3602564
 142.6532141 117.9930910 122.5690113 140.3028622 111.4386414 119.9404755
 139.4413101 111.7367668 120.2321492 140.3291057 111.6556813 119.0085787
 137.1190191 119.9828605 116.3478561 137.5828537 120.2616307 115.5583183
 136.8546989 119.0812049 116.1651651 134.0114272 119.5300086 119.2858324
 134.5815629 119.9587354 118.6475808 134.6022384 119.2482671 119.9842509
 136.0559077 116.1051757 113.1568126 136.7583121 116.5572801 113.6242052
 135.7239706 115.4635576 113.7848019 134.5039439 114.6963514 127.5319335
 133.8738099 115.3779794 127.7654732 134.3975527 114.5846595 126.5872473
 129.7984411 114.3635310 118.4585259 129.0083465 114.6192838 117.9825370
 130.2895659 115.1783647 118.5637300 143.8148221 121.7040549 121.2090540
 144.6365665 121.3020736 120.9273222 143.8110624 121.6008783 122.1606656
 131.7499157 114.7279889 115.4168736 130.9530320 114.8398583 115.9352232
 131.5224749 115.0666541 114.5509626 137.5804824 121.2524592 123.3651251
 137.6449257 121.7144999 124.2009422 136.8715748 120.6221957 123.4933560
 128.0822114 114.6165800 120.8900250 128.3330153 115.5012810 121.1557826
 128.6181663 114.4370402 120.1175342 151.9054214 118.0479297 117.5575512
 151.1517922 117.4786695 117.4019516 152.0401755 118.0141962 118.5046146
 137.2952842 122.9192700 113.2330231 137.1598517 123.7644235 113.6615079
 137.8362654 123.1211977 112.4696165 133.7820182 108.9984279 129.8944586
 133.3887127 108.4450478 130.5692230 134.5986322 109.3094858 130.2851104
 130.7482239 120.4368138 113.8058156 131.2606760 121.2311388 113.9563721
 131.4004952 119.7394428 113.7391757 132.5577124 123.5533894 115.8880909
 132.7343752 124.4751859 115.7001893 133.3533958 123.2392313 116.3175289
 136.6988143 110.4142158 127.4864843 137.4397856 111.0149312 127.4069305
 136.9306065 109.6719796 126.9282885 131.8429481 115.5998526 125.7643072
 131.7282996 114.6983783 126.0650171 130.9873998 115.8462222 125.4127889
 133.6808440 125.0712068 121.8891251 134.2315865 124.9429131 121.1168245
 132.8419915 125.3706957 121.5386144 140.6445306 106.4423261 121.7629124
 140.3009575 107.3324903 121.6868235 141.0124268 106.2524919 120.8998709
 128.7131156 118.7656792 114.5817726 129.5506378 119.1753800 114.3651434
 128.8909424 117.8256234 114.5517920 140.6095588 116.4331872 110.2701559
 140.0942212 117.2036477 110.5089947 140.3372897 115.7597009 110.8934621
 138.1942699 111.2781573 115.3286798 137.3384296 110.8888424 115.1492437
 138.6069651 111.3573534 114.4686583 139.7241846 108.8127917 119.7278358
 139.2206642 108.7758052 118.9146163 140.0172453 109.7220659 119.7875014
 135.9684732 108.8966646 118.7344539 136.8337729 108.7009455 118.3750429
 136.0362241 108.6676998 119.6613896 145.5829862 119.1864227 112.2054733
 144.8059305 118.8475387 111.7609895 146.2621343 119.1916850 111.5309698
 140.3981891 114.3058965 112.0961341 140.0932027 114.6205114 112.9471484
 141.3512334 114.3840384 112.1388674 138.8428323 120.4649188 113.7454295
 138.3149685 119.7301947 113.4327532 138.3415826 121.2423864 113.4994263
 143.8221169 118.6598208 118.8621341 143.1644844 119.3497470 118.9501470
 144.6261569 119.0494640 119.2055327 133.5747051 111.1268854 116.1060906
 134.1490803 110.9044036 115.3734099 134.1618033 111.1957549 116.8589507
 142.6326628 117.0142581 116.9125283 143.1458510 117.6472573 117.4146992
 143.2827852 116.4143777 116.5468643 133.9016638 113.1573315 110.1256791
 133.0653950 113.4948002 110.4466066 133.7621408 113.0222295 109.1883928
 135.8769719 108.0010103 114.8335976 135.2234131 107.6859120 114.2092590
 135.8350193 107.3785844 115.5595798 136.9880923 118.2829398 106.7489268
 136.0807985 118.0518652 106.9480417 137.4851955 117.4867017 106.9363249
 139.8949002 126.9926905 109.6685954 139.2210701 127.2958602 110.2770912
 140.2814824 127.7955986 109.3191411 139.1107459 114.4892037 119.1583623
 138.1930020 114.7106984 119.0005311 139.5267603 114.5638347 118.2995331
 139.8942507 115.8883452 114.2886303 140.6414326 116.4004850 113.9793425
 140.1634096 115.5667505 115.1490697 138.1669157 118.3841993 111.2713258
 137.2580376 118.1001026 111.3685727 138.1964241 118.8041072 110.4116565
 143.3988424 121.9948583 115.0404425 142.9450751 121.1539492 115.0969616
 142.7682391 122.6309981 115.3779205 142.3421344 112.9240569 116.2705093
 141.6044101 112.4117955 116.6015335 142.5948117 112.4840950 115.4588370
 141.8421364 123.8325079 115.9754243 142.1344338 124.3930136 115.2566609
 142.3519984 124.1253640 116.7307403 142.4432971 105.7016821 116.8646862
 142.7491848 104.8414184 116.5772777 143.1685576 106.2934441 116.6645856
 128.7357327 116.1047507 115.2528460 128.5381727 115.5116868 114.5279526
 128.1803991 115.7999717 115.9704399 136.7154051 115.9970614 117.3723053
 136.7702661 115.0444450 117.2965530 135.9045253 116.1530053 117.8564351
 137.8645245 119.9250737 108.6101336 137.4264675 119.2086596 108.1506974
 138.6055686 120.1526852 108.0486428 134.6546411 114.6147673 115.1313432
 133.8414276 114.9141844 115.5378624 135.1505405 114.2203362 115.8487914
 136.8054989 124.6105430 117.0647697 136.7631168 124.8366277 116.1356229
 137.7217688 124.3768805 117.2133498 140.2520623 115.0789498 123.9628326
 140.6070010 115.3060971 124.8222792 140.8992754 115.4107875 123.3405581
 145.9818359 118.2007934 114.6677655 145.8436258 118.3909530 113.7398844
 145.6254578 118.9627317 115.1245706 134.1460486 112.1866029 120.7474667
 134.7859865 112.0454788 120.0497630 133.3138016 111.9000542 120.3713269
 146.0087739 120.2684461 119.6788926 146.4424246 120.1759750 120.5271980
 146.7219320 120.2441961 119.0408942 134.9220790 121.4868459 116.8609659
 135.7161388 120.9918779 116.6592234 134.2112482 120.9586322 116.4977365
 139.7415634 123.8686555 121.2122027 139.7952656 124.4377491 121.9799743
 138.8730415 124.0388440 120.8476064 131.2303553 115.6311541 112.9369412
 130.3001141 115.5695997 113.1539374 131.3261025 115.1087494 112.1406053
 131.1489102 112.1566354 115.5247654 131.4095919 113.0711687 115.4156814
 131.9706274 111.6890796 115.6744267 132.6214027 113.5704111 122.6946478
 133.2937081 113.3621473 122.0459127 131.7943814 113.3726197 122.2551711
 138.5239599 110.1966052 124.7112139 137.8767514 110.8956002 124.6176616
 139.2940615 110.6302196 125.0788387 138.7003734 118.0346817 122.7708959
 139.6295794 118.1857977 122.5977926 138.2794764 118.1230838 121.9157605
 137.4992066 122.0597481 120.5407496 137.3603151 121.6916266 121.4133435
 136.7106662 122.5745121 120.3691454 138.0940217 127.1606578 111.8833033
 138.2691973 126.6894621 112.6978656 137.4073006 127.7872344 112.1114294
 139.0497281 121.4379084 117.9296334 138.7147113 121.3979854 118.8253984
 138.5501226 120.7723800 117.4566744 133.0241525 116.8446714 123.4548915
 132.8861323 116.1126953 124.0560454 133.9346448 116.7555614 123.1733103
 141.9856472 118.7835118 108.2033394 141.3685643 118.0581947 108.1066447
 141.5172961 119.5444479 107.8600468 135.6523825 116.5566673 122.9432595
 136.3623444 115.9159866 122.9019213 135.6093133 116.8079568 123.8658776
 134.3652759 113.5431891 124.7628235 133.8290116 113.0922630 125.4149831
 133.7769468 113.6777800 124.0198699 132.6601303 130.3095941 118.6572893
 132.8997901 130.9414465 119.3351912 131.8170499 129.9583981 118.9438252
 133.7755018 113.0020543 107.3254698 132.8984485 112.8809343 106.9616945
 134.2512771 112.2106621 107.0733587 125.2957158 117.7897702 117.4196205
 125.9828198 117.4759432 116.8317221 125.1405287 118.6939067 117.1463457
 130.0991880 112.6787899 121.8481229 130.0150069 112.0713568 121.1131639
 129.2774587 113.1696917 121.8490725 137.1729165 126.1175063 121.0614397
 137.0999336 126.9230034 121.5733702 136.7306558 126.3167029 120.2362419
 136.9618944 125.3546833 114.5717219 136.1786466 125.8968513 114.6655443
 137.6611689 125.8720813 114.9711460 140.2715594 111.1641462 117.2151424
 140.7684294 110.4111425 116.8952494 139.5002576 111.2005779 116.6494633
 148.1245352 116.8681828 118.8569716 148.1135228 117.7506543 118.4863649
 147.2562731 116.5153379 118.6624253 141.3545375 119.9213150 114.7889847
 140.4201654 120.0414612 114.6194552 141.5322044 119.0185616 114.5249857
 136.8550563 113.3058845 116.9423109 136.4848351 112.7529886 117.6304014
 137.3509656 112.7016979 116.3898109 144.7417926 115.7630469 115.3239882
 145.2078379 116.5958461 115.2500184 145.1925427 115.2975451 116.0285140
 134.6839762 123.7656340 124.0378127 135.3849221 124.3992823 124.1907521
 134.2134877 124.1071072 123.2773766 142.8094158 122.1074290 112.3226034
 143.0854001 121.9930885 113.2319908 141.9398656 121.7091775 112.2838207
 142.7134589 108.1311056 119.3630783 141.7997669 108.3615283 119.5312990
 143.1427691 108.2149500 120.2144815 142.4841048 116.3200948 121.8630677
 141.8312498 116.5676855 121.2083130 142.8621428 115.5065086 121.5293154
 139.4448222 126.3560641 115.9658847 139.6270616 125.5382297 116.4286600
 140.2681208 126.5728333 115.5283737 139.7790387 125.2828826 113.2273896
 140.3078153 124.7721281 112.6144058 140.0418607 124.9671356 114.0919429
 130.2807480 123.2992696 120.9709229 130.8660917 122.5536383 121.1037133
 130.0832318 123.6096652 121.8545893 133.1346135 126.3343943 115.9871672
 132.4656510 126.8190071 115.5035712 132.9959005 126.5813163 116.9015050
 124.8725134 115.8698296 119.6913672 124.9109234 115.3361886 120.4850791
 124.3665427 115.3433501 119.0724650 132.2515897 110.7162836 123.1876215
 132.3157223 111.5777667 122.7753612 132.1883017 110.1036838 122.4548573
 131.7268169 112.7885969 126.8349249 132.3540208 112.4063046 127.4486773
 130.8696088 112.5700171 127.2004941 128.5033712 114.5962398 112.7667604
 128.7987153 113.6873076 112.7134658 127.6021748 114.5750137 112.4448606
 140.4119791 126.3169662 119.5718012 140.2870930 125.5159402 119.0628958
 141.0698882 126.8115855 119.0831982 132.0327959 112.6718394 118.7495152
 131.3114545 113.2854362 118.6102626 132.8221215 113.2076159 118.6711798
 142.4754699 124.1178682 121.1997562 141.5285035 123.9984033 121.1275889
 142.8237472 123.2301180 121.2823824 134.8354273 110.0072821 125.0235804
 135.3588674 110.2535118 125.7862113 134.6166606 110.8392856 124.6038942
 130.2321554 112.2776496 112.8906929 129.9034260 111.3973874 112.7082035
 130.5860924 112.2224164 113.7783318 139.4801133 123.9131398 117.4001915
 139.3326095 122.9848106 117.5809485 140.3054626 123.9351489 116.9158990
 133.3463377 112.5649465 113.2582407 133.6859449 113.0935387 112.5361015
 133.7935497 112.9029871 114.0340973 143.0835254 124.7359957 118.4866787
 144.0081802 124.5302818 118.3491238 142.9150558 124.4876358 119.3956129
 136.0406818 110.9486516 122.7085475 135.7003638 110.1494329 123.1106155
 135.3345824 111.2488227 122.1362308 136.6923289 108.0335828 121.1612798
 137.5149359 107.5596307 121.0391688 136.9361353 108.8126312 121.6611484
 135.3331524 111.0624087 111.4575699 136.0539886 111.4405340 110.9539416
 134.7096828 111.7812964 111.5610677 139.4762647 111.7669236 112.3934032
 139.6926261 112.6493874 112.0922860 138.9956714 111.3755449 111.6639674
 134.2161868 114.7254949 118.9704776 134.0706449 115.0395252 119.8629058
 133.7387072 115.3439849 118.4175675 136.0758251 111.7157497 119.0185666
 136.0619820 110.8198590 118.6817964 136.7930679 111.7228161 119.6523952
 137.9284382 112.1494837 121.0638793 137.6702160 113.0711908 121.0623124
 137.3969422 111.7525272 121.7539257 142.8730571 125.2545624 113.8428879
 143.0467448 124.6892047 113.0902731 143.3659462 126.0546519 113.6608369
 128.6907530 117.2660294 121.9092438 128.1460998 118.0420101 122.0412712
 129.5686880 117.6131098 121.7511559 135.4795147 110.5971877 114.2873236
 135.6011058 109.6688524 114.4864124 135.1897189 110.6110563 113.3751551
 138.3486337 108.2826788 117.4239956 138.3708034 108.3466121 116.4691935
 138.7654396 107.4431296 117.6180462 148.7269962 118.0182047 115.4619178
 149.1701108 117.2689373 115.0638302 147.8496472 118.0092184 115.0792910
 143.8605743 124.5712389 110.9425777 144.5556648 125.1919082 111.1613092
 144.2028893 123.7207740 111.2178155 129.4773552 116.3930190 124.8022594
 128.7355288 116.5412825 125.3887225 129.1566297 116.6538455 123.9389344
 145.7597166 122.0212094 112.4713108 146.2848490 122.3599367 111.7462428
 145.6719519 121.0859110 112.2876242 137.4437827 128.0884078 116.8308361
 137.0042817 127.5960456 117.5241218 138.1945944 127.5457045 116.5900436
 129.9230166 124.2795619 116.8332989 130.7488186 123.9799390 116.4531633
 129.5724218 123.5103241 117.2822778 134.8911699 123.6322087 118.9030663
 134.2691708 122.9692792 118.6032890 135.5616566 123.6583219 118.2204310
 128.1238771 122.1981945 117.7921923 127.2870679 121.7704119 117.6105924
 128.0962416 122.3914388 118.7292714 134.9636227 112.1103875 128.4963169
 135.0124382 112.9865998 128.1140938 135.5058741 111.5681268 127.9234812
 134.4525206 122.1826010 112.3789123 134.6013326 122.8661474 111.7255796
 135.2591649 122.1631100 112.8938579 137.1935515 112.8635247 125.2509527
 136.3238824 113.1568813 124.9792116 137.4294995 113.4475692 125.9716791
 148.2702826 119.4887286 117.8541626 149.1049718 119.9277090 118.0179186
 148.4061955 119.0125939 117.0349872 145.3194332 117.0467021 123.8019114
 145.7948454 117.2394667 122.9937965 144.3959898 117.1026206 123.5562497
 132.2077839 118.2091188 113.3850192 131.9623881 117.3053518 113.5830402
 132.3773754 118.2108338 112.4429670 139.8974549 109.0814864 122.7674948
 140.4156493 109.8175891 122.4421436 139.5429682 109.3878857 123.6021707
 131.4773486 113.9419545 110.8836354 130.7842731 114.0163900 110.2276390
 131.2325238 113.1779889 111.4057870 140.1487143 105.5015147 118.2875844
 140.4288897 104.8338336 118.9136271 140.9337750 105.6944242 117.7750508
 137.9520612 124.6774141 109.8500871 137.3794579 125.2964328 109.3971342
 138.5253405 125.2273502 110.3840793 144.0196001 113.9232781 122.0347419
 144.9713424 114.0230878 122.0559643 143.8499452 113.1311049 122.5445504
 142.0410381 111.0088364 122.2206820 141.4460313 111.2893377 121.5253309
 141.7560078 111.4982265 122.9923561 141.1717871 124.9611291 110.9809453
 142.1048544 124.8956852 111.1842328 141.0841084 125.7967558 110.5223986
 143.8005888 124.2777161 107.9413400 143.7219519 123.9437025 108.8349158
 144.6215555 124.7698929 107.9404873 146.4984079 117.1438900 121.1489719
 146.4660399 116.2054901 121.3349403 147.1084703 117.2222937 120.4155544
 138.3367410 116.0134953 107.1916923 139.2826515 115.8841161 107.2605341
 137.9581655 115.2749615 107.6686351 146.6478568 113.9349944 121.1948002
 146.1317616 113.1508400 121.0077931 147.5318516 113.6068660 121.3594522
 144.3089295 107.6790959 117.1543815 144.1114116 107.3706048 118.0387147
 144.9189000 108.4052598 117.2841745 152.3160629 118.2054907 120.2895756
 153.0464017 117.9440195 120.8503459 151.7067574 117.4683629 120.3297824
 150.3975926 116.3462770 120.8870207 149.6709090 116.2118735 120.2786699
 149.9823213 116.6539598 121.6926925 136.5210327 113.9384930 107.1271808
 135.6141783 113.6418042 107.2034522 136.7986308 113.6414748 106.2606095
 127.4388268 115.2591293 117.5770855 127.1191052 114.4056601 117.2845229
 126.8921696 115.4739871 118.3328822 131.2168175 117.9753734 121.2940361
 131.4354185 118.9070842 121.3128395 131.6293949 117.6161708 122.0795165
 138.1372393 108.4821819 113.2816050 137.3273121 108.1368904 113.6571296
 138.8256810 108.1729363 113.8703661 140.0662941 107.5599866 114.9040346
 140.6193980 107.9795320 115.5630369 140.3033028 106.6335614 114.9463302
 135.2909112 110.7971865 107.2683788 136.1528276 111.1226763 107.5279605
 135.4759456 110.0103361 106.7556853 127.3076528 118.8794205 119.5463976
 126.6139999 118.4648157 119.0333931 128.0549519 118.9214741 118.9497395
 143.4441748 109.6700391 114.4119011 142.8640417 110.3285195 114.0297063
 143.1777681 108.8477736 114.0006428 141.8945315 109.0705449 116.6140331
 142.3945093 109.1821984 115.8054650 142.5380923 108.7666502 117.2541139
 129.2213270 118.8112458 117.4229991 129.1983958 118.9100146 116.4711874
 129.5313907 119.6577609 117.7447157 131.8800648 120.8688613 121.5376606
 132.8343901 120.8372556 121.4706537 131.6813172 120.4079237 122.3526831
 132.4700030 119.4389729 124.1047403 133.2892919 119.9333808 124.1282241
 132.7436838 118.5221698 124.0764971 142.2266626 111.8300482 113.4675359
 141.3392481 112.1150132 113.2495554 142.6420615 111.6694245 112.6202636
 145.5781162 111.8547003 117.1829698 146.3541553 112.3443455 117.4554315
 144.8529297 112.2805057 117.6401568 148.0153721 112.5674622 118.2403639
 148.6098212 112.3270358 117.5296947 148.0880305 111.8481753 118.8677175
 130.2350877 126.4108233 118.5546803 130.1005345 125.6508634 117.9884802
 129.8182939 127.1349133 118.0875592 141.3709840 121.5945156 107.5623379
 142.0745690 121.7995159 108.1781034 140.6472489 122.1621918 107.8272462
 142.2007650 117.3455018 113.6825649 142.1442851 117.8023569 112.8433281
 142.7535992 116.5845702 113.5048492 146.0112456 113.1344750 114.5075768
 145.7549390 112.7341385 115.3383976 145.3865324 113.8488543 114.3825908
 150.3224794 115.8740823 117.0147060 149.7624352 115.9434012 117.7878622
 149.7168297 115.6981807 116.2946556 133.3920003 127.3077550 118.7665246
 133.2752387 128.2522982 118.6643936 132.5712449 127.0051111 119.1551045
 143.2796537 122.0327686 109.6121839 144.1142141 121.6008884 109.4299314
 143.1180880 121.8609699 110.5398733 142.9342429 118.5359799 110.9778178
 142.8791233 118.3704070 110.0366622 142.3088485 119.2435832 111.1340368
 127.7234944 113.7727863 124.8039600 128.3693808 113.2626817 125.2926825
 127.5152095 114.5096545 125.3783026 136.2438555 108.0367908 110.5563497
 136.2317225 108.9809748 110.7131767 137.1361977 107.8538053 110.2622958
 134.4174517 127.9605812 121.9821175 135.3201763 127.9929422 122.2987669
 134.1911887 127.0306263 121.9967510 136.1728119 126.7136798 118.6431253
 135.2223750 126.7138660 118.5295625 136.4760605 125.9669533 118.1267288
 140.0590674 104.6310685 114.8109433 139.2923070 104.0769171 114.9566116
 140.4701379 104.7032553 115.6723585 132.0632435 110.9195480 128.9014615
 132.9263897 110.5632285 129.1117939 131.4897846 110.5809375 129.5890019
 144.0812520 135.1120346 111.3437030 144.8543396 134.5649333 111.2049906
 144.4337919 135.9764595 111.5551492 146.4178798 131.2713012 108.9755480
 146.6704319 130.7494533 108.2138943 145.4803357 131.1079158 109.0782164
 146.1375087 133.1741118 111.1779855 146.0211345 132.4986022 111.8460940
 146.2477347 132.6873492 110.3612008 148.1212115 127.6641165 109.8787893
 148.2886517 128.5321401 110.2458364 147.9309284 127.8268447 108.9549182
 148.1001335 130.1198822 110.8634560 147.9800961 130.5655873 111.7020040
 147.4053924 130.4684140 110.3048098 153.7986402 130.5920296 111.6914894
 154.7104258 130.8247682 111.5162591 153.2896049 131.1757340 111.1289973
 146.8952832 131.4343675 113.1568126 147.5976875 131.8864718 113.6242052
 146.5633460 130.7927493 113.7848019 140.6378166 129.6927227 118.4585259
 139.8477220 129.9484756 117.9825370 141.1289413 130.5075565 118.5637300
 142.5892911 130.0571806 115.4168736 141.7924074 130.1690501 115.9352232
 142.3618503 130.3958459 114.5509626 141.5875994 135.7660055 113.8058156
 142.1000514 136.5603305 113.9563721 142.2398707 135.0686346 113.7391757
 139.5524911 134.0948710 114.5817726 140.3900133 134.5045718 114.3651434
 139.7303178 133.1548152 114.5517920 151.4489343 131.7623790 110.2701559
 150.9335966 132.5328395 110.5089947 151.1766651 131.0888926 110.8934621
 149.0336454 126.6073491 115.3286798 148.1778050 126.2180341 115.1492437
 149.4463406 126.6865452 114.4686583 146.8078486 124.2258564 118.7344539
 147.6731483 124.0301373 118.3750429 146.8755995 123.9968916 119.6613896
 151.2375646 129.6350882 112.0961341 150.9325781 129.9497031 112.9471484
 152.1906088 129.7132302 112.1388674 144.4140805 126.4560772 116.1060906
 144.9884557 126.2335953 115.3734099 145.0011788 126.5249466 116.8589507
 144.7410392 128.4865233 110.1256791 143.9047705 128.8239919 110.4466066
 144.6015162 128.3514213 109.1883928 146.7163473 123.3302021 114.8335976
 146.0627885 123.0151038 114.2092590 146.6743947 122.7077761 115.5595798
 147.8274678 133.6121316 106.7489268 146.9201740 133.3810569 106.9480417
 148.3245710 132.8158935 106.9363249 149.0062911 133.7133911 111.2713258
 148.0974131 133.4292944 111.3685727 149.0357995 134.1332989 110.4116565
 153.2826726 121.0308738 116.8646862 153.5885602 120.1706102 116.5772777
 154.0079330 121.6226358 116.6645856 139.5751082 131.4339425 115.2528460
 139.3775482 130.8408786 114.5279526 139.0197746 131.1291635 115.9704399
 148.7038999 135.2542654 108.6101336 148.2658429 134.5378513 108.1506974
 149.4449440 135.4818769 108.0486428 145.4940165 129.9439591 115.1313432
 144.6808031 130.2433762 115.5378624 145.9899160 129.5495280 115.8487914
 142.0697307 130.9603459 112.9369412 141.1394896 130.8987914 113.1539374
 142.1654779 130.4379411 112.1406053 141.9882857 127.4858272 115.5247654
 142.2489674 128.4003605 115.4156814 142.8100029 127.0182714 115.6744267
 152.8250227 134.1127036 108.2033394 152.2079397 133.3873864 108.1066447
 152.3566715 134.8736396 107.8600468 144.6148773 128.3312460 107.3254698
 143.7378239 128.2101261 106.9616945 145.0906526 127.5398539 107.0733587
 136.1350913 133.1189620 117.4196205 136.8221953 132.8051350 116.8317221
 135.9799042 134.0230985 117.1463457 151.1109349 126.4933380 117.2151424
 151.6078048 125.7403342 116.8952494 150.3396330 126.5297697 116.6494633
 147.6944318 128.6350763 116.9423109 147.3242105 128.0821804 117.6304014
 148.1903410 128.0308897 116.3898109 135.7118889 131.1990213 119.6913672
 135.7502988 130.6653804 120.4850791 135.2059182 130.6725419 119.0724650
 139.3427467 129.9254316 112.7667604 139.6380908 129.0164994 112.7134658
 138.4415502 129.9042055 112.4448606 142.8721714 128.0010312 118.7495152
 142.1508299 128.6146280 118.6102626 143.6614969 128.5368077 118.6711798
 141.0715308 127.6068413 112.8906929 140.7428014 126.7265792 112.7082035
 141.4254679 127.5516082 113.7783318 144.1857131 127.8941383 113.2582407
 144.5253204 128.4227304 112.5361015 144.6329252 128.2321789 114.0340973
 146.1725278 126.3916005 111.4575699 146.8933641 126.7697257 110.9539416
 145.5490583 127.1104881 111.5610677 150.3156401 127.0961154 112.3934032
 150.5320016 127.9785791 112.0922860 149.8350468 126.7047367 111.6639674
 146.3188902 125.9263795 114.2873236 146.4404813 124.9980441 114.4864124
 146.0290944 125.9402481 113.3751551 149.1880092 123.6118706 117.4239956
 149.2101789 123.6758039 116.4691935 149.6048151 122.7723214 117.6180462
 145.2918960 137.5117928 112.3789123 145.4407081 138.1953392 111.7255796
 146.0985404 137.4923018 112.8938579 143.0471593 133.5383105 113.3850192
 142.8017635 132.6345435 113.5830402 143.2167508 133.5400256 112.4429670
 142.3167241 129.2711463 110.8836354 141.6236486 129.3455818 110.2276390
 142.0718993 128.5071807 111.4057870 150.9880897 120.8307064 118.2875844
 151.2682651 120.1630253 118.9136271 151.7731504 121.0236160 117.7750508
 149.1761164 131.3426871 107.1916923 150.1220269 131.2133079 107.2605341
 148.7975409 130.6041533 107.6686351 147.3604082 129.2676847 107.1271808
 146.4535537 128.9709960 107.2034522 147.6380063 128.9706665 106.2606095
 138.2782022 130.5883211 117.5770855 137.9584806 129.7348519 117.2845229
 137.7315450 130.8031789 118.3328822 148.9766147 123.8113737 113.2816050
 148.1666876 123.4660822 113.6571296 149.6650564 123.5021281 113.8703661
 150.9056696 122.8891784 114.9040346 151.4587734 123.3087237 115.5630369
 151.1426782 121.9627532 114.9463302 146.1302866 126.1263783 107.2683788
 146.9922030 126.4518681 107.5279605 146.3153210 125.3395278 106.7556853
 154.2835503 124.9992309 114.4119011 153.7034172 125.6577113 114.0297063
 154.0171435 124.1769654 114.0006428 152.7339069 124.3997367 116.6140331
 153.2338847 124.5113901 115.8054650 153.3774677 124.0958420 117.2541139
 153.0660381 127.1592399 113.4675359 152.1786236 127.4442050 113.2495554
 153.4814370 126.9986163 112.6202636 153.7736184 133.8651717 110.9778178
 153.7184988 133.6995988 110.0366622 153.1482239 134.5727750 111.1340368
 147.0832309 123.3659826 110.5563497 147.0710979 124.3101666 110.7131767
 147.9755731 123.1829971 110.2622958 150.8984429 119.9602602 114.8109433
 150.1316825 119.4061089 114.9566116 151.3095134 120.0324471 115.6723585
  55.4071731  -9.7761786 105.1964958  56.1993023 -10.1170961 104.7811258
  55.6468382  -9.6666811 106.1167112  63.4406858  -7.6042010  97.6695203
  62.7894838  -7.0187929  97.2829217  64.2351221  -7.0735815  97.7290240
  57.3662485 -10.5152873  98.0682337  58.1393361 -11.0623886  97.9295213
  57.7187884  -9.6508623  98.2796798  59.2047528  -9.1876490 111.2749236
  58.9137394  -8.2830860 111.1595903  59.8404512  -9.1459963 111.9893306
  59.1458193  -2.7370755 101.2369998  59.0682223  -1.7862930 101.3158478
  58.5419836  -3.0824882 101.8944924  61.7048544  -9.0456709 110.0896557
  61.7692977  -8.5836302 110.9254729  60.9959468  -9.6759344 110.2178867
  61.4196562  -7.3788602  99.9575537  61.2842237  -6.5337066 100.3860385
  61.9606374  -7.1769324  99.1941471  54.8725959  -9.8613164 100.5303463
  55.3850480  -9.0669913 100.6809027  55.5248672 -10.5586873 100.4637064
  56.6820844  -6.7447407 102.6126216  56.8587472  -5.8229443 102.4247200
  57.4777677  -7.0588988 103.0420596  63.0465038  -6.7565035 114.0875880
  62.6028892  -7.5428657 113.7696784  63.7082252  -6.5685885 113.4219770
  57.8052159  -5.2269234 108.6136558  58.3559584  -5.3552170 107.8413552
  56.9663635  -4.9274345 108.2631451  65.1446276  -6.4762235 112.1157281
  65.1264752  -5.6553354 111.6237550  66.0666196  -6.6008160 112.3407422
  52.8374876 -11.5324509 101.3063033  53.6750098 -11.1227501 101.0896741
  53.0153144 -12.4725067 101.2763227  64.0192722  -3.3054396  96.3931260
  63.3454421  -3.0022699  97.0016218  64.4058544  -2.5025315  96.0436717
  65.9665083  -6.4656222 102.6999550  66.2588058  -5.9051165 101.9811916
  66.4763704  -6.1727661 103.4552709  60.9298709  -5.6875871 103.7893003
  60.8874887  -5.4615025 102.8601535  61.8461407  -5.9212496 103.9378804
  59.0464509  -8.8112842 103.5854966  59.8405108  -9.3062522 103.3837541
  58.3356202  -9.3394979 103.2222672  63.8659354  -6.4294746 107.9367334
  63.9196376  -5.8603810 108.7045050  62.9974135  -6.2592861 107.5721371
  61.6235785  -8.2383820 107.2652803  61.4846871  -8.6065035 108.1378741
  60.8350382  -7.7236180 107.0936761  62.2183937  -3.1374723  98.6078340
  62.3935693  -3.6086680  99.4223962  61.5316725  -2.5108957  98.8359600
  67.7654324  -6.8047274 112.5884481  67.7066870  -7.4888054 111.9215064
  68.1673842  -6.0628284 112.1365107  56.7845023   0.0114639 105.3818200
  57.0241621   0.6433164 106.0597218  55.9414219  -0.3397321 105.6683559
  61.2972884  -4.1806238 107.7859704  61.2243056  -3.3751267 108.2979008
  60.8550278  -3.9814272 106.9607725  61.0862664  -4.9434468 101.2962525
  60.3030186  -4.4012788 101.3900750  61.7855409  -4.4260488 101.6956766
  63.7571568  -4.2819404 109.9417862  64.4699540  -3.6471939 109.8693764
  63.2661597  -4.1855538 109.1257864  58.8083482  -6.5324961 110.7623433
  59.5092941  -5.8988478 110.9152827  58.3378597  -6.1910229 110.0019073
  63.5691941  -3.9420660 102.6904154  63.7514336  -4.7599004 103.1531906
  64.3924927  -3.7252968 102.2529044  63.9034107  -5.0152475  99.9519202
  64.4321873  -5.5260020  99.3389364  64.1662326  -5.3309945 100.8164735
  54.4051200  -6.9988606 107.6954536  54.9904636  -7.7444918 107.8282440
  54.2076038  -6.6884649 108.5791200  57.2589855  -3.9637358 102.7116978
  56.5900230  -3.4791231 102.2281018  57.1202724  -3.7168138 103.6260357
  61.3995123  -1.9293615 109.3099637  61.9513431  -1.7661993 110.0748722
  61.7401317  -1.3389177 108.6379662  66.2505998  -7.1032357 115.1648291
  66.7945902  -6.4902399 114.6703246  65.6692843  -6.5452779 115.6815304
  64.5363511  -3.9811639 106.2963319  64.4114650  -4.7821899 105.7874264
  65.1942602  -3.4865446 105.8077289  66.5998419  -6.1802619 107.9242869
  65.6528755  -6.2997268 107.8521196  66.9481192  -7.0680121 108.0069130
  63.6044852  -6.3849903 104.1247221  63.4569815  -7.3133195 104.3054791
  64.4298346  -6.3629812 103.6404296  67.2078974  -5.5621344 105.2112094
  68.1325522  -5.7678483 105.0736545  67.0394278  -5.8104943 106.1201435
  66.9974290  -5.0435677 100.5674185  67.1711168  -5.6089254  99.8148038
  67.4903182  -4.2434782 100.3853675  67.9849463  -5.7268912  97.6671084
  68.6800368  -5.1062220  97.8858398  68.3272613  -6.5773561  97.9423462
  61.5460935  -4.3635133 111.3248291  61.8548061  -4.6085986 112.1970991
  62.3436417  -4.1588495 110.8367161  61.5681547  -2.2097223 103.5553668
  61.1286537  -2.7020845 104.2486524  62.3189664  -2.7524256 103.3145743
  54.0473886  -6.0185683 103.5578296  54.8731906  -6.3181911 103.1776939
  53.6967938  -6.7878060 104.0068084  59.0155419  -6.6659214 105.6275969
  58.3935428  -7.3288509 105.3278197  59.6860286  -6.6398082 104.9449617
  52.2482491  -8.0999356 104.5167229  51.4114399  -8.5277182 104.3351231
  52.2206136  -7.9066913 105.4538020  58.5768926  -8.1155291  99.1034430
  58.7257046  -7.4319827  98.4501103  59.3835369  -8.1350201  99.6183886
  62.0764331  -5.6207161  96.5746177  61.5038298  -5.0016973  96.1216649
  62.6497125  -5.0707799  97.1086099  65.2961591  -5.3370010  97.7054759
  66.2292264  -5.4024449  97.9087635  65.2084804  -4.5013744  97.2469292
  67.9249608  -6.0204140  94.6658707  67.8463239  -6.3544277  95.5594465
  68.7459275  -5.5282372  94.6650179  51.4320247 -11.4187097 106.2709283
  50.7383719 -11.8333144 105.7579237  52.1793238 -11.3766560 105.6742702
  53.3456990 -11.4868843 104.1475298  53.3227678 -11.3881156 103.1957181
  53.6557626 -10.6403692 104.4692464  56.0044368  -9.4292688 108.2621912
  56.9587621  -9.4608745 108.1951844  55.8056891  -9.8902064 109.0772138
  54.3594597  -3.8873068 105.2792110  54.2249064  -4.6472667 104.7130108
  53.9426659  -3.1632168 104.8120899  57.5163722  -2.9903751 105.4910553
  57.3996107  -2.0458319 105.3889243  56.6956169  -3.2930190 105.8796352
  58.5418237  -2.3375489 108.7066481  59.4445483  -2.3051879 109.0232976
  58.3155607  -3.2675038 108.7212817  60.2971839  -3.5844503 105.3676560
  59.3467470  -3.5842641 105.2540932  60.6004325  -4.3311768 104.8512594
  76.0324532   2.2516036 106.4322322  76.6702942   2.1322783 105.7285662
  75.9145375   3.1996880 106.4910274  72.8414238   2.2043464 106.3683847
  72.5032750   2.0884528 105.4804382  73.7104007   1.8034629 106.3484853
  68.7001054   4.0578940 102.3580738  68.1365919   3.9668877 101.5897026
  68.5853449   3.2378845 102.8383230  73.3234021   3.3578315 112.3270052
  73.3122662   2.9631114 111.4550556  73.4854661   2.6244388 112.9203824
  66.2465486   5.5530132 105.1964958  67.0386778   5.2120956 104.7811258
  66.4862136   5.6625107 106.1167112  74.2800613   7.7249908  97.6695203
  73.6288593   8.3103988  97.2829217  75.0744976   8.2556103  97.7290240
  68.2056240   4.8139045  98.0682337  68.9787116   4.2668032  97.9295213
  68.5581639   5.6783294  98.2796798  70.0441282   6.1415427 111.2749236
  69.7531148   7.0461058 111.1595903  70.6798267   6.1831955 111.9893306
  70.9697489   3.5192276 107.8650596  71.5661062   3.2948298 107.1507559
  71.0272461   2.7777021 108.4676044  70.5422518   0.9731711  95.7000787
  70.7948038   0.4513232  94.9384250  69.6047077   0.8097857  95.8027471
  75.5865801  -0.0232511 103.5075530  76.3728890  -0.4413087 103.1565947
  75.8504505   0.8813582 103.6757179  75.7575878   5.4140340  98.2064187
  75.1221711   5.4874966  98.9185092  75.4273284   6.0033939  97.5283266
  80.9874228  -0.0857277 104.4108509  81.7199400  -0.6558061 104.6446338
  80.2313583  -0.4735677 104.8515014  70.2618806   2.8759817  97.9025162
  70.1455065   2.2004720  98.5706246  70.3721066   2.3892191  97.0857315
  72.6050347   2.3369964 101.6071851  72.2408555   1.8100585 102.3184773
  73.4617463   1.9468433 101.4338337  72.2455834  -2.6340136  96.6033200
  72.4130237  -1.7659900  96.9703671  72.0553003  -2.4712854  95.6794489
  75.0031168   5.8276843 108.2699030  74.7031891   6.7301882 108.1614837
  74.6582227   5.5609026 109.1220183  68.4543649   2.2790640 104.3035734
  67.5294146   2.1466854 104.5113426  68.7028062   3.0584859 104.8005677
  78.4028311  -1.6540617 105.9496467  77.4945189  -1.7225209 105.6555228
  78.3515907  -1.1768672 106.7778293  72.2245055  -0.1782479  97.5879867
  72.1044680   0.2674572  98.4265347  71.5297644   0.1702839  97.0293405
  65.8152460   1.9223913 105.1379524  65.9444841   2.1758392 106.0518935
  65.1349911   2.5151621 104.8184179  69.9851947  12.5921163 101.2369998
  69.9075977  13.5428988 101.3158478  69.3813591  12.2467036 101.8944924
  72.4769177  -0.2350971 113.8931365  71.7002511   0.3242949 113.8834229
  73.1159740   0.2505811 114.4146235  77.9230121   0.2938995  98.4160201
  78.8347978   0.5266381  98.2407898  77.4139768   0.8776039  97.8535279
  70.7315549   2.5734482 113.4549332  71.4730234   3.1119526 113.1784155
  70.0252535   3.2000771 113.6120883  76.2070889   4.7163622 112.0521493
  76.6154245   4.2746033 111.3076126  75.4848151   4.1416250 112.3055686
  72.5601959  -0.3463771 109.4255050  73.4063154   0.0775643 109.5689699
  72.5000597  -1.0030147 110.1193613  76.5299704   5.2764813 105.8073782
  75.9008566   5.4410527 105.1049850  76.1425366   5.6906423 106.5784746
  80.4088936   6.2119251 103.1618146  79.7239974   6.5918152 102.6115179
  80.4932785   6.8214577 103.8950094  75.7101404  -2.6859403 111.0836224
  75.4662336  -1.9317342 110.5470499  75.9861335  -2.3074055 111.9183471
  77.6639867   3.8579210 109.7613489  77.8756762   4.5010970 109.0847870
  77.6169615   3.0241526 109.2935419  75.2666096  -3.5302970 106.6650061
  74.4050575  -3.2321716 106.9566799  75.2928531  -3.3132571 105.7331094
  72.0827666   5.0139221 103.0723867  72.5466011   5.2926924 102.2828490
  71.8184464   4.1122666 102.8896958  68.9751747   4.5610703 106.0103630
  69.5453104   4.9897971 105.3721115  69.5659859   4.2793287 106.7087816
  71.0196552   1.1362373  99.8813432  71.7220595   1.5883417 100.3487359
  70.6877180   0.4946192 100.5093325  69.4676913  -0.2725870 114.2564642
  68.8375574   0.4090411 114.4900038  69.3613001  -0.3842788 113.3117780
  64.7621886  -0.6054074 105.1830566  63.9720940  -0.3496545 104.7070676
  65.2533133   0.2094264 105.2882606  78.7785695   6.7351165 107.9335847
  79.6003139   6.3331353 107.6518528  78.7748098   6.6319399 108.8851962
  66.7136631  -0.2409495 102.1414043  65.9167794  -0.1290800 102.6597538
  66.4862223   0.0977158 101.2754933  72.5442299   6.2835209 110.0896557
  72.6086731   6.7455616 110.9254729  71.8353223   5.6532573 110.2178867
  63.0459589  -0.3523583 107.6145557  63.2967627   0.5323426 107.8803133
  63.5819137  -0.5318982 106.8420648  86.8691688   3.0789914 104.2820818
  86.1155397   2.5097312 104.1264823  87.0039229   3.0452578 105.2291453
  72.2590316   7.9503316  99.9575537  72.1235991   8.7954852 100.3860385
  72.8000129   8.1522594  99.1941471  68.7457656  -5.9705104 116.6189893
  68.3524601  -6.5238906 117.2937537  69.5623796  -5.6594526 117.0096410
  65.7119714   5.4678754 100.5303463  66.2244234   6.2622004 100.6809027
  66.3642427   4.7705045 100.4637064  67.5214598   8.5844510 102.6126216
  67.6981227   9.5062475 102.4247200  68.3171432   8.2702930 103.0420596
  71.6625617  -4.5547225 114.2110149  72.4035330  -3.9540072 114.1314612
  71.8943540  -5.2969587 113.6528192  66.8066955   0.6309142 112.4888379
  66.6920470  -0.2705601 112.7895478  65.9511473   0.8772839 112.1373195
  73.8858793   8.5726883 114.0875880  73.4422647   7.7863261 113.7696784
  74.5476006   8.7606033 113.4219770  68.6445914  10.1022684 108.6136558
  69.1953339   9.9739748 107.8413552  67.8057390  10.4017573 108.2631451
  75.9840031   8.8529682 112.1157281  75.9658506   9.6738564 111.6237550
  76.9059951   8.7283758 112.3407422  72.4413085   6.3673812 112.9580789
  72.9741422   5.6062100 112.7280097  71.9127166   6.0747464 113.7004944
  63.6768630   3.7967408 101.3063033  64.5143852   4.2064417 101.0896741
  63.8546898   2.8566851 101.2763227  75.5733063   1.4642489  96.9946866
  75.0579686   2.2347094  97.2335253  75.3010371   0.7907625  97.6179928
  73.1580174  -3.6907810 102.0532104  72.3021770  -4.0800960 101.8737743
  73.5707125  -3.6115849 101.1931890  70.9322206  -6.0722737 105.4589846
  71.7975203  -6.2679929 105.0995735  70.9999715  -6.3012385 106.3859203
  80.5467337   4.2174844  98.9300040  79.7696779   3.8786003  98.4855202
  81.2258818   4.2227467  98.2555005  75.3619366  -0.6630419  98.8206647
  75.0569501  -0.3484270  99.6716790  76.3149808  -0.5848999  98.8633980
  73.8065798   5.4959804 100.4699601  73.2787159   4.7612564 100.1572839
  73.3053300   6.2734481 100.2239570  78.7858644   3.6908825 105.5866648
  78.1282318   4.3808086 105.6746776  79.5899043   4.0805257 105.9300634
  68.5384525  -3.8420529 102.8306213  69.1128277  -4.0645348 102.0979406
  69.1255508  -3.7731835 103.5834814  77.5964102   2.0453198 103.6370589
  78.1095984   2.6783189 104.1392299  78.2465326   1.4454393 103.2713949
  68.8654112  -1.8116068  96.8502098  68.0291425  -1.4741382  97.1711373
  68.7258882  -1.9467088  95.9129235  71.9518398   3.3140015  93.4734574
  71.0445460   3.0829268  93.6725723  72.4489430   2.5177634  93.6608556
  74.8586477  12.0237522  96.3931260  74.1848175  12.3269219  97.0016218
  75.2452299  12.8266602  96.0436717  74.0744933  -0.4797347 105.8828930
  73.1567495  -0.2582400 105.7250618  74.4905077  -0.4051036 105.0240637
  74.8579981   0.9194069 101.0131610  75.6051800   1.4315466 100.7038732
  75.1271571   0.5978122 101.8736004  73.1306631   3.4152610  97.9958564
  72.2217850   3.1311642  98.0931034  73.1601715   3.8351688  97.1361871
  78.3625899   7.0259199 101.7649732  77.9088226   6.1850109 101.8214922
  77.7319865   7.6620597 102.1024512  77.3058818  -2.0448815 102.9950399
  76.5681575  -2.5571429 103.3260642  77.5585592  -2.4848433 102.1833676
  76.8058838   8.8635696 102.6999550  77.0981812   9.4240753 101.9811916
  77.3157458   9.1564257 103.4552709  63.6994802   1.1358124 101.9773767
  63.5019201   0.5427484 101.2524833  63.1441466   0.8310334 102.6949705
  71.6791525   1.0281230 104.0968360  71.7340135   0.0755067 104.0210836
  70.8682727   1.1840669 104.5809658  72.8282719   4.9561353  95.3346643
  72.3902149   4.2397212  94.8752280  73.5693160   5.1837468  94.7731734
  69.6183885  -0.3541710 101.8558739  68.8051751  -0.0547540 102.2623931
  70.1142879  -0.7486021 102.5733221  71.7692463   9.6416047 103.7893003
  71.7268642   9.8676893 102.8601535  72.6855162   9.4079421 103.9378804
  75.2158097   0.1100114 110.6873632  75.5707485   0.3371588 111.5468098
  75.8630228   0.4418491 110.0650888  80.9455834   3.2318550 101.3922961
  80.8073732   3.4220146 100.4644151  80.5892053   3.9937933 101.8491013
  69.1097960  -2.7823355 107.4719974  69.7497339  -2.9234595 106.7742937
  68.2775490  -3.0688841 107.0958576  80.9725213   5.2995077 106.4034233
  81.4061720   5.2070366 107.2517287  81.6856794   5.2752578 105.7654249
  69.8858264   6.5179076 103.5854966  70.6798862   6.0229396 103.3837541
  69.1749956   5.9896939 103.2222672  74.7053108   8.8997171 107.9367334
  74.7590131   9.4688108 108.7045050  73.8367890   9.0699056 107.5721371
  66.1941027   0.6622158  99.6614719  65.2638615   0.6006613  99.8784681
  66.2898499   0.1398110  98.8651360  66.1126576  -2.8123030 102.2492960
  66.3733394  -1.8977696 102.1402121  66.9343749  -3.2798587 102.3989573
  67.5851502  -1.3985272 109.4191785  68.2574555  -1.6067910 108.7704434
  66.7581288  -1.5963186 108.9797017  81.8340763   5.3418778 108.9367118
  82.0276653   6.2464588 109.1826393  81.7341381   4.8826197 109.7705703
  73.4877074  -4.7723331 111.4357446  72.8404989  -4.0733382 111.3421922
  74.2578089  -4.3387188 111.8033694  76.8955872   5.4925521 114.5107999
  76.7441378   5.2636072 113.5938083  76.8860551   6.4496122 114.5239344
  73.6641208   3.0657433 109.4954265  74.5933268   3.2168593 109.3223233
  73.2432238   3.1541454 108.6402912  72.4629540   7.0908098 107.2652803
  72.3240626   6.7226882 108.1378741  71.6744136   7.6055737 107.0936761
  73.0577692  12.1917194  98.6078340  73.2329447  11.7205238  99.4223962
  72.3710480  12.8182961  98.8359600  74.0134755   6.4689701 104.6541641
  73.6784588   6.4290471 105.5499291  73.5138701   5.8034416 104.1812051
  67.9878999   1.8757331 110.1794222  67.8498797   1.1437569 110.7805761
  68.8983922   1.7866231 109.8978410  76.9493947   3.8145735  94.9278701
  76.3323117   3.0892563  94.8311753  76.4810435   4.5755095  94.5845775
  70.6161300   1.5877290 109.6677902  71.3260918   0.9470482 109.6264520
  70.5730608   1.8390185 110.5904082  78.6048078   8.5244643 112.5884481
  78.5460624   7.8403863 111.9215064  79.0067597   9.2663633 112.1365107
  69.3290234  -1.4257492 111.4873541  68.7927591  -1.8766754 112.1395137
  68.7406942  -1.2911583 110.7444005  67.6238777  15.3406557 105.3818200
  67.8635375  15.9725081 106.0597218  66.7807974  14.9894597 105.6683559
  68.7392493  -1.9668841  94.0500005  67.8621959  -2.0880040  93.6862251
  69.2150246  -2.7582763  93.7978893  78.6065486   6.4884227 110.8198461
  77.7192264   6.1510149 110.9424859  79.1764037   5.7567258 111.0567226
  60.2594633   2.8208319 104.1441512  60.9465673   2.5070049 103.5562527
  60.1042761   3.7249684 103.8708763  65.0629355  -2.2901485 108.5726536
  64.9787544  -2.8975815 107.8376946  64.2412061  -1.7992466 108.5736032
  72.1366639  11.1485680 107.7859704  72.0636810  11.9540651 108.2979008
  71.6944032  11.3477645 106.9607725  71.9256419  10.3857450 101.2962525
  71.1423940  10.9279130 101.3900750  72.6249164  10.9031429 101.6956766
  75.2353069  -3.8047921 103.9396731  75.7321768  -4.5577959 103.6197801
  74.4640050  -3.7683604 103.3739940  83.0882826   1.8992445 105.5815022
  83.0772702   2.7817160 105.2108955  82.2200206   1.5463995 105.3869559
  74.5965322  11.0472514 109.9417862  75.3093295  11.6819978 109.8693764
  74.1055351  11.1436380 109.1257864  76.3182849   4.9523766 101.5135154
  75.3839128   5.0725229 101.3439858  76.4959518   4.0496233 101.2495164
  71.8188037  -1.6630538 103.6668415  71.4485825  -2.2159498 104.3549321
  72.3147130  -2.2672405 103.1143415  79.7055401   0.7941086 102.0485188
  80.1715853   1.6269077 101.9745491  80.1562901   0.3286067 102.7530447
  69.6477236   8.7966957 110.7623433  70.3486695   9.4303440 110.9152827
  69.1772351   9.1381689 110.0019073  77.7731632   7.1384907  99.0471340
  78.0491476   7.0241501  99.9565214  76.9036131   6.7402392  99.0083513
  77.4478522   1.3511564 108.5875984  76.7949972   1.5987472 107.9328436
  77.8258902   0.5375703 108.2538461  74.4085696  11.3871258 102.6904154
  74.5908090  10.5692914 103.1531906  75.2318682  11.6038950 102.2529044
  74.7427861  10.3139443  99.9519202  75.2715628   9.8031897  99.3389364
  75.0056081   9.9981973 100.8164735  73.4966095   2.0931376 115.0742021
  72.8206732   1.9925505 115.7444396  74.3193729   1.9370589 115.5378018
  65.2444954   8.3303312 107.6954536  65.8298391   7.5847000 107.8282440
  65.0469793   8.6407269 108.5791200  68.0983609  11.3654559 102.7116978
  67.4293985  11.8500687 102.2281018  67.9596479  11.6123780 103.6260357
  59.8362609   0.9008912 106.4158979  59.8746708   0.3672503 107.2096097
  59.3302902   0.3744118 105.7969956  72.2388878  13.3998303 109.3099637
  72.7907186  13.5629924 110.0748722  72.5795071  13.9902741 108.6379662
  67.2153371  -4.2526547 109.9121521  67.2794698  -3.3911716 109.4998919
  67.1520491  -4.8652546 109.1793880  66.6905644  -2.1803415 113.5594556
  67.3177682  -2.5626337 114.1732080  65.8333562  -2.3989213 113.9250248
  77.0899752   8.2259560 115.1648291  77.6339656   8.8389519 114.6703246
  76.5086597   8.7839139 115.6815304  63.4671186  -0.3726986  99.4912910
  63.7624627  -1.2816307  99.4379964  62.5659222  -0.3939246  99.1693913
  75.3757265  11.3480279 106.2963319  75.2508405  10.5470018 105.7874264
  76.0336356  11.8426472 105.8077289  66.9965433  -2.2970989 105.4740459
  66.2752019  -1.6835021 105.3347932  67.7858689  -1.7613224 105.3957105
  77.4392174   9.1489299 107.9242869  76.4922509   9.0294650 107.8521196
  77.7874947   8.2611797 108.0069130  69.7991747  -4.9616562 111.7481111
  70.3226149  -4.7154266 112.5107420  69.5804080  -4.1296528 111.3284248
  65.1959028  -2.6912888  99.6152236  64.8671734  -3.5715509  99.4327342
  65.5498399  -2.7465219 100.5028625  74.4438607   8.9442015 104.1247221
  74.2963569   8.0158722 104.3054791  75.2692100   8.9662106 103.6404296
  68.3100851  -2.4039918  99.9827713  68.6496924  -1.8753997  99.2606322
  68.7572972  -2.0659512 100.7586280  78.0472729   9.7670574 105.2112094
  78.9719276   9.5613435 105.0736545  77.8788032   9.5186975 106.1201435
  71.0044292  -4.0202867 109.4330781  70.6641112  -4.8195054 109.8351461
  70.2983298  -3.7201157 108.8607615  70.2968998  -3.9065297  98.1821006
  71.0177361  -3.5284044  97.6784723  69.6734302  -3.1876420  98.2855984
  74.4400121  -3.2020148  99.1179338  74.6563736  -2.3195510  98.8168167
  73.9594188  -3.5933934  98.3884980  69.1799343  -0.2434434 105.6950083
  69.0343923   0.0705869 106.5874364  68.7024546   0.3750466 105.1420982
  71.0395725  -3.2531886 105.7430973  71.0257294  -4.1490793 105.4063270
  71.7568154  -3.2461223 106.3769259  72.8921856  -2.8194546 107.7884100
  72.6339634  -1.8977475 107.7868430  72.3606896  -3.2164112 108.4784564
  77.8368045  10.2856241 100.5674185  78.0104922   9.7202663  99.8148038
  78.3296936  11.0857136 100.3853675  63.6545005   2.2970910 108.6337744
  63.1098473   3.0730718 108.7658018  64.5324355   2.6441715 108.4756866
  70.4432621  -4.3717506 101.0118543  70.5648533  -5.3000860 101.2109430
  70.1534664  -4.3578820 100.0996858  83.6907436   3.0492664 102.1864485
  84.1338582   2.2999989 101.7883608  82.8133946   3.0402800 101.8038217
  78.8243217   9.6023005  97.6671084  79.5194122  10.2229698  97.8858398
  79.1666368   8.7518357  97.9423462  64.4411027   1.4240806 111.5267901
  63.6992763   1.5723442 112.1132531  64.1203771   1.6849072 110.6634650
  80.7234640   7.0522711  99.1958414  81.2485965   7.3909984  98.4707734
  80.6356993   6.1169726  99.0121549  72.3854689  10.9656785 111.3248291
  72.6941816  10.7205931 112.1970991  73.1830171  11.1703423 110.8367161
  72.4075301  13.1194694 103.5553668  71.9680292  12.6271073 104.2486524
  73.1583418  12.5767662 103.3145743  64.8867640   9.3106235 103.5578296
  65.7125660   9.0110007 103.1776939  64.5361692   8.5413857 104.0068084
  69.8549173   8.6632703 105.6275969  69.2329183   8.0003408 105.3278197
  70.5254040   8.6893835 104.9449617  63.0876245   7.2292562 104.5167229
  62.2508154   6.8014736 104.3351231  63.0599891   7.4225005 105.4538020
  69.9273701  -2.8585509 115.2208475  69.9761856  -1.9823386 114.8386245
  70.4696215  -3.4008116 114.6480118  80.4128547   7.6855615 114.5009612
  79.6224090   7.6679753 113.9614112  80.1761901   8.2243908 115.2558649
  80.5326422   4.5348081 111.8142341  80.5824427   4.3698088 112.7557864
  80.4240345   3.6675340 111.4240222  69.4162680   7.2136627  99.1034430
  69.5650801   7.8972091  98.4501103  70.2229124   7.1941717  99.6183886
  77.8230184   0.5179009 113.1301648  78.7240047   0.3785474 112.8385645
  77.8978159   0.6833464 114.0699825  72.1572989  -2.1054136 111.9754834
  71.2876299  -1.8120570 111.7037422  72.3932470  -1.5213691 112.6962098
  82.0344618   6.9545022 112.0584362  81.7429427   7.3175003 112.8947823
  81.4216750   6.2412031 111.8797695  83.2340301   4.5197902 104.5786933
  84.0687192   4.9587706 104.7424493  83.3699430   4.0436555 103.7595178
  80.2831807   2.0777637 110.5264420  80.7585928   2.2705283 109.7183272
  79.3597372   2.1336823 110.2807804  67.1715313   3.2401804 100.1095499
  66.9261355   2.3364134 100.3075709  67.3411228   3.2418955  99.1674977
  66.4410961  -1.0269838  97.6081660  65.7480206  -0.9525483  96.9521696
  66.1962713  -1.7909495  98.1303177  72.9158086   9.7084757  96.5746177
  72.3432053  10.3274944  96.1216649  73.4890879  10.2584119  97.1086099
  78.9833476  -1.0456603 108.7592726  79.9350899  -0.9458505 108.7804950
  78.8136926  -1.8378334 109.2690810  77.0047855  -3.9601020 108.9452127
  76.4097787  -3.6796007 108.2498616  76.7197552  -3.4707119 109.7168868
  76.1355346   9.9921907  97.7054759  77.0686019   9.9267469  97.9087635
  76.0478558  10.8278174  97.2469292  78.7643362   9.3087778  94.6658707
  78.6856994   8.9747641  95.5594465  79.5853029   9.8009545  94.6650179
  81.4621553   2.1749517 107.8735026  81.4297874   1.2365518 108.0594709
  82.0722177   2.2533554 107.1400851  73.3004884   1.0445570  93.9162230
  74.2463989   0.9151778  93.9850648  72.9219129   0.3060232  94.3931658
  81.6116042  -1.0339440 107.9193309  81.0955091  -1.8180983 107.7323238
  82.4955990  -1.3620723 108.0839828  87.2798103   3.2365524 107.0141062
  88.0101492   2.9750812 107.5748766  86.6705049   2.4994246 107.0543130
  85.3613400   1.3773386 107.6115514  84.6346564   1.2429351 107.0032005
  84.9460687   1.6850215 108.4172232  73.1843577   5.0963316 115.3762887
  74.1046586   5.2741915 115.5702933  73.1493160   4.1519361 115.2242586
  71.4847801  -1.0304454  93.8517115  70.5779257  -1.3271341  93.9279829
  71.7623782  -1.3274636  92.9851401  62.4025742   0.2901910 104.3016161
  62.0828526  -0.5632782 104.0090535  61.8559170   0.5050488 105.0574129
  66.1805649   3.0064351 108.0185668  66.3991659   3.9381458 108.0373702
  66.5931423   2.6472325 108.8040472  71.0533515  -1.4202444 117.4088417
  70.9530242  -0.4708087 117.3400508  70.8355057  -1.7484205 116.5364487
  70.2546586  -4.1717519  93.9929094  71.1165750  -3.8462620  94.2524911
  70.4396930  -4.9586023  93.4802160  62.2714002   3.9104821 106.2709283
  61.5777473   3.4958774 105.7579237  63.0186993   3.9525358 105.6742702
  70.9164785   2.0094695 116.2253478  70.4331866   2.8095055 116.4317367
  71.0025724   2.0202640 115.2720922  64.1850744   3.8423075 104.1475298
  64.1621432   3.9410762 103.1957181  64.4951381   4.6888226 104.4692464
  66.8438122   5.8999230 108.2621912  67.7981376   5.8683172 108.1951844
  66.6450646   5.4389854 109.0772138  67.4337504   4.4700346 110.8292710
  68.2530393   4.9644425 110.8527547  67.7074312   3.5532314 110.8010277
  77.1904101  -3.1388902 100.1920665  76.3029956  -2.8539251  99.9740860
  77.6058090  -3.2995138  99.3447942  80.5418637  -3.1142381 103.9075005
  81.3179027  -2.6245928 104.1799621  79.8166771  -2.6884327 104.3646874
  65.1988351  11.4418849 105.2792110  65.0642819  10.6819250 104.7130108
  64.7820413  12.1659749 104.8120899  76.3347314   6.6255773  94.2868685
  77.0383164   6.8305775  94.9026341  75.6109963   7.1932535  94.5517769
  77.1645124   2.3765634 100.4070956  77.1080326   2.8334186  99.5678588
  77.7173467   1.6156319 100.2293798  80.9749930  -1.8344634 101.2321075
  80.7186864  -2.2347998 102.0629283  80.3502798  -1.1200840 101.1071214
  85.2862268   0.9051439 103.7392366  84.7261826   0.9744629 104.5123929
  84.6805771   0.7292424 103.0191863  68.3557477  12.3388166 105.4910553
  68.2389861  13.2833599 105.3889243  67.5349923  12.0361728 105.8796352
  78.2434011   7.0638302  96.3367145  79.0779615   6.6319501  96.1544620
  78.0818354   6.8920316  97.2644040  77.8979904   3.5670415  97.7023485
  77.8428707   3.4014687  96.7611929  77.2725959   4.2746448  97.8585674
  62.6872419  -1.1961520 111.5284907  63.3331282  -1.7062566 112.0172132
  62.4789570  -0.4592839 112.1028332  75.2125811   5.8719327 117.0277048
  76.0816970   6.0459980 116.6663682  74.7332562   6.6913744 116.9052777
  69.3811991  12.9916428 108.7066481  70.2839238  13.0240039 109.0232976
  69.1549361  12.0616879 108.7212817  71.1365593  11.7447415 105.3676560
  70.1861224  11.7449276 105.2540932  71.4398079  10.9980149 104.8512594
  67.0269910  -4.0493903 115.6259921  67.8901371  -4.4057098 115.8363246
  66.4535320  -4.3880008 116.3135325  86.8718287  17.5807953 106.4322322
  87.5096697  17.4614701 105.7285662  86.7539129  18.5288797 106.4910274
  83.6807993  17.5335381 106.3683847  83.3426504  17.4176446 105.4804382
  84.5497761  17.1326546 106.3484853  79.5394809  19.3870858 102.3580738
  78.9759674  19.2960795 101.5897026  79.4247204  18.5670762 102.8383230
  84.1627776  18.6870233 112.3270052  84.1516417  18.2923031 111.4550556
  84.3248415  17.9536306 112.9203824  77.0859240  20.8822049 105.1964958
  77.8780532  20.5412874 104.7811258  77.3255891  20.9917024 106.1167112
  85.1194367  23.0541825  97.6695203  84.4682347  23.6395906  97.2829217
  85.9138730  23.5848020  97.7290240  79.0449994  20.1430963  98.0682337
  79.8180870  19.5959950  97.9295213  79.3975393  21.0075212  98.2796798
  80.8835037  21.4707345 111.2749236  80.5924903  22.3752976 111.1595903
  81.5192021  21.5123873 111.9893306  81.8091244  18.8484193 107.8650596
  82.4054816  18.6240216 107.1507559  81.8666215  18.1068939 108.4676044
  81.3816272  16.3023629  95.7000787  81.6341793  15.7805150  94.9384250
  80.4440831  16.1389774  95.8027471  86.4259555  15.3059407 103.5075530
  87.2122644  14.8878830 103.1565947  86.6898259  16.2105499 103.6757179
  86.5969632  20.7432257  98.2064187  85.9615465  20.8166884  98.9185092
  86.2667039  21.3325856  97.5283266  91.8267982  15.2434640 104.4108509
  92.5593154  14.6733857 104.6446338  91.0707338  14.8556241 104.8515014
  81.1012561  18.2051735  97.9025162  80.9848819  17.5296638  98.5706246
  81.2114821  17.7184109  97.0857315  83.4444102  17.6661882 101.6071851
  83.0802309  17.1392503 102.3184773  84.3011218  17.2760351 101.4338337
  89.3493403   8.9556214 108.8703117  89.0176727   9.8251625 108.6464332
  88.7539016   8.6392498 109.5497148  83.0849589  12.6951781  96.6033200
  83.2523991  13.5632018  96.9703671  82.8946758  12.8579063  95.6794489
  85.8424922  21.1568760 108.2699030  85.5425645  22.0593799 108.1614837
  85.4975982  20.8900944 109.1220183  79.2937404  17.6082557 104.3035734
  78.3687900  17.4758771 104.5113426  79.5421817  18.3876776 104.8005677
  89.2422066  13.6751301 105.9496467  88.3338943  13.6066709 105.6555228
  89.1909662  14.1523246 106.7778293  83.0638810  15.1509439  97.5879867
  82.9438435  15.5966490  98.4265347  82.3691398  15.4994757  97.0293405
  76.6546215  17.2515831 105.1379524  76.7838596  17.5050310 106.0518935
  75.9743666  17.8443539 104.8184179  80.8245702  27.9213081 101.2369998
  80.7469732  28.8720906 101.3158478  80.2207345  27.5758953 101.8944924
  83.3162932  15.0940946 113.8931365  82.5396266  15.6534866 113.8834229
  83.9553495  15.5797729 114.4146235  91.1083712  11.8767739 107.7274341
  90.4658092  12.1700272 107.0814136  90.6038641  11.7620659 108.5327538
  88.7623876  15.6230912  98.4160201  89.6741732  15.8558299  98.2407898
  88.2533523  16.2067956  97.8535279  81.5709304  17.9026400 113.4549332
  82.3123988  18.4411444 113.1784155  80.8646289  18.5292688 113.6120883
  87.0464644  20.0455540 112.0521493  87.4548000  19.6037951 111.3076126
  86.3241905  19.4708168 112.3055686  83.3995714  14.9828147 109.4255050
  84.2456909  15.4067560 109.5689699  83.3394351  14.3261771 110.1193613
  87.3693458  20.6056731 105.8073782  86.7402321  20.7702445 105.1049850
  86.9819120  21.0198340 106.5784746  91.2482690  21.5411168 103.1618146
  90.5633728  21.9210070 102.6115179  91.3326539  22.1506495 103.8950094
  86.5495159  12.6432515 111.0836224  86.3056091  13.3974576 110.5470499
  86.8255089  13.0217863 111.9183471  88.5033622  19.1871128 109.7613489
  88.7150517  19.8302887 109.0847870  88.4563370  18.3533444 109.2935419
  86.1059851  11.7988948 106.6650061  85.2444330  12.0970202 106.9566799
  86.1322285  12.0159347 105.7331094  82.9221420  20.3431139 103.0723867
  83.3859766  20.6218842 102.2828490  82.6578218  19.4414583 102.8896958
  79.8145501  19.8902620 106.0103630  80.3846858  20.3189889 105.3721115
  80.4053613  19.6085205 106.7087816  81.8590306  16.4654291  99.8813432
  82.5614349  16.9175335 100.3487359  81.5270935  15.8238110 100.5093325
  80.3070668  15.0566048 114.2564642  79.6769328  15.7382329 114.4900038
  80.2006756  14.9449129 113.3117780  75.6015640  14.7237844 105.1830566
  74.8114694  14.9795372 104.7070676  76.0926887  15.5386182 105.2882606
  89.6179450  22.0643083 107.9335847  90.4396893  21.6623270 107.6518528
  89.6141853  21.9611317 108.8851962  77.5530385  15.0882423 102.1414043
  76.7561549  15.2001117 102.6597538  77.3255978  15.4269075 101.2754933
  83.3836053  21.6127126 110.0896557  83.4480486  22.0747533 110.9254729
  82.6746977  20.9824491 110.2178867  73.8853343  14.9768334 107.6145557
  74.1361382  15.8615344 107.8803133  74.4212891  14.7972936 106.8420648
  97.7085443  18.4081831 104.2820818  96.9549151  17.8389229 104.1264823
  97.8432984  18.3744496 105.2291453  83.0984071  23.2795234  99.9575537
  82.9629746  24.1246769 100.3860385  83.6393883  23.4814511  99.1941471
  79.5851410   9.3586814 116.6189893  79.1918356   8.8053012 117.2937537
  80.4017551   9.6697392 117.0096410  76.5513468  20.7970672 100.5303463
  77.0637989  21.5913922 100.6809027  77.2036181  20.0996962 100.4637064
  78.3608353  23.9136428 102.6126216  78.5374981  24.8354393 102.4247200
  79.1565186  23.5994847 103.0420596  82.5019371  10.7744693 114.2110149
  83.2429085  11.3751846 114.1314612  82.7337294  10.0322330 113.6528192
  77.6460709  15.9601060 112.4888379  77.5314225  15.0586317 112.7895478
  76.7905227  16.2064757 112.1373195  84.7252547  23.9018800 114.0875880
  84.2816401  23.1155179 113.7696784  85.3869761  24.0897951 113.4219770
  79.4839668  25.4314602 108.6136558  80.0347093  25.3031665 107.8413552
  78.6451144  25.7309491 108.2631451  86.8233785  24.1821600 112.1157281
  86.8052261  25.0030481 111.6237550  87.7453705  24.0575675 112.3407422
  83.2806839  21.6965730 112.9580789  83.8135176  20.9354018 112.7280097
  82.7520920  21.4039381 113.7004944  86.4476534   6.8025796 108.4874431
  86.1040804   7.6927437 108.4113542  86.8155497   6.6127453 107.6244016
  74.5162385  19.1259326 101.3063033  75.3537607  19.5356334 101.0896741
  74.6940653  18.1858768 101.2763227  86.4126817  16.7934407  96.9946866
  85.8973440  17.5639011  97.2335253  86.1404126  16.1199543  97.6179928
  83.9973928  11.6384107 102.0532104  83.1415524  11.2490958 101.8737743
  84.4100880  11.7176068 101.1931890  85.5273075   9.1730451 106.4523664
  85.0237870   9.1360586 105.6391469  85.8203682  10.0823193 106.5120321
  81.7715961   9.2569180 105.4589846  82.6368957   9.0611989 105.0995735
  81.8393470   9.0279532 106.3859203  91.3861091  19.5466761  98.9300040
  90.6090534  19.2077921  98.4855202  92.0652572  19.5519385  98.2555005
  86.2013120  14.6661499  98.8206647  85.8963256  14.9807648  99.6716790
  87.1543562  14.7442919  98.8633980  84.6459552  20.8251722 100.4699601
  84.1180914  20.0904482 100.1572839  84.1447055  21.6026398 100.2239570
  89.6252398  19.0200743 105.5866648  88.9676073  19.7100004 105.6746776
  90.4292797  19.4097175 105.9300634  79.3778280  11.4871388 102.8306213
  79.9522032  11.2646570 102.0979406  79.9649262  11.5560083 103.5834814
  88.4357857  17.3745115 103.6370589  88.9489739  18.0075107 104.1392299
  89.0859081  16.7746311 103.2713949  79.7047867  13.5175849  96.8502098
  78.8685179  13.8550536  97.1711373  79.5652636  13.3824829  95.9129235
  81.6800947   8.3612637 101.5581282  81.0265360   8.0461654 100.9337897
  81.6381422   7.7388378 102.2841105  82.7912152  18.6431932  93.4734574
  81.8839214  18.4121186  93.6725723  83.2883184  17.8469552  93.6608556
  85.6980231  27.3529440  96.3931260  85.0241930  27.6561136  97.0016218
  86.0846053  28.1558520  96.0436717  84.9138688  14.8494571 105.8828930
  83.9961249  15.0709518 105.7250618  85.3298831  14.9240881 105.0240637
  85.6973736  16.2485987 101.0131610  86.4445554  16.7607384 100.7038732
  85.9665325  15.9270039 101.8736004  83.9700386  18.7444527  97.9958564
  83.0611605  18.4603560  98.0931034  83.9995470  19.1643606  97.1361871
  89.2019653  22.3551117 101.7649732  88.7481980  21.5142027 101.8214922
  88.5713620  22.9912515 102.1024512  88.1452573  13.2843103 102.9950399
  87.4075329  12.7720489 103.3260642  88.3979346  12.8443484 102.1833676
  87.6452592  24.1927613 102.6999550  87.9375567  24.7532671 101.9811916
  88.1551213  24.4856174 103.4552709  88.2464200   6.0619355 103.5892169
  88.5523077   5.2016718 103.3018084  88.9716805   6.6536975 103.3891163
  74.5388556  16.4650041 101.9773767  74.3412956  15.8719402 101.2524833
  73.9835220  16.1602252 102.6949705  82.5185280  16.3573148 104.0968360
  82.5733890  15.4046984 104.0210836  81.7076482  16.5132587 104.5809658
  83.6676473  20.2853271  95.3346643  83.2295903  19.5689130  94.8752280
  84.4086914  20.5129386  94.7731734  80.4577640  14.9750208 101.8558739
  79.6445505  15.2744378 102.2623931  80.9536634  14.5805896 102.5733221
  82.6086218  24.9707965 103.7893003  82.5662396  25.1968811 102.8601535
  83.5248916  24.7371339 103.9378804  86.0551851  15.4392032 110.6873632
  86.4101239  15.6663505 111.5468098  86.7023983  15.7710409 110.0650888
  91.7849588  18.5610468 101.3922961  91.6467487  18.7512064 100.4644151
  91.4285807  19.3229851 101.8491013  79.9491714  12.5468563 107.4719974
  80.5891094  12.4057322 106.7742937  79.1169245  12.2603077 107.0958576
  91.8118968  20.6286995 106.4034233  92.2455475  20.5362284 107.2517287
  92.5250549  20.6044495 105.7654249  80.7252018  21.8470994 103.5854966
  81.5192617  21.3521314 103.3837541  80.0143711  21.3188857 103.2222672
  85.5446863  24.2289089 107.9367334  85.5983885  24.7980025 108.7045050
  84.6761644  24.3990974 107.5721371  77.0334782  15.9914075  99.6614719
  76.1032370  15.9298531  99.8784681  77.1292254  15.4690028  98.8651360
  76.9520331  12.5168888 102.2492960  77.2127148  13.4314221 102.1402121
  77.7737503  12.0493331 102.3989573  78.4245256  13.9306645 109.4191785
  79.0968310  13.7224007 108.7704434  77.5975043  13.7328731 108.9797017
  92.6734517  20.6710696 108.9367118  92.8670408  21.5756506 109.1826393
  92.5735136  20.2118115 109.7705703  84.3270828  10.5568586 111.4357446
  83.6798743  11.2558536 111.3421922  85.0971844  10.9904730 111.8033694
  87.7349626  20.8217438 114.5107999  87.5835133  20.5927990 113.5938083
  87.7254306  21.7788040 114.5239344  84.5034963  18.3949351 109.4954265
  85.4327023  18.5460511 109.3223233  84.0825993  18.4833372 108.6402912
  83.3023294  22.4200016 107.2652803  83.1634380  22.0518800 108.1378741
  82.5137891  22.9347655 107.0936761  83.8971446  27.5209112  98.6078340
  84.0723202  27.0497155  99.4223962  83.2104234  28.1474878  98.8359600
  84.8528509  21.7981618 104.6541641  84.5178342  21.7582388 105.5499291
  84.3532455  21.1326334 104.1812051  78.8272753  17.2049248 110.1794222
  78.6892551  16.4729487 110.7805761  79.7377677  17.1158148 109.8978410
  87.7887701  19.1437653  94.9278701  87.1716872  18.4184481  94.8311753
  87.3204190  19.9047013  94.5845775  81.4555054  16.9169208 109.6677902
  82.1654673  16.2762400 109.6264520  81.4124362  17.1682102 110.5904082
  89.4441833  23.8536561 112.5884481  89.3854379  23.1695781 111.9215064
  89.8461351  24.5955551 112.1365107  80.1683988  13.9034425 111.4873541
  79.6321345  13.4525164 112.1395137  79.5800697  14.0380334 110.7444005
  78.4632532  30.6698475 105.3818200  78.7029130  31.3016999 106.0597218
  77.6201728  30.3186515 105.6683559  79.5786247  13.3623077  94.0500005
  78.7015713  13.2411878  93.6862251  80.0544000  12.5709155  93.7978893
  89.4459240  21.8176145 110.8198461  88.5586019  21.4802067 110.9424859
  90.0157791  21.0859176 111.0567226  71.0988387  18.1500237 104.1441512
  71.7859427  17.8361967 103.5562527  70.9436516  19.0541601 103.8708763
  75.9023109  13.0390433 108.5726536  75.8181298  12.4316103 107.8376946
  75.0805816  13.5299451 108.5736032  82.9760393  26.4777597 107.7859704
  82.9030565  27.2832569 108.2979008  82.5337787  26.6769563 106.9607725
  82.7650173  25.7149367 101.2962525  81.9817695  26.2571047 101.3900750
  83.4642918  26.2323347 101.6956766  86.0746823  11.5243997 103.9396731
  86.5715523  10.7713959 103.6197801  85.3033805  11.5608313 103.3739940
  93.9276581  17.2284362 105.5815022  93.9166457  18.1109078 105.2108955
  93.0593960  16.8755913 105.3869559  85.4359077  26.3764431 109.9417862
  86.1487049  27.0111896 109.8693764  84.9449106  26.4728297 109.1257864
  87.1576604  20.2815684 101.5135154  86.2232883  20.4017146 101.3439858
  87.3353272  19.3788151 101.2495164  82.6581792  13.6661380 103.6668415
  82.2879579  13.1132420 104.3549321  83.1540884  13.0619513 103.1143415
  90.5449155  16.1233003 102.0485188  91.0109607  16.9560995 101.9745491
  90.9956656  15.6577985 102.7530447  80.4870990  24.1258875 110.7623433
  81.1880450  24.7595358 110.9152827  80.0166105  24.4673606 110.0019073
  88.6125386  22.4676824  99.0471340  88.8885230  22.3533419  99.9565214
  87.7429885  22.0694309  99.0083513  88.5165818   8.4913590 106.0876090
  87.6028898   8.7217817 106.2558296  88.9458919   8.5752034 106.9390122
  88.2872276  16.6803482 108.5875984  87.6343727  16.9279390 107.9328436
  88.6652656  15.8667620 108.2538461  85.2479450  26.7163175 102.6904154
  85.4301845  25.8984831 103.1531906  86.0712436  26.9330868 102.2529044
  85.5821616  25.6431360  99.9519202  86.1109382  25.1323815  99.3389364
  85.8449835  25.3273891 100.8164735  84.3359849  17.4223293 115.0742021
  83.6600486  17.3217423 115.7444396  85.1587483  17.2662507 115.5378018
  76.0838709  23.6595230 107.6954536  76.6692145  22.9138918 107.8282440
  75.8863547  23.9699186 108.5791200  78.9377364  26.6946477 102.7116978
  78.2687739  27.1792605 102.2281018  78.7990233  26.9415698 103.6260357
  70.6756363  16.2300830 106.4158979  70.7140463  15.6964421 107.2096097
  70.1696656  15.7036035 105.7969956  83.0782632  28.7290221 109.3099637
  83.6300940  28.8921842 110.0748722  83.4188826  29.3194658 108.6379662
  78.0547126  11.0765370 109.9121521  78.1188452  11.9380201 109.4998919
  77.9914246  10.4639372 109.1793880  77.5299398  13.1488503 113.5594556
  78.1571437  12.7665580 114.1732080  76.6727317  12.9302705 113.9250248
  87.9293507  23.5551478 115.1648291  88.4733411  24.1681436 114.6703246
  87.3480352  24.1131057 115.6815304  74.3064941  14.9564932  99.4912910
  74.6018382  14.0475611  99.4379964  73.4052977  14.9352672  99.1693913
  86.2151020  26.6772196 106.2963319  86.0902159  25.8761936 105.7874264
  86.8730111  27.1718390 105.8077289  77.8359188  13.0320929 105.4740459
  77.1145774  13.6456896 105.3347932  78.6252444  13.5678694 105.3957105
  88.2785928  24.4781216 107.9242869  87.3316264  24.3586567 107.8521196
  88.6268701  23.5903714 108.0069130  80.6385501  10.3675355 111.7481111
  81.1619903  10.6137652 112.5107420  80.4197835  11.1995390 111.3284248
  76.0352782  12.6379030  99.6152236  75.7065489  11.7576409  99.4327342
  76.3892153  12.5826698 100.5028625  85.2832361  24.2733932 104.1247221
  85.1357324  23.3450640 104.3054791  86.1085855  24.2954023 103.6404296
  79.1494606  12.9252000  99.9827713  79.4890678  13.4537921  99.2606322
  79.5966726  13.2632406 100.7586280  88.8866483  25.0962491 105.2112094
  89.8113031  24.8905353 105.0736545  88.7181787  24.8478892 106.1201435
  81.8438046  11.3089050 109.4330781  81.5034867  10.5096863 109.8351461
  81.1377053  11.6090761 108.8607615  82.4954518   8.3938363 107.8858104
  83.3180588   7.9198841 107.7636995  82.7392582   9.1728846 108.3856791
  81.1362753  11.4226621  98.1821006  81.8571115  11.8007874  97.6784723
  80.5128057  12.1415498  98.2855984  85.2793876  12.1271770  99.1179338
  85.4957490  13.0096408  98.8168167  84.7987943  11.7357984  98.3884980
  80.0193097  15.0857483 105.6950083  79.8737678  15.3997786 106.5874364
  79.5418301  15.7042384 105.1420982  81.8789480  12.0760031 105.7430973
  81.8651049  11.1801125 105.4063270  82.5961908  12.0830695 106.3769259
  83.7315611  12.5097372 107.7884100  83.4733388  13.4314442 107.7868430
  83.2000651  12.1127806 108.4784564  88.6761799  25.6148159 100.5674185
  88.8498677  25.0494581  99.8148038  89.1690691  26.4149054 100.3853675
  74.4938759  17.6262828 108.6337744  73.9492227  18.4022636 108.7658018
  75.3718109  17.9733632 108.4756866  81.2826376  10.9574412 101.0118543
  81.4042287  10.0291058 101.2109430  80.9928418  10.9713098 100.0996858
  84.1517566   8.6429322 104.1485263  84.1739263   8.7068655 103.1937242
  84.5685625   7.8033831 104.3425769  94.5301191  18.3784582 102.1864485
  94.9732337  17.6291907 101.7883608  93.6527701  18.3694718 101.8038217
  89.6636972  24.9314923  97.6671084  90.3587876  25.5521616  97.8858398
  90.0060122  24.0810274  97.9423462  75.2804781  16.7532724 111.5267901
  74.5386517  16.9015359 112.1132531  74.9597525  17.0140990 110.6634650
  91.5628395  22.3814629  99.1958414  92.0879719  22.7201901  98.4707734
  91.4750748  21.4461644  99.0121549  83.2248444  26.2948702 111.3248291
  83.5335570  26.0497849 112.1970991  84.0223926  26.4995341 110.8367161
  83.2469056  28.4486612 103.5553668  82.8074046  27.9562991 104.2486524
  83.9977173  27.9059580 103.3145743  75.7261395  24.6398153 103.5578296
  76.5519415  24.3401925 103.1776939  75.3755447  23.8705775 104.0068084
  80.6942928  23.9924621 105.6275969  80.0722937  23.3295326 105.3278197
  81.3647795  24.0185753 104.9449617  73.9270000  22.5584479 104.5167229
  73.0901908  22.1306654 104.3351231  73.8993645  22.7516923 105.4538020
  80.7667455  12.4706409 115.2208475  80.8155611  13.3468532 114.8386245
  81.3089970  11.9283802 114.6480118  91.2522301  23.0147532 114.5009612
  90.4617845  22.9971671 113.9614112  91.0155656  23.5535826 115.2558649
  91.3720176  19.8639999 111.8142341  91.4218181  19.6990006 112.7557864
  91.2634099  18.9967258 111.4240222  80.2556435  22.5428544  99.1034430
  80.4044555  23.2264009  98.4501103  81.0622878  22.5233634  99.6183886
  88.6623938  15.8470927 113.1301648  89.5633801  15.7077391 112.8385645
  88.7371913  16.0125381 114.0699825  82.9966744  13.2237781 111.9754834
  82.1270053  13.5171347 111.7037422  83.2326224  13.8078226 112.6962098
  92.8738373  22.2836940 112.0584362  92.5823181  22.6466921 112.8947823
  92.2610504  21.5703948 111.8797695  94.0734055  19.8489820 104.5786933
  94.9080947  20.2879624 104.7424493  94.2093184  19.3728473 103.7595178
  91.1225561  17.4069555 110.5264420  91.5979683  17.5997201 109.7183272
  90.1991127  17.4628741 110.2807804  78.0109068  18.5693722 100.1095499
  77.7655110  17.6656052 100.3075709  78.1804982  18.5710872  99.1674977
  85.7005778   9.4417398 109.4920254  86.2187722  10.1778425 109.1666743
  85.3460910   9.7481392 110.3267013  77.2804715  14.3022080  97.6081660
  76.5873960  14.3766435  96.9521696  77.0356467  13.5382423  98.1303177
  85.9518372   5.8617681 105.0121151  86.2320126   5.1940870 105.6381577
  86.7368979   6.0546776 104.4995815  83.7551840  25.0376675  96.5746177
  83.1825807  25.6566862  96.1216649  84.3284634  25.5876036  97.1086099
  89.8227230  14.2835315 108.7592726  90.7744653  14.3833413 108.7804950
  89.6530681  13.4913583 109.2690810  87.8441610  11.3690898 108.9452127
  87.2491542  11.6495911 108.2498616  87.5591306  11.8584799 109.7168868
  86.9749100  25.3213825  97.7054759  87.9079773  25.2559387  97.9087635
  86.8872313  26.1570092  97.2469292  89.6037117  24.6379695  94.6658707
  89.5250748  24.3039559  95.5594465  90.4246784  25.1301463  94.6650179
  92.3015308  17.5041435 107.8735026  92.2691628  16.5657435 108.0594709
  92.9115932  17.5825471 107.1400851  84.1398639  16.3737488  93.9162230
  85.0857744  16.2443696  93.9850648  83.7612884  15.6352149  94.3931658
  92.4509796  14.2952478 107.9193309  91.9348845  13.5110935 107.7323238
  93.3349745  13.9671195 108.0839828  90.1120523   8.0393494 103.8789122
  89.9145344   7.7308582 104.7632453  90.7220229   8.7655132 104.0087051
  98.1191858  18.5657441 107.0141062  98.8495246  18.3042730 107.5748766
  97.5098803  17.8286163 107.0543130  96.2007155  16.7065304 107.6115514
  95.4740319  16.5721269 107.0032005  95.7854442  17.0142133 108.4172232
  84.0237331  20.4255234 115.3762887  84.9440341  20.6033833 115.5702933
  83.9886914  19.4811279 115.2242586  82.3241556  14.2987464  93.8517115
  81.4173011  14.0020577  93.9279829  82.6017537  14.0017282  92.9851401
  73.2419496  15.6193827 104.3016161  72.9222281  14.7659135 104.0090535
  72.6952925  15.8342405 105.0574129  77.0199404  18.3356268 108.0185668
  77.2385414  19.2673376 108.0373702  77.4325178  17.9764243 108.8040472
  83.9403622   8.8424354 100.0061356  83.1304350   8.4971439 100.3816602
  84.6288039   8.5331897 100.5948968  85.8694170   7.9202400 101.6285653
  86.4225209   8.3397854 102.2875676  86.1064256   6.9938149 101.6708609
  81.8927269  13.9089474 117.4088417  81.7923996  14.8583831 117.3400508
  81.6748811  13.5807713 116.5364487  81.0940341  11.1574399  93.9929094
  81.9559505  11.4829297  94.2524911  81.2790685  10.3705895  93.4802160
  73.1107756  19.2396739 106.2709283  72.4171228  18.8250692 105.7579237
  73.8580747  19.2817275 105.6742702  89.2472977  10.0302926 101.1364317
  88.6671646  10.6887730 100.7542370  88.9808910   9.2080270 100.7251735
  87.6976543   9.4307983 103.3385637  88.1976322   9.5424518 102.5299956
  88.3412151   9.1269036 103.9786446  81.7558539  17.3386613 116.2253478
  81.2725621  18.1386973 116.4317367  81.8419478  17.3494558 115.2720922
  75.0244499  19.1714993 104.1475298  75.0015187  19.2702680 103.1957181
  75.3345135  20.0180143 104.4692464  77.6831877  21.2291148 108.2621912
  78.6375130  21.1975090 108.1951844  77.4844400  20.7681771 109.0772138
  78.2731259  19.7992264 110.8292710  79.0924148  20.2936342 110.8527547
  78.5468067  18.8824232 110.8010277  88.0297855  12.1903016 100.1920665
  87.1423710  12.4752667  99.9740860  88.4451844  12.0296779  99.3447942
  91.3812391  12.2149537 103.9075005  92.1572781  12.7045989 104.1799621
  90.6560525  12.6407591 104.3646874  93.8184950  12.9277156 104.9648945
  94.4129441  12.6872892 104.2542253  93.8911534  12.2084287 105.5922482
  76.0382106  26.7710767 105.2792110  75.9036573  26.0111168 104.7130108
  75.6214168  27.4951667 104.8120899  87.1741069  21.9547691  94.2868685
  87.8776919  22.1597693  94.9026341  86.4503717  22.5224453  94.5517769
  88.0038879  17.7057552 100.4070956  87.9474080  18.1626103  99.5678588
  88.5567221  16.9448236 100.2293798  91.8143685  13.4947284 101.2321075
  91.5580619  13.0943919 102.0629283  91.1896553  14.2091078 101.1071214
  96.1256023  16.2343357 103.7392366  95.5655581  16.3036546 104.5123929
  95.5199526  16.0584342 103.0191863  79.1951231  27.6680084 105.4910553
  79.0783616  28.6125517 105.3889243  78.3743678  27.3653646 105.8796352
  89.0827766  22.3930220  96.3367145  89.9173370  21.9611418  96.1544620
  88.9212109  22.2212234  97.2644040  88.7373658  18.8962333  97.7023485
  88.6822462  18.7306605  96.7611929  88.1119713  19.6038366  97.8585674
  73.5266173  14.1330398 111.5284907  74.1725037  13.6229351 112.0172132
  73.3183324  14.8699079 112.1028332  86.0519565  21.2011245 117.0277048
  86.9210725  21.3751897 116.6663682  85.5726317  22.0205662 116.9052777
  82.0469784   8.3970442  97.2808803  82.0348453   9.3412282  97.4377074
  82.9393205   8.2140588  96.9868264  80.2205746  28.3208346 108.7066481
  81.1232992  28.3531956 109.0232976  79.9943116  27.3908797 108.7212817
  81.9759348  27.0739333 105.3676560  81.0254979  27.0741194 105.2540932
  82.2791834  26.3272067 104.8512594  85.8621903   4.9913219 101.5354740
  85.0954299   4.4371705 101.6811422  86.2732608   5.0635088 102.3968892
  77.8663664  11.2798015 115.6259921  78.7295126  10.9234819 115.8363246
  77.2929075  10.9411909 116.3135325  97.7112041  32.9099871 106.4322322
  98.3490451  32.7906618 105.7285662  97.5932884  33.8580715 106.4910274
  94.5201747  32.8627299 106.3683847  94.1820259  32.7468364 105.4804382
  95.3891516  32.4618464 106.3484853  90.3788563  34.7162775 102.3580738
  89.8153428  34.6252712 101.5897026  90.2640958  33.8962680 102.8383230
  95.0021530  34.0162151 112.3270052  94.9910171  33.6214949 111.4550556
  95.1642170  33.2828223 112.9203824  87.9252995  36.2113967 105.1964958
  88.7174287  35.8704792 104.7811258  88.1649645  36.3208942 106.1167112
  95.9588122  38.3833743  97.6695203  95.3076102  38.9687824  97.2829217
  96.7532485  38.9139938  97.7290240  89.8843749  35.4722880  98.0682337
  90.6574625  34.9251867  97.9295213  90.2369148  36.3367130  98.2796798
  91.7228791  36.7999263 111.2749236  91.4318657  37.7044893 111.1595903
  92.3585776  36.8415790 111.9893306  92.6484998  34.1776111 107.8650596
  93.2448571  33.9532133 107.1507559  92.7059970  33.4360857 108.4676044
  92.2210027  31.6315546  95.7000787  92.4735547  31.1097068  94.9384250
  91.2834586  31.4681692  95.8027471  97.2653310  30.6351325 103.5075530
  98.0516399  30.2170748 103.1565947  97.5292014  31.5397417 103.6757179
  97.4363387  36.0724175  98.2064187  96.8009220  36.1458802  98.9185092
  97.1060793  36.6617774  97.5283266 102.6661737  30.5726558 104.4108509
 103.3986909  30.0025775 104.6446338 101.9101092  30.1848158 104.8515014
  91.9406315  33.5343652  97.9025162  91.8242574  32.8588556  98.5706246
  92.0508575  33.0476026  97.0857315  94.2837856  32.9953799 101.6071851
  93.9196064  32.4684420 102.3184773  95.1404972  32.6052269 101.4338337
 100.1887157  24.2848132 108.8703117  99.8570482  25.1543543 108.6464332
  99.5932770  23.9684416 109.5497148  93.9243343  28.0243699  96.6033200
  94.0917746  28.8923936  96.9703671  93.7340512  28.1870981  95.6794489
  96.6818677  36.4860678 108.2699030  96.3819400  37.3885717 108.1614837
  96.3369736  36.2192861 109.1220183  90.1331158  32.9374475 104.3035734
  89.2081654  32.8050689 104.5113426  90.3815571  33.7168694 104.8005677
 100.0815820  29.0043218 105.9496467  99.1732698  28.9358627 105.6555228
 100.0303416  29.4815163 106.7778293  93.9032564  30.4801357  97.5879867
  93.7832189  30.9258407  98.4265347  93.2085153  30.8286674  97.0293405
  87.4939969  32.5807748 105.1379524  87.6232350  32.8342227 106.0518935
  86.8137420  33.1735456 104.8184179  91.6639456  43.2504998 101.2369998
  91.5863486  44.2012824 101.3158478  91.0601100  42.9050871 101.8944924
  94.1556686  30.4232864 113.8931365  93.3790020  30.9826784 113.8834229
  94.7947249  30.9089647 114.4146235 101.9477467  27.2059657 107.7274341
 101.3051847  27.4992190 107.0814136 101.4432395  27.0912577 108.5327538
  99.6017630  30.9522830  98.4160201 100.5135487  31.1850217  98.2407898
  99.0927277  31.5359874  97.8535279  92.4103058  33.2318317 113.4549332
  93.1517743  33.7703361 113.1784155  91.7040044  33.8584606 113.6120883
  97.8858398  35.3747458 112.0521493  98.2941754  34.9329868 111.3076126
  97.1635660  34.8000085 112.3055686  94.2389468  30.3120064 109.4255050
  95.0850663  30.7359478 109.5689699  94.1788106  29.6553689 110.1193613
  98.2087213  35.9348648 105.8073782  97.5796075  36.0994362 105.1049850
  97.8212875  36.3490258 106.5784746 102.0876445  36.8703086 103.1618146
 101.4027483  37.2501988 102.6115179 102.1720294  37.4798413 103.8950094
  97.3888913  27.9724433 111.0836224  97.1449845  28.7266493 110.5470499
  97.6648844  28.3509780 111.9183471  99.3427376  34.5163045 109.7613489
  99.5544271  35.1594805 109.0847870  99.2957124  33.6825362 109.2935419
  96.9453605  27.1280866 106.6650061  96.0838084  27.4262119 106.9566799
  96.9716040  27.3451265 105.7331094  93.7615175  35.6723056 103.0723867
  94.2253520  35.9510759 102.2828490  93.4971973  34.7706501 102.8896958
  90.6539256  35.2194538 106.0103630  91.2240613  35.6481806 105.3721115
  91.2447367  34.9377123 106.7087816  92.6984061  31.7946209  99.8813432
  93.4008104  32.2467252 100.3487359  92.3664689  31.1530028 100.5093325
  91.1464422  30.3857965 114.2564642  90.5163083  31.0674246 114.4900038
  91.0400510  30.2741047 113.3117780  86.4409395  30.0529761 105.1830566
  85.6508449  30.3087290 104.7070676  86.9320642  30.8678099 105.2882606
 100.4573204  37.3935001 107.9335847 101.2790648  36.9915188 107.6518528
 100.4535607  37.2903235 108.8851962  88.3924140  30.4174341 102.1414043
  87.5955303  30.5293035 102.6597538  88.1649732  30.7560993 101.2754933
  94.2229808  36.9419044 110.0896557  94.2874240  37.4039451 110.9254729
  93.5140731  36.3116409 110.2178867  84.7247098  30.3060252 107.6145557
  84.9755136  31.1907262 107.8803133  85.2606646  30.1264853 106.8420648
 108.5479197  33.7373749 104.2820818 107.7942906  33.1681147 104.1264823
 108.6826738  33.7036414 105.2291453  93.9377825  38.6087151  99.9575537
  93.8023500  39.4538687 100.3860385  94.4787638  38.8106429  99.1941471
  90.4245165  24.6878731 116.6189893  90.0312110  24.1344930 117.2937537
  91.2411305  24.9989310 117.0096410  87.3907223  36.1262589 100.5303463
  87.9031743  36.9205840 100.6809027  88.0429935  35.4288880 100.4637064
  89.2002107  39.2428346 102.6126216  89.3768736  40.1646310 102.4247200
  89.9958941  38.9286765 103.0420596  93.3413126  26.1036610 114.2110149
  94.0822839  26.7043763 114.1314612  93.5731049  25.3614248 113.6528192
  88.4854464  31.2892978 112.4888379  88.3707979  30.3878235 112.7895478
  87.6298982  31.5356674 112.1373195  95.5646302  39.2310718 114.0875880
  95.1210156  38.4447096 113.7696784  96.2263515  39.4189868 113.4219770
  90.3233423  40.7606519 108.6136558  90.8740848  40.6323583 107.8413552
  89.4844899  41.0601409 108.2631451  97.6627540  39.5113518 112.1157281
  97.6446015  40.3322399 111.6237550  98.5847460  39.3867593 112.3407422
  94.1200594  37.0257647 112.9580789  94.6528931  36.2645935 112.7280097
  93.5914675  36.7331299 113.7004944  97.2870289  22.1317713 108.4874431
  96.9434558  23.0219355 108.4113542  97.6549251  21.9419371 107.6244016
  85.3556139  34.4551244 101.3063033  86.1931361  34.8648252 101.0896741
  85.5334407  33.5150686 101.2763227  97.2520572  32.1226324  96.9946866
  96.7367195  32.8930929  97.2335253  96.9797880  31.4491461  97.6179928
  94.8367683  26.9676025 102.0532104  93.9809279  26.5782876 101.8737743
  95.2494634  27.0467986 101.1931890  96.3666829  24.5022368 106.4523664
  95.8631625  24.4652504 105.6391469  96.6597436  25.4115111 106.5120321
  92.6109715  24.5861098 105.4589846  93.4762712  24.3903907 105.0995735
  92.6787224  24.3571450 106.3859203 102.2254846  34.8758679  98.9300040
 101.4484288  34.5369839  98.4855202 102.9046327  34.8811302  98.2555005
  97.0406875  29.9953416  98.8206647  96.7357010  30.3099566  99.6716790
  97.9937317  30.0734836  98.8633980  95.4853307  36.1543640 100.4699601
  94.9574668  35.4196399 100.1572839  94.9840809  36.9318316 100.2239570
 100.4646153  34.3492660 105.5866648  99.8069827  35.0391922 105.6746776
 101.2686552  34.7389092 105.9300634  90.2172034  26.8163306 102.8306213
  90.7915786  26.5938488 102.0979406  90.8043017  26.8852001 103.5834814
  99.2751611  32.7037033 103.6370589  99.7883493  33.3367025 104.1392299
  99.9252835  32.1038228 103.2713949  90.5441621  28.8467767  96.8502098
  89.7078934  29.1842454  97.1711373  90.4046391  28.7116747  95.9129235
  92.5194702  23.6904555 101.5581282  91.8659114  23.3753572 100.9337897
  92.4775176  23.0680295 102.2841105  93.6305907  33.9723850  93.4734574
  92.7232968  33.7413104  93.6725723  94.1276939  33.1761469  93.6608556
  96.5373986  42.6821357  96.3931260  95.8635684  42.9853054  97.0016218
  96.9239808  43.4850438  96.0436717  95.7532442  30.1786489 105.8828930
  94.8355004  30.4001436 105.7250618  96.1692586  30.2532799 105.0240637
  96.5367490  31.5777904 101.0131610  97.2839309  32.0899301 100.7038732
  96.8059080  31.2561957 101.8736004  94.8094140  34.0736445  97.9958564
  93.9005359  33.7895478  98.0931034  94.8389224  34.4935523  97.1361871
 100.0413408  37.6843034 101.7649732  99.5875735  36.8433944 101.8214922
  99.4107374  38.3204433 102.1024512  98.9846327  28.6135020 102.9950399
  98.2469084  28.1012407 103.3260642  99.2373101  28.1735402 102.1833676
  98.4846347  39.5219531 102.6999550  98.7769321  40.0824588 101.9811916
  98.9944967  39.8148092 103.4552709  99.0857954  21.3911272 103.5892169
  99.3916831  20.5308636 103.3018084  99.8110559  21.9828893 103.3891163
  85.3782311  31.7941959 101.9773767  85.1806710  31.2011320 101.2524833
  84.8228975  31.4894169 102.6949705  93.3579034  31.6865066 104.0968360
  93.4127644  30.7338902 104.0210836  92.5470236  31.8424505 104.5809658
  94.5070228  35.6145189  95.3346643  94.0689658  34.8981048  94.8752280
  95.2480669  35.8421303  94.7731734  91.2971394  30.3042125 101.8558739
  90.4839260  30.6036296 102.2623931  91.7930388  29.9097814 102.5733221
  93.4479972  40.2999882 103.7893003  93.4056151  40.5260729 102.8601535
  94.3642671  40.0663257 103.9378804  96.8945606  30.7683950 110.6873632
  97.2494994  30.9955423 111.5468098  97.5417737  31.1002327 110.0650888
 102.6243343  33.8902386 101.3922961 102.4861241  34.0803982 100.4644151
 102.2679562  34.6521768 101.8491013  90.7885469  27.8760481 107.4719974
  91.4284848  27.7349240 106.7742937  89.9562999  27.5894994 107.0958576
 102.6512722  35.9578913 106.4034233 103.0849229  35.8654202 107.2517287
 103.3644303  35.9336413 105.7654249  91.5645773  37.1762911 103.5854966
  92.3586371  36.6813231 103.3837541  90.8537465  36.6480774 103.2222672
  96.3840617  39.5581007 107.9367334  96.4377640  40.1271943 108.7045050
  95.5155399  39.7282892 107.5721371  87.8728536  31.3205993  99.6614719
  86.9426124  31.2590448  99.8784681  87.9686008  30.7981946  98.8651360
  87.7914085  27.8460806 102.2492960  88.0520903  28.7606139 102.1402121
  88.6131258  27.3785248 102.3989573  89.2639011  29.2598563 109.4191785
  89.9362064  29.0515925 108.7704434  88.4368797  29.0620649 108.9797017
 103.5128272  36.0002613 108.9367118 103.7064162  36.9048424 109.1826393
 103.4128890  35.5410032 109.7705703  95.1664583  25.8860504 111.4357446
  94.5192498  26.5850454 111.3421922  95.9365598  26.3196648 111.8033694
  98.5743381  36.1509356 114.5107999  98.4228887  35.9219908 113.5938083
  98.5648060  37.1079957 114.5239344  95.3428717  33.7241269 109.4954265
  96.2720777  33.8752428 109.3223233  94.9219747  33.8125290 108.6402912
  94.1417049  37.7491933 107.2652803  94.0028134  37.3810718 108.1378741
  93.3531645  38.2639573 107.0936761  94.7365201  42.8501030  98.6078340
  94.9116956  42.3789073  99.4223962  94.0497989  43.4766796  98.8359600
  95.6922264  37.1273536 104.6541641  95.3572097  37.0874306 105.5499291
  95.1926210  36.4618252 104.1812051  89.6666508  32.5341166 110.1794222
  89.5286306  31.8021405 110.7805761  90.5771431  32.4450066 109.8978410
  98.6281456  34.4729570  94.9278701  98.0110626  33.7476398  94.8311753
  98.1597944  35.2338931  94.5845775  92.2948809  32.2461125 109.6677902
  93.0048427  31.6054317 109.6264520  92.2518117  32.4974020 110.5904082
 100.2835587  39.1828479 112.5884481 100.2248133  38.4987699 111.9215064
 100.6855106  39.9247469 112.1365107  91.0077743  29.2326343 111.4873541
  90.4715100  28.7817082 112.1395137  90.4194451  29.3672252 110.7444005
  89.3026286  45.9990392 105.3818200  89.5422884  46.6308917 106.0597218
  88.4595483  45.6478432 105.6683559  90.4180002  28.6914995  94.0500005
  89.5409468  28.5703795  93.6862251  90.8937755  27.9001073  93.7978893
 100.2852995  37.1468063 110.8198461  99.3979773  36.8093984 110.9424859
 100.8551546  36.4151094 111.0567226  81.9382142  33.4792154 104.1441512
  82.6253181  33.1653884 103.5562527  81.7830270  34.3833519 103.8708763
  86.7416864  28.3682351 108.5726536  86.6575053  27.7608020 107.8376946
  85.9199570  28.8591369 108.5736032  93.8154148  41.8069515 107.7859704
  93.7424319  42.6124486 108.2979008  93.3731541  42.0061481 106.9607725
  93.6043928  41.0441285 101.2962525  92.8211449  41.5862965 101.3900750
  94.3036673  41.5615265 101.6956766  96.9140578  26.8535914 103.9396731
  97.4109277  26.1005877 103.6197801  96.1427559  26.8900231 103.3739940
 104.7670335  32.5576280 105.5815022 104.7560211  33.4400995 105.2108955
 103.8987714  32.2047831 105.3869559  96.2752831  41.7056349 109.9417862
  96.9880804  42.3403814 109.8693764  95.7842860  41.8020215 109.1257864
  97.9970358  35.6107602 101.5135154  97.0626637  35.7309064 101.3439858
  98.1747027  34.7080068 101.2495164  93.4975546  28.9953297 103.6668415
  93.1273334  28.4424338 104.3549321  93.9934639  28.3911431 103.1143415
 101.3842910  31.4524921 102.0485188 101.8503362  32.2852912 101.9745491
 101.8350410  30.9869902 102.7530447  91.3264745  39.4550792 110.7623433
  92.0274204  40.0887275 110.9152827  90.8559860  39.7965524 110.0019073
  99.4519141  37.7968742  99.0471340  99.7278985  37.6825337  99.9565214
  98.5823640  37.3986227  99.0083513  99.3559572  23.8205508 106.0876090
  98.4422652  24.0509735 106.2558296  99.7852674  23.9043952 106.9390122
  99.1266031  32.0095400 108.5875984  98.4737481  32.2571307 107.9328436
  99.5046411  31.1959538 108.2538461  96.0873205  42.0455093 102.6904154
  96.2695599  41.2276749 103.1531906  96.9106191  42.2622785 102.2529044
  96.4215370  40.9723278  99.9519202  96.9503137  40.4615733  99.3389364
  96.6843590  40.6565808 100.8164735  95.1753604  32.7515211 115.0742021
  94.4994241  32.6509340 115.7444396  95.9981238  32.5954425 115.5378018
  86.9232463  38.9887147 107.6954536  87.5085900  38.2430835 107.8282440
  86.7257301  39.2991104 108.5791200  89.7771118  42.0238395 102.7116978
  89.1081494  42.5084522 102.2281018  89.6383988  42.2707615 103.6260357
  81.5150118  31.5592748 106.4158979  81.5534217  31.0256338 107.2096097
  81.0090411  31.0327953 105.7969956  93.9176387  44.0582138 109.3099637
  94.4694695  44.2213760 110.0748722  94.2582580  44.6486576 108.6379662
  88.8940880  26.4057288 109.9121521  88.9582207  27.2672119 109.4998919
  88.8308000  25.7931290 109.1793880  88.3693153  28.4780421 113.5594556
  88.9965191  28.0957498 114.1732080  87.5121071  28.2594623 113.9250248
  98.7687261  38.8843396 115.1648291  99.3127165  39.4973354 114.6703246
  98.1874106  39.4422974 115.6815304  85.1458695  30.2856850  99.4912910
  85.4412136  29.3767528  99.4379964  84.2446731  30.2644589  99.1693913
  97.0544774  42.0064114 106.2963319  96.9295914  41.2053854 105.7874264
  97.7123865  42.5010307 105.8077289  88.6752942  28.3612846 105.4740459
  87.9539528  28.9748814 105.3347932  89.4646198  28.8970611 105.3957105
  99.1179683  39.8073134 107.9242869  98.1710018  39.6878485 107.8521196
  99.4662456  38.9195632 108.0069130  91.4779256  25.6967273 111.7481111
  92.0013658  25.9429569 112.5107420  91.2591589  26.5287308 111.3284248
  86.8746537  27.9670947  99.6152236  86.5459243  27.0868326  99.4327342
  87.2285908  27.9118616 100.5028625  96.1226116  39.6025850 104.1247221
  95.9751078  38.6742558 104.3054791  96.9479609  39.6245941 103.6404296
  89.9888360  28.2543917  99.9827713  90.3284433  28.7829838  99.2606322
  90.4360481  28.5924323 100.7586280  99.7260238  40.4254409 105.2112094
 100.6506785  40.2197270 105.0736545  99.5575541  40.1770810 106.1201435
  92.6831801  26.6380968 109.4330781  92.3428621  25.8388781 109.8351461
  91.9770807  26.9382679 108.8607615  93.3348273  23.7230280 107.8858104
  94.1574342  23.2490759 107.7636995  93.5786336  24.5020764 108.3856791
  91.9756507  26.7518539  98.1821006  92.6964870  27.1299792  97.6784723
  91.3521811  27.4707416  98.2855984  96.1187630  27.4563688  99.1179338
  96.3351245  28.3388326  98.8168167  95.6381697  27.0649901  98.3884980
  90.8586852  30.4149401 105.6950083  90.7131432  30.7289704 106.5874364
  90.3812055  31.0334301 105.1420982  92.7183234  27.4051949 105.7430973
  92.7044803  26.5093042 105.4063270  93.4355662  27.4122613 106.3769259
  94.5709365  27.8389289 107.7884100  94.3127143  28.7606360 107.7868430
  94.0394405  27.4419724 108.4784564  99.5155554  40.9440076 100.5674185
  99.6892431  40.3786499  99.8148038 100.0084445  41.7440971 100.3853675
  85.3332514  32.9554745 108.6337744  84.7885982  33.7314553 108.7658018
  86.2111864  33.3025550 108.4756866  92.1220130  26.2866329 101.0118543
  92.2436042  25.3582975 101.2109430  91.8322173  26.3005015 100.0996858
  94.9911321  23.9721240 104.1485263  95.0133018  24.0360573 103.1937242
  95.4079380  23.1325748 104.3425769 105.3694945  33.7076499 102.1864485
 105.8126091  32.9583824 101.7883608 104.4921455  33.6986636 101.8038217
 100.5030726  40.2606841  97.6671084 101.1981631  40.8813533  97.8858398
 100.8453876  39.4102192  97.9423462  86.1198536  32.0824642 111.5267901
  85.3780272  32.2307277 112.1132531  85.7991280  32.3432907 110.6634650
 102.4022149  37.7106546  99.1958414 102.9273474  38.0493819  98.4707734
 102.3144502  36.7753562  99.0121549  94.0642198  41.6240620 111.3248291
  94.3729325  41.3789767 112.1970991  94.8617680  41.8287258 110.8367161
  94.0862810  43.7778530 103.5553668  93.6467801  43.2854908 104.2486524
  94.8370927  43.2351497 103.3145743  86.5655149  39.9690070 103.5578296
  87.3913169  39.6693842 103.1776939  86.2149201  39.1997693 104.0068084
  91.5336682  39.3216539 105.6275969  90.9116692  38.6587244 105.3278197
  92.2041549  39.3477671 104.9449617  84.7663754  37.8876397 104.5167229
  83.9295663  37.4598571 104.3351231  84.7387400  38.0808840 105.4538020
  91.6061210  27.7998327 115.2208475  91.6549365  28.6760449 114.8386245
  92.1483724  27.2575720 114.6480118 102.0916056  38.3439450 114.5009612
 101.3011599  38.3263589 113.9614112 101.8549410  38.8827744 115.2558649
 102.2113931  35.1931916 111.8142341 102.2611936  35.0281924 112.7557864
 102.1027854  34.3259175 111.4240222  91.0950189  37.8720462  99.1034430
  91.2438310  38.5555926  98.4501103  91.9016633  37.8525552  99.6183886
  99.5017693  31.1762844 113.1301648 100.4027556  31.0369309 112.8385645
  99.5765667  31.3417299 114.0699825  93.8360498  28.5529699 111.9754834
  92.9663808  28.8463265 111.7037422  94.0719979  29.1370144 112.6962098
 103.7132127  37.6128858 112.0584362 103.4216936  37.9758838 112.8947823
 103.1004259  36.8995866 111.8797695 104.9127810  35.1781738 104.5786933
 105.7474701  35.6171542 104.7424493 105.0486939  34.7020391 103.7595178
 101.9619316  32.7361472 110.5264420 102.4373437  32.9289119 109.7183272
 101.0384881  32.7920658 110.2807804  88.8502822  33.8985640 100.1095499
  88.6048864  32.9947970 100.3075709  89.0198737  33.9002790  99.1674977
  96.5399532  24.7709316 109.4920254  97.0581476  25.5070343 109.1666743
  96.1854665  25.0773309 110.3267013  88.1198470  29.6313997  97.6081660
  87.4267715  29.7058352  96.9521696  87.8750222  28.8674341  98.1303177
  96.7912126  21.1909599 105.0121151  97.0713880  20.5232788 105.6381577
  97.5762733  21.3838694 104.4995815  94.5945595  40.3668592  96.5746177
  94.0219562  40.9858780  96.1216649  95.1678388  40.9167954  97.1086099
 100.6620985  29.6127233 108.7592726 101.6138408  29.7125330 108.7804950
 100.4924435  28.8205501 109.2690810  98.6835364  26.6982816 108.9452127
  98.0885296  26.9787828 108.2498616  98.3985061  27.1876717 109.7168868
  97.8142855  40.6505743  97.7054759  98.7473528  40.5851304  97.9087635
  97.7266067  41.4862009  97.2469292 100.4430871  39.9671613  94.6658707
 100.3644503  39.6331477  95.5594465 101.2640538  40.4593381  94.6650179
 103.1409062  32.8333352 107.8735026 103.1085383  31.8949353 108.0594709
 103.7509686  32.9117389 107.1400851  94.9792393  31.7029405  93.9162230
  95.9251498  31.5735613  93.9850648  94.6006638  30.9644067  94.3931658
 103.2903551  29.6244396 107.9193309 102.7742600  28.8402852 107.7323238
 104.1743499  29.2963112 108.0839828 100.9514278  23.3685411 103.8789122
 100.7539099  23.0600499 104.7632453 101.5613983  24.0947050 104.0087051
 108.9585612  33.8949359 107.0141062 109.6889001  33.6334647 107.5748766
 108.3492558  33.1578081 107.0543130 107.0400909  32.0357222 107.6115514
 106.3134073  31.9013187 107.0032005 106.6248196  32.3434050 108.4172232
  94.8631086  35.7547151 115.3762887  95.7834095  35.9325750 115.5702933
  94.8280669  34.8103197 115.2242586  93.1635310  29.6279382  93.8517115
  92.2566766  29.3312494  93.9279829  93.4411291  29.3309200  92.9851401
  84.0813251  30.9485745 104.3016161  83.7616035  30.0951053 104.0090535
  83.5346679  31.1634323 105.0574129  87.8593158  33.6648186 108.0185668
  88.0779168  34.5965294 108.0373702  88.2718932  33.3056160 108.8040472
  94.7797376  24.1716271 100.0061356  93.9698104  23.8263356 100.3816602
  95.4681793  23.8623815 100.5948968  96.7087924  23.2494318 101.6285653
  97.2618963  23.6689772 102.2875676  96.9458011  22.3230066 101.6708609
  92.7321024  29.2381392 117.4088417  92.6317751  30.1875749 117.3400508
  92.5142566  28.9099631 116.5364487  91.9334095  26.4866317  93.9929094
  92.7953259  26.8121215  94.2524911  92.1184439  25.6997813  93.4802160
  83.9501511  34.5688656 106.2709283  83.2564982  34.1542609 105.7579237
  84.6974502  34.6109193 105.6742702 100.0866732  25.3594843 101.1364317
  99.5065401  26.0179647 100.7542370  99.8202664  24.5372188 100.7251735
  98.5370298  24.7599901 103.3385637  99.0370076  24.8716435 102.5299956
  99.1805906  24.4560954 103.9786446  92.5952294  32.6678531 116.2253478
  92.1119375  33.4678891 116.4317367  92.6813233  32.6786475 115.2720922
  85.8638253  34.5006910 104.1475298  85.8408941  34.5994598 103.1957181
  86.1738890  35.3472061 104.4692464  88.5225631  36.5583065 108.2621912
  89.4768885  36.5267008 108.1951844  88.3238155  36.0973689 109.0772138
  89.1125013  35.1284181 110.8292710  89.9317902  35.6228260 110.8527547
  89.3861821  34.2116149 110.8010277  98.8691610  27.5194934 100.1920665
  97.9817465  27.8044584  99.9740860  99.2845599  27.3588697  99.3447942
 102.2206146  27.5441455 103.9075005 102.9966536  28.0337907 104.1799621
 101.4954280  27.9699509 104.3646874 104.6578704  28.2569074 104.9648945
 105.2523195  28.0164810 104.2542253 104.7305288  27.5376204 105.5922482
  86.8775860  42.1002685 105.2792110  86.7430328  41.3403086 104.7130108
  86.4607922  42.8243585 104.8120899  98.0134823  37.2839608  94.2868685
  98.7170673  37.4889611  94.9026341  97.2897472  37.8516370  94.5517769
  98.8432633  33.0349470 100.4070956  98.7867835  33.4918021  99.5678588
  99.3960976  32.2740154 100.2293798 102.6537439  28.8239201 101.2321075
 102.3974373  28.4235837 102.0629283 102.0290307  29.5382995 101.1071214
 106.9649777  31.5635275 103.7392366 106.4049335  31.6328464 104.5123929
 106.3593280  31.3876259 103.0191863  90.0344986  42.9972002 105.4910553
  89.9177370  43.9417434 105.3889243  89.2137432  42.6945563 105.8796352
  99.9221520  37.7222138  96.3367145 100.7567124  37.2903336  96.1544620
  99.7605863  37.5504151  97.2644040  99.5767413  34.2254251  97.7023485
  99.5216216  34.0598522  96.7611929  98.9513468  34.9330284  97.8585674
  84.3659928  29.4622315 111.5284907  85.0118791  28.9521269 112.0172132
  84.1577079  30.1990997 112.1028332  96.8913320  36.5303163 117.0277048
  97.7604479  36.7043815 116.6663682  96.4120071  37.3497579 116.9052777
  92.8863538  23.7262360  97.2808803  92.8742208  24.6704200  97.4377074
  93.7786960  23.5432505  96.9868264  91.0599500  43.6500264 108.7066481
  91.9626747  43.6823874 109.0232976  90.8336870  42.7200715 108.7212817
  92.8153102  42.4031250 105.3676560  91.8648733  42.4033112 105.2540932
  93.1185588  41.6563985 104.8512594  96.7015658  20.3205136 101.5354740
  95.9348053  19.7663623 101.6811422  97.1126363  20.3927005 102.3968892
  88.7057419  26.6089932 115.6259921  89.5688880  26.2526737 115.8363246
  88.1322829  26.2703827 116.3135325 108.5505796  48.2391789 106.4322322
 109.1884205  48.1198536 105.7285662 108.4326638  49.1872633 106.4910274
 105.3595502  48.1919217 106.3683847 105.0214013  48.0760281 105.4804382
 106.2285270  47.7910382 106.3484853 101.2182318  50.0454693 102.3580738
 100.6547183  49.9544630 101.5897026 101.1034713  49.2254598 102.8383230
 105.8415285  49.3454068 112.3270052 105.8303926  48.9506867 111.4550556
 106.0035924  48.6120141 112.9203824  98.7646749  51.5405885 105.1964958
  99.5568041  51.1996709 104.7811258  99.0043400  51.6500860 106.1167112
 106.7981876  53.7125661  97.6695203 106.1469856  54.2979741  97.2829217
 107.5926239  54.2431856  97.7290240 100.7237503  50.8014798  98.0682337
 101.4968379  50.2543785  97.9295213 101.0762902  51.6659047  98.2796798
 102.5622546  52.1291180 111.2749236 102.2712412  53.0336811 111.1595903
 103.1979530  52.1707708 111.9893306 103.4878753  49.5068029 107.8650596
 104.0842325  49.2824051 107.1507559 103.5453724  48.7652774 108.4676044
 103.0603781  46.9607464  95.7000787 103.3129302  46.4388985  94.9384250
 102.1228340  46.7973610  95.8027471 108.1047064  45.9643242 103.5075530
 108.8910153  45.5462666 103.1565947 108.3685768  46.8689335 103.6757179
 108.2757141  51.4016093  98.2064187 107.6402974  51.4750719  98.9185092
 107.9454548  51.9909692  97.5283266 113.5055491  45.9018476 104.4108509
 114.2380663  45.3317692 104.6446338 112.7494847  45.5140076 104.8515014
 102.7800070  48.8635570  97.9025162 102.6636328  48.1880473  98.5706246
 102.8902330  48.3767944  97.0857315 105.1231611  48.3245717 101.6071851
 104.7589818  47.7976338 102.3184773 105.9798727  47.9344186 101.4338337
 111.0280911  39.6140050 108.8703117 110.6964236  40.4835461 108.6464332
 110.4326525  39.2976334 109.5497148 104.7637098  43.3535617  96.6033200
 104.9311500  44.2215853  96.9703671 104.5734267  43.5162899  95.6794489
 107.5212431  51.8152596 108.2699030 107.2213154  52.7177635 108.1614837
 107.1763491  51.5484779 109.1220183 100.9724913  48.2666393 104.3035734
 100.0475409  48.1342607 104.5113426 101.2209326  49.0460612 104.8005677
 110.9209575  44.3335136 105.9496467 110.0126452  44.2650544 105.6555228
 110.8697171  44.8107081 106.7778293 104.7426319  45.8093274  97.5879867
 104.6225944  46.2550325  98.4265347 104.0478907  46.1578592  97.0293405
  98.3333724  47.9099666 105.1379524  98.4626105  48.1634145 106.0518935
  97.6531175  48.5027374 104.8184179 102.5033211  58.5796916 101.2369998
 102.4257241  59.5304741 101.3158478 101.8994854  58.2342789 101.8944924
 104.9950441  45.7524782 113.8931365 104.2183775  46.3118702 113.8834229
 105.6341004  46.2381565 114.4146235 112.7871221  42.5351574 107.7274341
 112.1445601  42.8284108 107.0814136 112.2826150  42.4204495 108.5327538
 110.4411385  46.2814748  98.4160201 111.3529241  46.5142134  98.2407898
 109.9321032  46.8651792  97.8535279 103.2496813  48.5610235 113.4549332
 103.9911497  49.0995279 113.1784155 102.5433798  49.1876524 113.6120883
 108.7252153  50.7039375 112.0521493 109.1335509  50.2621786 111.3076126
 108.0029414  50.1292003 112.3055686 105.0783223  45.6411982 109.4255050
 105.9244418  46.0651396 109.5689699 105.0181860  44.9845606 110.1193613
 109.0480967  51.2640566 105.8073782 108.4189830  51.4286280 105.1049850
 108.6606629  51.6782176 106.5784746 112.9270199  52.1995004 103.1618146
 112.2421237  52.5793905 102.6115179 113.0114048  52.8090330 103.8950094
 108.2282668  43.3016350 111.0836224 107.9843600  44.0558411 110.5470499
 108.5042598  43.6801698 111.9183471 110.1821131  49.8454963 109.7613489
 110.3938026  50.4886723 109.0847870 110.1350879  49.0117279 109.2935419
 107.7847360  42.4572784 106.6650061 106.9231839  42.7554037 106.9566799
 107.8109794  42.6743182 105.7331094 104.6008929  51.0014974 103.0723867
 105.0647275  51.2802677 102.2828490 104.3365727  50.0998419 102.8896958
 101.4933010  50.5486456 106.0103630 102.0634367  50.9773724 105.3721115
 102.0841122  50.2669040 106.7087816 103.5377815  47.1238126  99.8813432
 104.2401858  47.5759170 100.3487359 103.2058444  46.4821945 100.5093325
 101.9858177  45.7149883 114.2564642 101.3556837  46.3966164 114.4900038
 101.8794265  45.6032965 113.3117780  97.2803149  45.3821679 105.1830566
  96.4902203  45.6379208 104.7070676  97.7714396  46.1970017 105.2882606
 111.2966959  52.7226918 107.9335847 112.1184402  52.3207106 107.6518528
 111.2929362  52.6195152 108.8851962  99.2317894  45.7466258 102.1414043
  98.4349058  45.8584953 102.6597538  99.0043487  46.0852911 101.2754933
 105.0623562  52.2710962 110.0896557 105.1267995  52.7331369 110.9254729
 104.3534486  51.6408326 110.2178867  95.5640852  45.6352170 107.6145557
  95.8148890  46.5199179 107.8803133  96.1000400  45.4556771 106.8420648
 119.3872952  49.0665667 104.2820818 118.6336660  48.4973065 104.1264823
 119.5220493  49.0328331 105.2291453 104.7771580  53.9379069  99.9575537
 104.6417255  54.7830605 100.3860385 105.3181392  54.1398347  99.1941471
 101.2638919  40.0170649 116.6189893 100.8705865  39.4636847 117.2937537
 102.0805060  40.3281227 117.0096410  98.2300977  51.4554507 100.5303463
  98.7425498  52.2497757 100.6809027  98.8823690  50.7580798 100.4637064
 100.0395862  54.5720263 102.6126216 100.2162490  55.4938228 102.4247200
 100.8352695  54.2578683 103.0420596 104.1806880  41.4328528 114.2110149
 104.9216594  42.0335681 114.1314612 104.4124803  40.6906166 113.6528192
  99.3248218  46.6184895 112.4888379  99.2101734  45.7170153 112.7895478
  98.4692736  46.8648592 112.1373195 106.4040056  54.5602636 114.0875880
 105.9603910  53.7739014 113.7696784 107.0657270  54.7481786 113.4219770
 101.1627177  56.0898437 108.6136558 101.7134602  55.9615501 107.8413552
 100.3238653  56.3893326 108.2631451 108.5021294  54.8405436 112.1157281
 108.4839770  55.6614317 111.6237550 109.4241214  54.7159511 112.3407422
 104.9594348  52.3549565 112.9580789 105.4922685  51.5937853 112.7280097
 104.4308429  52.0623217 113.7004944 108.1264043  37.4609631 108.4874431
 107.7828313  38.3511273 108.4113542 108.4943006  37.2711289 107.6244016
  96.1949894  49.7843161 101.3063033  97.0325116  50.1940170 101.0896741
  96.3728162  48.8442604 101.2763227 108.0914326  47.4518242  96.9946866
 107.5760949  48.2222847  97.2335253 107.8191634  46.7783378  97.6179928
 105.6761437  42.2967943 102.0532104 104.8203033  41.9074793 101.8737743
 106.0888389  42.3759904 101.1931890 107.2060584  39.8314286 106.4523664
 106.7025379  39.7944421 105.6391469 107.4991191  40.7407029 106.5120321
 103.4503470  39.9153016 105.4589846 104.3156466  39.7195825 105.0995735
 103.5180978  39.6863368 106.3859203 113.0648600  50.2050597  98.9300040
 112.2878043  49.8661756  98.4855202 113.7440081  50.2103220  98.2555005
 107.8800629  45.3245334  98.8206647 107.5750765  45.6391483  99.6716790
 108.8331071  45.4026754  98.8633980 106.3247061  51.4835557 100.4699601
 105.7968423  50.7488317 100.1572839 105.8234564  52.2610234 100.2239570
 111.3039907  49.6784578 105.5866648 110.6463582  50.3683839 105.6746776
 112.1080306  50.0681010 105.9300634 101.0565789  42.1455224 102.8306213
 101.6309541  41.9230405 102.0979406 101.6436771  42.2143918 103.5834814
 110.1145366  48.0328951 103.6370589 110.6277248  48.6658942 104.1392299
 110.7646590  47.4330146 103.2713949 101.3835376  44.1759685  96.8502098
 100.5472688  44.5134371  97.1711373 101.2440145  44.0408665  95.9129235
 103.3588456  39.0196473 101.5581282 102.7052869  38.7045490 100.9337897
 103.3168931  38.3972213 102.2841105 104.4699661  49.3015768  93.4734574
 103.5626723  49.0705021  93.6725723 104.9670693  48.5053387  93.6608556
 107.3767740  58.0113275  96.3931260 106.7029439  58.3144972  97.0016218
 107.7633562  58.8142355  96.0436717 106.5926197  45.5078406 105.8828930
 105.6748758  45.7293353 105.7250618 107.0086340  45.5824717 105.0240637
 107.3761244  46.9069822 101.0131610 108.1233063  47.4191219 100.7038732
 107.6452834  46.5853875 101.8736004 105.6487895  49.4028363  97.9958564
 104.7399114  49.1187395  98.0931034 105.6782978  49.8227441  97.1361871
 110.8807162  53.0134952 101.7649732 110.4269489  52.1725862 101.8214922
 110.2501129  53.6496350 102.1024512 109.8240082  43.9426938 102.9950399
 109.0862838  43.4304324 103.3260642 110.0766855  43.5027320 102.1833676
 109.3240101  54.8511449 102.6999550 109.6163076  55.4116506 101.9811916
 109.8338722  55.1440010 103.4552709 109.9251709  36.7203190 103.5892169
 110.2310586  35.8600554 103.3018084 110.6504314  37.3120810 103.3891163
  96.2176065  47.1233877 101.9773767  96.0200465  46.5303237 101.2524833
  95.6622729  46.8186087 102.6949705 104.1972789  47.0156983 104.0968360
 104.2521398  46.0630820 104.0210836 103.3863991  47.1716422 104.5809658
 105.3463982  50.9437106  95.3346643 104.9083412  50.2272965  94.8752280
 106.0874423  51.1713221  94.7731734 102.1365149  45.6334043 101.8558739
 101.3233014  45.9328213 102.2623931 102.6324143  45.2389732 102.5733221
 104.2873727  55.6291800 103.7893003 104.2449905  55.8552646 102.8601535
 105.2036425  55.3955174 103.9378804 107.7339360  46.0975867 110.6873632
 108.0888748  46.3247341 111.5468098 108.3811492  46.4294244 110.0650888
 113.4637097  49.2194303 101.3922961 113.3254996  49.4095899 100.4644151
 113.1073316  49.9813686 101.8491013 101.6279223  43.2052398 107.4719974
 102.2678603  43.0641158 106.7742937 100.7956754  42.9186912 107.0958576
 113.4906477  51.2870830 106.4034233 113.9242984  51.1946119 107.2517287
 114.2038058  51.2628331 105.7654249 102.4039527  52.5054829 103.5854966
 103.1980126  52.0105149 103.3837541 101.6931220  51.9772692 103.2222672
 107.2234372  54.8872924 107.9367334 107.2771394  55.4563861 108.7045050
 106.3549153  55.0574809 107.5721371  98.7122291  46.6497911  99.6614719
  97.7819879  46.5882366  99.8784681  98.8079763  46.1273863  98.8651360
  98.6307840  43.1752723 102.2492960  98.8914657  44.0898057 102.1402121
  99.4525012  42.7077166 102.3989573 100.1032765  44.5890481 109.4191785
 100.7755819  44.3807843 108.7704434  99.2762552  44.3912567 108.9797017
 114.3522026  51.3294531 108.9367118 114.5457917  52.2340341 109.1826393
 114.2522645  50.8701950 109.7705703 106.0058337  41.2152422 111.4357446
 105.3586252  41.9142371 111.3421922 106.7759353  41.6488565 111.8033694
 109.4137135  51.4801274 114.5107999 109.2622642  51.2511825 113.5938083
 109.4041815  52.4371875 114.5239344 106.1822472  49.0533186 109.4954265
 107.1114532  49.2044346 109.3223233 105.7613502  49.1417207 108.6402912
 104.9810803  53.0783851 107.2652803 104.8421889  52.7102635 108.1378741
 104.1925400  53.5931490 107.0936761 105.5758955  58.1792947  98.6078340
 105.7510711  57.7080991  99.4223962 104.8891743  58.8058714  98.8359600
 106.5316018  52.4565454 104.6541641 106.1965851  52.4166224 105.5499291
 106.0319964  51.7910169 104.1812051 100.5060262  47.8633084 110.1794222
 100.3680060  47.1313322 110.7805761 101.4165186  47.7741984 109.8978410
 109.4675210  49.8021488  94.9278701 108.8504381  49.0768316  94.8311753
 108.9991699  50.5630848  94.5845775 103.1342563  47.5753043 109.6677902
 103.8442182  46.9346235 109.6264520 103.0911871  47.8265938 110.5904082
 111.1229342  54.5120396 112.5884481 111.0641888  53.8279616 111.9215064
 111.5248860  55.2539386 112.1365107 101.8471497  44.5618261 111.4873541
 101.3108854  44.1108999 112.1395137 101.2588205  44.6964170 110.7444005
 100.1420041  61.3282310 105.3818200 100.3816639  61.9600834 106.0597218
  99.2989237  60.9770350 105.6683559 101.2573756  44.0206912  94.0500005
 100.3803222  43.8995713  93.6862251 101.7331509  43.2292991  93.7978893
 111.1246749  52.4759980 110.8198461 110.2373528  52.1385902 110.9424859
 111.6945300  51.7443011 111.0567226  92.7775896  48.8084072 104.1441512
  93.4646936  48.4945802 103.5562527  92.6224025  49.7125437 103.8708763
  97.5810618  43.6974269 108.5726536  97.4968807  43.0899938 107.8376946
  96.7593325  44.1883287 108.5736032 104.6547902  57.1361433 107.7859704
 104.5818074  57.9416404 108.2979008 104.2125296  57.3353398 106.9607725
 104.4437682  56.3733203 101.2962525 103.6605204  56.9154883 101.3900750
 105.1430427  56.8907182 101.6956766 107.7534332  42.1827832 103.9396731
 108.2503032  41.4297794 103.6197801 106.9821314  42.2192149 103.3739940
 115.6064090  47.8868198 105.5815022 115.5953966  48.7692913 105.2108955
 114.7381469  47.5339748 105.3869559 107.1146586  57.0348267 109.9417862
 107.8274558  57.6695731 109.8693764 106.6236615  57.1312133 109.1257864
 108.8364113  50.9399519 101.5135154 107.9020392  51.0600982 101.3439858
 109.0140781  50.0371986 101.2495164 104.3369301  44.3245215 103.6668415
 103.9667088  43.7716255 104.3549321 104.8328393  43.7203349 103.1143415
 112.2236664  46.7816839 102.0485188 112.6897116  47.6144830 101.9745491
 112.6744165  46.3161820 102.7530447 102.1658499  54.7842710 110.7623433
 102.8667959  55.4179193 110.9152827 101.6953614  55.1257442 110.0019073
 110.2912895  53.1260660  99.0471340 110.5672739  53.0117254  99.9565214
 109.4217394  52.7278145  99.0083513 110.1953327  39.1497426 106.0876090
 109.2816407  39.3801652 106.2558296 110.6246428  39.2335870 106.9390122
 109.9659785  47.3387317 108.5875984 109.3131236  47.5863225 107.9328436
 110.3440165  46.5251456 108.2538461 106.9266959  57.3747011 102.6904154
 107.1089354  56.5568667 103.1531906 107.7499945  57.5914703 102.2529044
 107.2609125  56.3015196  99.9519202 107.7896891  55.7907650  99.3389364
 107.5237344  55.9857726 100.8164735 106.0147358  48.0807129 115.0742021
 105.3387995  47.9801258 115.7444396 106.8374992  47.9246342 115.5378018
  97.7626218  54.3179065 107.6954536  98.3479654  53.5722753 107.8282440
  97.5651056  54.6283022 108.5791200 100.6164873  57.3530312 102.7116978
  99.9475248  57.8376440 102.2281018 100.4777742  57.5999533 103.6260357
  92.3543872  46.8884665 106.4158979  92.3927972  46.3548256 107.2096097
  91.8484165  46.3619871 105.7969956 104.7570141  59.3874056 109.3099637
 105.3088449  59.5505678 110.0748722 105.0976335  59.9778494 108.6379662
  99.7334635  41.7349206 109.9121521  99.7975961  42.5964037 109.4998919
  99.6701755  41.1223207 109.1793880  99.2086907  43.8072338 113.5594556
  99.8358946  43.4249416 114.1732080  98.3514826  43.5886540 113.9250248
 109.6081016  54.2135314 115.1648291 110.1520920  54.8265272 114.6703246
 109.0267861  54.7714892 115.6815304  95.9852450  45.6148767  99.4912910
  96.2805891  44.7059446  99.4379964  95.0840486  45.5936507  99.1693913
 107.8938529  57.3356032 106.2963319 107.7689668  56.5345771 105.7874264
 108.5517620  57.8302225 105.8077289  99.5146697  43.6904764 105.4740459
  98.7933283  44.3040732 105.3347932 100.3039953  44.2262529 105.3957105
 109.9573437  55.1365052 107.9242869 109.0103773  55.0170403 107.8521196
 110.3056210  54.2487550 108.0069130 102.3173010  41.0259191 111.7481111
 102.8407412  41.2721487 112.5107420 102.0985344  41.8579225 111.3284248
  97.7140291  43.2962865  99.6152236  97.3852998  42.4160244  99.4327342
  98.0679662  43.2410534 100.5028625 106.9619870  54.9317768 104.1247221
 106.8144833  54.0034475 104.3054791 107.7873364  54.9537859 103.6404296
 100.8282115  43.5835835  99.9827713 101.1678187  44.1121756  99.2606322
 101.2754235  43.9216241 100.7586280 110.5653992  55.7546327 105.2112094
 111.4900540  55.5489188 105.0736545 110.3969296  55.5062728 106.1201435
 103.5225555  41.9672886 109.4330781 103.1822376  41.1680699 109.8351461
 102.8164562  42.2674596 108.8607615 104.1742027  39.0522198 107.8858104
 104.9968097  38.5782676 107.7636995 104.4180091  39.8312682 108.3856791
 102.8150262  42.0810457  98.1821006 103.5358624  42.4591709  97.6784723
 102.1915566  42.7999333  98.2855984 106.9581385  42.7855605  99.1179338
 107.1744999  43.6680243  98.8168167 106.4775452  42.3941819  98.3884980
 101.6980606  45.7441319 105.6950083 101.5525187  46.0581622 106.5874364
 101.2205810  46.3626219 105.1420982 103.5576989  42.7343867 105.7430973
 103.5438558  41.8384960 105.4063270 104.2749417  42.7414530 106.3769259
 105.4103120  43.1681207 107.7884100 105.1520897  44.0898278 107.7868430
 104.8788160  42.7711641 108.4784564 110.3549308  56.2731994 100.5674185
 110.5286186  55.7078416  99.8148038 110.8478200  57.0732889 100.3853675
  96.1726268  48.2846663 108.6337744  95.6279736  49.0606471 108.7658018
  97.0505618  48.6317468 108.4756866 102.9613885  41.6158247 101.0118543
 103.0829796  40.6874893 101.2109430 102.6715927  41.6296933 100.0996858
 105.8305075  39.3013157 104.1485263 105.8526772  39.3652490 103.1937242
 106.2473134  38.4617666 104.3425769 116.2088700  49.0368417 102.1864485
 116.6519846  48.2875742 101.7883608 115.3315210  49.0278553 101.8038217
 111.3424481  55.5898758  97.6671084 112.0375385  56.2105451  97.8858398
 111.6847631  54.7394110  97.9423462  96.9592290  47.4116559 111.5267901
  96.2174026  47.5599195 112.1132531  96.6385034  47.6724825 110.6634650
 113.2415904  53.0398464  99.1958414 113.7667228  53.3785737  98.4707734
 113.1538257  52.1045479  99.0121549 104.9035953  56.9532538 111.3248291
 105.2123079  56.7081684 112.1970991 105.7011435  57.1579176 110.8367161
 104.9256565  59.1070447 103.5553668 104.4861555  58.6146826 104.2486524
 105.6764682  58.5643415 103.3145743  97.4048904  55.2981988 103.5578296
  98.2306924  54.9985760 103.1776939  97.0542956  54.5289611 104.0068084
 102.3730437  54.6508456 105.6275969 101.7510446  53.9879161 105.3278197
 103.0435304  54.6769588 104.9449617  95.6057509  53.2168315 104.5167229
  94.7689417  52.7890489 104.3351231  95.5781154  53.4100758 105.4538020
 102.4454964  43.1290244 115.2208475 102.4943120  44.0052367 114.8386245
 102.9877479  42.5867637 114.6480118 112.9309810  53.6731368 114.5009612
 112.1405354  53.6555506 113.9614112 112.6943165  54.2119661 115.2558649
 113.0507685  50.5223834 111.8142341 113.1005690  50.3573841 112.7557864
 112.9421608  49.6551093 111.4240222 101.9343944  53.2012380  99.1034430
 102.0832064  53.8847844  98.4501103 102.7410387  53.1817470  99.6183886
 110.3411447  46.5054762 113.1301648 111.2421310  46.3661227 112.8385645
 110.4159422  46.6709217 114.0699825 104.6754253  43.8821617 111.9754834
 103.8057562  44.1755183 111.7037422 104.9113733  44.4662062 112.6962098
 114.5525882  52.9420775 112.0584362 114.2610690  53.3050756 112.8947823
 113.9398013  52.2287784 111.8797695 115.7521564  50.5073655 104.5786933
 116.5868456  50.9463459 104.7424493 115.8880693  50.0312308 103.7595178
 112.8013070  48.0653390 110.5264420 113.2767192  48.2581036 109.7183272
 111.8778636  48.1212576 110.2807804  99.6896577  49.2277557 100.1095499
  99.4442619  48.3239887 100.3075709  99.8592491  49.2294708  99.1674977
 107.3793287  40.1001234 109.4920254 107.8975230  40.8362261 109.1666743
 107.0248419  40.4065227 110.3267013  98.9592224  44.9605915  97.6081660
  98.2661469  45.0350270  96.9521696  98.7143976  44.1966259  98.1303177
 107.6305881  36.5201516 105.0121151 107.9107635  35.8524705 105.6381577
 108.4156488  36.7130612 104.4995815 105.4339349  55.6960510  96.5746177
 104.8613316  56.3150697  96.1216649 106.0072143  56.2459872  97.1086099
 111.5014739  44.9419150 108.7592726 112.4532162  45.0417248 108.7804950
 111.3318190  44.1497419 109.2690810 109.5229119  42.0274733 108.9452127
 108.9279051  42.3079746 108.2498616 109.2378815  42.5168634 109.7168868
 108.6536609  55.9797660  97.7054759 109.5867282  55.9143222  97.9087635
 108.5659822  56.8153927  97.2469292 111.2824626  55.2963531  94.6658707
 111.2038257  54.9623394  95.5594465 112.1034293  55.7885298  94.6650179
 113.9802817  48.1625270 107.8735026 113.9479137  47.2241271 108.0594709
 114.5903441  48.2409307 107.1400851 105.8186148  47.0321323  93.9162230
 106.7645253  46.9027531  93.9850648 105.4400393  46.2935985  94.3931658
 114.1297305  44.9536313 107.9193309 113.6136354  44.1694770 107.7323238
 115.0137254  44.6255030 108.0839828 111.7908032  38.6977329 103.8789122
 111.5932853  38.3892417 104.7632453 112.4007738  39.4238968 104.0087051
 119.7979367  49.2241277 107.0141062 120.5282755  48.9626565 107.5748766
 119.1886312  48.4869999 107.0543130 117.8794664  47.3649139 107.6115514
 117.1527827  47.2305104 107.0032005 117.4641951  47.6725968 108.4172232
 105.7024840  51.0839069 115.3762887 106.6227850  51.2617668 115.5702933
 105.6674423  50.1395114 115.2242586 104.0029065  44.9571299  93.8517115
 103.0960520  44.6604412  93.9279829 104.2805046  44.6601117  92.9851401
  94.9207005  46.2777663 104.3016161  94.6009790  45.4242971 104.0090535
  94.3740434  46.4926241 105.0574129  98.6986913  48.9940104 108.0185668
  98.9172923  49.9257211 108.0373702  99.1112687  48.6348078 108.8040472
 105.6191131  39.5008189 100.0061356 104.8091859  39.1555274 100.3816602
 106.3075548  39.1915733 100.5948968 107.5481679  38.5786236 101.6285653
 108.1012718  38.9981689 102.2875676 107.7851765  37.6521984 101.6708609
 103.5714778  44.5673309 117.4088417 103.4711505  45.5167666 117.3400508
 103.3536320  44.2391548 116.5364487 102.7727850  41.8158234  93.9929094
 103.6347014  42.1413133  94.2524911 102.9578194  41.0289730  93.4802160
  94.7895265  49.8980574 106.2709283  94.0958737  49.4834527 105.7579237
  95.5368256  49.9401111 105.6742702 110.9260486  40.6886761 101.1364317
 110.3459155  41.3471565 100.7542370 110.6596419  39.8664106 100.7251735
 109.3764052  40.0891819 103.3385637 109.8763831  40.2008353 102.5299956
 110.0199660  39.7852871 103.9786446 103.4346048  47.9970448 116.2253478
 102.9513130  48.7970808 116.4317367 103.5206987  48.0078393 115.2720922
  96.7032008  49.8298828 104.1475298  96.6802696  49.9286515 103.1957181
  97.0132644  50.6763979 104.4692464  99.3619386  51.8874983 108.2621912
 100.3162639  51.8558925 108.1951844  99.1631909  51.4265607 109.0772138
  99.9518768  50.4576099 110.8292710 100.7711657  50.9520178 110.8527547
 100.2255576  49.5408067 110.8010277 109.7085364  42.8486851 100.1920665
 108.8211219  43.1336502  99.9740860 110.1239353  42.6880615  99.3447942
 113.0599900  42.8733372 103.9075005 113.8360290  43.3629825 104.1799621
 112.3348034  43.2991426 104.3646874 115.4972459  43.5860992 104.9648945
 116.0916950  43.3456727 104.2542253 115.5699043  42.8668122 105.5922482
  97.7169615  57.4294602 105.2792110  97.5824082  56.6695003 104.7130108
  97.3001677  58.1535502 104.8120899 108.8528578  52.6131526  94.2868685
 109.5564428  52.8181528  94.9026341 108.1291226  53.1808288  94.5517769
 109.6826388  48.3641387 100.4070956 109.6261589  48.8209939  99.5678588
 110.2354730  47.6032072 100.2293798 113.4931194  44.1531119 101.2321075
 113.2368128  43.7527755 102.0629283 112.8684062  44.8674913 101.1071214
 117.8043532  46.8927192 103.7392366 117.2443090  46.9620382 104.5123929
 117.1987035  46.7168177 103.0191863 100.8738740  58.3263919 105.4910553
 100.7571125  59.2709352 105.3889243 100.0531187  58.0237481 105.8796352
 110.7615275  53.0514055  96.3367145 111.5960879  52.6195254  96.1544620
 110.5999618  52.8796069  97.2644040 110.4161167  49.5546168  97.7023485
 110.3609971  49.3890440  96.7611929 109.7907222  50.2622201  97.8585674
  95.2053682  44.7914233 111.5284907  95.8512546  44.2813187 112.0172132
  94.9970833  45.5282915 112.1028332 107.7307074  51.8595080 117.0277048
 108.5998234  52.0335733 116.6663682 107.2513826  52.6789497 116.9052777
 103.7257293  39.0554277  97.2808803 103.7135962  39.9996117  97.4377074
 104.6180714  38.8724423  96.9868264 101.8993255  58.9792181 108.7066481
 102.8020501  59.0115792 109.0232976 101.6730625  58.0492632 108.7212817
 103.6546857  57.7323168 105.3676560 102.7042488  57.7325030 105.2540932
 103.9579343  56.9855902 104.8512594 107.5409412  35.6497054 101.5354740
 106.7741808  35.0955541 101.6811422 107.9520117  35.7218923 102.3968892
  99.5451173  41.9381850 115.6259921 100.4082635  41.5818655 115.8363246
  98.9716584  41.5995745 116.3135325 119.3899550  63.5683706 106.4322322
 120.0277960  63.4490454 105.7285662 119.2720393  64.5164550 106.4910274
 116.1989256  63.5211134 106.3683847 115.8607768  63.4052199 105.4804382
 117.0679025  63.1202299 106.3484853 112.0576072  65.3746611 102.3580738
 111.4940937  65.2836548 101.5897026 111.9428467  64.5546515 102.8383230
 116.6809039  64.6745986 112.3270052 116.6697680  64.2798784 111.4550556
 116.8429679  63.9412059 112.9203824 109.6040504  66.8697802 105.1964958
 110.3961796  66.5288627 104.7811258 109.8437154  66.9792777 106.1167112
 117.6375631  69.0417579  97.6695203 116.9863610  69.6271659  97.2829217
 118.4319994  69.5723773  97.7290240 111.5631258  66.1306716  98.0682337
 112.3362134  65.5835703  97.9295213 111.9156657  66.9950965  98.2796798
 113.4016300  67.4583098 111.2749236 113.1106166  68.3628729 111.1595903
 114.0373285  67.4999626 111.9893306 114.3272507  64.8359946 107.8650596
 114.9236080  64.6115969 107.1507559 114.3847479  64.0944692 108.4676044
 113.8997536  62.2899382  95.7000787 114.1523056  61.7680903  94.9384250
 112.9622095  62.1265527  95.8027471 118.9440819  61.2935160 103.5075530
 119.7303908  60.8754583 103.1565947 119.2079523  62.1981252 103.6757179
 119.1150896  66.7308010  98.2064187 118.4796729  66.8042637  98.9185092
 118.7848302  67.3201609  97.5283266 124.3449246  61.2310393 104.4108509
 125.0774418  60.6609610 104.6446338 123.5888601  60.8431994 104.8515014
 113.6193824  64.1927488  97.9025162 113.5030083  63.5172391  98.5706246
 113.7296084  63.7059862  97.0857315 115.9625365  63.6537635 101.6071851
 115.5983573  63.1268256 102.3184773 116.8192481  63.2636104 101.4338337
 121.8674666  54.9431967 108.8703117 121.5357991  55.8127378 108.6464332
 121.2720279  54.6268251 109.5497148 115.6030852  58.6827535  96.6033200
 115.7705255  59.5507771  96.9703671 115.4128021  58.8454816  95.6794489
 118.3606186  67.1444513 108.2699030 118.0606909  68.0469552 108.1614837
 118.0157245  66.8776697 109.1220183 111.8118667  63.5958310 104.3035734
 110.8869163  63.4634524 104.5113426 112.0603080  64.3752530 104.8005677
 121.7603329  59.6627054 105.9496467 120.8520207  59.5942462 105.6555228
 121.7090925  60.1398999 106.7778293 115.5820073  61.1385192  97.5879867
 115.4619698  61.5842243  98.4265347 114.8872662  61.4870510  97.0293405
 109.1727478  63.2391584 105.1379524 109.3019859  63.4926063 106.0518935
 108.4924929  63.8319292 104.8184179 113.3426965  73.9088834 101.2369998
 113.2650995  74.8596659 101.3158478 112.7388609  73.5634706 101.8944924
 115.8344195  61.0816699 113.8931365 115.0577529  61.6410619 113.8834229
 116.4734758  61.5673482 114.4146235 123.6264976  57.8643492 107.7274341
 122.9839356  58.1576025 107.0814136 123.1219904  57.7496412 108.5327538
 121.2805139  61.6106665  98.4160201 122.1922995  61.8434052  98.2407898
 120.7714786  62.1943709  97.8535279 114.0890567  63.8902153 113.4549332
 114.8305252  64.4287197 113.1784155 113.3827553  64.5168441 113.6120883
 119.5645907  66.0331293 112.0521493 119.9729263  65.5913704 111.3076126
 118.8423169  65.4583921 112.3055686 115.9176977  60.9703900 109.4255050
 116.7638172  61.3943313 109.5689699 115.8575615  60.3137524 110.1193613
 119.8874722  66.5932484 105.8073782 119.2583584  66.7578198 105.1049850
 119.5000384  67.0074093 106.5784746 123.7663954  67.5286922 103.1618146
 123.0814992  67.9085823 102.6115179 123.8507803  68.1382248 103.8950094
 119.0676422  58.6308268 111.0836224 118.8237354  59.3850329 110.5470499
 119.3436353  59.0093616 111.9183471 121.0214885  65.1746881 109.7613489
 121.2331780  65.8178640 109.0847870 120.9744633  64.3409197 109.2935419
 118.6241114  57.7864701 106.6650061 117.7625593  58.0845955 106.9566799
 118.6503549  58.0035100 105.7331094 115.4402684  66.3306892 103.0723867
 115.9041029  66.6094595 102.2828490 115.1759482  65.4290336 102.8896958
 112.3326765  65.8778373 106.0103630 112.9028122  66.3065642 105.3721115
 112.9234876  65.5960958 106.7087816 114.3771570  62.4530044  99.8813432
 115.0795613  62.9051088 100.3487359 114.0452198  61.8113863 100.5093325
 112.8251931  61.0441801 114.2564642 112.1950592  61.7258082 114.4900038
 112.7188019  60.9324882 113.3117780 108.1196904  60.7113597 105.1830566
 107.3295958  60.9671125 104.7070676 108.6108151  61.5261935 105.2882606
 122.1360713  68.0518836 107.9335847 122.9578157  67.6499023 107.6518528
 122.1323116  67.9487070 108.8851962 110.0711649  61.0758176 102.1414043
 109.2742812  61.1876870 102.6597538 109.8437241  61.4144828 101.2754933
 115.9017317  67.6002879 110.0896557 115.9661749  68.0623286 110.9254729
 115.1928240  66.9700244 110.2178867 106.4034607  60.9644087 107.6145557
 106.6542645  61.8491097 107.8803133 106.9394155  60.7848689 106.8420648
 130.2266706  64.3957584 104.2820818 129.4730415  63.8264983 104.1264823
 130.3614247  64.3620249 105.2291453 115.6165334  69.2670987  99.9575537
 115.4811009  70.1122522 100.3860385 116.1575147  69.4690264  99.1941471
 112.1032674  55.3462567 116.6189893 111.7099619  54.7928765 117.2937537
 112.9198814  55.6573145 117.0096410 109.0694732  66.7846425 100.5303463
 109.5819252  67.5789675 100.6809027 109.7217444  66.0872715 100.4637064
 110.8789616  69.9012181 102.6126216 111.0556245  70.8230146 102.4247200
 111.6746450  69.5870600 103.0420596 115.0200635  56.7620446 114.2110149
 115.7610348  57.3627599 114.1314612 115.2518558  56.0198083 113.6528192
 110.1641973  61.9476813 112.4888379 110.0495488  61.0462070 112.7895478
 109.3086491  62.1940510 112.1373195 117.2433811  69.8894553 114.0875880
 116.7997665  69.1030932 113.7696784 117.9051024  70.0773704 113.4219770
 112.0020932  71.4190355 108.6136558 112.5528357  71.2907418 107.8413552
 111.1632408  71.7185244 108.2631451 119.3415049  70.1697353 112.1157281
 119.3233524  70.9906234 111.6237550 120.2634969  70.0451428 112.3407422
 115.7988103  67.6841483 112.9580789 116.3316440  66.9229771 112.7280097
 115.2702184  67.3915134 113.7004944 118.9657798  52.7901549 108.4874431
 118.6222067  53.6803190 108.4113542 119.3336760  52.6003206 107.6244016
 107.0343648  65.1135079 101.3063033 107.8718870  65.5232087 101.0896741
 107.2121916  64.1734521 101.2763227 118.9308081  62.7810160  96.9946866
 118.4154704  63.5514764  97.2335253 118.6585389  62.1075296  97.6179928
 116.5155192  57.6259861 102.0532104 115.6596788  57.2366711 101.8737743
 116.9282143  57.7051821 101.1931890 118.0454338  55.1606204 106.4523664
 117.5419134  55.1236339 105.6391469 118.3384945  56.0698946 106.5120321
 114.2897224  55.2444933 105.4589846 115.1550221  55.0487742 105.0995735
 114.3574733  55.0155285 106.3859203 123.9042355  65.5342514  98.9300040
 123.1271797  65.1953674  98.4855202 124.5833836  65.5395138  98.2555005
 118.7194384  60.6537252  98.8206647 118.4144519  60.9683401  99.6716790
 119.6724826  60.7318672  98.8633980 117.1640816  66.8127475 100.4699601
 116.6362177  66.0780235 100.1572839 116.6628318  67.5902151 100.2239570
 122.1433662  65.0076496 105.5866648 121.4857336  65.6975757 105.6746776
 122.9474061  65.3972928 105.9300634 111.8959543  57.4747141 102.8306213
 112.4703295  57.2522323 102.0979406 112.4830526  57.5435836 103.5834814
 120.9539120  63.3620868 103.6370589 121.4671002  63.9950860 104.1392299
 121.6040344  62.7622064 103.2713949 112.2229130  59.5051602  96.8502098
 111.3866443  59.8426289  97.1711373 112.0833900  59.3700582  95.9129235
 114.1982211  54.3488390 101.5581282 113.5446623  54.0337408 100.9337897
 114.1562685  53.7264131 102.2841105 115.3093416  64.6307685  93.4734574
 114.4020477  64.3996939  93.6725723 115.8064448  63.8345305  93.6608556
 118.2161495  73.3405193  96.3931260 117.5423193  73.6436889  97.0016218
 118.6027317  74.1434273  96.0436717 117.4319951  60.8370324 105.8828930
 116.5142513  61.0585271 105.7250618 117.8480095  60.9116634 105.0240637
 118.2154999  62.2361740 101.0131610 118.9626818  62.7483137 100.7038732
 118.4846589  61.9145792 101.8736004 116.4881649  64.7320280  97.9958564
 115.5792868  64.4479313  98.0931034 116.5176733  65.1519359  97.1361871
 121.7200917  68.3426870 101.7649732 121.2663244  67.5017780 101.8214922
 121.0894883  68.9788268 102.1024512 120.6633836  59.2718856 102.9950399
 119.9256593  58.7596242 103.3260642 120.9160610  58.8319237 102.1833676
 120.1633856  70.1803366 102.6999550 120.4556830  70.7408424 101.9811916
 120.6732476  70.4731927 103.4552709 120.7645463  52.0495108 103.5892169
 121.0704340  51.1892471 103.3018084 121.4898068  52.6412728 103.3891163
 107.0569820  62.4525794 101.9773767 106.8594219  61.8595155 101.2524833
 106.5016484  62.1478005 102.6949705 115.0366543  62.3448901 104.0968360
 115.0915153  61.3922737 104.0210836 114.2257745  62.5008340 104.5809658
 116.1857737  66.2729024  95.3346643 115.7477167  65.5564883  94.8752280
 116.9268178  66.5005139  94.7731734 112.9758903  60.9625961 101.8558739
 112.1626769  61.2620131 102.2623931 113.4717897  60.5681649 102.5733221
 115.1267481  70.9583718 103.7893003 115.0843660  71.1844564 102.8601535
 116.0430180  70.7247092 103.9378804 118.5733115  61.4267785 110.6873632
 118.9282503  61.6539258 111.5468098 119.2205246  61.7586162 110.0650888
 124.3030852  64.5486221 101.3922961 124.1648750  64.7387817 100.4644151
 123.9467071  65.3105604 101.8491013 112.4672978  58.5344316 107.4719974
 113.1072357  58.3933075 106.7742937 111.6350508  58.2478830 107.0958576
 124.3300231  66.6162748 106.4034233 124.7636738  66.5238037 107.2517287
 125.0431812  66.5920248 105.7654249 113.2433282  67.8346747 103.5854966
 114.0373880  67.3397067 103.3837541 112.5324974  67.3064610 103.2222672
 118.0628126  70.2164842 107.9367334 118.1165149  70.7855778 108.7045050
 117.1942908  70.3866727 107.5721371 109.5516045  61.9789828  99.6614719
 108.6213633  61.9174284  99.8784681 109.6473517  61.4565781  98.8651360
 109.4701594  58.5044641 102.2492960 109.7308412  59.4189974 102.1402121
 110.2918767  58.0369084 102.3989573 110.9426520  59.9182398 109.4191785
 111.6149573  59.7099760 108.7704434 110.1156306  59.7204484 108.9797017
 125.1915781  66.6586449 108.9367118 125.3851671  67.5632259 109.1826393
 125.0916399  66.1993868 109.7705703 116.8452092  56.5444339 111.4357446
 116.1980007  57.2434289 111.3421922 117.6153107  56.9780483 111.8033694
 120.2530890  66.8093191 114.5107999 120.1016396  66.5803743 113.5938083
 120.2435569  67.7663793 114.5239344 117.0216226  64.3825104 109.4954265
 117.9508286  64.5336264 109.3223233 116.6007256  64.4709125 108.6402912
 115.8204558  68.4075769 107.2652803 115.6815643  68.0394553 108.1378741
 115.0319154  68.9223408 107.0936761 116.4152710  73.5084865  98.6078340
 116.5904465  73.0372908  99.4223962 115.7285498  74.1350631  98.8359600
 117.3709773  67.7857371 104.6541641 117.0359606  67.7458141 105.5499291
 116.8713719  67.1202087 104.1812051 111.3454017  63.1925001 110.1794222
 111.2073815  62.4605240 110.7805761 112.2558940  63.1033901 109.8978410
 120.3068965  65.1313406  94.9278701 119.6898135  64.4060234  94.8311753
 119.8385453  65.8922766  94.5845775 113.9736318  62.9044961 109.6677902
 114.6835936  62.2638153 109.6264520 113.9305626  63.1557855 110.5904082
 121.9623096  69.8412314 112.5884481 121.9035642  69.1571534 111.9215064
 122.3642615  70.5831304 112.1365107 112.6865252  59.8910178 111.4873541
 112.1502609  59.4400917 112.1395137 112.0981960  60.0256087 110.7444005
 110.9813795  76.6574228 105.3818200 111.2210393  77.2892752 106.0597218
 110.1382992  76.3062268 105.6683559 112.0967510  59.3498830  94.0500005
 111.2196977  59.2287631  93.6862251 112.5725264  58.5584908  93.7978893
 121.9640504  67.8051898 110.8198461 121.0767282  67.4677820 110.9424859
 122.5339055  67.0734929 111.0567226 103.6169651  64.1375990 104.1441512
 104.3040690  63.8237720 103.5562527 103.4617779  65.0417354 103.8708763
 108.4204373  59.0266186 108.5726536 108.3362562  58.4191856 107.8376946
 107.5987079  59.5175204 108.5736032 115.4941657  72.4653350 107.7859704
 115.4211828  73.2708322 108.2979008 115.0519050  72.6645316 106.9607725
 115.2831437  71.7025120 101.2962525 114.4998958  72.2446800 101.3900750
 115.9824182  72.2199100 101.6956766 118.5928087  57.5119750 103.9396731
 119.0896786  56.7589712 103.6197801 117.8215068  57.5484066 103.3739940
 126.4457844  63.2160115 105.5815022 126.4347720  64.0984831 105.2108955
 125.5775223  62.8631666 105.3869559 117.9540340  72.3640184 109.9417862
 118.6668313  72.9987649 109.8693764 117.4630369  72.4604050 109.1257864
 119.6757867  66.2691437 101.5135154 118.7414146  66.3892899 101.3439858
 119.8534536  65.3663904 101.2495164 115.1763055  59.6537133 103.6668415
 114.8060843  59.1008173 104.3549321 115.6722148  59.0495266 103.1143415
 123.0630419  62.1108756 102.0485188 123.5290871  62.9436748 101.9745491
 123.5137919  61.6453738 102.7530447 113.0052254  70.1134628 110.7623433
 113.7061713  70.7471111 110.9152827 112.5347369  70.4549359 110.0019073
 121.1306650  68.4552578  99.0471340 121.4066494  68.3409172  99.9565214
 120.2611149  68.0570062  99.0083513 121.0347081  54.4789343 106.0876090
 120.1210161  54.7093570 106.2558296 121.4640183  54.5627787 106.9390122
 120.8053540  62.6679235 108.5875984 120.1524990  62.9155143 107.9328436
 121.1833920  61.8543373 108.2538461 117.7660714  72.7038928 102.6904154
 117.9483108  71.8860584 103.1531906 118.5893700  72.9206621 102.2529044
 118.1002879  71.6307113  99.9519202 118.6290646  71.1199568  99.3389364
 118.3631099  71.3149644 100.8164735 116.8541113  63.4099046 115.0742021
 116.1781750  63.3093176 115.7444396 117.6768747  63.2538260 115.5378018
 108.6019972  69.6470983 107.6954536 109.1873409  68.9014671 107.8282440
 108.4044810  69.9574939 108.5791200 111.4558627  72.6822230 102.7116978
 110.7869003  73.1668358 102.2281018 111.3171497  72.9291451 103.6260357
 103.1937627  62.2176583 106.4158979 103.2321726  61.6840174 107.2096097
 102.6877920  61.6911788 105.7969956 115.5963896  74.7165974 109.3099637
 116.1482204  74.8797595 110.0748722 115.9370089  75.3070412 108.6379662
 110.5728389  57.0641123 109.9121521 110.6369716  57.9255954 109.4998919
 110.5095509  56.4515125 109.1793880 110.0480662  59.1364256 113.5594556
 110.6752700  58.7541333 114.1732080 109.1908580  58.9178458 113.9250248
 120.4474770  69.5427231 115.1648291 120.9914674  70.1557189 114.6703246
 119.8661615  70.1006810 115.6815304 106.8246204  60.9440685  99.4912910
 107.1199645  60.0351364  99.4379964 105.9234240  60.9228425  99.1693913
 118.7332283  72.6647949 106.2963319 118.6083423  71.8637689 105.7874264
 119.3911374  73.1594143 105.8077289 110.3540451  59.0196682 105.4740459
 109.6327037  59.6332649 105.3347932 111.1433707  59.5554447 105.3957105
 120.7967191  70.4656969 107.9242869 119.8497527  70.3462320 107.8521196
 121.1449965  69.5779467 108.0069130 113.1566765  56.3551108 111.7481111
 113.6801167  56.6013405 112.5107420 112.9379098  57.1871143 111.3284248
 108.5534046  58.6254783  99.6152236 108.2246752  57.7452162  99.4327342
 108.9073417  58.5702451 100.5028625 117.8013625  70.2609686 104.1247221
 117.6538587  69.3326393 104.3054791 118.6267118  70.2829776 103.6404296
 111.6675869  58.9127753  99.9827713 112.0071942  59.4413674  99.2606322
 112.1147990  59.2508159 100.7586280 121.4047747  71.0838244 105.2112094
 122.3294294  70.8781106 105.0736545 121.2363050  70.8354645 106.1201435
 114.3619310  57.2964803 109.4330781 114.0216130  56.4972616 109.8351461
 113.6558316  57.5966514 108.8607615 115.0135782  54.3814116 107.8858104
 115.8361851  53.9074594 107.7636995 115.2573845  55.1604599 108.3856791
 113.6544016  57.4102374  98.1821006 114.3752379  57.7883627  97.6784723
 113.0309320  58.1291251  98.2855984 117.7975139  58.1147523  99.1179338
 118.0138753  58.9972161  98.8168167 117.3169206  57.7233737  98.3884980
 112.5374360  61.0733236 105.6950083 112.3918941  61.3873539 106.5874364
 112.0599564  61.6918137 105.1420982 114.3970743  58.0635784 105.7430973
 114.3832312  57.1676878 105.4063270 115.1143171  58.0706448 106.3769259
 116.2496874  58.4973125 107.7884100 115.9914652  59.4190195 107.7868430
 115.7181914  58.1003559 108.4784564 121.1943063  71.6023912 100.5674185
 121.3679940  71.0370334  99.8148038 121.6871954  72.4024807 100.3853675
 107.0120023  63.6138581 108.6337744 106.4673491  64.3898389 108.7658018
 107.8899373  63.9609385 108.4756866 113.8007639  56.9450165 101.0118543
 113.9223550  56.0166811 101.2109430 113.5109682  56.9588851 100.0996858
 116.6698830  54.6305075 104.1485263 116.6920527  54.6944408 103.1937242
 117.0866889  53.7909584 104.3425769 127.0482454  64.3660335 102.1864485
 127.4913600  63.6167660 101.7883608 126.1708964  64.3570471 101.8038217
 122.1818235  70.9190676  97.6671084 122.8769140  71.5397369  97.8858398
 122.5241385  70.0686027  97.9423462 107.7986045  62.7408477 111.5267901
 107.0567781  62.8891112 112.1132531 107.4778789  63.0016743 110.6634650
 124.0809658  68.3690382  99.1958414 124.6060983  68.7077654  98.4707734
 123.9932011  67.4337397  99.0121549 115.7429707  72.2824455 111.3248291
 116.0516834  72.0373602 112.1970991 116.5405189  72.4871094 110.8367161
 115.7650319  74.4362365 103.5553668 115.3255309  73.9438744 104.2486524
 116.5158436  73.8935333 103.3145743 108.2442658  70.6273906 103.5578296
 109.0700678  70.3277678 103.1776939 107.8936710  69.8581528 104.0068084
 113.2124191  69.9800374 105.6275969 112.5904201  69.3171079 105.3278197
 113.8829058  70.0061506 104.9449617 106.4451263  68.5460232 104.5167229
 105.6083172  68.1182407 104.3351231 106.4174909  68.7392676 105.4538020
 113.2848719  58.4582162 115.2208475 113.3336874  59.3344285 114.8386245
 113.8271233  57.9159555 114.6480118 123.7703565  69.0023285 114.5009612
 122.9799108  68.9847424 113.9614112 123.5336919  69.5411579 115.2558649
 123.8901440  65.8515752 111.8142341 123.9399444  65.6865759 112.7557864
 123.7815363  64.9843011 111.4240222 112.7737698  68.5304297  99.1034430
 112.9225819  69.2139762  98.4501103 113.5804142  68.5109387  99.6183886
 121.1805202  61.8346680 113.1301648 122.0815065  61.6953145 112.8385645
 121.2553176  62.0001135 114.0699825 115.5148007  59.2113534 111.9754834
 114.6451317  59.5047100 111.7037422 115.7507488  59.7953979 112.6962098
 125.3919636  68.2712693 112.0584362 125.1004445  68.6342674 112.8947823
 124.7791768  67.5579701 111.8797695 126.5915319  65.8365573 104.5786933
 127.4262210  66.2755377 104.7424493 126.7274448  65.3604226 103.7595178
 123.6406825  63.3945308 110.5264420 124.1160946  63.5872954 109.7183272
 122.7172390  63.4504494 110.2807804 110.5290331  64.5569475 100.1095499
 110.2836373  63.6531805 100.3075709 110.6986246  64.5586625  99.1674977
 118.2187041  55.4293151 109.4920254 118.7368985  56.1654178 109.1666743
 117.8642174  55.7357145 110.3267013 109.7985979  60.2897833  97.6081660
 109.1055224  60.3642188  96.9521696 109.5537731  59.5258176  98.1303177
 118.4699635  51.8493434 105.0121151 118.7501389  51.1816623 105.6381577
 119.2550242  52.0422529 104.4995815 116.2733104  71.0252428  96.5746177
 115.7007071  71.6442615  96.1216649 116.8465897  71.5751789  97.1086099
 122.3408494  60.2711068 108.7592726 123.2925917  60.3709166 108.7804950
 122.1711944  59.4789336 109.2690810 120.3622873  57.3566651 108.9452127
 119.7672805  57.6371664 108.2498616 120.0772570  57.8460552 109.7168868
 119.4930364  71.3089578  97.7054759 120.4261037  71.2435140  97.9087635
 119.4053576  72.1445845  97.2469292 122.1218380  70.6255448  94.6658707
 122.0432012  70.2915312  95.5594465 122.9428047  71.1177216  94.6650179
 124.8196571  63.4917188 107.8735026 124.7872892  62.5533188 108.0594709
 125.4297195  63.5701224 107.1400851 116.6579902  62.3613241  93.9162230
 117.6039007  62.2319449  93.9850648 116.2794147  61.6227902  94.3931658
 124.9691060  60.2828231 107.9193309 124.4530109  59.4986688 107.7323238
 125.8531008  59.9546948 108.0839828 122.6301787  54.0269247 103.8789122
 122.4326608  53.7184335 104.7632453 123.2401492  54.7530885 104.0087051
 130.6373121  64.5533194 107.0141062 131.3676510  64.2918483 107.5748766
 130.0280067  63.8161916 107.0543130 128.7188418  62.6941057 107.6115514
 127.9921582  62.5597022 107.0032005 128.3035705  63.0017886 108.4172232
 116.5418595  66.4130987 115.3762887 117.4621604  66.5909586 115.5702933
 116.5068178  65.4687032 115.2242586 114.8422819  60.2863217  93.8517115
 113.9354275  59.9896330  93.9279829 115.1198800  59.9893035  92.9851401
 105.7600760  61.6069580 104.3016161 105.4403544  60.7534889 104.0090535
 105.2134188  61.8218158 105.0574129 109.5380667  64.3232021 108.0185668
 109.7566677  65.2549129 108.0373702 109.9506441  63.9639996 108.8040472
 116.4584885  54.8300107 100.0061356 115.6485613  54.4847192 100.3816602
 117.1469302  54.5207650 100.5948968 118.3875433  53.9078153 101.6285653
 118.9406472  54.3273607 102.2875676 118.6245520  52.9813902 101.6708609
 114.4108533  59.8965227 117.4088417 114.3105260  60.8459584 117.3400508
 114.1930075  59.5683466 116.5364487 113.6121604  57.1450152  93.9929094
 114.4740768  57.4705050  94.2524911 113.7971948  56.3581648  93.4802160
 105.6289020  65.2272492 106.2709283 104.9352491  64.8126445 105.7579237
 106.3762011  65.2693028 105.6742702 121.7654241  56.0178679 101.1364317
 121.1852910  56.6763483 100.7542370 121.4990173  55.1956023 100.7251735
 120.2157807  55.4183736 103.3385637 120.7157585  55.5300271 102.5299956
 120.8593415  55.1144789 103.9786446 114.2739803  63.3262366 116.2253478
 113.7906884  64.1262726 116.4317367 114.3600742  63.3370311 115.2720922
 107.5425762  65.1590746 104.1475298 107.5196450  65.2578433 103.1957181
 107.8526399  66.0055896 104.4692464 110.2013140  67.2166901 108.2621912
 111.1556394  67.1850843 108.1951844 110.0025664  66.7557524 109.0772138
 110.7912522  65.7868017 110.8292710 111.6105411  66.2812095 110.8527547
 111.0649330  64.8699985 110.8010277 120.5479119  58.1778769 100.1920665
 119.6604974  58.4628420  99.9740860 120.9633108  58.0172532  99.3447942
 123.8993655  58.2025290 103.9075005 124.6754045  58.6921742 104.1799621
 123.1741789  58.6283344 104.3646874 126.3366213  58.9152909 104.9648945
 126.9310704  58.6748645 104.2542253 126.4092797  58.1960040 105.5922482
 108.5563369  72.7586520 105.2792110 108.4217837  71.9986921 104.7130108
 108.1395431  73.4827420 104.8120899 119.6922332  67.9423444  94.2868685
 120.3958182  68.1473446  94.9026341 118.9684981  68.5100206  94.5517769
 120.5220142  63.6933305 100.4070956 120.4655344  64.1501856  99.5678588
 121.0748485  62.9323990 100.2293798 124.3324948  59.4823037 101.2321075
 124.0761882  59.0819672 102.0629283 123.7077816  60.1966831 101.1071214
 128.6437286  62.2219110 103.7392366 128.0836844  62.2912299 104.5123929
 128.0380789  62.0460095 103.0191863 111.7132495  73.6555837 105.4910553
 111.5964879  74.6001270 105.3889243 110.8924941  73.3529399 105.8796352
 121.6009029  68.3805973  96.3367145 122.4354633  67.9487171  96.1544620
 121.4393372  68.2087987  97.2644040 121.2554922  64.8838086  97.7023485
 121.2003725  64.7182358  96.7611929 120.6300977  65.5914119  97.8585674
 106.0447437  60.1206151 111.5284907 106.6906300  59.6105105 112.0172132
 105.8364588  60.8574832 112.1028332 118.5700829  67.1886998 117.0277048
 119.4391988  67.3627650 116.6663682 118.0907580  68.0081415 116.9052777
 114.5651047  54.3846195  97.2808803 114.5529717  55.3288035  97.4377074
 115.4574469  54.2016341  96.9868264 112.7387009  74.3084099 108.7066481
 113.6414256  74.3407709 109.0232976 112.5124379  73.3784550 108.7212817
 114.4940611  73.0615086 105.3676560 113.5436242  73.0616947 105.2540932
 114.7973097  72.3147820 104.8512594 118.3803167  50.9788972 101.5354740
 117.6135562  50.4247459 101.6811422 118.7913871  51.0510841 102.3968892
 110.3844928  57.2673768 115.6259921 111.2476389  56.9110572 115.8363246
 109.8110338  56.9287662 116.3135325 130.2293305  78.8975624 106.4322322
 130.8671714  78.7782371 105.7285662 130.1114147  79.8456468 106.4910274
 127.0383011  78.8503052 106.3683847 126.7001522  78.7344117 105.4804382
 127.9072779  78.4494217 106.3484853 122.8969826  80.7038528 102.3580738
 122.3334692  80.6128465 101.5897026 122.7822222  79.8838433 102.8383230
 127.5202794  80.0037904 112.3270052 127.5091435  79.6090702 111.4550556
 127.6823433  79.2703976 112.9203824 120.4434258  82.1989720 105.1964958
 121.2355550  81.8580545 104.7811258 120.6830909  82.3084695 106.1167112
 128.4769385  84.3709496  97.6695203 127.8257365  84.9563577  97.2829217
 129.2713748  84.9015691  97.7290240 122.4025012  81.4598633  98.0682337
 123.1755888  80.9127620  97.9295213 122.7550411  82.3242883  98.2796798
 124.2410055  82.7875016 111.2749236 123.9499921  83.6920646 111.1595903
 124.8767039  82.8291543 111.9893306 125.1666262  80.1651864 107.8650596
 125.7629834  79.9407887 107.1507559 125.2241233  79.4236610 108.4676044
 124.7391290  77.6191299  95.7000787 124.9916811  77.0972821  94.9384250
 123.8015849  77.4557445  95.8027471 129.7834573  76.6227078 103.5075530
 130.5697662  76.2046501 103.1565947 130.0473277  77.5273170 103.6757179
 129.9544650  82.0599928  98.2064187 129.3190483  82.1334555  98.9185092
 129.6242057  82.6493527  97.5283266 135.1843000  76.5602311 104.4108509
 135.9168172  75.9901528 104.6446338 134.4282356  76.1723911 104.8515014
 124.4587579  79.5219405  97.9025162 124.3423837  78.8464309  98.5706246
 124.5689839  79.0351779  97.0857315 126.8019120  78.9829553 101.6071851
 126.4377327  78.4560173 102.3184773 127.6586236  78.5928022 101.4338337
 132.7068420  70.2723885 108.8703117 132.3751745  71.1419296 108.6464332
 132.1114034  69.9560169 109.5497148 126.4424607  74.0119452  96.6033200
 126.6099009  74.8799689  96.9703671 126.2521776  74.1746734  95.6794489
 129.1999940  82.4736431 108.2699030 128.9000663  83.3761470 108.1614837
 128.8551000  82.2068614 109.1220183 122.6512421  78.9250228 104.3035734
 121.7262918  78.7926442 104.5113426 122.8996835  79.7044447 104.8005677
 132.5997084  74.9918971 105.9496467 131.6913961  74.9234380 105.6555228
 132.5484680  75.4690916 106.7778293 126.4213828  76.4677110  97.5879867
 126.3013453  76.9134160  98.4265347 125.7266416  76.8162427  97.0293405
 120.0121233  78.5683502 105.1379524 120.1413614  78.8217980 106.0518935
 119.3318684  79.1611210 104.8184179 124.1820720  89.2380751 101.2369998
 124.1044750  90.1888577 101.3158478 123.5782363  88.8926624 101.8944924
 126.6737950  76.4108617 113.8931365 125.8971284  76.9702537 113.8834229
 127.3128513  76.8965400 114.4146235 134.4658730  73.1935410 107.7274341
 133.8233110  73.4867943 107.0814136 133.9613659  73.0788330 108.5327538
 132.1198894  76.9398583  98.4160201 133.0316750  77.1725970  98.2407898
 131.6108541  77.5235627  97.8535279 124.9284322  79.2194070 113.4549332
 125.6699006  79.7579114 113.1784155 124.2221307  79.8460359 113.6120883
 130.4039662  81.3623211 112.0521493 130.8123018  80.9205621 111.3076126
 129.6816923  80.7875838 112.3055686 126.7570732  76.2995817 109.4255050
 127.6031927  76.7235231 109.5689699 126.6969369  75.6429442 110.1193613
 130.7268476  81.9224401 105.8073782 130.0977339  82.0870115 105.1049850
 130.3394138  82.3366011 106.5784746 134.6057708  82.8578839 103.1618146
 133.9208746  83.2377741 102.6115179 134.6901557  83.4674166 103.8950094
 129.9070177  73.9600186 111.0836224 129.6631109  74.7142246 110.5470499
 130.1830107  74.3385533 111.9183471 131.8608640  80.5038798 109.7613489
 132.0725535  81.1470558 109.0847870 131.8138388  79.6701115 109.2935419
 129.4634869  73.1156619 106.6650061 128.6019348  73.4137872 106.9566799
 129.4897303  73.3327018 105.7331094 126.2796438  81.6598809 103.0723867
 126.7434784  81.9386512 102.2828490 126.0153236  80.7582254 102.8896958
 123.1720519  81.2070291 106.0103630 123.7421876  81.6357559 105.3721115
 123.7628631  80.9252876 106.7087816 125.2165324  77.7821962  99.8813432
 125.9189367  78.2343005 100.3487359 124.8845953  77.1405781 100.5093325
 123.6645686  76.3733718 114.2564642 123.0344346  77.0549999 114.4900038
 123.5581774  76.2616800 113.3117780 118.9590658  76.0405514 105.1830566
 118.1689712  76.2963043 104.7070676 119.4501905  76.8553852 105.2882606
 132.9754468  83.3810754 107.9335847 133.7971911  82.9790941 107.6518528
 132.9716870  83.2778988 108.8851962 120.9105403  76.4050094 102.1414043
 120.1136567  76.5168788 102.6597538 120.6830996  76.7436746 101.2754933
 126.7411071  82.9294797 110.0896557 126.8055504  83.3915204 110.9254729
 126.0321995  82.2992162 110.2178867 117.2428361  76.2936005 107.6145557
 117.4936399  77.1783015 107.8803133 117.7787909  76.1140606 106.8420648
 141.0660461  79.7249502 104.2820818 140.3124169  79.1556900 104.1264823
 141.2008002  79.6912167 105.2291453 126.4559089  84.5962904  99.9575537
 126.3204764  85.4414440 100.3860385 126.9968901  84.7982182  99.1941471
 122.9426428  70.6754484 116.6189893 122.5493374  70.1220683 117.2937537
 123.7592569  70.9865063 117.0096410 119.9088486  82.1138342 100.5303463
 120.4213007  82.9081593 100.6809027 120.5611199  81.4164633 100.4637064
 121.7183371  85.2304099 102.6126216 121.8949999  86.1522063 102.4247200
 122.5140204  84.9162518 103.0420596 125.8594389  72.0912363 114.2110149
 126.6004103  72.6919516 114.1314612 126.0912312  71.3490001 113.6528192
 121.0035727  77.2768731 112.4888379 120.8889243  76.3753988 112.7895478
 120.1480245  77.5232427 112.1373195 128.0827565  85.2186471 114.0875880
 127.6391419  84.4322849 113.7696784 128.7444779  85.4065621 113.4219770
 122.8414686  86.7482273 108.6136558 123.3922111  86.6199336 107.8413552
 122.0026162  87.0477162 108.2631451 130.1808803  85.4989271 112.1157281
 130.1627279  86.3198152 111.6237550 131.1028723  85.3743346 112.3407422
 126.6381857  83.0133400 112.9580789 127.1710194  82.2521689 112.7280097
 126.1095938  82.7207052 113.7004944 129.8051552  68.1193466 108.4874431
 129.4615822  69.0095108 108.4113542 130.1730515  67.9295124 107.6244016
 117.8737403  80.4426997 101.3063033 118.7112625  80.8524005 101.0896741
 118.0515671  79.5026439 101.2763227 129.7701835  78.1102077  96.9946866
 129.2548458  78.8806682  97.2335253 129.4979143  77.4367214  97.6179928
 127.3548946  72.9551778 102.0532104 126.4990542  72.5658629 101.8737743
 127.7675898  73.0343739 101.1931890 128.8848093  70.4898121 106.4523664
 128.3812888  70.4528257 105.6391469 129.1778700  71.3990864 106.5120321
 125.1290979  70.5736851 105.4589846 125.9943975  70.3779660 105.0995735
 125.1968487  70.3447203 106.3859203 134.7436109  80.8634432  98.9300040
 133.9665552  80.5245592  98.4855202 135.4227590  80.8687055  98.2555005
 129.5588138  75.9829170  98.8206647 129.2538274  76.2975319  99.6716790
 130.5118580  76.0610589  98.8633980 128.0034570  82.1419393 100.4699601
 127.4755932  81.4072152 100.1572839 127.5022073  82.9194069 100.2239570
 132.9827416  80.3368413 105.5866648 132.3251090  81.0267675 105.6746776
 133.7867815  80.7264845 105.9300634 122.7353298  72.8039059 102.8306213
 123.3097050  72.5814241 102.0979406 123.3224280  72.8727754 103.5834814
 131.7932875  78.6912786 103.6370589 132.3064757  79.3242778 104.1392299
 132.4434099  78.0913982 103.2713949 123.0622885  74.8343520  96.8502098
 122.2260197  75.1718207  97.1711373 122.9227654  74.6992500  95.9129235
 125.0375965  69.6780308 101.5581282 124.3840378  69.3629325 100.9337897
 124.9956439  69.0556048 102.2841105 126.1487170  79.9599603  93.4734574
 125.2414232  79.7288857  93.6725723 126.6458202  79.1637222  93.6608556
 129.0555249  88.6697110  96.3931260 128.3816948  88.9728807  97.0016218
 129.4421071  89.4726191  96.0436717 128.2713706  76.1662242 105.8828930
 127.3536267  76.3877189 105.7250618 128.6873849  76.2408552 105.0240637
 129.0548753  77.5653657 101.0131610 129.8020572  78.0775054 100.7038732
 129.3240343  77.2437710 101.8736004 127.3275404  80.0612198  97.9958564
 126.4186623  79.7771231  98.0931034 127.3570487  80.4811277  97.1361871
 132.5594671  83.6718787 101.7649732 132.1056998  82.8309697 101.8214922
 131.9288638  84.3080186 102.1024512 131.5027591  74.6010773 102.9950399
 130.7650347  74.0888160 103.3260642 131.7554364  74.1611155 102.1833676
 131.0027610  85.5095284 102.6999550 131.2950585  86.0700341 101.9811916
 131.5126231  85.8023845 103.4552709 131.6039218  67.3787025 103.5892169
 131.9098095  66.5184389 103.3018084 132.3291823  67.9704646 103.3891163
 117.8963574  77.7817712 101.9773767 117.6987974  77.1887073 101.2524833
 117.3410238  77.4769922 102.6949705 125.8760298  77.6740819 104.0968360
 125.9308907  76.7214655 104.0210836 125.0651500  77.8300258 104.5809658
 127.0251491  81.6020942  95.3346643 126.5870921  80.8856801  94.8752280
 127.7661932  81.8297056  94.7731734 123.8152658  76.2917878 101.8558739
 123.0020523  76.5912049 102.2623931 124.3111652  75.8973567 102.5733221
 125.9661235  86.2875635 103.7893003 125.9237414  86.5136482 102.8601535
 126.8823934  86.0539010 103.9378804 129.4126869  76.7559703 110.6873632
 129.7676257  76.9831176 111.5468098 130.0599001  77.0878080 110.0650888
 135.1424606  79.8778139 101.3922961 135.0042505  80.0679735 100.4644151
 134.7860825  80.6397521 101.8491013 123.3066732  73.8636234 107.4719974
 123.9466112  73.7224993 106.7742937 122.4744263  73.5770747 107.0958576
 135.1693986  81.9454666 106.4034233 135.6030493  81.8529955 107.2517287
 135.8825567  81.9212166 105.7654249 124.0827036  83.1638664 103.5854966
 124.8767635  82.6688984 103.3837541 123.3718729  82.6356527 103.2222672
 128.9021881  85.5456760 107.9367334 128.9558903  86.1147696 108.7045050
 128.0336662  85.7158645 107.5721371 120.3909800  77.3081746  99.6614719
 119.4607388  77.2466201  99.8784681 120.4867272  76.7857699  98.8651360
 120.3095349  73.8336559 102.2492960 120.5702166  74.7481892 102.1402121
 121.1312521  73.3661001 102.3989573 121.7820274  75.2474316 109.4191785
 122.4543328  75.0391678 108.7704434 120.9550061  75.0496402 108.9797017
 136.0309535  81.9878366 108.9367118 136.2245425  82.8924177 109.1826393
 135.9310154  81.5285785 109.7705703 127.6845846  71.8736257 111.4357446
 127.0373761  72.5726207 111.3421922 128.4546862  72.3072401 111.8033694
 131.0924644  82.1385109 114.5107999 130.9410150  81.9095661 113.5938083
 131.0829324  83.0955710 114.5239344 127.8609980  79.7117022 109.4954265
 128.7902040  79.8628181 109.3223233 127.4401011  79.8001043 108.6402912
 126.6598312  83.7367686 107.2652803 126.5209398  83.3686471 108.1378741
 125.8712909  84.2515326 107.0936761 127.2546464  88.8376783  98.6078340
 127.4298220  88.3664826  99.4223962 126.5679252  89.4642549  98.8359600
 128.2103527  83.1149289 104.6541641 127.8753360  83.0750059 105.5499291
 127.7107473  82.4494005 104.1812051 122.1847771  78.5216919 110.1794222
 122.0467569  77.7897158 110.7805761 123.0952695  78.4325819 109.8978410
 131.1462719  80.4605323  94.9278701 130.5291890  79.7352151  94.8311753
 130.6779208  81.2214684  94.5845775 124.8130072  78.2336878 109.6677902
 125.5229691  77.5930070 109.6264520 124.7699380  78.4849773 110.5904082
 132.8016851  85.1704232 112.5884481 132.7429397  84.4863452 111.9215064
 133.2036369  85.9123222 112.1365107 123.5259006  75.2202096 111.4873541
 122.9896363  74.7692835 112.1395137 122.9375714  75.3548005 110.7444005
 121.8207550  91.9866145 105.3818200 122.0604148  92.6184670 106.0597218
 120.9776746  91.6354185 105.6683559 122.9361265  74.6790748  94.0500005
 122.0590731  74.5579548  93.6862251 123.4119018  73.8876826  93.7978893
 132.8034258  83.1343816 110.8198461 131.9161037  82.7969737 110.9424859
 133.3732809  82.4026847 111.0567226 114.4563405  79.4667907 104.1441512
 115.1434445  79.1529637 103.5562527 114.3011534  80.3709272 103.8708763
 119.2598127  74.3558104 108.5726536 119.1756316  73.7483773 107.8376946
 118.4380834  74.8467122 108.5736032 126.3335411  87.7945268 107.7859704
 126.2605583  88.6000239 108.2979008 125.8912804  87.9937234 106.9607725
 126.1225191  87.0317038 101.2962525 125.3392713  87.5738718 101.3900750
 126.8217936  87.5491018 101.6956766 129.4321841  72.8411667 103.9396731
 129.9290541  72.0881630 103.6197801 128.6608823  72.8775984 103.3739940
 137.2851599  78.5452033 105.5815022 137.2741475  79.4276748 105.2108955
 136.4168978  78.1923584 105.3869559 128.7934095  87.6932102 109.9417862
 129.5062067  88.3279567 109.8693764 128.3024124  87.7895968 109.1257864
 130.5151622  81.5983355 101.5135154 129.5807901  81.7184817 101.3439858
 130.6928290  80.6955821 101.2495164 126.0156810  74.9829050 103.6668415
 125.6454597  74.4300091 104.3549321 126.5115902  74.3787184 103.1143415
 133.9024173  77.4400674 102.0485188 134.3684625  78.2728665 101.9745491
 134.3531674  76.9745655 102.7530447 123.8446008  85.4426545 110.7623433
 124.5455468  86.0763028 110.9152827 123.3741123  85.7841277 110.0019073
 131.9700404  83.7844495  99.0471340 132.2460248  83.6701090  99.9565214
 131.1004903  83.3861980  99.0083513 131.8740836  69.8081261 106.0876090
 130.9603916  70.0385488 106.2558296 132.3033937  69.8919705 106.9390122
 131.6447294  77.9971153 108.5875984 130.9918745  78.2447060 107.9328436
 132.0227674  77.1835291 108.2538461 128.6054468  88.0330846 102.6904154
 128.7876863  87.2152502 103.1531906 129.4287454  88.2498538 102.2529044
 128.9396634  86.9599031  99.9519202 129.4684400  86.4491486  99.3389364
 129.2024853  86.6441561 100.8164735 127.6934867  78.7390964 115.0742021
 127.0175504  78.6385093 115.7444396 128.5162501  78.5830178 115.5378018
 119.4413727  84.9762900 107.6954536 120.0267163  84.2306588 107.8282440
 119.2438565  85.2866857 108.5791200 122.2952382  88.0114148 102.7116978
 121.6262757  88.4960275 102.2281018 122.1565251  88.2583368 103.6260357
 114.0331381  77.5468501 106.4158979 114.0715481  77.0132091 107.2096097
 113.5271674  77.0203706 105.7969956 126.4357650  90.0457891 109.3099637
 126.9875958  90.2089513 110.0748722 126.7763844  90.6362329 108.6379662
 121.4122144  72.3933041 109.9121521 121.4763470  73.2547872 109.4998919
 121.3489264  71.7807043 109.1793880 120.8874416  74.4656174 113.5594556
 121.5146455  74.0833251 114.1732080 120.0302335  74.2470376 113.9250248
 131.2868525  84.8719149 115.1648291 131.8308429  85.4849107 114.6703246
 130.7055369  85.4298727 115.6815304 117.6639959  76.2732603  99.4912910
 117.9593400  75.3643281  99.4379964 116.7627995  76.2520342  99.1693913
 129.5726038  87.9939867 106.2963319 129.4477177  87.1929607 105.7874264
 130.2305129  88.4886060 105.8077289 121.1934206  74.3488599 105.4740459
 120.4720792  74.9624567 105.3347932 121.9827462  74.8846364 105.3957105
 131.6360946  85.7948887 107.9242869 130.6891282  85.6754238 107.8521196
 131.9843719  84.9071385 108.0069130 123.9960519  71.6843026 111.7481111
 124.5194921  71.9305322 112.5107420 123.7772853  72.5163061 111.3284248
 119.3927800  73.9546700  99.6152236 119.0640507  73.0744079  99.4327342
 119.7467171  73.8994369 100.5028625 128.6407379  85.5901603 104.1247221
 128.4932342  84.6618311 104.3054791 129.4660873  85.6121694 103.6404296
 122.5069624  74.2419670  99.9827713 122.8465696  74.7705592  99.2606322
 122.9541744  74.5800076 100.7586280 132.2441501  86.4130162 105.2112094
 133.1688049  86.2073023 105.0736545 132.0756804  86.1646563 106.1201435
 125.2013064  72.6256721 109.4330781 124.8609885  71.8264534 109.8351461
 124.4952071  72.9258432 108.8607615 125.8529536  69.7106033 107.8858104
 126.6755606  69.2366512 107.7636995 126.0967600  70.4896517 108.3856791
 124.4937771  72.7394292  98.1821006 125.2146133  73.1175545  97.6784723
 123.8703075  73.4583169  98.2855984 128.6368894  73.4439441  99.1179338
 128.8532508  74.3264079  98.8168167 128.1562961  73.0525654  98.3884980
 123.3768115  76.4025154 105.6950083 123.2312696  76.7165457 106.5874364
 122.8993319  77.0210054 105.1420982 125.2364498  73.3927702 105.7430973
 125.2226067  72.4968795 105.4063270 125.9536926  73.3998366 106.3769259
 127.0890629  73.8265042 107.7884100 126.8308406  74.7482113 107.7868430
 126.5575669  73.4295477 108.4784564 132.0336817  86.9315829 100.5674185
 132.2073695  86.3662252  99.8148038 132.5265709  87.7316724 100.3853675
 117.8513777  78.9430498 108.6337744 117.3067245  79.7190306 108.7658018
 118.7293127  79.2901303 108.4756866 124.6401394  72.2742082 101.0118543
 124.7617305  71.3458729 101.2109430 124.3503436  72.2880768 100.0996858
 127.5092584  69.9596993 104.1485263 127.5314281  70.0236326 103.1937242
 127.9260643  69.1201501 104.3425769 137.8876209  79.6952252 102.1864485
 138.3307355  78.9459578 101.7883608 137.0102719  79.6862389 101.8038217
 133.0211990  86.2482594  97.6671084 133.7162894  86.8689286  97.8858398
 133.3635140  85.3977945  97.9423462 118.6379799  78.0700395 111.5267901
 117.8961535  78.2183030 112.1132531 118.3172543  78.3308660 110.6634650
 134.9203413  83.6982299  99.1958414 135.4454737  84.0369572  98.4707734
 134.8325765  82.7629315  99.0121549 126.5823462  87.6116373 111.3248291
 126.8910588  87.3665520 112.1970991 127.3798944  87.8163011 110.8367161
 126.6044074  89.7654283 103.5553668 126.1649064  89.2730661 104.2486524
 127.3552191  89.2227250 103.3145743 119.0836413  85.9565823 103.5578296
 119.9094433  85.6569595 103.1776939 118.7330465  85.1873446 104.0068084
 124.0517946  85.3092292 105.6275969 123.4297955  84.6462997 105.3278197
 124.7222813  85.3353424 104.9449617 117.2845018  83.8752150 104.5167229
 116.4476926  83.4474324 104.3351231 117.2568663  84.0684593 105.4538020
 124.1242473  73.7874080 115.2208475 124.1730629  74.6636202 114.8386245
 124.6664988  73.2451473 114.6480118 134.6097319  84.3315203 114.5009612
 133.8192863  84.3139342 113.9614112 134.3730674  84.8703497 115.2558649
 134.7295194  81.1807669 111.8142341 134.7793199  81.0157677 112.7557864
 134.6209117  80.3134928 111.4240222 123.6131453  83.8596215  99.1034430
 123.7619573  84.5431679  98.4501103 124.4197896  83.8401305  99.6183886
 132.0198956  77.1638597 113.1301648 132.9208819  77.0245062 112.8385645
 132.0946931  77.3293052 114.0699825 126.3541762  74.5405452 111.9754834
 125.4845071  74.8339018 111.7037422 126.5901242  75.1245897 112.6962098
 136.2313391  83.6004611 112.0584362 135.9398199  83.9634591 112.8947823
 135.6185522  82.8871619 111.8797695 137.4309073  81.1657491 104.5786933
 138.2655965  81.6047295 104.7424493 137.5668202  80.6896144 103.7595178
 134.4800579  78.7237225 110.5264420 134.9554701  78.9164872 109.7183272
 133.5566145  78.7796411 110.2807804 121.3684086  79.8861393 100.1095499
 121.1230128  78.9823723 100.3075709 121.5380000  79.8878543  99.1674977
 129.0580796  70.7585069 109.4920254 129.5762739  71.4946096 109.1666743
 128.7035928  71.0649062 110.3267013 120.6379733  75.6189750  97.6081660
 119.9448978  75.6934105  96.9521696 120.3931485  74.8550094  98.1303177
 129.3093390  67.1785352 105.0121151 129.5895144  66.5108541 105.6381577
 130.0943997  67.3714447 104.4995815 127.1126858  86.3544345  96.5746177
 126.5400825  86.9734533  96.1216649 127.6859652  86.9043707  97.1086099
 133.1802248  75.6002986 108.7592726 134.1319671  75.7001083 108.7804950
 133.0105699  74.8081254 109.2690810 131.2016628  72.6858569 108.9452127
 130.6066560  72.9663581 108.2498616 130.9166324  73.1752470 109.7168868
 130.3324118  86.6381496  97.7054759 131.2654791  86.5727057  97.9087635
 130.2447331  87.4737762  97.2469292 132.9612135  85.9547366  94.6658707
 132.8825766  85.6207230  95.5594465 133.7821802  86.4469134  94.6650179
 135.6590326  78.8209105 107.8735026 135.6266646  77.8825106 108.0594709
 136.2690950  78.8993142 107.1400851 127.4973657  77.6905158  93.9162230
 128.4432761  77.5611366  93.9850648 127.1187902  76.9519820  94.3931658
 135.8084814  75.6120149 107.9193309 135.2923863  74.8278605 107.7323238
 136.6924763  75.2838865 108.0839828 133.4695541  69.3561164 103.8789122
 133.2720362  69.0476252 104.7632453 134.0795247  70.0822803 104.0087051
 141.4766876  79.8825112 107.0141062 142.2070264  79.6210400 107.5748766
 140.8673821  79.1453834 107.0543130 139.5582173  78.0232975 107.6115514
 138.8315336  77.8888940 107.0032005 139.1429460  78.3309803 108.4172232
 127.3812349  81.7422904 115.3762887 128.3015359  81.9201503 115.5702933
 127.3461932  80.7978950 115.2242586 125.6816574  75.6155135  93.8517115
 124.7748029  75.3188247  93.9279829 125.9592555  75.3184953  92.9851401
 116.5994514  76.9361498 104.3016161 116.2797299  76.0826806 104.0090535
 116.0527942  77.1510076 105.0574129 120.3774422  79.6523939 108.0185668
 120.5960432  80.5841047 108.0373702 120.7900196  79.2931913 108.8040472
 127.2978640  70.1592024 100.0061356 126.4879368  69.8139109 100.3816602
 127.9863057  69.8499568 100.5948968 129.2269188  69.2370071 101.6285653
 129.7800227  69.6565525 102.2875676 129.4639274  68.3105819 101.6708609
 125.2502287  75.2257145 117.4088417 125.1499014  76.1751502 117.3400508
 125.0323829  74.8975384 116.5364487 124.4515359  72.4742070  93.9929094
 125.3134523  72.7996968  94.2524911 124.6365703  71.6873566  93.4802160
 116.4682774  80.5564409 106.2709283 115.7746246  80.1418362 105.7579237
 117.2155765  80.5984946 105.6742702 132.6047995  71.3470596 101.1364317
 132.0246664  72.0055400 100.7542370 132.3383928  70.5247941 100.7251735
 131.0551561  70.7475654 103.3385637 131.5551340  70.8592189 102.5299956
 131.6987169  70.4436707 103.9786446 125.1133557  78.6554284 116.2253478
 124.6300639  79.4554644 116.4317367 125.1994496  78.6662228 115.2720922
 118.3819517  80.4882663 104.1475298 118.3590205  80.5870351 103.1957181
 118.6920153  81.3347814 104.4692464 121.0406895  82.5458818 108.2621912
 121.9950148  82.5142761 108.1951844 120.8419418  82.0849442 109.0772138
 121.6306277  81.1159934 110.8292710 122.4499166  81.6104013 110.8527547
 121.9043085  80.1991902 110.8010277 131.3872873  73.5070687 100.1920665
 130.4998728  73.7920337  99.9740860 131.8026862  73.3464450  99.3447942
 134.7387409  73.5317208 103.9075005 135.5147799  74.0213660 104.1799621
 134.0135543  73.9575262 104.3646874 137.1759968  74.2444827 104.9648945
 137.7704459  74.0040563 104.2542253 137.2486552  73.5251957 105.5922482
 119.3957124  88.0878438 105.2792110 119.2611591  87.3278839 104.7130108
 118.9789186  88.8119338 104.8120899 131.3613897  79.0225223 100.4070956
 131.3049098  79.4793774  99.5678588 131.9142239  78.2615907 100.2293798
 135.1718703  74.8114954 101.2321075 134.9155637  74.4111590 102.0629283
 134.5471571  75.5258748 101.1071214 139.4831041  77.5511028 103.7392366
 138.9230599  77.6204217 104.5123929 138.8774544  77.3752012 103.0191863
 122.5526249  88.9847755 105.4910553 122.4358634  89.9293187 105.3889243
 121.7318696  88.6821316 105.8796352 132.4402784  83.7097891  96.3367145
 133.2748388  83.2779089  96.1544620 132.2787127  83.5379904  97.2644040
 132.0948676  80.2130004  97.7023485 132.0397480  80.0474275  96.7611929
 131.4694731  80.9206037  97.8585674 116.8841191  75.4498068 111.5284907
 117.5300055  74.9397022 112.0172132 116.6758342  76.1866750 112.1028332
 129.4094583  82.5178916 117.0277048 130.2785743  82.6919568 116.6663682
 128.9301335  83.3373333 116.9052777 125.4044802  69.7138113  97.2808803
 125.3923471  70.6579953  97.4377074 126.2968223  69.5308258  96.9868264
 123.5780764  89.6376017 108.7066481 124.4808010  89.6699627 109.0232976
 123.3518134  88.7076468 108.7212817 125.3334366  88.3907003 105.3676560
 124.3829997  88.3908865 105.2540932 125.6366852  87.6439738 104.8512594
 129.2196921  66.3080889 101.5354740 128.4529317  65.7539376 101.6811422
 129.6307626  66.3802758 102.3968892 121.2238682  72.5965685 115.6259921
 122.0870144  72.2402490 115.8363246 120.6504093  72.2579580 116.3135325
 141.0687059  94.2267542 106.4322322 141.7065469  94.1074289 105.7285662
 140.9507902  95.1748386 106.4910274 137.8776765  94.1794970 106.3683847
 137.5395277  94.0636034 105.4804382 138.7466533  93.7786135 106.3484853
 133.7363581  96.0330446 102.3580738 133.1728446  95.9420383 101.5897026
 133.6215976  95.2130351 102.8383230 138.3596548  95.3329821 112.3270052
 138.3485189  94.9382620 111.4550556 138.5217188  94.5995894 112.9203824
 131.2828013  97.5281638 105.1964958 132.0749305  97.1872462 104.7811258
 131.5224663  97.6376613 106.1167112 139.3163140  99.7001414  97.6695203
 138.6651119 100.2855494  97.2829217 140.1107503 100.2307609  97.7290240
 133.2418767  96.7890551  98.0682337 134.0149643  96.2419538  97.9295213
 133.5944166  97.6534800  98.2796798 135.0803809  98.1166933 111.2749236
 134.7893675  99.0212564 111.1595903 135.7160794  98.1583461 111.9893306
 136.0060016  95.4943782 107.8650596 136.6023589  95.2699804 107.1507559
 136.0634988  94.7528527 108.4676044 135.5785045  92.9483217  95.7000787
 135.8310565  92.4264738  94.9384250 134.6409604  92.7849363  95.8027471
 140.6228327  91.9518995 103.5075530 141.4091417  91.5338419 103.1565947
 140.8867032  92.8565088 103.6757179 140.7938405  97.3891846  98.2064187
 140.1584238  97.4626472  98.9185092 140.4635811  97.9785445  97.5283266
 146.0236755  91.8894229 104.4108509 146.7561927  91.3193445 104.6446338
 145.2676110  91.5015829 104.8515014 135.2981333  94.8511323  97.9025162
 135.1817592  94.1756226  98.5706246 135.4083593  94.3643697  97.0857315
 137.6412874  94.3121470 101.6071851 137.2771082  93.7852091 102.3184773
 138.4979990  93.9219939 101.4338337 143.5462175  85.6015803 108.8703117
 143.2145500  86.4711214 108.6464332 142.9507788  85.2852087 109.5497148
 137.2818361  89.3411370  96.6033200 137.4492764  90.2091606  96.9703671
 137.0915530  89.5038652  95.6794489 140.0393695  97.8028349 108.2699030
 139.7394418  98.7053388 108.1614837 139.6944754  97.5360532 109.1220183
 133.4906176  94.2542146 104.3035734 132.5656672  94.1218360 104.5113426
 133.7390589  95.0336365 104.8005677 143.4390838  90.3210889 105.9496467
 142.5307716  90.2526297 105.6555228 143.3878434  90.7982834 106.7778293
 137.2607582  91.7969027  97.5879867 137.1407207  92.2426078  98.4265347
 136.5660171  92.1454345  97.0293405 130.8514987  93.8975419 105.1379524
 130.9807368  94.1509898 106.0518935 130.1712438  94.4903127 104.8184179
 135.0214474 104.5672669 101.2369998 134.9438504 105.5180494 101.3158478
 134.4176118 104.2218542 101.8944924 137.5131704  91.7400535 113.8931365
 136.7365038  92.2994455 113.8834229 138.1522267  92.2257318 114.4146235
 145.3052485  88.5227327 107.7274341 144.6626865  88.8159861 107.0814136
 144.8007413  88.4080248 108.5327538 142.9592648  92.2690501  98.4160201
 143.8710504  92.5017887  98.2407898 142.4502295  92.8527545  97.8535279
 135.7678076  94.5485988 113.4549332 136.5092761  95.0871032 113.1784155
 135.0615062  95.1752277 113.6120883 141.2433416  96.6915128 112.0521493
 141.6516772  96.2497539 111.3076126 140.5210678  96.1167756 112.3055686
 137.5964486  91.6287735 109.4255050 138.4425681  92.0527149 109.5689699
 137.5363124  90.9721359 110.1193613 141.5662231  97.2516319 105.8073782
 140.9371093  97.4162033 105.1049850 141.1787893  97.6657929 106.5784746
 145.4451463  98.1870757 103.1618146 144.7602501  98.5669658 102.6115179
 145.5295312  98.7966084 103.8950094 140.7463931  89.2892104 111.0836224
 140.5024863  90.0434164 110.5470499 141.0223862  89.6677451 111.9183471
 142.7002394  95.8330716 109.7613489 142.9119289  96.4762476 109.0847870
 142.6532142  94.9993032 109.2935419 140.3028623  88.4448537 106.6650061
 139.4413102  88.7429790 106.9566799 140.3291058  88.6618935 105.7331094
 137.1190193  96.9890727 103.0723867 137.5828538  97.2678430 102.2828490
 136.8546991  96.0874172 102.8896958 134.0114274  96.5362209 106.0103630
 134.5815631  96.9649477 105.3721115 134.6022385  96.2544793 106.7087816
 136.0559079  93.1113879  99.8813432 136.7583122  93.5634923 100.3487359
 135.7239707  92.4697698 100.5093325 134.5039440  91.7025636 114.2564642
 133.8738101  92.3841917 114.4900038 134.3975528  91.5908718 113.3117780
 129.7984413  91.3697432 105.1830566 129.0083467  91.6254961 104.7070676
 130.2895660  92.1845770 105.2882606 143.8148222  98.7102671 107.9335847
 144.6365666  98.3082859 107.6518528 143.8110625  98.6070905 108.8851962
 131.7499158  91.7342011 102.1414043 130.9530321  91.8460706 102.6597538
 131.5224750  92.0728664 101.2754933 137.5804826  98.2586715 110.0896557
 137.6449258  98.7207122 110.9254729 136.8715749  97.6284080 110.2178867
 128.0822116  91.6227923 107.6145557 128.3330154  92.5074932 107.8803133
 128.6181664  91.4432524 106.8420648 151.9054215  95.0541420 104.2820818
 151.1517924  94.4848818 104.1264823 152.0401756  95.0204084 105.2291453
 137.2952843  99.9254822  99.9575537 137.1598518 100.7706358 100.3860385
 137.8362656 100.1274100  99.1941471 133.7820183  86.0046402 116.6189893
 133.3887128  85.4512600 117.2937537 134.5986323  86.3156980 117.0096410
 130.7482241  97.4430260 100.5303463 131.2606761  98.2373510 100.6809027
 131.4004953  96.7456551 100.4637064 132.5577125 100.5596016 102.6126216
 132.7343754 101.4813981 102.4247200 133.3533959 100.2454436 103.0420596
 136.6988144  87.4204281 114.2110149 137.4397857  88.0211434 114.1314612
 136.9306067  86.6781919 113.6528192 131.8429482  92.6060648 112.4888379
 131.7282997  91.7045906 112.7895478 130.9874000  92.8524345 112.1373195
 138.9221320 100.5478389 114.0875880 138.4785174  99.7614767 113.7696784
 139.5838533 100.7357539 113.4219770 133.6808441 102.0774190 108.6136558
 134.2315866 101.9491254 107.8413552 132.8419917 102.3769079 108.2631451
 141.0202558 100.8281189 112.1157281 141.0021033 101.6490070 111.6237550
 141.9422478 100.7035264 112.3407422 137.4775612  98.3425318 112.9580789
 138.0103949  97.5813606 112.7280097 136.9489693  98.0498970 113.7004944
 140.6445307  83.4485384 108.4874431 140.3009576  84.3387026 108.4113542
 141.0124269  83.2587042 107.6244016 128.7131157  95.7718914 101.3063033
 129.5506379  96.1815923 101.0896741 128.8909425  94.8318357 101.2763227
 140.6095590  93.4393995  96.9946866 140.0942213  94.2098600  97.2335253
 140.3372898  92.7659131  97.6179928 138.1942701  88.2843696 102.0532104
 137.3384297  87.8950546 101.8737743 138.6069652  88.3635657 101.1931890
 139.7241847  85.8190039 106.4523664 139.2206643  85.7820174 105.6391469
 140.0172454  86.7282782 106.5120321 135.9684733  85.9028769 105.4589846
 136.8337730  85.7071578 105.0995735 136.0362242  85.6739121 106.3859203
 145.5829864  96.1926350  98.9300040 144.8059306  95.8537509  98.4855202
 146.2621345  96.1978973  98.2555005 140.3981893  91.3121087  98.8206647
 140.0932028  91.6267236  99.6716790 141.3512335  91.3902507  98.8633980
 138.8428325  97.4711310 100.4699601 138.3149686  96.7364070 100.1572839
 138.3415827  98.2485987 100.2239570 143.8221171  95.6660331 105.5866648
 143.1644845  96.3559592 105.6746776 144.6261570  96.0556763 105.9300634
 133.5747052  88.1330977 102.8306213 134.1490804  87.9106158 102.0979406
 134.1618035  88.2019671 103.5834814 142.6326629  94.0204704 103.6370589
 143.1458511  94.6534696 104.1392299 143.2827853  93.4205899 103.2713949
 133.9016639  90.1635438  96.8502098 133.0653952  90.5010124  97.1711373
 133.7621409  90.0284418  95.9129235 135.8769720  85.0072226 101.5581282
 135.2234132  84.6921243 100.9337897 135.8350194  84.3847966 102.2841105
 136.9880925  95.2891521  93.4734574 136.0807986  95.0580774  93.6725723
 137.4851957  94.4929140  93.6608556 139.8949004 103.9989028  96.3931260
 139.2210702 104.3020725  97.0016218 140.2814826 104.8018108  96.0436717
 139.1107460  91.4954159 105.8828930 138.1930022  91.7169106 105.7250618
 139.5267604  91.5700470 105.0240637 139.8942508  92.8945575 101.0131610
 140.6414327  93.4066972 100.7038732 140.1634098  92.5729628 101.8736004
 138.1669158  95.3904116  97.9958564 137.2580377  95.1063148  98.0931034
 138.1964242  95.8103194  97.1361871 143.3988426  99.0010705 101.7649732
 142.9450753  98.1601615 101.8214922 142.7682392  99.6372103 102.1024512
 142.3421345  89.9302691 102.9950399 141.6044102  89.4180077 103.3260642
 142.5948119  89.4903073 102.1833676 141.8421365 100.8387202 102.6999550
 142.1344339 101.3992259 101.9811916 142.3519985 101.1315763 103.4552709
 142.4432972  82.7078943 103.5892169 142.7491849  81.8476307 103.3018084
 143.1685577  83.2996563 103.3891163 128.7357329  93.1109630 101.9773767
 128.5381728  92.5178990 101.2524833 128.1803993  92.8061840 102.6949705
 136.7154052  93.0032736 104.0968360 136.7702662  92.0506573 104.0210836
 135.9045254  93.1592175 104.5809658 137.8645246  96.9312859  95.3346643
 137.4264676  96.2148718  94.8752280 138.6055687  97.1588974  94.7731734
 134.6546412  91.6209796 101.8558739 133.8414278  91.9203967 102.2623931
 135.1505406  91.2265485 102.5733221 136.8054990 101.6167553 103.7893003
 136.7631169 101.8428399 102.8601535 137.7217689 101.3830927 103.9378804
 140.2520624  92.0851620 110.6873632 140.6070012  92.3123094 111.5468098
 140.8992755  92.4169997 110.0650888 145.9818361  95.2070056 101.3922961
 145.8436259  95.3971652 100.4644151 145.6254580  95.9689439 101.8491013
 134.1460487  89.1928151 107.4719974 134.7859866  89.0516911 106.7742937
 133.3138017  88.9062665 107.0958576 146.0087740  97.2746583 106.4034233
 146.4424247  97.1821872 107.2517287 146.7219321  97.2504084 105.7654249
 134.9220791  98.4930582 103.5854966 135.7161389  97.9980902 103.3837541
 134.2112483  97.9648445 103.2222672 139.7415635 100.8748677 107.9367334
 139.7952658 101.4439614 108.7045050 138.8730417 101.0450562 107.5721371
 131.2303554  92.6373664  99.6614719 130.3001142  92.5758119  99.8784681
 131.3261026  92.1149616  98.8651360 131.1489103  89.1628476 102.2492960
 131.4095921  90.0773810 102.1402121 131.9706276  88.6952919 102.3989573
 132.6214029  90.5766234 109.4191785 133.2937082  90.3683596 108.7704434
 131.7943815  90.3788320 108.9797017 146.8703290  97.3170284 108.9367118
 147.0639180  98.2216094 109.1826393 146.7703908  96.8577703 109.7705703
 138.5239601  87.2028175 111.4357446 137.8767516  87.9018124 111.3421922
 139.2940616  87.6364318 111.8033694 141.9318399  97.4677027 114.5107999
 141.7803905  97.2387578 113.5938083 141.9223078  98.4247628 114.5239344
 138.7003735  95.0408939 109.4954265 139.6295795  95.1920099 109.3223233
 138.2794765  95.1292960 108.6402912 137.4992067  99.0659604 107.2652803
 137.3603152  98.6978388 108.1378741 136.7106663  99.5807243 107.0936761
 138.0940219 104.1668700  98.6078340 138.2691974 103.6956744  99.4223962
 137.4073007 104.7934467  98.8359600 139.0497282  98.4441207 104.6541641
 138.7147115  98.4041977 105.5499291 138.5501228  97.7785923 104.1812051
 133.0241526  93.8508837 110.1794222 132.8861324  93.1189075 110.7805761
 133.9346449  93.7617737 109.8978410 141.9856474  95.7897241  94.9278701
 141.3685644  95.0644069  94.8311753 141.5172962  96.5506601  94.5845775
 135.6523827  93.5628796 109.6677902 136.3623445  92.9221988 109.6264520
 135.6093135  93.8141691 110.5904082 143.6410605 100.4996149 112.5884481
 143.5823151  99.8155369 111.9215064 144.0430124 101.2415139 112.1365107
 134.3652761  90.5494014 111.4873541 133.8290118  90.0984752 112.1395137
 133.7769469  90.6839923 110.7444005 132.6601304 107.3158063 105.3818200
 132.8997902 107.9476587 106.0597218 131.8170500 106.9646103 105.6683559
 133.7755019  90.0082665  94.0500005 132.8984486  89.8871466  93.6862251
 134.2512773  89.2168744  93.7978893 143.6428012  98.4635733 110.8198461
 142.7554791  98.1261655 110.9424859 144.2126564  97.7318764 111.0567226
 125.2957160  94.7959825 104.1441512 125.9828199  94.4821555 103.5562527
 125.1405288  95.7001190 103.8708763 130.0991882  89.6850022 108.5726536
 130.0150070  89.0775691 107.8376946 129.2774588  90.1759040 108.5736032
 137.1729166 103.1237186 107.7859704 137.0999337 103.9292157 108.2979008
 136.7306559 103.3229151 106.9607725 136.9618946 102.3608956 101.2962525
 136.1786467 102.9030636 101.3900750 137.6611691 102.8782935 101.6956766
 140.2715596  88.1703585 103.9396731 140.7684295  87.4173547 103.6197801
 139.5002577  88.2067902 103.3739940 148.1245353  93.8743951 105.5815022
 148.1135229  94.7568666 105.2108955 147.2562732  93.5215501 105.3869559
 139.6327849 103.0224020 109.9417862 140.3455822 103.6571484 109.8693764
 139.1417878 103.1187886 109.1257864 141.3545376  96.9275272 101.5135154
 140.4201655  97.0476735 101.3439858 141.5322045  96.0247739 101.2495164
 136.8550564  90.3120968 103.6668415 136.4848352  89.7592008 104.3549321
 137.3509657  89.7079102 103.1143415 144.7417928  92.7692592 102.0485188
 145.2078380  93.6020583 101.9745491 145.1925428  92.3037573 102.7530447
 134.6839763 100.7718463 110.7623433 135.3849222 101.4054946 110.9152827
 134.2134878 101.1133195 110.0019073 142.8094159  99.1136413  99.0471340
 143.0854003  98.9993007  99.9565214 141.9398658  98.7153898  99.0083513
 142.7134590  85.1373179 106.0876090 141.7997670  85.3677405 106.2558296
 143.1427692  85.2211623 106.9390122 142.4841049  93.3263071 108.5875984
 141.8312499  93.5738978 107.9328436 142.8621429  92.5127209 108.2538461
 139.4448223 103.3622764 102.6904154 139.6270617 102.5444420 103.1531906
 140.2681209 103.5790456 102.2529044 139.7790388 102.2890949  99.9519202
 140.3078155 101.7783403  99.3389364 140.0418608 101.9733479 100.8164735
 138.5328622  94.0682882 115.0742021 137.8569259  93.9677011 115.7444396
 139.3556256  93.9122095 115.5378018 130.2807481 100.3054818 107.6954536
 130.8660918  99.5598506 107.8282440 130.0832319 100.6158775 108.5791200
 133.1346136 103.3406066 102.7116978 132.4656511 103.8252193 102.2281018
 132.9959006 103.5875286 103.6260357 124.8725136  92.8760418 106.4158979
 124.9109235  92.3424009 107.2096097 124.3665429  92.3495624 105.7969956
 137.2751405 105.3749809 109.3099637 137.8269713 105.5381431 110.0748722
 137.6157598 105.9654247 108.6379662 132.2515898  87.7224959 109.9121521
 132.3157225  88.5839790 109.4998919 132.1883018  87.1098960 109.1793880
 131.7268171  89.7948091 113.5594556 132.3540209  89.4125169 114.1732080
 130.8696089  89.5762293 113.9250248 142.1262279 100.2011067 115.1648291
 142.6702183 100.8141025 114.6703246 141.5449124 100.7590645 115.6815304
 128.5033713  91.6024520  99.4912910 128.7987154  90.6935199  99.4379964
 127.6021749  91.5812260  99.1693913 140.4119792 103.3231785 106.2963319
 140.2870932 102.5221524 105.7874264 141.0698883 103.8177978 105.8077289
 132.0327960  89.6780517 105.4740459 131.3114546  90.2916485 105.3347932
 132.8221216  90.2138282 105.3957105 142.4754700 101.1240805 107.9242869
 141.5285036 101.0046156 107.8521196 142.8237474 100.2363303 108.0069130
 134.8354274  87.0134944 111.7481111 135.3588676  87.2597240 112.5107420
 134.6166607  87.8454978 111.3284248 130.2321555  89.2838618  99.6152236
 129.9034261  88.4035997  99.4327342 130.5860926  89.2286287 100.5028625
 139.4801134 100.9193521 104.1247221 139.3326096  99.9910228 104.3054791
 140.3054627 100.9413612 103.6404296 133.3463378  89.5711588  99.9827713
 133.6859451  90.0997509  99.2606322 133.7935499  89.9091994 100.7586280
 143.0835256 101.7422080 105.2112094 144.0081803 101.5364941 105.0736545
 142.9150559 101.4938481 106.1201435 136.0406819  87.9548639 109.4330781
 135.7003639  87.1556452 109.8351461 135.3345825  88.2550350 108.8607615
 136.6923291  85.0397951 107.8858104 137.5149360  84.5658429 107.7636995
 136.9361354  85.8188435 108.3856791 135.3331525  88.0686210  98.1821006
 136.0539888  88.4467462  97.6784723 134.7096829  88.7875086  98.2855984
 139.4762648  88.7731359  99.1179338 139.6926262  89.6555996  98.8168167
 138.9956715  88.3817572  98.3884980 134.2161869  91.7317072 105.6950083
 134.0706450  92.0457375 106.5874364 133.7387073  92.3501972 105.1420982
 136.0758252  88.7219620 105.7430973 136.0619821  87.8260713 105.4063270
 136.7930680  88.7290283 106.3769259 137.9284383  89.1556960 107.7884100
 137.6702161  90.0774031 107.7868430 137.3969423  88.7587394 108.4784564
 142.8730572 102.2607747 100.5674185 143.0467449 101.6954170  99.8148038
 143.3659463 103.0608642 100.3853675 128.6907532  94.2722416 108.6337744
 128.1461000  95.0482224 108.7658018 129.5686881  94.6193221 108.4756866
 135.4795148  87.6034000 101.0118543 135.6011059  86.6750646 101.2109430
 135.1897191  87.6172686 100.0996858 138.3486339  85.2888910 104.1485263
 138.3708035  85.3528244 103.1937242 138.7654398  84.4493419 104.3425769
 148.7269963  95.0244170 102.1864485 149.1701109  94.2751495 101.7883608
 147.8496473  95.0154306 101.8038217 143.8605744 101.5774511  97.6671084
 144.5556649 102.1981204  97.8858398 144.2028894 100.7269863  97.9423462
 129.4773553  93.3992312 111.5267901 128.7355290  93.5474948 112.1132531
 129.1566298  93.6600578 110.6634650 145.7597167  99.0274217  99.1958414
 146.2848492  99.3661490  98.4707734 145.6719520  98.0921232  99.0121549
 137.4217216 102.9408291 111.3248291 137.7304343 102.6957437 112.1970991
 138.2192698 103.1454929 110.8367161 137.4437828 105.0946200 103.5553668
 137.0042818 104.6022579 104.2486524 138.1945945 104.5519168 103.3145743
 129.9230167 101.2857741 103.5578296 130.7488187 100.9861513 103.1776939
 129.5724219 100.5165364 104.0068084 134.8911700 100.6384209 105.6275969
 134.2691710  99.9754914 105.3278197 135.5616567 100.6645341 104.9449617
 128.1238772  99.2044068 104.5167229 127.2870681  98.7766242 104.3351231
 128.0962418  99.3976511 105.4538020 134.9636228  89.1165997 115.2208475
 135.0124383  89.9928120 114.8386245 135.5058742  88.5743390 114.6480118
 145.4491073  99.6607121 114.5009612 144.6586617  99.6431259 113.9614112
 145.2124428 100.1995414 115.2558649 145.5688949  96.5099587 111.8142341
 145.6186953  96.3449594 112.7557864 145.4602872  95.6426846 111.4240222
 134.4525207  99.1888133  99.1034430 134.6013328  99.8723597  98.4501103
 135.2591651  99.1693223  99.6183886 142.8592711  92.4930515 113.1301648
 143.7602574  92.3536980 112.8385645 142.9340685  92.6584970 114.0699825
 137.1935516  89.8697370 111.9754834 136.3238826  90.1630936 111.7037422
 137.4294997  90.4537815 112.6962098 147.0707145  98.9296529 112.0584362
 146.7791954  99.2926509 112.8947823 146.4579277  98.2163537 111.8797695
 148.2702828  96.4949408 104.5786933 149.1049719  96.9339212 104.7424493
 148.4061956  96.0188061 103.7595178 145.3194334  94.0529143 110.5264420
 145.7948455  94.2456789 109.7183272 144.3959899  94.1088329 110.2807804
 132.2077840  95.2153310 100.1095499 131.9623882  94.3115640 100.3075709
 132.3773755  95.2170461  99.1674977 139.8974550  86.0876987 109.4920254
 140.4156494  86.8238014 109.1666743 139.5429683  86.3940980 110.3267013
 131.4773488  90.9481668  97.6081660 130.7842733  91.0226023  96.9521696
 131.2325240  90.1842012  98.1303177 140.1487144  82.5077269 105.0121151
 140.4288898  81.8400458 105.6381577 140.9337751  82.7006365 104.4995815
 137.9520613 101.6836263  96.5746177 137.3794580 102.3026450  96.1216649
 138.5253406 102.2335625  97.1086099 144.0196003  90.9294903 108.7592726
 144.9713426  91.0293001 108.7804950 143.8499453  90.1373172 109.2690810
 142.0410382  88.0150486 108.9452127 141.4460314  88.2955499 108.2498616
 141.7560079  88.5044387 109.7168868 141.1717873 101.9673413  97.7054759
 142.1048546 101.9018975  97.9087635 141.0841085 102.8029680  97.2469292
 143.8005889 101.2839284  94.6658707 143.7219521 100.9499147  95.5594465
 144.6215556 101.7761052  94.6650179 146.4984080  94.1501023 107.8735026
 146.4660401  93.2117024 108.0594709 147.1084704  94.2285060 107.1400851
 138.3367411  93.0197076  93.9162230 139.2826516  92.8903284  93.9850648
 137.9581656  92.2811738  94.3931658 146.6478569  90.9412066 107.9193309
 146.1317618  90.1570523 107.7323238 147.5318517  90.6130783 108.0839828
 144.3089296  84.6853082 103.8789122 144.1114117  84.3768170 104.7632453
 144.9189001  85.4114721 104.0087051 152.3160630  95.2117030 107.0141062
 153.0464019  94.9502318 107.5748766 151.7067576  94.4745752 107.0543130
 150.3975927  93.3524892 107.6115514 149.6709091  93.2180857 107.0032005
 149.9823214  93.6601721 108.4172232 138.2206104  97.0714822 115.3762887
 139.1409113  97.2493421 115.5702933 138.1855687  96.1270867 115.2242586
 136.5210328  90.9447052  93.8517115 135.6141784  90.6480165  93.9279829
 136.7986309  90.6476870  92.9851401 127.4388269  92.2653416 104.3016161
 127.1191053  91.4118724 104.0090535 126.8921697  92.4801994 105.0574129
 131.2168176  94.9815857 108.0185668 131.4354186  95.9132964 108.0373702
 131.6293950  94.6223831 108.8040472 138.1372394  85.4883942 100.0061356
 137.3273122  85.1431027 100.3816602 138.8256811  85.1791486 100.5948968
 140.0662942  84.5661989 101.6285653 140.6193981  84.9857442 102.2875676
 140.3033029  83.6397737 101.6708609 136.0896042  90.5549062 117.4088417
 135.9892769  91.5043419 117.3400508 135.8717584  90.2267301 116.5364487
 135.2909113  87.8033987  93.9929094 136.1528277  88.1288886  94.2524911
 135.4759457  87.0165483  93.4802160 127.3076529  95.8856327 106.2709283
 126.6140000  95.4710280 105.7579237 128.0549520  95.9276864 105.6742702
 143.4441750  86.6762514 101.1364317 142.8640419  87.3347318 100.7542370
 143.1777682  85.8539859 100.7251735 141.8945316  86.0767572 103.3385637
 142.3945094  86.1884106 102.5299956 142.5380924  85.7728625 103.9786446
 135.9527312  93.9846201 116.2253478 135.4694393  94.7846561 116.4317367
 136.0388251  93.9954146 115.2720922 129.2213271  95.8174581 104.1475298
 129.1983959  95.9162268 103.1957181 129.5313908  96.6639732 104.4692464
 131.8800649  97.8750736 108.2621912 132.8343903  97.8434678 108.1951844
 131.6813173  97.4141360 109.0772138 132.4700031  96.4451852 110.8292710
 133.2892920  96.9395931 110.8527547 132.7436839  95.5283820 110.8010277
 142.2266628  88.8362604 100.1920665 141.3392483  89.1212255  99.9740860
 142.6420617  88.6756368  99.3447942 145.5781164  88.8609125 103.9075005
 146.3541554  89.3505578 104.1799621 144.8529298  89.2867180 104.3646874
 148.0153722  89.5736745 104.9648945 148.6098213  89.3332480 104.2542253
 148.0880306  88.8543875 105.5922482 130.2350878 103.4170355 105.2792110
 130.1005346 102.6570756 104.7130108 129.8182940 104.1411255 104.8120899
 141.3709841  98.6007279  94.2868685 142.0745691  98.8057282  94.9026341
 140.6472490  99.1684041  94.5517769 142.2007651  94.3517140 100.4070956
 142.1442853  94.8085692  99.5678588 142.7535994  93.5907825 100.2293798
 146.0112457  90.1406872 101.2321075 145.7549391  89.7403508 102.0629283
 145.3865325  90.8550666 101.1071214 150.3224795  92.8802945 103.7392366
 149.7624353  92.9496135 104.5123929 149.7168298  92.7043930 103.0191863
 133.3920004 104.3139672 105.4910553 133.2752388 105.2585105 105.3889243
 132.5712450 104.0113234 105.8796352 143.2796538  99.0389808  96.3367145
 144.1142142  98.6071007  96.1544620 143.1180881  98.8671822  97.2644040
 142.9342431  95.5421922  97.7023485 142.8791234  95.3766193  96.7611929
 142.3088486  96.2497954  97.8585674 127.7234946  90.7789986 111.5284907
 128.3693809  90.2688940 112.0172132 127.5152097  91.5158668 112.1028332
 140.2488338  97.8470833 117.0277048 141.1179497  98.0211486 116.6663682
 139.7695089  98.6665250 116.9052777 136.2438556  85.0430031  97.2808803
 136.2317226  85.9871870  97.4377074 137.1361978  84.8600176  96.9868264
 134.4174518 104.9667934 108.7066481 135.3201765 104.9991545 109.0232976
 134.1911888 104.0368385 108.7212817 136.1728120 103.7198921 105.3676560
 135.2223751 103.7200783 105.2540932 136.4760606 102.9731655 104.8512594
 140.0590676  81.6372807 101.5354740 139.2923071  81.0831294 101.6811422
 140.4701380  81.7094676 102.3968892 132.0632437  87.9257603 115.6259921
 132.9263898  87.5694408 115.8363246 131.4897847  87.5871498 116.3135325
 151.9080813 109.5559459 106.4322322 152.5459223 109.4366207 105.7285662
 151.7901656 110.5040303 106.4910274 148.7170520 109.5086887 106.3683847
 148.3789031 109.3927952 105.4804382 149.5860288 109.1078053 106.3484853
 144.5757335 111.3622364 102.3580738 144.0122201 111.2712301 101.5897026
 144.4609731 110.5422268 102.8383230 149.1990303 110.6621739 112.3270052
 149.1878944 110.2674537 111.4550556 149.3610942 109.9287812 112.9203824
 142.1221767 112.8573555 105.1964958 142.9143059 112.5164380 104.7811258
 142.3618418 112.9668530 106.1167112 150.1556894 115.0293332  97.6695203
 149.5044874 115.6147412  97.2829217 150.9501257 115.5599526  97.7290240
 144.0812521 112.1182469  98.0682337 144.8543397 111.5711456  97.9295213
 144.4337920 112.9826718  98.2796798 145.9197564 113.4458851 111.2749236
 145.6287430 114.3504482 111.1595903 146.5554548 113.4875379 111.9893306
 146.8453771 110.8235699 107.8650596 147.4417343 110.5991722 107.1507559
 146.9028742 110.0820445 108.4676044 146.4178799 108.2775135  95.7000787
 146.6704320 107.7556656  94.9384250 145.4803358 108.1141280  95.8027471
 151.4622082 107.2810913 103.5075530 152.2485171 106.8630336 103.1565947
 151.7260786 108.1857005 103.6757179 151.6332159 112.7183763  98.2064187
 150.9977992 112.7918390  98.9185092 151.3029566 113.3077362  97.5283266
 146.1375088 110.1803241  97.9025162 146.0211346 109.5048144  98.5706246
 146.2477348 109.6935615  97.0857315 148.4806629 109.6413388 101.6071851
 148.1164836 109.1144009 102.3184773 149.3373745 109.2511857 101.4338337
 154.3855929 100.9307720 108.8703117 154.0539254 101.8003131 108.6464332
 153.7901543 100.6144004 109.5497148 148.1212116 104.6703288  96.6033200
 148.2886518 105.5383524  96.9703671 147.9309285 104.8330569  95.6794489
 150.8787449 113.1320266 108.2699030 150.5788172 114.0345305 108.1614837
 150.5338509 112.8652450 109.1220183 144.3299930 109.5834063 104.3035734
 143.4050427 109.4510277 104.5113426 144.5784344 110.3628283 104.8005677
 154.2784593 105.6502807 105.9496467 153.3701470 105.5818215 105.6555228
 154.2272189 106.1274752 106.7778293 148.1001337 107.1260945  97.5879867
 147.9800962 107.5717996  98.4265347 147.4053925 107.4746263  97.0293405
 141.6908742 109.2267337 105.1379524 141.8201123 109.4801816 106.0518935
 141.0106193 109.8195045 104.8184179 145.8608229 119.8964587 101.2369998
 145.7832258 120.8472412 101.3158478 145.2569872 119.5510459 101.8944924
 148.3525459 107.0692452 113.8931365 147.5758793 107.6286372 113.8834229
 148.9916022 107.5549235 114.4146235 156.1446239 103.8519245 107.7274341
 155.5020619 104.1451778 107.0814136 155.6401168 103.7372165 108.5327538
 153.7986403 107.5982418  98.4160201 154.7104259 107.8309805  98.2407898
 153.2896050 108.1819462  97.8535279 146.6071831 109.8777906 113.4549332
 147.3486515 110.4162950 113.1784155 145.9008816 110.5044194 113.6120883
 152.0827171 112.0207046 112.0521493 152.4910527 111.5789457 111.3076126
 151.3604432 111.4459674 112.3055686 148.4358241 106.9579653 109.4255050
 149.2819436 107.3819066 109.5689699 148.3756878 106.3013277 110.1193613
 152.4055985 112.5808237 105.8073782 151.7764848 112.7453951 105.1049850
 152.0181647 112.9949846 106.5784746 156.2845217 113.5162675 103.1618146
 155.5996255 113.8961576 102.6115179 156.3689066 114.1258001 103.8950094
 151.5857686 104.6184021 111.0836224 151.3418618 105.3726082 110.5470499
 151.8617616 104.9969369 111.9183471 153.5396149 111.1622634 109.7613489
 153.7513044 111.8054393 109.0847870 153.4925897 110.3284950 109.2935419
 151.1422378 103.7740454 106.6650061 150.2806857 104.0721708 106.9566799
 151.1684812 103.9910853 105.7331094 147.9583947 112.3182645 103.0723867
 148.4222293 112.5970348 102.2828490 147.6940745 111.4166089 102.8896958
 144.8508028 111.8654126 106.0103630 145.4209385 112.2941395 105.3721115
 145.4416140 111.5836711 106.7087816 146.8952833 108.4405797  99.8813432
 147.5976876 108.8926841 100.3487359 146.5633462 107.7989616 100.5093325
 145.3433195 107.0317554 114.2564642 144.7131855 107.7133835 114.4900038
 145.2369283 106.9200635 113.3117780 140.6378167 106.6989350 105.1830566
 139.8477221 106.9546878 104.7070676 141.1289414 107.5137688 105.2882606
 154.6541977 114.0394589 107.9335847 155.4759420 113.6374776 107.6518528
 154.6504379 113.9362823 108.8851962 142.5892912 107.0633929 102.1414043
 141.7924076 107.1752623 102.6597538 142.3618505 107.4020581 101.2754933
 148.4198580 113.5878632 110.0896557 148.4843013 114.0499040 110.9254729
 147.7109504 112.9575997 110.2178867 138.9215870 106.9519840 107.6145557
 139.1723908 107.8366850 107.8803133 139.4575418 106.7724442 106.8420648
 148.1346598 115.2546740  99.9575537 147.9992272 116.0998276 100.3860385
 148.6756410 115.4566017  99.1941471 144.6213937 101.3338320 116.6189893
 144.2280883 100.7804518 117.2937537 145.4380078 101.6448898 117.0096410
 141.5875995 112.7722178 100.5303463 142.1000516 113.5665428 100.6809027
 142.2398708 112.0748468 100.4637064 143.3970880 115.8887934 102.6126216
 143.5737508 116.8105899 102.4247200 144.1927713 115.5746353 103.0420596
 147.5381898 102.7496199 114.2110149 148.2791612 103.3503352 114.1314612
 147.7699821 102.0073837 113.6528192 142.6823236 107.9352566 112.4888379
 142.5676751 107.0337823 112.7895478 141.8267754 108.1816263 112.1373195
 149.7615074 115.8770306 114.0875880 149.3178928 115.0906685 113.7696784
 150.4232288 116.0649457 113.4219770 144.5202195 117.4066108 108.6136558
 145.0709620 117.2783171 107.8413552 143.6813671 117.7060997 108.2631451
 151.8596312 116.1573106 112.1157281 151.8414788 116.9781987 111.6237550
 152.7816232 116.0327181 112.3407422 148.3169366 113.6717236 112.9580789
 148.8497703 112.9105524 112.7280097 147.7883447 113.3790888 113.7004944
 151.4839061  98.7777302 108.4874431 151.1403331  99.6678943 108.4113542
 151.8518024  98.5878959 107.6244016 139.5524912 111.1010832 101.3063033
 140.3900134 111.5107840 101.0896741 139.7303180 110.1610274 101.2763227
 151.4489344 108.7685913  96.9946866 150.9335967 109.5390517  97.2335253
 151.1766652 108.0951049  97.6179928 149.0336455 103.6135614 102.0532104
 148.1778051 103.2242464 101.8737743 149.4463407 103.6927574 101.1931890
 150.5635602 101.1481957 106.4523664 150.0600397 101.1112092 105.6391469
 150.8566209 102.0574700 106.5120321 146.8078488 101.2320687 105.4589846
 147.6731484 101.0363495 105.0995735 146.8755996 101.0031038 106.3859203
 151.2375647 106.6413005  98.8206647 150.9325783 106.9559154  99.6716790
 152.1906089 106.7194425  98.8633980 149.6822079 112.8003228 100.4699601
 149.1543441 112.0655988 100.1572839 149.1809582 113.5777905 100.2239570
 154.6614925 110.9952249 105.5866648 154.0038599 111.6851510 105.6746776
 155.4655324 111.3848681 105.9300634 144.4140807 103.4622894 102.8306213
 144.9884559 103.2398076 102.0979406 145.0011789 103.5311589 103.5834814
 153.4720384 109.3496621 103.6370589 153.9852266 109.9826613 104.1392299
 154.1221608 108.7497817 103.2713949 144.7410394 105.4927355  96.8502098
 143.9047706 105.8302042  97.1711373 144.6015163 105.3576335  95.9129235
 146.7163474 100.3364143 101.5581282 146.0627887 100.0213161 100.9337897
 146.6743948  99.7139884 102.2841105 147.8274679 110.6183438  93.4734574
 146.9201741 110.3872692  93.6725723 148.3245711 109.8221058  93.6608556
 150.7342758 119.3280946  96.3931260 150.0604457 119.6312642  97.0016218
 151.1208580 120.1310026  96.0436717 149.9501215 106.8246077 105.8828930
 149.0323776 107.0461024 105.7250618 150.3661358 106.8992387 105.0240637
 150.7336262 108.2237493 101.0131610 151.4808081 108.7358890 100.7038732
 151.0027852 107.9021545 101.8736004 149.0062913 110.7196033  97.9958564
 148.0974132 110.4355066  98.0931034 149.0357996 111.1395112  97.1361871
 154.2382180 114.3302623 101.7649732 153.7844507 113.4893533 101.8214922
 153.6076147 114.9664021 102.1024512 153.1815100 105.2594609 102.9950399
 152.4437856 104.7471995 103.3260642 153.4341873 104.8194990 102.1833676
 152.6815119 116.1679119 102.6999550 152.9738094 116.7284177 101.9811916
 153.1913740 116.4607680 103.4552709 153.2826727  98.0370861 103.5892169
 153.5885604  97.1768224 103.3018084 154.0079332  98.6288481 103.3891163
 139.5751083 108.4401547 101.9773767 139.3775483 107.8470908 101.2524833
 139.0197747 108.1353758 102.6949705 147.5547807 108.3324654 104.0968360
 147.6096416 107.3798490 104.0210836 146.7439009 108.4884093 104.5809658
 148.7039000 112.2604777  95.3346643 148.2658430 111.5440636  94.8752280
 149.4449441 112.4880892  94.7731734 145.4940167 106.9501714 101.8558739
 144.6808032 107.2495884 102.2623931 145.9899161 106.5557402 102.5733221
 147.6448744 116.9459471 103.7893003 147.6024923 117.1720317 102.8601535
 148.5611443 116.7122845 103.9378804 151.0914378 107.4143538 110.6873632
 151.4463766 107.6415011 111.5468098 151.7386510 107.7461915 110.0650888
 144.9854241 104.5220069 107.4719974 145.6253621 104.3808828 106.7742937
 144.1531772 104.2354583 107.0958576 145.7614545 113.8222500 103.5854966
 146.5555144 113.3272820 103.3837541 145.0506238 113.2940363 103.2222672
 150.5809390 116.2040595 107.9367334 150.6346412 116.7731531 108.7045050
 149.7124171 116.3742480 107.5721371 142.0697309 107.9665581  99.6614719
 141.1394897 107.9050037  99.8784681 142.1654781 107.4441534  98.8651360
 141.9882858 104.4920394 102.2492960 142.2489675 105.4065727 102.1402121
 142.8100030 104.0244837 102.3989573 143.4607783 105.9058151 109.4191785
 144.1330837 105.6975513 108.7704434 142.6337570 105.7080237 108.9797017
 149.3633355 102.5320092 111.4357446 148.7161270 103.2310042 111.3421922
 150.1334371 102.9656236 111.8033694 152.7712153 112.7968944 114.5107999
 152.6197659 112.5679496 113.5938083 152.7616833 113.7539546 114.5239344
 149.5397489 110.3700857 109.4954265 150.4689549 110.5212017 109.3223233
 149.1188519 110.4584878 108.6402912 148.3385821 114.3951522 107.2652803
 148.1996907 114.0270306 108.1378741 147.5500417 114.9099161 107.0936761
 148.9333973 119.4960618  98.6078340 149.1085729 119.0248661  99.4223962
 148.2466761 120.1226384  98.8359600 149.8891036 113.7733124 104.6541641
 149.5540869 113.7333894 105.5499291 149.3894982 113.1077840 104.1812051
 143.8635280 109.1800754 110.1794222 143.7255078 108.4480993 110.7805761
 144.7740204 109.0909654 109.8978410 152.8250228 111.1189159  94.9278701
 152.2079399 110.3935987  94.8311753 152.3566717 111.8798519  94.5845775
 146.4917581 108.8920714 109.6677902 147.2017200 108.2513906 109.6264520
 146.4486889 109.1433608 110.5904082 154.4804360 115.8288067 112.5884481
 154.4216906 115.1447287 111.9215064 154.8823878 116.5707057 112.1365107
 145.2046515 105.8785932 111.4873541 144.6683872 105.4276670 112.1395137
 144.6163223 106.0131840 110.7444005 143.4995059 122.6449981 105.3818200
 143.7391657 123.2768505 106.0597218 142.6564255 122.2938021 105.6683559
 144.6148774 105.3374583  94.0500005 143.7378240 105.2163384  93.6862251
 145.0906527 104.5460661  93.7978893 154.4821767 113.7927651 110.8198461
 153.5948546 113.4553573 110.9424859 155.0520318 113.0610682 111.0567226
 136.1350914 110.1251743 104.1441512 136.8221954 109.8113473 103.5562527
 135.9799043 111.0293107 103.8708763 140.9385636 105.0141939 108.5726536
 140.8543825 104.4067609 107.8376946 140.1168343 105.5050958 108.5736032
 148.0122920 118.4529103 107.7859704 147.9393092 119.2584075 108.2979008
 147.5700313 118.6521069 106.9607725 147.8012700 117.6900873 101.2962525
 147.0180222 118.2322553 101.3900750 148.5005445 118.2074853 101.6956766
 151.1109350 103.4995503 103.9396731 151.6078050 102.7465465 103.6197801
 150.3396332 103.5359819 103.3739940 150.4721604 118.3515937 109.9417862
 151.1849576 118.9863402 109.8693764 149.9811633 118.4479803 109.1257864
 152.1939131 112.2567190 101.5135154 151.2595410 112.3768652 101.3439858
 152.3715799 111.3539657 101.2495164 147.6944319 105.6412886 103.6668415
 147.3242106 105.0883926 104.3549321 148.1903411 105.0371019 103.1143415
 155.5811682 108.0984509 102.0485188 156.0472134 108.9312501 101.9745491
 156.0319183 107.6329491 102.7530447 145.5233517 116.1010381 110.7623433
 146.2242977 116.7346864 110.9152827 145.0528632 116.4425112 110.0019073
 153.6487913 114.4428331  99.0471340 153.9247757 114.3284925  99.9565214
 152.7792412 114.0445815  99.0083513 153.5528345 100.4665096 106.0876090
 152.6391425 100.6969323 106.2558296 153.9821446 100.5503540 106.9390122
 153.3234803 108.6554988 108.5875984 152.6706254 108.9030896 107.9328436
 153.7015183 107.8419126 108.2538461 150.2841977 118.6914681 102.6904154
 150.4664372 117.8736337 103.1531906 151.1074963 118.9082374 102.2529044
 150.6184143 117.6182867  99.9519202 151.1471909 117.1075321  99.3389364
 150.8812362 117.3025397 100.8164735 149.3722376 109.3974799 115.0742021
 148.6963013 109.2968929 115.7444396 150.1950010 109.2414013 115.5378018
 141.1201235 115.6346736 107.6954536 141.7054672 114.8890424 107.8282440
 140.9226074 115.9450693 108.5791200 143.9739891 118.6697983 102.7116978
 143.3050266 119.1544111 102.2281018 143.8352760 118.9167204 103.6260357
 135.7118890 108.2052336 106.4158979 135.7502990 107.6715927 107.2096097
 135.2059183 107.6787542 105.7969956 148.1145159 120.7041727 109.3099637
 148.6663467 120.8673348 110.0748722 148.4551353 121.2946165 108.6379662
 143.0909653 103.0516877 109.9121521 143.1550979 103.9131707 109.4998919
 143.0276773 102.4390878 109.1793880 142.5661925 105.1240009 113.5594556
 143.1933964 104.7417086 114.1732080 141.7089844 104.9054211 113.9250248
 152.9656034 115.5302984 115.1648291 153.5095938 116.1432942 114.6703246
 152.3842878 116.0882563 115.6815304 139.3427468 106.9316438  99.4912910
 139.6380909 106.0227117  99.4379964 138.4415504 106.9104178  99.1693913
 151.2513547 118.6523702 106.2963319 151.1264686 117.8513442 105.7874264
 151.9092638 119.1469896 105.8077289 142.8721715 105.0072435 105.4740459
 142.1508301 105.6208402 105.3347932 143.6614971 105.5430200 105.3957105
 153.3148455 116.4532722 107.9242869 152.3678790 116.3338074 107.8521196
 153.6631228 115.5655220 108.0069130 145.6748028 102.3426861 111.7481111
 146.1982430 102.5889158 112.5107420 145.4560362 103.1746896 111.3284248
 141.0715309 104.6130536  99.6152236 140.7428016 103.7327915  99.4327342
 141.4254680 104.5578205 100.5028625 150.3194888 116.2485439 104.1247221
 150.1719851 115.3202146 104.3054791 151.1448382 116.2705529 103.6404296
 144.1857133 104.9003506  99.9827713 144.5253205 105.4289427  99.2606322
 144.6329253 105.2383912 100.7586280 153.9229010 117.0713997 105.2112094
 154.8475558 116.8656859 105.0736545 153.7544313 116.8230398 106.1201435
 146.8800573 103.2840556 109.4330781 146.5397394 102.4848369 109.8351461
 146.1739580 103.5842267 108.8607615 147.5317045 100.3689869 107.8858104
 148.3543115  99.8950347 107.7636995 147.7755109 101.1480353 108.3856791
 146.1725280 103.3978127  98.1821006 146.8933642 103.7759380  97.6784723
 145.5490584 104.1167004  98.2855984 150.3156403 104.1023276  99.1179338
 150.5320017 104.9847914  98.8168167 149.8350470 103.7109490  98.3884980
 145.0555624 107.0608989 105.6950083 144.9100205 107.3749292 106.5874364
 144.5780828 107.6793890 105.1420982 146.9152007 104.0511537 105.7430973
 146.9013576 103.1552631 105.4063270 147.6324435 104.0582201 106.3769259
 148.7678138 104.4848878 107.7884100 148.5095915 105.4065948 107.7868430
 148.2363178 104.0879312 108.4784564 153.7124326 117.5899665 100.5674185
 153.8861204 117.0246087  99.8148038 154.2053218 118.3900560 100.3853675
 139.5301286 109.6014334 108.6337744 138.9854754 110.3774142 108.7658018
 140.4080636 109.9485138 108.4756866 146.3188903 102.9325918 101.0118543
 146.4404814 102.0042564 101.2109430 146.0290945 102.9464604 100.0996858
 149.1880093 100.6180828 104.1485263 149.2101790 100.6820161 103.1937242
 149.6048152  99.7785337 104.3425769 154.6999499 116.9066429  97.6671084
 155.3950403 117.5273122  97.8858398 155.0422649 116.0561780  97.9423462
 140.3167308 108.7284230 111.5267901 139.5749044 108.8766865 112.1132531
 139.9960052 108.9892496 110.6634650 148.2610971 118.2700208 111.3248291
 148.5698097 118.0249355 112.1970991 149.0586453 118.4746847 110.8367161
 148.2831583 120.4238118 103.5553668 147.8436573 119.9314497 104.2486524
 149.0339700 119.8811086 103.3145743 140.7623922 116.6149659 103.5578296
 141.5881942 116.3153431 103.1776939 140.4117974 115.8457281 104.0068084
 145.7305455 115.9676127 105.6275969 145.1085464 115.3046832 105.3278197
 146.4010322 115.9937259 104.9449617 138.9632527 114.5335985 104.5167229
 138.1264435 114.1058160 104.3351231 138.9356172 114.7268429 105.4538020
 145.8029982 104.4457915 115.2208475 145.8518138 105.3220038 114.8386245
 146.3452497 103.9035308 114.6480118 156.2884828 114.9899038 114.5009612
 155.4980372 114.9723177 113.9614112 156.0518183 115.5287332 115.2558649
 156.4082703 111.8391505 111.8142341 156.4580708 111.6741512 112.7557864
 156.2996626 110.9718764 111.4240222 145.2918962 114.5180050  99.1034430
 145.4407082 115.2015515  98.4501103 146.0985405 114.4985140  99.6183886
 153.6986465 107.8222433 113.1301648 154.5996328 107.6828898 112.8385645
 153.7734440 107.9876888 114.0699825 148.0329271 105.1989287 111.9754834
 147.1632580 105.4922854 111.7037422 148.2688751 105.7829732 112.6962098
 156.1588088 109.3821061 110.5264420 156.6342210 109.5748707 109.7183272
 155.2353653 109.4380247 110.2807804 143.0471595 110.5445228 100.1095499
 142.8017637 109.6407558 100.3075709 143.2167509 110.5462378  99.1674977
 150.7368305 101.4168904 109.4920254 151.2550248 102.1529931 109.1666743
 150.3823437 101.7232898 110.3267013 142.3167242 106.2773586  97.6081660
 141.6236487 106.3517941  96.9521696 142.0718994 105.5133929  98.1303177
 150.9880899  97.8369187 105.0121151 151.2682653  97.1692376 105.6381577
 151.7731506  98.0298283 104.4995815 148.7914367 117.0128181  96.5746177
 148.2188334 117.6318368  96.1216649 149.3647161 117.5627543  97.1086099
 154.8589757 106.2586821 108.7592726 155.8107180 106.3584919 108.7804950
 154.6893208 105.4665089 109.2690810 152.8804137 103.3442404 108.9452127
 152.2854069 103.6247417 108.2498616 152.5953833 103.8336305 109.7168868
 152.0111627 117.2965331  97.7054759 152.9442300 117.2310893  97.9087635
 151.9234840 118.1321598  97.2469292 154.6399644 116.6131201  94.6658707
 154.5613275 116.2791065  95.5594465 155.4609311 117.1052969  94.6650179
 149.1761166 108.3488994  93.9162230 150.1220270 108.2195202  93.9850648
 148.7975411 107.6103655  94.3931658 155.1483050 100.0145000 103.8789122
 154.9507871  99.7060088 104.7632453 155.7582756 100.7406639 104.0087051
 149.0599858 112.4006740 115.3762887 149.9802868 112.5785339 115.5702933
 149.0249441 111.4562785 115.2242586 147.3604083 106.2738970  93.8517115
 146.4535538 105.9772083  93.9279829 147.6380064 105.9768788  92.9851401
 138.2782023 107.5945333 104.3016161 137.9584808 106.7410642 104.0090535
 137.7315451 107.8093912 105.0574129 142.0561931 110.3107774 108.0185668
 142.2747941 111.2424882 108.0373702 142.4687705 109.9515749 108.8040472
 148.9766149 100.8175860 100.0061356 148.1666877 100.4722945 100.3816602
 149.6650566 100.5083403 100.5948968 150.9056697  99.8953906 101.6285653
 151.4587736 100.3149360 102.2875676 151.1426783  98.9689655 101.6708609
 146.9289796 105.8840980 117.4088417 146.8286523 106.8335337 117.3400508
 146.7111338 105.5559219 116.5364487 146.1302868 103.1325905  93.9929094
 146.9922032 103.4580803  94.2524911 146.3153212 102.3457401  93.4802160
 138.1470283 111.2148245 106.2709283 137.4533755 110.8002198 105.7579237
 138.8943274 111.2568781 105.6742702 154.2835504 102.0054432 101.1364317
 153.7034173 102.6639236 100.7542370 154.0171437 101.1831776 100.7251735
 152.7339070 101.4059489 103.3385637 153.2338849 101.5176024 102.5299956
 153.3774678 101.1020542 103.9786446 146.7921066 109.3138119 116.2253478
 146.3088148 110.1138479 116.4317367 146.8782005 109.3246064 115.2720922
 140.0607026 111.1466499 104.1475298 140.0377714 111.2454186 103.1957181
 140.3707662 111.9931649 104.4692464 142.7194404 113.2042654 108.2621912
 143.6737657 113.1726596 108.1951844 142.5206927 112.7433277 109.0772138
 143.3093786 111.7743770 110.8292710 144.1286675 112.2687848 110.8527547
 143.5830594 110.8575738 110.8010277 153.0660382 104.1654522 100.1920665
 152.1786237 104.4504173  99.9740860 153.4814371 104.0048285  99.3447942
 141.0744632 118.7462273 105.2792110 140.9399100 117.9862674 104.7130108
 140.6576695 119.4703173 104.8120899 152.2103595 113.9299197  94.2868685
 152.9139446 114.1349199  94.9026341 151.4866244 114.4975959  94.5517769
 153.0401406 109.6809058 100.4070956 152.9836607 110.1377609  99.5678588
 153.5929748 108.9199743 100.2293798 144.2313758 119.6431590 105.4910553
 144.1146143 120.5877023 105.3889243 143.4106205 119.3405152 105.8796352
 154.1190293 114.3681726  96.3367145 154.9535897 113.9362924  96.1544620
 153.9574636 114.1963740  97.2644040 153.7736185 110.8713839  97.7023485
 153.7184989 110.7058111  96.7611929 153.1482240 111.5789872  97.8585674
 138.5628700 106.1081904 111.5284907 139.2087564 105.5980858 112.0172132
 138.3545851 106.8450585 112.1028332 151.0882092 113.1762751 117.0277048
 151.9573252 113.3503403 116.6663682 150.6088844 113.9957168 116.9052777
 147.0832311 100.3721948  97.2808803 147.0710980 101.3163788  97.4377074
 147.9755732 100.1892094  96.9868264 145.2568272 120.2959852 108.7066481
 146.1595519 120.3283462 109.0232976 145.0305643 119.3660303 108.7212817
 147.0121874 119.0490839 105.3676560 146.0617506 119.0492700 105.2540932
 147.3154361 118.3023573 104.8512594 150.8984430  96.9664725 101.5354740
 150.1316826  96.4123212 101.6811422 151.3095135  97.0386594 102.3968892
 142.9026191 103.2549521 115.6259921 143.7657653 102.8986325 115.8363246
 142.3291602 102.9163415 116.3135325 155.4151090 126.6914282 102.3580738
 154.8515955 126.6004218 101.5897026 155.3003485 125.8714186 102.8383230
 152.9615522 128.1865473 105.1964958 153.7536814 127.8456298 104.7811258
 153.2012172 128.2960448 106.1167112 154.9206276 127.4474386  98.0682337
 155.6937152 126.9003373  97.9295213 155.2731675 128.3118636  98.2796798
 155.1693685 124.9125981 104.3035734 154.2444181 124.7802195 104.5113426
 155.4178098 125.6920200 104.8005677 152.5302496 124.5559255 105.1379524
 152.6594877 124.8093733 106.0518935 151.8499947 125.1486963 104.8184179
 155.6901783 127.1946044 106.0103630 156.2603140 127.6233312 105.3721115
 156.2809894 126.9128629 106.7087816 156.1826949 122.3609471 114.2564642
 155.5525610 123.0425752 114.4900038 156.0763037 122.2492553 113.3117780
 151.4771922 122.0281267 105.1830566 150.6870976 122.2838796 104.7070676
 151.9683169 122.8429605 105.2882606 153.4286667 122.3925847 102.1414043
 152.6317830 122.5044541 102.6597538 153.2012259 122.7312499 101.2754933
 149.7609625 122.2811758 107.6145557 150.0117663 123.1658768 107.8803133
 150.2969173 122.1016359 106.8420648 155.4607692 116.6630237 116.6189893
 155.0674637 116.1096436 117.2937537 156.2773832 116.9740816 117.0096410
 152.4269750 128.1014095 100.5303463 152.9394270 128.8957346 100.6809027
 153.0792462 127.4040386 100.4637064 154.2364634 131.2179852 102.6126216
 154.4131263 132.1397816 102.4247200 155.0321468 130.9038271 103.0420596
 153.5216991 123.2644484 112.4888379 153.4070506 122.3629741 112.7895478
 152.6661509 123.5108180 112.1373195 155.3595950 132.7358026 108.6136558
 155.9103375 132.6075089 107.8413552 154.5207426 133.0352915 108.2631451
 150.3918666 126.4302750 101.3063033 151.2293888 126.8399758 101.0896741
 150.5696934 125.4902192 101.2763227 155.2534561 118.7914812 102.8306213
 155.8278313 118.5689994 102.0979406 155.8405544 118.8603507 103.5834814
 155.5804148 120.8219273  96.8502098 154.7441460 121.1593960  97.1711373
 155.4408918 120.6868253  95.9129235 150.4144838 123.7693465 101.9773767
 150.2169237 123.1762826 101.2524833 149.8591502 123.4645675 102.6949705
 155.8247996 119.8511987 107.4719974 156.4647375 119.7100746 106.7742937
 154.9925526 119.5646500 107.0958576 152.9091063 123.2957499  99.6614719
 151.9788651 123.2341954  99.8784681 153.0048535 122.7733452  98.8651360
 152.8276612 119.8212312 102.2492960 153.0883430 120.7357645 102.1402121
 153.6493785 119.3536754 102.3989573 154.3001538 121.2350069 109.4191785
 154.9724591 121.0267431 108.7704434 153.4731324 121.0372155 108.9797017
 154.7029035 124.5092672 110.1794222 154.5648833 123.7772911 110.7805761
 155.6133958 124.4201572 109.8978410 156.0440269 121.2077849 111.4873541
 155.5077627 120.7568588 112.1395137 155.4556978 121.3423758 110.7444005
 155.4542528 120.6666501  94.0500005 154.5771995 120.5455301  93.6862251
 155.9300282 119.8752579  93.7978893 146.9744669 125.4543660 104.1441512
 147.6615708 125.1405390 103.5562527 146.8192797 126.3585025 103.8708763
 151.7779391 120.3433857 108.5726536 151.6937579 119.7359526 107.8376946
 150.9562097 120.8342875 108.5736032 151.9594990 130.9638653 107.6954536
 152.5448427 130.2182341 107.8282440 151.7619828 131.2742610 108.5791200
 154.8133645 133.9989901 102.7116978 154.1444020 134.4836028 102.2281018
 154.6746515 134.2459121 103.6260357 146.5512645 123.5344254 106.4158979
 146.5896744 123.0007844 107.2096097 146.0452938 123.0079459 105.7969956
 153.9303407 118.3808794 109.9121521 153.9944734 119.2423625 109.4998919
 153.8670527 117.7682796 109.1793880 153.4055680 120.4531927 113.5594556
 154.0327718 120.0709004 114.1732080 152.5483598 120.2346129 113.9250248
 150.1821222 122.2608356  99.4912910 150.4774663 121.3519034  99.4379964
 149.2809258 122.2396095  99.1693913 153.7115469 120.3364352 105.4740459
 152.9902055 120.9500320 105.3347932 154.5008725 120.8722117 105.3957105
 151.9109064 119.9422453  99.6152236 151.5821770 119.0619832  99.4327342
 152.2648435 119.8870122 100.5028625 155.0250887 120.2295423  99.9827713
 155.3646960 120.7581345  99.2606322 155.4723008 120.5675829 100.7586280
 155.8949378 122.3900907 105.6950083 155.7493959 122.7041210 106.5874364
 155.4174582 123.0085807 105.1420982 150.3695041 124.9306251 108.6337744
 149.8248509 125.7066059 108.7658018 151.2474390 125.2777056 108.4756866
 151.1561062 124.0576148 111.5267901 150.4142799 124.2058783 112.1132531
 150.8353807 124.3184413 110.6634650 151.6017676 131.9441576 103.5578296
 152.4275696 131.6445348 103.1776939 151.2511728 131.1749199 104.0068084
 149.8026281 129.8627903 104.5167229 148.9658189 129.4350077 104.3351231
 149.7749927 130.0560346 105.4538020 153.8865349 125.8737146 100.1095499
 153.6411391 124.9699476 100.3075709 154.0561264 125.8754296  99.1674977
 153.1560997 121.6065503  97.6081660 152.4630242 121.6809858  96.9521696
 152.9112749 120.8425847  98.1303177 149.1175778 122.9237251 104.3016161
 148.7978562 122.0702559 104.0090535 148.5709206 123.1385829 105.0574129
 152.8955685 125.6399692 108.0185668 153.1141695 126.5716800 108.0373702
 153.3081459 125.2807666 108.8040472 148.9864038 126.5440163 106.2709283
 148.2927509 126.1294115 105.7579237 149.7337029 126.5860699 105.6742702
 150.9000780 126.4758416 104.1475298 150.8771468 126.5746104 103.1957181
 151.2101417 127.3223567 104.4692464 153.5588158 128.5334571 108.2621912
 154.5131412 128.5018514 108.1951844 153.3600682 128.0725195 109.0772138
 154.1487540 127.1035687 110.8292710 154.9680429 127.5979766 110.8527547
 154.4224348 126.1867656 110.8010277 151.9138387 134.0754191 105.2792110
 151.7792855 133.3154592 104.7130108 151.4970449 134.7995091 104.8120899
 149.4022455 121.4373821 111.5284907 150.0481318 120.9272775 112.0172132
 149.1939606 122.1742503 112.1028332 153.7419946 118.5841438 115.6259921
 154.6051407 118.2278243 115.8363246 153.1685356 118.2455333 116.3135325
  67.6238778  -7.6531320  92.1063506  67.8635377  -7.0212796  92.7842525
  66.7807975  -8.0043280  92.3928866  77.0859242  -2.1115828  91.9210265
  77.8780534  -2.4525003  91.5056564  77.3255892  -2.0020853  92.8412418
  85.1194369   0.0603948  84.3940509  84.4682348   0.6458028  84.0074523
  85.9138731   0.5910143  84.4535547  79.0449996  -2.8506915  84.7927644
  79.8180872  -3.3977928  84.6540520  79.3975395  -1.9862665  85.0042105
  80.8835038  -1.5230533  97.9994543  80.5924904  -0.6184902  97.8841209
  81.5192023  -1.4814005  98.7138613  80.8245703   4.9275203  87.9615304
  80.7469733   5.8783028  88.0403785  80.2207347   4.5821076  88.6190231
  83.3836054  -1.3810751  96.8141864  83.4480487  -0.9190344  97.6500036
  82.6746978  -2.0113386  96.9424174  83.0984072   0.2857356  86.6820844
  82.9629747   1.1308892  87.1105692  83.6393885   0.4876634  85.9186778
  76.5513469  -2.1967206  87.2548769  77.0637990  -1.4023955  87.4054334
  77.2036182  -2.8940915  87.1882371  78.3608354   0.9198551  89.3371522
  78.5374982   1.8416515  89.1492506  79.1565188   0.6056970  89.7665902
  84.7252548   0.9080923 100.8121186  84.2816403   0.1217301 100.4942091
  85.3869762   1.0960073 100.1465077  79.4839670   2.4376724  95.3381865
  80.0347095   2.3093788  94.5658859  78.6451145   2.7371613  94.9876758
  86.8233786   1.1883723  98.8402587  86.8052262   2.0092604  98.3482857
  87.7453707   1.0637798  99.0652729  74.5162386  -3.8678551  88.0308340
  75.3537608  -3.4581543  87.8142047  74.6940654  -4.8079109  88.0008534
  85.6980232   4.3591562  83.1176567  85.0241931   4.6623259  83.7261525
  86.0846054   5.1620643  82.7682024  87.6452594   1.1989736  89.4244857
  87.9375568   1.7594793  88.7057222  88.1551214   1.4918297  90.1798016
  82.6086219   1.9770087  90.5138310  82.5662398   2.2030933  89.5846842
  83.5248918   1.7433462  90.6624111  80.7252020  -1.1466884  90.3100273
  81.5192618  -1.6416564  90.1082848  80.0143712  -1.6749021  89.9467978
  85.5446864   1.2351212  94.6612640  85.5983886   1.8042148  95.4290356
  84.6761645   1.4053097  94.2966677  83.3023296  -0.5737862  93.9898110
  83.1634381  -0.9419077  94.8624048  82.5137892  -0.0590222  93.8182068
  83.8971448   4.5271235  85.3323646  84.0723203   4.0559278  86.1469269
  83.2104236   5.1537001  85.5604907  89.4441834   0.8598684  99.3129788
  89.3854380   0.1757904  98.6460371  89.8461352   1.6017674  98.8610414
  78.4632533   7.6760597  92.1063506  78.7029131   8.3079122  92.7842525
  77.6201729   7.3248637  92.3928866  71.0988388  -4.8437641  90.8686819
  71.7859428  -5.1575911  90.2807834  70.9436517  -3.9396276  90.5954070
  82.9760395   3.4839720  94.5105010  82.9030566   4.2894691  95.0224315
  82.5337788   3.6831686  93.6853032  82.7650174   2.7211490  88.0207832
  81.9817696   3.2633170  88.1146056  83.4642919   3.2385469  88.4202073
  85.4359078   3.3826554  96.6663169  86.1487050   4.0174019  96.5939071
  84.9449107   3.4790420  95.8503171  80.4870992   1.1320997  97.4868740
  81.1880451   1.7657480  97.6398134  80.0166107   1.4735729  96.7264379
  85.2479452   3.7225298  89.4149461  85.4301846   2.9046954  89.8777213
  86.0712438   3.9392990  88.9774351  85.5821617   2.6493483  86.6764509
  86.1109384   2.1385938  86.0634671  85.8449837   2.3336013  87.5410042
  76.0838710   0.6657352  94.4199843  76.6692147  -0.0798960  94.5527747
  75.8863548   0.9761309  95.3036506  78.9377365   3.7008600  89.4362285
  78.2687740   4.1854727  88.9526325  78.7990235   3.9477820  90.3505663
  83.0782634   5.7352343  96.0344943  83.6300942   5.8983965  96.7994029
  83.4188827   6.3256781  95.3624968  87.9293508   0.5613601 101.8893598
  88.4733412   1.1743559 101.3948553  87.3480353   1.1193179 102.4060611
  86.2151021   3.6834319  93.0208625  86.0902160   2.8824059  92.5119571
  86.8730112   4.1780512  92.5322595  88.2785929   1.4843339  94.6488176
  87.3316265   1.3648690  94.5766502  88.6268702   0.5965837  94.7314437
  85.2832363   1.2796055  90.8492528  85.1357325   0.3512762  91.0300098
  86.1085856   1.3016146  90.3649603  88.8866484   2.1024614  91.9357401
  89.8113032   1.8967475  91.7981852  88.7181788   1.8541015  92.8446742
  88.6761801   2.6210281  87.2919492  88.8498678   2.0556704  86.5393344
  89.1690692   3.4211176  87.1098982  89.6636973   1.9377046  84.3916390
  90.3587878   2.5583738  84.6103705  90.0060123   1.0872397  84.6668768
  83.2248445   3.3010825  98.0493598  83.5335571   3.0559972  98.9216297
  84.0223927   3.5057463  97.5612468  83.2469057   5.4548734  90.2798974
  82.8074047   4.9625113  90.9731831  83.9977174   4.9121702  90.0391049
  75.7261396   1.6460275  90.2823602  76.5519416   1.3464047  89.9022246
  75.3755448   0.8767898  90.7313391  80.6942929   0.9986744  92.3521276
  80.0722938   0.3357449  92.0523504  81.3647796   1.0247875  91.6694924
  73.9270001  -0.4353398  91.2412536  73.0901909  -0.8631224  91.0596537
  73.8993646  -0.2420955  92.1783327  80.2556436  -0.4509333  85.8279736
  80.4044556   0.2326131  85.1746409  81.0622880  -0.4704243  86.3429192
  83.7551842   2.0438797  83.2991484  83.1825809   2.6628984  82.8461956
  84.3284635   2.5938159  83.8331406  86.9749101   2.3275947  84.4300066
  87.9079775   2.2621509  84.6332942  86.8872314   3.1632214  83.9714599
  89.6037118   1.6441818  81.3904014  89.5250750   1.3101681  82.2839772
  90.4246785   2.1363586  81.3895486  73.1107758  -3.7541139  92.9954590
  72.4171229  -4.1687186  92.4824544  73.8580749  -3.7120602  92.3988008
  75.0244500  -3.8222885  90.8720604  75.0015188  -3.7235198  89.9202488
  75.3345137  -2.9757734  91.1937771  77.6831878  -1.7646730  94.9867219
  78.6375132  -1.7962787  94.9197150  77.4844402  -2.2256106  95.8017445
  76.0382107   3.7772890  92.0037417  75.9036575   3.0173291  91.4375415
  75.6214169   4.5013790  91.5366206  79.1951233   4.6742207  92.2155859
  79.0783617   5.6187639  92.1134550  78.3743679   4.3715768  92.6041659
  80.2205747   5.3270469  95.4311788  81.1232994   5.3594079  95.7478283
  79.9943117   4.3970920  95.4458124  81.9759349   4.0801455  92.0921866
  81.0254980   4.0803317  91.9786239  82.2791835   3.3334190  91.5757901
  97.7112042   9.9161994  93.1567629  98.3490452   9.7968741  92.4530969
  97.5932885  10.8642837  93.2155581  94.5201749   9.8689422  93.0929154
  94.1820260   9.7530486  92.2049688  95.3891517   9.4680587  93.0730160
  90.3788564  11.7224898  89.0826044  89.8153429  11.6314835  88.3142332
  90.2640959  10.9024803  89.5628537  95.0021532  11.0224273  99.0515359
  94.9910172  10.6277072  98.1795863  95.1642171  10.2890346  99.6449131
  87.9252996  13.2176090  91.9210265  88.7174288  12.8766914  91.5056564
  88.1649646  13.3271065  92.8412418  95.9588123  15.3895866  84.3940509
  95.3076103  15.9749946  84.0074523  96.7532486  15.9202061  84.4535547
  89.8843750  12.4785003  84.7927644  90.6574626  11.9313990  84.6540520
  90.2369149  13.3429252  85.0042105  91.7228793  13.8061385  97.9994543
  91.4318659  14.7107016  97.8841209  92.3585777  13.8477913  98.7138613
  92.6485000  11.1838234  94.5895903  93.2448572  10.9594256  93.8752866
  92.7059971  10.4422979  95.1921351  92.2210028   8.6377669  82.4246094
  92.4735549   8.1159190  81.6629557  91.2834587   8.4743814  82.5272777
  97.2653311   7.6413447  90.2320837  98.0516400   7.2232871  89.8811254
  97.5292015   8.5459540  90.4002485  97.4363388  13.0786298  84.9309494
  96.8009221  13.1520924  85.6430398  97.1060795  13.6679897  84.2528573
 102.6661738   7.5788681  91.1353815 103.3986910   7.0087897  91.3691645
 101.9101094   7.1910281  91.5760321  91.9406317  10.5405775  84.6270469
  91.8242575   9.8650678  85.2951553  92.0508577  10.0538149  83.8102622
  94.2837858  10.0015922  88.3317158  93.9196065   9.4746543  89.0430079
  95.1404974   9.6114391  88.1583643  93.9243345   5.0305822  83.3278506
  94.0917747   5.8986058  83.6948977  93.7340514   5.1933103  82.4039796
  96.6818678  13.4922801  94.9944337  96.3819401  14.3947839  94.8860144
  96.3369737  13.2254984  95.8465490  90.1331159   9.9436598  91.0281041
  89.2081656   9.8112812  91.2358733  90.3815572  10.7230817  91.5250984
 100.0815822   6.0105341  92.6741774  99.1732699   5.9420749  92.3800535
 100.0303417   6.4877286  93.5023600  93.9032565   7.4863479  84.3125173
  93.7832191   7.9320530  85.1510653  93.2085154   7.8348797  83.7538711
  87.4939970   9.5869871  91.8624830  87.6232351   9.8404350  92.7764242
  86.8137422  10.1797579  91.5429485  91.6639458  20.2567121  87.9615304
  91.5863487  21.2074946  88.0403785  91.0601101  19.9112994  88.6190231
  94.1556687   7.4294986 100.6176671  93.3790021   7.9888907 100.6079536
  94.7947250   7.9151769 101.1391541  99.6017632   7.9584952  85.1405507
 100.5135488   8.1912339  84.9653205  99.0927279   8.5421997  84.5780586
  92.4103060  10.2380440 100.1794638  93.1517744  10.7765484  99.9029462
  91.7040045  10.8646729 100.3366190  97.8858399  12.3809580  98.7766800
  98.2941755  11.9391991  98.0321432  97.1635661  11.8062208  99.0300993
  94.2389469   7.3182187  96.1500357  95.0850665   7.7421601  96.2935006
  94.1788107   6.6615811  96.8438920  98.2087214  12.9410771  92.5319089
  97.5796076  13.1056485  91.8295157  97.8212876  13.3552380  93.3030053
 102.0876446  13.8765209  89.8863452 101.4027484  14.2564110  89.3360486
 102.1720295  14.4860535  90.6195400  97.3888915   4.9786555  97.8081530
  97.1449847   5.7328616  97.2715806  97.6648845   5.3571903  98.6428777
  99.3427377  11.5225168  96.4858796  99.5544273  12.1656928  95.8093177
  99.2957126  10.6887484  96.0180726  96.9453606   4.1342988  93.3895368
  96.0838085   4.4324242  93.6812106  96.9716041   4.3513387  92.4576401
  93.7615176  12.6785179  89.7969174  94.2253521  12.9572882  89.0073796
  93.4971974  11.7768624  89.6142264  90.6539257  12.2256661  92.7348937
  91.2240614  12.6543929  92.0966422  91.2447369  11.9439245  93.4333123
  92.6984062   8.8008331  86.6058739  93.4008105   9.2529375  87.0732665
  92.3664690   8.1592150  87.2338632  91.1464423   7.3920088 100.9809948
  90.5163084   8.0736369 101.2145345  91.0400511   7.2803170 100.0363087
  86.4409396   7.0591884  91.9075872  85.6508450   7.3149413  91.4315983
  86.9320643   7.8740222  92.0127913 100.4573205  14.3997123  94.6581153
 101.2790649  13.9977310  94.3763835 100.4535608  14.2965357  95.6097269
  88.3924141   7.4236463  88.8659349  87.5955305   7.5355158  89.3842845
  88.1649733   7.7623115  88.0000240  94.2229809  13.9481166  96.8141864
  94.2874241  14.4101574  97.6500036  93.5140733  13.3178531  96.9424174
  84.7247099   7.3122374  94.3390863  84.9755137   8.1969384  94.6048439
  85.2606647   7.1326976  93.5665955 108.5479198  10.7435872  91.0066125
 107.7942907  10.1743270  90.8510129 108.6826740  10.7098536  91.9536759
  93.9377827  15.6149274  86.6820844  93.8023501  16.4600810  87.1105692
  94.4787639  15.8168552  85.9186778  90.4245166   1.6940854 103.3435199
  90.0312112   1.1407052 104.0182844  91.2411306   2.0051432 103.7341717
  87.3907224  13.1324712  87.2548769  87.9031744  13.9267962  87.4054334
  88.0429937  12.4351002  87.1882371  89.2002109  16.2490468  89.3371522
  89.3768737  17.1708433  89.1492506  89.9958942  15.9348888  89.7665902
  93.3413127   3.1098733 100.9355456  94.0822841   3.7105886 100.8559918
  93.5731050   2.3676371 100.3773498  88.4854465   8.2955100  99.2133686
  88.3707980   7.3940357  99.5140785  87.6298983   8.5418797  98.8618502
  95.5646303  16.2372840 100.8121186  95.1210157  15.4509219 100.4942091
  96.2263516  16.4251991 100.1465077  90.3233424  17.7668642  95.3381865
  90.8740849  17.6385705  94.5658859  89.4844900  18.0663531  94.9876758
  97.6627541  16.5175640  98.8402587  97.6446016  17.3384521  98.3482857
  98.5847461  16.3929716  99.0652729  94.1200595  14.0319770  99.6826096
  94.6528932  13.2708058  99.4525404  93.5914676  13.7393422 100.4250250
  85.3556141  11.4613366  88.0308340  86.1931363  11.8710375  87.8142047
  85.5334408  10.5212808  88.0008534  97.2520573   9.1288447  83.7192173
  96.7367196   9.8993052  83.9580560  96.9797881   8.4553583  84.3425234
  94.8367684   3.9738148  88.7777411  93.9809280   3.5844998  88.5983050
  95.2494636   4.0530109  87.9177197  92.6109716   1.5923221  92.1835153
  93.4762713   1.3966029  91.8241042  92.6787225   1.3633573  93.1104509
 102.2254847  11.8820802  85.6545346 101.4484290  11.5431961  85.2100508
 102.9046328  11.8873425  84.9800311  97.0406876   7.0015539  85.5451954
  96.7357012   7.3161688  86.3962097  97.9937318   7.0796959  85.5879287
  95.4853308  13.1605762  87.1944908  94.9574669  12.4258522  86.8818145
  94.9840811  13.9380439  86.9484876 100.4646154  11.3554783  92.3111954
  99.8069828  12.0454044  92.3992083 101.2686553  11.7451215  92.6545941
  90.2172035   3.8225429  89.5551519  90.7915787   3.6000610  88.8224712
  90.8043018   3.8914123  90.3080121  99.2751613   9.7099156  90.3615896
  99.7883494  10.3429147  90.8637606  99.9252837   9.1100351  89.9959256
  90.5441623   5.8529890  83.5747405  89.7078935   6.1904576  83.8956679
  90.4046392   5.7178869  82.6374542  93.6305908  10.9785973  80.1979881
  92.7232970  10.7475226  80.3971030  94.1276940  10.1823592  80.3853862
  96.5373987  19.6883480  83.1176567  95.8635686  19.9915177  83.7261525
  96.9239809  20.4912560  82.7682024  95.7532444   7.1848611  92.6074236
  94.8355005   7.4063558  92.4495925  96.1692587   7.2594922  91.7485944
  96.5367491   8.5840027  87.7376917  97.2839310   9.0961424  87.4284039
  96.8059081   8.2624080  88.5981310  94.8094141  11.0798568  84.7203871
  93.9005361  10.7957600  84.8176341  94.8389225  11.4997646  83.8607178
 100.0413409  14.6905157  88.4895039  99.5875736  13.8496067  88.5460229
  99.4107376  15.3266555  88.8269819  98.9846328   5.6197143  89.7195706
  98.2469085   5.1074529  90.0505949  99.2373102   5.1797525  88.9078983
  98.4846348  16.5281654  89.4244857  98.7769322  17.0886711  88.7057222
  98.9944969  16.8210215  90.1798016  85.3782312   8.8004082  88.7019073
  85.1806712   8.2073442  87.9770140  84.8228976   8.4956292  89.4195012
  93.3579035   8.6927188  90.8213666  93.4127645   7.7401025  90.7456143
  92.5470238   8.8486627  91.3054965  94.5070229  12.6207311  82.0591950
  94.0689659  11.9043170  81.5997587  95.2480670  12.8483426  81.4977041
  91.2971395   7.3104248  88.5804045  90.4839261   7.6098418  88.9869237
  91.7930390   6.9159937  89.2978527  93.4479973  17.3062005  90.5138310
  93.4056152  17.5322851  89.5846842  94.3642672  17.0725379  90.6624111
  96.8945607   7.7746072  97.4118939  97.2494995   8.0017545  98.2713405
  97.5417738   8.1064449  96.7896194 102.6243344  10.8964508  88.1168268
 102.4861243  11.0866104  87.1889457 102.2679563  11.6583891  88.5736319
  90.7885470   4.8822603  94.1965280  91.4284849   4.7411362  93.4988243
  89.9563001   4.5957117  93.8203882 102.6512724  12.9641035  93.1279540
 103.0849230  12.8716324  93.9762594 103.3644304  12.9398536  92.4899556
  91.5645774  14.1825034  90.3100273  92.3586373  13.6875354  90.1082848
  90.8537466  13.6542897  89.9467978  96.3840619  16.5643129  94.6612640
  96.4377641  17.1334066  95.4290356  95.5155400  16.7345014  94.2966677
  87.8728538   8.3268116  86.3860025  86.9426126   8.2652571  86.6029987
  87.9686010   7.8044068  85.5896667  87.7914087   4.8522928  88.9738267
  88.0520904   5.7668262  88.8647427  88.6131259   4.3847371  89.1234880
  89.2639012   6.2660686  96.1437091  89.9362065   6.0578048  95.4949740
  88.4368798   6.0682772  95.7042324 103.5128273  13.0064736  95.6612425
 103.7064163  13.9110546  95.9071700 103.4128891  12.5472155  96.4951010
  95.1664584   2.8922626  98.1602752  94.5192499   3.5912576  98.0667229
  95.9365599   3.3258770  98.5279001  98.5743382  13.1571479 101.2353306
  98.4228888  12.9282030 100.3183389  98.5648061  14.1142080 101.2484651
  95.3428718  10.7303391  96.2199572  96.2720778  10.8814551  96.0468539
  94.9219748  10.8187412  95.3648219  94.1417050  14.7554056  93.9898110
  94.0028136  14.3872840  94.8624048  93.3531646  15.2701695  93.8182068
  94.7365202  19.8563152  85.3323646  94.9116958  19.3851195  86.1469269
  94.0497990  20.4828918  85.5604907  95.6922265  14.1335658  91.3786948
  95.3572098  14.0936428  92.2744597  95.1926211  13.4680374  90.9057358
  89.6666509   9.5403289  96.9039529  89.5286307   8.8083527  97.5051068
  90.5771433   9.4512189  96.6223716  98.6281457  11.4791693  81.6524007
  98.0110627  10.7538521  81.5557060  98.1597945  12.2401053  81.3091081
  92.2948810   9.2523248  96.3923208  93.0048428   8.6116440  96.3509827
  92.2518118   9.5036143  97.3149389 100.2835589  16.1890601  99.3129788
 100.2248135  15.5049821  98.6460371 100.6855107  16.9309591  98.8610414
  91.0077744   6.2388466  98.2118848  90.4715101   5.7879204  98.8640444
  90.4194452   6.3734375  97.4689312  89.3026287  23.0052515  92.1063506
  89.5422886  23.6371039  92.7842525  88.4595484  22.6540555  92.3928866
  90.4180003   5.6977117  80.7745311  89.5409469   5.5765918  80.4107558
  90.8937756   4.9063195  80.5224200 100.2852996  14.1530185  97.5443767
  99.3979775  13.8156107  97.6670166 100.8551547  13.4213216  97.7812533
  81.9382143  10.4854277  90.8686819  82.6253183  10.1716007  90.2807834
  81.7830272  11.3895642  90.5954070  86.7416865   5.3744473  95.2971842
  86.6575054   4.7670143  94.5622252  85.9199571   5.8653492  95.2981339
  93.8154149  18.8131637  94.5105010  93.7424321  19.6186609  95.0224315
  93.3731542  19.0123603  93.6853032  93.6043929  18.0503407  88.0207832
  92.8211451  18.5925088  88.1146056  94.3036674  18.5677387  88.4202073
  96.9140579   3.8598037  90.6642037  97.4109278   3.1067999  90.3443108
  96.1427560   3.8962354  90.0985247 104.7670336   9.5638402  92.3060329
 104.7560213  10.4463118  91.9354262 103.8987716   9.2109953  92.1114866
  96.2752833  18.7118471  96.6663169  96.9880805  19.3465936  96.5939071
  95.7842861  18.8082337  95.8503171  97.9970360  12.6169724  88.2380461
  97.0626638  12.7371187  88.0685165  98.1747028  11.7142191  87.9740471
  93.4975548   6.0015420  90.3913722  93.1273335   5.4486460  91.0794628
  93.9934640   5.3973553  89.8388722 101.3842911   8.4587043  88.7730495
 101.8503363   9.2915035  88.6990798 101.8350411   7.9932025  89.4775753
  91.3264746  16.4612915  97.4868740  92.0274206  17.0949398  97.6398134
  90.8559861  16.8027647  96.7264379  99.4519142  14.8030865  85.7716647
  99.7278986  14.6887459  86.6810521  98.5823641  14.4048350  85.7328820
  99.1266032   9.0157522  95.3121290  98.4737482   9.2633430  94.6573743
  99.5046412   8.2021661  94.9783768  96.0873206  19.0517216  89.4149461
  96.2695601  18.2338872  89.8777213  96.9106192  19.2684908  88.9774351
  96.4215372  17.9785401  86.6764509  96.9503138  17.4677855  86.0634671
  96.6843591  17.6627931  87.5410042  95.1753605   9.7577333 101.7987327
  94.4994242   9.6571463 102.4689703  95.9981239   9.6016547 102.2623325
  86.9232464  15.9949270  94.4199843  87.5085901  15.2492958  94.5527747
  86.7257303  16.3053227  95.3036506  89.7771120  19.0300517  89.4362285
  89.1081495  19.5146645  88.9526325  89.6383989  19.2769738  90.3505663
  81.5150119   8.5654870  93.1404286  81.5534219   8.0318461  93.9341404
  81.0090412   8.0390076  92.5215263  93.9176388  21.0644261  96.0344943
  94.4694696  21.2275882  96.7994029  94.2582582  21.6548699  95.3624968
  88.8940881   3.4119411  96.6366828  88.9582208   4.2734242  96.2244226
  88.8308002   2.7993412  95.9039187  88.3693154   5.4842543 100.2839862
  88.9965193   5.1019621 100.8977387  87.5121073   5.2656745 100.6495555
  98.7687262  15.8905518 101.8893598  99.3127166  16.5035477 101.3948553
  98.1874107  16.4485097 102.4060611  85.1458697   7.2918972  86.2158217
  85.4412138   6.3829651  86.1625271  84.2446732   7.2706712  85.8939219
  97.0544775  19.0126236  93.0208625  96.9295915  18.2115976  92.5119571
  97.7123866  19.5072430  92.5322595  88.6752944   5.3674969  92.1985766
  87.9539529   5.9810937  92.0593239  89.4646199   5.9032734  92.1202412
  99.1179684  16.8135257  94.6488176  98.1710019  16.6940608  94.5766502
  99.4662457  15.9257755  94.7314437  91.4779257   2.7029395  98.4726417
  92.0013659   2.9491692  99.2352727  91.2591590   3.5349430  98.0529555
  86.8746538   4.9733070  86.3397542  86.5459244   4.0930449  86.1572648
  87.2285909   4.9180739  87.2273931  96.1226117  16.6087973  90.8492528
  95.9751079  15.6804680  91.0300098  96.9479611  16.6308063  90.3649603
  89.9888361   5.2606040  86.7073020  90.3284434   5.7891961  85.9851628
  90.4360482   5.5986446  87.4831586  99.7260239  17.4316531  91.9357401
 100.6506786  17.2259393  91.7981852  99.5575542  17.1832933  92.8446742
  92.6831802   3.6443091  96.1576088  92.3428623   2.8450904  96.5596768
  91.9770808   3.9444801  95.5852921  91.9756508   3.7580661  84.9066313
  92.6964871   4.1361914  84.4030030  91.3521813   4.4769538  85.0101291
  96.1187631   4.4625810  85.8424645  96.3351246   5.3450448  85.5413473
  95.6381699   4.0712024  85.1130287  90.8586853   7.4211524  92.4195390
  90.7131433   7.7351827  93.3119671  90.3812056   8.0396424  91.8666288
  92.7183236   4.4114072  92.4676279  92.7044804   3.5155165  92.1308577
  93.4355664   4.4184735  93.1014565  94.5709366   4.8451412  94.5129407
  94.3127144   5.7668482  94.5113737  94.0394407   4.4481846  95.2029871
  99.5155555  17.9502199  87.2919492  99.6892433  17.3848621  86.5393344
 100.0084446  18.7503094  87.1098982  85.3332515   9.9616868  95.3583051
  84.7885983  10.7376676  95.4903325  86.2111865  10.3087672  95.2002172
  92.1220132   3.2928452  87.7363849  92.2436043   2.3645098  87.9354737
  91.8322174   3.3067138  86.8242165 105.3694946  10.7138622  88.9109792
 105.8126092   9.9645947  88.5128915 104.4921457  10.7048758  88.5283524
 100.5030728  17.2668963  84.3916390 101.1981632  17.8875656  84.6103705
 100.8453878  16.4164315  84.6668768  86.1198537   9.0886764  98.2513208
  85.3780273   9.2369400  98.8377838  85.7991281   9.3495030  97.3879957
 102.4022151  14.7168669  85.9203721 102.9273475  15.0555942  85.1953041
 102.3144503  13.7815684  85.7366856  94.0642199  18.6302743  98.0493598
  94.3729326  18.3851889  98.9216297  94.8617681  18.8349381  97.5612468
  94.0862811  20.7840652  90.2798974  93.6467802  20.2917031  90.9731831
  94.8370928  20.2413620  90.0391049  86.5655150  16.9752193  90.2823602
  87.3913170  16.6755965  89.9022246  86.2149202  16.2059815  90.7313391
  91.5336684  16.3278661  92.3521276  90.9116693  15.6649366  92.0523504
  92.2041551  16.3539793  91.6694924  84.7663756  14.8938519  91.2412536
  83.9295664  14.4660694  91.0596537  84.7387401  15.0870963  92.1783327
  91.6061211   4.8060449 101.9453782  91.6549367   5.6822572 101.5631552
  92.1483725   4.2637842 101.3725425 102.0916057  15.3501573 101.2254919
 101.3011600  15.3325711 100.6859418 101.8549411  15.8889866 101.9803956
 102.2113932  12.1994039  98.5387648 102.2611937  12.0344046  99.4803170
 102.1027855  11.3321298  98.1485528  91.0950191  14.8782585  85.8279736
  91.2438311  15.5618049  85.1746409  91.9016634  14.8587675  86.3429192
  99.5017694   8.1824967  99.8546954 100.4027557   8.0431432  99.5630952
  99.5765669   8.3479422 100.7945132  93.8360500   5.5591822  98.7000141
  92.9663809   5.8525388  98.4282729  94.0719980   6.1432267  99.4207404
 103.7132129  14.6190980  98.7829669 103.4216937  14.9820961  99.6193130
 103.1004260  13.9057989  98.6043001 104.9127811  12.1843860  91.3032239
 105.7474702  12.6233664  91.4669800 105.0486940  11.7082513  90.4840485
 101.9619317   9.7423595  97.2509727 102.4373439   9.9351241  96.4428578
 101.0384882   9.7982781  97.0053111  88.8502824  10.9047762  86.8340805
  88.6048865  10.0010092  87.0321015  89.0198738  10.9064913  85.8920283
  88.1198471   6.6376120  84.3326967  87.4267716   6.7120475  83.6767003
  87.8750223   5.8736463  84.8548484  94.5945596  17.3730715  83.2991484
  94.0219563  17.9920902  82.8461956  95.1678390  17.9230077  83.8331406
 100.6620986   6.6189355  95.4838033 101.6138409   6.7187453  95.5050257
 100.4924436   5.8267624  95.9936117  98.6835365   3.7044938  95.6697434
  98.0885297   3.9849951  94.9743922  98.3985062   4.1938839  96.4414175
  97.8142856  17.6567865  84.4300066  98.7473529  17.5913427  84.6332942
  97.7266069  18.4924132  83.9714599 100.4430873  16.9733735  81.3904014
 100.3644504  16.6393599  82.2839772 101.2640539  17.4655503  81.3895486
 103.1409064   9.8395475  94.5980332 103.1085384   8.9011476  94.7840016
 103.7509687   9.9179512  93.8646157  94.9792395   8.7091528  80.6407536
  95.9251499   8.5797736  80.7095954  94.6006640   7.9706190  81.1176965
 103.2903552   6.6306518  94.6438616 102.7742601   5.8464975  94.4568544
 104.1743501   6.3025235  94.8085135 108.9585614  10.9011482  93.7386369
 109.6889002  10.6396770  94.2994072 108.3492559  10.1640204  93.7788437
 107.0400911   9.0419344  94.3360820 106.3134074   8.9075309  93.7277312
 106.6248198   9.3496173  95.1417538  94.8631087  12.7609274 102.1008193
  95.7834097  12.9387873 102.2948240  94.8280670  11.8165319 101.9487893
  93.1635312   6.6341504  80.5762422  92.2566767   6.3374617  80.6525135
  93.4411293   6.3371322  79.7096708  84.0813252   7.9547868  91.0261468
  83.7616036   7.1013176  90.7335842  83.5346680   8.1696446  91.7819435
  87.8593160  10.6710309  94.7430975  88.0779169  11.6027416  94.7619008
  88.2718933  10.3118283  95.5285778  92.7321025   6.2443514 104.1333723
  92.6317752   7.1937871 104.0645815  92.5142567   5.9161753 103.2609794
  91.9334096   3.4928439  80.7174401  92.7953260   3.8183338  80.9770218
  92.1184440   2.7059935  80.2047467  83.9501512  11.5750779  92.9954590
  83.2564984  11.1604732  92.4824544  84.6974503  11.6171316  92.3988008
  92.5952295   9.6740653 102.9498785  92.1119377  10.4741013 103.1562674
  92.6813234   9.6848598 101.9966229  85.8638255  11.5069033  90.8720604
  85.8408943  11.6056720  89.9202488  86.1738891  12.3534184  91.1937771
  88.5225633  13.5645188  94.9867219  89.4768886  13.5329130  94.9197150
  88.3238156  13.1035812  95.8017445  89.1125015  12.1346304  97.5538017
  89.9317904  12.6290383  97.5772854  89.3861822  11.2178272  97.5255584
  98.8691611   4.5257056  86.9165972  97.9817466   4.8106707  86.6986167
  99.2845600   4.3650820  86.0693249 102.2206147   4.5503577  90.6320311
 102.9966537   5.0400030  90.9044928 101.4954281   4.9761631  91.0892181
  86.8775861  19.1064807  92.0037417  86.7430329  18.3465208  91.4375415
  86.4607924  19.8305707  91.5366206  98.0134824  14.2901731  81.0113992
  98.7170674  14.4951733  81.6271648  97.2897473  14.8578493  81.2763076
  98.8432635  10.0411592  87.1316262  98.7867836  10.4980144  86.2923895
  99.3960977   9.2802277  86.9539105 102.6537440   5.8301324  87.9566382
 102.3974375   5.4297960  88.7874589 102.0290309   6.5445118  87.8316521
 106.9649778   8.5697397  90.4637673 106.4049336   8.6390587  91.2369235
 106.3593282   8.3938382  89.7437169  90.0344987  20.0034124  92.2155859
  89.9177371  20.9479557  92.1134550  89.2137433  19.7007686  92.6041659
  99.9221522  14.7284260  83.0612452 100.7567126  14.2965459  82.8789927
  99.7605865  14.5566274  83.9889347  99.5767414  11.2316373  84.4268791
  99.5216218  11.0660645  83.4857235  98.9513469  11.9392406  84.5830981
  84.3659929   6.4684438  98.2530214  85.0118792   5.9583392  98.7417439
  84.1577080   7.2053119  98.8273639  96.8913321  13.5365285 103.7522354
  97.7604481  13.7105938 103.3908989  96.4120073  14.3559702 103.6298084
  91.0599501  20.6562386  95.4311788  91.9626748  20.6885997  95.7478283
  90.8336871  19.7262837  95.4458124  92.8153103  19.4093373  92.0921866
  91.8648734  19.4095234  91.9786239  93.1185589  18.6626107  91.5757901
  88.7057420   3.6152055 102.3505228  89.5688881   3.2588860 102.5608552
  88.1322831   3.2765950 103.0380632 108.5505797  25.2453911  93.1567629
 109.1884207  25.1260659  92.4530969 108.4326640  26.1934755  93.2155581
 105.3595503  25.1981339  93.0929154 105.0214015  25.0822404  92.2049688
 106.2285271  24.7972504  93.0730160 101.2182319  27.0516816  89.0826044
 100.6547184  26.9606753  88.3142332 101.1034714  26.2316720  89.5628537
 105.8415286  26.3516191  99.0515359 105.8303927  25.9568989  98.1795863
 106.0035926  25.6182264  99.6449131  98.7646751  28.5468007  91.9210265
  99.5568043  28.2058832  91.5056564  99.0043401  28.6562982  92.8412418
 106.7981878  30.7187783  84.3940509 106.1469857  31.3041864  84.0074523
 107.5926240  31.2493978  84.4535547 100.7237505  27.8076921  84.7927644
 101.4968381  27.2605908  84.6540520 101.0762904  28.6721170  85.0042105
 102.5622547  29.1353303  97.9994543 102.2712413  30.0398934  97.8841209
 103.1979532  29.1769830  98.7138613 103.4878754  26.5130151  94.5895903
 104.0842326  26.2886174  93.8752866 103.5453726  25.7714897  95.1921351
 103.0603782  23.9669587  82.4246094 103.3129303  23.4451108  81.6629557
 102.1228342  23.8035732  82.5272777 108.1047065  22.9705365  90.2320837
 108.8910155  22.5524788  89.8811254 108.3685770  23.8751457  90.4002485
 108.2757143  28.4078215  84.9309494 107.6402976  28.4812842  85.6430398
 107.9454549  28.9971814  84.2528573 113.5055492  22.9080598  91.1353815
 114.2380664  22.3379815  91.3691645 112.7494848  22.5202199  91.5760321
 102.7800071  25.8697693  84.6270469 102.6636329  25.1942596  85.2951553
 102.8902331  25.3830067  83.8102622 105.1231612  25.3307840  88.3317158
 104.7589819  24.8038461  89.0430079 105.9798728  24.9406309  88.1583643
 111.0280913  16.6202172  95.5948424 110.6964238  17.4897583  95.3709639
 110.4326526  16.3038456  96.2742454 104.7637099  20.3597739  83.3278506
 104.9311501  21.2277976  83.6948977 104.5734268  20.5225021  82.4039796
 107.5212432  28.8214718  94.9944337 107.2213155  29.7239757  94.8860144
 107.1763492  28.5546902  95.8465490 100.9724914  25.2728515  91.0281041
 100.0475410  25.1404729  91.2358733 101.2209327  26.0522734  91.5250984
 110.9209576  21.3397259  92.6741774 110.0126453  21.2712667  92.3800535
 110.8697172  21.8169203  93.5023600 104.7426320  22.8155397  84.3125173
 104.6225945  23.2612448  85.1510653 104.0478908  23.1640715  83.7538711
  98.3333725  24.9161789  91.8624830  98.4626106  25.1696268  92.7764242
  97.6531176  25.5089497  91.5429485 102.5033212  35.5859039  87.9615304
 102.4257242  36.5366864  88.0403785 101.8994856  35.2404911  88.6190231
 104.9950442  22.7586904 100.6176671 104.2183776  23.3180824 100.6079536
 105.6341005  23.2443687 101.1391541 112.7871222  19.5413697  94.4519648
 112.1445603  19.8346230  93.8059443 112.2826151  19.4266617  95.2572845
 110.4411386  23.2876870  85.1405507 111.3529242  23.5204257  84.9653205
 109.9321033  23.8713914  84.5780586 103.2496814  25.5672357 100.1794638
 103.9911499  26.1057401  99.9029462 102.5433800  26.1938646 100.3366190
 108.7252154  27.7101498  98.7766800 109.1335510  27.2683908  98.0321432
 108.0029415  27.1354125  99.0300993 105.0783224  22.6474105  96.1500357
 105.9244419  23.0713518  96.2935006 105.0181862  21.9907729  96.8438920
 109.0480968  28.2702689  92.5319089 108.4189831  28.4348403  91.8295157
 108.6606631  28.6844298  93.3030053 112.9270200  29.2057126  89.8863452
 112.2421239  29.5856028  89.3360486 113.0114050  29.8152453  90.6195400
 108.2282669  20.3078473  97.8081530 107.9843601  21.0620534  97.2715806
 108.5042600  20.6863821  98.6428777 110.1821132  26.8517085  96.4858796
 110.3938027  27.4948845  95.8093177 110.1350880  26.0179402  96.0180726
 107.7847361  19.4634906  93.3895368 106.9231840  19.7616160  93.6812106
 107.8109796  19.6805305  92.4576401 104.6008930  28.0077097  89.7969174
 105.0647276  28.2864800  89.0073796 104.3365728  27.1060541  89.6142264
 101.4933011  27.5548578  92.7348937 102.0634368  27.9835847  92.0966422
 102.0841123  27.2731163  93.4333123 103.5377816  24.1300249  86.6058739
 104.2401860  24.5821293  87.0732665 103.2058445  23.4884068  87.2338632
 101.9858178  22.7212006 100.9809948 101.3556838  23.4028287 101.2145345
 101.8794266  22.6095087 100.0363087  97.2803150  22.3883802  91.9075872
  96.4902204  22.6441330  91.4315983  97.7714398  23.2032140  92.0127913
 111.2966960  29.7289041  94.6581153 112.1184404  29.3269228  94.3763835
 111.2929363  29.6257275  95.6097269  99.2317896  22.7528381  88.8659349
  98.4349059  22.8647075  89.3842845  99.0043488  23.0915033  88.0000240
 105.0623563  29.2773084  96.8141864 105.1267996  29.7393491  97.6500036
 104.3534487  28.6470449  96.9424174  95.5640853  22.6414292  94.3390863
  95.8148892  23.5261302  94.6048439  96.1000402  22.4618894  93.5665955
 119.3872953  26.0727789  91.0066125 118.6336661  25.5035187  90.8510129
 119.5220494  26.0390454  91.9536759 104.7771581  30.9441192  86.6820844
 104.6417256  31.7892727  87.1105692 105.3181394  31.1460469  85.9186778
 101.2638921  17.0232772 103.3435199 100.8705866  16.4698970 104.0182844
 102.0805061  17.3343350 103.7341717  98.2300978  28.4616630  87.2548769
  98.7425499  29.2559880  87.4054334  98.8823691  27.7642920  87.1882371
 100.0395863  31.5782386  89.3371522 100.2162491  32.5000351  89.1492506
 100.8352697  31.2640805  89.7665902 104.1806882  18.4390651 100.9355456
 104.9216595  19.0397804 100.8559918 104.4124804  17.6968288 100.3773498
  99.3248220  23.6247018  99.2133686  99.2101735  22.7232275  99.5140785
  98.4692737  23.8710715  98.8618502 106.4040057  31.5664758 100.8121186
 105.9603912  30.7801137 100.4942091 107.0657271  31.7543909 100.1465077
 101.1627179  33.0960560  95.3381865 101.7134604  32.9677623  94.5658859
 100.3238654  33.3955449  94.9876758 108.5021295  31.8467558  98.8402587
 108.4839771  32.6676439  98.3482857 109.4241216  31.7221633  99.0652729
 104.9594350  29.3611688  99.6826096 105.4922686  28.5999976  99.4525404
 104.4308431  29.0685339 100.4250250 108.1264045  14.4671754  95.2119738
 107.7828314  15.3573395  95.1358848 108.4943007  14.2773411  94.3489323
  96.1949895  26.7905284  88.0308340  97.0325117  27.2002292  87.8142047
  96.3728163  25.8504726  88.0008534 108.0914327  24.4580365  83.7192173
 107.5760951  25.2284969  83.9580560 107.8191636  23.7845501  84.3425234
 105.6761438  19.3030065  88.7777411 104.8203035  18.9136916  88.5983050
 106.0888390  19.3822026  87.9177197 107.2060585  16.8376409  93.1768971
 106.7025381  16.8006544  92.3636776 107.4991192  17.7469151  93.2365628
 103.4503471  16.9215138  92.1835153 104.3156468  16.7257947  91.8241042
 103.5180980  16.6925490  93.1104509 113.0648601  27.2112719  85.6545346
 112.2878044  26.8723879  85.2100508 113.7440082  27.2165342  84.9800311
 107.8800630  22.3307457  85.5451954 107.5750766  22.6453606  86.3962097
 108.8331073  22.4088877  85.5879287 106.3247062  28.4897680  87.1944908
 105.7968424  27.7550440  86.8818145 105.8234565  29.2672356  86.9484876
 111.3039908  26.6846701  92.3111954 110.6463583  27.3745962  92.3992083
 112.1080308  27.0743132  92.6545941 101.0565790  19.1517346  89.5551519
 101.6309542  18.9292528  88.8224712 101.6436772  19.2206041  90.3080121
 110.1145367  25.0391073  90.3615896 110.6277249  25.6721065  90.8637606
 110.7646591  24.4392269  89.9959256 101.3835377  21.1821807  83.5747405
 100.5472689  21.5196494  83.8956679 101.2440147  21.0470787  82.6374542
 103.3588458  16.0258595  88.2826589 102.7052870  15.7107612  87.6583204
 103.3168932  15.4034336  89.0086412 104.4699662  26.3077890  80.1979881
 103.5626724  26.0767144  80.3971030 104.9670694  25.5115510  80.3853862
 107.3767741  35.0175398  83.1176567 106.7029440  35.3207094  83.7261525
 107.7633563  35.8204478  82.7682024 106.5926198  22.5140529  92.6074236
 105.6748759  22.7355476  92.4495925 107.0086342  22.5886839  91.7485944
 107.3761246  23.9131944  87.7376917 108.1233065  24.4253342  87.4284039
 107.6452835  23.5915997  88.5981310 105.6487896  26.4090485  84.7203871
 104.7399115  26.1249518  84.8176341 105.6782980  26.8289564  83.8607178
 110.8807163  30.0197075  88.4895039 110.4269490  29.1787985  88.5460229
 110.2501130  30.6558473  88.8269819 109.8240083  20.9489061  89.7195706
 109.0862840  20.4366447  90.0505949 110.0766856  20.5089442  88.9078983
 109.3240103  31.8573571  89.4244857 109.6163077  32.4178628  88.7057222
 109.8338723  32.1502132  90.1798016 109.9251710  13.7265313  90.3137475
 110.2310587  12.8662676  90.0263390 110.6504315  14.3182933  90.1136469
  96.2176066  24.1295999  88.7019073  96.0200466  23.5365360  87.9770140
  95.6622730  23.8248210  89.4195012 104.1972790  24.0219106  90.8213666
 104.2521400  23.0692942  90.7456143 103.3863992  24.1778545  91.3054965
 105.3463984  27.9499229  82.0591950 104.9083414  27.2335088  81.5997587
 106.0874425  28.1775344  81.4977041 102.1365150  22.6396166  88.5804045
 101.3233015  22.9390336  88.9869237 102.6324144  22.2451854  89.2978527
 104.2873728  32.6353922  90.5138310 104.2449907  32.8614769  89.5846842
 105.2036427  32.4017297  90.6624111 107.7339362  23.1037990  97.4118939
 108.0888749  23.3309463  98.2713405 108.3811493  23.4356367  96.7896194
 113.4637099  26.2256426  88.1168268 113.3254997  26.4158022  87.1889457
 113.1073317  26.9875809  88.5736319 101.6279225  20.2114521  94.1965280
 102.2678604  20.0703280  93.4988243 100.7956755  19.9249034  93.8203882
 113.4906478  28.2932953  93.1279540 113.9242985  28.2008242  93.9762594
 114.2038059  28.2690453  92.4899556 102.4039529  29.5116951  90.3100273
 103.1980127  29.0167272  90.1082848 101.6931221  28.9834815  89.9467978
 107.2234373  31.8935047  94.6612640 107.2771395  32.4625983  95.4290356
 106.3549154  32.0636932  94.2966677  98.7122292  23.6560033  86.3860025
  97.7819880  23.5944489  86.6029987  98.8079764  23.1335986  85.5896667
  98.6307841  20.1814846  88.9738267  98.8914658  21.0960179  88.8647427
  99.4525013  19.7139289  89.1234880 100.1032766  21.5952603  96.1437091
 100.7755820  21.3869965  95.4949740  99.2762553  21.3974689  95.7042324
 114.3522028  28.3356654  95.6612425 114.5457918  29.2402464  95.9071700
 114.2522646  27.8764073  96.4951010 106.0058338  18.2214544  98.1602752
 105.3586253  18.9204494  98.0667229 106.7759354  18.6550688  98.5279001
 109.4137136  28.4863396 101.2353306 109.2622643  28.2573948 100.3183389
 109.4041816  29.4433998 101.2484651 106.1822473  26.0595309  96.2199572
 107.1114533  26.2106469  96.0468539 105.7613503  26.1479330  95.3648219
 104.9810805  30.0845973  93.9898110 104.8421890  29.7164758  94.8624048
 104.1925401  30.5993613  93.8182068 105.5758957  35.1855070  85.3323646
 105.7510712  34.7143113  86.1469269 104.8891745  35.8120836  85.5604907
 106.5316020  29.4627576  91.3786948 106.1965852  29.4228346  92.2744597
 106.0319965  28.7972292  90.9057358 100.5060264  24.8695206  96.9039529
 100.3680062  24.1375445  97.5051068 101.4165187  24.7804106  96.6223716
 109.4675211  26.8083611  81.6524007 108.8504382  26.0830439  81.5557060
 108.9991700  27.5692971  81.3091081 103.1342564  24.5815166  96.3923208
 103.8442183  23.9408358  96.3509827 103.0911872  24.8328060  97.3149389
 111.1229343  31.5182519  99.3129788 111.0641889  30.8341739  98.6460371
 111.5248861  32.2601509  98.8610414 101.8471498  21.5680383  98.2118848
 101.3108855  21.1171122  98.8640444 101.2588207  21.7026292  97.4689312
 100.1420042  38.3344433  92.1063506 100.3816640  38.9662957  92.7842525
  99.2989238  37.9832473  92.3928866 101.2573757  21.0269035  80.7745311
 100.3803224  20.9057836  80.4107558 101.7331510  20.2355113  80.5224200
 111.1246750  29.4822103  97.5443767 110.2373529  29.1448025  97.6670166
 111.6945301  28.7505134  97.7812533  92.7775897  25.8146195  90.8686819
  93.4646937  25.5007925  90.2807834  92.6224026  26.7187559  90.5954070
  97.5810620  20.7036391  95.2971842  97.4968808  20.0962061  94.5622252
  96.7593326  21.1945409  95.2981339 104.6547904  34.1423555  94.5105010
 104.5818075  34.9478527  95.0224315 104.2125297  34.3415521  93.6853032
 104.4437683  33.3795325  88.0207832 103.6605205  33.9217005  88.1146056
 105.1430428  33.8969305  88.4202073 107.7534333  19.1889955  90.6642037
 108.2503033  18.4359917  90.3443108 106.9821315  19.2254271  90.0985247
 115.6064091  24.8930320  92.3060329 115.5953967  25.7755036  91.9354262
 114.7381470  24.5401871  92.1114866 107.1146587  34.0410389  96.6663169
 107.8274559  34.6757854  96.5939071 106.6236616  34.1374255  95.8503171
 108.8364114  27.9461642  88.2380461 107.9020393  28.0663104  88.0685165
 109.0140783  27.0434109  87.9740471 104.3369302  21.3307338  90.3913722
 103.9667090  20.7778378  91.0794628 104.8328395  20.7265471  89.8388722
 112.2236665  23.7878961  88.7730495 112.6897118  24.6206953  88.6990798
 112.6744166  23.3223943  89.4775753 102.1658501  31.7904833  97.4868740
 102.8667960  32.4241316  97.6398134 101.6953616  32.1319564  96.7264379
 110.2912897  30.1322782  85.7716647 110.5672740  30.0179377  86.6810521
 109.4217395  29.7340267  85.7328820 110.1953328  16.1559548  92.8121396
 109.2816408  16.3863775  92.9803603 110.6246430  16.2397992  93.6635429
 109.9659787  24.3449440  95.3121290 109.3131237  24.5925348  94.6573743
 110.3440167  23.5313578  94.9783768 106.9266961  34.3809133  89.4149461
 107.1089355  33.5630789  89.8777213 107.7499947  34.5976826  88.9774351
 107.2609126  33.3077318  86.6764509 107.7896892  32.7969773  86.0634671
 107.5237346  32.9919849  87.5410042 106.0147360  25.0869251 101.7987327
 105.3387997  24.9863380 102.4689703 106.8374994  24.9308465 102.2623325
  97.7626219  31.3241188  94.4199843  98.3479656  30.5784876  94.5527747
  97.5651057  31.6345144  95.3036506 100.6164874  34.3592435  89.4362285
  99.9475249  34.8438563  88.9526325 100.4777744  34.6061656  90.3505663
  92.3543874  23.8946788  93.1404286  92.3927973  23.3610379  93.9341404
  91.8484166  23.3681993  92.5215263 104.7570143  36.3936179  96.0344943
 105.3088451  36.5567800  96.7994029 105.0976336  36.9840616  95.3624968
  99.7334636  18.7411328  96.6366828  99.7975962  19.6026159  96.2244226
  99.6701756  18.1285330  95.9039187  99.2086908  20.8134461 100.2839862
  99.8358947  20.4311538 100.8977387  98.3514827  20.5948663 100.6495555
 109.6081017  31.2197436 101.8893598 110.1520921  31.8327394 101.3948553
 109.0267862  31.7777015 102.4060611  95.9852451  22.6210890  86.2158217
  96.2805892  21.7121568  86.1625271  95.0840487  22.5998630  85.8939219
 107.8938530  34.3418154  93.0208625 107.7689669  33.5407894  92.5119571
 108.5517621  34.8364347  92.5322595  99.5146698  20.6966887  92.1985766
  98.7933284  21.3102854  92.0593239 100.3039954  21.2324651  92.1202412
 109.9573438  32.1427174  94.6488176 109.0103774  32.0232525  94.5766502
 110.3056211  31.2549672  94.7314437 102.3173012  18.0321313  98.4726417
 102.8407413  18.2783610  99.2352727 102.0985345  18.8641348  98.0529555
  97.7140293  20.3024988  86.3397542  97.3852999  19.4222367  86.1572648
  98.0679663  20.2472656  87.2273931 106.9619872  31.9379890  90.8492528
 106.8144834  31.0096598  91.0300098 107.7873365  31.9599981  90.3649603
 100.8282116  20.5897958  86.7073020 101.1678188  21.1183879  85.9851628
 101.2754236  20.9278364  87.4831586 110.5653993  32.7608449  91.9357401
 111.4900541  32.5551310  91.7981852 110.3969297  32.5124850  92.8446742
 103.5225557  18.9735008  96.1576088 103.1822377  18.1742821  96.5596768
 102.8164563  19.2736719  95.5852921 104.1742028  16.0584321  94.6103411
 104.9968098  15.5844799  94.4882301 104.4180092  16.8374804  95.1102097
 102.8150263  19.0872579  84.9066313 103.5358625  19.4653832  84.4030030
 102.1915567  19.8061456  85.0101291 106.9581386  19.7917728  85.8424645
 107.1745000  20.6742366  85.5413473 106.4775453  19.4003941  85.1130287
 101.6980607  22.7503441  92.4195390 101.5525188  23.0643744  93.3119671
 101.2205811  23.3688342  91.8666288 103.5576990  19.7405989  92.4676279
 103.5438559  18.8447083  92.1308577 104.2749418  19.7476653  93.1014565
 105.4103121  20.1743329  94.5129407 105.1520899  21.0960400  94.5113737
 104.8788161  19.7773764  95.2029871 110.3549310  33.2794117  87.2919492
 110.5286187  32.7140539  86.5393344 110.8478201  34.0795011  87.1098982
  96.1726269  25.2908786  95.3583051  95.6279737  26.0668594  95.4903325
  97.0505619  25.6379590  95.2002172 102.9613886  18.6220370  87.7363849
 103.0829797  17.6937016  87.9354737 102.6715928  18.6359056  86.8242165
 105.8305076  16.3075280  90.8730569 105.8526773  16.3714613  89.9182549
 106.2473135  15.4679789  91.0671075 116.2088701  26.0430540  88.9109792
 116.6519847  25.2937865  88.5128915 115.3315211  26.0340676  88.5283524
 111.3424482  32.5960881  84.3916390 112.0375387  33.2167574  84.6103705
 111.6847632  31.7456232  84.6668768  96.9592291  24.4178682  98.2513208
  96.2174027  24.5661317  98.8377838  96.6385036  24.6786948  97.3879957
 113.2415905  30.0460587  85.9203721 113.7667229  30.3847859  85.1953041
 113.1538258  29.1107602  85.7366856 104.9035954  33.9594660  98.0493598
 105.2123080  33.7143807  98.9216297 105.7011436  34.1641299  97.5612468
 104.9256566  36.1132570  90.2798974 104.4861556  35.6208949  90.9731831
 105.6764683  35.5705537  90.0391049  97.4048905  32.3044111  90.2823602
  98.2306925  32.0047883  89.9022246  97.0542957  31.5351733  90.7313391
 102.3730438  31.6570579  92.3521276 101.7510447  30.9941284  92.0523504
 103.0435305  31.6831711  91.6694924  95.6057510  30.2230437  91.2412536
  94.7689418  29.7952611  91.0596537  95.5781155  30.4162880  92.1783327
 102.4454966  20.1352367 101.9453782 102.4943121  21.0114490 101.5631552
 102.9877480  19.5929760 101.3725425 112.9309811  30.6793490 101.2254919
 112.1405355  30.6617629 100.6859418 112.6943166  31.2181784 101.9803956
 113.0507686  27.5285957  98.5387648 113.1005691  27.3635964  99.4803170
 112.9421610  26.6613216  98.1485528 101.9343945  30.2074502  85.8279736
 102.0832065  30.8909967  85.1746409 102.7410388  30.1879592  86.3429192
 110.3411449  23.5116885  99.8546954 111.2421311  23.3723349  99.5630952
 110.4159423  23.6771339 100.7945132 104.6754254  20.8883739  98.7000141
 103.8057563  21.1817305  98.4282729 104.9113734  21.4724184  99.4207404
 114.5525883  29.9482898  98.7829669 114.2610691  30.3112879  99.6193130
 113.9398014  29.2349906  98.6043001 115.7521565  27.5135778  91.3032239
 116.5868457  27.9525582  91.4669800 115.8880694  27.0374431  90.4840485
 112.8013071  25.0715513  97.2509727 113.2767193  25.2643159  96.4428578
 111.8778637  25.1274699  97.0053111  99.6896578  26.2339680  86.8340805
  99.4442620  25.3302010  87.0321015  99.8592493  26.2356830  85.8920283
 107.3793288  17.1063356  96.2165561 107.8975232  17.8424383  95.8912050
 107.0248421  17.4127350  97.0512320  98.9592226  21.9668037  84.3326967
  98.2661470  22.0412392  83.6767003  98.7143977  21.2028381  84.8548484
 107.6305882  13.5263639  91.7366458 107.9107636  12.8586828  92.3626884
 108.4156489  13.7192734  91.2241121 105.4339351  32.7022633  83.2991484
 104.8613318  33.3212820  82.8461956 106.0072144  33.2521994  83.8331406
 111.5014740  21.9481273  95.4838033 112.4532163  22.0479370  95.5050257
 111.3318191  21.1559541  95.9936117 109.5229120  19.0336856  95.6697434
 108.9279052  19.3141869  94.9743922 109.2378817  19.5230757  96.4414175
 108.6536610  32.9859783  84.4300066 109.5867283  32.9205345  84.6332942
 108.5659823  33.8216050  83.9714599 111.2824627  32.3025653  81.3904014
 111.2038259  31.9685517  82.2839772 112.1034294  32.7947421  81.3895486
 113.9802818  25.1687392  94.5980332 113.9479138  24.2303393  94.7840016
 114.5903442  25.2471429  93.8646157 105.8186149  24.0383445  80.6407536
 106.7645254  23.9089654  80.7095954 105.4400394  23.2998107  81.1176965
 114.1297307  21.9598436  94.6438616 113.6136355  21.1756893  94.4568544
 115.0137255  21.6317153  94.8085135 111.7908034  15.7039451  90.6034428
 111.5932855  15.3954540  91.4877760 112.4007739  16.4301090  90.7332358
 119.7979368  26.2303399  93.7386369 120.5282757  25.9688687  94.2994072
 119.1886314  25.4932121  93.7788437 117.8794665  24.3711262  94.3360820
 117.1527829  24.2367227  93.7277312 117.4641952  24.6788091  95.1417538
 105.7024842  28.0901192 102.1008193 106.6227851  28.2679791 102.2948240
 105.6674425  27.1457237 101.9487893 104.0029066  21.9633422  80.5762422
 103.0960522  21.6666535  80.6525135 104.2805047  21.6663240  79.7096708
  94.9207007  23.2839785  91.0261468  94.6009791  22.4305093  90.7335842
  94.3740435  23.4988363  91.7819435  98.6986914  26.0002226  94.7430975
  98.9172924  26.9319334  94.7619008  99.1112688  25.6410201  95.5285778
 105.6191132  16.5070312  86.7306663 104.8091860  16.1617397  87.1061909
 106.3075549  16.1977855  87.3194274 107.5481680  15.5848358  88.3530960
 108.1012719  16.0043812  89.0120983 107.7851767  14.6584106  88.3953916
 103.5714779  21.5735432 104.1333723 103.4711506  22.5229789 104.0645815
 103.3536321  21.2453671 103.2609794 102.7727851  18.8220357  80.7174401
 103.6347015  19.1475255  80.9770218 102.9578195  18.0351853  80.2047467
  94.7895267  26.9042697  92.9954590  94.0958738  26.4896650  92.4824544
  95.5368258  26.9463233  92.3988008 110.9260487  17.6948884  87.8609624
 110.3459156  18.3533688  87.4787676 110.6596420  16.8726228  87.4497041
 109.3764054  17.0953941  90.0630944 109.8763832  17.2070476  89.2545263
 110.0199662  16.7914994  90.7031753 103.4346050  25.0032571 102.9498785
 102.9513131  25.8032931 103.1562674 103.5206989  25.0140516 101.9966229
  96.7032009  26.8360951  90.8720604  96.6802697  26.9348638  89.9202488
  97.0132646  27.6826101  91.1937771  99.3619387  28.8937106  94.9867219
 100.3162641  28.8621048  94.9197150  99.1631911  28.4327729  95.8017445
  99.9518769  27.4638222  97.5538017 100.7711658  27.9582300  97.5772854
 100.2255577  26.5470190  97.5255584 109.7085365  19.8548974  86.9165972
 108.8211220  20.1398625  86.6986167 110.1239354  19.6942737  86.0693249
 113.0599901  19.8795495  90.6320311 113.8360292  20.3691947  90.9044928
 112.3348036  20.3053549  91.0892181 115.4972460  20.5923114  91.6894252
 116.0916951  20.3518850  90.9787560 115.5699044  19.8730245  92.3167788
  97.7169616  34.4356725  92.0037417  97.5824084  33.6757126  91.4375415
  97.3001678  35.1597625  91.5366206 108.8528579  29.6193649  81.0113992
 109.5564429  29.8243651  81.6271648 108.1291228  30.1870410  81.2763076
 109.6826389  25.3703510  87.1316262 109.6261590  25.8272061  86.2923895
 110.2354732  24.6094194  86.9539105 113.4931195  21.1593242  87.9566382
 113.2368129  20.7589877  88.7874589 112.8684063  21.8737036  87.8316521
 117.8043533  23.8989315  90.4637673 117.2443091  23.9682504  91.2369235
 117.1987036  23.7230300  89.7437169 100.8738742  35.3326042  92.2155859
 100.7571126  36.2771475  92.1134550 100.0531188  35.0299604  92.6041659
 110.7615276  30.0576178  83.0612452 111.5960880  29.6257376  82.8789927
 110.5999619  29.8858191  83.9889347 110.4161168  26.5608291  84.4268791
 110.3609972  26.3952563  83.4857235 109.7907224  27.2684324  84.5830981
  95.2053683  21.7976355  98.2530214  95.8512547  21.2875309  98.7417439
  94.9970834  22.5345037  98.8273639 107.7307076  28.8657203 103.7522354
 108.5998235  29.0397855 103.3908989 107.2513827  29.6851620 103.6298084
 103.7257294  16.0616400  84.0054110 103.7135964  17.0058240  84.1622381
 104.6180716  15.8786545  83.7113571 101.8993256  35.9854304  95.4311788
 102.8020502  36.0177914  95.7478283 101.6730626  35.0554755  95.4458124
 103.6546858  34.7385290  92.0921866 102.7042489  34.7387152  91.9786239
 103.9579344  33.9918025  91.5757901 107.5409413  12.6559177  88.2600047
 106.7741809  12.1017663  88.4056729 107.9520118  12.7281045  89.1214198
  99.5451174  18.9443973 102.3505228 100.4082636  18.5880777 102.5608552
  98.9716585  18.6057867 103.0380632 119.3899551  40.5745829  93.1567629
 120.0277961  40.4552576  92.4530969 119.2720394  41.5226673  93.2155581
 116.1989258  40.5273257  93.0929154 115.8607769  40.4114322  92.2049688
 117.0679026  40.1264422  93.0730160 112.0576073  42.3808733  89.0826044
 111.4940938  42.2898670  88.3142332 111.9428468  41.5608638  89.5628537
 116.6809041  41.6808109  99.0515359 116.6697681  41.2860907  98.1795863
 116.8429680  40.9474181  99.6449131 109.6040505  43.8759925  91.9210265
 110.3961797  43.5350750  91.5056564 109.8437155  43.9854900  92.8412418
 117.6375632  46.0479701  84.3940509 116.9863612  46.6333782  84.0074523
 118.4319995  46.5785896  84.4535547 111.5631259  43.1368838  84.7927644
 112.3362135  42.5897825  84.6540520 111.9156658  44.0013088  85.0042105
 113.4016302  44.4645221  97.9994543 113.1106168  45.3690851  97.8841209
 114.0373286  44.5061748  98.7138613 114.3272509  41.8422069  94.5895903
 114.9236081  41.6178091  93.8752866 114.3847480  41.1006815  95.1921351
 113.8997537  39.2961504  82.4246094 114.1523058  38.7743026  81.6629557
 112.9622096  39.1327650  82.5272777 118.9440820  38.2997283  90.2320837
 119.7303909  37.8816706  89.8811254 119.2079524  39.2043375  90.4002485
 119.1150897  43.7370133  84.9309494 118.4796730  43.8104760  85.6430398
 118.7848304  44.3263732  84.2528573 124.3449247  38.2372516  91.1353815
 125.0774419  37.6671733  91.3691645 123.5888603  37.8494116  91.5760321
 113.6193826  41.1989610  84.6270469 113.5030084  40.5234514  85.2951553
 113.7296086  40.7121984  83.8102622 115.9625367  40.6599757  88.3317158
 115.5983574  40.1330378  89.0430079 116.8192483  40.2698226  88.1583643
 121.8674667  31.9494090  95.5948424 121.5357992  32.8189501  95.3709639
 121.2720281  31.6330374  96.2742454 115.6030854  35.6889657  83.3278506
 115.7705256  36.5569894  83.6948977 115.4128023  35.8516939  82.4039796
 118.3606187  44.1506636  94.9944337 118.0606910  45.0531675  94.8860144
 118.0157246  43.8838819  95.8465490 111.8118668  40.6020433  91.0281041
 110.8869165  40.4696647  91.2358733 112.0603081  41.3814652  91.5250984
 121.7603331  36.6689176  92.6741774 120.8520208  36.6004585  92.3800535
 121.7090926  37.1461121  93.5023600 115.5820074  38.1447315  84.3125173
 115.4619700  38.5904365  85.1510653 114.8872663  38.4932632  83.7538711
 109.1727479  40.2453706  91.8624830 109.3019860  40.4988185  92.7764242
 108.4924931  40.8381414  91.5429485 113.3426967  50.9150956  87.9615304
 113.2650996  51.8658781  88.0403785 112.7388610  50.5696829  88.6190231
 115.8344196  38.0878822 100.6176671 115.0577530  38.6472742 100.6079536
 116.4734759  38.5735605 101.1391541 123.6264977  34.8705615  94.4519648
 122.9839357  35.1638148  93.8059443 123.1219905  34.7558535  95.2572845
 121.2805141  38.6168788  85.1405507 122.1922997  38.8496175  84.9653205
 120.7714788  39.2005832  84.5780586 114.0890569  40.8964275 100.1794638
 114.8305253  41.4349319  99.9029462 113.3827554  41.5230564 100.3366190
 119.5645908  43.0393416  98.7766800 119.9729264  42.5975826  98.0321432
 118.8423170  42.4646043  99.0300993 115.9176978  37.9766022  96.1500357
 116.7638174  38.4005436  96.2935006 115.8575616  37.3199647  96.8438920
 119.8874723  43.5994606  92.5319089 119.2583585  43.7640320  91.8295157
 119.5000385  44.0136216  93.3030053 123.7663955  44.5349044  89.8863452
 123.0814993  44.9147945  89.3360486 123.8507804  45.1444371  90.6195400
 119.0676424  35.6370391  97.8081530 118.8237356  36.3912451  97.2715806
 119.3436354  36.0155738  98.6428777 121.0214886  42.1809003  96.4858796
 121.2331782  42.8240763  95.8093177 120.9744635  41.3471320  96.0180726
 118.6241115  34.7926824  93.3895368 117.7625594  35.0908077  93.6812106
 118.6503550  35.0097223  92.4576401 115.4402685  43.3369014  89.7969174
 115.9041030  43.6156717  89.0073796 115.1759483  42.4352459  89.6142264
 112.3326766  42.8840496  92.7348937 112.9028123  43.3127764  92.0966422
 112.9234878  42.6023081  93.4333123 114.3771571  39.4592167  86.6058739
 115.0795614  39.9113210  87.0732665 114.0452199  38.8175986  87.2338632
 112.8251932  38.0503923 100.9809948 112.1950593  38.7320204 101.2145345
 112.7188020  37.9387005 100.0363087 108.1196905  37.7175719  91.9075872
 107.3295959  37.9733248  91.4315983 108.6108152  38.5324057  92.0127913
 122.1360714  45.0580959  94.6581153 122.9578158  44.6561146  94.3763835
 122.1323117  44.9549193  95.6097269 110.0711650  38.0820299  88.8659349
 109.2742813  38.1938993  89.3842845 109.8437242  38.4206951  88.0000240
 115.9017318  44.6065002  96.8141864 115.9661750  45.0685409  97.6500036
 115.1928242  43.9762367  96.9424174 106.4034608  37.9706210  94.3390863
 106.6542646  38.8553220  94.6048439 106.9394156  37.7910811  93.5665955
 130.2266707  41.4019707  91.0066125 129.4730416  40.8327105  90.8510129
 130.3614249  41.3682372  91.9536759 115.6165335  46.2733109  86.6820844
 115.4811010  47.1184645  87.1105692 116.1575148  46.4752387  85.9186778
 112.1032675  32.3524689 103.3435199 111.7099621  31.7990888 104.0182844
 112.9198815  32.6635268 103.7341717 109.0694733  43.7908547  87.2548769
 109.5819253  44.5851798  87.4054334 109.7217446  43.0934838  87.1882371
 110.8789618  46.9074304  89.3371522 111.0556246  47.8292268  89.1492506
 111.6746451  46.5932723  89.7665902 115.0200636  33.7682568 100.9355456
 115.7610349  34.3689721 100.8559918 115.2518559  33.0260206 100.3773498
 110.1641974  38.9538936  99.2133686 110.0495489  38.0524193  99.5140785
 109.3086492  39.2002632  98.8618502 117.2433812  46.8956676 100.8121186
 116.7997666  46.1093054 100.4942091 117.9051025  47.0835826 100.1465077
 112.0020933  48.4252477  95.3381865 112.5528358  48.2969541  94.5658859
 111.1632409  48.7247366  94.9876758 119.3415050  47.1759476  98.8402587
 119.3233525  47.9968357  98.3482857 120.2634970  47.0513551  99.0652729
 115.7988104  44.6903605  99.6826096 116.3316441  43.9291893  99.4525404
 115.2702185  44.3977257 100.4250250 118.9657799  29.7963671  95.2119738
 118.6222068  30.6865313  95.1358848 119.3336762  29.6065329  94.3489323
 107.0343650  42.1197202  88.0308340 107.8718872  42.5294210  87.8142047
 107.2121917  41.1796644  88.0008534 118.9308082  39.7872282  83.7192173
 118.4154705  40.5576887  83.9580560 118.6585390  39.1137418  84.3425234
 116.5155193  34.6321983  88.7777411 115.6596789  34.2428834  88.5983050
 116.9282145  34.7113944  87.9177197 118.0454339  32.1668326  93.1768971
 117.5419135  32.1298462  92.3636776 118.3384946  33.0761069  93.2365628
 114.2897225  32.2507056  92.1835153 115.1550222  32.0549865  91.8241042
 114.3574734  32.0217408  93.1104509 123.9042356  42.5404637  85.6545346
 123.1271799  42.2015796  85.2100508 124.5833837  42.5457260  84.9800311
 118.7194385  37.6599374  85.5451954 118.4144521  37.9745524  86.3962097
 119.6724827  37.7380794  85.5879287 117.1640817  43.8189598  87.1944908
 116.6362178  43.0842357  86.8818145 116.6628320  44.5964274  86.9484876
 122.1433663  42.0138618  92.3111954 121.4857337  42.7037880  92.3992083
 122.9474062  42.4035050  92.6545941 111.8959544  34.4809264  89.5551519
 112.4703296  34.2584446  88.8224712 112.4830527  34.5497959  90.3080121
 120.9539122  40.3682991  90.3615896 121.4671003  41.0012983  90.8637606
 121.6040346  39.7684186  89.9959256 112.2229132  36.5113725  83.5747405
 111.3866444  36.8488412  83.8956679 112.0833901  36.3762705  82.6374542
 114.1982212  31.3550513  88.2826589 113.5446624  31.0399530  87.6583204
 114.1562686  30.7326253  89.0086412 115.3093417  41.6369808  80.1979881
 114.4020479  41.4059061  80.3971030 115.8064449  40.8407427  80.3853862
 118.2161496  50.3467315  83.1176567 117.5423195  50.6499012  83.7261525
 118.6027318  51.1496396  82.7682024 117.4319952  37.8432446  92.6074236
 116.5142514  38.0647393  92.4495925 117.8480096  37.9178757  91.7485944
 118.2155000  39.2423862  87.7376917 118.9626819  39.7545259  87.4284039
 118.4846590  38.9207915  88.5981310 116.4881650  41.7382403  84.7203871
 115.5792870  41.4541436  84.8176341 116.5176734  42.1581481  83.8607178
 121.7200918  45.3488992  88.4895039 121.2663245  44.5079902  88.5460229
 121.0894885  45.9850391  88.8269819 120.6633837  36.2780978  89.7195706
 119.9256594  35.7658365  90.0505949 120.9160611  35.8381360  88.9078983
 120.1633857  47.1865489  89.4244857 120.4556831  47.7470546  88.7057222
 120.6732478  47.4794050  90.1798016 120.7645465  29.0557230  90.3137475
 121.0704342  28.1954594  90.0263390 121.4898070  29.6474851  90.1136469
 107.0569821  39.4587917  88.7019073 106.8594221  38.8657278  87.9770140
 106.5016485  39.1540127  89.4195012 115.0366544  39.3511023  90.8213666
 115.0915154  38.3984860  90.7456143 114.2257746  39.5070463  91.3054965
 116.1857738  43.2791147  82.0591950 115.7477168  42.5627005  81.5997587
 116.9268179  43.5067261  81.4977041 112.9758904  37.9688083  88.5804045
 112.1626770  38.2682254  88.9869237 113.4717899  37.5743772  89.2978527
 115.1267482  47.9645840  90.5138310 115.0843661  48.1906686  89.5846842
 116.0430181  47.7309215  90.6624111 118.5733116  38.4329908  97.4118939
 118.9282504  38.6601381  98.2713405 119.2205247  38.7648284  96.7896194
 124.3030853  41.5548344  88.1168268 124.1648752  41.7449940  87.1889457
 123.9467072  42.3167726  88.5736319 112.4672979  35.5406439  94.1965280
 113.1072358  35.3995198  93.4988243 111.6350510  35.2540952  93.8203882
 124.3300233  43.6224871  93.1279540 124.7636739  43.5300160  93.9762594
 125.0431813  43.5982371  92.4899556 113.2433283  44.8408869  90.3100273
 114.0373882  44.3459189  90.1082848 112.5324975  44.3126732  89.9467978
 118.0628128  47.2226965  94.6612640 118.1165150  47.7917901  95.4290356
 117.1942909  47.3928850  94.2966677 109.5516047  38.9851951  86.3860025
 108.6213635  38.9236406  86.6029987 109.6473519  38.4627904  85.5896667
 109.4701596  35.5106764  88.9738267 109.7308413  36.4252097  88.8647427
 110.2918768  35.0431206  89.1234880 110.9426521  36.9244521  96.1437091
 111.6149574  36.7161883  95.4949740 110.1156307  36.7266607  95.7042324
 125.1915782  43.6648571  95.6612425 125.3851672  44.5694382  95.9071700
 125.0916400  43.2055990  96.4951010 116.8452093  33.5506462  98.1602752
 116.1980008  34.2496411  98.0667229 117.6153108  33.9842606  98.5279001
 120.2530891  43.8155314 101.2353306 120.1016397  43.5865866 100.3183389
 120.2435570  44.7725915 101.2484651 117.0216227  41.3887227  96.2199572
 117.9508287  41.5398386  96.0468539 116.6007257  41.4771248  95.3648219
 115.8204559  45.4137891  93.9898110 115.6815645  45.0456676  94.8624048
 115.0319155  45.9285531  93.8182068 116.4152711  50.5146988  85.3323646
 116.5904467  50.0435031  86.1469269 115.7285499  51.1412754  85.5604907
 117.3709774  44.7919494  91.3786948 117.0359607  44.7520264  92.2744597
 116.8713720  44.1264210  90.9057358 111.3454018  40.1987124  96.9039529
 111.2073816  39.4667363  97.5051068 112.2558942  40.1096024  96.6223716
 120.3068966  42.1375528  81.6524007 119.6898136  41.4122356  81.5557060
 119.8385454  42.8984888  81.3091081 113.9736319  39.9107083  96.3923208
 114.6835937  39.2700275  96.3509827 113.9305627  40.1619978  97.3149389
 121.9623097  46.8474437  99.3129788 121.9035644  46.1633657  98.6460371
 122.3642616  47.5893427  98.8610414 112.6865253  36.8972301  98.2118848
 112.1502610  36.4463040  98.8640444 112.0981961  37.0318210  97.4689312
 110.9813796  53.6636350  92.1063506 111.2210395  54.2954875  92.7842525
 110.1382993  53.3124390  92.3928866 112.0967512  36.3560952  80.7745311
 111.2196978  36.2349753  80.4107558 112.5725265  35.5647031  80.5224200
 121.9640505  44.8114020  97.5443767 121.0767284  44.4739942  97.6670166
 122.5339056  44.0797052  97.7812533 103.6169652  41.1438112  90.8686819
 104.3040692  40.8299842  90.2807834 103.4617781  42.0479477  90.5954070
 108.4204374  36.0328309  95.2971842 108.3362563  35.4253978  94.5622252
 107.5987080  36.5237327  95.2981339 115.4941658  49.4715473  94.5105010
 115.4211830  50.2770444  95.0224315 115.0519051  49.6707439  93.6853032
 115.2831438  48.7087243  88.0207832 114.4998960  49.2508923  88.1146056
 115.9824183  49.2261222  88.4202073 118.5928088  34.5181872  90.6642037
 119.0896787  33.7651835  90.3443108 117.8215069  34.5546189  90.0985247
 126.4457845  40.2222238  92.3060329 126.4347722  41.1046953  91.9354262
 125.5775225  39.8693789  92.1114866 117.9540342  49.3702307  96.6663169
 118.6668314  50.0049772  96.5939071 117.4630370  49.4666173  95.8503171
 119.6757869  43.2753560  88.2380461 118.7414147  43.3955022  88.0685165
 119.8534537  42.3726026  87.9740471 115.1763057  36.6599255  90.3913722
 114.8060844  36.1070296  91.0794628 115.6722149  36.0557389  89.8388722
 123.0630420  39.1170879  88.7730495 123.5290872  39.9498870  88.6990798
 123.5137920  38.6515860  89.4775753 113.0052255  47.1196750  97.4868740
 113.7061715  47.7533233  97.6398134 112.5347370  47.4611482  96.7264379
 121.1306651  45.4614700  85.7716647 121.4066495  45.3471295  86.6810521
 120.2611150  45.0632185  85.7328820 121.0347083  31.4851466  92.8121396
 120.1210162  31.7155693  92.9803603 121.4640184  31.5689910  93.6635429
 120.8053541  39.6741358  95.3121290 120.1524991  39.9217265  94.6573743
 121.1833921  38.8605496  94.9783768 117.7660715  49.7101051  89.4149461
 117.9483110  48.8922707  89.8777213 118.5893701  49.9268743  88.9774351
 118.1002881  48.6369236  86.6764509 118.6290647  48.1261691  86.0634671
 118.3631100  48.3211766  87.5410042 116.8541114  40.4161169 101.7987327
 116.1781751  40.3155298 102.4689703 117.6768748  40.2600383 102.2623325
 108.6019973  46.6533105  94.4199843 109.1873410  45.9076793  94.5527747
 108.4044812  46.9637062  95.3036506 111.4558628  49.6884353  89.4362285
 110.7869004  50.1730480  88.9526325 111.3171498  49.9353573  90.3505663
 103.1937628  39.2238706  93.1404286 103.2321728  38.6902296  93.9341404
 102.6877921  38.6973911  92.5215263 115.5963897  51.7228096  96.0344943
 116.1482205  51.8859718  96.7994029 115.9370091  52.3132534  95.3624968
 110.5728390  34.0703246  96.6366828 110.6369717  34.9318077  96.2244226
 110.5095511  33.4577248  95.9039187 110.0480663  36.1426379 100.2839862
 110.6752702  35.7603456 100.8977387 109.1908582  35.9240581 100.6495555
 120.4474771  46.5489354 101.8893598 120.9914675  47.1619312 101.3948553
 119.8661616  47.1068932 102.4060611 106.8246206  37.9502808  86.2158217
 107.1199647  37.0413486  86.1625271 105.9234241  37.9290547  85.8939219
 118.7332284  49.6710072  93.0208625 118.6083424  48.8699812  92.5119571
 119.3911375  50.1656265  92.5322595 110.3540453  36.0258804  92.1985766
 109.6327038  36.6394772  92.0593239 111.1433708  36.5616569  92.1202412
 120.7967193  47.4719092  94.6488176 119.8497528  47.3524443  94.5766502
 121.1449966  46.5841590  94.7314437 113.1566766  33.3613231  98.4726417
 113.6801168  33.6075527  99.2352727 112.9379099  34.1933266  98.0529555
 108.5534047  35.6316905  86.3397542 108.2246753  34.7514284  86.1572648
 108.9073418  35.5764574  87.2273931 117.8013626  47.2671808  90.8492528
 117.6538588  46.3388516  91.0300098 118.6267120  47.2891899  90.3649603
 111.6675870  35.9189875  86.7073020 112.0071943  36.4475796  85.9851628
 112.1147991  36.2570281  87.4831586 121.4047748  48.0900367  91.9357401
 122.3294295  47.8843228  91.7981852 121.2363051  47.8416768  92.8446742
 114.3619311  34.3026926  96.1576088 114.0216132  33.5034739  96.5596768
 113.6558317  34.6028637  95.5852921 115.0135783  31.3876238  94.6103411
 115.8361852  30.9136717  94.4882301 115.2573847  32.1666722  95.1102097
 113.6544017  34.4164497  84.9066313 114.3752380  34.7945750  84.4030030
 113.0309322  35.1353374  85.0101291 117.7975140  35.1209646  85.8424645
 118.0138755  36.0034284  85.5413473 117.3169208  34.7295859  85.1130287
 112.5374362  38.0795359  92.4195390 112.3918942  38.3935662  93.3119671
 112.0599565  38.6980259  91.8666288 114.3970745  35.0697907  92.4676279
 114.3832313  34.1739000  92.1308577 115.1143173  35.0768571  93.1014565
 116.2496875  35.5035247  94.5129407 115.9914653  36.4252318  94.5113737
 115.7181916  35.1065682  95.2029871 121.1943064  48.6086034  87.2919492
 121.3679942  48.0432457  86.5393344 121.6871955  49.4086929  87.1098982
 107.0120024  40.6200703  95.3583051 106.4673492  41.3960511  95.4903325
 107.8899374  40.9671508  95.2002172 113.8007641  33.9512287  87.7363849
 113.9223552  33.0228933  87.9354737 113.5109683  33.9650973  86.8242165
 116.6698831  31.6367198  90.8730569 116.6920528  31.7006531  89.9182549
 117.0866890  30.7971706  91.0671075 127.0482455  41.3722457  88.9109792
 127.4913601  40.6229782  88.5128915 126.1708966  41.3632594  88.5283524
 122.1818237  47.9252799  84.3916390 122.8769141  48.5459491  84.6103705
 122.5241387  47.0748150  84.6668768 107.7986046  39.7470600  98.2513208
 107.0567782  39.8953235  98.8377838 107.4778790  40.0078865  97.3879957
 124.0809660  45.3752504  85.9203721 124.6060984  45.7139777  85.1953041
 123.9932012  44.4399520  85.7366856 115.7429708  49.2886578  98.0493598
 116.0516835  49.0435725  98.9216297 116.5405190  49.4933216  97.5612468
 115.7650320  51.4424488  90.2798974 115.3255311  50.9500866  90.9731831
 116.5158437  50.8997455  90.0391049 108.2442659  47.6336028  90.2823602
 109.0700679  47.3339800  89.9022246 107.8936711  46.8643651  90.7313391
 113.2124193  46.9862497  92.3521276 112.5904202  46.3233202  92.0523504
 113.8829060  47.0123628  91.6694924 106.4451264  45.5522355  91.2412536
 105.6083173  45.1244529  91.0596537 106.4174910  45.7454798  92.1783327
 113.2848720  35.4644285 101.9453782 113.3336876  36.3406407 101.5631552
 113.8271234  34.9221678 101.3725425 123.7703566  46.0085408 101.2254919
 122.9799109  45.9909547 100.6859418 123.5336920  46.5473702 101.9803956
 123.8901441  42.8577874  98.5387648 123.9399446  42.6927882  99.4803170
 123.7815364  41.9905133  98.1485528 112.7737700  45.5366420  85.8279736
 112.9225820  46.2201884  85.1746409 113.5804143  45.5171510  86.3429192
 121.1805203  38.8408802  99.8546954 122.0815066  38.7015267  99.5630952
 121.2553178  39.0063257 100.7945132 115.5148009  36.2175657  98.7000141
 114.6451318  36.5109223  98.4282729 115.7507489  36.8016102  99.4207404
 125.3919638  45.2774816  98.7829669 125.1004446  45.6404796  99.6193130
 124.7791769  44.5641824  98.6043001 126.5915320  42.8427696  91.3032239
 127.4262211  43.2817500  91.4669800 126.7274449  42.3666349  90.4840485
 123.6406826  40.4007430  97.2509727 124.1160947  40.5935077  96.4428578
 122.7172391  40.4566616  97.0053111 110.5290332  41.5631598  86.8340805
 110.2836374  40.6593928  87.0321015 110.6986247  41.5648748  85.8920283
 118.2187042  32.4355274  96.2165561 118.7368986  33.1716301  95.8912050
 117.8642175  32.7419267  97.0512320 109.7985980  37.2959955  84.3326967
 109.1055225  37.3704310  83.6767003 109.5537732  36.5320299  84.8548484
 118.4699637  28.8555556  91.7366458 118.7501390  28.1878746  92.3626884
 119.2550243  29.0484652  91.2241121 116.2733105  48.0314550  83.2991484
 115.7007072  48.6504738  82.8461956 116.8465899  48.5813912  83.8331406
 122.3408495  37.2773190  95.4838033 123.2925918  37.3771288  95.5050257
 122.1711945  36.4851459  95.9936117 120.3622874  34.3628774  95.6697434
 119.7672806  34.6433786  94.9743922 120.0772571  34.8522675  96.4414175
 119.4930365  48.3151701  84.4300066 120.4261038  48.2497262  84.6332942
 119.4053578  49.1507967  83.9714599 122.1218381  47.6317571  81.3904014
 122.0432013  47.2977434  82.2839772 122.9428048  48.1239339  81.3895486
 124.8196573  40.4979310  94.5980332 124.7872893  39.5595311  94.7840016
 125.4297196  40.5763347  93.8646157 116.6579904  39.3675363  80.6407536
 117.6039008  39.2381571  80.7095954 116.2794148  38.6290025  81.1176965
 124.9691061  37.2890354  94.6438616 124.4530110  36.5048810  94.4568544
 125.8531010  36.9609070  94.8085135 122.6301788  31.0331369  90.6034428
 122.4326609  30.7246457  91.4877760 123.2401494  31.7593008  90.7332358
 130.6373123  41.5595317  93.7386369 131.3676511  41.2980605  94.2994072
 130.0280068  40.8224039  93.7788437 128.7188420  39.7003180  94.3360820
 127.9921583  39.5659145  93.7277312 128.3035707  40.0080008  95.1417538
 116.5418596  43.4193109 102.1008193 117.4621606  43.5971708 102.2948240
 116.5068179  42.4749155 101.9487893 114.8422821  37.2925340  80.5762422
 113.9354276  36.9958452  80.6525135 115.1198802  36.9955158  79.7096708
 105.7600761  38.6131703  91.0261468 105.4403545  37.7597011  90.7335842
 105.2134189  38.8280281  91.7819435 109.5380669  41.3294144  94.7430975
 109.7566678  42.2611252  94.7619008 109.9506442  40.9702118  95.5285778
 116.4584886  31.8362229  86.7306663 115.6485615  31.4909314  87.1061909
 117.1469303  31.5269773  87.3194274 118.3875435  30.9140276  88.3530960
 118.9406473  31.3335729  89.0120983 118.6245521  29.9876024  88.3953916
 114.4108534  36.9027350 104.1333723 114.3105261  37.8521707 104.0645815
 114.1930076  36.5745589 103.2609794 113.6121605  34.1512275  80.7174401
 114.4740769  34.4767173  80.9770218 113.7971949  33.3643771  80.2047467
 105.6289021  42.2334614  92.9954590 104.9352493  41.8188567  92.4824544
 106.3762012  42.2755151  92.3988008 121.7654242  33.0240801  87.8609624
 121.1852911  33.6825605  87.4787676 121.4990174  32.2018146  87.4497041
 120.2157808  32.4245859  90.0630944 120.7157587  32.5362393  89.2545263
 120.8593416  32.1206912  90.7031753 114.2739804  40.3324489 102.9498785
 113.7906886  41.1324849 103.1562674 114.3600743  40.3432433 101.9966229
 107.5425764  42.1652868  90.8720604 107.5196452  42.2640555  89.9202488
 107.8526400  43.0118019  91.1937771 110.2013141  44.2229023  94.9867219
 111.1556395  44.1912966  94.9197150 110.0025665  43.7619647  95.8017445
 110.7912524  42.7930139  97.5538017 111.6105413  43.2874218  97.5772854
 111.0649331  41.8762107  97.5255584 120.5479120  35.1840892  86.9165972
 119.6604975  35.4690542  86.6986167 120.9633109  35.0234655  86.0693249
 123.8993656  35.2087413  90.6320311 124.6754046  35.6983865  90.9044928
 123.1741790  35.6345467  91.0892181 126.3366215  35.9215032  91.6894252
 126.9310705  35.6810768  90.9787560 126.4092798  35.2022162  92.3167788
 108.5563370  49.7648643  92.0037417 108.4217838  49.0049044  91.4375415
 108.1395433  50.4889543  91.5366206 119.6922333  44.9485566  81.0113992
 120.3958183  45.1535569  81.6271648 118.9684982  45.5162328  81.2763076
 120.5220144  40.6995428  87.1316262 120.4655345  41.1563979  86.2923895
 121.0748486  39.9386112  86.9539105 124.3324949  36.4885159  87.9566382
 124.0761884  36.0881795  88.7874589 123.7077818  37.2028953  87.8316521
 128.6437287  39.2281233  90.4637673 128.0836845  39.2974422  91.2369235
 128.0380791  39.0522217  89.7437169 111.7132496  50.6617960  92.2155859
 111.5964880  51.6063392  92.1134550 110.8924942  50.3591521  92.6041659
 121.6009031  45.3868095  83.0612452 122.4354635  44.9549294  82.8789927
 121.4393374  45.2150109  83.9889347 121.2554923  41.8900209  84.4268791
 121.2003727  41.7244480  83.4857235 120.6300978  42.5976242  84.5830981
 106.0447438  37.1268273  98.2530214 106.6906301  36.6167227  98.7417439
 105.8364589  37.8636955  98.8273639 118.5700830  44.1949121 103.7522354
 119.4391990  44.3689773 103.3908989 118.0907582  45.0143537 103.6298084
 114.5651048  31.3908318  84.0054110 114.5529718  32.3350158  84.1622381
 115.4574470  31.2078463  83.7113571 112.7387010  51.3146222  95.4311788
 113.6414257  51.3469832  95.7478283 112.5124380  50.3846673  95.4458124
 114.4940612  50.0677208  92.0921866 113.5436243  50.0679070  91.9786239
 114.7973098  49.3209943  91.5757901 118.3803168  27.9851094  88.2600047
 117.6135564  27.4309581  88.4056729 118.7913873  28.0572963  89.1214198
 110.3844929  34.2735890 102.3505228 111.2476390  33.9172695 102.5608552
 109.8110340  33.9349785 103.0380632 130.2293306  55.9037747  93.1567629
 130.8671716  55.7844494  92.4530969 130.1114149  56.8518591  93.2155581
 127.0383012  55.8565175  93.0929154 126.7001524  55.7406239  92.2049688
 127.9072780  55.4556340  93.0730160 122.8969828  57.7100651  89.0826044
 122.3334693  57.6190588  88.3142332 122.7822223  56.8900556  89.5628537
 127.5202795  57.0100026  99.0515359 127.5091436  56.6152825  98.1795863
 127.6823435  56.2766099  99.6449131 120.4434260  59.2051843  91.9210265
 121.2355552  58.8642667  91.5056564 120.6830910  59.3146818  92.8412418
 128.4769386  61.3771619  84.3940509 127.8257366  61.9625699  84.0074523
 129.2713749  61.9077814  84.4535547 122.4025014  58.4660756  84.7927644
 123.1755890  57.9189743  84.6540520 122.7550412  59.3305005  85.0042105
 124.2410056  59.7937138  97.9994543 123.9499922  60.6982769  97.8841209
 124.8767041  59.8353666  98.7138613 125.1666263  57.1713987  94.5895903
 125.7629835  56.9470009  93.8752866 125.2241235  56.4298732  95.1921351
 124.7391291  54.6253422  82.4246094 124.9916812  54.1034943  81.6629557
 123.8015851  54.4619567  82.5272777 129.7834574  53.6289200  90.2320837
 130.5697663  53.2108624  89.8811254 130.0473279  54.5335293  90.4002485
 129.9544652  59.0662051  84.9309494 129.3190485  59.1396677  85.6430398
 129.6242058  59.6555650  84.2528573 135.1843001  53.5664434  91.1353815
 135.9168173  52.9963650  91.3691645 134.4282357  53.1786034  91.5760321
 124.4587580  56.5281528  84.6270469 124.3423838  55.8526431  85.2951553
 124.5689840  56.0413902  83.8102622 126.8019121  55.9891675  88.3317158
 126.4377328  55.4622296  89.0430079 127.6586237  55.5990144  88.1583643
 132.7068422  47.2786008  95.5948424 132.3751747  48.1481419  95.3709639
 132.1114035  46.9622292  96.2742454 126.4424608  51.0181575  83.3278506
 126.6099010  51.8861811  83.6948977 126.2521777  51.1808857  82.4039796
 129.1999941  59.4798554  94.9944337 128.9000664  60.3823593  94.8860144
 128.8551001  59.2130737  95.8465490 122.6512423  55.9312351  91.0281041
 121.7262919  55.7988565  91.2358733 122.8996836  56.7106570  91.5250984
 132.5997085  51.9981094  92.6741774 131.6913962  51.9296502  92.3800535
 132.5484681  52.4753039  93.5023600 126.4213829  53.4739232  84.3125173
 126.3013454  53.9196283  85.1510653 125.7266417  53.8224550  83.7538711
 120.0121234  55.5745624  91.8624830 120.1413615  55.8280103  92.7764242
 119.3318685  56.1673332  91.5429485 124.1820721  66.2442874  87.9615304
 124.1044751  67.1950699  88.0403785 123.5782365  65.8988747  88.6190231
 126.6737951  53.4170739 100.6176671 125.8971285  53.9764660 100.6079536
 127.3128514  53.9027522 101.1391541 134.4658731  50.1997532  94.4519648
 133.8233112  50.4930065  93.8059443 133.9613660  50.0850453  95.2572845
 132.1198895  53.9460705  85.1405507 133.0316751  54.1788092  84.9653205
 131.6108542  54.5297750  84.5780586 124.9284323  56.2256193 100.1794638
 125.6699008  56.7641237  99.9029462 124.2221309  56.8522482 100.3366190
 130.4039663  58.3685333  98.7766800 130.8123019  57.9267744  98.0321432
 129.6816924  57.7937961  99.0300993 126.7570733  53.3057940  96.1500357
 127.6031928  53.7297354  96.2935006 126.6969371  52.6491564  96.8438920
 130.7268477  58.9286524  92.5319089 130.0977340  59.0932238  91.8295157
 130.3394140  59.3428133  93.3030053 134.6057709  59.8640962  89.8863452
 133.9208747  60.2439863  89.3360486 134.6901559  60.4736288  90.6195400
 129.9070178  50.9662308  97.8081530 129.6631110  51.7204369  97.2715806
 130.1830109  51.3447656  98.6428777 131.8608641  57.5100921  96.4858796
 132.0725536  58.1532681  95.8093177 131.8138389  56.6763237  96.0180726
 129.4634870  50.1218741  93.3895368 128.6019349  50.4199995  93.6812106
 129.4897305  50.3389140  92.4576401 126.2796439  58.6660932  89.7969174
 126.7434785  58.9448635  89.0073796 126.0153237  57.7644377  89.6142264
 123.1720520  58.2132414  92.7348937 123.7421877  58.6419682  92.0966422
 123.7628632  57.9314998  93.4333123 125.2165325  54.7884084  86.6058739
 125.9189369  55.2405128  87.0732665 124.8845954  54.1467903  87.2338632
 123.6645687  53.3795841 100.9809948 123.0344347  54.0612122 101.2145345
 123.5581775  53.2678923 100.0363087 118.9590659  53.0467637  91.9075872
 118.1689713  53.3025166  91.4315983 119.4501907  53.8615975  92.0127913
 132.9754469  60.3872876  94.6581153 133.7971913  59.9853064  94.3763835
 132.9716872  60.2841110  95.6097269 120.9105405  53.4112216  88.8659349
 120.1136568  53.5230911  89.3842845 120.6830997  53.7498869  88.0000240
 126.7411072  59.9356920  96.8141864 126.8055505  60.3977327  97.6500036
 126.0321996  59.3054284  96.9424174 117.2428362  53.2998128  94.3390863
 117.4936401  54.1845137  94.6048439 117.7787911  53.1202729  93.5665955
 141.0660462  56.7311625  91.0066125 140.3124170  56.1619023  90.8510129
 141.2008003  56.6974289  91.9536759 126.4559090  61.6025027  86.6820844
 126.3204765  62.4476563  87.1105692 126.9968902  61.8044305  85.9186778
 122.9426430  47.6816607 103.3435199 122.5493375  47.1282805 104.0182844
 123.7592570  47.9927185 103.7341717 119.9088487  59.1200465  87.2548769
 120.4213008  59.9143715  87.4054334 120.5611200  58.4226756  87.1882371
 121.7183372  62.2366221  89.3371522 121.8950000  63.1584186  89.1492506
 122.5140206  61.9224641  89.7665902 125.8594391  49.0974486 100.9355456
 126.6004104  49.6981639 100.8559918 126.0912313  48.3552124 100.3773498
 121.0035729  54.2830853  99.2133686 120.8889244  53.3816110  99.5140785
 120.1480246  54.5294550  98.8618502 128.0827566  62.2248594 100.8121186
 127.6391421  61.4384972 100.4942091 128.7444780  62.4127744 100.1465077
 122.8414688  63.7544395  95.3381865 123.3922113  63.6261458  94.5658859
 122.0026163  64.0539284  94.9876758 130.1808804  62.5051393  98.8402587
 130.1627280  63.3260274  98.3482857 131.1028724  62.3805469  99.0652729
 126.6381859  60.0195523  99.6826096 127.1710195  59.2583811  99.4525404
 126.1095940  59.7269175 100.4250250 129.8051554  45.1255589  95.2119738
 129.4615823  46.0157231  95.1358848 130.1730516  44.9357247  94.3489323
 117.8737404  57.4489119  88.0308340 118.7112626  57.8586128  87.8142047
 118.0515672  56.5088562  88.0008534 129.7701836  55.1164200  83.7192173
 129.2548460  55.8868805  83.9580560 129.4979145  54.4429336  84.3425234
 127.3548947  49.9613901  88.7777411 126.4990544  49.5720751  88.5983050
 127.7675899  50.0405862  87.9177197 128.8848094  47.4960244  93.1768971
 128.3812890  47.4590379  92.3636776 129.1778701  48.4052987  93.2365628
 125.1290980  47.5798974  92.1835153 125.9943977  47.3841782  91.8241042
 125.1968489  47.3509326  93.1104509 134.7436110  57.8696555  85.6545346
 133.9665553  57.5307714  85.2100508 135.4227591  57.8749178  84.9800311
 129.5588139  52.9891292  85.5451954 129.2538275  53.3037441  86.3962097
 130.5118582  53.0672712  85.5879287 128.0034571  59.1481515  87.1944908
 127.4755933  58.4134275  86.8818145 127.5022074  59.9256192  86.9484876
 132.9827417  57.3430536  92.3111954 132.3251092  58.0329797  92.3992083
 133.7867817  57.7326968  92.6545941 122.7353299  49.8101182  89.5551519
 123.3097051  49.5876363  88.8224712 123.3224281  49.8789876  90.3080121
 131.7932876  55.6974909  90.3615896 132.3064758  56.3304900  90.8637606
 132.4434100  55.0976104  89.9959256 123.0622886  51.8405643  83.5747405
 122.2260198  52.1780329  83.8956679 122.9227656  51.7054623  82.6374542
 125.0375967  46.6842431  88.2826589 124.3840379  46.3691448  87.6583204
 124.9956441  46.0618171  89.0086412 126.1487171  56.9661726  80.1979881
 125.2414233  56.7350979  80.3971030 126.6458203  56.1699345  80.3853862
 128.2713707  53.1724364  92.6074236 127.3536268  53.3939311  92.4495925
 128.6873851  53.2470675  91.7485944 129.0548755  54.5715780  87.7376917
 129.8020574  55.0837177  87.4284039 129.3240344  54.2499833  88.5981310
 127.3275405  57.0674321  84.7203871 126.4186624  56.7833353  84.8176341
 127.3570489  57.4873399  83.8607178 132.5594672  60.6780910  88.4895039
 132.1056999  59.8371820  88.5460229 131.9288639  61.3142308  88.8269819
 131.5027592  51.6072896  89.7195706 130.7650349  51.0950282  90.0505949
 131.7554365  51.1673278  88.9078983 131.0027612  62.5157407  89.4244857
 131.2950586  63.0762464  88.7057222 131.5126232  62.8085968  90.1798016
 131.6039219  44.3849148  90.3137475 131.9098096  43.5246512  90.0263390
 132.3291824  44.9766768  90.1136469 117.8963575  54.7879835  88.7019073
 117.6987975  54.1949195  87.9770140 117.3410239  54.4832045  89.4195012
 125.8760299  54.6802941  90.8213666 125.9308909  53.7276778  90.7456143
 125.0651501  54.8362380  91.3054965 127.0251493  58.6083064  82.0591950
 126.5870923  57.8918923  81.5997587 127.7661934  58.8359179  81.4977041
 123.8152659  53.2980001  88.5804045 123.0020524  53.5974171  88.9869237
 124.3111653  52.9035690  89.2978527 125.9661237  63.2937758  90.5138310
 125.9237416  63.5198604  89.5846842 126.8823936  63.0601132  90.6624111
 129.4126871  53.7621825  97.4118939 129.7676258  53.9893299  98.2713405
 130.0599002  54.0940202  96.7896194 135.1424607  56.8840261  88.1168268
 135.0042506  57.0741857  87.1889457 134.7860826  57.6459644  88.5736319
 123.3066734  50.8698356  94.1965280 123.9466113  50.7287116  93.4988243
 122.4744264  50.5832870  93.8203882 135.1693987  58.9516788  93.1279540
 135.6030494  58.8592077  93.9762594 135.8825568  58.9274289  92.4899556
 124.0827038  60.1700787  90.3100273 124.8767636  59.6751107  90.1082848
 123.3718730  59.6418650  89.9467978 128.9021882  62.5518882  94.6612640
 128.9558904  63.1209819  95.4290356 128.0336663  62.7220767  94.2966677
 120.3909801  54.3143869  86.3860025 119.4607389  54.2528324  86.6029987
 120.4867273  53.7919821  85.5896667 120.3095350  50.8398681  88.9738267
 120.5702167  51.7544015  88.8647427 121.1312522  50.3723124  89.1234880
 121.7820275  52.2536439  96.1437091 122.4543329  52.0453801  95.4949740
 120.9550062  52.0558525  95.7042324 136.0309537  58.9940489  95.6612425
 136.2245427  59.8986299  95.9071700 135.9310155  58.5347908  96.4951010
 127.6845847  48.8798379  98.1602752 127.0373762  49.5788329  98.0667229
 128.4546863  49.3134523  98.5279001 131.0924645  59.1447232 101.2353306
 130.9410152  58.9157783 100.3183389 131.0829325  60.1017833 101.2484651
 127.8609982  56.7179144  96.2199572 128.7902042  56.8690304  96.0468539
 127.4401012  56.8063165  95.3648219 126.6598314  60.7429809  93.9898110
 126.5209399  60.3748593  94.8624048 125.8712910  61.2577448  93.8182068
 127.2546466  65.8438905  85.3323646 127.4298221  65.3726948  86.1469269
 126.5679254  66.4704671  85.5604907 128.2103529  60.1211412  91.3786948
 127.8753361  60.0812181  92.2744597 127.7107474  59.4556127  90.9057358
 122.1847773  55.5279042  96.9039529 122.0467571  54.7959280  97.5051068
 123.0952696  55.4387942  96.6223716 131.1462720  57.4667446  81.6524007
 130.5291891  56.7414274  81.5557060 130.6779209  58.2276806  81.3091081
 124.8130073  55.2399001  96.3923208 125.5229692  54.5992193  96.3509827
 124.7699381  55.4911896  97.3149389 132.8016852  62.1766354  99.3129788
 132.7429398  61.4925574  98.6460371 133.2036370  62.9185344  98.8610414
 123.5259007  52.2264219  98.2118848 122.9896364  51.7754957  98.8640444
 122.9375716  52.3610128  97.4689312 121.8207551  68.9928268  92.1063506
 122.0604149  69.6246792  92.7842525 120.9776747  68.6416308  92.3928866
 122.9361266  51.6852870  80.7745311 122.0590733  51.5641671  80.4107558
 123.4119019  50.8938948  80.5224200 132.8034259  60.1405938  97.5443767
 131.9161038  59.8031860  97.6670166 133.3732810  59.4088969  97.7812533
 114.4563406  56.4730030  90.8686819 115.1434446  56.1591760  90.2807834
 114.3011535  57.3771395  90.5954070 119.2598129  51.3620226  95.2971842
 119.1756317  50.7545896  94.5622252 118.4380835  51.8529245  95.2981339
 126.3335413  64.8007390  94.5105010 126.2605584  65.6062362  95.0224315
 125.8912806  64.9999356  93.6853032 126.1225192  64.0379161  88.0207832
 125.3392714  64.5800841  88.1146056 126.8217937  64.5553140  88.4202073
 129.4321842  49.8473790  90.6642037 129.9290542  49.0943752  90.3443108
 128.6608824  49.8838107  90.0985247 137.2851600  55.5514156  92.3060329
 137.2741476  56.4338871  91.9354262 136.4168979  55.1985706  92.1114866
 128.7934096  64.6994225  96.6663169 129.5062068  65.3341689  96.5939071
 128.3024125  64.7958091  95.8503171 130.5151623  58.6045477  88.2380461
 129.5807902  58.7246940  88.0685165 130.6928292  57.7017944  87.9740471
 126.0156811  51.9891173  90.3913722 125.6454599  51.4362213  91.0794628
 126.5115904  51.3849306  89.8388722 133.9024174  54.4462796  88.7730495
 134.3684627  55.2790788  88.6990798 134.3531675  53.9807778  89.4775753
 123.8446010  62.4488668  97.4868740 124.5455469  63.0825151  97.6398134
 123.3741125  62.7903400  96.7264379 131.9700406  60.7906618  85.7716647
 132.2460249  60.6763212  86.6810521 131.1004904  60.3924103  85.7328820
 131.8740837  46.8143383  92.8121396 130.9603917  47.0447610  92.9803603
 132.3033939  46.8981828  93.6635429 131.6447296  55.0033275  95.3121290
 130.9918746  55.2509183  94.6573743 132.0227676  54.1897414  94.9783768
 128.6054470  65.0392969  89.4149461 128.7876864  64.2214625  89.8777213
 129.4287456  65.2560661  88.9774351 128.9396635  63.9661154  86.6764509
 129.4684401  63.4553608  86.0634671 129.2024855  63.6503684  87.5410042
 127.6934869  55.7453086 101.7987327 127.0175506  55.6447216 102.4689703
 128.5162503  55.5892300 102.2623325 119.4413728  61.9825023  94.4199843
 120.0267165  61.2368711  94.5527747 119.2438566  62.2928980  95.3036506
 122.2952383  65.0176270  89.4362285 121.6262758  65.5022398  88.9526325
 122.1565253  65.2645491  90.3505663 114.0331383  54.5530623  93.1404286
 114.0715482  54.0194214  93.9341404 113.5271675  54.0265829  92.5215263
 126.4357652  67.0520014  96.0344943 126.9875960  67.2151635  96.7994029
 126.7763845  67.6424452  95.3624968 121.4122145  49.3995164  96.6366828
 121.4763471  50.2609995  96.2244226 121.3489265  48.7869165  95.9039187
 120.8874417  51.4718296 100.2839862 121.5146456  51.0895374 100.8977387
 120.0302336  51.2532498 100.6495555 131.2868526  61.8781271 101.8893598
 131.8308430  62.4911230 101.3948553 130.7055371  62.4360850 102.4060611
 117.6639960  53.2794725  86.2158217 117.9593401  52.3705404  86.1625271
 116.7627996  53.2582465  85.8939219 129.5726039  65.0001989  93.0208625
 129.4477178  64.1991729  92.5119571 130.2305130  65.4948183  92.5322595
 121.1934207  51.3550722  92.1985766 120.4720793  51.9686690  92.0593239
 121.9827463  51.8908487  92.1202412 131.6360947  62.8011010  94.6488176
 130.6891283  62.6816361  94.5766502 131.9843720  61.9133508  94.7314437
 123.9960521  48.6905148  98.4726417 124.5194922  48.9367445  99.2352727
 123.7772854  49.5225183  98.0529555 119.3927802  50.9608823  86.3397542
 119.0640508  50.0806202  86.1572648 119.7467172  50.9056492  87.2273931
 128.6407381  62.5963726  90.8492528 128.4932343  61.6680433  91.0300098
 129.4660874  62.6183816  90.3649603 122.5069625  51.2481793  86.7073020
 122.8465697  51.7767714  85.9851628 122.9541745  51.5862199  87.4831586
 132.2441502  63.4192285  91.9357401 133.1688050  63.2135146  91.7981852
 132.0756806  63.1708686  92.8446742 125.2013066  49.6318844  96.1576088
 124.8609886  48.8326657  96.5596768 124.4952072  49.9320554  95.5852921
 125.8529537  46.7168156  94.6103411 126.6755607  46.2428634  94.4882301
 126.0967601  47.4958640  95.1102097 124.4937772  49.7456414  84.9066313
 125.2146134  50.1237667  84.4030030 123.8703076  50.4645291  85.0101291
 128.6368895  50.4501563  85.8424645 128.8532509  51.3326201  85.5413473
 128.1562962  50.0587777  85.1130287 123.3768116  53.4087277  92.4195390
 123.2312697  53.7227580  93.3119671 122.8993320  54.0272177  91.8666288
 125.2364499  50.3989825  92.4676279 125.2226068  49.5030918  92.1308577
 125.9536927  50.4060488  93.1014565 127.0890630  50.8327165  94.5129407
 126.8308408  51.7544235  94.5113737 126.5575670  50.4357599  95.2029871
 132.0336819  63.9377952  87.2919492 132.2073696  63.3724374  86.5393344
 132.5265710  64.7378847  87.1098982 117.8513778  55.9492621  95.3583051
 117.3067246  56.7252429  95.4903325 118.7293128  56.2963426  95.2002172
 124.6401395  49.2804205  87.7363849 124.7617306  48.3520851  87.9354737
 124.3503437  49.2942891  86.8242165 127.5092585  46.9659115  90.8730569
 127.5314282  47.0298448  89.9182549 127.9260644  46.1263624  91.0671075
 137.8876210  56.7014375  88.9109792 138.3307356  55.9521700  88.5128915
 137.0102720  56.6924511  88.5283524 133.0211991  63.2544716  84.3916390
 133.7162896  63.8751409  84.6103705 133.3635141  62.4040068  84.6668768
 118.6379800  55.0762517  98.2513208 117.8961536  55.2245153  98.8377838
 118.3172545  55.3370783  97.3879957 134.9203414  60.7044422  85.9203721
 135.4454738  61.0431695  85.1953041 134.8325767  59.7691437  85.7366856
 126.5823463  64.6178496  98.0493598 126.8910589  64.3727642  98.9216297
 127.3798945  64.8225134  97.5612468 126.6044075  66.7716405  90.2798974
 126.1649065  66.2792784  90.9731831 127.3552192  66.2289373  90.0391049
 119.0836414  62.9627946  90.2823602 119.9094434  62.6631718  89.9022246
 118.7330466  62.1935568  90.7313391 124.0517947  62.3154414  92.3521276
 123.4297956  61.6525119  92.0523504 124.7222814  62.3415546  91.6694924
 117.2845019  60.8814272  91.2412536 116.4476927  60.4536447  91.0596537
 117.2568664  61.0746716  92.1783327 124.1242475  50.7936202 101.9453782
 124.1730630  51.6698325 101.5631552 124.6664989  50.2513595 101.3725425
 134.6097320  61.3377326 101.2254919 133.8192864  61.3201464 100.6859418
 134.3730675  61.8765619 101.9803956 134.7295195  58.1869792  98.5387648
 134.7793200  58.0219799  99.4803170 134.6209119  57.3197051  98.1485528
 123.6131454  60.8658338  85.8279736 123.7619574  61.5493802  85.1746409
 124.4197897  60.8463428  86.3429192 132.0198958  54.1700720  99.8546954
 132.9208820  54.0307185  99.5630952 132.0946932  54.3355175 100.7945132
 126.3541763  51.5467575  98.7000141 125.4845072  51.8401141  98.4282729
 126.5901243  52.1308020  99.4207404 136.2313392  60.6066733  98.7829669
 135.9398200  60.9696714  99.6193130 135.6185523  59.8933742  98.6043001
 137.4309074  58.1719613  91.3032239 138.2655966  58.6109417  91.4669800
 137.5668203  57.6958266  90.4840485 134.4800580  55.7299348  97.2509727
 134.9554702  55.9226994  96.4428578 133.5566146  55.7858534  97.0053111
 121.3684087  56.8923515  86.8340805 121.1230129  55.9885845  87.0321015
 121.5380002  56.8940666  85.8920283 129.0580797  47.7647192  96.2165561
 129.5762741  48.5008219  95.8912050 128.7035930  48.0711185  97.0512320
 120.6379735  52.6251873  84.3326967 119.9448979  52.6996228  83.6767003
 120.3931486  51.8612216  84.8548484 129.3093391  44.1847474  91.7366458
 129.5895145  43.5170663  92.3626884 130.0943998  44.3776570  91.2241121
 127.1126860  63.3606468  83.2991484 126.5400827  63.9796655  82.8461956
 127.6859653  63.9105830  83.8331406 133.1802249  52.6065108  95.4838033
 134.1319672  52.7063206  95.5050257 133.0105700  51.8143377  95.9936117
 131.2016629  49.6920691  95.6697434 130.6066561  49.9725704  94.9743922
 130.9166326  50.1814592  96.4414175 130.3324119  63.6443618  84.4300066
 131.2654792  63.5789180  84.6332942 130.2447332  64.4799885  83.9714599
 132.9612136  62.9609489  81.3904014 132.8825768  62.6269352  82.2839772
 133.7821803  63.4531256  81.3895486 135.6590327  55.8271228  94.5980332
 135.6266647  54.8887229  94.7840016 136.2690951  55.9055265  93.8646157
 127.4973658  54.6967281  80.6407536 128.4432763  54.5673489  80.7095954
 127.1187903  53.9581943  81.1176965 135.8084816  52.6182271  94.6438616
 135.2923864  51.8340728  94.4568544 136.6924764  52.2900988  94.8085135
 133.4695543  46.3623287  90.6034428 133.2720364  46.0538375  91.4877760
 134.0795248  47.0884926  90.7332358 141.4766877  56.8887235  93.7386369
 142.2070265  56.6272523  94.2994072 140.8673822  56.1515957  93.7788437
 139.5582174  55.0295097  94.3360820 138.8315338  54.8951062  93.7277312
 139.1429461  55.3371926  95.1417538 127.3812351  58.7485027 102.1008193
 128.3015360  58.9263626 102.2948240 127.3461934  57.8041072 101.9487893
 125.6816575  52.6217257  80.5762422 124.7748031  52.3250370  80.6525135
 125.9592556  52.3247075  79.7096708 116.5994516  53.9423621  91.0261468
 116.2797300  53.0888929  90.7335842 116.0527944  54.1572199  91.7819435
 120.3774423  56.6586062  94.7430975 120.5960433  57.5903169  94.7619008
 120.7900197  56.2994036  95.5285778 127.2978641  47.1654147  86.7306663
 126.4879369  46.8201232  87.1061909 127.9863058  46.8561691  87.3194274
 129.2269189  46.2432194  88.3530960 129.7800228  46.6627647  89.0120983
 129.4639276  45.3167942  88.3953916 125.2502288  52.2319267 104.1333723
 125.1499015  53.1813624 104.0645815 125.0323830  51.9037506 103.2609794
 124.4515360  49.4804192  80.7174401 125.3134524  49.8059091  80.9770218
 124.6365704  48.6935688  80.2047467 116.4682776  57.5626532  92.9954590
 115.7746247  57.1480485  92.4824544 117.2155767  57.6047069  92.3988008
 132.6047996  48.3532719  87.8609624 132.0246665  49.0117523  87.4787676
 132.3383929  47.5310063  87.4497041 131.0551563  47.7537777  90.0630944
 131.5551341  47.8654311  89.2545263 131.6987171  47.4498829  90.7031753
 125.1133558  55.6616406 102.9498785 124.6300640  56.4616766 103.1562674
 125.1994498  55.6724351 101.9966229 118.3819518  57.4944786  90.8720604
 118.3590206  57.5932473  89.9202488 118.6920155  58.3409937  91.1937771
 121.0406896  59.5520941  94.9867219 121.9950150  59.5204883  94.9197150
 120.8419420  59.0911565  95.8017445 121.6306278  58.1222057  97.5538017
 122.4499167  58.6166136  97.5772854 121.9043086  57.2054025  97.5255584
 131.3872874  50.5132809  86.9165972 130.4998729  50.7982460  86.6986167
 131.8026863  50.3526573  86.0693249 134.7387410  50.5379330  90.6320311
 135.5147801  51.0275783  90.9044928 134.0135545  50.9637384  91.0892181
 137.1759969  51.2506949  91.6894252 137.7704460  51.0102685  90.9787560
 137.2486553  50.5314080  92.3167788 119.3957125  65.0940560  92.0037417
 119.2611593  64.3340961  91.4375415 118.9789187  65.8181460  91.5366206
 130.5316088  60.2777484  81.0113992 131.2351938  60.4827486  81.6271648
 129.8078737  60.8454246  81.2763076 131.3613898  56.0287345  87.1316262
 131.3049099  56.4855897  86.2923895 131.9142241  55.2678030  86.9539105
 135.1718704  51.8177077  87.9566382 134.9155638  51.4173713  88.7874589
 134.5471572  52.5320871  87.8316521 139.4831042  54.5573150  90.4637673
 138.9230600  54.6266340  91.2369235 138.8774545  54.3814135  89.7437169
 122.5526251  65.9909877  92.2155859 122.4358635  66.9355310  92.1134550
 121.7318697  65.6883439  92.6041659 132.4402785  60.7160013  83.0612452
 133.2748389  60.2841212  82.8789927 132.2787128  60.5442027  83.9889347
 132.0948677  57.2192126  84.4268791 132.0397481  57.0536398  83.4857235
 131.4694733  57.9268159  84.5830981 116.8841192  52.4560191  98.2530214
 117.5300056  51.9459145  98.7417439 116.6758343  53.1928872  98.8273639
 129.4094585  59.5241038 103.7522354 130.2785744  59.6981691 103.3908989
 128.9301336  60.3435455 103.6298084 125.4044803  46.7200235  84.0054110
 125.3923473  47.6642075  84.1622381 126.2968225  46.5370381  83.7113571
 123.5780765  66.6438139  95.4311788 124.4808011  66.6761750  95.7478283
 123.3518135  65.7138590  95.4458124 125.3334367  65.3969126  92.0921866
 124.3829998  65.3970987  91.9786239 125.6366853  64.6501860  91.5757901
 129.2196922  43.3143012  88.2600047 128.4529318  42.7601499  88.4056729
 129.6307627  43.3864881  89.1214198 121.2238683  49.6027808 102.3505228
 122.0870145  49.2464613 102.5608552 120.6504094  49.2641703 103.0380632
 141.0687060  71.2329664  93.1567629 141.7065470  71.1136412  92.4530969
 140.9507903  72.1810508  93.2155581 137.8776767  71.1857092  93.0929154
 137.5395278  71.0698157  92.2049688 138.7466535  70.7848257  93.0730160
 133.7363582  73.0392569  89.0826044 133.1728447  72.9482506  88.3142332
 133.6215977  72.2192473  89.5628537 138.3596550  72.3391944  99.0515359
 138.3485190  71.9444742  98.1795863 138.5217189  71.6058017  99.6449131
 131.2828014  74.5343760  91.9210265 132.0749306  74.1934585  91.5056564
 131.5224664  74.6438735  92.8412418 139.3163141  76.7063536  84.3940509
 138.6651121  77.2917617  84.0074523 140.1107504  77.2369731  84.4535547
 133.2418768  73.7952674  84.7927644 134.0149644  73.2481661  84.6540520
 133.5944167  74.6596923  85.0042105 135.0803811  75.1229056  97.9994543
 134.7893677  76.0274687  97.8841209 135.7160795  75.1645583  98.7138613
 136.0060018  72.5005904  94.5895903 136.6023590  72.2761927  93.8752866
 136.0634989  71.7590650  95.1921351 140.6228329  68.9581118  90.2320837
 141.4091418  68.5400541  89.8811254 140.8867033  69.8627210  90.4002485
 140.7938406  74.3953968  84.9309494 140.1584239  74.4688595  85.6430398
 140.4635813  74.9847567  84.2528573 146.0236756  68.8956351  91.1353815
 146.7561928  68.3255568  91.3691645 145.2676112  68.5077952  91.5760321
 135.2981335  71.8573446  84.6270469 135.1817593  71.1818349  85.2951553
 135.4083595  71.3705820  83.8102622 137.6412876  71.3183593  88.3317158
 137.2771083  70.7914214  89.0430079 138.4979992  70.9282062  88.1583643
 143.5462176  62.6077925  95.5948424 143.2145501  63.4773336  95.3709639
 142.9507790  62.2914209  96.2742454 137.2818363  66.3473492  83.3278506
 137.4492765  67.2153729  83.6948977 137.0915532  66.5100774  82.4039796
 140.0393696  74.8090471  94.9944337 139.7394419  75.7115510  94.8860144
 139.6944755  74.5422655  95.8465490 133.4906177  71.2604268  91.0281041
 132.5656674  71.1280482  91.2358733 133.7390590  72.0398487  91.5250984
 143.4390840  67.3273012  92.6741774 142.5307717  67.2588420  92.3800535
 143.3878435  67.8044957  93.5023600 137.2607583  68.8031150  84.3125173
 137.1407209  69.2488201  85.1510653 136.5660172  69.1516468  83.7538711
 130.8514988  70.9037542  91.8624830 130.9807369  71.1572021  92.7764242
 130.1712440  71.4965250  91.5429485 137.5131705  68.7462657 100.6176671
 136.7365039  69.3056577 100.6079536 138.1522268  69.2319440 101.1391541
 145.3052486  65.5289450  94.4519648 144.6626866  65.8221983  93.8059443
 144.8007414  65.4142370  95.2572845 142.9592650  69.2752623  85.1405507
 143.8710506  69.5080010  84.9653205 142.4502297  69.8589667  84.5780586
 135.7678078  71.5548111 100.1794638 136.5092762  72.0933154  99.9029462
 135.0615063  72.1814399 100.3366190 141.2433417  73.6977251  98.7766800
 141.6516773  73.2559662  98.0321432 140.5210679  73.1229879  99.0300993
 137.5964487  68.6349858  96.1500357 138.4425683  69.0589271  96.2935006
 137.5363125  67.9783482  96.8438920 141.5662232  74.2578442  92.5319089
 140.9371094  74.4224156  91.8295157 141.1787894  74.6720051  93.3030053
 145.4451464  75.1932879  89.8863452 144.7602502  75.5731781  89.3360486
 145.5295313  75.8028206  90.6195400 140.7463933  66.2954226  97.8081530
 140.5024865  67.0496287  97.2715806 141.0223863  66.6739574  98.6428777
 142.7002395  72.8392838  96.4858796 142.9119291  73.4824598  95.8093177
 142.6532144  72.0055155  96.0180726 140.3028624  65.4510659  93.3895368
 139.4413103  65.7491913  93.6812106 140.3291059  65.6681058  92.4576401
 137.1190194  73.9952850  89.7969174 137.5828539  74.2740553  89.0073796
 136.8546992  73.0936294  89.6142264 134.0114275  73.5424331  92.7348937
 134.5815632  73.9711600  92.0966422 134.6022387  73.2606916  93.4333123
 136.0559080  70.1176002  86.6058739 136.7583123  70.5697046  87.0732665
 135.7239708  69.4759821  87.2338632 134.5039441  68.7087759 100.9809948
 133.8738102  69.3904040 101.2145345 134.3975529  68.5970840 100.0363087
 129.7984414  68.3759555  91.9075872 129.0083468  68.6317083  91.4315983
 130.2895661  69.1907893  92.0127913 143.8148223  75.7164794  94.6581153
 144.6365667  75.3144981  94.3763835 143.8110626  75.6133028  95.6097269
 131.7499159  68.7404134  88.8659349 130.9530322  68.8522828  89.3842845
 131.5224751  69.0790786  88.0000240 137.5804827  75.2648837  96.8141864
 137.6449259  75.7269244  97.6500036 136.8715751  74.6346202  96.9424174
 128.0822117  68.6290045  94.3390863 128.3330155  69.5137055  94.6048439
 128.6181665  68.4494647  93.5665955 151.9054216  72.0603542  91.0066125
 151.1517925  71.4910940  90.8510129 152.0401758  72.0266207  91.9536759
 137.2952844  76.9316945  86.6820844 137.1598519  77.7768480  87.1105692
 137.8362657  77.1336222  85.9186778 133.7820184  63.0108525 103.3435199
 133.3887130  62.4574723 104.0182844 134.5986324  63.3219103 103.7341717
 136.6988145  64.4266404 100.9355456 137.4397858  65.0273557 100.8559918
 136.9306068  63.6844041 100.3773498 131.8429483  69.6122771  99.2133686
 131.7282998  68.7108028  99.5140785 130.9874001  69.8586468  98.8618502
 138.9221321  77.5540511 100.8121186 138.4785175  76.7676890 100.4942091
 139.5838534  77.7419662 100.1465077 133.6808442  79.0836313  95.3381865
 134.2315867  78.9553376  94.5658859 132.8419918  79.3831202  94.9876758
 141.0202559  77.8343311  98.8402587 141.0021034  78.6552192  98.3482857
 141.9422479  77.7097386  99.0652729 137.4775613  75.3487441  99.6826096
 138.0103950  74.5875729  99.4525404 136.9489694  75.0561092 100.4250250
 140.6445308  60.4547507  95.2119738 140.3009577  61.3449148  95.1358848
 141.0124271  60.2649164  94.3489323 140.6095591  70.4456118  83.7192173
 140.0942214  71.2160722  83.9580560 140.3372899  69.7721254  84.3425234
 138.1942702  65.2905818  88.7777411 137.3384298  64.9012669  88.5983050
 138.6069654  65.3697779  87.9177197 139.7241848  62.8252162  93.1768971
 139.2206644  62.7882297  92.3636776 140.0172455  63.7344904  93.2365628
 135.9684734  62.9090891  92.1835153 136.8337731  62.7133700  91.8241042
 136.0362243  62.6801243  93.1104509 145.5829865  73.1988472  85.6545346
 144.8059308  72.8599632  85.2100508 146.2621346  73.2041095  84.9800311
 140.3981894  68.3183210  85.5451954 140.0932030  68.6329359  86.3962097
 141.3512336  68.3964630  85.5879287 138.8428326  74.4773433  87.1944908
 138.3149687  73.7426193  86.8818145 138.3415829  75.2548109  86.9484876
 143.8221172  72.6722454  92.3111954 143.1644846  73.3621715  92.3992083
 144.6261571  73.0618886  92.6545941 133.5747053  65.1393099  89.5551519
 134.1490805  64.9168281  88.8224712 134.1618036  65.2081794  90.3080121
 142.6326631  71.0266826  90.3615896 143.1458512  71.6596818  90.8637606
 143.2827854  70.4268022  89.9959256 133.9016641  67.1697560  83.5747405
 133.0653953  67.5072247  83.8956679 133.7621410  67.0346540  82.6374542
 135.8769721  62.0134348  88.2826589 135.2234133  61.6983365  87.6583204
 135.8350195  61.3910089  89.0086412 139.8949005  81.0051151  83.1176567
 139.2210704  81.3082847  83.7261525 140.2814827  81.8080231  82.7682024
 139.1107461  68.5016282  92.6074236 138.1930023  68.7231229  92.4495925
 139.5267605  68.5762592  91.7485944 139.8942509  69.9007697  87.7376917
 140.6414328  70.4129095  87.4284039 140.1634099  69.5791750  88.5981310
 138.1669159  72.3966238  84.7203871 137.2580379  72.1125271  84.8176341
 138.1964243  72.8165317  83.8607178 143.3988427  76.0072828  88.4895039
 142.9450754  75.1663738  88.5460229 142.7682394  76.6434226  88.8269819
 142.3421346  66.9364814  89.7195706 141.6044103  66.4242200  90.0505949
 142.5948120  66.4965195  88.9078983 141.8421366  77.8449324  89.4244857
 142.1344340  78.4054382  88.7057222 142.3519987  78.1377885  90.1798016
 142.4432974  59.7141066  90.3137475 142.7491851  58.8538429  90.0263390
 143.1685579  60.3058686  90.1136469 136.7154053  70.0094859  90.8213666
 136.7702663  69.0568695  90.7456143 135.9045255  70.1654298  91.3054965
 137.8645247  73.9374982  82.0591950 137.4264677  73.2210841  81.5997587
 138.6055688  74.1651097  81.4977041 134.6546413  68.6271919  88.5804045
 133.8414279  68.9266089  88.9869237 135.1505408  68.2327607  89.2978527
 136.8054991  78.6229675  90.5138310 136.7631170  78.8490522  89.5846842
 137.7217690  78.3893050  90.6624111 140.2520625  69.0913743  97.4118939
 140.6070013  69.3185216  98.2713405 140.8992756  69.4232120  96.7896194
 145.9818362  72.2132179  88.1168268 145.8436261  72.4033775  87.1889457
 145.6254581  72.9751562  88.5736319 134.1460488  66.1990274  94.1965280
 134.7859867  66.0579033  93.4988243 133.3138019  65.9124787  93.8203882
 146.0087742  74.2808706  93.1279540 146.4424248  74.1883995  93.9762594
 146.7219322  74.2566206  92.4899556 134.9220792  75.4992705  90.3100273
 135.7161391  75.0043025  90.1082848 134.2112484  74.9710568  89.9467978
 139.7415636  77.8810800  94.6612640 139.7952659  78.4501736  95.4290356
 138.8730418  78.0512685  94.2966677 131.1489105  66.1690599  88.9738267
 131.4095922  67.0835932  88.8647427 131.9706277  65.7015042  89.1234880
 132.6214030  67.5828356  96.1437091 133.2937083  67.3745718  95.4949740
 131.7943816  67.3850442  95.7042324 146.8703291  74.3232407  95.6612425
 147.0639181  75.2278217  95.9071700 146.7703909  73.8639826  96.4951010
 138.5239602  64.2090297  98.1602752 137.8767517  64.9080247  98.0667229
 139.2940617  64.6426441  98.5279001 141.9318400  74.4739149 101.2353306
 141.7803906  74.2449701 100.3183389 141.9223079  75.4309751 101.2484651
 138.7003736  72.0471062  96.2199572 139.6295796  72.1982222  96.0468539
 138.2794766  72.1355083  95.3648219 137.4992068  76.0721727  93.9898110
 137.3603154  75.7040511  94.8624048 136.7106664  76.5869366  93.8182068
 139.0497283  75.4503329  91.3786948 138.7147116  75.4104099  92.2744597
 138.5501229  74.7848045  90.9057358 133.0241527  70.8570959  96.9039529
 132.8861325  70.1251198  97.5051068 133.9346451  70.7679859  96.6223716
 141.9856475  72.7959364  81.6524007 141.3685645  72.0706192  81.5557060
 141.5172963  73.5568724  81.3091081 135.6523828  70.5690919  96.3923208
 136.3623446  69.9284111  96.3509827 135.6093136  70.8203813  97.3149389
 143.6410606  77.5058272  99.3129788 143.5823153  76.8217492  98.6460371
 144.0430125  78.2477262  98.8610414 134.3652762  67.5556136  98.2118848
 133.8290119  67.1046875  98.8640444 133.7769470  67.6902045  97.4689312
 132.6601305  84.3220186  92.1063506 132.8997904  84.9538710  92.7842525
 131.8170502  83.9708226  92.3928866 133.7755021  67.0144788  80.7745311
 132.8984487  66.8933589  80.4107558 134.2512774  66.2230866  80.5224200
 143.6428014  75.4697856  97.5443767 142.7554793  75.1323778  97.6670166
 144.2126565  74.7380887  97.7812533 130.0991883  66.6912144  95.2971842
 130.0150072  66.0837814  94.5622252 129.2774589  67.1821162  95.2981339
 137.1729167  80.1299308  94.5105010 137.0999339  80.9354280  95.0224315
 136.7306560  80.3291274  93.6853032 136.9618947  79.3671078  88.0207832
 136.1786469  79.9092758  88.1146056 137.6611692  79.8845058  88.4202073
 140.2715597  65.1765708  90.6642037 140.7684296  64.4235670  90.3443108
 139.5002578  65.2130024  90.0985247 148.1245354  70.8806073  92.3060329
 148.1135231  71.7630789  91.9354262 147.2562734  70.5277624  92.1114866
 139.6327851  80.0286142  96.6663169 140.3455823  80.6633607  96.5939071
 139.1417879  80.1250008  95.8503171 141.3545378  73.9337395  88.2380461
 140.4201656  74.0538857  88.0685165 141.5322046  73.0309862  87.9740471
 136.8550566  67.3183091  90.3913722 136.4848353  66.7654131  91.0794628
 137.3509658  66.7141224  89.8388722 144.7417929  69.7754714  88.7730495
 145.2078381  70.6082706  88.6990798 145.1925429  69.3099696  89.4775753
 134.6839764  77.7780586  97.4868740 135.3849224  78.4117069  97.6398134
 134.2134879  78.1195317  96.7264379 142.8094160  76.1198535  85.7716647
 143.0854004  76.0055130  86.6810521 141.9398659  75.7216020  85.7328820
 142.7134592  62.1435301  92.8121396 141.7997671  62.3739528  92.9803603
 143.1427693  62.2273745  93.6635429 142.4841050  70.3325193  95.3121290
 141.8312500  70.5801101  94.6573743 142.8621430  69.5189331  94.9783768
 139.4448224  80.3684886  89.4149461 139.6270619  79.5506542  89.8777213
 140.2681210  80.5852579  88.9774351 139.7790390  79.2953071  86.6764509
 140.3078156  78.7845526  86.0634671 140.0418609  78.9795602  87.5410042
 138.5328623  71.0745004 101.7987327 137.8569260  70.9739134 102.4689703
 139.3556257  70.9184218 102.2623325 130.2807482  77.3116941  94.4199843
 130.8660919  76.5660629  94.5527747 130.0832321  77.6220897  95.3036506
 124.8725137  69.8822541  93.1404286 124.9109237  69.3486132  93.9341404
 124.3665430  69.3557746  92.5215263 137.2751406  82.3811932  96.0344943
 137.8269714  82.5443553  96.7994029 137.6157600  82.9716369  95.3624968
 132.2515899  64.7287081  96.6366828 132.3157226  65.5901912  96.2244226
 132.1883020  64.1161083  95.9039187 131.7268172  66.8010214 100.2839862
 132.3540211  66.4187291 100.8977387 130.8696091  66.5824416 100.6495555
 142.1262280  77.2073189 101.8893598 142.6702184  77.8203147 101.3948553
 141.5449125  77.7652768 102.4060611 140.4119793  80.3293907  93.0208625
 140.2870933  79.5283647  92.5119571 141.0698884  80.8240101  92.5322595
 132.0327962  66.6842640  92.1985766 131.3114547  67.2978607  92.0593239
 132.8221217  67.2200404  92.1202412 142.4754702  78.1302927  94.6488176
 141.5285037  78.0108278  94.5766502 142.8237475  77.2425425  94.7314437
 134.8354275  64.0197066  98.4726417 135.3588677  64.2659363  99.2352727
 134.6166608  64.8517101  98.0529555 130.2321556  66.2900741  86.3397542
 129.9034262  65.4098120  86.1572648 130.5860927  66.2348409  87.2273931
 139.4801135  77.9255643  90.8492528 139.3326097  76.9972351  91.0300098
 140.3054629  77.9475734  90.3649603 133.3463379  66.5773711  86.7073020
 133.6859452  67.1059632  85.9851628 133.7935500  66.9154117  87.4831586
 143.0835257  78.7484202  91.9357401 144.0081804  78.5427064  91.7981852
 142.9150560  78.5000603  92.8446742 136.0406820  64.9610761  96.1576088
 135.7003640  64.1618574  96.5596768 135.3345826  65.2612472  95.5852921
 136.6923292  62.0460074  94.6103411 137.5149361  61.5720552  94.4882301
 136.9361355  62.8250557  95.1102097 135.3331526  65.0748332  84.9066313
 136.0539889  65.4529585  84.4030030 134.7096831  65.7937209  85.0101291
 139.4762649  65.7793481  85.8424645 139.6926264  66.6618119  85.5413473
 138.9956716  65.3879695  85.1130287 134.2161871  68.7379194  92.4195390
 134.0706451  69.0519497  93.3119671 133.7387074  69.3564095  91.8666288
 136.0758254  65.7281742  92.4676279 136.0619822  64.8322836  92.1308577
 136.7930682  65.7352406  93.1014565 137.9284384  66.1619083  94.5129407
 137.6702162  67.0836153  94.5113737 137.3969425  65.7649517  95.2029871
 142.8730573  79.2669870  87.2919492 143.0467451  78.7016292  86.5393344
 143.3659464  80.0670765  87.1098982 128.6907533  71.2784539  95.3583051
 128.1461001  72.0544347  95.4903325 129.5686883  71.6255343  95.2002172
 135.4795150  64.6096123  87.7363849 135.6011061  63.6812769  87.9354737
 135.1897192  64.6234809  86.8242165 138.3486340  62.2951033  90.8730569
 138.3708037  62.3590366  89.9182549 138.7654399  61.4555542  91.0671075
 148.7269964  72.0306293  88.9109792 149.1701110  71.2813618  88.5128915
 147.8496475  72.0216429  88.5283524 143.8605746  78.5836634  84.3916390
 144.5556650  79.2043327  84.6103705 144.2028896  77.7331985  84.6668768
 129.4773555  70.4054435  98.2513208 128.7355291  70.5537070  98.8377838
 129.1566299  70.6662701  97.3879957 145.7597169  76.0336340  85.9203721
 146.2848493  76.3723612  85.1953041 145.6719521  75.0983355  85.7366856
 137.4217217  79.9470413  98.0493598 137.7304344  79.7019560  98.9216297
 138.2192699  80.1517052  97.5612468 137.4437829  82.1008323  90.2798974
 137.0042820  81.6084702  90.9731831 138.1945946  81.5581291  90.0391049
 134.8911702  77.6446332  92.3521276 134.2691711  76.9817037  92.0523504
 135.5616568  77.6707464  91.6694924 134.9636229  66.1228120 101.9453782
 135.0124385  66.9990243 101.5631552 135.5058743  65.5805513 101.3725425
 145.4491075  76.6669243 101.2254919 144.6586618  76.6493382 100.6859418
 145.2124429  77.2057537 101.9803956 145.5688950  73.5161710  98.5387648
 145.6186955  73.3511717  99.4803170 145.4602873  72.6488969  98.1485528
 134.4525208  76.1950255  85.8279736 134.6013329  76.8785720  85.1746409
 135.2591652  76.1755345  86.3429192 142.8592712  69.4992638  99.8546954
 143.7602575  69.3599102  99.5630952 142.9340687  69.6647092 100.7945132
 137.1935518  66.8759492  98.7000141 136.3238827  67.1693058  98.4282729
 137.4294998  67.4599937  99.4207404 147.0707147  75.9358651  98.7829669
 146.7791955  76.2988632  99.6193130 146.4579278  75.2225659  98.6043001
 148.2702829  73.5011531  91.3032239 149.1049720  73.9401335  91.4669800
 148.4061958  73.0250184  90.4840485 145.3194335  71.0591266  97.2509727
 145.7948456  71.2518912  96.4428578 144.3959900  71.1150452  97.0053111
 139.8974551  63.0939109  96.2165561 140.4156495  63.8300136  95.8912050
 139.5429684  63.4003103  97.0512320 131.4773489  67.9543790  84.3326967
 130.7842734  68.0288145  83.6767003 131.2325241  67.1904134  84.8548484
 140.1487146  59.5139392  91.7366458 140.4288899  58.8462581  92.3626884
 140.9337752  59.7068487  91.2241121 137.9520614  78.6898386  83.2991484
 137.3794581  79.3088573  82.8461956 138.5253408  79.2397747  83.8331406
 144.0196004  67.9357026  95.4838033 144.9713427  68.0355123  95.5050257
 143.8499454  67.1435294  95.9936117 142.0410383  65.0212609  95.6697434
 141.4460315  65.3017622  94.9743922 141.7560080  65.5106510  96.4414175
 141.1717874  78.9735536  84.4300066 142.1048547  78.9081098  84.6332942
 141.0841087  79.8091803  83.9714599 143.8005890  78.2901406  81.3904014
 143.7219522  77.9561270  82.2839772 144.6215557  78.7823174  81.3895486
 146.4984082  71.1563146  94.5980332 146.4660402  70.2179146  94.7840016
 147.1084705  71.2347182  93.8646157 138.3367413  70.0259198  80.6407536
 139.2826517  69.8965407  80.7095954 137.9581657  69.2873860  81.1176965
 146.6478570  67.9474189  94.6438616 146.1317619  67.1632646  94.4568544
 147.5318519  67.6192906  94.8085135 144.3089297  61.6915205  90.6034428
 144.1114118  61.3830293  91.4877760 144.9189003  62.4176843  90.7332358
 152.3160632  72.2179152  93.7386369 153.0464020  71.9564440  94.2994072
 151.7067577  71.4807874  93.7788437 150.3975929  70.3587015  94.3360820
 149.6709092  70.2242980  93.7277312 149.9823216  70.6663844  95.1417538
 138.2206105  74.0776945 102.1008193 139.1409115  74.2555544 102.2948240
 138.1855688  73.1332990 101.9487893 136.5210330  67.9509175  80.5762422
 135.6141785  67.6542288  80.6525135 136.7986311  67.6538993  79.7096708
 131.2168178  71.9877979  94.7430975 131.4354187  72.9195087  94.7619008
 131.6293951  71.6285954  95.5285778 138.1372395  62.4946065  86.7306663
 137.3273124  62.1493150  87.1061909 138.8256812  62.1853608  87.3194274
 140.0662944  61.5724111  88.3530960 140.6193982  61.9919565  89.0120983
 140.3033030  60.6459860  88.3953916 136.0896043  67.5611185 104.1333723
 135.9892770  68.5105542 104.0645815 135.8717585  67.2329424 103.2609794
 135.2909114  64.8096110  80.7174401 136.1528278  65.1351008  80.9770218
 135.4759458  64.0227606  80.2047467 127.3076530  72.8918450  92.9954590
 126.6140001  72.4772403  92.4824544 128.0549521  72.9338986  92.3988008
 143.4441751  63.6824637  87.8609624 142.8640420  64.3409441  87.4787676
 143.1777683  62.8601981  87.4497041 141.8945317  63.0829694  90.0630944
 142.3945096  63.1946229  89.2545263 142.5380925  62.7790747  90.7031753
 135.9527313  70.9908324 102.9498785 135.4694395  71.7908684 103.1562674
 136.0388252  71.0016269 101.9966229 131.8800650  74.8812859  94.9867219
 132.8343904  74.8496801  94.9197150 131.6813174  74.4203482  95.8017445
 132.4700033  73.4513975  97.5538017 133.2892922  73.9458053  97.5772854
 132.7436840  72.5345943  97.5255584 142.2266629  65.8424727  86.9165972
 141.3392484  66.1274378  86.6986167 142.6420618  65.6818490  86.0693249
 145.5781165  65.8671248  90.6320311 146.3541555  66.3567700  90.9044928
 144.8529299  66.2929302  91.0892181 148.0153724  66.5798867  91.6894252
 148.6098214  66.3394603  90.9787560 148.0880307  65.8605998  92.3167788
 141.3709842  75.6069402  81.0113992 142.0745692  75.8119404  81.6271648
 140.6472491  76.1746163  81.2763076 142.2007653  71.3579263  87.1316262
 142.1442854  71.8147814  86.2923895 142.7535995  70.5969947  86.9539105
 146.0112458  67.1468995  87.9566382 145.7549393  66.7465630  88.7874589
 145.3865326  67.8612789  87.8316521 150.3224796  69.8865068  90.4637673
 149.7624354  69.9558257  91.2369235 149.7168300  69.7106053  89.7437169
 143.2796540  76.0451931  83.0612452 144.1142144  75.6133129  82.8789927
 143.1180883  75.8733944  83.9889347 142.9342432  72.5484044  84.4268791
 142.8791236  72.3828316  83.4857235 142.3088487  73.2560077  84.5830981
 127.7234947  67.7852108  98.2530214 128.3693810  67.2751062  98.7417439
 127.5152098  68.5220790  98.8273639 140.2488339  74.8532956 103.7522354
 141.1179499  75.0273608 103.3908989 139.7695091  75.6727373 103.6298084
 136.2438557  62.0492153  84.0054110 136.2317227  62.9933993  84.1622381
 137.1361979  61.8662299  83.7113571 134.4174519  81.9730057  95.4311788
 135.3201766  82.0053667  95.7478283 134.1911889  81.0430508  95.4458124
 136.1728121  80.7261044  92.0921866 135.2223752  80.7262905  91.9786239
 136.4760607  79.9793778  91.5757901 140.0590677  58.6434930  88.2600047
 139.2923073  58.0893416  88.4056729 140.4701382  58.7156799  89.1214198
 132.0632438  64.9319726 102.3505228 132.9263899  64.5756530 102.5608552
 131.4897848  64.5933620 103.0380632 151.9080815  86.5621582  93.1567629
 152.5459225  86.4428329  92.4530969 151.7901658  87.5102426  93.2155581
 148.7170521  86.5149010  93.0929154 148.3789033  86.3990075  92.2049688
 149.5860289  86.1140175  93.0730160 144.5757337  88.3684486  89.0826044
 144.0122202  88.2774423  88.3142332 144.4609732  87.5484391  89.5628537
 149.1990304  87.6683862  99.0515359 149.1878945  87.2736660  98.1795863
 149.3610944  86.9349934  99.6449131 142.1221769  89.8635678  91.9210265
 142.9143061  89.5226503  91.5056564 142.3618419  89.9730653  92.8412418
 150.1556895  92.0355454  84.3940509 149.5044875  92.6209535  84.0074523
 150.9501258  92.5661649  84.4535547 144.0812523  89.1244591  84.7927644
 144.8543399  88.5773578  84.6540520 144.4337921  89.9888841  85.0042105
 145.9197565  90.4520974  97.9994543 145.6287431  91.3566604  97.8841209
 146.5554550  90.4937501  98.7138613 146.8453772  87.8297822  94.5895903
 147.4417344  87.6053844  93.8752866 146.9028744  87.0882568  95.1921351
 146.4178800  85.2837257  82.4246094 146.6704321  84.7618779  81.6629557
 145.4803360  85.1203403  82.5272777 151.4622083  84.2873036  90.2320837
 152.2485172  83.8692459  89.8811254 151.7260788  85.1919128  90.4002485
 151.6332161  89.7245886  84.9309494 150.9977994  89.7980513  85.6430398
 151.3029567  90.3139485  84.2528573 146.1375089  87.1865363  84.6270469
 146.0211347  86.5110267  85.2951553 146.2477349  86.6997737  83.8102622
 148.4806630  86.6475510  88.3317158 148.1164837  86.1206131  89.0430079
 149.3373746  86.2573980  88.1583643 154.3855931  77.9369843  95.5948424
 154.0539256  78.8065254  95.3709639 153.7901544  77.6206127  96.2742454
 148.1212117  81.6765410  83.3278506 148.2886519  82.5445647  83.6948977
 147.9309286  81.8392692  82.4039796 150.8787450  90.1382389  94.9944337
 150.5788173  91.0407428  94.8860144 150.5338510  89.8714572  95.8465490
 144.3299932  86.5896186  91.0281041 143.4050428  86.4572400  91.2358733
 144.5784345  87.3690405  91.5250984 154.2784594  82.6564929  92.6741774
 153.3701471  82.5880338  92.3800535 154.2272190  83.1336874  93.5023600
 148.1001338  84.1323068  84.3125173 147.9800963  84.5780118  85.1510653
 147.4053926  84.4808385  83.7538711 141.6908743  86.2329459  91.8624830
 141.8201124  86.4863938  92.7764242 141.0106194  86.8257167  91.5429485
 145.8608230  96.9026709  87.9615304 145.7832260  97.8534534  88.0403785
 145.2569874  96.5572582  88.6190231 148.3525460  84.0754575 100.6176671
 147.5758794  84.6348495 100.6079536 148.9916023  84.5611358 101.1391541
 156.1446240  80.8581368  94.4519648 155.5020621  81.1513901  93.8059443
 155.6401169  80.7434288  95.2572845 153.7986404  84.6044541  85.1405507
 154.7104260  84.8371928  84.9653205 153.2896051  85.1881585  84.5780586
 146.6071832  86.8840028 100.1794638 147.3486517  87.4225072  99.9029462
 145.9008818  87.5106317 100.3366190 152.0827172  89.0269169  98.7766800
 152.4910528  88.5851579  98.0321432 151.3604433  88.4521796  99.0300993
 148.4358242  83.9641775  96.1500357 149.2819437  84.3881189  96.2935006
 148.3756879  83.3075400  96.8438920 152.4055986  89.5870359  92.5319089
 151.7764849  89.7516073  91.8295157 152.0181648  90.0011969  93.3030053
 156.2845218  90.5224797  89.8863452 155.5996256  90.9023698  89.3360486
 156.3689068  91.1320124  90.6195400 151.5857687  81.6246144  97.8081530
 151.3418619  82.3788204  97.2715806 151.8617618  82.0031491  98.6428777
 153.5396150  88.1684756  96.4858796 153.7513045  88.8116516  95.8093177
 153.4925898  87.3347073  96.0180726 151.1422379  80.7802577  93.3895368
 150.2806858  81.0783830  93.6812106 151.1684814  80.9972976  92.4576401
 147.9583948  89.3244767  89.7969174 148.4222294  89.6032470  89.0073796
 147.6940746  88.4228212  89.6142264 144.8508029  88.8716249  92.7348937
 145.4209386  89.3003517  92.0966422 145.4416141  88.5898834  93.4333123
 146.8952834  85.4467920  86.6058739 147.5976878  85.8988963  87.0732665
 146.5633463  84.8051739  87.2338632 145.3433196  84.0379676 100.9809948
 144.7131856  84.7195957 101.2145345 145.2369284  83.9262758 100.0363087
 140.6378168  83.7051472  91.9075872 139.8477222  83.9609001  91.4315983
 141.1289416  84.5199810  92.0127913 154.6541978  91.0456712  94.6581153
 155.4759422  90.6436899  94.3763835 154.6504381  90.9424946  95.6097269
 142.5892914  84.0696052  88.8659349 141.7924077  84.1814746  89.3842845
 142.3618506  84.4082704  88.0000240 148.4198581  90.5940755  96.8141864
 148.4843014  91.0561162  97.6500036 147.7109505  89.9638120  96.9424174
 138.9215871  83.9581963  94.3390863 139.1723910  84.8428973  94.6048439
 139.4575420  83.7786564  93.5665955 148.1346599  92.2608862  86.6820844
 147.9992274  93.1060398  87.1105692 148.6756411  92.4628140  85.9186778
 144.6213939  78.3400442 103.3435199 144.2280884  77.7866641 104.0182844
 145.4380079  78.6511021 103.7341717 141.5875996  89.7784300  87.2548769
 142.1000517  90.5727551  87.4054334 142.2398709  89.0810591  87.1882371
 143.3970881  92.8950057  89.3371522 143.5737509  93.8168021  89.1492506
 144.1927715  92.5808476  89.7665902 147.5381900  79.7558321 100.9355456
 148.2791613  80.3565474 100.8559918 147.7699822  79.0135959 100.3773498
 142.6823238  84.9414689  99.2133686 142.5676753  84.0399946  99.5140785
 141.8267755  85.1878385  98.8618502 149.7615075  92.8832429 100.8121186
 149.3178930  92.0968807 100.4942091 150.4232289  93.0711579 100.1465077
 144.5202197  94.4128230  95.3381865 145.0709622  94.2845294  94.5658859
 143.6813672  94.7123119  94.9876758 151.8596313  93.1635229  98.8402587
 151.8414789  93.9844110  98.3482857 152.7816233  93.0389304  99.0652729
 148.3169368  90.6779358  99.6826096 148.8497704  89.9167646  99.4525404
 147.7883449  90.3853010 100.4250250 151.4839063  75.7839424  95.2119738
 151.1403332  76.6741066  95.1358848 151.8518025  75.5941082  94.3489323
 139.5524913  88.1072955  88.0308340 140.3900135  88.5169963  87.8142047
 139.7303181  87.1672397  88.0008534 151.4489345  85.7748035  83.7192173
 150.9335969  86.5452640  83.9580560 151.1766654  85.1013172  84.3425234
 149.0336456  80.6197736  88.7777411 148.1778053  80.2304587  88.5983050
 149.4463408  80.6989697  87.9177197 150.5635603  78.1544079  93.1768971
 150.0600399  78.1174215  92.3636776 150.8566210  79.0636822  93.2365628
 146.8078489  78.2382809  92.1835153 147.6731486  78.0425618  91.8241042
 146.8755998  78.0093161  93.1104509 151.2375648  83.6475127  85.5451954
 150.9325784  83.9621277  86.3962097 152.1906091  83.7256547  85.5879287
 149.6822080  89.8065351  87.1944908 149.1543442  89.0718110  86.8818145
 149.1809583  90.5840027  86.9484876 154.6614926  88.0014371  92.3111954
 154.0038601  88.6913633  92.3992083 155.4655326  88.3910803  92.6545941
 144.4140808  80.4685017  89.5551519 144.9884560  80.2460199  88.8224712
 145.0011790  80.5373712  90.3080121 153.4720385  86.3558744  90.3615896
 153.9852267  86.9888736  90.8637606 154.1221609  85.7559939  89.9959256
 144.7410395  82.4989478  83.5747405 143.9047707  82.8364165  83.8956679
 144.6015165  82.3638458  82.6374542 146.7163476  77.3426266  88.2826589
 146.0627888  77.0275283  87.6583204 146.6743950  76.7202006  89.0086412
 147.8274680  87.6245561  80.1979881 146.9201742  87.3934814  80.3971030
 148.3245712  86.8283180  80.3853862 150.7342759  96.3343068  83.1176567
 150.0604458  96.6374765  83.7261525 151.1208581  97.1372149  82.7682024
 149.9501216  83.8308199  92.6074236 149.0323777  84.0523147  92.4495925
 150.3661360  83.9054510  91.7485944 150.7336264  85.2299615  87.7376917
 151.4808083  85.7421012  87.4284039 151.0027853  84.9083668  88.5981310
 149.0062914  87.7258156  84.7203871 148.0974133  87.4417189  84.8176341
 149.0357998  88.1457234  83.8607178 154.2382181  91.3364745  88.4895039
 153.7844508  90.4955655  88.5460229 153.6076148  91.9726144  88.8269819
 153.1815101  82.2656731  89.7195706 152.4437858  81.7534118  90.0505949
 153.4341874  81.8257113  88.9078983 152.6815121  93.1741242  89.4244857
 152.9738095  93.7346299  88.7057222 153.1913741  93.4669803  90.1798016
 153.2826728  75.0432983  90.3137475 153.5885605  74.1830347  90.0263390
 154.0079333  75.6350604  90.1136469 139.5751084  85.4463670  88.7019073
 139.3775484  84.8533031  87.9770140 139.0197748  85.1415880  89.4195012
 147.5547808  85.3386776  90.8213666 147.6096418  84.3860613  90.7456143
 146.7439010  85.4946216  91.3054965 148.7039002  89.2666900  82.0591950
 148.2658432  88.5502758  81.5997587 149.4449443  89.4943014  81.4977041
 145.4940168  83.9563836  88.5804045 144.6808033  84.2558007  88.9869237
 145.9899162  83.5619525  89.2978527 147.6448746  93.9521593  90.5138310
 147.6024925  94.1782439  89.5846842 148.5611445  93.7184968  90.6624111
 151.0914380  84.4205661  97.4118939 151.4463767  84.6477134  98.2713405
 151.7386511  84.7524038  96.7896194 144.9854243  81.5282192  94.1965280
 145.6253622  81.3870951  93.4988243 144.1531773  81.2416705  93.8203882
 145.7614547  90.8284622  90.3100273 146.5555145  90.3334942  90.1082848
 145.0506239  90.3002485  89.9467978 150.5809391  93.2102718  94.6612640
 150.6346413  93.7793654  95.4290356 149.7124172  93.3804603  94.2966677
 142.0697310  84.9727704  86.3860025 141.1394898  84.9112159  86.6029987
 142.1654782  84.4503657  85.5896667 141.9882859  81.4982517  88.9738267
 142.2489676  82.4127850  88.8647427 142.8100031  81.0306959  89.1234880
 143.4607784  82.9120274  96.1437091 144.1330838  82.7037636  95.4949740
 142.6337571  82.7142360  95.7042324 149.3633356  79.5382215  98.1602752
 148.7161271  80.2372165  98.0667229 150.1334372  79.9718359  98.5279001
 152.7712154  89.8031067 101.2353306 152.6197661  89.5741619 100.3183389
 152.7616834  90.7601668 101.2484651 149.5397491  87.3762980  96.2199572
 150.4689551  87.5274139  96.0468539 149.1188521  87.4647001  95.3648219
 148.3385823  91.4013644  93.9898110 148.1996908  91.0332429  94.8624048
 147.5500419  91.9161284  93.8182068 148.9333974  96.5022741  85.3323646
 149.1085730  96.0310784  86.1469269 148.2466763  97.1288507  85.5604907
 149.8891038  90.7795247  91.3786948 149.5540870  90.7396017  92.2744597
 149.3894983  90.1139963  90.9057358 143.8635282  86.1862877  96.9039529
 143.7255080  85.4543116  97.5051068 144.7740205  86.0971777  96.6223716
 152.8250229  88.1251281  81.6524007 152.2079400  87.3998109  81.5557060
 152.3566718  88.8860641  81.3091081 146.4917582  85.8982836  96.3923208
 147.2017201  85.2576028  96.3509827 146.4486890  86.1495731  97.3149389
 154.4804361  92.8350190  99.3129788 154.4216907  92.1509410  98.6460371
 154.8823879  93.5769180  98.8610414 145.2046516  82.8848054  98.2118848
 144.6683873  82.4338793  98.8640444 144.6163225  83.0193963  97.4689312
 143.4995060  99.6512103  92.1063506 143.7391658 100.2830628  92.7842525
 142.6564256  99.3000143  92.3928866 144.6148775  82.3436706  80.7745311
 143.7378242  82.2225506  80.4107558 145.0906528  81.5522784  80.5224200
 154.4821768  90.7989774  97.5443767 153.5948547  90.4615695  97.6670166
 155.0520319  90.0672805  97.7812533 136.1350915  87.1313865  90.8686819
 136.8221955  86.8175595  90.2807834 135.9799044  88.0355230  90.5954070
 140.9385637  82.0204062  95.2971842 140.8543826  81.4129731  94.5622252
 140.1168344  82.5113080  95.2981339 148.0122922  95.4591226  94.5105010
 147.9393093  96.2646197  95.0224315 147.5700315  95.6583192  93.6853032
 147.8012701  94.6962996  88.0207832 147.0180223  95.2384676  88.1146056
 148.5005446  95.2136976  88.4202073 151.1109351  80.5057625  90.6642037
 151.6078051  79.7527588  90.3443108 150.3396333  80.5421942  90.0985247
 150.4721605  95.3578060  96.6663169 151.1849577  95.9925525  96.5939071
 149.9811634  95.4541926  95.8503171 152.1939132  89.2629313  88.2380461
 151.2595411  89.3830775  88.0685165 152.3715801  88.3601779  87.9740471
 147.6944320  82.6475008  90.3913722 147.3242108  82.0946049  91.0794628
 148.1903413  82.0433142  89.8388722 155.5811683  85.1046632  88.7730495
 156.0472136  85.9374623  88.6990798 156.0319184  84.6391613  89.4775753
 145.5233519  93.1072503  97.4868740 146.2242978  93.7408986  97.6398134
 145.0528634  93.4487235  96.7264379 153.6487915  91.4490453  85.7716647
 153.9247758  91.3347048  86.6810521 152.7792413  91.0507938  85.7328820
 153.5528346  77.4727219  92.8121396 152.6391426  77.7031446  92.9803603
 153.9821448  77.5565663  93.6635429 153.3234805  85.6617111  95.3121290
 152.6706255  85.9093018  94.6573743 153.7015185  84.8481249  94.9783768
 150.2841979  95.6976804  89.4149461 150.4664373  94.8798460  89.8777213
 151.1074965  95.9144496  88.9774351 150.6184144  94.6244989  86.6764509
 151.1471910  94.1137444  86.0634671 150.8812364  94.3087519  87.5410042
 149.3722378  86.4036922 101.7987327 148.6963015  86.3031051 102.4689703
 150.1950012  86.2476136 102.2623325 141.1201237  92.6408858  94.4199843
 141.7054674  91.8952546  94.5527747 140.9226075  92.9512815  95.3036506
 143.9739892  95.6760106  89.4362285 143.3050267  96.1606233  88.9526325
 143.8352762  95.9229326  90.3505663 135.7118891  85.2114459  93.1404286
 135.7502991  84.6778049  93.9341404 135.2059184  84.6849664  92.5215263
 148.1145161  97.7103849  96.0344943 148.6663469  97.8735471  96.7994029
 148.4551354  98.3008287  95.3624968 143.0909654  80.0578999  96.6366828
 143.1550980  80.9193830  96.2244226 143.0276774  79.4453001  95.9039187
 142.5661926  82.1302132 100.2839862 143.1933965  81.7479209 100.8977387
 141.7089845  81.9116334 100.6495555 152.9656035  92.5365107 101.8893598
 153.5095939  93.1495065 101.3948553 152.3842880  93.0944685 102.4060611
 139.3427469  83.9378561  86.2158217 139.6380910  83.0289239  86.1625271
 138.4415505  83.9166300  85.8939219 151.2513548  95.6585825  93.0208625
 151.1264687  94.8575565  92.5119571 151.9092639  96.1532018  92.5322595
 142.8721716  82.0134557  92.1985766 142.1508302  82.6270525  92.0593239
 143.6614972  82.5492322  92.1202412 153.3148456  93.4594845  94.6488176
 152.3678792  93.3400196  94.5766502 153.6631229  92.5717343  94.7314437
 145.6748030  79.3488984  98.4726417 146.1982431  79.5951280  99.2352727
 145.4560363  80.1809019  98.0529555 141.0715311  81.6192658  86.3397542
 140.7428017  80.7390037  86.1572648 141.4254681  81.5640327  87.2273931
 150.3194890  93.2547561  90.8492528 150.1719852  92.3264269  91.0300098
 151.1448383  93.2767652  90.3649603 144.1857134  81.9065628  86.7073020
 144.5253206  82.4351549  85.9851628 144.6329254  82.2446034  87.4831586
 153.9229011  94.0776120  91.9357401 154.8475559  93.8718981  91.7981852
 153.7544315  93.8292521  92.8446742 146.8800575  80.2902679  96.1576088
 146.5397395  79.4910492  96.5596768 146.1739581  80.5904390  95.5852921
 147.5317046  77.3751991  94.6103411 148.3543116  76.9012470  94.4882301
 147.7755110  78.1542475  95.1102097 146.1725281  80.4040250  84.9066313
 146.8933643  80.7821503  84.4030030 145.5490585  81.1229127  85.0101291
 150.3156404  81.1085399  85.8424645 150.5320018  81.9910037  85.5413473
 149.8350471  80.7171612  85.1130287 145.0555625  84.0671112  92.4195390
 144.9100206  84.3811415  93.3119671 144.5780829  84.6856012  91.8666288
 146.9152008  81.0573660  92.4676279 146.9013577  80.1614753  92.1308577
 147.6324436  81.0644324  93.1014565 148.7678139  81.4911000  94.5129407
 148.5095917  82.4128071  94.5113737 148.2363179  81.0941435  95.2029871
 153.7124328  94.5961787  87.2919492 153.8861205  94.0308210  86.5393344
 154.2053219  95.3962682  87.1098982 139.5301287  86.6076456  95.3583051
 138.9854755  87.3836264  95.4903325 140.4080637  86.9547261  95.2002172
 146.3188904  79.9388040  87.7363849 146.4404815  79.0104686  87.9354737
 146.0290946  79.9526726  86.8242165 149.1880094  77.6242951  90.8730569
 149.2101791  77.6882284  89.9182549 149.6048153  76.7847459  91.0671075
 154.6999500  93.9128552  84.3916390 155.3950405  94.5335244  84.6103705
 155.0422650  93.0623903  84.6668768 140.3167309  85.7346353  98.2513208
 139.5749045  85.8828988  98.8377838 139.9960054  85.9954618  97.3879957
 148.2610972  95.2762331  98.0493598 148.5698098  95.0311478  98.9216297
 149.0586454  95.4808969  97.5612468 148.2831584  97.4300241  90.2798974
 147.8436574  96.9376619  90.9731831 149.0339701  96.8873208  90.0391049
 140.7623923  93.6211781  90.2823602 141.5881943  93.3215553  89.9022246
 140.4117975  92.8519404  90.7313391 145.7305456  92.9738250  92.3521276
 145.1085465  92.3108955  92.0523504 146.4010323  92.9999382  91.6694924
 138.9632528  91.5398108  91.2412536 138.1264436  91.1120282  91.0596537
 138.9356173  91.7330551  92.1783327 145.8029984  81.4520038 101.9453782
 145.8518139  82.3282160 101.5631552 146.3452498  80.9097431 101.3725425
 156.2884829  91.9961161 101.2254919 155.4980373  91.9785300 100.6859418
 156.0518184  92.5349455 101.9803956 156.4082704  88.8453627  98.5387648
 156.4580709  88.6803635  99.4803170 156.2996628  87.9780886  98.1485528
 145.2918963  91.5242173  85.8279736 145.4407083  92.2077637  85.1746409
 146.0985406  91.5047263  86.3429192 153.6986467  84.8284555  99.8546954
 154.5996329  84.6891020  99.5630952 153.7734441  84.9939010 100.7945132
 148.0329272  82.2051410  98.7000141 147.1632581  82.4984976  98.4282729
 148.2688752  82.7891855  99.4207404 156.1588089  86.3883183  97.2509727
 156.6342211  86.5810830  96.4428578 155.2353655  86.4442369  97.0053111
 143.0471596  87.5507351  86.8340805 142.8017638  86.6469681  87.0321015
 143.2167511  87.5524501  85.8920283 150.7368306  78.4231027  96.2165561
 151.2550250  79.1592054  95.8912050 150.3823439  78.7295020  97.0512320
 142.3167243  83.2835708  84.3326967 141.6236488  83.3580063  83.6767003
 142.0718995  82.5196052  84.8548484 150.9880900  74.8431310  91.7366458
 151.2682654  74.1754499  92.3626884 151.7731507  75.0360405  91.2241121
 148.7914369  94.0190303  83.2991484 148.2188336  94.6380491  82.8461956
 149.3647162  94.5689665  83.8331406 154.8589758  83.2648943  95.4838033
 155.8107181  83.3647041  95.5050257 154.6893209  82.4727212  95.9936117
 152.8804138  80.3504527  95.6697434 152.2854070  80.6309539  94.9743922
 152.5953835  80.8398428  96.4414175 152.0111628  94.3027454  84.4300066
 152.9442301  94.2373015  84.6332942 151.9234841  95.1383720  83.9714599
 154.6399645  93.6193324  81.3904014 154.5613276  93.2853187  82.2839772
 155.4609312  94.1115092  81.3895486 149.1761167  85.3551116  80.6407536
 150.1220272  85.2257324  80.7095954 148.7975412  84.6165778  81.1176965
 155.1483052  77.0207122  90.6034428 154.9507873  76.7122210  91.4877760
 155.7582757  77.7468761  90.7332358 149.0599860  89.4068862 102.1008193
 149.9802869  89.5847461 102.2948240 149.0249443  88.4624908 101.9487893
 147.3604084  83.2801093  80.5762422 146.4535540  82.9834205  80.6525135
 147.6380065  82.9830911  79.7096708 138.2782025  84.6007456  91.0261468
 137.9584809  83.7472764  90.7335842 137.7315453  84.8156034  91.7819435
 142.0561932  87.3169897  94.7430975 142.2747942  88.2487005  94.7619008
 142.4687706  86.9577871  95.5285778 148.9766150  77.8237982  86.7306663
 148.1666878  77.4785067  87.1061909 149.6650567  77.5145526  87.3194274
 150.9056698  76.9016029  88.3530960 151.4587737  77.3211482  89.0120983
 151.1426785  75.9751777  88.3953916 146.9289797  82.8903103 104.1333723
 146.8286524  83.8397460 104.0645815 146.7111339  82.5621342 103.2609794
 146.1302869  80.1388028  80.7174401 146.9922033  80.4642926  80.9770218
 146.3153213  79.3519524  80.2047467 138.1470285  88.2210367  92.9954590
 137.4533756  87.8064320  92.4824544 138.8943276  88.2630904  92.3988008
 154.2835505  79.0116554  87.8609624 153.7034174  79.6701358  87.4787676
 154.0171438  78.1893899  87.4497041 152.7339072  78.4121612  90.0630944
 153.2338850  78.5238146  89.2545263 153.3774680  78.1082665  90.7031753
 146.7921067  86.3200242 102.9498785 146.3088149  87.1200602 103.1562674
 146.8782007  86.3308186 101.9966229 140.0607027  88.1528621  90.8720604
 140.0377715  88.2516309  89.9202488 140.3707664  88.9993772  91.1937771
 142.7194405  90.2104776  94.9867219 143.6737658  90.1788719  94.9197150
 142.5206929  89.7495400  95.8017445 143.3093787  88.7805892  97.5538017
 144.1286676  89.2749971  97.5772854 143.5830595  87.8637860  97.5255584
 153.0660383  81.1716645  86.9165972 152.1786238  81.4566295  86.6986167
 153.4814372  81.0110408  86.0693249 141.0744634  95.7524396  92.0037417
 140.9399102  94.9924797  91.4375415 140.6576696  96.4765296  91.5366206
 152.2103597  90.9361319  81.0113992 152.9139447  91.1411322  81.6271648
 151.4866246  91.5038081  81.2763076 153.0401407  86.6871181  87.1316262
 152.9836608  87.1439732  86.2923895 153.5929749  85.9261865  86.9539105
 144.2313760  96.6493713  92.2155859 144.1146144  97.5939145  92.1134550
 143.4106206  96.3467274  92.6041659 154.1190294  91.3743848  83.0612452
 154.9535898  90.9425047  82.8789927 153.9574637  91.2025862  83.9889347
 153.7736186  87.8775962  84.4268791 153.7184990  87.7120233  83.4857235
 153.1482242  88.5851995  84.5830981 138.5628701  83.1144026  98.2530214
 139.2087565  82.6042980  98.7417439 138.3545852  83.8512708  98.8273639
 151.0882094  90.1824874 103.7522354 151.9573253  90.3565526 103.3908989
 150.6088845  91.0019290 103.6298084 147.0832312  77.3784071  84.0054110
 147.0710982  78.3225911  84.1622381 147.9755734  77.1954216  83.7113571
 145.2568274  97.3021975  95.4311788 146.1595520  97.3345585  95.7478283
 145.0305644  96.3722426  95.4458124 147.0121876  96.0552961  92.0921866
 146.0617507  96.0554823  91.9786239 147.3154362  95.3085696  91.5757901
 150.8984431  73.9726847  88.2600047 150.1316827  73.4185334  88.4056729
 151.3095136  74.0448716  89.1214198 142.9026192  80.2611643 102.3505228
 143.7657654  79.9048448 102.5608552 142.3291603  79.9225538 103.0380632
 155.4151091 103.6976404  89.0826044 154.8515956 103.6066341  88.3142332
 155.3003486 102.8776309  89.5628537 152.9615523 105.1927596  91.9210265
 153.7536815 104.8518420  91.5056564 153.2012173 105.3022571  92.8412418
 154.9206277 104.4536509  84.7927644 155.6937153 103.9065496  84.6540520
 155.2731676 105.3180758  85.0042105 155.1693686 101.9188104  91.0281041
 154.2444183 101.7864318  91.2358733 155.4178099 102.6982323  91.5250984
 152.5302497 101.5621377  91.8624830 152.6594878 101.8155856  92.7764242
 151.8499949 102.1549085  91.5429485 155.6901784 104.2008167  92.7348937
 156.2603141 104.6295435  92.0966422 156.2809896 103.9190751  93.4333123
 156.1826950  99.3671594 100.9809948 155.5525611 100.0487875 101.2145345
 156.0763038  99.2554676 100.0363087 151.4771923  99.0343390  91.9075872
 150.6870977  99.2900919  91.4315983 151.9683170  99.8491728  92.0127913
 153.4286668  99.3987969  88.8659349 152.6317831  99.5106664  89.3842845
 153.2012260  99.7374622  88.0000240 149.7609626  99.2873881  94.3390863
 150.0117664 100.1720890  94.6048439 150.2969174  99.1078482  93.5665955
 155.4607693  93.6692360 103.3435199 155.0674639  93.1158558 104.0182844
 156.2773833  93.9802938 103.7341717 152.4269751 105.1076218  87.2548769
 152.9394271 105.9019468  87.4054334 153.0792464 104.4102509  87.1882371
 154.2364636 108.2241974  89.3371522 154.4131264 109.1459939  89.1492506
 155.0321469 107.9100394  89.7665902 153.5216992 100.2706606  99.2133686
 153.4070507  99.3691863  99.5140785 152.6661510 100.5170303  98.8618502
 155.3595951 109.7420148  95.3381865 155.9103376 109.6137212  94.5658859
 154.5207427 110.0415037  94.9876758 150.3918668 103.4364872  88.0308340
 151.2293890 103.8461881  87.8142047 150.5696935 102.4964315  88.0008534
 155.2534562  95.7976935  89.5551519 155.8278314  95.5752116  88.8224712
 155.8405545  95.8665629  90.3080121 155.5804149  97.8281396  83.5747405
 154.7441462  98.1656082  83.8956679 155.4408919  97.6930376  82.6374542
 150.4144839 100.7755588  88.7019073 150.2169239 100.1824948  87.9770140
 149.8591503 100.4707798  89.4195012 155.8247997  96.8574109  94.1965280
 156.4647376  96.7162869  93.4988243 154.9925528  96.5708623  93.8203882
 152.9091064 100.3019622  86.3860025 151.9788653 100.2404077  86.6029987
 153.0048536  99.7795574  85.5896667 152.8276614  96.8274434  88.9738267
 153.0883431  97.7419768  88.8647427 153.6493786  96.3598877  89.1234880
 154.3001539  98.2412192  96.1437091 154.9724592  98.0329554  95.4949740
 153.4731325  98.0434278  95.7042324 154.7029036 101.5154795  96.9039529
 154.5648834 100.7835033  97.5051068 155.6133960 101.4263695  96.6223716
 156.0440271  98.2139972  98.2118848 155.5077628  97.7630710  98.8640444
 155.4556979  98.3485881  97.4689312 154.3388814 114.9804021  92.1063506
 154.5785412 115.6122545  92.7842525 153.4958011 114.6292061  92.3928866
 155.4542530  97.6728623  80.7745311 154.5771996  97.5517424  80.4107558
 155.9300283  96.8814701  80.5224200 146.9744670 102.4605783  90.8686819
 147.6615710 102.1467513  90.2807834 146.8192799 103.3647148  90.5954070
 151.7779392  97.3495979  95.2971842 151.6937581  96.7421649  94.5622252
 150.9562098  97.8404998  95.2981339 151.9594991 107.9700776  94.4199843
 152.5448428 107.2244464  94.5527747 151.7619830 108.2804733  95.3036506
 154.8133646 111.0052023  89.4362285 154.1444022 111.4898151  88.9526325
 154.6746516 111.2521244  90.3505663 146.5512646 100.5406376  93.1404286
 146.5896745 100.0069967  93.9341404 146.0452939 100.0141582  92.5215263
 153.9303408  95.3870917  96.6366828 153.9944735  96.2485748  96.2244226
 153.8670529  94.7744918  95.9039187 153.4055681  97.4594049 100.2839862
 154.0327720  97.0771127 100.8977387 152.5483600  97.2408251 100.6495555
 150.1821224  99.2670478  86.2158217 150.4774665  98.3581157  86.1625271
 149.2809259  99.2458218  85.8939219 153.7115471  97.3426475  92.1985766
 152.9902056  97.9562443  92.0593239 154.5008726  97.8784240  92.1202412
 151.9109065  96.9484576  86.3397542 151.5821771  96.0681955  86.1572648
 152.2648436  96.8932245  87.2273931 155.0250888  97.2357546  86.7073020
 155.3646961  97.7643467  85.9851628 155.4723009  97.5737952  87.4831586
 155.8949380  99.3963030  92.4195390 155.7493960  99.7103333  93.3119671
 155.4174583 100.0147930  91.8666288 150.3695042 101.9368374  95.3583051
 149.8248510 102.7128182  95.4903325 151.2474392 102.2839179  95.2002172
 151.1561064 101.0638270  98.2513208 150.4142800 101.2120906  98.8377838
 150.8353808 101.3246536  97.3879957 151.6017677 108.9503699  90.2823602
 152.4275697 108.6507471  89.9022246 151.2511729 108.1811322  90.7313391
 149.8026282 106.8690026  91.2412536 148.9658191 106.4412200  91.0596537
 149.7749928 107.0622469  92.1783327 153.8865350 102.8799268  86.8340805
 153.6411392 101.9761598  87.0321015 154.0561265 102.8816419  85.8920283
 153.1560998  98.6127626  84.3326967 152.4630243  98.6871981  83.6767003
 152.9112750  97.8487969  84.8548484 149.1175779  99.9299374  91.0261468
 148.7978563  99.0764682  90.7335842 148.5709207 100.1447952  91.7819435
 152.8955687 102.6461815  94.7430975 153.1141696 103.5778922  94.7619008
 153.3081460 102.2869789  95.5285778 148.9864039 103.5502285  92.9954590
 148.2927510 103.1356238  92.4824544 149.7337030 103.5922822  92.3988008
 150.9000782 103.4820539  90.8720604 150.8771470 103.5808226  89.9202488
 151.2101418 104.3285690  91.1937771 153.5588159 105.5396694  94.9867219
 154.5131413 105.5080636  94.9197150 153.3600683 105.0787318  95.8017445
 154.1487542 104.1097810  97.5538017 154.9680431 104.6041889  97.5772854
 154.4224349 103.1929778  97.5255584 151.9138388 111.0816313  92.0037417
 151.7792856 110.3216714  91.4375415 151.4970450 111.8057213  91.5366206
 155.0707514 111.9785630  92.2155859 154.9539898 112.9231063  92.1134550
 154.2499960 111.6759192  92.6041659 149.4022456  98.4435944  98.2530214
 150.0481319  97.9334898  98.7417439 149.1939607  99.1804625  98.8273639
 153.7419947  95.5903561 102.3505228 154.6051408  95.2340366 102.5608552
 153.1685357  95.2517456 103.0380632  89.3026289   0.0114638  78.8308813
  89.5422887   0.6433162  79.5087832  88.4595485  -0.3397322  79.1174172
  98.7646752   5.5530130  78.6455572  99.5568044   5.2120955  78.2301871
  99.0043402   5.6625105  79.5657725 106.7981879   7.7249906  71.1185816
 106.1469859   8.3103986  70.7319830 107.5926242   8.2556101  71.1780853
 100.7237506   4.8139043  71.5172950 101.4968382   4.2668030  71.3785826
 101.0762905   5.6783292  71.7287412 102.5622548   6.1415425  84.7239850
 102.2712414   7.0461056  84.6086516 103.1979533   6.1831953  85.4383919
 102.5033213  12.5921161  74.6860611 102.4257243  13.5428986  74.7649092
 101.8994857  12.2467034  75.3435537 105.0623565   6.2835207  83.5387170
 105.1267997   6.7455614  84.3745342 104.3534488   5.6532572  83.6669480
 104.7771582   7.9503314  73.4066151 104.6417257   8.7954850  73.8350999
 105.3181395   8.1522592  72.6432085  98.2300980   5.4678752  73.9794076
  98.7425500   6.2622003  74.1299641  98.8823692   4.7705043  73.9127677
 100.0395864   8.5844509  76.0616829 100.2162493   9.5062473  75.8737813
 100.8352698   8.2702928  76.4911209 106.4040059   8.5726881  87.5366493
 105.9603913   7.7863259  87.2187397 107.0657272   8.7606031  86.8710384
 101.1627180  10.1022682  82.0627171 101.7134605   9.9739746  81.2904165
 100.3238656  10.4017571  81.7122064 108.5021297   8.8529681  85.5647894
 108.4839772   9.6738562  85.0728163 109.4241217   8.7283756  85.7898035
  96.1949896   3.7967407  74.7553646  97.0325118   4.2064415  74.5387354
  96.3728164   2.8566849  74.7253840 107.3767743  12.0237520  69.8421874
 106.7029441  12.3269217  70.4506832 107.7633565  12.8266600  69.4927331
 109.3240104   8.8635694  76.1490163 109.6163078   9.4240751  75.4302529
 109.8338724   9.1564255  76.9043322 104.2873729   9.6416045  77.2383617
 104.2449908   9.8676891  76.3092149 105.2036428   9.4079420  77.3869418
 102.4039530   6.5179074  77.0345579 103.1980128   6.0229394  76.8328154
 101.6931222   5.9896937  76.6713285 107.2234374   8.8997170  81.3857947
 107.2771397   9.4688106  82.1535663 106.3549156   9.0699055  81.0211984
 104.9810806   7.0908096  80.7143416 104.8421892   6.7226880  81.5869354
 104.1925402   7.6055735  80.5427374 105.5758958  12.1917193  72.0568953
 105.7510713  11.7205236  72.8714576 104.8891746  12.8182959  72.2850214
 111.1229344   8.5244641  86.0375094 111.0641890   7.8403862  85.3705677
 111.5248863   9.2663631  85.5855720 100.1420043  15.3406555  78.8308813
 100.3816641  15.9725079  79.5087832  99.2989240  14.9894595  79.1174172
  92.7775899   2.8208317  77.5932125  93.4646938   2.5070047  77.0053141
  92.6224027   3.7249682  77.3199377 104.6547905  11.1485678  81.2350317
 104.5818076  11.9540649  81.7469622 104.2125298  11.3477644  80.4098338
 104.4437685  10.3857448  74.7453139 103.6605206  10.9279128  74.8391363
 105.1430430  10.9031427  75.1447380 107.1146588  11.0472512  83.3908476
 107.8274561  11.6819977  83.3184377 106.6236617  11.1436378  82.5748478
 102.1658502   8.7966955  84.2114047 102.8667961   9.4303438  84.3643441
 101.6953617   9.1381687  83.4509686 106.9266962  11.3871256  76.1394767
 107.1089356  10.5692912  76.6022519 107.7499948  11.6038948  75.7019657
 107.2609127  10.3139441  73.4009816 107.7896894   9.8031896  72.7879978
 107.5237347   9.9981971  74.2655349  97.7626220   8.3303310  81.1445149
  98.3479657   7.5846998  81.2773053  97.5651059   8.6407267  82.0281813
 100.6164875  11.3654558  76.1607592  99.9475251  11.8500685  75.6771632
 100.4777745  11.6123778  77.0750970 104.7570144  13.3998301  82.7590250
 105.3088452  13.5629923  83.5239335 105.0976337  13.9902739  82.0870275
 109.6081018   8.2259559  88.6138904 110.1520922   8.8389517  88.1193859
 109.0267863   8.7839137  89.1305917 107.8938531  11.3480277  79.7453932
 107.7689671  10.5470017  79.2364878 108.5517622  11.8426470  79.2567902
 109.9573440   9.1489297  81.3733482 109.0103775   9.0294648  81.3011809
 110.3056213   8.2611795  81.4559744 106.9619873   8.9442013  77.5737834
 106.8144835   8.0158720  77.7545404 107.7873366   8.9662104  77.0894910
 110.5653995   9.7670572  78.6602707 111.4900542   9.5613433  78.5227158
 110.3969298   9.5186973  79.5692049 110.3549311  10.2856239  74.0164799
 110.5286188   9.7202662  73.2638651 110.8478202  11.0857134  73.8344289
 111.3424483   9.6023004  71.1161697 112.0375388  10.2229696  71.3349012
 111.6847633   8.7518355  71.3914075 104.9035955  10.9656783  84.7738904
 105.2123082  10.7205930  85.6461604 105.7011437  11.1703421  84.2857775
 104.9256567  13.1194692  77.0044281 104.4861558  12.6271071  77.6977138
 105.6764684  12.5767660  76.7636356  97.4048906   9.3106233  77.0068909
  98.2306926   9.0110005  76.6267552  97.0542958   8.5413856  77.4558698
 102.3730439   8.6632702  79.0766583 101.7510449   8.0003407  78.7768810
 103.0435306   8.6893833  78.3940230  95.6057511   7.2292560  77.9657843
  94.7689420   6.8014734  77.7841844  95.5781157   7.4225003  78.9028634
 101.9343946   7.2136625  72.5525043 102.0832067   7.8972089  71.8991716
 102.7410390   7.1941715  73.0674499 105.4339352   9.7084755  70.0236791
 104.8613319  10.3274942  69.5707262 106.0072145  10.2584117  70.5576712
 108.6536612   9.9921905  71.1545373 109.5867285   9.9267467  71.3578248
 108.5659824  10.8278172  70.6959905 111.2824628   9.3087776  68.1149320
 111.2038260   8.9747639  69.0085078 112.1034295   9.8009544  68.1140793
  94.7895268   3.9104819  79.7199896  94.0958739   3.4958772  79.2069851
  95.5368259   3.9525356  79.1233315  96.7032010   3.8423073  77.5965911
  96.6802698   3.9410760  76.6447794  97.0132647   4.6888224  77.9183077
  99.3619388   5.8999228  81.7112526 100.3162642   5.8683170  81.6442457
  99.1631912   5.4389852  82.5262751  97.7169617  11.4418848  78.7282723
  97.5824085  10.6819249  78.1620721  97.3001679  12.1659747  78.2611512
 100.8738743  12.3388165  78.9401166 100.7571127  13.2833597  78.8379856
 100.0531189  12.0361726  79.3286965 101.8993257  12.9916427  82.1557094
 102.8020504  13.0240037  82.4723589 101.6730627  12.0616877  82.1703430
 103.6546859  11.7447413  78.8167173 102.7042490  11.7449275  78.7031545
 103.9579345  10.9980148  78.3003208 119.3899553  17.5807951  79.8812935
 120.0277962  17.4614699  79.1776276 119.2720395  18.5288795  79.9400888
 116.1989259  17.5335380  79.8174460 115.8607770  17.4176444  78.9294995
 117.0679027  17.1326545  79.7975466 112.0576075  19.3870856  75.8071351
 111.4940940  19.2960793  75.0387639 111.9428470  18.5670760  76.2873844
 116.6809042  18.6870231  85.7760666 116.6697683  18.2923030  84.9041169
 116.8429681  17.9536304  86.3694437 109.6040506  20.8822048  78.6455572
 110.3961798  20.5412872  78.2301871 109.8437157  20.9917023  79.5657725
 117.6375633  23.0541824  71.1185816 116.9863613  23.6395904  70.7319830
 118.4319996  23.5848019  71.1780853 111.5631260  20.1430961  71.5172950
 112.3362136  19.5959948  71.3785826 111.9156659  21.0075210  71.7287412
 113.4016303  21.4707343  84.7239850 113.1106169  22.3752974  84.6086516
 114.0373287  21.5123871  85.4383919 114.3272510  18.8484192  81.3141209
 114.9236082  18.6240214  80.5998172 114.3847481  18.1068937  81.9166657
 113.8997538  16.3023627  69.1491400 114.1523059  15.7805148  68.3874863
 112.9622097  16.1389772  69.2518084 118.9440821  15.3059405  76.9566144
 119.7303910  14.8878828  76.6056561 119.2079525  16.2105498  77.1247792
 119.1150898  20.7432256  71.6554800 118.4796731  20.8166882  72.3675705
 118.7848305  21.3325854  70.9773880 124.3449248  15.2434639  77.8599122
 125.0774420  14.6733855  78.0936951 123.5888604  14.8556239  78.3005628
 113.6193827  18.2051733  71.3515775 113.5030085  17.5296636  72.0196860
 113.7296087  17.7184107  70.5347928 115.9625368  17.6661880  75.0562464
 115.5983575  17.1392501  75.7675386 116.8192484  17.2760349  74.8828950
 115.6030855  12.6951780  70.0523813 115.7705257  13.5632016  70.4194284
 115.4128024  12.8579061  69.1285102 118.3606188  21.1568759  81.7189643
 118.0606911  22.0593797  81.6105451 118.0157248  20.8900942  82.5710796
 111.8118670  17.6082555  77.7526348 110.8869166  17.4758770  77.9604040
 112.0603083  18.3876775  78.2496290 121.7603332  13.6751299  79.3987081
 120.8520209  13.6066707  79.1045842 121.7090928  14.1523244  80.2268906
 115.5820076  15.1509437  71.0370480 115.4619701  15.5966488  71.8755960
 114.8872664  15.4994755  70.4784018 109.1727481  17.2515829  78.5870137
 109.3019862  17.5050308  79.5009549 108.4924932  17.8443537  78.2674792
 113.3426968  27.9213079  74.6860611 113.2650998  28.8720904  74.7649092
 112.7388611  27.5758951  75.3435537 115.8344198  15.0940944  87.3421978
 115.0577532  15.6534865  87.3324843 116.4734761  15.5797727  87.8636848
 121.2805142  15.6230910  71.8650814 122.1922998  15.8558297  71.6898511
 120.7714789  16.2067955  71.3025892 114.0890570  17.9026398  86.9039945
 114.8305254  18.4411442  86.6274769 113.3827555  18.5292687  87.0611497
 119.5645910  20.0455538  85.5012106 119.9729266  19.6037949  84.7566739
 118.8423171  19.4708166  85.7546299 115.9176980  14.9828145  82.8745663
 116.7638175  15.4067559  83.0180312 115.8575617  14.3261769  83.5684226
 119.8874724  20.6056729  79.2564395 119.2583587  20.7702443  78.5540463
 119.5000386  21.0198338  80.0275359 123.7663956  21.5411167  76.6108759
 123.0814994  21.9210068  76.0605792 123.8507805  22.1506493  77.3440707
 119.0676425  12.6432513  84.5326837 118.8237357  13.3974574  83.9961113
 119.3436355  13.0217861  85.3674084 121.0214888  19.1871126  83.2104103
 121.2331783  19.8302886  82.5338484 120.9744636  18.3533442  82.7426033
 118.6241117  11.7988946  80.1140675 117.7625596  12.0970200  80.4057412
 118.6503551  12.0159345  79.1821707 115.4402686  20.3431137  76.5214480
 115.9041032  20.6218840  75.7319103 115.1759484  19.4414582  76.3387571
 112.3326767  19.8902618  79.4594244 112.9028124  20.3189887  78.8211728
 112.9234879  19.6085203  80.1578429 114.3771572  16.4654289  73.3304046
 115.0795615  16.9175333  73.7977972 114.0452201  15.8238108  73.9583939
 112.8251934  15.0566046  87.7055255 112.1950594  15.7382327  87.9390652
 112.7188022  14.9449128  86.7608393 108.1196906  14.7237842  78.6321179
 107.3295960  14.9795371  78.1561290 108.6108153  15.5386180  78.7373220
 122.1360716  22.0643081  81.3826460 122.9578159  21.6623268  81.1009142
 122.1323119  21.9611315  82.3342576 110.0711651  15.0882421  75.5904656
 109.2742815  15.2001115  76.1088151 109.8437244  15.4269073  74.7245546
 115.9017319  21.6127124  83.5387170 115.9661752  22.0747532  84.3745342
 115.1928243  20.9824489  83.6669480 106.4034609  14.9768332  81.0636170
 106.6542647  15.8615342  81.3293746 106.9394157  14.7972934  80.2911262
 130.2266709  18.4081830  77.7311431 129.4730417  17.8389228  77.5755436
 130.3614250  18.3744494  78.6782066 115.6165337  23.2795232  73.4066151
 115.4811012  24.1246768  73.8350999 116.1575149  23.4814510  72.6432085
 112.1032676   9.3586812  90.0680506 111.7099622   8.8053010  90.7428150
 112.9198817   9.6697390  90.4587024 109.0694734  20.7970670  73.9794076
 109.5819255  21.5913920  74.1299641 109.7217447  20.0996960  73.9127677
 110.8789619  23.9136426  76.0616829 111.0556247  24.8354391  75.8737813
 111.6746452  23.5994845  76.4911209 115.0200637  10.7744691  87.6600763
 115.7610351  11.3751844  87.5805225 115.2518560  10.0322329  87.1018805
 110.1641975  15.9601058  85.9378992 110.0495491  15.0586315  86.2386091
 109.3086493  16.2064755  85.5863809 117.2433813  23.9018798  87.5366493
 116.7997667  23.1155177  87.2187397 117.9051027  24.0897949  86.8710384
 112.0020934  25.4314600  82.0627171 112.5528359  25.3031663  81.2904165
 111.1632410  25.7309489  81.7122064 119.3415051  24.1821598  85.5647894
 119.3233527  25.0030479  85.0728163 120.2634971  24.0575674  85.7898035
 115.7988105  21.6965728  86.4071402 116.3316442  20.9354016  86.1770710
 115.2702186  21.4039380  87.1495557 107.0343651  19.1259324  74.7553646
 107.8718873  19.5356333  74.5387354 107.2121919  18.1858766  74.7253840
 118.9308083  16.7934405  70.4437479 118.4154706  17.5639010  70.6825867
 118.6585391  16.1199541  71.0670541 116.5155194  11.6384106  75.5022718
 115.6596790  11.2490956  75.3228356 116.9282146  11.7176067  74.6422503
 114.2897227   9.2569179  78.9080459 115.1550223   9.0611987  78.5486349
 114.3574736   9.0279530  79.8349816 123.9042357  19.5466760  72.3790653
 123.1271800  19.2077919  71.9345815 124.5833838  19.5519383  71.7045618
 118.7194386  14.6661497  72.2697261 118.4144522  14.9807646  73.1207404
 119.6724828  14.7442917  72.3124594 117.1640818  20.8251720  73.9190215
 116.6362180  20.0904480  73.6063452 116.6628321  21.6026397  73.6730183
 122.1433664  19.0200741  79.0357261 121.4857339  19.7100002  79.1237389
 122.9474063  19.4097173  79.3791247 111.8959546  11.4871387  76.2796826
 112.4703298  11.2646568  75.5470019 112.4830528  11.5560081  77.0325427
 120.9539123  17.3745114  77.0861203 121.4671005  18.0075105  77.5882912
 121.6040347  16.7746309  76.7204563 112.2229133  13.5175848  70.2992711
 111.3866445  13.8550534  70.6201986 112.0833902  13.3824827  69.3619848
 115.3093418  18.6431931  66.9225188 114.4020480  18.4121184  67.1216337
 115.8064450  17.8469550  67.1099169 118.2161497  27.3529438  69.8421874
 117.5423196  27.6561135  70.4506832 118.6027319  28.1558518  69.4927331
 117.4319954  14.8494569  79.3319543 116.5142515  15.0709516  79.1741231
 117.8480097  14.9240880  78.4731250 118.2155002  16.2485985  74.4622223
 118.9626820  16.7607382  74.1529345 118.4846591  15.9270037  75.3226617
 116.4881652  18.7444525  71.4449178 115.5792871  18.4603558  71.5421647
 116.5176735  19.1643604  70.5852484 121.7200919  22.3551115  75.2140345
 121.2663246  21.5142025  75.2705536 121.0894886  22.9912513  75.5515125
 120.6633839  13.2843101  76.4441013 119.9256595  12.7720487  76.7751255
 120.9160612  12.8443483  75.6324290 120.1633858  24.1927612  76.1490163
 120.4556833  24.7532669  75.4302529 120.6732479  24.4856173  76.9043322
 107.0569822  16.4650040  75.4264380 106.8594222  15.8719400  74.7015446
 106.5016486  16.1602250  76.1440319 115.0366546  16.3573146  77.5458973
 115.0915156  15.4046982  77.4701450 114.2257748  16.5132585  78.0300271
 116.1857739  20.2853269  68.7837256 115.7477169  19.5689128  68.3242894
 116.9268180  20.5129384  68.2222348 112.9758906  14.9750206  75.3049352
 112.1626771  15.2744376  75.7114544 113.4717900  14.5805895  76.0223834
 115.1267484  24.9707963  77.2383617 115.0843662  25.1968809  76.3092149
 116.0430182  24.7371337  77.3869418 118.5733117  15.4392030  84.1364246
 118.9282505  15.6663503  84.9958711 119.2205249  15.7710407  83.5141501
 124.3030854  18.5610466  74.8413575 124.1648753  18.7512062  73.9134764
 123.9467073  19.3229849  75.2981626 112.4672980  12.5468561  80.9210587
 113.1072360  12.4057320  80.2233550 111.6350511  12.2603075  80.5449189
 124.3300234  20.6286993  79.8524846 124.7636741  20.5362282  80.7007900
 125.0431815  20.6044494  79.2144862 113.2433284  21.8470992  77.0345579
 114.0373883  21.3521312  76.8328154 112.5324977  21.3188855  76.6713285
 118.0628129  24.2289087  81.3857947 118.1165151  24.7980024  82.1535663
 117.1942910  24.3990972  81.0211984 109.5516048  15.9914073  73.1105332
 108.6213636  15.9298529  73.3275294 109.6473520  15.4690026  72.3141973
 109.4701597  12.5168886  75.6983574 109.7308414  13.4314220  75.5892734
 110.2918769  12.0493329  75.8480186 110.9426522  13.9306643  82.8682398
 111.6149576  13.7224006  82.2195047 110.1156309  13.7328729  82.4287630
 125.1915783  20.6710694  82.3857732 125.3851674  21.5756504  82.6317007
 125.0916402  20.2118113  83.2196317 116.8452094  10.5568584  84.8848059
 116.1980009  11.2558534  84.7912535 117.6153110  10.9904728  85.2524307
 120.2530892  20.8217437  87.9598612 120.1016399  20.5927988  87.0428696
 120.2435572  21.7788038  87.9729957 117.0216229  18.3949349  82.9444879
 117.9508289  18.5460509  82.7713846 116.6007259  18.4833370  82.0893525
 115.8204560  22.4200014  80.7143416 115.6815646  22.0518798  81.5869354
 115.0319157  22.9347653  80.5427374 116.4152712  27.5209110  72.0568953
 116.5904468  27.0497153  72.8714576 115.7285500  28.1474876  72.2850214
 117.3709775  21.7981616  78.1032254 117.0359608  21.7582386  78.9989904
 116.8713721  21.1326332  77.6302664 111.3454019  17.2049246  83.6284835
 111.2073817  16.4729485  84.2296374 112.2558943  17.1158147  83.3469023
 120.3068967  19.1437651  68.3769314 119.6898138  18.4184479  68.2802366
 119.8385456  19.9047011  68.0336388 113.9736320  16.9169206  83.1168515
 114.6835939  16.2762398  83.0755133 113.9305628  17.1682101  84.0394696
 121.9623099  23.8536559  86.0375094 121.9035645  23.1695779  85.3705677
 122.3642617  24.5955549  85.5855720 112.6865254  13.9034424  84.9364154
 112.1502611  13.4525162  85.5885751 112.0981963  14.0380333  84.1934619
 110.9813798  30.6698473  78.8308813 111.2210396  31.3016997  79.5087832
 110.1382994  30.3186513  79.1174172 112.0967513  13.3623075  67.4990618
 111.2196979  13.2411876  67.1352865 112.5725266  12.5709153  67.2469507
 121.9640506  21.8176143  84.2689074 121.0767285  21.4802065  84.3915473
 122.5339057  21.0859174  84.5057839 103.6169653  18.1500235  77.5932125
 104.3040693  17.8361965  77.0053141 103.4617782  19.0541599  77.3199377
 108.4204375  13.0390431  82.0217149 108.3362564  12.4316101  81.2867559
 107.5987082  13.5299450  82.0226645 115.4941659  26.4777595  81.2350317
 115.4211831  27.2832567  81.7469622 115.0519053  26.6769561  80.4098338
 115.2831439  25.7149365  74.7453139 114.4998961  26.2571046  74.8391363
 115.9824184  26.2323345  75.1447380 118.5928089  11.5243995  77.3887344
 119.0896789  10.7713957  77.0688414 117.8215071  11.5608312  76.8230553
 126.4457847  17.2284360  79.0305635 126.4347723  18.1109076  78.6599569
 125.5775226  16.8755911  78.8360173 117.9540343  26.3764429  83.3908476
 118.6668315  27.0111894  83.3184377 117.4630372  26.4728295  82.5748478
 119.6757870  20.2815682  74.9625767 118.7414149  20.4017145  74.7930472
 119.8534538  19.3788149  74.6985777 115.1763058  13.6661378  77.1159029
 114.8060845  13.1132418  77.8039934 115.6722150  13.0619511  76.5634029
 123.0630421  16.1233001  75.4975802 123.5290873  16.9560993  75.4236104
 123.5137922  15.6577983  76.2021060 113.0052256  24.1258873  84.2114047
 113.7061716  24.7595356  84.3643441 112.5347371  24.4673604  83.4509686
 121.1306652  22.4676823  72.4961954 121.4066496  22.3533417  73.4055828
 120.2611151  22.0694308  72.4574127 120.8053542  16.6803480  82.0366597
 120.1524993  16.9279388  81.3819050 121.1833922  15.8667619  81.7029074
 117.7660716  26.7163174  76.1394767 117.9483111  25.8984829  76.6022519
 118.5893702  26.9330866  75.7019657 118.1002882  25.6431359  73.4009816
 118.6290648  25.1323813  72.7879978 118.3631101  25.3273889  74.2655349
 116.8541115  17.4223291  88.5232634 116.1781752  17.3217421  89.1935009
 117.6768749  17.2662505  88.9868631 108.6019975  23.6595228  81.1445149
 109.1873411  22.9138916  81.2773053 108.4044813  23.9699185  82.0281813
 111.4558630  26.6946475  76.1607592 110.7869005  27.1792603  75.6771632
 111.3171499  26.9415696  77.0750970 103.1937629  16.2300828  79.8649592
 103.2321729  15.6964419  80.6586710 102.6877922  15.7036034  79.2460570
 115.5963898  28.7290219  82.7590250 116.1482206  28.8921840  83.5239335
 115.9370092  29.3194657  82.0870275 110.5728392  11.0765369  83.3612135
 110.6369718  11.9380200  82.9489532 110.5095512  10.4639370  82.6284493
 110.0480664  13.1488501  87.0085169 110.6752703  12.7665579  87.6222693
 109.1908583  12.9302703  87.3740861 120.4474773  23.5551476  88.6138904
 120.9914677  24.1681435  88.1193859 119.8661618  24.1131055  89.1305917
 106.8246207  14.9564930  72.9403524 107.1199648  14.0475609  72.8870577
 105.9234243  14.9352670  72.6184526 118.7332286  26.6772194  79.7453932
 118.6083425  25.8761934  79.2364878 119.3911377  27.1718388  79.2567902
 110.3540454  13.0320927  78.9231072 109.6327040  13.6456895  78.7838546
 111.1433710  13.5678692  78.8447718 120.7967194  24.4781214  81.3733482
 119.8497530  24.3586566  81.3011809 121.1449967  23.5903713  81.4559744
 113.1566767  10.3675353  85.1971724 113.6801169  10.6137650  85.9598033
 112.9379101  11.1995388  84.7774861 108.5534048  12.6379028  73.0642849
 108.2246755  11.7576407  72.8817955 108.9073419  12.5826697  73.9519238
 117.8013627  24.2733931  77.5737834 117.6538590  23.3450638  77.7545404
 118.6267121  24.2954021  77.0894910 111.6675872  12.9251998  73.4318327
 112.0071944  13.4537919  72.7096935 112.1147992  13.2632404  74.2076893
 121.4047749  25.0962489  78.6602707 122.3294297  24.8905351  78.5227158
 121.2363053  24.8478891  79.5692049 114.3619312  11.3089049  82.8821395
 114.0216133  10.5096862  83.2842075 113.6558319  11.6090759  82.3098228
 113.6544019  11.4226619  71.6311619 114.3752381  11.8007872  71.1275336
 113.0309323  12.1415496  71.7346597 117.7975142  12.1271768  72.5669952
 118.0138756  13.0096406  72.2658780 117.3169209  11.7357982  71.8375594
 112.5374363  15.0857482  79.1440696 112.3918944  15.3997785  80.0364978
 112.0599567  15.7042382  78.5911595 114.3970746  12.0760030  79.1921586
 114.3832315  11.1801123  78.8553884 115.1143174  12.0830693  79.8259872
 116.2496877  12.5097370  81.2374713 115.9914654  13.4314440  81.2359044
 115.7181917  12.1127804  81.9275177 121.1943065  25.6148157  74.0164799
 121.3679943  25.0494579  73.2638651 121.6871957  26.4149052  73.8344289
 107.0120025  17.6262826  82.0828357 106.4673493  18.4022634  82.2148632
 107.8899375  17.9733630  81.9247479 113.8007642  10.9574410  74.4609156
 113.9223553  10.0291056  74.6600043 113.5109684  10.9713096  73.5487471
 127.0482457  18.3784580  75.6355098 127.4913603  17.6291905  75.2374222
 126.1708967  18.3694716  75.2528830 122.1818238  24.9314921  71.1161697
 122.8769142  25.5521614  71.3349012 122.5241388  24.0810273  71.3914075
 107.7986047  16.7532722  84.9758514 107.0567783  16.9015358  85.5623145
 107.4778791  17.0140988  84.1125264 124.0809661  22.3814627  72.6449028
 124.6060985  22.7201900  71.9198348 123.9932014  21.4461642  72.4612162
 115.7429710  26.2948700  84.7738904 116.0516836  26.0497847  85.6461604
 116.5405192  26.4995339  84.2857775 115.7650322  28.4486610  77.0044281
 115.3255312  27.9562989  77.6977138 116.5158439  27.9059578  76.7636356
 108.2442661  24.6398151  77.0068909 109.0700681  24.3401923  76.6267552
 107.8936713  23.8705773  77.4558698 113.2124194  23.9924619  79.0766583
 112.5904203  23.3295324  78.7768810 113.8829061  24.0185751  78.3940230
 106.4451266  22.5584477  77.9657843 105.6083174  22.1306652  77.7841844
 106.4174911  22.7516921  78.9028634 113.2848721  12.4706407  88.6699089
 113.3336877  13.3468530  88.2876858 113.8271236  11.9283800  88.0970732
 123.7703567  23.0147530  87.9500226 122.9799111  22.9971669  87.4104725
 123.5336922  23.5535824  88.7049262 123.8901442  19.8639997  85.2632954
 123.9399447  19.6990004  86.2048477 123.7815365  18.9967256  84.8730835
 112.7737701  22.5428543  72.5525043 112.9225821  23.2264007  71.8991716
 113.5804144  22.5233633  73.0674499 121.1805204  15.8470925  86.5792261
 122.0815067  15.7077390  86.2876259 121.2553179  16.0125380  87.5190438
 115.5148010  13.2237780  85.4245447 114.6451319  13.5171346  85.1528036
 115.7507490  13.8078225  86.1452711 125.3919639  22.2836938  85.5074976
 125.1004447  22.6466919  86.3438437 124.7791770  21.5703947  85.3288308
 126.5915321  19.8489818  78.0277546 127.4262213  20.2879622  78.1915106
 126.7274450  19.3728471  77.2085792 123.6406827  17.4069553  83.9755034
 124.1160949  17.5997199  83.1673885 122.7172393  17.4628739  83.7298417
 110.5290334  18.5693720  73.5586112 110.2836376  17.6656050  73.7566322
 110.6986248  18.5710871  72.6165590 109.7985981  14.3022078  71.0572273
 109.1055226  14.3766433  70.4012309 109.5537733  13.5382421  71.5793790
 116.2733106  25.0376673  70.0236791 115.7007073  25.6566860  69.5707262
 116.8465900  25.5876035  70.5576712 122.3408496  14.2835313  82.2083339
 123.2925919  14.3833411  82.2295563 122.1711947  13.4913582  82.7181424
 120.3622876  11.3690896  82.3942740 119.7672808  11.6495909  81.6989229
 120.0772572  11.8584797  83.1659481 119.4930366  25.3213823  71.1545373
 120.4261039  25.2559385  71.3578248 119.4053579  26.1570090  70.6959905
 122.1218383  24.6379693  68.1149320 122.0432014  24.3039557  69.0085078
 122.9428050  25.1301461  68.1140793 124.8196574  17.5041433  81.3225639
 124.7872894  16.5657433  81.5085323 125.4297198  17.5825469  80.5891464
 116.6579905  16.3737486  67.3652843 117.6039010  16.2443694  67.4341261
 116.2794150  15.6352148  67.8422271 124.9691062  14.2952476  81.3683922
 124.4530111  13.5110933  81.1813851 125.8531011  13.9671193  81.5330442
 130.6373124  18.5657440  80.4631676 131.3676512  18.3042728  81.0239379
 130.0280069  17.8286162  80.5033744 128.7188421  16.7065302  81.0606127
 127.9921584  16.5721267  80.4522619 128.3035708  17.0142131  81.8662845
 116.5418597  20.4255232  88.8253500 117.4621607  20.6033831  89.0193546
 116.5068180  19.4811277  88.6733199 114.8422822  14.2987462  67.3007728
 113.9354277  14.0020575  67.3770442 115.1198803  14.0017280  66.4342014
 105.7600762  15.6193826  77.7506775 105.4403547  14.7659134  77.4581149
 105.2134191  15.8342404  78.5064742 109.5380670  18.3356267  81.4676281
 109.7566680  19.2673374  81.4864315 109.9506444  17.9764241  82.2531085
 114.4108535  13.9089472  90.8579030 114.3105262  14.8583829  90.7891121
 114.1930077  13.5807711  89.9855100 113.6121607  11.1574397  67.4419707
 114.4740771  11.4829296  67.7015525 113.7971951  10.3705893  66.9292773
 105.6289022  19.2396737  79.7199896 104.9352494  18.8250690  79.2069851
 106.3762013  19.2817274  79.1233315 114.2739805  17.3386611  89.6744092
 113.7906887  18.1386971  89.8807981 114.3600744  17.3494556  88.7211536
 107.5425765  19.1714991  77.5965911 107.5196453  19.2702678  76.6447794
 107.8526401  20.0180142  77.9183077 110.2013143  21.2291146  81.7112526
 111.1556396  21.1975088  81.6442457 110.0025666  20.7681770  82.5262751
 110.7912525  19.7992262  84.2783323 111.6105414  20.2936341  84.3018160
 111.0649333  18.8824230  84.2500891 120.5479121  12.1903014  73.6411279
 119.6604976  12.4752665  73.4231473 120.9633110  12.0296778  72.7938556
 123.8993657  12.2149535  77.3565618 124.6754047  12.7045988  77.6290235
 123.1741791  12.6407589  77.8137487 108.5563372  26.7710765  78.7282723
 108.4217839  26.0111166  78.1620721 108.1395434  27.4951665  78.2611512
 119.6922335  21.9547689  67.7359299 120.3958185  22.1597691  68.3516954
 118.9684983  22.5224451  68.0008382 120.5220145  17.7057550  73.8561569
 120.4655346  18.1626102  73.0169201 121.0748487  16.9448235  73.6784412
 124.3324951  13.4947282  74.6811688 124.0761885  13.0943918  75.5119896
 123.7077819  14.2091076  74.5561827 128.6437289  16.2343355  77.1882980
 128.0836847  16.3036545  77.9614542 128.0380792  16.0584340  76.4682476
 111.7132497  27.6680082  78.9401166 111.5964882  28.6125515  78.8379856
 110.8924944  27.3653644  79.3286965 121.6009032  22.3930218  69.7857759
 122.4354636  21.9611417  69.6035234 121.4393375  22.2212232  70.7134653
 121.2554924  18.8962331  71.1514098 121.2003728  18.7306603  70.2102542
 120.6300979  19.6038364  71.3076288 106.0447439  14.1330396  84.9775520
 106.6906303  13.6229350  85.4662745 105.8364590  14.8699077  85.5518945
 118.5700831  21.2011243  90.4767661 119.4391991  21.3751896  90.1154296
 118.0907583  22.0205660  90.3543390 112.7387012  28.3208344  82.1557094
 113.6414258  28.3531954  82.4723589 112.5124382  27.3908795  82.1703430
 114.4940614  27.0739331  78.8167173 113.5436245  27.0741192  78.7031545
 114.7973100  26.3272065  78.3003208 110.3844930  11.2798013  89.0750534
 111.2476392  10.9234818  89.2853859 109.8110341  10.9411908  89.7625939
 130.2293307  32.9099869  79.8812935 130.8671717  32.7906617  79.1776276
 130.1114150  33.8580713  79.9400888 127.0383013  32.8627297  79.8174460
 126.7001525  32.7468362  78.9294995 127.9072782  32.4618462  79.7975466
 122.8969829  34.7162774  75.8071351 122.3334694  34.6252711  75.0387639
 122.7822224  33.8962678  76.2873844 127.5202796  34.0162149  85.7760666
 127.5091437  33.6214947  84.9041169 127.6823436  33.2828222  86.3694437
 120.4434261  36.2113965  78.6455572 121.2355553  35.8704790  78.2301871
 120.6830911  36.3208940  79.5657725 128.4769388  38.3833741  71.1185816
 127.8257367  38.9687822  70.7319830 129.2713751  38.9139936  71.1780853
 122.4025015  35.4722879  71.5172950 123.1755891  34.9251866  71.3785826
 122.7550414  36.3367128  71.7287412 124.2410057  36.7999261  84.7239850
 123.9499923  37.7044892  84.6086516 124.8767042  36.8415788  85.4383919
 125.1666264  34.1776109  81.3141209 125.7629837  33.9532132  80.5998172
 125.2241236  33.4360855  81.9166657 124.7391293  31.6315545  69.1491400
 124.9916813  31.1097066  68.3874863 123.8015852  31.4681690  69.2518084
 129.7834576  30.6351323  76.9566144 130.5697665  30.2170746  76.6056561
 130.0473280  31.5397415  77.1247792 129.9544653  36.0724173  71.6554800
 129.3190486  36.1458800  72.3675705 129.6242059  36.6617772  70.9773880
 135.1843003  30.5726556  77.8599122 135.9168175  30.0025773  78.0936951
 134.4282358  30.1848157  78.3005628 124.4587581  33.5343651  71.3515775
 124.3423840  32.8588554  72.0196860 124.5689841  33.0476025  70.5347928
 126.8019122  32.9953798  75.0562464 126.4377330  32.4684419  75.7675386
 127.6586238  32.6052267  74.8828950 132.7068423  24.2848130  82.3193731
 132.3751748  25.1543541  82.0954946 132.1114036  23.9684414  82.9987761
 126.4424609  28.0243697  70.0523813 126.6099012  28.8923934  70.4194284
 126.2521778  28.1870979  69.1285102 129.1999943  36.4860676  81.7189643
 128.9000666  37.3885715  81.6105451 128.8551002  36.2192860  82.5710796
 122.6512424  32.9374473  77.7526348 121.7262920  32.8050687  77.9604040
 122.8996837  33.7168692  78.2496290 132.5997086  29.0043217  79.3987081
 131.6913964  28.9358625  79.1045842 132.5484682  29.4815161  80.2268906
 126.4213830  30.4801355  71.0370480 126.3013455  30.9258406  71.8755960
 125.7266419  30.8286673  70.4784018 120.0121235  32.5807747  78.5870137
 120.1413616  32.8342226  79.5009549 119.3318686  33.1735455  78.2674792
 124.1820722  43.2504997  74.6860611 124.1044752  44.2012822  74.7649092
 123.5782366  42.9050869  75.3435537 126.6737952  30.4232862  87.3421978
 125.8971286  30.9826782  87.3324843 127.3128515  30.9089645  87.8636848
 134.4658733  27.2059655  81.1764955 133.8233113  27.4992188  80.5304749
 133.9613661  27.0912575  81.9818151 132.1198896  30.9522828  71.8650814
 133.0316752  31.1850215  71.6898511 131.6108543  31.5359872  71.3025892
 124.9284324  33.2318315  86.9039945 125.6699009  33.7703359  86.6274769
 124.2221310  33.8584604  87.0611497 130.4039664  35.3747456  85.5012106
 130.8123020  34.9329866  84.7566739 129.6816926  34.8000083  85.7546299
 126.7570734  30.3120063  82.8745663 127.6031929  30.7359476  83.0180312
 126.6969372  29.6553687  83.5684226 130.7268479  35.9348647  79.2564395
 130.0977341  36.0994361  78.5540463 130.3394141  36.3490256  80.0275359
 134.6057711  36.8703084  76.6108759 133.9208749  37.2501986  76.0605792
 134.6901560  37.4798411  77.3440707 129.9070179  27.9724431  84.5326837
 129.6631111  28.7266492  83.9961113 130.1830110  28.3509779  85.3674084
 131.8608642  34.5163043  83.2104103 132.0725537  35.1594803  82.5338484
 131.8138390  33.6825360  82.7426033 129.4634871  27.1280864  80.1140675
 128.6019350  27.4262118  80.4057412 129.4897306  27.3451263  79.1821707
 126.2796441  35.6723055  76.5214480 126.7434786  35.9510758  75.7319103
 126.0153239  34.7706499  76.3387571 123.1720522  35.2194536  79.4594244
 123.7421879  35.6481805  78.8211728 123.7628633  34.9377121  80.1578429
 125.2165327  31.7946207  73.3304046 125.9189370  32.2467251  73.7977972
 124.8845955  31.1530026  73.9583939 123.6645688  30.3857964  87.7055255
 123.0344349  31.0674244  87.9390652 123.5581776  30.2741045  86.7608393
 118.9590661  30.0529760  78.6321179 118.1689715  30.3087288  78.1561290
 119.4501908  30.8678098  78.7373220 132.9754470  37.3934999  81.3826460
 133.7971914  36.9915186  81.1009142 132.9716873  37.2903233  82.3342576
 120.9105406  30.4174339  75.5904656 120.1136569  30.5293033  76.1088151
 120.6830998  30.7560991  74.7245546 126.7411074  36.9419042  83.5387170
 126.8055506  37.4039449  84.3745342 126.0321997  36.3116407  83.6669480
 117.2428364  30.3060250  81.0636170 117.4936402  31.1907260  81.3293746
 117.7787912  30.1264852  80.2911262 141.0660463  33.7373747  77.7311431
 140.3124172  33.1681145  77.5755436 141.2008004  33.7036412  78.6782066
 126.4559091  38.6087150  73.4066151 126.3204766  39.4538685  73.8350999
 126.9968904  38.8106427  72.6432085 122.9426431  24.6878729  90.0680506
 122.5493376  24.1344928  90.7428150 123.7592571  24.9989308  90.4587024
 119.9088489  36.1262588  73.9794076 120.4213009  36.9205838  74.1299641
 120.5611201  35.4288878  73.9127677 121.7183373  39.2428344  76.0616829
 121.8950002  40.1646309  75.8737813 122.5140207  38.9286763  76.4911209
 125.8594392  26.1036609  87.6600763 126.6004105  26.7043762  87.5805225
 126.0912315  25.3614246  87.1018805 121.0035730  31.2892976  85.9378992
 120.8889245  30.3878233  86.2386091 120.1480248  31.5356673  85.5863809
 128.0827568  39.2310716  87.5366493 127.6391422  38.4447095  87.2187397
 128.7444781  39.4189867  86.8710384 122.8414689  40.7606518  82.0627171
 123.3922114  40.6323581  81.2904165 122.0026165  41.0601407  81.7122064
 130.1808806  39.5113516  85.5647894 130.1627281  40.3322397  85.0728163
 131.1028726  39.3867591  85.7898035 126.6381860  37.0257646  86.4071402
 127.1710197  36.2645934  86.1770710 126.1095941  36.7331297  87.1495557
 129.8051555  22.1317711  81.9365044 129.4615824  23.0219353  81.8604155
 130.1730517  21.9419369  81.0734629 117.8737405  34.4551242  74.7553646
 118.7112627  34.8648250  74.5387354 118.0515673  33.5150684  74.7253840
 129.7701838  32.1226323  70.4437479 129.2548461  32.8930927  70.6825867
 129.4979146  31.4491459  71.0670541 127.3548949  26.9676023  75.5022718
 126.4990545  26.5782874  75.3228356 127.7675900  27.0467984  74.6422503
 128.8848095  24.5022367  79.9014277 128.3812891  24.4652502  79.0882083
 129.1778702  25.4115109  79.9610934 125.1290981  24.5861096  78.9080459
 125.9943978  24.3903905  78.5486349 125.1968490  24.3571448  79.8349816
 134.7436112  34.8758677  72.3790653 133.9665554  34.5369837  71.9345815
 135.4227593  34.8811300  71.7045618 129.5588141  29.9953415  72.2697261
 129.2538276  30.3099564  73.1207404 130.5118583  30.0734835  72.3124594
 128.0034573  36.1543638  73.9190215 127.4755934  35.4196398  73.6063452
 127.5022075  36.9318314  73.6730183 132.9827419  34.3492659  79.0357261
 132.3251093  35.0391920  79.1237389 133.7867818  34.7389090  79.3791247
 122.7353300  26.8163304  76.2796826 123.3097052  26.5938486  75.5470019
 123.3224283  26.8851999  77.0325427 131.7932877  32.7037031  77.0861203
 132.3064759  33.3367023  77.5882912 132.4434101  32.1038227  76.7204563
 123.0622887  28.8467765  70.2992711 122.2260200  29.1842452  70.6201986
 122.9227657  28.7116745  69.3619848 125.0375968  23.6904553  75.0071895
 124.3840380  23.3753570  74.3828510 124.9956442  23.0680294  75.7331718
 126.1487173  33.9723848  66.9225188 125.2414234  33.7413102  67.1216337
 126.6458205  33.1761468  67.1099169 129.0555252  42.6821355  69.8421874
 128.3816950  42.9853052  70.4506832 129.4421074  43.4850436  69.4927331
 128.2713708  30.1786487  79.3319543 127.3536270  30.4001434  79.1741231
 128.6873852  30.2532797  78.4731250 129.0548756  31.5777902  74.4622223
 129.8020575  32.0899300  74.1529345 129.3240346  31.2561955  75.3226617
 127.3275406  34.0736443  71.4449178 126.4186625  33.7895476  71.5421647
 127.3570490  34.4935522  70.5852484 132.5594674  37.6843033  75.2140345
 132.1057001  36.8433943  75.2705536 131.9288640  38.3204431  75.5515125
 131.5027593  28.6135019  76.4441013 130.7650350  28.1012405  76.7751255
 131.7554367  28.1735400  75.6324290 131.0027613  39.5219529  76.1490163
 131.2950587  40.0824586  75.4302529 131.5126233  39.8148090  76.9043322
 131.6039220  21.3911271  77.0382782 131.9098097  20.5308634  76.7508697
 132.3291825  21.9828891  76.8381776 117.8963577  31.7941957  75.4264380
 117.6987976  31.2011318  74.7015446 117.3410241  31.4894167  76.1440319
 125.8760300  31.6865064  77.5458973 125.9308910  30.7338900  77.4701450
 125.0651502  31.8424503  78.0300271 127.0251494  35.6145187  68.7837256
 126.5870924  34.8981046  68.3242894 127.7661935  35.8421302  68.2222348
 123.8152660  30.3042123  75.3049352 123.0020526  30.6036294  75.7114544
 124.3111654  29.9097812  76.0223834 125.9661238  40.2999880  77.2383617
 125.9237417  40.5260727  76.3092149 126.8823937  40.0663255  77.3869418
 129.4126872  30.7683948  84.1364246 129.7676260  30.9955421  84.9958711
 130.0599003  31.1002325  83.5141501 135.1424609  33.8902384  74.8413575
 135.0042507  34.0803980  73.9134764 134.7860828  34.6521767  75.2981626
 123.3066735  27.8760479  80.9210587 123.9466114  27.7349238  80.2233550
 122.4744265  27.5894992  80.5449189 135.1693988  35.9578911  79.8524846
 135.6030495  35.8654200  80.7007900 135.8825569  35.9336411  79.2144862
 124.0827039  37.1762909  77.0345579 124.8767637  36.6813230  76.8328154
 123.3718731  36.6480773  76.6713285 128.9021883  39.5581005  81.3857947
 128.9558906  40.1271941  82.1535663 128.0336665  39.7282890  81.0211984
 120.3909802  31.3205991  73.1105332 119.4607390  31.2590447  73.3275294
 120.4867274  30.7981944  72.3141973 120.3095351  27.8460804  75.6983574
 120.5702169  28.7606137  75.5892734 121.1312524  27.3785247  75.8480186
 121.7820277  29.2598561  82.8682398 122.4543330  29.0515923  82.2195047
 120.9550063  29.0620647  82.4287630 136.0309538  36.0002612  82.3857732
 136.2245428  36.9048422  82.6317007 135.9310156  35.5410031  83.2196317
 127.6845849  25.8860502  84.8848059 127.0373764  26.5850452  84.7912535
 128.4546864  26.3196646  85.2524307 131.0924647  36.1509354  87.9598612
 130.9410153  35.9219906  87.0428696 131.0829326  37.1079956  87.9729957
 127.8609983  33.7241267  82.9444879 128.7902043  33.8752427  82.7713846
 127.4401013  33.8125288  82.0893525 126.6598315  37.7491931  80.7143416
 126.5209400  37.3810716  81.5869354 125.8712911  38.2639571  80.5427374
 127.2546467  42.8501028  72.0568953 127.4298222  42.3789071  72.8714576
 126.5679255  43.4766794  72.2850214 128.2103530  37.1273534  78.1032254
 127.8753363  37.0874304  78.9989904 127.7107476  36.4618250  77.6302664
 122.1847774  32.5341164  83.6284835 122.0467572  31.8021403  84.2296374
 123.0952697  32.4450064  83.3469023 131.1462722  34.4729568  68.3769314
 130.5291892  33.7476397  68.2802366 130.6779210  35.2338929  68.0336388
 124.8130075  32.2461123  83.1168515 125.5229693  31.6054316  83.0755133
 124.7699383  32.4974018  84.0394696 132.8016853  39.1828477  86.0375094
 132.7429399  38.4987697  85.3705677 133.2036372  39.9247467  85.5855720
 123.5259009  29.2326341  84.9364154 122.9896366  28.7817080  85.5885751
 122.9375717  29.3672250  84.1934619 121.8207552  45.9990391  78.8308813
 122.0604150  46.6308915  79.5087832 120.9776749  45.6478431  79.1174172
 122.9361267  28.6914993  67.4990618 122.0590734  28.5703794  67.1352865
 123.4119021  27.9001071  67.2469507 132.8034261  37.1468061  84.2689074
 131.9161039  36.8093983  84.3915473 133.3732812  36.4151092  84.5057839
 114.4563408  33.4792152  77.5932125 115.1434447  33.1653883  77.0053141
 114.3011536  34.3833517  77.3199377 119.2598130  28.3682349  82.0217149
 119.1756319  27.7608019  81.2867559 118.4380836  28.8591367  82.0226645
 126.3335414  41.8069513  81.2350317 126.2605585  42.6124485  81.7469622
 125.8912807  42.0061479  80.4098338 126.1225194  41.0441283  74.7453139
 125.3392715  41.5862963  74.8391363 126.8217939  41.5615263  75.1447380
 129.4321844  26.8535913  77.3887344 129.9290543  26.1005875  77.0688414
 128.6608825  26.8900229  76.8230553 137.2851601  32.5576278  79.0305635
 137.2741477  33.4400994  78.6599569 136.4168980  32.2047829  78.8360173
 128.7934097  41.7056347  83.3908476 129.5062070  42.3403812  83.3184377
 128.3024126  41.8020213  82.5748478 130.5151624  35.6107600  74.9625767
 129.5807903  35.7309062  74.7930472 130.6928293  34.7080067  74.6985777
 126.0156812  28.9953296  77.1159029 125.6454600  28.4424336  77.8039934
 126.5115905  28.3911429  76.5634029 133.9024176  31.4524919  75.4975802
 134.3684628  32.2852911  75.4236104 134.3531676  30.9869901  76.2021060
 123.8446011  39.4550791  84.2114047 124.5455470  40.0887274  84.3643441
 123.3741126  39.7965522  83.4509686 131.9700407  37.7968740  72.4961954
 132.2460251  37.6825335  73.4055828 131.1004906  37.3986225  72.4574127
 131.8740838  23.8205506  79.5366703 130.9603918  24.0509733  79.7048910
 132.3033940  23.9043950  80.3880735 131.6447297  32.0095398  82.0366597
 130.9918747  32.2571305  81.3819050 132.0227677  31.1959536  81.7029074
 128.6054471  42.0455091  76.1394767 128.7876865  41.2276747  76.6022519
 129.4287457  42.2622783  75.7019657 128.9396636  40.9723276  73.4009816
 129.4684403  40.4615731  72.7879978 129.2024856  40.6565807  74.2655349
 127.6934870  32.7515209  88.5232634 127.0175507  32.6509338  89.1935009
 128.5162504  32.5954423  88.9868631 119.4413729  38.9887146  81.1445149
 120.0267166  38.2430834  81.2773053 119.2438567  39.2991102  82.0281813
 122.2952384  42.0238393  76.1607592 121.6262760  42.5084521  75.6771632
 122.1565254  42.2707613  77.0750970 114.0331384  31.5592746  79.8649592
 114.0715483  31.0256337  80.6586710 113.5271677  31.0327951  79.2460570
 126.4357653  44.0582137  82.7590250 126.9875961  44.2213758  83.5239335
 126.7763846  44.6486574  82.0870275 121.4122146  26.4057286  83.3612135
 121.4763473  27.2672117  82.9489532 121.3489266  25.7931288  82.6284493
 120.8874419  28.4780419  87.0085169 121.5146457  28.0957496  87.6222693
 120.0302337  28.2594621  87.3740861 131.2868527  38.8843394  88.6138904
 131.8308431  39.4973352  88.1193859 130.7055372  39.4422972  89.1305917
 117.6639961  30.2856848  72.9403524 117.9593402  29.3767526  72.8870577
 116.7627997  30.2644587  72.6184526 129.5726040  42.0064112  79.7453932
 129.4477180  41.2053852  79.2364878 130.2305131  42.5010305  79.2567902
 121.1934208  28.3612845  78.9231072 120.4720794  28.9748812  78.7838546
 121.9827464  28.8970609  78.8447718 131.6360948  39.8073132  81.3733482
 130.6891284  39.6878483  81.3011809 131.9843722  38.9195630  81.4559744
 123.9960522  25.6967271  85.1971724 124.5194924  25.9429568  85.9598033
 123.7772855  26.5287306  84.7774861 119.3927803  27.9670946  73.0642849
 119.0640509  27.0868325  72.8817955 119.7467174  27.9118614  73.9519238
 128.6407382  39.6025848  77.5737834 128.4932344  38.6742556  77.7545404
 129.4660875  39.6245939  77.0894910 122.5069626  28.2543915  73.4318327
 122.8465699  28.7829837  72.7096935 122.9541747  28.5924322  74.2076893
 132.2441504  40.4254407  78.6602707 133.1688051  40.2197268  78.5227158
 132.0756807  40.1770808  79.5692049 125.2013067  26.6380966  82.8821395
 124.8609887  25.8388779  83.2842075 124.4952073  26.9382677  82.3098228
 125.8529539  23.7230279  81.3348718 126.6755608  23.2490757  81.2127608
 126.0967602  24.5020762  81.8347404 124.4937773  26.7518537  71.6311619
 125.2146136  27.1299790  71.1275336 123.8703077  27.4707414  71.7346597
 128.6368896  27.4563686  72.5669952 128.8532510  28.3388324  72.2658780
 128.1562963  27.0649899  71.8375594 123.3768117  30.4149399  79.1440696
 123.2312698  30.7289702  80.0364978 122.8993321  31.0334300  78.5911595
 125.2364500  27.4051947  79.1921586 125.2226069  26.5093041  78.8553884
 125.9536928  27.4122611  79.8259872 127.0890631  27.8389287  81.2374713
 126.8308409  28.7606358  81.2359044 126.5575671  27.4419722  81.9275177
 132.0336820  40.9440075  74.0164799 132.2073697  40.3786497  73.2638651
 132.5265711  41.7440969  73.8344289 117.8513780  32.9554744  82.0828357
 117.3067248  33.7314552  82.2148632 118.7293130  33.3025548  81.9247479
 124.6401396  26.2866328  74.4609156 124.7617307  25.3582974  74.6600043
 124.3503439  26.3005013  73.5487471 127.5092587  23.9721238  77.5975876
 127.5314284  24.0360571  76.6427855 127.9260646  23.1325747  77.7916382
 137.8876211  33.7076498  75.6355098 138.3307357  32.9583823  75.2374222
 137.0102721  33.6986634  75.2528830 133.0211992  40.2606839  71.1161697
 133.7162897  40.8813532  71.3349012 133.3635142  39.4102190  71.3914075
 118.6379802  32.0824640  84.9758514 117.8961538  32.2307275  85.5623145
 118.3172546  32.3432906  84.1125264 134.9203415  37.7106544  72.6449028
 135.4454740  38.0493817  71.9198348 134.8325768  36.7753560  72.4612162
 126.5823464  41.6240618  84.7738904 126.8910591  41.3789765  85.6461604
 127.3798946  41.8287257  84.2857775 126.6044076  43.7778528  77.0044281
 126.1649066  43.2854906  77.6977138 127.3552193  43.2351495  76.7636356
 119.0836415  39.9690069  77.0068909 119.9094435  39.6693840  76.6267552
 118.7330467  39.1997691  77.4558698 124.0517948  39.3216537  79.0766583
 123.4297958  38.6587242  78.7768810 124.7222815  39.3477669  78.3940230
 117.2845020  37.8876395  77.9657843 116.4476929  37.4598569  77.7841844
 117.2568666  38.0808838  78.9028634 124.1242476  27.7998325  88.6699089
 124.1730631  28.6760448  88.2876858 124.6664990  27.2575718  88.0970732
 134.6097322  38.3439448  87.9500226 133.8192865  38.3263587  87.4104725
 134.3730676  38.8827742  88.7049262 134.7295197  35.1931915  85.2632954
 134.7793202  35.0281922  86.2048477 134.6209120  34.3259174  84.8730835
 123.6131455  37.8720460  72.5525043 123.7619576  38.5555925  71.8991716
 124.4197899  37.8525550  73.0674499 132.0198959  31.1762843  86.5792261
 132.9208822  31.0369307  86.2876259 132.0946933  31.3417297  87.5190438
 126.3541764  28.5529697  85.4245447 125.4845074  28.8463263  85.1528036
 126.5901245  29.1370142  86.1452711 136.2313393  37.6128856  85.5074976
 135.9398202  37.9758837  86.3438437 135.6185525  36.8995864  85.3288308
 137.4309076  35.1781736  78.0277546 138.2655967  35.6171540  78.1915106
 137.5668205  34.7020389  77.2085792 134.4800582  32.7361471  83.9755034
 134.9554703  32.9289117  83.1673885 133.5566147  32.7920656  83.7298417
 121.3684088  33.8985638  73.5586112 121.1230130  32.9947968  73.7566322
 121.5380003  33.9002788  72.6165590 129.0580798  24.7709314  82.9410868
 129.5762742  25.5070341  82.6157356 128.7035931  25.0773308  83.7757627
 120.6379736  29.6313995  71.0572273 119.9448981  29.7058350  70.4012309
 120.3931488  28.8674339  71.5793790 129.3093392  21.1909597  78.4611764
 129.5895146  20.5232786  79.0872191 130.0943999  21.3838692  77.9486428
 127.1126861  40.3668591  70.0236791 126.5400828  40.9858778  69.5707262
 127.6859654  40.9167952  70.5576712 133.1802251  29.6127231  82.2083339
 134.1319674  29.7125328  82.2295563 133.0105701  28.8205499  82.7181424
 131.2016630  26.6982814  82.3942740 130.6066562  26.9787827  81.6989229
 130.9166327  27.1876715  83.1659481 130.3324121  40.6505741  71.1545373
 131.2654794  40.5851302  71.3578248 130.2447333  41.4862008  70.6959905
 132.9612137  39.9671611  68.1149320 132.8825769  39.6331475  69.0085078
 133.7821804  40.4593379  68.1140793 135.6590328  32.8333350  81.3225639
 135.6266649  31.8949351  81.5085323 136.2690952  32.9117387  80.5891464
 127.4973659  31.7029403  67.3652843 128.4432764  31.5735612  67.4341261
 127.1187904  30.9644065  67.8422271 135.8084817  29.6244394  81.3683922
 135.2923866  28.8402850  81.1813851 136.6924765  29.2963110  81.5330442
 133.4695544  23.3685409  77.3279735 133.2720365  23.0600498  78.2123067
 134.0795249  24.0947048  77.4577665 141.4766878  33.8949357  80.4631676
 142.2070267  33.6334645  81.0239379 140.8673824  33.1578079  80.5033744
 139.5582175  32.0357220  81.0606127 138.8315339  31.9013185  80.4522619
 139.1429462  32.3434048  81.8662845 127.3812352  35.7547150  88.8253500
 128.3015361  35.9325749  89.0193546 127.3461935  34.8103195  88.6733199
 125.6816576  29.6279380  67.3007728 124.7748032  29.3312493  67.3770442
 125.9592557  29.3309198  66.4342014 116.5994517  30.9485743  77.7506775
 116.2797301  30.0951051  77.4581149 116.0527945  31.1634321  78.5064742
 120.3774424  33.6648184  81.4676281 120.5960434  34.5965292  81.4864315
 120.7900198  33.3056159  82.2531085 127.2978642  24.1716270  73.4551970
 126.4879370  23.8263354  73.8307216 127.9863059  23.8623813  74.0439581
 129.2269190  23.2494316  75.0776266 129.7800229  23.6689770  75.7366289
 129.4639277  22.3230064  75.1199222 125.2502290  29.2381390  90.8579030
 125.1499017  30.1875747  90.7891121 125.0323832  28.9099629  89.9855100
 124.4515361  26.4866315  67.4419707 125.3134525  26.8121213  67.7015525
 124.6365705  25.6997811  66.9292773 116.4682777  34.5688655  79.7199896
 115.7746248  34.1542607  79.2069851 117.2155768  34.6109191  79.1233315
 132.6047998  25.3594841  74.5854930 132.0246667  26.0179645  74.2032983
 132.3383930  24.5372186  74.1742348 131.0551564  24.7599899  76.7876251
 131.5551342  24.8716434  75.9790570 131.6987172  24.4560952  77.4277059
 125.1133560  32.6678529  89.6744092 124.6300641  33.4678889  89.8807981
 125.1994499  32.6786474  88.7211536 118.3819519  34.5006908  77.5965911
 118.3590207  34.5994596  76.6447794 118.6920156  35.3472059  77.9183077
 121.0406897  36.5583063  81.7112526 121.9950151  36.5267006  81.6442457
 120.8419421  36.0973687  82.5262751 121.6306279  35.1284180  84.2783323
 122.4499168  35.6228258  84.3018160 121.9043087  34.2116148  84.2500891
 131.3872876  27.5194932  73.6411279 130.4998731  27.8044582  73.4231473
 131.8026865  27.3588695  72.7938556 134.7387412  27.5441453  77.3565618
 135.5147802  28.0337905  77.6290235 134.0135546  27.9699507  77.8137487
 137.1759970  28.2569072  78.4139559 137.7704461  28.0164808  77.7032867
 137.2486554  27.5376203  79.0413095 119.3957126  42.1002683  78.7282723
 119.2611594  41.3403084  78.1620721 118.9789188  42.8243583  78.2611512
 130.5316089  37.2839607  67.7359299 131.2351939  37.4889609  68.3516954
 129.8078738  37.8516368  68.0008382 131.3613899  33.0349468  73.8561569
 131.3049101  33.4918019  73.0169201 131.9142242  32.2740152  73.6784412
 135.1718705  28.8239200  74.6811688 134.9155639  28.4235835  75.5119896
 134.5471573  29.5382994  74.5561827 139.4831043  31.5635273  77.1882980
 138.9230601  31.6328462  77.9614542 138.8774546  31.3876258  76.4682476
 122.5526252  42.9972000  78.9401166 122.4358636  43.9417432  78.8379856
 121.7318698  42.6945562  79.3286965 132.4402786  37.7222136  69.7857759
 133.2748390  37.2903334  69.6035234 132.2787129  37.5504149  70.7134653
 132.0948679  34.2254249  71.1514098 132.0397482  34.0598520  70.2102542
 131.4694734  34.9330282  71.3076288 116.8841194  29.4622313  84.9775520
 117.5300057  28.9521267  85.4662745 116.6758345  30.1990995  85.5518945
 129.4094586  36.5303161  90.4767661 130.2785745  36.7043813  90.1154296
 128.9301337  37.3497578  90.3543390 125.4044804  23.7262358  70.7299416
 125.3923474  24.6704198  70.8867687 126.2968226  23.5432503  70.4358878
 123.5780766  43.6500262  82.1557094 124.4808013  43.6823872  82.4723589
 123.3518136  42.7200713  82.1703430 125.3334368  42.4031248  78.8167173
 124.3829999  42.4033110  78.7031545 125.6366854  41.6563983  78.3003208
 129.2196924  20.3205135  74.9845353 128.4529319  19.7663621  75.1302036
 129.6307628  20.3927003  75.8459505 121.2238685  26.6089930  89.0750534
 122.0870146  26.2526735  89.2853859 120.6504095  26.2703825  89.7625939
 141.0687062  48.2391787  79.8812935 141.7065471  48.1198534  79.1776276
 140.9507904  49.1872631  79.9400888 137.8776768  48.1919215  79.8174460
 137.5395279  48.0760280  78.9294995 138.7466536  47.7910380  79.7975466
 133.7363583  50.0454691  75.8071351 133.1728449  49.9544628  75.0387639
 133.6215979  49.2254596  76.2873844 138.3596551  49.3454067  85.7760666
 138.3485192  48.9506865  84.9041169 138.5217190  48.6120139  86.3694437
 131.2828015  51.5405883  78.6455572 132.0749307  51.1996708  78.2301871
 131.5224666  51.6500858  79.5657725 139.3163142  53.7125659  71.1185816
 138.6651122  54.2979739  70.7319830 140.1107505  54.2431854  71.1780853
 133.2418769  50.8014796  71.5172950 134.0149645  50.2543783  71.3785826
 133.5944168  51.6659046  71.7287412 135.0803812  52.1291178  84.7239850
 134.7893678  53.0336809  84.6086516 135.7160796  52.1707706  85.4383919
 136.0060019  49.5068027  81.3141209 136.6023591  49.2824049  80.5998172
 136.0634990  48.7652772  81.9166657 135.5785047  46.9607462  69.1491400
 135.8310568  46.4388984  68.3874863 134.6409606  46.7973608  69.2518084
 140.6228330  45.9643241  76.9566144 141.4091419  45.5462664  76.6056561
 140.8867034  46.8689333  77.1247792 140.7938407  51.4016091  71.6554800
 140.1584240  51.4750718  72.3675705 140.4635814  51.9909690  70.9773880
 146.0236757  45.9018474  77.8599122 146.7561929  45.3317691  78.0936951
 145.2676113  45.5140074  78.3005628 135.2981336  48.8635568  71.3515775
 135.1817594  48.1880472  72.0196860 135.4083596  48.3767942  70.5347928
 137.6412877  48.3245715  75.0562464 137.2771084  47.7976336  75.7675386
 138.4979993  47.9344184  74.8828950 143.5462177  39.6140048  82.3193731
 143.2145502  40.4835459  82.0954946 142.9507791  39.2976332  82.9987761
 137.2818364  43.3535615  70.0523813 137.4492766  44.2215851  70.4194284
 137.0915533  43.5162897  69.1285102 140.0393697  51.8152594  81.7189643
 139.7394420  52.7177633  81.6105451 139.6944757  51.5484777  82.5710796
 133.4906178  48.2666391  77.7526348 132.5656675  48.1342605  77.9604040
 133.7390592  49.0460610  78.2496290 143.4390841  44.3335134  79.3987081
 142.5307718  44.2650543  79.1045842 143.3878437  44.8107079  80.2268906
 137.2607585  45.8093273  71.0370480 137.1407210  46.2550323  71.8755960
 136.5660173  46.1578590  70.4784018 130.8514990  47.9099664  78.5870137
 130.9807371  48.1634143  79.5009549 130.1712441  48.5027372  78.2674792
 135.0214477  58.5796914  74.6860611 134.9438507  59.5304739  74.7649092
 134.4176120  58.2342787  75.3435537 137.5131707  45.7524780  87.3421978
 136.7365041  46.3118700  87.3324843 138.1522270  46.2381563  87.8636848
 145.3052487  42.5351573  81.1764955 144.6626867  42.8284106  80.5304749
 144.8007416  42.4204493  81.9818151 142.9592651  46.2814746  71.8650814
 143.8710507  46.5142133  71.6898511 142.4502298  46.8651790  71.3025892
 135.7678079  48.5610233  86.9039945 136.5092763  49.0995277  86.6274769
 135.0615064  49.1876522  87.0611497 141.2433419  50.7039374  85.5012106
 141.6516775  50.2621784  84.7566739 140.5210680  50.1292001  85.7546299
 137.5964489  45.6411980  82.8745663 138.4425684  46.0651394  83.0180312
 137.5363126  44.9845605  83.5684226 141.5662233  51.2640564  79.2564395
 140.9371096  51.4286278  78.5540463 141.1787895  51.6782174  80.0275359
 145.4451465  52.1995002  76.6108759 144.7602503  52.5793903  76.0605792
 145.5295314  52.8090329  77.3440707 140.7463934  43.3016349  84.5326837
 140.5024866  44.0558409  83.9961113 141.0223864  43.6801696  85.3674084
 142.7002397  49.8454961  83.2104103 142.9119292  50.4886721  82.5338484
 142.6532145  49.0117278  82.7426033 140.3028626  42.4572782  80.1140675
 139.4413105  42.7554035  80.4057412 140.3291060  42.6743181  79.1821707
 137.1190195  51.0014972  76.5214480 137.5828541  51.2802675  75.7319103
 136.8546993  50.0998417  76.3387571 134.0114276  50.5486454  79.4594244
 134.5815633  50.9773722  78.8211728 134.6022388  50.2669039  80.1578429
 136.0559081  47.1238125  73.3304046 136.7583124  47.5759168  73.7977972
 135.7239710  46.4821944  73.9583939 134.5039443  45.7149881  87.7055255
 133.8738103  46.3966162  87.9390652 134.3975531  45.6032963  86.7608393
 129.7984415  45.3821677  78.6321179 129.0083469  45.6379206  78.1561290
 130.2895662  46.1970015  78.7373220 143.8148225  52.7226917  81.3826460
 144.6365668  52.3207104  81.1009142 143.8110627  52.6195151  82.3342576
 131.7499160  45.7466257  75.5904656 130.9530324  45.8584951  76.1088151
 131.5224753  46.0852909  74.7245546 137.5804828  52.2710960  83.5387170
 137.6449261  52.7331367  84.3745342 136.8715752  51.6408325  83.6669480
 128.0822118  45.6352168  81.0636170 128.3330156  46.5199178  81.3293746
 128.6181666  45.4556769  80.2911262 151.9054218  49.0665665  77.7311431
 151.1517926  48.4973063  77.5755436 152.0401759  49.0328329  78.6782066
 137.2952846  53.9379067  73.4066151 137.1598521  54.7830603  73.8350999
 137.8362658  54.1398345  72.6432085 133.7820185  40.0170647  90.0680506
 133.3887131  39.4636846  90.7428150 134.5986326  40.3281226  90.4587024
 130.7482243  51.4554505  73.9794076 131.2606764  52.2497756  74.1299641
 131.4004956  50.7580796  73.9127677 132.5577128  54.5720262  76.0616829
 132.7343756  55.4938226  75.8737813 133.3533961  54.2578681  76.4911209
 136.6988146  41.4328526  87.6600763 137.4397860  42.0335679  87.5805225
 136.9306069  40.6906164  87.1018805 131.8429484  46.6184893  85.9378992
 131.7283000  45.7170151  86.2386091 130.9874002  46.8648590  85.5863809
 138.9221322  54.5602634  87.5366493 138.4785176  53.7739012  87.2187397
 139.5838536  54.7481784  86.8710384 133.6808443  56.0898435  82.0627171
 134.2315868  55.9615499  81.2904165 132.8419919  56.3893324  81.7122064
 141.0202560  54.8405434  85.5647894 141.0021036  55.6614315  85.0728163
 141.9422480  54.7159509  85.7898035 137.4775614  52.3549563  86.4071402
 138.0103951  51.5937851  86.1770710 136.9489695  52.0623215  87.1495557
 140.6445309  37.4609629  81.9365044 140.3009579  38.3511271  81.8604155
 141.0124272  37.2711287  81.0734629 128.7131160  49.7843160  74.7553646
 129.5506382  50.1940168  74.5387354 128.8909428  48.8442602  74.7253840
 140.6095592  47.4518240  70.4437479 140.0942215  48.2222845  70.6825867
 140.3372900  46.7783376  71.0670541 138.1942703  42.2967941  75.5022718
 137.3384299  41.9074791  75.3228356 138.6069655  42.3759902  74.6422503
 139.7241850  39.8314284  79.9014277 139.2206645  39.7944419  79.0882083
 140.0172457  40.7407027  79.9610934 135.9684736  39.9153014  78.9080459
 136.8337732  39.7195823  78.5486349 136.0362244  39.6863366  79.8349816
 145.5829866  50.2050595  72.3790653 144.8059309  49.8661754  71.9345815
 146.2621347  50.2103218  71.7045618 140.3981895  45.3245332  72.2697261
 140.0932031  45.6391482  73.1207404 141.3512337  45.4026752  72.3124594
 138.8428327  51.4835556  73.9190215 138.3149689  50.7488315  73.6063452
 138.3415830  52.2610232  73.6730183 143.8221173  49.6784576  79.0357261
 143.1644847  50.3683838  79.1237389 144.6261572  50.0681008  79.3791247
 133.5747055  42.1455222  76.2796826 134.1490807  41.9230403  75.5470019
 134.1618037  42.2143916  77.0325427 142.6326632  48.0328949  77.0861203
 143.1458514  48.6658941  77.5882912 143.2827856  47.4330144  76.7204563
 133.9016642  44.1759683  70.2992711 133.0653954  44.5134370  70.6201986
 133.7621411  44.0408663  69.3619848 135.8769722  39.0196471  75.0071895
 135.2234135  38.7045488  74.3828510 135.8350197  38.3972211  75.7331718
 136.9880927  49.3015766  66.9225188 136.0807989  49.0705019  67.1216337
 137.4851959  48.5053385  67.1099169 139.8949006  58.0113273  69.8421874
 139.2210705  58.3144970  70.4506832 140.2814828  58.8142353  69.4927331
 139.1107463  45.5078404  79.3319543 138.1930024  45.7293351  79.1741231
 139.5267606  45.5824715  78.4731250 139.8942510  46.9069820  74.4622223
 140.6414329  47.4191217  74.1529345 140.1634100  46.5853873  75.3226617
 138.1669161  49.4028361  71.4449178 137.2580380  49.1187394  71.5421647
 138.1964244  49.8227439  70.5852484 143.3988428  53.0134950  75.2140345
 142.9450755  52.1725860  75.2705536 142.7682395  53.6496349  75.5515125
 142.3421348  43.9426936  76.4441013 141.6044104  43.4304323  76.7751255
 142.5948121  43.5027318  75.6324290 141.8421367  54.8511447  76.1490163
 142.1344342  55.4116504  75.4302529 142.3519988  55.1440008  76.9043322
 142.4432975  36.7203188  77.0382782 142.7491852  35.8600552  76.7508697
 143.1685580  37.3120809  76.8381776 128.7357331  47.1233875  75.4264380
 128.5381731  46.5303236  74.7015446 128.1803995  46.8186085  76.1440319
 136.7154055  47.0156981  77.5458973 136.7702664  46.0630818  77.4701450
 135.9045257  47.1716421  78.0300271 137.8645248  50.9437104  68.7837256
 137.4264678  50.2272963  68.3242894 138.6055689  51.1713219  68.2222348
 134.6546415  45.6334041  75.3049352 133.8414280  45.9328212  75.7114544
 135.1505409  45.2389730  76.0223834 136.8054993  55.6291798  77.2383617
 136.7631171  55.8552644  76.3092149 137.7217691  55.3955173  77.3869418
 140.2520626  46.0975866  84.1364246 140.6070014  46.3247339  84.9958711
 140.8992758  46.4294242  83.5141501 145.9818363  49.2194302  74.8413575
 145.8436262  49.4095898  73.9134764 145.6254582  49.9813684  75.2981626
 134.1460489  43.2052397  80.9210587 134.7859869  43.0641156  80.2233550
 133.3138020  42.9186910  80.5449189 146.0087743  51.2870829  79.8524846
 146.4424250  51.1946118  80.7007900 146.7219324  51.2628329  79.2144862
 134.9220793  52.5054827  77.0345579 135.7161392  52.0105147  76.8328154
 134.2112486  51.9772690  76.6713285 139.7415638  54.8872923  81.3857947
 139.7952660  55.4563859  82.1535663 138.8730419  55.0574808  81.0211984
 131.2303557  46.6497909  73.1105332 130.3001145  46.5882364  73.3275294
 131.3261029  46.1273862  72.3141973 131.1489106  43.1752722  75.6983574
 131.4095923  44.0898055  75.5892734 131.9706278  42.7077164  75.8480186
 132.6214031  44.5890479  82.8682398 133.2937085  44.3807841  82.2195047
 131.7943818  44.3912565  82.4287630 146.8703292  51.3294529  82.3857732
 147.0639182  52.2340340  82.6317007 146.7703911  50.8701948  83.2196317
 138.5239603  41.2152420  84.8848059 137.8767518  41.9142369  84.7912535
 139.2940619  41.6488564  85.2524307 141.9318401  51.4801272  87.9598612
 141.7803907  51.2511824  87.0428696 141.9223081  52.4371873  87.9729957
 138.7003737  49.0533185  82.9444879 139.6295797  49.2044344  82.7713846
 138.2794768  49.1417205  82.0893525 137.4992069  53.0783849  80.7143416
 137.3603155  52.7102633  81.5869354 136.7106666  53.5931489  80.5427374
 138.0940221  58.1792946  72.0568953 138.2691977  57.7080989  72.8714576
 137.4073009  58.8058712  72.2850214 139.0497284  52.4565452  78.1032254
 138.7147117  52.4166222  78.9989904 138.5501230  51.7910168  77.6302664
 133.0241528  47.8633082  83.6284835 132.8861326  47.1313321  84.2296374
 133.9346452  47.7741982  83.3469023 141.9856476  49.8021486  68.3769314
 141.3685647  49.0768314  68.2802366 141.5172965  50.5630846  68.0336388
 135.6523829  47.5753041  83.1168515 136.3623448  46.9346233  83.0755133
 135.6093137  47.8265936  84.0394696 143.6410608  54.5120394  86.0375094
 143.5823154  53.8279615  85.3705677 144.0430126  55.2539384  85.5855720
 134.3652763  44.5618259  84.9364154 133.8290120  44.1108997  85.5885751
 133.7769471  44.6964168  84.1934619 132.6601307  61.3282308  78.8308813
 132.8997905  61.9600832  79.5087832 131.8170503  60.9770348  79.1174172
 133.7755022  44.0206910  67.4990618 132.8984488  43.8995711  67.1352865
 134.2512775  43.2292989  67.2469507 143.6428015  52.4759978  84.2689074
 142.7554794  52.1385900  84.3915473 144.2126566  51.7443010  84.5057839
 125.2957162  48.8084070  77.5932125 125.9828202  48.4945800  77.0053141
 125.1405291  49.7125435  77.3199377 130.0991884  43.6974267  82.0217149
 130.0150073  43.0899936  81.2867559 129.2774591  44.1883285  82.0226645
 137.1729168  57.1361431  81.2350317 137.0999340  57.9416402  81.7469622
 136.7306562  57.3353397  80.4098338 136.9618948  56.3733201  74.7453139
 136.1786470  56.9154881  74.8391363 137.6611693  56.8907180  75.1447380
 140.2715598  42.1827830  77.3887344 140.7684298  41.4297793  77.0688414
 139.5002580  42.2192147  76.8230553 148.1245356  47.8868196  79.0305635
 148.1135232  48.7692911  78.6599569 147.2562735  47.5339747  78.8360173
 139.6327852  57.0348265  83.3908476 140.3455824  57.6695730  83.3184377
 139.1417881  57.1312131  82.5748478 141.3545379  50.9399517  74.9625767
 140.4201658  51.0600980  74.7930472 141.5322047  50.0371984  74.6985777
 136.8550567  44.3245213  77.1159029 136.4848354  43.7716254  77.8039934
 137.3509659  43.7203347  76.5634029 144.7417930  46.7816837  75.4975802
 145.2078382  47.6144828  75.4236104 145.1925431  46.3161818  76.2021060
 134.6839765  54.7842708  84.2114047 135.3849225  55.4179191  84.3643441
 134.2134880  55.1257440  83.4509686 142.8094161  53.1260658  72.4961954
 143.0854005  53.0117253  73.4055828 141.9398660  52.7278143  72.4574127
 142.7134593  39.1497424  79.5366703 141.7997673  39.3801651  79.7048910
 143.1427694  39.2335868  80.3880735 142.4841051  47.3387316  82.0366597
 141.8312502  47.5863223  81.3819050 142.8621431  46.5251454  81.7029074
 139.4448225  57.3747009  76.1394767 139.6270620  56.5568665  76.6022519
 140.2681211  57.5914701  75.7019657 139.7790391  56.3015194  73.4009816
 140.3078157  55.7907649  72.7879978 140.0418610  55.9857724  74.2655349
 138.5328624  48.0807127  88.5232634 137.8569261  47.9801256  89.1935009
 139.3556258  47.9246341  88.9868631 130.2807484  54.3179063  81.1445149
 130.8660920  53.5722751  81.2773053 130.0832322  54.6283020  82.0281813
 133.1346139  57.3530311  76.1607592 132.4656514  57.8376438  75.6771632
 132.9959008  57.5999531  77.0750970 124.8725138  46.8884664  79.8649592
 124.9109238  46.3548254  80.6586710 124.3665431  46.3619869  79.2460570
 137.2751407  59.3874054  82.7590250 137.8269715  59.5505676  83.5239335
 137.6157601  59.9778492  82.0870275 132.2515901  41.7349204  83.3612135
 132.3157227  42.5964035  82.9489532 132.1883021  41.1223206  82.6284493
 131.7268173  43.8072337  87.0085169 132.3540212  43.4249414  87.6222693
 130.8696092  43.5886539  87.3740861 142.1262282  54.2135312  88.6138904
 142.6702186  54.8265270  88.1193859 141.5449126  54.7714890  89.1305917
 128.5033716  45.6148766  72.9403524 128.7987157  44.7059444  72.8870577
 127.6021752  45.5936505  72.6184526 140.4119795  57.3356030  79.7453932
 140.2870934  56.5345770  79.2364878 141.0698886  57.8302223  79.2567902
 132.0327963  43.6904762  78.9231072 131.3114549  44.3040730  78.7838546
 132.8221219  44.2262527  78.8447718 142.4754703  55.1365050  81.3733482
 141.5285039  55.0170401  81.3011809 142.8237476  54.2487548  81.4559744
 134.8354276  41.0259189  85.1971724 135.3588678  41.2721485  85.9598033
 134.6166610  41.8579224  84.7774861 130.2321557  43.2962863  73.0642849
 129.9034264  42.4160242  72.8817955 130.5860928  43.2410532  73.9519238
 139.4801136  54.9317766  77.5737834 139.3326099  54.0034473  77.7545404
 140.3054630  54.9537857  77.0894910 133.3463381  43.5835833  73.4318327
 133.6859453  44.1121754  72.7096935 133.7935501  43.9216239  74.2076893
 143.0835258  55.7546325  78.6602707 144.0081806  55.5489186  78.5227158
 142.9150562  55.5062726  79.5692049 136.0406821  41.9672884  82.8821395
 135.7003642  41.1680697  83.2842075 135.3345828  42.2674595  82.3098228
 136.6923293  39.0522196  81.3348718 137.5149363  38.5782674  81.2127608
 136.9361357  39.8312680  81.8347404 135.3331528  42.0810455  71.6311619
 136.0539890  42.4591708  71.1275336 134.7096832  42.7999332  71.7346597
 139.4762651  42.7855604  72.5669952 139.6926265  43.6680242  72.2658780
 138.9956718  42.3941817  71.8375594 134.2161872  45.7441317  79.1440696
 134.0706453  46.0581620  80.0364978 133.7387076  46.3626217  78.5911595
 136.0758255  42.7343865  79.1921586 136.0619824  41.8384958  78.8553884
 136.7930683  42.7414529  79.8259872 137.9284386  43.1681205  81.2374713
 137.6702163  44.0898276  81.2359044 137.3969426  42.7711640  81.9275177
 142.8730574  56.2731992  74.0164799 143.0467452  55.7078415  73.2638651
 143.3659466  57.0732887  73.8344289 128.6907534  48.2846661  82.0828357
 128.1461002  49.0606469  82.2148632 129.5686884  48.6317466  81.9247479
 135.4795151  41.6158245  74.4609156 135.6011062  40.6874891  74.6600043
 135.1897193  41.6296931  73.5487471 138.3486341  39.3013156  77.5975876
 138.3708038  39.3652489  76.6427855 138.7654400  38.4617664  77.7916382
 148.7269966  49.0368415  75.6355098 149.1701112  48.2875740  75.2374222
 147.8496476  49.0278552  75.2528830 143.8605747  55.5898757  71.1161697
 144.5556651  56.2105449  71.3349012 144.2028897  54.7394108  71.3914075
 129.4773556  47.4116558  84.9758514 128.7355292  47.5599193  85.5623145
 129.1566300  47.6724823  84.1125264 145.7597170  53.0398462  72.6449028
 146.2848494  53.3785735  71.9198348 145.6719523  52.1045477  72.4612162
 137.4217219  56.9532536  84.7738904 137.7304345  56.7081683  85.6461604
 138.2192701  57.1579174  84.2857775 137.4437831  59.1070445  77.0044281
 137.0042821  58.6146824  77.6977138 138.1945948  58.5643413  76.7636356
 129.9230170  55.2981986  77.0068909 130.7488190  54.9985758  76.6267552
 129.5724222  54.5289609  77.4558698 134.8911703  54.6508455  79.0766583
 134.2691712  53.9879160  78.7768810 135.5616570  54.6769586  78.3940230
 128.1238775  53.2168313  77.9657843 127.2870683  52.7890487  77.7841844
 128.0962420  53.4100756  78.9028634 134.9636230  43.1290243  88.6699089
 135.0124386  44.0052365  88.2876858 135.5058745  42.5867636  88.0970732
 145.4491076  53.6731366  87.9500226 144.6586620  53.6555505  87.4104725
 145.2124431  54.2119660  88.7049262 145.5688951  50.5223832  85.2632954
 145.6186956  50.3573840  86.2048477 145.4602874  49.6551091  84.8730835
 134.4525210  53.2012378  72.5525043 134.6013330  53.8847842  71.8991716
 135.2591653  53.1817468  73.0674499 142.8592713  46.5054760  86.5792261
 143.7602576  46.3661225  86.2876259 142.9340688  46.6709215  87.5190438
 137.1935519  43.8821615  85.4245447 136.3238828  44.1755181  85.1528036
 137.4294999  44.4662060  86.1452711 147.0707148  52.9420774  85.5074976
 146.7791956  53.3050754  86.3438437 146.4579279  52.2287782  85.3288308
 148.2702830  50.5073653  78.0277546 149.1049722  50.9463458  78.1915106
 148.4061959  50.0312307  77.2085792 145.3194336  48.0653388  83.9755034
 145.7948458  48.2581035  83.1673885 144.3959902  48.1212574  83.7298417
 132.2077843  49.2277556  73.5586112 131.9623885  48.3239886  73.7566322
 132.3773757  49.2294706  72.6165590 139.8974553  40.1001232  82.9410868
 140.4156496  40.8362259  82.6157356 139.5429685  40.4065225  83.7757627
 131.4773490  44.9605913  71.0572273 130.7842735  45.0350268  70.4012309
 131.2325242  44.1966257  71.5793790 140.1487147  36.5201514  78.4611764
 140.4288901  35.8524703  79.0872191 140.9337754  36.7130610  77.9486428
 137.9520615  55.6960508  70.0236791 137.3794582  56.3150695  69.5707262
 138.5253409  56.2459870  70.5576712 144.0196005  44.9419148  82.2083339
 144.9713428  45.0417246  82.2295563 143.8499456  44.1497417  82.7181424
 142.0410385  42.0274732  82.3942740 141.4460317  42.3079744  81.6989229
 141.7560081  42.5168633  83.1659481 141.1717875  55.9797658  71.1545373
 142.1048548  55.9143220  71.3578248 141.0841088  56.8153925  70.6959905
 143.8005892  55.2963529  68.1149320 143.7219523  54.9623392  69.0085078
 144.6215559  55.7885297  68.1140793 146.4984083  48.1625268  81.3225639
 146.4660403  47.2241269  81.5085323 147.1084707  48.2409305  80.5891464
 138.3367414  47.0321321  67.3652843 139.2826519  46.9027529  67.4341261
 137.9581659  46.2935983  67.8422271 146.6478571  44.9536312  81.3683922
 146.1317620  44.1694768  81.1813851 147.5318520  44.6255028  81.5330442
 144.3089298  38.6977327  77.3279735 144.1114119  38.3892415  78.2123067
 144.9189004  39.4238966  77.4577665 152.3160633  49.2241275  80.4631676
 153.0464021  48.9626563  81.0239379 151.7067578  48.4869997  80.5033744
 150.3975930  47.3649138  81.0606127 149.6709093  47.2305102  80.4522619
 149.9823217  47.6725966  81.8662845 138.2206106  51.0839067  88.8253500
 139.1409116  51.2617666  89.0193546 138.1855689  50.1395113  88.6733199
 136.5210331  44.9571297  67.3007728 135.6141786  44.6604410  67.3770442
 136.7986312  44.6601116  66.4342014 127.4388271  46.2777661  77.7506775
 127.1191056  45.4242969  77.4581149 126.8921699  46.4926239  78.5064742
 131.2168179  48.9940102  81.4676281 131.4354189  49.9257210  81.4864315
 131.6293953  48.6348076  82.2531085 138.1372397  39.5008187  73.4551970
 137.3273125  39.1555272  73.8307216 138.8256814  39.1915731  74.0439581
 140.0662945  38.5786234  75.0776266 140.6193984  38.9981687  75.7366289
 140.3033031  37.6521982  75.1199222 136.0896044  44.5673308  90.8579030
 135.9892771  45.5167665  90.7891121 135.8717586  44.2391547  89.9855100
 135.2909116  41.8158233  67.4419707 136.1528280  42.1413131  67.7015525
 135.4759460  41.0289729  66.9292773 127.3076531  49.8980572  79.7199896
 126.6140003  49.4834525  79.2069851 128.0549522  49.9401109  79.1233315
 143.4441752  40.6886759  74.5854930 142.8640421  41.3471563  74.2032983
 143.1777685  39.8664104  74.1742348 141.8945318  40.0891817  76.7876251
 142.3945097  40.2008351  75.9790570 142.5380926  39.7852870  77.4277059
 135.9527314  47.9970446  89.6744092 135.4694396  48.7970807  89.8807981
 136.0388253  48.0078391  88.7211536 129.2213274  49.8298826  77.5965911
 129.1983962  49.9286513  76.6447794 129.5313910  50.6763977  77.9183077
 131.8800652  51.8874981  81.7112526 132.8343905  51.8558924  81.6442457
 131.6813175  51.4265605  82.5262751 132.4700034  50.4576097  84.2783323
 133.2892923  50.9520176  84.3018160 132.7436842  49.5408065  84.2500891
 142.2266630  42.8486850  73.6411279 141.3392485  43.1336500  73.4231473
 142.6420619  42.6880613  72.7938556 145.5781166  42.8733371  77.3565618
 146.3541556  43.3629823  77.6290235 144.8529300  43.2991425  77.8137487
 148.0153725  43.5860990  78.4139559 148.6098216  43.3456726  77.7032867
 148.0880309  42.8668120  79.0413095 130.2350881  57.4294601  78.7282723
 130.1005348  56.6695002  78.1620721 129.8182943  58.1535501  78.2611512
 141.3709844  52.6131524  67.7359299 142.0745694  52.8181527  68.3516954
 140.6472492  53.1808286  68.0008382 142.2007654  48.3641385  73.8561569
 142.1442855  48.8209937  73.0169201 142.7535996  47.6032070  73.6784412
 146.0112460  44.1531117  74.6811688 145.7549394  43.7527753  75.5119896
 145.3865328  44.8674911  74.5561827 150.3224798  46.8927191  77.1882980
 149.7624356  46.9620380  77.9614542 149.7168301  46.7168175  76.4682476
 133.3920006  58.3263918  78.9401166 133.2752391  59.2709350  78.8379856
 132.5712453  58.0237479  79.3286965 143.2796541  53.0514053  69.7857759
 144.1142145  52.6195252  69.6035234 143.1180884  52.8796067  70.7134653
 142.9342433  49.5546167  71.1514098 142.8791237  49.3890438  70.2102542
 142.3088488  50.2622200  71.3076288 127.7234948  44.7914231  84.9775520
 128.3693812  44.2813185  85.4662745 127.5152099  45.5282913  85.5518945
 140.2488340  51.8595079  90.4767661 141.1179500  52.0335731  90.1154296
 139.7695092  52.6789495  90.3543390 136.2438559  39.0554276  70.7299416
 136.2317228  39.9996116  70.8867687 137.1361980  38.8724421  70.4358878
 134.4174521  58.9792180  82.1557094 135.3201767  59.0115790  82.4723589
 134.1911891  58.0492631  82.1703430 136.1728123  57.7323166  78.8167173
 135.2223754  57.7325028  78.7031545 136.4760609  56.9855901  78.3003208
 140.0590678  35.6497052  74.9845353 139.2923074  35.0955539  75.1302036
 140.4701383  35.7218921  75.8459505 132.0632439  41.9381848  89.0750534
 132.9263901  41.5818653  89.2853859 131.4897850  41.5995743  89.7625939
 151.9080816  63.5683705  79.8812935 152.5459226  63.4490452  79.1776276
 151.7901659  64.5164548  79.9400888 148.7170522  63.5211133  79.8174460
 148.3789034  63.4052197  78.9294995 149.5860290  63.1202298  79.7975466
 144.5757338  65.3746609  75.8071351 144.0122203  65.2836546  75.0387639
 144.4609733  64.5546513  76.2873844 149.1990305  64.6745984  85.7760666
 149.1878946  64.2798783  84.9041169 149.3610945  63.9412057  86.3694437
 142.1221770  66.8697801  78.6455572 142.9143062  66.5288625  78.2301871
 142.3618420  66.9792776  79.5657725 150.1556897  69.0417577  71.1185816
 149.5044876  69.6271657  70.7319830 150.9501260  69.5723772  71.1780853
 144.0812524  66.1306714  71.5172950 144.8543400  65.5835701  71.3785826
 144.4337923  66.9950963  71.7287412 145.9197566  67.4583096  84.7239850
 145.6287432  68.3628727  84.6086516 146.5554551  67.4999624  85.4383919
 146.8453773  64.8359945  81.3141209 147.4417346  64.6115967  80.5998172
 146.9028745  64.0944690  81.9166657 146.4178802  62.2899380  69.1491400
 146.6704322  61.7680901  68.3874863 145.4803361  62.1265525  69.2518084
 151.4622084  61.2935158  76.9566144 152.2485174  60.8754582  76.6056561
 151.7260789  62.1981251  77.1247792 151.6332162  66.7308009  71.6554800
 150.9977995  66.8042635  72.3675705 151.3029568  67.3201608  70.9773880
 146.1375090  64.1927486  71.3515775 146.0211349  63.5172389  72.0196860
 146.2477350  63.7059860  70.5347928 148.4806631  63.6537633  75.0562464
 148.1164839  63.1268254  75.7675386 149.3373747  63.2636102  74.8828950
 154.3855932  54.9431966  82.3193731 154.0539257  55.8127377  82.0954946
 153.7901545  54.6268250  82.9987761 148.1212118  58.6827533  70.0523813
 148.2886521  59.5507769  70.4194284 147.9309287  58.8454814  69.1285102
 150.8787452  67.1444512  81.7189643 150.5788175  68.0469550  81.6105451
 150.5338511  66.8776695  82.5710796 144.3299933  63.5958309  77.7526348
 143.4050429  63.4634523  77.9604040 144.5784346  64.3752528  78.2496290
 154.2784595  59.6627052  79.3987081 153.3701473  59.5942460  79.1045842
 154.2272191  60.1398997  80.2268906 148.1001339  61.1385190  71.0370480
 147.9800964  61.5842241  71.8755960 147.4053928  61.4870508  70.4784018
 141.6908744  63.2391582  78.5870137 141.8201125  63.4926061  79.5009549
 141.0106195  63.8319290  78.2674792 145.8608231  73.9088832  74.6860611
 145.7832261  74.8596657  74.7649092 145.2569875  73.5634705  75.3435537
 148.3525461  61.0816697  87.3421978 147.5758795  61.6410618  87.3324843
 148.9916024  61.5673480  87.8636848 156.1446242  57.8643490  81.1764955
 155.5020622  58.1576023  80.5304749 155.6401170  57.7496411  81.9818151
 153.7986405  61.6106663  71.8650814 154.7104261  61.8434050  71.6898511
 153.2896052  62.1943708  71.3025892 146.6071833  63.8902151  86.9039945
 147.3486518  64.4287195  86.6274769 145.9008819  64.5168440  87.0611497
 152.0827173  66.0331291  85.5012106 152.4910529  65.5913702  84.7566739
 151.3604435  65.4583919  85.7546299 148.4358243  60.9703898  82.8745663
 149.2819438  61.3943312  83.0180312 148.3756881  60.3137522  83.5684226
 152.4055988  66.5932482  79.2564395 151.7764850  66.7578196  78.5540463
 152.0181650  67.0074091  80.0275359 156.2845220  67.5286920  76.6108759
 155.5996258  67.9085821  76.0605792 156.3689069  68.1382246  77.3440707
 151.5857688  58.6308266  84.5326837 151.3418620  59.3850327  83.9961113
 151.8617619  59.0093614  85.3674084 153.5396151  65.1746879  83.2104103
 153.7513046  65.8178639  82.5338484 153.4925899  64.3409195  82.7426033
 151.1422380  57.7864699  80.1140675 150.2806859  58.0845953  80.4057412
 151.1684815  58.0035098  79.1821707 147.9583950  66.3306890  76.5214480
 148.4222295  66.6094593  75.7319103 147.6940748  65.4290335  76.3387571
 144.8508031  65.8778372  79.4594244 145.4209388  66.3065640  78.8211728
 145.4416142  65.5960956  80.1578429 146.8952836  62.4530042  73.3304046
 147.5976879  62.9051086  73.7977972 146.5633464  61.8113861  73.9583939
 145.3433197  61.0441799  87.7055255 144.7131858  61.7258080  87.9390652
 145.2369285  60.9324881  86.7608393 140.6378170  60.7113595  78.6321179
 139.8477224  60.9671124  78.1561290 141.1289417  61.5261933  78.7373220
 154.6541979  68.0518834  81.3826460 155.4759423  67.6499021  81.1009142
 154.6504382  67.9487068  82.3342576 142.5892915  61.0758174  75.5904656
 141.7924078  61.1876869  76.1088151 142.3618507  61.4144826  74.7245546
 148.4198583  67.6002877  83.5387170 148.4843015  68.0623285  84.3745342
 147.7109506  66.9700242  83.6669480 138.9215873  60.9644085  81.0636170
 139.1723911  61.8491095  81.3293746 139.4575421  60.7848687  80.2911262
 148.1346600  69.2670985  73.4066151 147.9992275  70.1122521  73.8350999
 148.6756413  69.4690263  72.6432085 144.6213940  55.3462565  90.0680506
 144.2280885  54.7928763  90.7428150 145.4380080  55.6573143  90.4587024
 141.5875998  66.7846423  73.9794076 142.1000518  67.5789673  74.1299641
 142.2398710  66.0872713  73.9127677 143.3970882  69.9012179  76.0616829
 143.5737511  70.8230144  75.8737813 144.1927716  69.5870598  76.4911209
 147.5381901  56.7620444  87.6600763 148.2791614  57.3627597  87.5805225
 147.7699824  56.0198082  87.1018805 142.6823239  61.9476811  85.9378992
 142.5676754  61.0462068  86.2386091 141.8267757  62.1940508  85.5863809
 149.7615077  69.8894551  87.5366493 149.3178931  69.1030930  87.2187397
 150.4232290  70.0773702  86.8710384 144.5202198  71.4190353  82.0627171
 145.0709623  71.2907416  81.2904165 143.6813674  71.7185242  81.7122064
 151.8596315  70.1697351  85.5647894 151.8414790  70.9906232  85.0728163
 152.7816235  70.0451427  85.7898035 148.3169369  67.6841481  86.4071402
 148.8497706  66.9229769  86.1770710 147.7883450  67.3915133  87.1495557
 151.4839064  52.7901547  81.9365044 151.1403333  53.6803189  81.8604155
 151.8518026  52.6003204  81.0734629 139.5524914  65.1135077  74.7553646
 140.3900136  65.5232086  74.5387354 139.7303182  64.1734519  74.7253840
 151.4489347  62.7810158  70.4437479 150.9335970  63.5514763  70.6825867
 151.1766655  62.1075294  71.0670541 149.0336458  57.6259859  75.5022718
 148.1778054  57.2366709  75.3228356 149.4463409  57.7051820  74.6422503
 150.5635604  55.1606202  79.9014277 150.0600400  55.1236337  79.0882083
 150.8566211  56.0698945  79.9610934 146.8078490  55.2444932  78.9080459
 147.6731487  55.0487740  78.5486349 146.8755999  55.0155283  79.8349816
 151.2375650  60.6537250  72.2697261 150.9325785  60.9683399  73.1207404
 152.1906092  60.7318670  72.3124594 149.6822082  66.8127473  73.9190215
 149.1543443  66.0780233  73.6063452 149.1809584  67.5902150  73.6730183
 154.6614928  65.0076494  79.0357261 154.0038602  65.6975755  79.1237389
 155.4655327  65.3972926  79.3791247 144.4140809  57.4747140  76.2796826
 144.9884561  57.2522321  75.5470019 145.0011792  57.5435834  77.0325427
 153.4720386  63.3620867  77.0861203 153.9852268  63.9950858  77.5882912
 154.1221610  62.7622062  76.7204563 144.7410396  59.5051601  70.2992711
 143.9047709  59.8426287  70.6201986 144.6015166  59.3700580  69.3619848
 146.7163477  54.3488389  75.0071895 146.0627889  54.0337406  74.3828510
 146.6743951  53.7264129  75.7331718 147.8274682  64.6307684  66.9225188
 146.9201743  64.3996937  67.1216337 148.3245714  63.8345303  67.1099169
 150.7342761  73.3405191  69.8421874 150.0604459  73.6436888  70.4506832
 151.1208583  74.1434271  69.4927331 149.9501217  60.8370322  79.3319543
 149.0323779  61.0585269  79.1741231 150.3661361  60.9116633  78.4731250
 150.7336265  62.2361738  74.4622223 151.4808084  62.7483135  74.1529345
 151.0027855  61.9145790  75.3226617 149.0062915  64.7320278  71.4449178
 148.0974134  64.4479311  71.5421647 149.0357999  65.1519357  70.5852484
 154.2382183  68.3426868  75.2140345 153.7844510  67.5017778  75.2705536
 153.6076149  68.9788266  75.5515125 153.1815102  59.2718854  76.4441013
 152.4437859  58.7596240  76.7751255 153.4341876  58.8319236  75.6324290
 152.6815122  70.1803365  76.1490163 152.9738096  70.7408422  75.4302529
 153.1913742  70.4731926  76.9043322 153.2826729  52.0495106  77.0382782
 153.5885606  51.1892469  76.7508697 154.0079334  52.6412726  76.8381776
 139.5751086  62.4525793  75.4264380 139.3775485  61.8595153  74.7015446
 139.0197750  62.1478003  76.1440319 147.5547809  62.3448899  77.5458973
 147.6096419  61.3922735  77.4701450 146.7439011  62.5008338  78.0300271
 148.7039003  66.2729022  68.7837256 148.2658433  65.5564881  68.3242894
 149.4449444  66.5005137  68.2222348 145.4940169  60.9625959  75.3049352
 144.6808035  61.2620129  75.7114544 145.9899163  60.5681648  76.0223834
 147.6448747  70.9583716  77.2383617 147.6024926  71.1844562  76.3092149
 148.5611446  70.7247090  77.3869418 151.0914381  61.4267783  84.1364246
 151.4463769  61.6539256  84.9958711 151.7386512  61.7586160  83.5141501
 144.9854244  58.5344314  80.9210587 145.6253623  58.3933073  80.2233550
 144.1531774  58.2478828  80.5449189 145.7614548  67.8346745  77.0345579
 146.5555146  67.3397065  76.8328154 145.0506240  67.3064608  76.6713285
 150.5809392  70.2164840  81.3857947 150.6346415  70.7855777  82.1535663
 149.7124174  70.3866725  81.0211984 142.0697311  61.9789827  73.1105332
 141.1394899  61.9174282  73.3275294 142.1654783  61.4565779  72.3141973
 141.9882860  58.5044639  75.6983574 142.2489678  59.4189973  75.5892734
 142.8100033  58.0369082  75.8480186 143.4607786  59.9182397  82.8682398
 144.1330839  59.7099759  82.2195047 142.6337572  59.7204483  82.4287630
 149.3633358  56.5444337  84.8848059 148.7161273  57.2434287  84.7912535
 150.1334373  56.9780481  85.2524307 152.7712156  66.8093190  87.9598612
 152.6197662  66.5803741  87.0428696 152.7616835  67.7663791  87.9729957
 149.5397492  64.3825102  82.9444879 150.4689552  64.5336262  82.7713846
 149.1188522  64.4709123  82.0893525 148.3385824  68.4075767  80.7143416
 148.1996909  68.0394551  81.5869354 147.5500420  68.9223406  80.5427374
 148.9333976  73.5084863  72.0568953 149.1085731  73.0372906  72.8714576
 148.2466764  74.1350629  72.2850214 149.8891039  67.7857369  78.1032254
 149.5540872  67.7458139  78.9989904 149.3894985  67.1202085  77.6302664
 143.8635283  63.1924999  83.6284835 143.7255081  62.4605238  84.2296374
 144.7740206  63.1033900  83.3469023 152.8250231  65.1313404  68.3769314
 152.2079401  64.4060232  68.2802366 152.3566719  65.8922764  68.0336388
 146.4917584  62.9044959  83.1168515 147.2017202  62.2638151  83.0755133
 146.4486892  63.1557854  84.0394696 154.4804362  69.8412312  86.0375094
 154.4216908  69.1571532  85.3705677 154.8823881  70.5831302  85.5855720
 145.2046518  59.8910177  84.9364154 144.6683875  59.4400915  85.5885751
 144.6163226  60.0256086  84.1934619 143.4995061  76.6574226  78.8308813
 143.7391659  77.2892750  79.5087832 142.6564258  76.3062266  79.1174172
 144.6148776  59.3498828  67.4990618 143.7378243  59.2287629  67.1352865
 145.0906530  58.5584906  67.2469507 154.4821770  67.8051896  84.2689074
 153.5948548  67.4677818  84.3915473 155.0520321  67.0734927  84.5057839
 136.1350917  64.1375988  77.5932125 136.8221956  63.8237718  77.0053141
 135.9799045  65.0417352  77.3199377 140.9385639  59.0266184  82.0217149
 140.8543827  58.4191854  81.2867559 140.1168345  59.5175203  82.0226645
 148.0122923  72.4653348  81.2350317 147.9393094  73.2708320  81.7469622
 147.5700316  72.6645314  80.4098338 147.8012703  71.7025118  74.7453139
 147.0180224  72.2446799  74.8391363 148.5005448  72.2199098  75.1447380
 151.1109353  57.5119748  77.3887344 151.6078052  56.7589710  77.0688414
 150.3396334  57.5484065  76.8230553 150.4721606  72.3640182  83.3908476
 151.1849579  72.9987647  83.3184377 149.9811635  72.4604048  82.5748478
 152.1939133  66.2691435  74.9625767 151.2595412  66.3892898  74.7930472
 152.3715802  65.3663902  74.6985777 147.6944321  59.6537131  77.1159029
 147.3242109  59.1008171  77.8039934 148.1903414  59.0495264  76.5634029
 155.5811685  62.1108754  75.4975802 156.0472137  62.9436746  75.4236104
 156.0319185  61.6453736  76.2021060 145.5233520  70.1134626  84.2114047
 146.2242979  70.7471109  84.3643441 145.0528635  70.4549357  83.4509686
 153.6487916  68.4552576  72.4961954 153.9247760  68.3409170  73.4055828
 152.7792415  68.0570061  72.4574127 153.5528347  54.4789341  79.5366703
 152.6391427  54.7093568  79.7048910 153.9821449  54.5627785  80.3880735
 153.3234806  62.6679233  82.0366597 152.6706256  62.9155141  81.3819050
 153.7015186  61.8543372  81.7029074 150.2841980  72.7038927  76.1394767
 150.4664374  71.8860583  76.6022519 151.1074966  72.9206619  75.7019657
 150.6184145  71.6307112  73.4009816 151.1471912  71.1199566  72.7879978
 150.8812365  71.3149642  74.2655349 149.3722379  63.4099044  88.5232634
 148.6963016  63.3093174  89.1935009 150.1950013  63.2538258  88.9868631
 141.1201238  69.6470981  81.1445149 141.7054675  68.9014669  81.2773053
 140.9226076  69.9574938  82.0281813 143.9739893  72.6822228  76.1607592
 143.3050268  73.1668356  75.6771632 143.8352763  72.9291449  77.0750970
 135.7118893  62.2176581  79.8649592 135.7502992  61.6840172  80.6586710
 135.2059186  61.6911787  79.2460570 148.1145162  74.7165972  82.7590250
 148.6663470  74.8797593  83.5239335 148.4551355  75.3070410  82.0870275
 143.0909655  57.0641122  83.3612135 143.1550982  57.9255953  82.9489532
 143.0276775  56.4515123  82.6284493 142.5661928  59.1364254  87.0085169
 143.1933966  58.7541332  87.6222693 141.7089846  58.9178456  87.3740861
 152.9656036  69.5427229  88.6138904 153.5095940  70.1557188  88.1193859
 152.3842881  70.1006808  89.1305917 139.3427470  60.9440683  72.9403524
 139.6380911  60.0351362  72.8870577 138.4415506  60.9228423  72.6184526
 151.2513549  72.6647947  79.7453932 151.1264689  71.8637687  79.2364878
 151.9092640  73.1594141  79.2567902 142.8721717  59.0196680  78.9231072
 142.1508303  59.6332648  78.7838546 143.6614973  59.5554445  78.8447718
 153.3148457  70.4656968  81.3733482 152.3678793  70.3462319  81.3011809
 153.6631231  69.5779466  81.4559744 145.6748031  56.3551106  85.1971724
 146.1982433  56.6013403  85.9598033 145.4560364  57.1871141  84.7774861
 141.0715312  58.6254781  73.0642849 140.7428018  57.7452160  72.8817955
 141.4254683  58.5702450  73.9519238 150.3194891  70.2609684  77.5737834
 150.1719853  69.3326391  77.7545404 151.1448384  70.2829774  77.0894910
 144.1857135  58.9127751  73.4318327 144.5253208  59.4413672  72.7096935
 144.6329256  59.2508157  74.2076893 153.9229013  71.0838242  78.6602707
 154.8475560  70.8781104  78.5227158 153.7544316  70.8354644  79.5692049
 146.8800576  57.2964802  82.8821395 146.5397396  56.4972615  83.2842075
 146.1739582  57.5966512  82.3098228 147.5317048  54.3814114  81.3348718
 148.3543117  53.9074592  81.2127608 147.7755111  55.1604598  81.8347404
 146.1725282  57.4102372  71.6311619 146.8933645  57.7883625  71.1275336
 145.5490586  58.1291249  71.7346597 150.3156405  58.1147521  72.5669952
 150.5320019  58.9972159  72.2658780 149.8350472  57.7233735  71.8375594
 145.0555626  61.0733235  79.1440696 144.9100207  61.3873538  80.0364978
 144.5780830  61.6918135  78.5911595 146.9152009  58.0635783  79.1921586
 146.9013578  57.1676876  78.8553884 147.6324437  58.0706446  79.8259872
 148.7678140  58.4973123  81.2374713 148.5095918  59.4190193  81.2359044
 148.2363180  58.1003557  81.9275177 153.7124329  71.6023910  74.0164799
 153.8861206  71.0370332  73.2638651 154.2053220  72.4024805  73.8344289
 139.5301289  63.6138579  82.0828357 138.9854757  64.3898387  82.2148632
 140.4080638  63.9609383  81.9247479 146.3188905  56.9450163  74.4609156
 146.4404816  56.0166809  74.6600043 146.0290948  56.9588849  73.5487471
 149.1880096  54.6305073  77.5975876 149.2101792  54.6944406  76.6427855
 149.6048155  53.7909582  77.7916382 154.6999501  70.9190674  71.1161697
 155.3950406  71.5397367  71.3349012 155.0422651  70.0686026  71.3914075
 140.3167310  62.7408475  84.9758514 139.5749047  62.8891111  85.5623145
 139.9960055  63.0016741  84.1125264 148.2610973  72.2824453  84.7738904
 148.5698100  72.0373600  85.6461604 149.0586455  72.4871092  84.2857775
 148.2831585  74.4362363  77.0044281 147.8436575  73.9438742  77.6977138
 149.0339702  73.8935331  76.7636356 140.7623924  70.6273904  77.0068909
 141.5881944  70.3277676  76.6267552 140.4117976  69.8581526  77.4558698
 145.7305457  69.9800372  79.0766583 145.1085467  69.3171077  78.7768810
 146.4010324  70.0061504  78.3940230 138.9632529  68.5460230  77.9657843
 138.1264438  68.1182405  77.7841844 138.9356175  68.7392674  78.9028634
 145.8029985  58.4582160  88.6699089 145.8518140  59.3344283  88.2876858
 146.3452499  57.9159553  88.0970732 156.2884831  69.0023283  87.9500226
 155.4980374  68.9847422  87.4104725 156.0518185  69.5411577  88.7049262
 156.4082706  65.8515750  85.2632954 156.4580710  65.6865757  86.2048477
 156.2996629  64.9843009  84.8730835 145.2918964  68.5304296  72.5525043
 145.4407085  69.2139760  71.8991716 146.0985408  68.5109386  73.0674499
 153.6986468  61.8346678  86.5792261 154.5996331  61.6953143  86.2876259
 153.7734442  62.0001133  87.5190438 148.0329273  59.2113533  85.4245447
 147.1632583  59.5047099  85.1528036 148.2688754  59.7953978  86.1452711
 156.1588091  63.3945306  83.9755034 156.6342212  63.5872952  83.1673885
 155.2353656  63.4504492  83.7298417 143.0471597  64.5569473  73.5586112
 142.8017639  63.6531803  73.7566322 143.2167512  64.5586624  72.6165590
 150.7368307  55.4293150  82.9410868 151.2550251  56.1654176  82.6157356
 150.3823440  55.7357143  83.7757627 142.3167245  60.2897831  71.0572273
 141.6236490  60.3642186  70.4012309 142.0718997  59.5258174  71.5793790
 150.9880901  51.8493432  78.4611764 151.2682655  51.1816621  79.0872191
 151.7731508  52.0422528  77.9486428 148.7914370  71.0252426  70.0236791
 148.2188337  71.6442613  69.5707262 149.3647163  71.5751788  70.5576712
 154.8589760  60.2711066  82.2083339 155.8107183  60.3709164  82.2295563
 154.6893210  59.4789335  82.7181424 152.8804139  57.3566649  82.3942740
 152.2854071  57.6371662  81.6989229 152.5953836  57.8460550  83.1659481
 152.0111630  71.3089576  71.1545373 152.9442303  71.2435138  71.3578248
 151.9234842  72.1445843  70.6959905 154.6399646  70.6255446  68.1149320
 154.5613278  70.2915310  69.0085078 155.4609313  71.1177214  68.1140793
 149.1761168  62.3613239  67.3652843 150.1220273  62.2319447  67.4341261
 148.7975413  61.6227901  67.8422271 155.1483053  54.0269245  77.3279735
 154.9507874  53.7184333  78.2123067 155.7582758  54.7530884  77.4577665
 149.0599861  66.4130985  88.8253500 149.9802870  66.5909584  89.0193546
 149.0249444  65.4687030  88.6733199 147.3604085  60.2863215  67.3007728
 146.4535541  59.9896328  67.3770442 147.6380066  59.9893033  66.4342014
 138.2782026  61.6069579  77.7506775 137.9584810  60.7534887  77.4581149
 137.7315454  61.8218157  78.5064742 142.0561933  64.3232020  81.4676281
 142.2747943  65.2549127  81.4864315 142.4687707  63.9639994  82.2531085
 148.9766151  54.8300105  73.4551970 148.1666879  54.4847190  73.8307216
 149.6650568  54.5207649  74.0439581 150.9056699  53.9078152  75.0776266
 151.4587738  54.3273605  75.7366289 151.1426786  52.9813900  75.1199222
 146.9289799  59.8965225  90.8579030 146.8286526  60.8459582  90.7891121
 146.7111341  59.5683464  89.9855100 146.1302870  57.1450150  67.4419707
 146.9922034  57.4705049  67.7015525 146.3153214  56.3581646  66.9292773
 138.1470286  65.2272490  79.7199896 137.4533757  64.8126443  79.2069851
 138.8943277  65.2693027  79.1233315 154.2835507  56.0178677  74.5854930
 153.7034176  56.6763481  74.2032983 154.0171439  55.1956021  74.1742348
 152.7339073  55.4183735  76.7876251 153.2338851  55.5300269  75.9790570
 153.3774681  55.1144787  77.4277059 146.7921069  63.3262364  89.6744092
 146.3088150  64.1262724  89.8807981 146.8782008  63.3370309  88.7211536
 140.0607028  65.1590744  77.5965911 140.0377716  65.2578431  76.6447794
 140.3707665  66.0055895  77.9183077 142.7194406  67.2166899  81.7112526
 143.6737660  67.1850841  81.6442457 142.5206930  66.7557523  82.5262751
 143.3093788  65.7868015  84.2783323 144.1286677  66.2812094  84.3018160
 143.5830596  64.8699983  84.2500891 153.0660385  58.1778767  73.6411279
 152.1786240  58.4628418  73.4231473 153.4814374  58.0172531  72.7938556
 141.0744635  72.7586518  78.7282723 140.9399103  71.9986919  78.1620721
 140.6576697  73.4827418  78.2611512 152.2103598  67.9423442  67.7359299
 152.9139448  68.1473444  68.3516954 151.4866247  68.5100204  68.0008382
 153.0401408  63.6933303  73.8561569 152.9836610  64.1501855  73.0169201
 153.5929751  62.9323988  73.6784412 144.2313761  73.6555835  78.9401166
 144.1146145  74.6001268  78.8379856 143.4106207  73.3529397  79.3286965
 154.1190295  68.3805971  69.7857759 154.9535899  67.9487170  69.6035234
 153.9574638  68.2087985  70.7134653 153.7736188  64.8838084  71.1514098
 153.7184991  64.7182356  70.2102542 153.1482243  65.5914117  71.3076288
 138.5628703  60.1206149  84.9775520 139.2087566  59.6105103  85.4662745
 138.3545854  60.8574830  85.5518945 151.0882095  67.1886996  90.4767661
 151.9573254  67.3627649  90.1154296 150.6088846  68.0081413  90.3543390
 147.0832313  54.3846193  70.7299416 147.0710983  55.3288033  70.8867687
 147.9755735  54.2016339  70.4358878 145.2568275  74.3084097  82.1557094
 146.1595522  74.3407708  82.4723589 145.0305645  73.3784548  82.1703430
 147.0121877  73.0615084  78.8167173 146.0617508  73.0616945  78.7031545
 147.3154363  72.3147818  78.3003208 150.8984433  50.9788970  74.9845353
 150.1316828  50.4247457  75.1302036 151.3095137  51.0510839  75.8459505
 142.9026194  57.2673766  89.0750534 143.7657655  56.9110571  89.2853859
 142.3291604  56.9287661  89.7625939 155.4151092  80.7038527  75.8071351
 154.8515958  80.6128464  75.0387639 155.3003488  79.8838431  76.2873844
 152.9615524  82.1989718  78.6455572 153.7536816  81.8580543  78.2301871
 153.2012175  82.3084693  79.5657725 154.9206278  81.4598632  71.5172950
 155.6937154  80.9127619  71.3785826 155.2731677  82.3242881  71.7287412
 155.1693687  78.9250226  77.7526348 154.2444184  78.7926440  77.9604040
 155.4178101  79.7044445  78.2496290 152.5302499  78.5683500  78.5870137
 152.6594880  78.8217979  79.5009549 151.8499950  79.1611208  78.2674792
 155.6901785  81.2070289  79.4594244 156.2603142  81.6357558  78.8211728
 156.2809897  80.9252874  80.1578429 156.1826952  76.3733717  87.7055255
 155.5525612  77.0549998  87.9390652 156.0763040  76.2616798  86.7608393
 151.4771924  76.0405513  78.6321179 150.6870978  76.2963041  78.1561290
 151.9683171  76.8553851  78.7373220 153.4286669  76.4050092  75.5904656
 152.6317833  76.5168786  76.1088151 153.2012262  76.7436744  74.7245546
 149.7609627  76.2936003  81.0636170 150.0117665  77.1783013  81.3293746
 150.2969175  76.1140605  80.2911262 155.4607694  70.6754482  90.0680506
 155.0674640  70.1220681  90.7428150 156.2773835  70.9865061  90.4587024
 152.4269752  82.1138341  73.9794076 152.9394273  82.9081591  74.1299641
 153.0792465  81.4164631  73.9127677 154.2364637  85.2304097  76.0616829
 154.4131265  86.1522062  75.8737813 155.0321470  84.9162516  76.4911209
 153.5216993  77.2768729  85.9378992 153.4070508  76.3753986  86.2386091
 152.6661511  77.5232426  85.5863809 155.3595952  86.7482271  82.0627171
 155.9103377  86.6199334  81.2904165 154.5207428  87.0477160  81.7122064
 150.3918669  80.4426995  74.7553646 151.2293891  80.8524003  74.5387354
 150.5696937  79.5026437  74.7253840 155.2534564  72.8039057  76.2796826
 155.8278316  72.5814239  75.5470019 155.8405546  72.8727752  77.0325427
 155.5804151  74.8343518  70.2992711 154.7441463  75.1718205  70.6201986
 155.4408920  74.6992498  69.3619848 150.4144840  77.7817710  75.4264380
 150.2169240  77.1887071  74.7015446 149.8591504  77.4769920  76.1440319
 155.8247998  73.8636232  80.9210587 156.4647378  73.7224991  80.2233550
 154.9925529  73.5770745  80.5449189 152.9091066  77.3081744  73.1105332
 151.9788654  77.2466200  73.3275294 153.0048538  76.7857697  72.3141973
 152.8276615  73.8336557  75.6983574 153.0883432  74.7481890  75.5892734
 153.6493787  73.3661000  75.8480186 154.3001540  75.2474314  82.8682398
 154.9724594  75.0391676  82.2195047 153.4731327  75.0496400  82.4287630
 154.7029037  78.5216917  83.6284835 154.5648835  77.7897156  84.2296374
 155.6133961  78.4325817  83.3469023 156.0440272  75.2202094  84.9364154
 155.5077629  74.7692833  85.5885751 155.4556980  75.3548003  84.1934619
 154.3388816  91.9866144  78.8308813 154.5785414  92.6184668  79.5087832
 153.4958012  91.6354184  79.1174172 155.4542531  74.6790746  67.4990618
 154.5771997  74.5579547  67.1352865 155.9300284  73.8876824  67.2469507
 146.9744671  79.4667906  77.5932125 147.6615711  79.1529636  77.0053141
 146.8192800  80.3709270  77.3199377 151.7779393  74.3558102  82.0217149
 151.6937582  73.7483772  81.2867559 150.9562100  74.8467120  82.0226645
 151.9594992  84.9762899  81.1445149 152.5448429  84.2306587  81.2773053
 151.7619831  85.2866855  82.0281813 154.8133648  88.0114146  76.1607592
 154.1444023  88.4960274  75.6771632 154.6746517  88.2583367  77.0750970
 146.5512647  77.5468499  79.8649592 146.5896747  77.0132090  80.6586710
 146.0452940  77.0203704  79.2460570 153.9303410  72.3933039  83.3612135
 153.9944736  73.2547870  82.9489532 153.8670530  71.7807041  82.6284493
 153.4055682  74.4656172  87.0085169 154.0327721  74.0833249  87.6222693
 152.5483601  74.2470374  87.3740861 150.1821225  76.2732601  72.9403524
 150.4774666  75.3643279  72.8870577 149.2809261  76.2520340  72.6184526
 153.7115472  74.3488598  78.9231072 152.9902058  74.9624565  78.7838546
 154.5008728  74.8846362  78.8447718 151.9109066  73.9546699  73.0642849
 151.5821773  73.0744078  72.8817955 152.2648437  73.8994367  73.9519238
 155.0250890  74.2419668  73.4318327 155.3646962  74.7705590  72.7096935
 155.4723010  74.5800075  74.2076893 155.8949381  76.4025152  79.1440696
 155.7493962  76.7165455  80.0364978 155.4174585  77.0210053  78.5911595
 150.3695043  78.9430497  82.0828357 149.8248511  79.7190305  82.2148632
 151.2474393  79.2901301  81.9247479 151.1561065  78.0700393  84.9758514
 150.4142801  78.2183028  85.5623145 150.8353809  78.3308659  84.1125264
 151.6017679  85.9565822  77.0068909 152.4275699  85.6569594  76.6267552
 151.2511731  85.1873444  77.4558698 149.8026284  83.8752148  77.9657843
 148.9658192  83.4474322  77.7841844 149.7749929  84.0684591  78.9028634
 153.8865352  79.8861391  73.5586112 153.6411394  78.9823721  73.7566322
 154.0561266  79.8878541  72.6165590 153.1560999  75.6189748  71.0572273
 152.4630244  75.6934103  70.4012309 152.9112751  74.8550092  71.5793790
 149.1175780  76.9361496  77.7506775 148.7978565  76.0826804  77.4581149
 148.5709208  77.1510074  78.5064742 152.8955688  79.6523937  81.4676281
 153.1141698  80.5841045  81.4864315 153.3081462  79.2931912  82.2531085
 148.9864040  80.5564408  79.7199896 148.2927512  80.1418361  79.2069851
 149.7337031  80.5984944  79.1233315 150.9000783  80.4882662  77.5965911
 150.8771471  80.5870349  76.6447794 151.2101419  81.3347812  77.9183077
 153.5588161  82.5458817  81.7112526 154.5131414  82.5142759  81.6442457
 153.3600684  82.0849440  82.5262751 154.1487543  81.1159933  84.2783323
 154.9680432  81.6104011  84.3018160 154.4224351  80.1991901  84.2500891
 151.9138389  88.0878436  78.7282723 151.7792857  87.3278837  78.1620721
 151.4970452  88.8119336  78.2611512 155.0707515  88.9847753  78.9401166
 154.9539900  89.9293186  78.8379856 154.2499962  88.6821315  79.3286965
 149.4022457  75.4498066  84.9775520 150.0481321  74.9397020  85.4662745
 149.1939608  76.1866748  85.5518945 153.7419948  72.5965684  89.0750534
 154.6051410  72.2402488  89.2853859 153.1685359  72.2579578  89.7625939
 110.9813799   7.6760596  65.5554120 111.2210397   8.3079120  66.2333138
 110.1382995   7.3248636  65.8419479 120.4434262  13.2176088  65.3700878
 121.2355554  12.8766913  64.9547177 120.6830912  13.3271063  66.2903032
 128.4769389  15.3895864  57.8431123 127.8257369  15.9749944  57.4565136
 129.2713752  15.9202059  57.9026160 122.4025016  12.4785001  58.2418257
 123.1755892  11.9313988  58.1031133 122.7550415  13.3429250  58.4532718
 124.2410059  13.8061383  71.4485156 123.9499925  14.7107014  71.3331823
 124.8767043  13.8477911  72.1629226 124.1820724  20.2567119  61.4105918
 124.1044753  21.2074944  61.4894398 123.5782367  19.9112992  62.0680844
 126.7411075  13.9481165  70.2632477 126.8055507  14.4101572  71.0990649
 126.0321999  13.3178530  70.3914787 126.4559092  15.6149272  60.1311457
 126.3204767  16.4600808  60.5596305 126.9968905  15.8168550  59.3677391
 119.9088490  13.1324710  60.7039382 120.4213010  13.9267960  60.8544947
 120.5611203  12.4351001  60.6372984 121.7183375  16.2490467  62.7862136
 121.8950003  17.1708431  62.5983120 122.5140208  15.9348886  63.2156515
 128.0827569  16.2372839  74.2611799 127.6391423  15.4509217  73.9432704
 128.7444782  16.4251989  73.5955690 122.8414690  17.7668640  68.7872478
 123.3922115  17.6385704  68.0149472 122.0026166  18.0663529  68.4367371
 130.1808807  16.5175639  72.2893201 130.1627282  17.3384520  71.7973470
 131.1028727  16.3929714  72.5143342 117.8737407  11.4613365  61.4798953
 118.7112629  11.8710373  61.2632661 118.0515674  10.5212807  61.4499147
 129.0555253  19.6883478  56.5667180 128.3816952  19.9915175  57.1752138
 129.4421075  20.4912558  56.2172637 131.0027614  16.5281652  62.8735470
 131.2950588  17.0886709  62.1547836 131.5126235  16.8210213  63.6288629
 125.9661239  17.3062003  63.9628923 125.9237418  17.5322849  63.0337455
 126.8823938  17.0725378  64.1114724 124.0827040  14.1825032  63.7590886
 124.8767639  13.6875352  63.5573461 123.3718732  13.6542895  63.3958591
 128.9021885  16.5643128  68.1103254 128.9558907  17.1334064  68.8780969
 128.0336666  16.7345013  67.7457291 126.6598316  14.7554054  67.4388723
 126.5209402  14.3872838  68.3114661 125.8712912  15.2701693  67.2672681
 127.2546468  19.8563150  58.7814260 127.4298224  19.3851194  59.5959882
 126.5679256  20.4828917  59.0095520 132.8016855  16.1890599  72.7620401
 132.7429401  15.5049820  72.0950984 133.2036373  16.9309589  72.3101027
 121.8207553  23.0052513  65.5554120 122.0604152  23.6371037  66.2333138
 120.9776750  22.6540553  65.8419479 114.4563409  10.4854275  64.3177432
 115.1434449  10.1716005  63.7298447 114.3011538  11.3895640  64.0444683
 126.3335415  18.8131636  67.9595624 126.2605587  19.6186607  68.4714928
 125.8912808  19.0123602  67.1343645 126.1225195  18.0503406  61.4698445
 125.3392717  18.5925086  61.5636670 126.8217940  18.5677385  61.8692686
 128.7934099  18.7118470  70.1153782 129.5062071  19.3465935  70.0429684
 128.3024127  18.8082336  69.2993784 123.8446012  16.4612913  70.9359353
 124.5455472  17.0949396  71.0888747 123.3741127  16.8027645  70.1754992
 128.6054472  19.0517214  62.8640074 128.7876867  18.2338870  63.3267826
 129.4287458  19.2684906  62.4264964 128.9396638  17.9785399  60.1255122
 129.4684404  17.4677854  59.5125284 129.2024857  17.6627929  60.9900655
 119.4413730  15.9949268  67.8690456 120.0267167  15.2492956  68.0018360
 119.2438569  16.3053225  68.7527120 122.2952385  19.0300516  62.8852898
 121.6262761  19.5146643  62.4016938 122.1565255  19.2769736  63.7996277
 126.4357654  21.0644259  69.4835557 126.9875962  21.2275881  70.2484642
 126.7763848  21.6548697  68.8115581 131.2868528  15.8905517  75.3384211
 131.8308432  16.5035475  74.8439166 130.7055373  16.4485095  75.8551224
 129.5726041  19.0126235  66.4699239 129.4477181  18.2115975  65.9610184
 130.2305132  19.5072428  65.9813209 131.6360950  16.8135255  68.0978789
 130.6891285  16.6940606  68.0257116 131.9843723  15.9257753  68.1805050
 128.6407383  16.6087971  64.2983141 128.4932345  15.6804678  64.4790711
 129.4660877  16.6308062  63.8140216 132.2441505  17.4316530  65.3848014
 133.1688052  17.2259391  65.2472465 132.0756808  17.1832931  66.2937355
 132.0336821  17.9502197  60.7410105 132.2073699  17.3848620  59.9883958
 132.5265712  18.7503092  60.5589595 133.0211994  17.2668962  57.8407004
 133.7162898  17.8875654  58.0594318 133.3635144  16.4164313  58.1159381
 126.5823465  18.6302741  71.4984211 126.8910592  18.3851888  72.3706911
 127.3798947  18.8349379  71.0103081 126.6044077  20.7840650  63.7289587
 126.1649068  20.2917029  64.4222444 127.3552194  20.2413618  63.4881663
 119.0836416  16.9752191  63.7314216 119.9094436  16.6755963  63.3512859
 118.7330468  16.2059814  64.1804004 124.0517950  16.3278659  65.8011889
 123.4297959  15.6649364  65.5014117 124.7222817  16.3539791  65.1185537
 117.2845021  14.8938518  64.6903149 116.4476930  14.4660692  64.5087150
 117.2568667  15.0870961  65.6273940 123.6131457  14.8782583  59.2770350
 123.7619577  15.5618047  58.6237022 124.4197900  14.8587673  59.7919805
 127.1126862  17.3730713  56.7482097 126.5400829  17.9920900  56.2952569
 127.6859656  17.9230075  57.2822019 130.3324122  17.6567863  57.8790679
 131.2654795  17.5913425  58.0823555 130.2447335  18.4924130  57.4205212
 132.9612139  16.9733734  54.8394627 132.8825770  16.6393597  55.7330385
 133.7821805  17.4655502  54.8386099 116.4682778  11.5750777  66.4445203
 115.7746250  11.1604730  65.9315157 117.2155769  11.6171314  65.8478622
 118.3819521  11.5069031  64.3211218 118.3590209  11.6056718  63.3693101
 118.6920157  12.3534182  64.6428384 121.0406898  13.5645186  68.4357832
 121.9950152  13.5329128  68.3687764 120.8419422  13.1035810  69.2508058
 119.3957127  19.1064806  65.4528030 119.2611595  18.3465206  64.8866028
 118.9789190  19.8305705  64.9856819 122.5526253  20.0034123  65.6646473
 122.4358637  20.9479555  65.5625163 121.7318699  19.7007684  66.0532272
 123.5780767  20.6562384  68.8802401 124.4808014  20.6885995  69.1968896
 123.3518137  19.7262835  68.8948737 125.3334369  19.4093371  65.5412480
 124.3830000  19.4095233  65.4276852 125.6366855  18.6626106  65.0248514
 141.0687063  25.2453909  66.6058242 141.7065473  25.1260657  65.9021582
 140.9507906  26.1934753  66.6646194 137.8776769  25.1981338  66.5419767
 137.5395281  25.0822402  65.6540302 138.7466537  24.7972503  66.5220773
 133.7363585  27.0516814  62.5316658 133.1728450  26.9606751  61.7632945
 133.6215980  26.2316718  63.0119150 138.3596552  26.3516189  72.5005972
 138.3485193  25.9568988  71.6286476 138.5217192  25.6182262  73.0939744
 131.2828017  28.5468006  65.3700878 132.0749309  28.2058830  64.9547177
 131.5224667  28.6562981  66.2903032 139.3163143  30.7187782  57.8431123
 138.6651123  31.3041862  57.4565136 140.1107506  31.2493977  57.9026160
 133.2418771  27.8076919  58.2418257 134.0149647  27.2605906  58.1031133
 133.5944170  28.6721168  58.4532718 135.0803813  29.1353301  71.4485156
 134.7893679  30.0398932  71.3331823 135.7160798  29.1769829  72.1629226
 136.0060020  26.5130150  68.0386516 136.6023592  26.2886172  67.3243479
 136.0634992  25.7714895  68.6411964 135.5785048  23.9669585  55.8736707
 135.8310569  23.4451106  55.1120170 134.6409608  23.8035730  55.9763391
 140.6228331  22.9705363  63.6811450 141.4091420  22.5524786  63.3301867
 140.8867036  23.8751455  63.8493099 140.7938409  28.4078214  58.3800107
 140.1584242  28.4812840  59.0921012 140.4635815  28.9971812  57.7019186
 146.0236758  22.9080596  64.5844429 146.7561930  22.3379813  64.8182258
 145.2676114  22.5202197  65.0250934 135.2981337  25.8697691  58.0761082
 135.1817595  25.1942594  58.7442166 135.4083597  25.3830065  57.2593235
 137.6412878  25.3307838  61.7807771 137.2771085  24.8038459  62.4920693
 138.4979994  24.9406307  61.6074257 137.2818365  20.3597738  56.7769120
 137.4492767  21.2277974  57.1439591 137.0915534  20.5225019  55.8530409
 140.0393698  28.8214717  68.4434950 139.7394421  29.7239755  68.3350757
 139.6944758  28.5546900  69.2956103 133.4906180  25.2728513  64.4771654
 132.5656676  25.1404728  64.6849346 133.7390593  26.0522733  64.9741597
 143.4390842  21.3397257  66.1232387 142.5307719  21.2712665  65.8291148
 143.3878438  21.8169202  66.9514213 137.2607586  22.8155395  57.7615786
 137.1407211  23.2612446  58.6001267 136.5660174  23.1640713  57.2029325
 130.8514991  24.9161787  65.3115443 130.9807372  25.1696266  66.2254855
 130.1712442  25.5089495  64.9920099 135.0214478  35.5859037  61.4105918
 134.9438508  36.5366862  61.4894398 134.4176122  35.2404909  62.0680844
 137.5131708  22.7586902  74.0667285 136.7365042  23.3180822  74.0570149
 138.1522271  23.2443685  74.5882155 142.9592652  23.2876868  58.5896120
 143.8710508  23.5204255  58.4143818 142.4502299  23.8713913  58.0271199
 135.7678080  25.5672356  73.6285252 136.5092765  26.1057400  73.3520075
 135.0615066  26.1938644  73.7856803 141.2433420  27.7101496  72.2257413
 141.6516776  27.2683907  71.4812045 140.5210681  27.1354124  72.4791606
 137.5964490  22.6474103  69.5990970 138.4425685  23.0713517  69.7425619
 137.5363128  21.9907727  70.2929533 141.5662234  28.2702687  65.9809702
 140.9371097  28.4348401  65.2785770 141.1787897  28.6844296  66.7520666
 145.4451466  29.2057125  63.3354066 144.7602504  29.5856026  62.7851099
 145.5295316  29.8152451  64.0686013 140.7463935  20.3078471  71.2572144
 140.5024867  21.0620532  70.7206419 141.0223866  20.6863819  72.0919391
 142.7002398  26.8517084  69.9349409 142.9119293  27.4948844  69.2583790
 142.6532146  26.0179400  69.4671339 140.3028627  19.4634904  66.8385981
 139.4413106  19.7616158  67.1302719 140.3291062  19.6805303  65.9067014
 137.1190196  28.0077095  63.2459787 137.5828542  28.2864798  62.4564410
 136.8546994  27.1060539  63.0632878 134.0114277  27.5548576  66.1839550
 134.5815634  27.9835845  65.5457035 134.6022389  27.2731161  66.8823736
 136.0559082  24.1300247  60.0549352 136.7583126  24.5821291  60.5223279
 135.7239711  23.4884066  60.6829245 134.5039444  22.7212004  74.4300562
 133.8738104  23.4028285  74.6635958 134.3975532  22.6095085  73.4853700
 129.7984416  22.3883800  65.3566486 129.0083470  22.6441328  64.8806596
 130.2895664  23.2032138  65.4618526 143.8148226  29.7289039  68.1071767
 144.6365670  29.3269226  67.8254448 143.8110629  29.6257273  69.0587882
 131.7499162  22.7528379  62.3149962 130.9530325  22.8647073  62.8333458
 131.5224754  23.0915031  61.4490853 137.5804829  29.2773082  70.2632477
 137.6449262  29.7393490  71.0990649 136.8715753  28.6470447  70.3914787
 128.0822119  22.6414290  67.7881477 128.3330158  23.5261300  68.0539052
 128.6181668  22.4618892  67.0156568 151.9054219  26.0727788  64.4556738
 151.1517927  25.5035186  64.3000742 152.0401760  26.0390452  65.4027373
 137.2952847  30.9441190  60.1311457 137.1598522  31.7892726  60.5596305
 137.8362659  31.1460468  59.3677391 133.7820187  17.0232770  76.7925813
 133.3887132  16.4698968  77.4673457 134.5986327  17.3343348  77.1832330
 130.7482244  28.4616628  60.7039382 131.2606765  29.2559878  60.8544947
 131.4004957  27.7642918  60.6372984 132.5577129  31.5782384  62.7862136
 132.7343757  32.5000349  62.5983120 133.3533963  31.2640803  63.2156515
 136.6988148  18.4390649  74.3846069 137.4397861  19.0397802  74.3050532
 136.9306070  17.6968287  73.8264112 131.8429486  23.6247016  72.6624299
 131.7283001  22.7232273  72.9631398 130.9874003  23.8710713  72.3109115
 138.9221323  31.5664756  74.2611799 138.4785178  30.7801135  73.9432704
 139.5838537  31.7543907  73.5955690 133.6808445  33.0960558  68.7872478
 134.2315870  32.9677621  68.0149472 132.8419920  33.3955447  68.4367371
 141.0202561  31.8467556  72.2893201 141.0021037  32.6676437  71.7973470
 141.9422481  31.7221632  72.5143342 137.4775616  29.3611686  73.1316709
 138.0103952  28.5999974  72.9016017 136.9489697  29.0685338  73.8740864
 128.7131161  26.7905282  61.4798953 129.5506383  27.2002291  61.2632661
 128.8909429  25.8504724  61.4499147 140.6095593  24.4580363  57.1682786
 140.0942217  25.2284968  57.4071173 140.3372902  23.7845499  57.7915847
 138.1942704  19.3030064  62.2268024 137.3384301  18.9136914  62.0473663
 138.6069656  19.3822024  61.3667810 135.9684737  16.9215137  65.6325766
 136.8337734  16.7257945  65.2731655 136.0362246  16.6925488  66.5595123
 145.5829867  27.2112718  59.1035959 144.8059310  26.8723877  58.6591122
 146.2621348  27.2165341  58.4290925 140.3981896  22.3307455  58.9942567
 140.0932032  22.6453604  59.8452710 141.3512339  22.4088875  59.0369900
 138.8428328  28.4897678  60.6435521 138.3149690  27.7550438  60.3308759
 138.3415831  29.2672355  60.3975489 143.8221174  26.6846699  65.7602567
 143.1644849  27.3745960  65.8482696 144.6261574  27.0743131  66.1036554
 133.5747056  19.1517345  63.0042133 134.1490808  18.9292526  62.2715326
 134.1618038  19.2206039  63.7570734 142.6326633  25.0391071  63.8106509
 143.1458515  25.6721063  64.3128219 143.2827857  24.4392267  63.4449869
 133.9016643  21.1821806  57.0238018 133.0653955  21.5196492  57.3447293
 133.7621413  21.0470785  56.0865155 136.9880928  26.3077889  53.6470494
 136.0807990  26.0767142  53.8461643 137.4851960  25.5115508  53.8344476
 139.8949007  35.0175396  56.5667180 139.2210706  35.3207092  57.1752138
 140.2814829  35.8204476  56.2172637 139.1107464  22.5140527  66.0564850
 138.1930025  22.7355474  65.8986538 139.5267608  22.5886837  65.1976557
 139.8942512  23.9131943  61.1867530 140.6414331  24.4253340  60.8774652
 140.1634101  23.5915995  62.0471924 138.1669162  26.4090483  58.1694484
 137.2580381  26.1249516  58.2666954 138.1964246  26.8289562  57.3097791
 143.3988429  30.0197073  61.9385652 142.9450756  29.1787983  61.9950842
 142.7682396  30.6558471  62.2760432 142.3421349  20.9489059  63.1686319
 141.6044106  20.4366445  63.4996562 142.5948122  20.5089441  62.3569596
 141.8421369  31.8573570  62.8735470 142.1344343  32.4178627  62.1547836
 142.3519989  32.1502131  63.6288629 128.7357332  24.1295998  62.1509686
 128.5381732  23.5365358  61.4260753 128.1803996  23.8248208  62.8685625
 136.7154056  24.0219104  64.2704280 136.7702666  23.0692940  64.1946756
 135.9045258  24.1778543  64.7545578 137.8645250  27.9499227  55.5082563
 137.4264680  27.2335086  55.0488200 138.6055691  28.1775342  54.9467654
 134.6546416  22.6396164  62.0294658 133.8414281  22.9390334  62.4359851
 135.1505410  22.2451853  62.7469141 136.8054994  32.6353921  63.9628923
 136.7631173  32.8614767  63.0337455 137.7217693  32.4017295  64.1114724
 140.2520628  23.1037988  70.8609552 140.6070015  23.3309461  71.7204018
 140.8992759  23.4356365  70.2386808 145.9818365  26.2256424  61.5658881
 145.8436263  26.4158020  60.6380071 145.6254583  26.9875807  62.0226933
 134.1460491  20.2114519  67.6455893 134.7859870  20.0703278  66.9478857
 133.3138021  19.9249033  67.2694495 146.0087744  28.2932951  66.5770153
 146.4424251  28.2008240  67.4253207 146.7219325  28.2690452  65.9390169
 134.9220795  29.5116950  63.7590886 135.7161393  29.0167270  63.5573461
 134.2112487  28.9834813  63.3958591 139.7415639  31.8935045  68.1103254
 139.7952661  32.4625982  68.8780969 138.8730420  32.0636930  67.7457291
 131.2303558  23.6560031  59.8350639 130.3001146  23.5944487  60.0520601
 131.3261030  23.1335984  59.0387280 131.1489107  20.1814844  62.4228880
 131.4095924  21.0960178  62.3138041 131.9706279  19.7139287  62.5725493
 132.6214032  21.5952601  69.5927705 133.2937086  21.3869964  68.9440354
 131.7943819  21.3974687  69.1532937 146.8703294  28.3356652  69.1103038
 147.0639184  29.2402462  69.3562313 146.7703912  27.8764071  69.9441623
 138.5239604  18.2214542  71.6093366 137.8767519  18.9204492  71.5157842
 139.2940620  18.6550686  71.9769614 141.9318402  28.4863395  74.6843919
 141.7803909  28.2573946  73.7674003 141.9223082  29.4433996  74.6975264
 138.7003739  26.0595307  69.6690185 139.6295799  26.2106467  69.4959153
 138.2794769  26.1479328  68.8138832 137.4992071  30.0845972  67.4388723
 137.3603156  29.7164756  68.3114661 136.7106667  30.5993611  67.2672681
 138.0940223  35.1855068  58.7814260 138.2691978  34.7143111  59.5959882
 137.4073011  35.8120834  59.0095520 139.0497286  29.4627574  64.8277561
 138.7147118  29.4228344  65.7235211 138.5501231  28.7972290  64.3547971
 133.0241530  24.8695204  70.3530142 132.8861328  24.1375443  70.9541681
 133.9346453  24.7804105  70.0714330 141.9856477  26.8083609  55.1014620
 141.3685648  26.0830437  55.0047673 141.5172966  27.5692969  54.7581695
 135.6523830  24.5815164  69.8413822 136.3623449  23.9408356  69.8000440
 135.6093138  24.8328059  70.7640002 143.6410609  31.5182517  72.7620401
 143.5823155  30.8341737  72.0950984 144.0430127  32.2601507  72.3101027
 134.3652764  21.5680382  71.6609461 133.8290121  21.1171120  72.3131057
 133.7769473  21.7026290  70.9179925 132.6601308  38.3344431  65.5554120
 132.8997906  38.9662955  66.2333138 131.8170504  37.9832471  65.8419479
 133.7755023  21.0269033  54.2235925 132.8984490  20.9057834  53.8598171
 134.2512776  20.2355111  53.9714813 143.6428016  29.4822101  70.9934380
 142.7554795  29.1448023  71.1160779 144.2126567  28.7505132  71.2303146
 125.2957163  25.8146193  64.3177432 125.9828203  25.5007923  63.7298447
 125.1405292  26.7187557  64.0444683 130.0991886  20.7036389  68.7462456
 130.0150074  20.0962059  68.0112865 129.2774592  21.1945408  68.7471952
 137.1729170  34.1423553  67.9595624 137.0999341  34.9478525  68.4714928
 136.7306563  34.3415519  67.1343645 136.9618949  33.3795323  61.4698445
 136.1786471  33.9217004  61.5636670 137.6611694  33.8969303  61.8692686
 140.2715599  19.1889953  64.1132651 140.7684299  18.4359915  63.7933721
 139.5002581  19.2254270  63.5475860 148.1245357  24.8930318  65.7550942
 148.1135233  25.7755034  65.3844875 147.2562736  24.5401869  65.5605479
 139.6327853  34.0410387  70.1153782 140.3455825  34.6757852  70.0429684
 139.1417882  34.1374253  69.2993784 141.3545380  27.9461640  61.6871074
 140.4201659  28.0663103  61.5175778 141.5322049  27.0434107  61.4231084
 136.8550568  21.3307336  63.8404335 136.4848356  20.7778376  64.5285241
 137.3509661  20.7265469  63.2879335 144.7417931  23.7878959  62.2221108
 145.2078384  24.6206951  62.1481411 145.1925432  23.3223941  62.9266367
 134.6839767  31.7904831  70.9359353 135.3849226  32.4241314  71.0888747
 134.2134882  32.1319562  70.1754992 142.8094163  30.1322781  59.2207260
 143.0854006  30.0179375  60.1301134 141.9398661  29.7340266  59.1819433
 142.4841053  24.3449438  68.7611904 141.8312503  24.5925346  68.1064356
 142.8621433  23.5313577  68.4274381 139.4448227  34.3809131  62.8640074
 139.6270621  33.5630787  63.3267826 140.2681213  34.5976824  62.4264964
 139.7790392  33.3077317  60.1255122 140.3078158  32.7969771  59.5125284
 140.0418612  32.9919847  60.9900655 138.5328626  25.0869249  75.2477941
 137.8569263  24.9863379  75.9180316 139.3556260  24.9308463  75.7113938
 130.2807485  31.3241186  67.8690456 130.8660922  30.5784874  68.0018360
 130.0832323  31.6345143  68.7527120 133.1346140  34.3592433  62.8852898
 132.4656515  34.8438561  62.4016938 132.9959010  34.6061654  63.7996277
 124.8725140  23.8946786  66.5894899 124.9109239  23.3610377  67.3832017
 124.3665432  23.3681992  65.9705876 137.2751409  36.3936177  69.4835557
 137.8269717  36.5567798  70.2484642 137.6157602  36.9840615  68.8115581
 132.2515902  18.7411327  70.0857441 132.3157228  19.6026158  69.6734839
 132.1883022  18.1285328  69.3529800 131.7268174  20.8134459  73.7330476
 132.3540213  20.4311536  74.3468000 130.8696093  20.5948661  74.0986168
 142.1262283  31.2197434  75.3384211 142.6702187  31.8327393  74.8439166
 141.5449128  31.7777013  75.8551224 128.5033717  22.6210888  59.6648830
 128.7987158  21.7121567  59.6115884 127.6021753  22.5998628  59.3429833
 140.4119796  34.3418152  66.4699239 140.2870935  33.5407892  65.9610184
 141.0698887  34.8364346  65.9813209 132.0327964  20.6966885  65.6476379
 131.3114550  21.3102853  65.5083852 132.8221220  21.2324650  65.5693025
 142.4754704  32.1427172  68.0978789 141.5285040  32.0232524  68.0257116
 142.8237477  31.2549670  68.1805050 134.8354278  18.0321311  71.9217031
 135.3588679  18.2783608  72.6843340 134.6166611  18.8641346  71.5020168
 130.2321559  20.3024986  59.7888156 129.9034265  19.4222365  59.6063261
 130.5860929  20.2472655  60.6764545 139.4801138  31.9379889  64.2983141
 139.3326100  31.0096596  64.4790711 140.3054631  31.9599979  63.8140216
 133.3463382  20.5897956  60.1563633 133.6859454  21.1183877  59.4342242
 133.7935502  20.9278362  60.9322200 143.0835259  32.7608447  65.3848014
 144.0081807  32.5551309  65.2472465 142.9150563  32.5124849  66.2937355
 136.0406823  18.9735006  69.6066701 135.7003643  18.1742820  70.0087381
 135.3345829  19.2736717  69.0343534 135.3331529  19.0872577  58.3556926
 136.0539891  19.4653830  57.8520643 134.7096833  19.8061454  58.4591904
 139.4762652  19.7917726  59.2915258 139.6926266  20.6742364  58.9904086
 138.9956719  19.4003940  58.5620900 134.2161873  22.7503440  65.8686003
 134.0706454  23.0643743  66.7610284 133.7387077  23.3688340  65.3156902
 136.0758256  19.7405988  65.9166892 136.0619825  18.8447081  65.5799190
 136.7930684  19.7476651  66.5505178 137.9284387  20.1743328  67.9620020
 137.6702165  21.0960398  67.9604350 137.3969427  19.7773762  68.6520484
 142.8730576  33.2794115  60.7410105 143.0467453  32.7140537  59.9883958
 143.3659467  34.0795010  60.5589595 128.6907535  25.2908784  68.8073664
 128.1461003  26.0668592  68.9393938 129.5686885  25.6379588  68.6492786
 135.4795152  18.6220368  61.1854463 135.6011063  17.6937014  61.3845350
 135.1897194  18.6359054  60.2732778 148.7269967  26.0430538  62.3600405
 149.1701113  25.2937863  61.9619528 147.8496477  26.0340674  61.9774137
 143.8605748  32.5960879  57.8407004 144.5556653  33.2167572  58.0594318
 144.2028898  31.7456230  58.1159381 129.4773557  24.4178680  71.7003821
 128.7355293  24.5661316  72.2868451 129.1566302  24.6786946  70.8370570
 145.7597171  30.0460585  59.3694334 146.2848495  30.3847858  58.6443654
 145.6719524  29.1107600  59.1857469 137.4217220  33.9594658  71.4984211
 137.7304346  33.7143805  72.3706911 138.2192702  34.1641297  71.0103081
 137.4437832  36.1132568  63.7289587 137.0042822  35.6208947  64.4222444
 138.1945949  35.5705536  63.4881663 129.9230171  32.3044109  63.7314216
 130.7488191  32.0047881  63.3512859 129.5724223  31.5351731  64.1804004
 134.8911704  31.6570577  65.8011889 134.2691713  30.9941282  65.5014117
 135.5616571  31.6831709  65.1185537 128.1238776  30.2230435  64.6903149
 127.2870684  29.7952610  64.5087150 128.0962421  30.4162879  65.6273940
 134.9636232  20.1352365  75.3944395 135.0124387  21.0114488  75.0122165
 135.5058746  19.5929758  74.8216038 145.4491077  30.6793488  74.6745532
 144.6586621  30.6617627  74.1350032 145.2124432  31.2181782  75.4294569
 145.5688952  27.5285955  71.9878261 145.6186957  27.3635962  72.9293784
 145.4602876  26.6613214  71.5976142 134.4525211  30.2074500  59.2770350
 134.6013331  30.8909965  58.6237022 135.2591654  30.1879591  59.7919805
 142.8592715  23.5116883  73.3037568 143.7602577  23.3723348  73.0121565
 142.9340689  23.6771338  74.2435745 137.1935520  20.8883738  72.1490754
 136.3238829  21.1817304  71.8773342 137.4295000  21.4724183  72.8698017
 147.0707149  29.9482896  72.2320282 146.7791957  30.3112877  73.0683743
 146.4579280  29.2349905  72.0533614 148.2702831  27.5135776  64.7522853
 149.1049723  27.9525580  64.9160413 148.4061960  27.0374429  63.9331098
 145.3194337  25.0715511  70.7000340 145.7948459  25.2643157  69.8919192
 144.3959903  25.1274697  70.4543724 132.2077844  26.2339678  60.2831419
 131.9623886  25.3302008  60.4811629 132.3773759  26.2356829  59.3410897
 131.4773492  21.9668036  57.7817580 130.7842736  22.0412391  57.1257616
 131.2325243  21.2028379  58.3039097 137.9520617  32.7022631  56.7482097
 137.3794584  33.3212818  56.2952569 138.5253410  33.2521993  57.2822019
 144.0196006  21.9481271  68.9328646 144.9713429  22.0479369  68.9540870
 143.8499457  21.1559540  69.4426730 142.0410386  19.0336854  69.1188047
 141.4460318  19.3141867  68.4234535 141.7560083  19.5230755  69.8904788
 141.1717876  32.9859781  57.8790679 142.1048549  32.9205343  58.0823555
 141.0841089  33.8216048  57.4205212 143.8005893  32.3025651  54.8394627
 143.7219525  31.9685515  55.7330385 144.6215560  32.7947419  54.8386099
 146.4984084  25.1687391  68.0470946 146.4660404  24.2303391  68.2330629
 147.1084708  25.2471427  67.3136770 138.3367415  24.0383444  54.0898150
 139.2826520  23.9089652  54.1586568 137.9581660  23.2998106  54.5667578
 146.6478573  21.9598434  68.0929229 146.1317621  21.1756891  67.9059158
 147.5318521  21.6317151  68.2575748 152.3160634  26.2303398  67.1876982
 153.0464022  25.9688686  67.7484686 151.7067580  25.4932119  67.2279050
 150.3975931  24.3711260  67.7851434 149.6709095  24.2367225  67.1767925
 149.9823218  24.6788089  68.5908152 138.2206108  28.0901190  75.5498807
 139.1409117  28.2679789  75.7438853 138.1855691  27.1457235  75.3978506
 136.5210332  21.9633420  54.0253035 135.6141788  21.6666533  54.1015748
 136.7986313  21.6663238  53.1587321 127.4388273  23.2839783  64.4752081
 127.1191057  22.4305092  64.1826455 126.8921701  23.4988362  65.2310049
 131.2168180  26.0002224  68.1921588 131.4354190  26.9319332  68.2109622
 131.6293954  25.6410199  68.9776392 136.0896045  21.5735430  77.5824337
 135.9892772  22.5229787  77.5136428 135.8717587  21.2453669  76.7100407
 135.2909117  18.8220355  54.1665014 136.1528281  19.1475254  54.4260831
 135.4759461  18.0351851  53.6538080 127.3076533  26.9042695  66.4445203
 126.6140004  26.4896648  65.9315157 128.0549524  26.9463231  65.8478622
 135.9527315  25.0032569  76.3989398 135.4694397  25.8032929  76.6053287
 136.0388255  25.0140514  75.4456842 129.2213275  26.8360949  64.3211218
 129.1983963  26.9348636  63.3693101 129.5313912  27.6826100  64.6428384
 131.8800653  28.8937104  68.4357832 132.8343907  28.8621046  68.3687764
 131.6813177  28.4327728  69.2508058 132.4700035  27.4638220  71.0028630
 133.2892924  27.9582298  71.0263467 132.7436843  26.5470188  70.9746197
 142.2266631  19.8548972  60.3656585 141.3392486  20.1398623  60.1476780
 142.6420620  19.6942735  59.5183862 145.5781167  19.8795493  64.0810925
 146.3541558  20.3691946  64.3535541 144.8529302  20.3053547  64.5382794
 130.2350882  34.4356723  65.4528030 130.1005350  33.6757124  64.8866028
 129.8182944  35.1597623  64.9856819 141.3709845  29.6193647  54.4604605
 142.0745695  29.8243649  55.0762261 140.6472494  30.1870409  54.7253689
 142.2007655  25.3703508  60.5806875 142.1442856  25.8272059  59.7414508
 142.7535998  24.6094193  60.4029718 146.0112461  21.1593240  61.4056995
 145.7549395  20.7589876  62.2365203 145.3865329  21.8737034  61.2807134
 150.3224799  23.8989313  63.9128286 149.7624357  23.9682502  64.6859848
 149.7168302  23.7230298  63.1927783 133.3920008  35.3326040  65.6646473
 133.2752392  36.2771473  65.5625163 132.5712454  35.0299602  66.0532272
 143.2796542  30.0576176  56.5103065 144.1142146  29.6257374  56.3280540
 143.1180885  29.8858190  57.4379960 142.9342434  26.5608289  57.8759405
 142.8791238  26.3952561  56.9347849 142.3088490  27.2684322  58.0321594
 127.7234949  21.7976354  71.7020827 128.3693813  21.2875308  72.1908052
 127.5152100  22.5345035  72.2764252 140.2488342  28.8657201  77.2012967
 141.1179501  29.0397853  76.8399602 139.7695093  29.6851618  77.0788697
 134.4174522  35.9854302  68.8802401 135.3201768  36.0177912  69.1968896
 134.1911892  35.0554753  68.8948737 136.1728124  34.7385289  65.5412480
 135.2223755  34.7387150  65.4276852 136.4760610  33.9918023  65.0248514
 132.0632440  18.9443971  75.7995841 132.9263902  18.5880776  76.0099166
 131.4897851  18.6057866  76.4871245 151.9080817  40.5745827  66.6058242
 152.5459227  40.4552574  65.9021582 151.7901660  41.5226671  66.6646194
 148.7170524  40.5273255  66.5419767 148.3789035  40.4114320  65.6540302
 149.5860292  40.1264420  66.5220773 144.5757339  42.3808732  62.5316658
 144.0122204  42.2898669  61.7632945 144.4609734  41.5608636  63.0119150
 149.1990307  41.6808107  72.5005972 149.1878947  41.2860905  71.6286476
 149.3610946  40.9474180  73.0939744 142.1221771  43.8759923  65.3700878
 142.9143063  43.5350748  64.9547177 142.3618421  43.9854898  66.2903032
 150.1556898  46.0479699  57.8431123 149.5044878  46.6333780  57.4565136
 150.9501261  46.5785894  57.9026160 144.0812525  43.1368836  58.2418257
 144.8543401  42.5897824  58.1031133 144.4337924  44.0013086  58.4532718
 145.9197568  44.4645219  71.4485156 145.6287434  45.3690850  71.3331823
 146.5554552  44.5061746  72.1629226 146.8453775  41.8422067  68.0386516
 147.4417347  41.6178090  67.3243479 146.9028746  41.1006813  68.6411964
 146.4178803  39.2961503  55.8736707 146.6704324  38.7743024  55.1120170
 145.4803362  39.1327648  55.9763391 151.4622086  38.2997281  63.6811450
 152.2485175  37.8816704  63.3301867 151.7260790  39.2043373  63.8493099
 151.6332163  43.7370131  58.3800107 150.9977996  43.8104758  59.0921012
 151.3029570  44.3263730  57.7019186 146.1375092  41.1989609  58.0761082
 146.0211350  40.5234512  58.7442166 146.2477352  40.7121982  57.2593235
 148.4806633  40.6599756  61.7807771 148.1164840  40.1330377  62.4920693
 149.3373749  40.2698225  61.6074257 154.3855933  31.9494088  69.0439037
 154.0539258  32.8189499  68.8200252 153.7901547  31.6330372  69.7233068
 148.1212120  35.6889655  56.7769120 148.2886522  36.5569892  57.1439591
 147.9309289  35.8516937  55.8530409 150.8787453  44.1506634  68.4434950
 150.5788176  45.0531673  68.3350757 150.5338512  43.8838817  69.2956103
 144.3299934  40.6020431  64.4771654 143.4050431  40.4696645  64.6849346
 144.5784347  41.3814650  64.9741597 154.2784597  36.6689174  66.1232387
 153.3701474  36.6004583  65.8291148 154.2272192  37.1461119  66.9514213
 148.1001340  38.1447313  57.7615786 147.9800966  38.5904364  58.6001267
 147.4053929  38.4932631  57.2029325 141.6908745  40.2453705  65.3115443
 141.8201126  40.4988184  66.2254855 141.0106197  40.8381413  64.9920099
 145.8608233  50.9150955  61.4105918 145.7832262  51.8658780  61.4894398
 145.2569876  50.5696827  62.0680844 148.3525462  38.0878820  74.0667285
 147.5758796  38.6472740  74.0570149 148.9916025  38.5735603  74.5882155
 156.1446243  34.8705613  67.9010261 155.5020623  35.1638146  67.2550056
 155.6401171  34.7558533  68.7063458 153.7986407  38.6168786  58.5896120
 154.7104263  38.8496173  58.4143818 153.2896054  39.2005830  58.0271199
 146.6071835  40.8964273  73.6285252 147.3486519  41.4349317  73.3520075
 145.9008820  41.5230562  73.7856803 152.0827174  43.0393414  72.2257413
 152.4910530  42.5975824  71.4812045 151.3604436  42.4646041  72.4791606
 148.4358244  37.9766021  69.5990970 149.2819440  38.4005434  69.7425619
 148.3756882  37.3199645  70.2929533 152.4055989  43.5994604  65.9809702
 151.7764851  43.7640319  65.2785770 152.0181651  44.0136214  66.7520666
 156.2845221  44.5349042  63.3354066 155.5996259  44.9147944  62.7851099
 156.3689070  45.1444369  64.0686013 151.5857690  35.6370389  71.2572144
 151.3418622  36.3912450  70.7206419 151.8617620  36.0155737  72.0919391
 153.5396152  42.1809001  69.9349409 153.7513048  42.8240761  69.2583790
 153.4925901  41.3471318  69.4671339 151.1422381  34.7926822  66.8385981
 150.2806860  35.0908076  67.1302719 151.1684816  35.0097221  65.9067014
 147.9583951  43.3369013  63.2459787 148.4222296  43.6156716  62.4564410
 147.6940749  42.4352457  63.0632878 144.8508032  42.8840494  66.1839550
 145.4209389  43.3127762  65.5457035 145.4416144  42.6023079  66.8823736
 146.8952837  39.4592165  60.0549352 147.5976880  39.9113209  60.5223279
 146.5633465  38.8175984  60.6829245 145.3433198  38.0503922  74.4300562
 144.7131859  38.7320202  74.6635958 145.2369286  37.9387003  73.4853700
 140.6378171  37.7175718  65.3566486 139.8477225  37.9733246  64.8806596
 141.1289418  38.5324055  65.4618526 154.6541980  45.0580957  68.1071767
 155.4759424  44.6561144  67.8254448 154.6504383  44.9549191  69.0587882
 142.5892916  38.0820297  62.3149962 141.7924079  38.1938991  62.8333458
 142.3618508  38.4206949  61.4490853 148.4198584  44.6065000  70.2632477
 148.4843016  45.0685407  71.0990649 147.7109508  43.9762365  70.3914787
 138.9215874  37.9706208  67.7881477 139.1723912  38.8553218  68.0539052
 139.4575422  37.7910810  67.0156568 148.1346601  46.2733108  60.1311457
 147.9992276  47.1184643  60.5596305 148.6756414  46.4752385  59.3677391
 144.6213941  32.3524687  76.7925813 144.2280887  31.7990886  77.4673457
 145.4380081  32.6635266  77.1832330 141.5875999  43.7908546  60.7039382
 142.1000519  44.5851796  60.8544947 142.2398712  43.0934836  60.6372984
 143.3970884  46.9074302  62.7862136 143.5737512  47.8292267  62.5983120
 144.1927717  46.5932721  63.2156515 147.5381902  33.7682567  74.3846069
 148.2791615  34.3689720  74.3050532 147.7699825  33.0260204  73.8264112
 142.6823240  38.9538934  72.6624299 142.5676755  38.0524191  72.9631398
 141.8267758  39.2002631  72.3109115 149.7615078  46.8956674  74.2611799
 149.3178932  46.1093053  73.9432704 150.4232291  47.0835825  73.5955690
 144.5202199  48.4252476  68.7872478 145.0709624  48.2969539  68.0149472
 143.6813675  48.7247365  68.4367371 151.8596316  47.1759474  72.2893201
 151.8414791  47.9968355  71.7973470 152.7816236  47.0513549  72.5143342
 148.3169370  44.6903603  73.1316709 148.8497707  43.9291892  72.9016017
 147.7883451  44.3977255  73.8740864 151.4839065  29.7963669  68.6610351
 151.1403334  30.6865311  68.5849461 151.8518028  29.6065327  67.7979936
 139.5524916  42.1197200  61.4798953 140.3900138  42.5294208  61.2632661
 139.7303183  41.1796642  61.4499147 151.4489348  39.7872281  57.1682786
 150.9335971  40.5576885  57.4071173 151.1766656  39.1137417  57.7915847
 149.0336459  34.6321981  62.2268024 148.1778055  34.2428832  62.0473663
 149.4463411  34.7113942  61.3667810 150.5635605  32.1668325  66.6259584
 150.0600401  32.1298460  65.8127389 150.8566212  33.0761067  66.6856241
 146.8078491  32.2507054  65.6325766 147.6731488  32.0549863  65.2731655
 146.8756000  32.0217406  66.5595123 151.2375651  37.6599373  58.9942567
 150.9325787  37.9745522  59.8452710 152.1906093  37.7380793  59.0369900
 149.6822083  43.8189596  60.6435521 149.1543444  43.0842356  60.3308759
 149.1809586  44.5964272  60.3975489 154.6614929  42.0138616  65.7602567
 154.0038603  42.7037878  65.8482696 155.4655328  42.4035048  66.1036554
 144.4140810  34.4809262  63.0042133 144.9884562  34.2584444  62.2715326
 145.0011793  34.5497957  63.7570734 153.4720388  40.3682989  63.8106509
 153.9852269  41.0012981  64.3128219 154.1221611  39.7684185  63.4449869
 144.7410398  36.5113723  57.0238018 143.9047710  36.8488410  57.3447293
 144.6015167  36.3762703  56.0865155 146.7163478  31.3550511  61.7317202
 146.0627890  31.0399528  61.1073817 146.6743952  30.7326252  62.4577025
 147.8274683  41.6369806  53.6470494 146.9201745  41.4059060  53.8461643
 148.3245715  40.8407425  53.8344476 150.7342762  50.3467313  56.5667180
 150.0604461  50.6499010  57.1752138 151.1208584  51.1496394  56.2172637
 149.9501218  37.8432445  66.0564850 149.0323780  38.0647392  65.8986538
 150.3661362  37.9178755  65.1976557 150.7336266  39.2423860  61.1867530
 151.4808085  39.7545258  60.8774652 151.0027856  38.9207913  62.0471924
 149.0062916  41.7382401  58.1694484 148.0974136  41.4541434  58.2666954
 149.0358000  42.1581480  57.3097791 154.2382184  45.3488991  61.9385652
 153.7844511  44.5079900  61.9950842 153.6076151  45.9850389  62.2760432
 153.1815103  36.2780977  63.1686319 152.4437860  35.7658363  63.4996562
 153.4341877  35.8381358  62.3569596 152.6815123  47.1865487  62.8735470
 152.9738097  47.7470544  62.1547836 153.1913744  47.4794048  63.6288629
 153.2826731  29.0557229  63.7628089 153.5885608  28.1954592  63.4754004
 154.0079336  29.6474849  63.5627082 139.5751087  39.4587915  62.1509686
 139.3775487  38.8657276  61.4260753 139.0197751  39.1540125  62.8685625
 147.5547810  39.3511022  64.2704280 147.6096420  38.3984858  64.1946756
 146.7439012  39.5070461  64.7545578 148.7039004  43.2791145  55.5082563
 148.2658434  42.5627004  55.0488200 149.4449445  43.5067260  54.9467654
 145.4940170  37.9688081  62.0294658 144.6808036  38.2682252  62.4359851
 145.9899165  37.5743770  62.7469141 147.6448748  47.9645838  63.9628923
 147.6024927  48.1906685  63.0337455 148.5611447  47.7309213  64.1114724
 151.0914382  38.4329906  70.8609552 151.4463770  38.6601379  71.7204018
 151.7386513  38.7648283  70.2386808 144.9854245  35.5406437  67.6455893
 145.6253624  35.3995196  66.9478857 144.1531776  35.2540950  67.2694495
 145.7614549  44.8408867  63.7590886 146.5555148  44.3459188  63.5573461
 145.0506241  44.3126731  63.3958591 150.5809394  47.2226963  68.1103254
 150.6346416  47.7917899  68.8780969 149.7124175  47.3928848  67.7457291
 142.0697312  38.9851949  59.8350639 141.1394901  38.9236405  60.0520601
 142.1654784  38.4627902  59.0387280 141.9882862  35.5106762  62.4228880
 142.2489679  36.4252095  62.3138041 142.8100034  35.0431205  62.5725493
 143.4607787  36.9244519  69.5927705 144.1330840  36.7161881  68.9440354
 142.6337573  36.7266605  69.1532937 149.3633359  33.5506460  71.6093366
 148.7161274  34.2496410  71.5157842 150.1334374  33.9842604  71.9769614
 152.7712157  43.8155312  74.6843919 152.6197663  43.5865864  73.7674003
 152.7616836  44.7725914  74.6975264 149.5397493  41.3887225  69.6690185
 150.4689553  41.5398385  69.4959153 149.1188523  41.4771246  68.8138832
 148.3385825  45.4137889  67.4388723 148.1996911  45.0456674  68.3114661
 147.5500421  45.9285529  67.2672681 148.9333977  50.5146986  58.7814260
 149.1085733  50.0435029  59.5959882 148.2466765  51.1412752  59.0095520
 149.8891040  44.7919492  64.8277561 149.5540873  44.7520262  65.7235211
 149.3894986  44.1264208  64.3547971 143.8635284  40.1987122  70.3530142
 143.7255082  39.4667361  70.9541681 144.7740208  40.1096022  70.0714330
 152.8250232  42.1375526  55.1014620 152.2079402  41.4122355  55.0047673
 152.3566720  42.8984887  54.7581695 146.4917585  39.9107081  69.8413822
 147.2017203  39.2700274  69.8000440 146.4486893  40.1619976  70.7640002
 154.4804363  46.8474435  72.7620401 154.4216910  46.1633655  72.0950984
 154.8823882  47.5893425  72.3101027 145.2046519  36.8972299  71.6609461
 144.6683876  36.4463038  72.3131057 144.6163227  37.0318208  70.9179925
 143.4995062  53.6636349  65.5554120 143.7391661  54.2954873  66.2333138
 142.6564259  53.3124389  65.8419479 144.6148778  36.3560951  54.2235925
 143.7378244  36.2349751  53.8598171 145.0906531  35.5647029  53.9714813
 154.4821771  44.8114019  70.9934380 153.5948550  44.4739940  71.1160779
 155.0520322  44.0797050  71.2303146 136.1350918  41.1438110  64.3177432
 136.8221958  40.8299840  63.7298447 135.9799047  42.0479475  64.0444683
 140.9385640  36.0328307  68.7462456 140.8543829  35.4253977  68.0112865
 140.1168346  36.5237325  68.7471952 148.0122924  49.4715471  67.9595624
 147.9393096  50.2770443  68.4714928 147.5700317  49.6707437  67.1343645
 147.8012704  48.7087241  61.4698445 147.0180226  49.2508921  61.5636670
 148.5005449  49.2261221  61.8692686 151.1109354  34.5181871  64.1132651
 151.6078053  33.7651833  63.7933721 150.3396335  34.5546187  63.5475860
 150.4721608  49.3702305  70.1153782 151.1849580  50.0049770  70.0429684
 149.9811636  49.4666171  69.2993784 152.1939135  43.2753558  61.6871074
 151.2595413  43.3955020  61.5175778 152.3715803  42.3726025  61.4231084
 147.6944323  36.6599254  63.8404335 147.3242110  36.1070294  64.5285241
 148.1903415  36.0557387  63.2879335 155.5811686  39.1170877  62.2221108
 156.0472138  39.9498869  62.1481411 156.0319186  38.6515859  62.9266367
 145.5233521  47.1196749  70.9359353 146.2242981  47.7533232  71.0888747
 145.0528636  47.4611480  70.1754992 153.6487917  45.4614698  59.2207260
 153.9247761  45.3471293  60.1301134 152.7792416  45.0632183  59.1819433
 153.5528349  31.4851464  66.2612009 152.6391428  31.7155691  66.4294216
 153.9821450  31.5689908  67.1126042 153.3234807  39.6741356  68.7611904
 152.6706257  39.9217263  68.1064356 153.7015187  38.8605494  68.4274381
 150.2841981  49.7101049  62.8640074 150.4664376  48.8922705  63.3267826
 151.1074967  49.9268741  62.4264964 150.6184147  48.6369234  60.1255122
 151.1471913  48.1261689  59.5125284 150.8812366  48.3211765  60.9900655
 149.3722380  40.4161167  75.2477941 148.6963017  40.3155296  75.9180316
 150.1950014  40.2600381  75.7113938 141.1201239  46.6533104  67.8690456
 141.7054676  45.9076791  68.0018360 140.9226078  46.9637060  68.7527120
 143.9739894  49.6884351  62.8852898 143.3050270  50.1730479  62.4016938
 143.8352764  49.9353571  63.7996277 135.7118894  39.2238704  66.5894899
 135.7502994  38.6902294  67.3832017 135.2059187  38.6973909  65.9705876
 148.1145163  51.7228095  69.4835557 148.6663471  51.8859716  70.2484642
 148.4551357  52.3132532  68.8115581 143.0909656  34.0703244  70.0857441
 143.1550983  34.9318075  69.6734839 143.0276777  33.4577246  69.3529800
 142.5661929  36.1426377  73.7330476 143.1933968  35.7603454  74.3468000
 141.7089848  35.9240579  74.0986168 152.9656037  46.5489352  75.3384211
 153.5095941  47.1619310  74.8439166 152.3842882  47.1068930  75.8551224
 139.3427472  37.9502806  59.6648830 139.6380913  37.0413484  59.6115884
 138.4415507  37.9290545  59.3429833 151.2513550  49.6710070  66.4699239
 151.1264690  48.8699810  65.9610184 151.9092641  50.1656263  65.9813209
 142.8721719  36.0258803  65.6476379 142.1508304  36.6394770  65.5083852
 143.6614974  36.5616567  65.5693025 153.3148459  47.4719090  68.0978789
 152.3678794  47.3524441  68.0257116 153.6631232  46.5841588  68.1805050
 145.6748032  33.3613229  71.9217031 146.1982434  33.6075526  72.6843340
 145.4560365  34.1933264  71.5020168 141.0715313  35.6316904  59.7888156
 140.7428019  34.7514283  59.6063261 141.4254684  35.5764572  60.6764545
 150.3194892  47.2671806  64.2983141 150.1719854  46.3388514  64.4790711
 151.1448386  47.2891897  63.8140216 144.1857136  35.9189873  60.1563633
 144.5253209  36.4475795  59.4342242 144.6329257  36.2570280  60.9322200
 153.9229014  48.0900365  65.3848014 154.8475561  47.8843226  65.2472465
 153.7544317  47.8416766  66.2937355 146.8800577  34.3026924  69.6066701
 146.5397398  33.5034737  70.0087381 146.1739583  34.6028635  69.0343534
 147.5317049  31.3876237  68.0594024 148.3543118  30.9136715  67.9372915
 147.7755112  32.1666720  68.5592711 146.1725283  34.4164495  58.3556926
 146.8933646  34.7945748  57.8520643 145.5490588  35.1353372  58.4591904
 150.3156406  35.1209644  59.2915258 150.5320021  36.0034282  58.9904086
 149.8350473  34.7295857  58.5620900 145.0555628  38.0795357  65.8686003
 144.9100208  38.3935660  66.7610284 144.5780831  38.6980258  65.3156902
 146.9152011  35.0697905  65.9166892 146.9013579  34.1738998  65.5799190
 147.6324439  35.0768569  66.5505178 148.7678141  35.5035245  67.9620020
 148.5095919  36.4252316  67.9604350 148.2363182  35.1065680  68.6520484
 153.7124330  48.6086033  60.7410105 153.8861208  48.0432455  59.9883958
 154.2053221  49.4086927  60.5589595 139.5301290  40.6200702  68.8073664
 138.9854758  41.3960510  68.9393938 140.4080640  40.9671506  68.6492786
 146.3188907  33.9512285  61.1854463 146.4404818  33.0228932  61.3845350
 146.0290949  33.9650971  60.2732778 149.1880097  31.6367196  64.3221182
 149.2101794  31.7006529  63.3673162 149.6048156  30.7971705  64.5161689
 154.6999503  47.9252797  57.8407004 155.3950407  48.5459490  58.0594318
 155.0422653  47.0748148  58.1159381 140.3167312  39.7470598  71.7003821
 139.5749048  39.8953233  72.2868451 139.9960056  40.0078863  70.8370570
 148.2610974  49.2886576  71.4984211 148.5698101  49.0435723  72.3706911
 149.0586456  49.4933215  71.0103081 148.2831586  51.4424486  63.7289587
 147.8436577  50.9500864  64.4222444 149.0339703  50.8997453  63.4881663
 140.7623925  47.6336027  63.7314216 141.5881945  47.3339798  63.3512859
 140.4117977  46.8643649  64.1804004 145.7305459  46.9862495  65.8011889
 145.1085468  46.3233200  65.5014117 146.4010325  47.0123627  65.1185537
 138.9632530  45.5522353  64.6903149 138.1264439  45.1244527  64.5087150
 138.9356176  45.7454796  65.6273940 145.8029986  35.4644283  75.3944395
 145.8518142  36.3406406  75.0122165 146.3452500  34.9221676  74.8216038
 156.2884832  46.0085406  74.6745532 155.4980375  45.9909545  74.1350032
 156.0518186  46.5473700  75.4294569 156.4082707  42.8577872  71.9878261
 156.4580712  42.6927880  72.9293784 156.2996630  41.9905131  71.5976142
 145.2918965  45.5366418  59.2770350 145.4407086  46.2201883  58.6237022
 146.0985409  45.5171508  59.7919805 153.6986469  38.8408800  73.3037568
 154.5996332  38.7015265  73.0121565 153.7734444  39.0063255  74.2435745
 148.0329275  36.2175655  72.1490754 147.1632584  36.5109221  71.8773342
 148.2688755  36.8016100  72.8698017 156.1588092  40.4007429  70.7000340
 156.6342213  40.5935075  69.8919192 155.2353657  40.4566614  70.4543724
 143.0471598  41.5631596  60.2831419 142.8017640  40.6593926  60.4811629
 143.2167513  41.5648746  59.3410897 150.7368308  32.4355272  69.6656174
 151.2550252  33.1716299  69.3402663 150.3823441  32.7419265  70.5002933
 142.3167246  37.2959953  57.7817580 141.6236491  37.3704308  57.1257616
 142.0718998  36.5320297  58.3039097 150.9880903  28.8555555  65.1857071
 151.2682656  28.1878744  65.8117497 151.7731509  29.0484650  64.6731735
 148.7914371  48.0314549  56.7482097 148.2188338  48.6504736  56.2952569
 149.3647165  48.5813910  57.2822019 154.8589761  37.2773189  68.9328646
 155.8107184  37.3771286  68.9540870 154.6893211  36.4851457  69.4426730
 152.8804140  34.3628772  69.1188047 152.2854072  34.6433785  68.4234535
 152.5953837  34.8522673  69.8904788 152.0111631  48.3151699  57.8790679
 152.9442304  48.2497260  58.0823555 151.9234844  49.1507966  57.4205212
 154.6399647  47.6317569  54.8394627 154.5613279  47.2977433  55.7330385
 155.4609314  48.1239337  54.8386099 149.1761170  39.3675361  54.0898150
 150.1220274  39.2381569  54.1586568 148.7975414  38.6290023  54.5667578
 155.1483054  31.0331367  64.0525041 154.9507875  30.7246456  64.9368373
 155.7582760  31.7593006  64.1822971 149.0599862  43.4193107  75.5498807
 149.9802872  43.5971706  75.7438853 149.0249445  42.4749153  75.3978506
 147.3604087  37.2925338  54.0253035 146.4535542  36.9958450  54.1015748
 147.6380068  36.9955156  53.1587321 138.2782027  38.6131701  64.4752081
 137.9584811  37.7597009  64.1826455 137.7315455  38.8280279  65.2310049
 142.0561935  41.3294142  68.1921588 142.2747944  42.2611250  68.2109622
 142.4687708  40.9702117  68.9776392 148.9766152  31.8362227  60.1797276
 148.1666881  31.4909312  60.5552522 149.6650569  31.5269771  60.7684888
 150.9056701  30.9140274  61.8021573 151.4587739  31.3335728  62.4611596
 151.1426787  29.9876022  61.8444529 146.9289800  36.9027348  77.5824337
 146.8286527  37.8521705  77.5136428 146.7111342  36.5745587  76.7100407
 146.1302871  34.1512273  54.1665014 146.9922035  34.4767171  54.4260831
 146.3153215  33.3643769  53.6538080 138.1470287  42.2334613  66.4445203
 137.4533758  41.8188565  65.9315157 138.8943278  42.2755149  65.8478622
 154.2835508  33.0240799  61.3100237 153.7034177  33.6825603  60.9278289
 154.0171440  32.2018144  60.8987655 152.7339074  32.4245857  63.5121557
 153.2338853  32.5362392  62.7035876 153.3774682  32.1206910  64.1522366
 146.7921070  40.3324487  76.3989398 146.3088152  41.1324847  76.6053287
 146.8782009  40.3432432  75.4456842 140.0607030  42.1652866  64.3211218
 140.0377718  42.2640554  63.3693101 140.3707666  43.0118017  64.6428384
 142.7194407  44.2229021  68.4357832 143.6737661  44.1912964  68.3687764
 142.5206931  43.7619645  69.2508058 143.3093790  42.7930137  71.0028630
 144.1286679  43.2874216  71.0263467 143.5830597  41.8762106  70.9746197
 153.0660386  35.1840890  60.3656585 152.1786241  35.4690540  60.1476780
 153.4814375  35.0234653  59.5183862 141.0744636  49.7648641  65.4528030
 140.9399104  49.0049042  64.8866028 140.6576699  50.4889541  64.9856819
 152.2103599  44.9485564  54.4604605 152.9139449  45.1535567  55.0762261
 151.4866248  45.5162326  54.7253689 153.0401410  40.6995426  60.5806875
 152.9836611  41.1563977  59.7414508 153.5929752  39.9386110  60.4029718
 144.2313762  50.6617958  65.6646473 144.1146146  51.6063390  65.5625163
 143.4106208  50.3591520  66.0532272 154.1190297  45.3868094  56.5103065
 154.9535901  44.9549292  56.3280540 153.9574640  45.2150107  57.4379960
 153.7736189  41.8900207  57.8759405 153.7184993  41.7244478  56.9347849
 153.1482244  42.5976240  58.0321594 138.5628704  37.1268271  71.7020827
 139.2087567  36.6167225  72.1908052 138.3545855  37.8636953  72.2764252
 151.0882096  44.1949119  77.2012967 151.9573256  44.3689771  76.8399602
 150.6088848  45.0143536  77.0788697 147.0832314  31.3908316  57.4544723
 147.0710984  32.3350156  57.6112994 147.9755736  31.2078461  57.1604184
 145.2568276  51.3146220  68.8802401 146.1595523  51.3469830  69.1968896
 145.0305646  50.3846671  68.8948737 147.0121878  50.0677206  65.5412480
 146.0617509  50.0679068  65.4276852 147.3154364  49.3209941  65.0248514
 150.8984434  27.9851093  61.7090660 150.1316830  27.4309579  61.8547342
 151.3095139  28.0572961  62.5704811 142.9026195  34.2735888  75.7995841
 143.7657656  33.9172693  76.0099166 142.3291605  33.9349783  76.4871245
 155.4151094  57.7100649  62.5316658 154.8515959  57.6190586  61.7632945
 155.3003489  56.8900554  63.0119150 152.9615526  59.2051841  65.3700878
 153.7536818  58.8642666  64.9547177 153.2012176  59.3146816  66.2903032
 154.9206280  58.4660754  58.2418257 155.6937156  57.9189741  58.1031133
 155.2731678  59.3305003  58.4532718 155.1693689  55.9312349  64.4771654
 154.2444185  55.7988563  64.6849346 155.4178102  56.7106568  64.9741597
 152.5302500  55.5745622  65.3115443 152.6594881  55.8280101  66.2254855
 151.8499951  56.1673330  64.9920099 155.6901786  58.2132412  66.1839550
 156.2603143  58.6419680  65.5457035 156.2809898  57.9314996  66.8823736
 156.1826953  53.3795839  74.4300562 155.5525613  54.0612120  74.6635958
 156.0763041  53.2678921  73.4853700 151.4771925  53.0467635  65.3566486
 150.6870979  53.3025164  64.8806596 151.9683173  53.8615973  65.4618526
 153.4286671  53.4112215  62.3149962 152.6317834  53.5230909  62.8333458
 153.2012263  53.7498867  61.4490853 149.7609628  53.2998126  67.7881477
 150.0117667  54.1845136  68.0539052 150.2969177  53.1202727  67.0156568
 155.4607696  47.6816605  76.7925813 155.0674641  47.1282804  77.4673457
 156.2773836  47.9927184  77.1832330 152.4269753  59.1200463  60.7039382
 152.9394274  59.9143714  60.8544947 153.0792466  58.4226754  60.6372984
 154.2364638  62.2366220  62.7862136 154.4131266  63.1584184  62.5983120
 155.0321472  61.9224639  63.2156515 153.5216995  54.2830851  72.6624299
 153.4070510  53.3816109  72.9631398 152.6661512  54.5294548  72.3109115
 155.3595954  63.7544393  68.7872478 155.9103379  63.6261457  68.0149472
 154.5207429  64.0539282  68.4367371 150.3918670  57.4489118  61.4798953
 151.2293892  57.8586126  61.2632661 150.5696938  56.5088560  61.4499147
 155.2534565  49.8101180  63.0042133 155.8278317  49.5876361  62.2715326
 155.8405547  49.8789874  63.7570734 155.5804152  51.8405641  57.0238018
 154.7441464  52.1780327  57.3447293 155.4408922  51.7054621  56.0865155
 150.4144841  54.7879833  62.1509686 150.2169241  54.1949194  61.4260753
 149.8591505  54.4832043  62.8685625 155.8248000  50.8698355  67.6455893
 156.4647379  50.7287114  66.9478857 154.9925530  50.5832868  67.2694495
 152.9091067  54.3143867  59.8350639 151.9788655  54.2528322  60.0520601
 153.0048539  53.7919820  59.0387280 152.8276616  50.8398680  62.4228880
 153.0883433  51.7544013  62.3138041 153.6493788  50.3723122  62.5725493
 154.3001541  52.2536437  69.5927705 154.9724595  52.0453799  68.9440354
 153.4731328  52.0558523  69.1532937 154.7029039  55.5279040  70.3530142
 154.5648837  54.7959279  70.9541681 155.6133962  55.4387940  70.0714330
 156.0440273  52.2264217  71.6609461 155.5077630  51.7754955  72.3131057
 155.4556982  52.3610126  70.9179925 154.3388817  68.9928266  65.5554120
 154.5785415  69.6246790  66.2333138 153.4958013  68.6416306  65.8419479
 155.4542532  51.6852868  54.2235925 154.5771999  51.5641669  53.8598171
 155.9300285  50.8938947  53.9714813 146.9744672  56.4730028  64.3177432
 147.6615712  56.1591758  63.7298447 146.8192801  57.3771393  64.0444683
 151.7779395  51.3620225  68.7462456 151.6937583  50.7545894  68.0112865
 150.9562101  51.8529243  68.7471952 151.9594994  61.9825021  67.8690456
 152.5448431  61.2368709  68.0018360 151.7619832  62.2928978  68.7527120
 154.8133649  65.0176269  62.8852898 154.1444024  65.5022396  62.4016938
 154.6746519  65.2645489  63.7996277 146.5512648  54.5530621  66.5894899
 146.5896748  54.0194212  67.3832017 146.0452941  54.0265827  65.9705876
 153.9303411  49.3995162  70.0857441 153.9944737  50.2609993  69.6734839
 153.8670531  48.7869164  69.3529800 153.4055683  51.4718295  73.7330476
 154.0327722  51.0895372  74.3468000 152.5483602  51.2532496  74.0986168
 150.1821226  53.2794724  59.6648830 150.4774667  52.3705402  59.6115884
 149.2809262  53.2582463  59.3429833 153.7115473  51.3550720  65.6476379
 152.9902059  51.9686688  65.5083852 154.5008729  51.8908485  65.5693025
 151.9109068  50.9608821  59.7888156 151.5821774  50.0806200  59.6063261
 152.2648438  50.9056490  60.6764545 155.0250891  51.2481791  60.1563633
 155.3646963  51.7767712  59.4342242 155.4723011  51.5862197  60.9322200
 155.8949382  53.4087275  65.8686003 155.7493963  53.7227578  66.7610284
 155.4174586  54.0272175  65.3156902 150.3695044  55.9492619  68.8073664
 149.8248512  56.7252427  68.9393938 151.2474394  56.2963424  68.6492786
 151.1561066  55.0762516  71.7003821 150.4142802  55.2245151  72.2868451
 150.8353811  55.3370781  70.8370570 151.6017680  62.9627944  63.7314216
 152.4275700  62.6631716  63.3512859 151.2511732  62.1935567  64.1804004
 149.8026285  60.8814271  64.6903149 148.9658193  60.4536445  64.5087150
 149.7749930  61.0746714  65.6273940 153.8865353  56.8923513  60.2831419
 153.6411395  55.9885843  60.4811629 154.0561268  56.8940664  59.3410897
 153.1561001  52.6251871  57.7817580 152.4630245  52.6996226  57.1257616
 152.9112752  51.8612215  58.3039097 149.1175782  53.9423619  64.4752081
 148.7978566  53.0888927  64.1826455 148.5709210  54.1572197  65.2310049
 152.8955689  56.6586060  68.1921588 153.1141699  57.5903168  68.2109622
 153.3081463  56.2994034  68.9776392 148.9864042  57.5626530  66.4445203
 148.2927513  57.1480483  65.9315157 149.7337033  57.6047067  65.8478622
 150.9000784  57.4944784  64.3211218 150.8771472  57.5932471  63.3693101
 151.2101421  58.3409935  64.6428384 153.5588162  59.5520939  68.4357832
 154.5131416  59.5204881  68.3687764 153.3600686  59.0911563  69.2508058
 154.1487544  58.1222055  71.0028630 154.9680433  58.6166134  71.0263467
 154.4224352  57.2054023  70.9746197 151.9138391  65.0940559  65.4528030
 151.7792859  64.3340959  64.8866028 151.4970453  65.8181458  64.9856819
 155.0707517  65.9909876  65.6646473 154.9539901  66.9355308  65.5625163
 154.2499963  65.6883437  66.0532272 149.4022458  52.4560189  71.7020827
 150.0481322  51.9459143  72.1908052 149.1939609  53.1928871  72.2764252
 153.7419949  49.6027806  75.7995841 154.6051411  49.2464611  76.0099166
 153.1685360  49.2641701  76.4871245 132.6601309  15.3406554  52.2799426
 132.8997907  15.9725078  52.9578445 131.8170506  14.9894594  52.5664786
 142.1221772  20.8822046  52.0946185 142.9143064  20.5412870  51.6792484
 142.3618423  20.9917021  53.0148338 150.1556899  23.0541822  44.5676429
 149.5044879  23.6395902  44.1810443 150.9501262  23.5848017  44.6271467
 144.0812526  20.1430959  44.9663564 144.8543402  19.5959946  44.8276439
 144.4337925  21.0075208  45.1778025 145.9197569  21.4707341  58.1730463
 145.6287435  22.3752972  58.0577129 146.5554553  21.5123869  58.8874532
 145.8608234  27.9213077  48.1351224 145.7832264  28.8720902  48.2139705
 145.2569877  27.5758950  48.7926151 148.4198585  21.6127123  56.9877784
 148.4843018  22.0747530  57.8235956 147.7109509  20.9824488  57.1160094
 148.1346603  23.2795230  46.8556764 147.9992278  24.1246766  47.2841612
 148.6756415  23.4814508  46.0922698 141.5876000  20.7970668  47.4284689
 142.1000521  21.5913918  47.5790254 142.2398713  20.0996959  47.3618291
 143.3970885  23.9136424  49.5107442 143.5737513  24.8354389  49.3228426
 144.1927718  23.5994844  49.9401822 149.7615079  23.9018797  60.9857106
 149.3178933  23.1155175  60.6678011 150.4232293  24.0897947  60.3200997
 144.5202200  25.4314598  55.5117785 145.0709625  25.3031662  54.7394779
 143.6813676  25.7309487  55.1612677 151.8596317  24.1821597  59.0138507
 151.8414793  25.0030478  58.5218777 152.7816237  24.0575672  59.2388649
 139.5524917  19.1259322  48.2044260 140.3900139  19.5356331  47.9877967
 139.7303185  18.1858765  48.1744454 150.7342763  27.3529436  43.2912487
 150.0604462  27.6561133  43.8997445 151.1208585  28.1558516  42.9417944
 152.6815124  24.1927610  49.5980777 152.9738099  24.7532667  48.8793142
 153.1913745  24.4856171  50.3533936 147.6448750  24.9707961  50.6874230
 147.6024928  25.1968807  49.7582762 148.5611448  24.7371336  50.8360031
 145.7614550  21.8470990  50.4836193 146.5555149  21.3521310  50.2818767
 145.0506243  21.3188853  50.1203898 150.5809395  24.2289086  54.8348560
 150.6346417  24.7980022  55.6026276 149.7124176  24.3990971  54.4702597
 148.3385826  22.4200012  54.1634030 148.1996912  22.0518796  55.0359968
 147.5500423  22.9347651  53.9917987 148.9333978  27.5209108  45.5059566
 149.1085734  27.0497152  46.3205189 148.2466766  28.1474875  45.7340827
 154.4804365  23.8536557  59.4865707 154.4216911  23.1695777  58.8196290
 154.8823883  24.5955547  59.0346333 143.4995064  30.6698471  52.2799426
 143.7391662  31.3016995  52.9578445 142.6564260  30.3186511  52.5664786
 136.1350919  18.1500233  51.0422738 136.8221959  17.8361963  50.4543754
 135.9799048  19.0541598  50.7689990 148.0122925  26.4777594  54.6840930
 147.9393097  27.2832565  55.1960235 147.5700319  26.6769559  53.8588952
 147.8012705  25.7149364  48.1943752 147.0180227  26.2571044  48.2881976
 148.5005450  26.2323343  48.5937993 150.4721609  26.3764428  56.8399089
 151.1849581  27.0111892  56.7674990 149.9811638  26.4728294  56.0239091
 145.5233522  24.1258871  57.6604660 146.2242982  24.7595354  57.8134054
 145.0528637  24.4673603  56.9000299 150.2841982  26.7163172  49.5885380
 150.4664377  25.8984828  50.0513133 151.1074968  26.9330864  49.1510270
 150.6184148  25.6431357  46.8500429 151.1471914  25.1323811  46.2370591
 150.8812367  25.3273887  47.7145962 141.1201241  23.6595226  54.5935762
 141.7054677  22.9138914  54.7263667 140.9226079  23.9699183  55.4772426
 143.9739896  26.6946474  49.6098205 143.3050271  27.1792601  49.1262245
 143.8352765  26.9415694  50.5241583 148.1145164  28.7290217  56.2080863
 148.6663472  28.8921839  56.9729948 148.4551358  29.3194655  55.5360888
 152.9656039  23.5551475  62.0629518 153.5095943  24.1681433  61.5684472
 152.3842883  24.1131053  62.5796531 151.2513552  26.6772193  53.1944545
 151.1264691  25.8761932  52.6855491 151.9092643  27.1718386  52.7058515
 153.3148460  24.4781213  54.8224095 152.3678796  24.3586564  54.7502422
 153.6631233  23.5903711  54.9050357 150.3194893  24.2733929  51.0228448
 150.1719856  23.3450636  51.2036018 151.1448387  24.2954020  50.5385523
 153.9229015  25.0962488  52.1093320 154.8475563  24.8905349  51.9717772
 153.7544319  24.8478889  53.0182662 153.7124331  25.6148155  47.4655412
 153.8861209  25.0494578  46.7129264 154.2053223  26.4149050  47.2834902
 148.2610976  26.2948699  58.2229518 148.5698102  26.0497845  59.0952217
 149.0586458  26.4995337  57.7348388 148.2831588  28.4486608  50.4534894
 147.8436578  27.9562987  51.1467751 149.0339705  27.9059576  50.2126969
 140.7623927  24.6398149  50.4559522 141.5881947  24.3401921  50.0758166
 140.4117979  23.8705772  50.9049311 145.7305460  23.9924617  52.5257196
 145.1085469  23.3295322  52.2259424 146.4010327  24.0185749  51.8430844
 138.9632532  22.5584476  51.4148456 138.1264440  22.1306650  51.2332457
 138.9356177  22.7516919  52.3519247 145.2918967  22.5428541  46.0015656
 145.4407087  23.2264005  45.3482329 146.0985410  22.5233631  46.5165112
 148.7914372  25.0376671  43.4727404 148.2188339  25.6566858  43.0197876
 149.3647166  25.5876033  44.0067326 152.0111632  25.3213821  44.6035986
 152.9442305  25.2559383  44.8068862 151.9234845  26.1570088  44.1450519
 138.1470288  19.2396735  53.1690509 137.4533760  18.8250688  52.6560464
 138.8943279  19.2817272  52.5723928 140.0607031  19.1714989  51.0456524
 140.0377719  19.2702676  50.0938407 140.3707667  20.0180140  51.3673690
 142.7194409  21.2291144  55.1603139 143.6737662  21.1975086  55.0933070
 142.5206932  20.7681768  55.9753365 141.0744638  26.7710764  52.1773337
 140.9399105  26.0111164  51.6111335 140.6576700  27.4951663  51.7102126
 144.2313763  27.6680081  52.3891779 144.1146148  28.6125513  52.2870470
 143.4106210  27.3653642  52.7777578 145.2568278  28.3208342  55.6047708
 146.1595524  28.3531953  55.9214203 145.0305648  27.3908793  55.6194044
 147.0121880  27.0739329  52.2657786 146.0617511  27.0741191  52.1522159
 147.3154366  26.3272064  51.7493821 155.4151095  34.7162772  49.2561964
 154.8515960  34.6252709  48.4878252 155.3003490  33.8962676  49.7364457
 152.9615527  36.2113963  52.0946185 153.7536819  35.8704788  51.6792484
 153.2012177  36.3208939  53.0148338 154.9206281  35.4722877  44.9663564
 155.6937157  34.9251864  44.8276439 155.2731680  36.3367126  45.1778025
 155.1693690  32.9374471  51.2016961 154.2444186  32.8050685  51.4094653
 155.4178103  33.7168691  51.6986903 152.5302501  32.5807745  52.0360750
 152.6594882  32.8342224  52.9500162 151.8499952  33.1735453  51.7165405
 155.6901788  35.2194534  52.9084857 156.2603145  35.6481803  52.2702341
 156.2809899  34.9377119  53.6069043 156.1826954  30.3857962  61.1545868
 155.5525615  31.0674243  61.3881265 156.0763042  30.2741043  60.2099006
 151.4771927  30.0529758  52.0811792 150.6870981  30.3087286  51.6051903
 151.9683174  30.8678096  52.1863833 153.4286672  30.4174337  49.0395269
 152.6317835  30.5293031  49.5578765 153.2012264  30.7560989  48.1736160
 149.7609630  30.3060248  54.5126783 150.0117668  31.1907258  54.7784359
 150.2969178  30.1264850  53.7401875 155.4607697  24.6878728  63.5171119
 155.0674642  24.1344926  64.1918764 156.2773837  24.9989306  63.9077637
 152.4269755  36.1262586  47.4284689 152.9394275  36.9205836  47.5790254
 153.0792467  35.4288876  47.3618291 154.2364639  39.2428342  49.5107442
 154.4131268  40.1646307  49.3228426 155.0321473  38.9286761  49.9401822
 153.5216996  31.2892974  59.3869606 153.4070511  30.3878231  59.6876704
 152.6661514  31.5356671  59.0354422 155.3595955  40.7606516  55.5117785
 155.9103380  40.6323579  54.7394779 154.5207431  41.0601405  55.1612677
 150.3918671  34.4551240  48.2044260 151.2293893  34.8648249  47.9877967
 150.5696939  33.5150682  48.1744454 155.2534566  26.8163303  49.7287439
 155.8278318  26.5938484  48.9960632 155.8405549  26.8851997  50.4816041
 155.5804153  28.8467764  43.7483325 154.7441466  29.1842450  44.0692599
 155.4408923  28.7116743  42.8110462 150.4144843  31.7941955  48.8754993
 150.2169242  31.2011316  48.1506060 149.8591507  31.4894166  49.5930932
 155.8248001  27.8760477  54.3701200 156.4647380  27.7349236  53.6724163
 154.9925531  27.5894991  53.9939802 152.9091068  31.3205989  46.5595945
 151.9788656  31.2590445  46.7765907 153.0048540  30.7981942  45.7632586
 152.8276617  27.8460802  49.1474187 153.0883435  28.7606135  49.0383347
 153.6493790  27.3785245  49.2970800 154.3001543  29.2598559  56.3173011
 154.9724596  29.0515922  55.6685660 153.4731329  29.0620645  55.8778244
 154.7029040  32.5341162  57.0775449 154.5648838  31.8021401  57.6786988
 155.6133963  32.4450062  56.7959636 156.0440275  29.2326340  58.3854768
 155.5077632  28.7817078  59.0376364 155.4556983  29.3672248  57.6425232
 154.3388818  45.9990389  52.2799426 154.5785416  46.6308913  52.9578445
 153.4958015  45.6478429  52.5664786 146.9744674  33.4792151  51.0422738
 147.6615713  33.1653881  50.4543754 146.8192802  34.3833515  50.7689990
 151.7779396  28.3682347  55.4707762 151.6937584  27.7608017  54.7358172
 150.9562102  28.8591366  55.4717259 151.9594995  38.9887144  54.5935762
 152.5448432  38.2430832  54.7263667 151.7619833  39.2991101  55.4772426
 154.8133650  42.0238391  49.6098205 154.1444025  42.5084519  49.1262245
 154.6746520  42.2707612  50.5241583 146.5512650  31.5592744  53.3140206
 146.5896749  31.0256335  54.1077324 146.0452943  31.0327950  52.6951183
 153.9303412  26.4057285  56.8102748 153.9944739  27.2672115  56.3980146
 153.8670532  25.7931286  56.0775106 153.4055685  28.4780417  60.4575782
 154.0327723  28.0957494  61.0713306 152.5483603  28.2594619  60.8231475
 150.1821227  30.2856846  46.3894137 150.4774668  29.3767525  46.3361191
 149.2809263  30.2644586  46.0675139 153.7115474  28.3612843  52.3721686
 152.9902060  28.9748811  52.2329159 154.5008730  28.8970608  52.2938332
 151.9109069  27.9670944  46.5133462 151.5821775  27.0868323  46.3308568
 152.2648440  27.9118613  47.4009851 155.0250892  28.2543914  46.8808940
 155.3646965  28.7829835  46.1587548 155.4723013  28.5924320  47.6567506
 155.8949383  30.4149397  52.5931310 155.7493964  30.7289701  53.4855591
 155.4174587  31.0334298  52.0402208 150.3695046  32.9554742  55.5318971
 149.8248514  33.7314550  55.6639245 151.2474396  33.3025546  55.3738092
 151.1561068  32.0824638  58.4249128 150.4142804  32.2307273  59.0113758
 150.8353812  32.3432904  57.5615877 151.6017681  39.9690067  50.4559522
 152.4275701  39.6693839  50.0758166 151.2511733  39.1997689  50.9049311
 149.8026286  37.8876393  51.4148456 148.9658195  37.4598568  51.2332457
 149.7749932  38.0808837  52.3519247 153.8865354  33.8985636  47.0076725
 153.6411396  32.9947966  47.2056935 154.0561269  33.9002787  46.0656203
 153.1561002  29.6313994  44.5062887 152.4630247  29.7058349  43.8502923
 152.9112754  28.8674337  45.0284404 149.1175783  30.9485741  51.1997388
 148.7978567  30.0951050  50.9071762 148.5709211  31.1634320  51.9555355
 152.8955690  33.6648182  54.9166894 153.1141700  34.5965290  54.9354928
 153.3081464  33.3056157  55.7021698 148.9864043  34.5688653  53.1690509
 148.2927514  34.1542606  52.6560464 149.7337034  34.6109189  52.5723928
 150.9000785  34.5006907  51.0456524 150.8771473  34.5994594  50.0938407
 151.2101422  35.3472057  51.3673690 153.5588163  36.5583062  55.1603139
 154.5131417  36.5267004  55.0933070 153.3600687  36.0973685  55.9753365
 154.1487545  35.1284178  57.7273936 154.9680434  35.6228256  57.7508774
 154.4224353  34.2116146  57.6991504 151.9138392  42.1002681  52.1773337
 151.7792860  41.3403082  51.6111335 151.4970454  42.8243581  51.7102126
 155.0707518  42.9971998  52.3891779 154.9539902  43.9417431  52.2870470
 154.2499964  42.6945560  52.7777578 149.4022460  29.4622312  58.4266133
 150.0481323  28.9521266  58.9153359 149.1939611  30.1990993  59.0009559
 153.7419951  26.6089929  62.5241148 154.6051412  26.2526734  62.7344472
 153.1685361  26.2703824  63.2116552  30.9225590  84.3709500 150.7713973
  30.2713570  84.9563580 150.3847987  31.7169953  84.9015695 150.8309011
  24.8481217  81.4598637 151.1701107  25.6212093  80.9127624 151.0313983
  25.2006616  82.3242886 151.3815569  27.1847495  77.6191303 148.8019557
  27.4373015  77.0972824 148.0403020  26.2472054  77.4557448 148.9046241
  32.4000855  82.0599932 151.3082957  31.7646688  82.1334558 152.0203862
  32.0698261  82.6493531 150.6302037  26.9043783  79.5219409 151.0043932
  26.7880042  78.8464312 151.6725017  27.0146043  79.0351783 150.1876085
  28.8880811  74.0119456 149.7051970  29.0555214  74.8799692 150.0722441
  28.6977980  74.1746737 148.7813259  28.8670032  76.4677113 150.6898637
  28.7469657  76.9134164 151.5284117  28.1722621  76.8162431 150.1312175
  26.6276924  89.2380755 154.3388768  26.5500954  90.1888580 154.4177249
  26.0238568  88.8926628 154.9963694  34.5655098  76.9398586 151.5178971
  35.4772955  77.1725973 151.3426668  34.0564745  77.5235631 150.9554050
  37.0513913  82.8578843 156.2636916  36.3664951  83.2377744 155.7133949
  37.1357762  83.4674169 156.9968864  43.5116665  79.7249506 157.3839589
  42.7580374  79.1556904 157.2283593  43.6464206  79.6912170 158.3310223
  28.9015293  84.5962908 153.0594308  28.7660968  85.4414444 153.4879156
  29.4425106  84.7982186 152.2960242  32.2158040  78.1102081 150.0965636
  31.7004663  78.8806686 150.3354024  31.9435348  77.4367217 150.7198698
  37.1892314  80.8634436 152.0318810  36.4121756  80.5245595 151.5873972
  37.8683795  80.8687059 151.3573775  32.0044343  75.9829173 151.9225418
  31.6994478  76.2975322 152.7735561  32.9574785  76.0610593 151.9652751
  30.4490775  82.1419396 153.5718372  29.9212136  81.4072156 153.2591609
  29.9478277  82.9194073 153.3258340  28.5943375  79.9599607 146.5753345
  27.6870437  79.7288860 146.7744494  29.0914407  79.1637226 146.7627326
  31.5011454  88.6697114 149.4950031  30.8273152  88.9728811 150.1034989
  31.8877276  89.4726194 149.1455488  29.7731608  80.0612202 151.0977335
  28.8642827  79.7771234 151.1949804  29.8026692  80.4811280 150.2380642
  35.0050876  83.6718791 154.8668502  34.5513203  82.8309701 154.9233693
  34.3744842  84.3080189 155.2043282  33.4483815  85.5095288 155.8018320
  33.7406789  86.0700345 155.0830686  33.9582435  85.8023849 156.5571480
  29.4707696  81.6020945 148.4365413  29.0327126  80.8856804 147.9771051
  30.2118137  81.8297060 147.8750505  28.4117440  86.2875639 156.8911774
  28.3693619  86.5136485 155.9620306  29.3280139  86.0539013 157.0397575
  37.5880811  79.8778142 154.4941732  37.4498709  80.0679738 153.5662921
  37.2317030  80.6397525 154.9509783  29.7002669  88.8376786 151.7097110
  29.8754424  88.3664829 152.5242733  29.0135457  89.4642552 151.9378371
  33.5918924  80.4605327 148.0297471  32.9748094  79.7352155 147.9330524
  33.1235412  81.2214687 147.6864545  25.3817470  74.6790751 147.1518775
  24.5046936  74.5579552 146.7881022  25.8575223  73.8876829 146.8997664
  28.5681396  87.0317041 154.3981296  27.7848917  87.5738722 154.4919520
  29.2674141  87.5491021 154.7975537  32.9607826  81.5983358 154.6153924
  32.0264105  81.7184821 154.4458629  33.1384495  80.6955825 154.3513934
  36.3480378  77.4400677 155.1503959  36.8140830  78.2728669 155.0764261
  36.7987878  76.9745659 155.8549217  34.4156609  83.7844499 152.1490111
  34.6916453  83.6701093 153.0583985  33.5461108  83.3861984 152.1102284
  31.0510673  88.0330850 155.7922924  31.2333067  87.2152506 156.2550677
  31.8743659  88.2498542 155.3547814  31.3852838  86.9599035 153.0537973
  31.9140605  86.4491489 152.4408135  31.6481058  86.6441565 153.9183506
  24.7408586  88.0114151 155.8135749  24.0718962  88.4960279 155.3299789
  24.6021456  88.2583372 156.7279127  32.0182242  87.9939870 159.3982089
  31.8933382  87.1929610 158.8893035  32.6761333  88.4886064 158.9096059
  31.0863584  85.5901607 157.2265992  30.9388546  84.6618314 157.4073562
  31.9117077  85.6121697 156.7423067  34.6897706  86.4130165 158.3130864
  35.6144253  86.2073027 158.1755315  34.5213009  86.1646567 159.2220206
  34.4793022  86.9315833 153.6692956  34.6529899  86.3662255 152.9166808
  34.9721913  87.7316728 153.4872446  40.3332413  79.6952256 155.2883255
  40.7763559  78.9459581 154.8902379  39.4558923  79.6862392 154.9056987
  35.4668194  86.2482597 150.7689854  36.1619099  86.8689290 150.9877169
  35.8091345  85.3977949 151.0442232  37.3659618  83.6982303 152.2977185
  37.8910942  84.0369576 151.5726505  37.2781970  82.7629318 152.1140319
  29.0500278  89.7654286 156.6572438  28.6105269  89.2730665 157.3505295
  29.8008395  89.2227254 156.4164513  26.0587657  83.8596219 152.2053200
  26.2075778  84.5431683 151.5519873  26.8654101  83.8401309 152.7202656
  39.8765278  81.1657494 157.6805703  40.7112169  81.6047298 157.8443263
  40.0124407  80.6896147 156.8613949  29.5583063  86.3544349 149.6764948
  28.9857030  86.9734536 149.2235419  30.1315857  86.9043711 150.2104870
  32.7780323  86.6381499 150.8073530  33.7110996  86.5727061 151.0106405
  32.6903535  87.4737766 150.3488063  35.4068339  85.9547369 147.7677477
  35.3281971  85.6207233 148.6613235  36.2278006  86.4469137 147.7668950
  29.9429861  77.6905162 147.0181000  30.8888966  77.5611370 147.0869418
  29.5644106  76.9519824 147.4950428  28.1272778  75.6155138 146.9535885
  27.2204234  75.3188251 147.0298599  28.4048759  75.3184956 146.0870172
  26.8971563  72.4742073 147.0947865  27.7590727  72.7996972 147.3543682
  27.0821907  71.6873569 146.5820930  32.9772291  83.2715365 147.3887456
  33.6808141  83.4765367 148.0045111  32.2534940  83.8392127 147.6536539
  33.8070101  79.0225226 153.5089726  33.7505303  79.4793778 152.6697358
  34.3598444  78.2615911 153.3312569  41.9287245  77.5511031 156.8411137
  41.3686803  77.6204221 157.6142699  41.3230748  77.3752016 156.1210633
  34.8858988  83.7097894 149.4385916  35.7204592  83.2779093 149.2563391
  34.7243331  83.5379908 150.3662810  34.5404881  80.2130007 150.8042255
  34.4853684  80.0474279 149.8630699  33.9150936  80.9206040 150.9604445
  27.7790570  88.3907007 158.4695330  26.8286201  88.3908868 158.3559702
  28.0823056  87.6439741 157.9531365  43.5143264  94.2267545 159.5341093
  44.1521674  94.1074293 158.8304433  43.3964106  95.1748389 159.5929045
  40.3232970  94.1794973 159.4702617  39.9851481  94.0636038 158.5823152
  41.1922738  93.7786138 159.4503623  36.1819786  96.0330450 155.4599508
  35.6184651  95.9420387 154.6915796  36.0672181  95.2130354 155.9402001
  40.8052753  95.3329825 165.4288823  40.7941394  94.9382623 164.5569326
  40.9673392  94.5995898 166.0222594  41.7619344  99.7001417 150.7713973
  41.1107324 100.2855498 150.3847987  42.5563707 100.2307612 150.8309011
  35.6874971  96.7890555 151.1701107  36.4605847  96.2419542 151.0313983
  36.0400370  97.6534804 151.3815569  38.4516221  95.4943785 160.9669366
  39.0479793  95.2699808 160.2526329  38.5091192  94.7528531 161.5694814
  38.0241249  92.9483221 148.8019557  38.2766770  92.4264742 148.0403020
  37.0865808  92.7849366 148.9046241  43.0684532  91.9518999 156.6094301
  43.8547621  91.5338422 156.2584718  43.3323236  92.8565091 156.7775949
  43.2394609  97.3891849 151.3082957  42.6040442  97.4626476 152.0203862
  42.9092016  97.9785448 150.6302037  48.4692959  91.8894232 157.5127279
  49.2018131  91.3193449 157.7465109  47.7132315  91.5015833 157.9533785
  37.7437538  94.8511327 151.0043932  37.6273796  94.1756230 151.6725017
  37.8539798  94.3643701 150.1876085  40.0869079  94.3121474 154.7090622
  39.7227286  93.7852095 155.4203543  40.9436195  93.9219943 154.5357107
  45.9918380  85.6015806 161.9721888  45.6601704  86.4711217 161.7483103
  45.3963993  85.2852090 162.6515918  39.7274566  89.3411373 149.7051970
  39.8948968  90.2091610 150.0722441  39.5371735  89.5038655 148.7813259
  42.4849899  97.8028352 161.3717800  42.1850622  98.7053391 161.2633608
  42.1400959  97.5360536 162.2238953  35.9362381  94.2542149 157.4054505
  35.0112877  94.1218363 157.6132197  36.1846794  95.0336368 157.9024447
  45.8847043  90.3210893 159.0515238  44.9763920  90.2526301 158.7573999
  45.8334639  90.7982837 159.8797063  39.7063787  91.7969031 150.6898637
  39.5863412  92.2426082 151.5284117  39.0116375  92.1454349 150.1312175
  33.2971192  93.8975423 158.2398294  33.4263573  94.1509902 159.1537706
  32.6168643  94.4903131 157.9202949  37.4670679 104.5672673 154.3388768
  37.3894709 105.5180498 154.4177249  36.8632322 104.2218545 154.9963694
  47.7508689  88.5227331 160.8293112  47.1083069  88.8159864 160.1832906
  47.2463618  88.4080251 161.6346308  45.4048853  92.2690504 151.5178971
  46.3166709  92.5017891 151.3426668  44.8958500  92.8527548 150.9554050
  43.6889621  96.6915132 165.1540264  44.0972977  96.2497542 164.4094896
  42.9666882  96.1167759 165.4074456  40.0420691  91.6287739 162.5273820
  40.8881886  92.0527152 162.6708469  39.9819328  90.9721363 163.2212384
  44.0118435  97.2516323 158.9092552  43.3827298  97.4162037 158.2068620
  43.6244097  97.6657932 159.6803516  47.8907667  98.1870760 156.2636916
  47.2058705  98.5669662 155.7133949  47.9751516  98.7966087 156.9968864
  43.1920136  89.2892107 164.1854994  42.9481068  90.0434168 163.6489270
  43.4680066  89.6677455 165.0202241  45.1458599  95.8330719 162.8632260
  45.3575494  96.4762479 162.1866641  45.0988347  94.9993036 162.3954190
  42.7484828  88.4448540 159.7668832  41.8869307  88.7429794 160.0585569
  42.7747262  88.6618939 158.8349864  39.5646397  96.9890731 156.1742638
  40.0284743  97.2678434 155.3847260  39.3003195  96.0874175 155.9915728
  36.4570478  96.5362212 159.1122401  37.0271835  96.9649481 158.4739885
  37.0478590  96.2544797 159.8106586  38.5015283  93.1113883 152.9832203
  39.2039326  93.5634927 153.4506129  38.1695912  92.4697702 153.6112096
  32.2440617  91.3697436 158.2849336  31.4539671  91.6254964 157.8089447
  32.7351864  92.1845774 158.3901377  46.2604427  98.7102675 161.0354617
  47.0821870  98.3082862 160.7537299  46.2566830  98.6070909 161.9870733
  34.1955362  91.7342015 155.2432813  33.3986526  91.8460709 155.7616309
  33.9680955  92.0728667 154.3773703  54.3510420  95.0541423 157.3839589
  53.5974128  94.4848821 157.2283593  54.4857961  95.0204088 158.3310223
  39.7409048  99.9254826 153.0594308  39.6054723 100.7706361 153.4879156
  40.2818860 100.1274103 152.2960242  33.1938445  97.4430264 153.6322233
  33.7062966  98.2373514 153.7827798  33.8461158  96.7456554 153.5655834
  35.0033330 100.5596020 155.7144986  35.1799958 101.4813985 155.5265970
  35.7990163 100.2454439 156.1439366  43.0901511  83.4485388 161.5893201
  42.7465781  84.3387029 161.5132312  43.4580474  83.2587045 160.7262786
  31.1587362  95.7718918 154.4081803  31.9962584  96.1815926 154.1915511
  31.3365630  94.8318360 154.3781997  43.0551794  93.4393999 150.0965636
  42.5398418  94.2098603 150.3354024  42.7829103  92.7659135 150.7198698
  40.6398905  88.2843699 155.1550875  39.7840501  87.8950550 154.9756514
  41.0525857  88.3635660 154.2950660  42.1698052  85.8190043 159.5542435
  41.6662847  85.7820178 158.7410240  42.4628659  86.7282785 159.6139091
  38.4140938  85.9028772 158.5608616  39.2793934  85.7071581 158.2014506
  38.4818447  85.6739124 159.4877973  48.0286068  96.1926353 152.0318810
  47.2515511  95.8537513 151.5873972  48.7077549  96.1978976 151.3573775
  42.8438097  91.3121091 151.9225418  42.5388233  91.6267240 152.7735561
  43.7968539  91.3902511 151.9652751  41.2884529  97.4711314 153.5718372
  40.7605891  96.7364074 153.2591609  40.7872032  98.2485990 153.3258340
  46.2677375  95.6660335 158.6885418  45.6101050  96.3559596 158.7765547
  47.0717774  96.0556766 159.0319404  36.0203257  88.1330980 155.9324983
  36.5947009  87.9106162 155.1998176  36.6074239  88.2019675 156.6853584
  45.0782834  94.0204707 156.7389360  45.5914716  94.6534699 157.2411069
  45.7284058  93.4205903 156.3732720  36.3472844  90.1635441 149.9520868
  35.5110156  90.5010128 150.2730143  36.2077613  90.0284421 149.0148005
  38.3225924  85.0072229 154.6600053  37.6690337  84.6921246 154.0356667
  38.2806399  84.3847970 155.3859875  39.4337129  95.2891524 146.5753345
  38.5264191  95.0580778 146.7744494  39.9308161  94.4929144 146.7627326
  42.3405208 103.9989032 149.4950031  41.6666907 104.3020728 150.1034989
  42.7271030 104.8018112 149.1455488  41.5563665  91.4954163 158.9847700
  40.6386226  91.7169110 158.8269388  41.9723808  91.5700473 158.1259408
  42.3398713  92.8945578 154.1150380  43.0870531  93.4066976 153.8057502
  42.6090302  92.5729631 154.9754774  40.6125363  95.3904119 151.0977335
  39.7036582  95.1063152 151.1949804  40.6420447  95.8103198 150.2380642
  45.8444630  99.0010709 154.8668502  45.3906957  98.1601619 154.9233693
  45.2138597  99.6372107 155.2043282  44.7877550  89.9302695 156.0969170
  44.0500306  89.4180081 156.4279412  45.0404323  89.4903076 155.2852447
  44.2877569 100.8387205 155.8018320  44.5800544 101.3992262 155.0830686
  44.7976190 101.1315766 156.5571480  44.8889177  82.7078947 156.6910939
  45.1948054  81.8476310 156.4036854  45.6141782  83.2996567 156.4909933
  31.1813533  93.1109633 155.0792537  30.9837933  92.5178994 154.3543604
  30.6260197  92.8061843 155.7968476  39.1610257  93.0032740 157.1987130
  39.2158867  92.0506576 157.1229607  38.3501459  93.1592179 157.6828428
  40.3101451  96.9312863 148.4365413  39.8720880  96.2148722 147.9771051
  41.0511891  97.1588978 147.8750505  37.1002617  91.6209800 154.9577509
  36.2870482  91.9203970 155.3642701  37.5961611  91.2265488 155.6751991
  39.2511195 101.6167556 156.8911774  39.2087373 101.8428403 155.9620306
  40.1673893 101.3830931 157.0397575  42.6976828  92.0851624 163.7892403
  43.0526216  92.3123097 164.6486869  43.3448960  92.4170001 163.1669658
  48.4274565  95.2070060 154.4941732  48.2892464  95.3971656 153.5662921
  48.0710784  95.9689443 154.9509783  36.5916691  89.1928155 160.5738744
  37.2316071  89.0516914 159.8761707  35.7594222  88.9062668 160.1977346
  48.4543945  97.2746587 159.5053003  48.8880452  97.1821876 160.3536057
  49.1675526  97.2504087 158.8673019  37.3676995  98.4930585 156.6873736
  38.1617594  97.9980906 156.4856311  36.6568688  97.9648449 156.3241442
  42.1871840 100.8748681 161.0386104  42.2408862 101.4439617 161.8063820
  41.3186621 101.0450566 160.6740141  33.6759759  92.6373667 152.7633489
  32.7457347  92.5758123 152.9803451  33.7717231  92.1149620 151.9670130
  33.5945308  89.1628480 155.3511731  33.8552125  90.0773813 155.2420891
  34.4162480  88.6952923 155.5008344  35.0670233  90.5766237 162.5210555
  35.7393287  90.3683599 161.8723204  34.2400020  90.3788323 162.0815788
  49.3159494  97.3170288 162.0385889  49.5095385  98.2216098 162.2845164
  49.2160113  96.8577707 162.8724474  41.1459940  95.0408943 162.5973036
  42.0752000  95.1920103 162.4242003  40.7250970  95.1292964 161.7421682
  39.9448271  99.0659607 160.3671573  39.8059357  98.6978392 161.2397512
  39.1562868  99.5807247 160.1955531  40.5396423 104.1668704 151.7097110
  40.7148179 103.6956747 152.5242733  39.8529211 104.7934470 151.9378371
  41.4953486  98.4441210 157.7560411  41.1603319  98.4041980 158.6518061
  40.9957432  97.7785926 157.2830821  44.4312678  95.7897245 148.0297471
  43.8141849  95.0644073 147.9330524  43.9629167  96.5506605 147.6864545
  38.0980031  93.5628800 162.7696672  38.8079650  92.9221992 162.7283290
  38.0549339  93.8141694 163.6922853  46.0866810 100.4996153 165.6903251
  46.0279356  99.8155373 165.0233834  46.4886328 101.2415143 165.2383877
  36.2211224  90.0082669 147.1518775  35.3440690  89.8871470 146.7881022
  36.6968977  89.2168747 146.8997664  46.0884217  98.4635737 163.9217231
  45.2010996  98.1261659 164.0443630  46.6582768  97.7318768 164.1585996
  39.4075150 102.3608959 154.3981296  38.6242672 102.9030639 154.4919520
  40.1067895 102.8782939 154.7975537  42.7171800  88.1703589 157.0415501
  43.2140500  87.4173551 156.7216571  41.9458782  88.2067905 156.4758710
  50.5701558  93.8743954 158.6833793  50.5591434  94.7568670 158.3127726
  49.7018937  93.5215505 158.4888330  43.8001581  96.9275276 154.6153924
  42.8657860  97.0476738 154.4458629  43.9778249  96.0247743 154.3513934
  39.3006769  90.3120972 156.7687186  38.9304556  89.7592012 157.4568091
  39.7965861  89.7079105 156.2162186  47.1874132  92.7692595 155.1503959
  47.6534584  93.6020587 155.0764261  47.6381633  92.3037577 155.8549217
  45.2550363  99.1136416 152.1490111  45.5310207  98.9993011 153.0583985
  44.3854862  98.7153901 152.1102284  45.1590795  85.1373182 159.1894860
  44.2453875  85.3677409 159.3577067  45.5883896  85.2211626 160.0408892
  44.9297253  93.3263074 161.6894754  44.2768704  93.5738982 161.0347207
  45.3077633  92.5127212 161.3557231  41.8904427 103.3622767 155.7922924
  42.0726822 102.5444423 156.2550677  42.7137413 103.5790460 155.3547814
  42.2246593 102.2890952 153.0537973  42.7534359 101.7783407 152.4408135
  42.4874812 101.9733483 153.9183506  35.5802341 103.3406069 155.8135749
  34.9112716 103.8252197 155.3299789  35.4415210 103.5875290 156.7279127
  30.9489918  91.6024524 152.5931681  31.2443359  90.6935202 152.5398735
  30.0477954  91.5812263 152.2712683  42.8575997 103.3231788 159.3982089
  42.7327136 102.5221528 158.8893035  43.5155088 103.8177981 158.9096059
  34.4784165  89.6780521 158.5759229  33.7570751  90.2916488 158.4366703
  35.2677421  90.2138285 158.4975875  44.9210905 101.1240808 161.0261639
  43.9741241 101.0046159 160.9539966  45.2693678 100.2363306 161.1087901
  32.6777759  89.2838622 152.7171006  32.3490466  88.4036001 152.5346112
  33.0317130  89.2286290 153.6047395  41.9257338 100.9193524 157.2265992
  41.7782301  99.9910232 157.4073562  42.7510832 100.9413615 156.7423067
  35.7919583  89.5711592 153.0846484  36.1315655  90.0997513 152.3625092
  36.2391703  89.9091998 153.8605050  45.5291460 101.7422083 158.3130864
  46.4538008 101.5364944 158.1755315  45.3606764 101.4938484 159.2220206
  39.1379495  85.0397955 160.9876875  39.9605565  84.5658433 160.8655765
  39.3817559  85.8188438 161.4875561  37.7787730  88.0686213 151.2839776
  38.4996092  88.4467466 150.7803493  37.1553034  88.7875090 151.3874754
  41.9218853  88.7731362 152.2198109  42.1382467  89.6556000 151.9186937
  41.4412920  88.3817575 151.4903751  36.6618074  91.7317075 158.7968853
  36.5162655  92.0457378 159.6893135  36.1843278  92.3501976 158.2439752
  38.5214457  88.7219623 158.8449743  38.5076026  87.8260717 158.5082041
  39.2386885  88.7290287 159.4788029  40.3740588  89.1556963 160.8902870
  40.1158365  90.0774034 160.8887201  39.8425628  88.7587398 161.5803334
  45.3186776 102.2607751 153.6692956  45.4923654 101.6954173 152.9166808
  45.8115668 103.0608645 153.4872446  37.9251353  87.6034004 154.1137313
  38.0467264  86.6750650 154.3128201  37.6353395  87.6172690 153.2015628
  40.7942543  85.2888914 157.2504033  40.8164240  85.3528247 156.2956012
  41.2110602  84.4493423 157.4444539  51.1726168  95.0244174 155.2883255
  51.6157314  94.2751499 154.8902379  50.2952678  95.0154310 154.9056987
  46.3061949 101.5774515 150.7689854  47.0012853 102.1981208 150.9877169
  46.6485099 100.7269866 151.0442232  48.2053372  99.0274221 152.2977185
  48.7304696  99.3661493 151.5726505  48.1175725  98.0921236 152.1140319
  39.8894033 105.0946204 156.6572438  39.4499023 104.6022583 157.3505295
  40.6402150 104.5519171 156.4164513  37.3367905 100.6384213 158.7294740
  36.7147914  99.9754918 158.4296967  38.0072772 100.6645345 158.0468387
  47.8947278  99.6607124 167.6028383  47.1042822  99.6431263 167.0632882
  47.6580633 100.1995418 168.3577419  48.0145153  96.5099591 164.9161111
  48.0643158  96.3449598 165.8576634  47.9059076  95.6426850 164.5258992
  36.8981412  99.1888136 152.2053200  37.0469532  99.8723601 151.5519873
  37.7047855  99.1693226 152.7202656  45.3048916  92.4930519 166.2320418
  46.2058778  92.3536983 165.9404416  45.3796890  92.6584973 167.1718595
  49.5163350  98.9296532 165.1603133  49.2248158  99.2926513 165.9966594
  48.9035481  98.2163540 164.9816465  50.7159032  96.4949412 157.6805703
  51.5505924  96.9339216 157.8443263  50.8518161  96.0188065 156.8613949
  47.7650538  94.0529147 163.6283191  48.2404660  94.2456793 162.8202042
  46.8416104  94.1088333 163.3826574  34.6534045  95.2153314 153.2114269
  34.4080087  94.3115644 153.4094479  34.8229959  95.2170464 152.2693747
  42.3430755  86.0876990 162.5939025  42.8612699  86.8238017 162.2685513
  41.9885887  86.3940984 163.4285784  33.9229692  90.9481671 150.7100431
  33.2298937  91.0226026 150.0540467  33.6781444  90.1842015 151.2321947
  42.5943349  82.5077273 158.1139921  42.8745103  81.8400462 158.7400348
  43.3793956  82.7006368 157.6014585  40.3976817 101.6836267 149.6764948
  39.8250784 102.3026454 149.2235419  40.9709611 102.2335628 150.2104870
  46.4652207  90.9294907 161.8611496  47.4169630  91.0293004 161.8823720
  46.2955658  90.1373175 162.3709581  44.4866587  88.0150490 162.0470897
  43.8916519  88.2955503 161.3517386  44.2016283  88.5044391 162.8187638
  43.6174077 101.9673417 150.8073530  44.5504750 101.9018978 151.0106405
  43.5297290 102.8029684 150.3488063  46.2462094 101.2839287 147.7677477
  46.1675725 100.9499151 148.6613235  47.0671761 101.7761055 147.7668950
  48.9440285  94.1501026 160.9753796  48.9116605  93.2117027 161.1613480
  49.5540909  94.2285063 160.2419621  40.7823616  93.0197079 147.0181000
  41.7282721  92.8903288 147.0869418  40.4037861  92.2811741 147.4950428
  49.0934773  90.9412070 161.0212079  48.5773822  90.1570527 160.8342008
  49.9774722  90.6130787 161.1858599  46.7545500  84.6853085 156.9807892
  46.5570322  84.3768174 157.8651224  47.3645206  85.4114724 157.1105822
  54.7616835  95.2117033 160.1159833  55.4920223  94.9502321 160.6767536
  54.1523780  94.4745755 160.1561901  52.8432132  93.3524896 160.7134284
  52.1165296  93.2180861 160.1050776  52.4279419  93.6601725 161.5191002
  38.9666533  90.9447056 146.9535885  38.0597988  90.6480169 147.0298599
  39.2442514  90.6476874 146.0870172  29.8844473  92.2653419 157.4034932
  29.5647258  91.4118727 157.1109306  29.3377902  92.4801997 158.1592899
  40.5828599  85.4883946 153.1080127  39.7729327  85.1431031 153.4835373
  41.2713016  85.1791489 153.6967738  42.5119147  84.5661992 154.7304423
  43.0650186  84.9857446 155.3894446  42.7489233  83.6397740 154.7727379
  37.7365318  87.8033991 147.0947865  38.5984482  88.1288889 147.3543682
  37.9215662  87.0165487 146.5820930  45.8897954  86.6762518 154.2383088
  45.3096623  87.3347322 153.8561140  45.6233887  85.8539862 153.8270505
  44.3401520  86.0767575 156.4404408  44.8401299  86.1884110 155.6318727
  44.9837128  85.7728628 157.0805216  31.6669476  95.8174585 157.2494068
  31.6440164  95.9162272 156.2975951  31.9770112  96.6639735 157.5711234
  44.6722832  88.8362608 153.2939436  43.7848687  89.1212259 153.0759631
  45.0876821  88.6756371 152.4466713  48.0237368  88.8609129 157.0093775
  48.7997758  89.3505581 157.2818392  47.2985502  89.2867183 157.4665645
  50.4609927  89.5736748 158.0667716  51.0554418  89.3332484 157.3561024
  50.5336511  88.8543879 158.6941252  43.8166046  98.6007283 147.3887456
  44.5201896  98.8057285 148.0045111  43.0928694  99.1684044 147.6536539
  44.6463856  94.3517144 153.5089726  44.5899057  94.8085695 152.6697358
  45.1992198  93.5907828 153.3312569  48.4568662  90.1406876 154.3339845
  48.2005596  89.7403511 155.1648053  47.8321530  90.8550670 154.2089985
  52.7681000  92.8802949 156.8411137  52.2080558  92.9496138 157.6142699
  52.1624503  92.7043934 156.1210633  45.7252743  99.0389812 149.4385916
  46.5598347  98.6071010 149.2563391  45.5637086  98.8671825 150.3662810
  45.3798635  95.5421925 150.8042255  45.3247439  95.3766197 149.8630699
  44.7544690  96.2497958 150.9604445  38.6894761  85.0430034 150.3827574
  38.6773430  85.9871874 150.5395844  39.5818182  84.8600179 150.0887035
  38.6184325 103.7198924 158.4695330  37.6679956 103.7200786 158.3559702
  38.9216811 102.9731659 157.9531365  42.5046880  81.6372811 154.6373510
  41.7379276  81.0831297 154.7830193  42.9157585  81.7094679 155.4987662
  54.3537018 109.5559463 159.5341093  54.9915428 109.4366210 158.8304433
  54.2357861 110.5040307 159.5929045  51.1626724 109.5086891 159.4702617
  50.8245236 109.3927956 158.5823152  52.0316493 109.1078056 159.4503623
  47.0213540 111.3622367 155.4599508  46.4578405 111.2712304 154.6915796
  46.9065935 110.5422272 155.9402001  51.6446507 110.6621743 165.4288823
  51.6335148 110.2674541 164.5569326  51.8067147 109.9287815 166.0222594
  52.6013099 115.0293335 150.7713973  51.9501079 115.6147416 150.3847987
  53.3957462 115.5599530 150.8309011  46.5268726 112.1182472 151.1701107
  47.2999602 111.5711459 151.0313983  46.8794125 112.9826722 151.3815569
  49.2909975 110.8235703 160.9669366  49.8873548 110.5991725 160.2526329
  49.3484947 110.0820449 161.5694814  48.8635004 108.2775138 148.8019557
  49.1160524 107.7556660 148.0403020  47.9259563 108.1141284 148.9046241
  53.9078287 107.2810917 156.6094301  54.6941376 106.8630340 156.2584718
  54.1716991 108.1857009 156.7775949  54.0788364 112.7183767 151.3082957
  53.4434197 112.7918394 152.0203862  53.7485770 113.3077366 150.6302037
  59.3086714 107.2186150 157.5127279  60.0411886 106.6485367 157.7465109
  58.5526069 106.8307750 157.9533785  48.5831292 110.1803244 151.0043932
  48.4667551 109.5048148 151.6725017  48.6933552 109.6935618 150.1876085
  50.9262833 109.6413391 154.7090622  50.5621041 109.1144012 155.4203543
  51.7829949 109.2511860 154.5357107  56.8312134 100.9307724 161.9721888
  56.4995459 101.8003135 161.7483103  56.2357747 100.6144008 162.6515918
  50.5668320 104.6703291 149.7051970  50.7342723 105.5383528 150.0722441
  50.3765489 104.8330573 148.7813259  53.3243654 113.1320270 161.3717800
  53.0244377 114.0345309 161.2633608  52.9794713 112.8652453 162.2238953
  46.7756135 109.5834067 157.4054505  45.8506632 109.4510281 157.6132197
  47.0240548 110.3628286 157.9024447  56.7240797 105.6502810 159.0515238
  55.8157675 105.5818219 158.7573999  56.6728393 106.1274755 159.8797063
  50.5457541 107.1260949 150.6898637  50.4257166 107.5717999 151.5284117
  49.8510130 107.4746266 150.1312175  44.1364946 109.2267340 158.2398294
  44.2657327 109.4801819 159.1537706  43.4562397 109.8195048 157.9202949
  48.3064433 119.8964590 154.3388768  48.2288463 120.8472415 154.4177249
  47.7026077 119.5510463 154.9963694  58.5902444 103.8519249 160.8293112
  57.9476824 104.1451782 160.1832906  58.0857372 103.7372169 161.6346308
  56.2442607 107.5982422 151.5178971  57.1560464 107.8309809 151.3426668
  55.7352254 108.1819466 150.9554050  50.8814445 106.9579656 162.5273820
  51.7275640 107.3819070 162.6708469  50.8213083 106.3013281 163.2212384
  54.8512190 112.5808240 158.9092552  54.2221052 112.7453954 158.2068620
  54.4637852 112.9949850 159.6803516  58.7301422 113.5162678 156.2636916
  58.0452460 113.8961579 155.7133949  58.8145271 114.1258005 156.9968864
  54.0313890 104.6184025 164.1854994  53.7874822 105.3726085 163.6489270
  54.3073821 104.9969372 165.0202241  55.9852353 111.1622637 162.8632260
  56.1969248 111.8054397 162.1866641  55.9382101 110.3284954 162.3954190
  53.5878582 103.7740458 159.7668832  52.7263061 104.0721711 160.0585569
  53.6141017 103.9910857 158.8349864  50.4040152 112.3182648 156.1742638
  50.8678497 112.5970351 155.3847260  50.1396950 111.4166093 155.9915728
  47.2964233 111.8654130 159.1122401  47.8665590 112.2941398 158.4739885
  47.8872345 111.5836715 159.8106586  49.3409038 108.4405801 152.9832203
  50.0433081 108.8926844 153.4506129  49.0089666 107.7989620 153.6112096
  43.0834372 106.6989353 158.2849336  42.2933426 106.9546882 157.8089447
  43.5745619 107.5137691 158.3901377  57.0998181 114.0394593 161.0354617
  57.9215625 113.6374780 160.7537299  57.0960584 113.9362827 161.9870733
  45.0349117 107.0633933 155.2432813  44.2380280 107.1752627 155.7616309
  44.8074709 107.4020585 154.3773703  65.1904174 110.3833341 157.3839589
  64.4367883 109.8140739 157.2283593  65.3251715 110.3496006 158.3310223
  50.5802802 115.2546743 153.0594308  50.4448477 116.0998279 153.4879156
  51.1212615 115.4566021 152.2960242  44.0332200 112.7722181 153.6322233
  44.5456720 113.5665432 153.7827798  44.6854912 112.0748472 153.5655834
  45.8427084 115.8887938 155.7144986  46.0193713 116.8105902 155.5265970
  46.6383918 115.5746357 156.1439366  49.9838103 102.7496202 167.3128920
  50.7247816 103.3503355 167.2333382  50.2156026 102.0073840 166.7546962
  53.9295266  98.7777305 161.5893201  53.5859535  99.6678947 161.5132312
  54.2974228  98.5878963 160.7262786  41.9981116 111.1010836 154.4081803
  42.8356338 111.5107844 154.1915511  42.1759384 110.1610278 154.3781997
  53.8945549 108.7685916 150.0965636  53.3792172 109.5390521 150.3354024
  53.6222857 108.0951052 150.7198698  51.4792660 103.6135617 155.1550875
  50.6234256 103.2242467 154.9756514  51.8919611 103.6927578 154.2950660
  53.0091806 101.1481960 159.5542435  52.5056602 101.1112096 158.7410240
  53.3022413 102.0574703 159.6139091  49.2534692 101.2320690 158.5608616
  50.1187689 101.0363499 158.2014506  49.3212201 101.0031042 159.4877973
  58.8679823 111.5218271 152.0318810  58.0909265 111.1829430 151.5873972
  59.5471304 111.5270894 151.3573775  53.6831852 106.6413008 151.9225418
  53.3781987 106.9559158 152.7735561  54.6362294 106.7194428 151.9652751
  52.1278284 112.8003232 153.5718372  51.5999645 112.0655991 153.2591609
  51.6265786 113.5777908 153.3258340  57.1071130 110.9952252 158.6885418
  56.4494804 111.6851514 158.7765547  57.9111529 111.3848684 159.0319404
  46.8597011 103.4622898 155.9324983  47.4340763 103.2398080 155.1998176
  47.4467994 103.5311593 156.6853584  55.9176588 109.3496625 156.7389360
  56.4308470 109.9826617 157.2411069  56.5677812 108.7497820 156.3732720
  47.1866598 105.4927359 149.9520868  46.3503911 105.8302046 150.2730143
  47.0471368 105.3576339 149.0148005  49.1619679 100.3364147 154.6600053
  48.5084091 100.0213164 154.0356667  49.1200153  99.7139887 155.3859875
  50.2730884 110.6183442 146.5753345  49.3657945 110.3872695 146.7744494
  50.7701916 109.8221061 146.7627326  53.1798963 119.3280949 149.4950031
  52.5060661 119.6312646 150.1034989  53.5664785 120.1310030 149.1455488
  52.3957419 106.8246080 158.9847700  51.4779981 107.0461027 158.8269388
  52.8117563 106.8992391 158.1259408  53.1792467 108.2237496 154.1150380
  53.9264286 108.7358893 153.8057502  53.4484057 107.9021549 154.9754774
  51.4519117 110.7196037 151.0977335  50.5430336 110.4355070 151.1949804
  51.4814201 111.1395115 150.2380642  56.6838385 114.3302626 154.8668502
  56.2300712 113.4893536 154.9233693  56.0532351 114.9664025 155.2043282
  55.6271304 105.2594612 156.0969170  54.8894061 104.7471999 156.4279412
  55.8798078 104.8194994 155.2852447  55.1271324 116.1679123 155.8018320
  55.4194298 116.7284180 155.0830686  55.6369944 116.4607684 156.5571480
  55.7282931  98.0370864 156.6910939  56.0341808  97.1768228 156.4036854
  56.4535536  98.6288485 156.4909933  42.0207288 108.4401551 155.0792537
  41.8231687 107.8470912 154.3543604  41.4653952 108.1353761 155.7968476
  50.0004011 108.3324657 157.1987130  50.0552621 107.3798494 157.1229607
  49.1895213 108.4884097 157.6828428  51.1495205 112.2604781 148.4365413
  50.7114635 111.5440639 147.9771051  51.8905646 112.4880895 147.8750505
  47.9396371 106.9501717 154.9577509  47.1264237 107.2495888 155.3642701
  48.4355365 106.5557406 155.6751991  50.0904949 116.9459474 156.8911774
  50.0481128 117.1720320 155.9620306  51.0067648 116.7122849 157.0397575
  53.5370583 107.4143542 163.7892403  53.8919971 107.6415015 164.6486869
  54.1842714 107.7461918 163.1669658  59.2668320 110.5361978 154.4941732
  59.1286218 110.7263574 153.5662921  58.9104539 111.2981360 154.9509783
  47.4310446 104.5220073 160.5738744  48.0709825 104.3808832 159.8761707
  46.5987976 104.2354586 160.1977346  59.2937699 112.6038505 159.5053003
  59.7274206 112.5113794 160.3536057  60.0069280 112.5796005 158.8673019
  48.2070750 113.8222503 156.6873736  49.0011348 113.3272823 156.4856311
  47.4962442 113.2940366 156.3241442  53.0265594 116.2040599 161.0386104
  53.0802617 116.7731535 161.8063820  52.1580376 116.3742484 160.6740141
  44.5153513 107.9665585 152.7633489  43.5851101 107.9050040 152.9803451
  44.6110985 107.4441538 151.9670130  44.4339062 104.4920398 155.3511731
  44.6945880 105.4065731 155.2420891  45.2556235 104.0244840 155.5008344
  45.9063988 105.9058155 162.5210555  46.5787041 105.6975517 161.8723204
  45.0793774 105.7080241 162.0815788  51.8089560 102.5320096 164.5376216
  51.1617475 103.2310045 164.4440693  52.5790575 102.9656240 164.9052464
  51.9853694 110.3700861 162.5973036  52.9145754 110.5212020 162.4242003
  51.5644724 110.4584882 161.7421682  50.7842026 114.3951525 160.3671573
  50.6453112 114.0270310 161.2397512  49.9956622 114.9099165 160.1955531
  51.3790178 119.4960622 151.7097110  51.5541933 119.0248665 152.5242733
  50.6922966 120.1226388 151.9378371  52.3347241 113.7733128 157.7560411
  51.9997074 113.7333898 158.6518061  51.8351187 113.1077844 157.2830821
  55.2706433 111.1189162 148.0297471  54.6535603 110.3935990 147.9330524
  54.8022921 111.8798522 147.6864545  48.9373786 108.8920717 162.7696672
  49.6473404 108.2513909 162.7283290  48.8943094 109.1433612 163.6922853
  47.6502720 105.8785935 164.5892312  47.1140077 105.4276674 165.2413908
  47.0619428 106.0131844 163.8462776  47.0604979 105.3374586 147.1518775
  46.1834445 105.2163387 146.7881022  47.5362732 104.5460665 146.8997664
  50.2468905 117.6900877 154.3981296  49.4636426 118.2322557 154.4919520
  50.9461650 118.2074856 154.7975537  53.5565555 103.4995506 157.0415501
  54.0534254 102.7465469 156.7216571  52.7852536 103.5359823 156.4758710
  61.4095312 109.2035872 158.6833793  61.3985188 110.0860587 158.3127726
  60.5412692 108.8507423 158.4888330  54.6395335 112.2567194 154.6153924
  53.7051614 112.3768656 154.4458629  54.8172004 111.3539660 154.3513934
  50.1400523 105.6412889 156.7687186  49.7698311 105.0883930 157.4568091
  50.6359616 105.0371023 156.2162186  58.0267887 108.0984513 155.1503959
  58.4928339 108.9312504 155.0764261  58.4775387 107.6329494 155.8549217
  56.0944118 114.4428334 152.1490111  56.3703962 114.3284929 153.0583985
  55.2248617 114.0445819 152.1102284  55.9984549 100.4665100 159.1894860
  55.0847629 100.6969327 159.3577067  56.4277651 100.5503544 160.0408892
  55.7691008 108.6554992 161.6894754  55.1162458 108.9030899 161.0347207
  56.1471388 107.8419130 161.3557231  52.7298182 118.6914685 155.7922924
  52.9120576 117.8736341 156.2550677  53.5531168 118.9082377 155.3547814
  53.0640347 117.6182870 153.0537973  53.5928114 117.1075325 152.4408135
  53.3268567 117.3025400 153.9183506  46.4196095 118.6697987 155.8135749
  45.7506471 119.1544114 155.3299789  46.2808965 118.9167207 156.7279127
  45.5365857 103.0516880 163.0140292  45.6007184 103.9131711 162.6017689
  45.4732977 102.4390882 162.2812650  41.7883672 106.9316442 152.5931681
  42.0837113 106.0227120 152.5398735  40.8871708 106.9104181 152.2712683
  53.6969751 118.6523706 159.3982089  53.5720891 117.8513446 158.8893035
  54.3548842 119.1469899 158.9096059  45.3177919 105.0072438 158.5759229
  44.5964505 105.6208406 158.4366703  46.1071175 105.5430203 158.4975875
  55.7604660 116.4532726 161.0261639  54.8134995 116.3338077 160.9539966
  56.1087433 115.5655224 161.1087901  48.1204233 102.3426865 164.8499881
  48.6438635 102.5889161 165.6126190  47.9016566 103.1746900 164.4303019
  43.5171514 104.6130539 152.7171006  43.1884220 103.7327918 152.5346112
  43.8710885 104.5578208 153.6047395  52.7651093 116.2485442 157.2265992
  52.6176055 115.3202150 157.4073562  53.5904586 116.2705533 156.7423067
  46.6313337 104.9003509 153.0846484  46.9709410 105.4289430 152.3625092
  47.0785458 105.2383915 153.8605050  56.3685215 117.0714001 158.3130864
  57.2931762 116.8656862 158.1755315  56.2000518 116.8230402 159.2220206
  49.3256778 103.2840560 162.5349552  48.9853598 102.4848373 162.9370232
  48.6195784 103.5842271 161.9626385  49.9773250 100.3689872 160.9876875
  50.7999319  99.8950351 160.8655765  50.2211313 101.1480356 161.4875561
  48.6181484 103.3978131 151.2839776  49.3389847 103.7759384 150.7803493
  47.9946788 104.1167008 151.3874754  52.7612607 104.1023280 152.2198109
  52.9776222 104.9847918 151.9186937  52.2806674 103.7109493 151.4903751
  47.5011829 107.0608993 158.7968853  47.3556409 107.3749296 159.6893135
  47.0237032 107.6793893 158.2439752  49.3608211 104.0511541 158.8449743
  49.3469780 103.1552634 158.5082041  50.0780640 104.0582205 159.4788029
  51.2134342 104.4848881 160.8902870  50.9552120 105.4065952 160.8887201
  50.6819382 104.0879316 161.5803334  56.1580531 117.5899668 153.6692956
  56.3317408 117.0246091 152.9166808  56.6509422 118.3900563 153.4872446
  48.7645107 102.9325921 154.1137313  48.8861019 102.0042567 154.3128201
  48.4747150 102.9464607 153.2015628  51.6336298 100.6180832 157.2504033
  51.6557995 100.6820165 156.2956012  52.0504357  99.7785340 157.4444539
  62.0119922 110.3536091 155.2883255  62.4551068 109.6043416 154.8902379
  61.1346432 110.3446228 154.9056987  57.1455703 116.9066433 150.7689854
  57.8406608 117.5273125 150.9877169  57.4878853 116.0561784 151.0442232
  59.0447126 114.3566138 152.2977185  59.5698451 114.6953411 151.5726505
  58.9569479 113.4213154 152.1140319  50.7287787 120.4238121 156.6572438
  50.2892778 119.9314500 157.3505295  51.4795904 119.8811089 156.4164513
  48.1761659 115.9676131 158.7294740  47.5541669 115.3046836 158.4296967
  48.8466526 115.9937262 158.0468387  47.7375166 114.5180054 152.2053200
  47.8863287 115.2015518 151.5519873  48.5441610 114.4985144 152.7202656
  50.4785475 105.1989291 165.0773604  49.6088785 105.4922857 164.8056193
  50.7144956 105.7829736 165.7980868  61.5552787 111.8241330 157.6805703
  62.3899678 112.2631134 157.8443263  61.6911916 111.3479983 156.8613949
  58.6044293 109.3821064 163.6283191  59.0798414 109.5748711 162.8202042
  57.6809858 109.4380250 163.3826574  45.4927799 110.5445232 153.2114269
  45.2473841 109.6407562 153.4094479  45.6623714 110.5462382 152.2693747
  53.1824509 101.4168908 162.5939025  53.7006453 102.1529935 162.2685513
  52.8279642 101.7232901 163.4285784  44.7623447 106.2773589 150.7100431
  44.0692692 106.3517944 150.0540467  44.5175199 105.5133933 151.2321947
  53.4337103  97.8369190 158.1139921  53.7138857  97.1692380 158.7400348
  54.2187710  98.0298286 157.6014585  51.2370572 117.0128184 149.6764948
  50.6644539 117.6318372 149.2235419  51.8103365 117.5627546 150.2104870
  57.3045962 106.2586824 161.8611496  58.2563385 106.3584922 161.8823720
  57.1349412 105.4665093 162.3709581  55.3260341 103.3442408 162.0470897
  54.7310273 103.6247420 161.3517386  55.0410038 103.8336309 162.8187638
  54.4567832 117.2965335 150.8073530  55.3898505 117.2310896 151.0106405
  54.3691044 118.1321601 150.3488063  57.0855848 116.6131205 147.7677477
  57.0069480 116.2791068 148.6613235  57.9065515 117.1052973 147.7668950
  59.7834039 109.4792944 160.9753796  59.7510360 108.5408945 161.1613480
  60.3934663 109.5576981 160.2419621  51.6217370 108.3488997 147.0181000
  52.5676475 108.2195205 147.0869418  51.2431615 107.6103659 147.4950428
  59.9328528 106.2703988 161.0212079  59.4167577 105.4862444 160.8342008
  60.8168476 105.9422704 161.1858599  57.5939255 100.0145003 156.9807892
  57.3964076  99.7060091 157.8651224  58.2038960 100.7406642 157.1105822
  65.6010589 110.5408951 160.1159833  66.3313978 110.2794239 160.6767536
  64.9917535 109.8037673 160.1561901  63.6825886 108.6816814 160.7134284
  62.9559050 108.5472779 160.1050776  63.2673173 108.9893642 161.5191002
  49.8060287 106.2738974 146.9535885  48.8991743 105.9772086 147.0298599
  50.0836268 105.9768792 146.0870172  40.7238228 107.5945337 157.4034932
  40.4041012 106.7410645 157.1109306  40.1771656 107.8093915 158.1592899
  51.4222353 100.8175863 153.1080127  50.6123082 100.4722948 153.4835373
  52.1106770 100.5083407 153.6967738  53.3512901  99.8953910 154.7304423
  53.9043940 100.3149363 155.3894446  53.5882988  98.9689658 154.7727379
  48.5759072 103.1325909 147.0947865  49.4378236 103.4580807 147.3543682
  48.7609416 102.3457405 146.5820930  56.7291709 102.0054435 154.2383088
  56.1490378 102.6639239 153.8561140  56.4627641 101.1831780 153.8270505
  55.1795275 101.4059493 156.4404408  55.6795053 101.5176027 155.6318727
  55.8230883 101.1020546 157.0805216  42.5063230 111.1466502 157.2494068
  42.4833918 111.2454189 156.2975951  42.8163867 111.9931653 157.5711234
  55.5116587 104.1654526 153.2939436  54.6242442 104.4504176 153.0759631
  55.9270576 104.0048289 152.4466713  58.8631123 104.1901047 157.0093775
  59.6391513 104.6797499 157.2818392  58.1379257 104.6159101 157.4665645
  61.3003681 104.9028666 158.0667716  61.8948172 104.6624402 157.3561024
  61.3730265 104.1835796 158.6941252  54.6559800 113.9299200 147.3887456
  55.3595650 114.1349203 148.0045111  53.9322449 114.4975962 147.6536539
  55.4857610 109.6809062 153.5089726  55.4292812 110.1377613 152.6697358
  56.0385953 108.9199746 153.3312569  59.2962416 105.4698793 154.3339845
  59.0399350 105.0695429 155.1648053  58.6715284 106.1842587 154.2089985
  63.6074754 108.2094867 156.8411137  63.0474312 108.2788056 157.6142699
  63.0018257 108.0335851 156.1210633  56.5646497 114.3681729 149.4385916
  57.3992101 113.9362928 149.2563391  56.4030840 114.1963743 150.3662810
  56.2192390 110.8713843 150.8042255  56.1641193 110.7058114 149.8630699
  55.5938445 111.5789876 150.9604445  49.5288515 100.3721952 150.3827574
  49.5167185 101.3163792 150.5395844  50.4211937 100.1892097 150.0887035
  49.4578079 119.0490842 158.4695330  48.5073710 119.0492704 158.3559702
  49.7610565 118.3023577 157.9531365  53.3440635  96.9664728 154.6373510
  52.5773030  96.4123215 154.7830193  53.7551340  97.0386597 155.4987662
  57.3662480 127.4474390 151.1701107  58.1393356 126.9003377 151.0313983
  57.7187879 128.3118639 151.3815569  59.7028758 123.6067056 148.8019557
  59.9554279 123.0848577 148.0403020  58.7653317 123.4433201 148.9046241
  59.4225047 125.5095162 151.0043932  59.3061305 124.8340065 151.6725017
  59.5327307 125.0227536 150.1876085  61.4062075 119.9995209 149.7051970
  61.5736477 120.8675445 150.0722441  61.2159244 120.1622490 148.7813259
  61.3851296 122.4552866 150.6898637  61.2650921 122.9009917 151.5284117
  60.6903884 122.8038184 150.1312175  67.0836362 122.9274339 151.5178971
  67.9954218 123.1601726 151.3426668  66.5746009 123.5111384 150.9554050
  60.1802792 123.7697718 152.9832203  60.8826835 124.2218762 153.4506129
  59.8483421 123.1281537 153.6112096  53.9228126 122.0281271 158.2849336
  53.1327180 122.2838800 157.8089447  54.4139373 122.8429609 158.3901377
  55.8742871 122.3925850 155.2432813  55.0774035 122.5044545 155.7616309
  55.6468464 122.7312503 154.3773703  54.8725954 128.1014099 153.6322233
  55.3850475 128.8957349 153.7827798  55.5248667 127.4040389 153.5655834
  52.8374871 126.4302753 154.4081803  53.6750093 126.8399762 154.1915511
  53.0153139 125.4902196 154.3781997  64.7339303 124.0977834 150.0965636
  64.2185926 124.8682439 150.3354024  64.4616611 123.4242970 150.7198698
  62.3186414 118.9427535 155.1550875  61.4628010 118.5534385 154.9756514
  62.7313366 119.0219496 154.2950660  60.0928447 116.5612608 158.5608616
  60.9581443 116.3655416 158.2014506  60.1605956 116.3322960 159.4877973
  64.5225606 121.9704926 151.9225418  64.2175742 122.2851075 152.7735561
  65.4756048 122.0486346 151.9652751  57.6990766 118.7914816 155.9324983
  58.2734518 118.5689997 155.1998176  58.2861748 118.8603510 156.6853584
  58.0260353 120.8219277 149.9520868  57.1897665 121.1593963 150.2730143
  57.8865122 120.6868257 149.0148005  60.0013433 115.6656065 154.6600053
  59.3477846 115.3505082 154.0356667  59.9593908 115.0431805 155.3859875
  61.1124638 125.9475360 146.5753345  60.2051700 125.7164613 146.7744494
  61.6095670 125.1512979 146.7627326  62.2912872 126.0487955 151.0977335
  61.3824091 125.7646987 151.1949804  62.3207955 126.4687033 150.2380642
  66.5676686 113.3662782 156.6910939  66.8735563 112.5060146 156.4036854
  67.2929291 113.9580402 156.4909933  52.8601042 123.7693469 155.0792537
  52.6625442 123.1762829 154.3543604  52.3047706 123.4645679 155.7968476
  61.9888959 127.5896698 148.4365413  61.5508389 126.8732557 147.9771051
  62.7299400 127.8172813 147.8750505  58.7790126 122.2793635 154.9577509
  57.9657991 122.5787805 155.3642701  59.2749120 121.8849324 155.6751991
  55.3547268 123.2957503 152.7633489  54.4244856 123.2341958 152.9803451
  55.4504740 122.7733455 151.9670130  55.2732817 119.8212315 155.3511731
  55.5339634 120.7357649 155.2420891  56.0949989 119.3536758 155.5008344
  66.1100187 126.4481080 148.0297471  65.4929358 125.7227908 147.9330524
  65.6416676 127.2090440 147.6864545  57.8998733 120.6666504 147.1518775
  57.0228199 120.5455305 146.7881022  58.3756486 119.8752582 146.8997664
  64.3959309 118.8287424 157.0415501  64.8928009 118.0757386 156.7216571
  63.6246291 118.8651741 156.4758710  60.9794278 120.9704807 156.7687186
  60.6092065 120.4175847 157.4568091  61.4753370 120.3662940 156.2162186
  52.6277427 122.2608359 152.5931681  52.9230868 121.3519038 152.5398735
  51.7265463 122.2396099 152.2712683  56.1571674 120.3364356 158.5759229
  55.4358260 120.9500324 158.4366703  56.9464930 120.8722121 158.4975875
  54.3565268 119.9422457 152.7171006  54.0277975 119.0619836 152.5346112
  54.7104639 119.8870126 153.6047395  57.4707092 120.2295427 153.0846484
  57.8103164 120.7581348 152.3625092  57.9179212 120.5675833 153.8605050
  59.4575239 118.7270048 151.2839776  60.1783601 119.1051301 150.7803493
  58.8340543 119.4458925 151.3874754  63.6006362 119.4315197 152.2198109
  63.8169976 120.3139835 151.9186937  63.1200429 119.0401411 151.4903751
  59.6038862 118.2617839 154.1137313  59.7254773 117.3334485 154.3128201
  59.3140904 118.2756525 153.2015628  62.4730052 115.9472749 157.2504033
  62.4951749 116.0112082 156.2956012  62.8898111 115.1077258 157.4444539
  58.5768921 129.8471972 152.2053200  58.7257041 130.5307436 151.5519873
  59.3835364 129.8277062 152.7202656  56.3321554 125.8737149 153.2114269
  56.0867596 124.9699479 153.4094479  56.5017468 125.8754300 152.2693747
  55.6017201 121.6065507 150.7100431  54.9086446 121.6809862 150.0540467
  55.3568953 120.8425850 151.2321947  64.2730858 113.1661108 158.1139921
  64.5532612 112.4984297 158.7400348  65.0581465 113.3590204 157.6014585
  62.4611125 123.6780915 147.0181000  63.4070230 123.5487123 147.0869418
  62.0825370 122.9395577 147.4950428  60.6454042 121.6030891 146.9535885
  59.7385497 121.3064004 147.0298599  60.9230023 121.3060709 146.0870172
  51.5631982 122.9237255 157.4034932  51.2434767 122.0702563 157.1109306
  51.0165411 123.1385833 158.1592899  62.2616108 116.1467781 153.1080127
  61.4516836 115.8014866 153.4835373  62.9500525 115.8375325 153.6967738
  64.1906656 115.2245828 154.7304423  64.7437695 115.6441281 155.3894446
  64.4276742 114.2981576 154.7727379  59.4152827 118.4617826 147.0947865
  60.2771991 118.7872725 147.3543682  59.6003171 117.6749322 146.5820930
  67.5685463 117.3346353 154.2383088  66.9884132 117.9931157 153.8561140
  67.3021396 116.5123697 153.8270505  66.0189029 116.7351411 156.4404408
  66.5188808 116.8467945 155.6318727  66.6624637 116.4312463 157.0805216
  66.3510341 119.4946443 153.2939436  65.4636196 119.7796094 153.0759631
  66.7664330 119.3340207 152.4466713  65.4953555 129.2591118 147.3887456
  66.1989405 129.4641120 148.0045111  64.7716203 129.8267880 147.6536539
  67.0586144 126.2005760 150.8042255  67.0034948 126.0350032 149.8630699
  66.4332199 126.9081793 150.9604445  60.3682270 115.7013869 150.3827574
  60.3560939 116.6455709 150.5395844  61.2605691 115.5184015 150.0887035
  64.1834389 112.2956646 154.6373510  63.4166785 111.7415133 154.7830193
  64.5945094 112.3678515 155.4987662  30.9225591  61.3771622 137.4959280
  30.2713571  61.9625703 137.1093294  31.7169954  61.9077817 137.5554317
  24.8481218  58.4660759 137.8946414  25.6212094  57.9189747 137.7559290
  25.2006617  59.3305009 138.1060875  27.1847496  54.6253426 135.5264864
  27.4373017  54.1034947 134.7648327  26.2472055  54.4619571 135.6291548
  32.4000856  59.0662054 138.0328264  31.7646689  59.1396681 138.7449169
  32.0698263  59.6555653 137.3547343  26.9043785  56.5281532 137.7289239
  26.7880043  55.8526435 138.3970323  27.0146045  56.0413905 136.9121392
  28.8880813  51.0181578 136.4297277  29.0555215  51.8861815 136.7967748
  28.6977982  51.1808860 135.5058566  28.8670034  53.4739236 137.4143944
  28.7469659  53.9196287 138.2529424  28.1722622  53.8224554 136.8557482
  26.6276926  66.2442878 141.0634075  26.5500955  67.1950703 141.1422555
  26.0238569  65.8988750 141.7209001  34.5655100  53.9460709 138.2424278
  35.4772956  54.1788096 138.0671975  34.0564747  54.5297753 137.6799356
  37.0513914  59.8640965 142.9882223  36.3664952  60.2439867 142.4379256
  37.1357763  60.4736292 143.7214171  43.5116666  56.7311628 144.1084895
  42.7580375  56.1619026 143.9528900  43.6464208  56.6974293 145.0555530
  28.9015295  61.6025031 139.7839614  28.7660969  62.4476566 140.2124462
  29.4425107  61.8044308 139.0205548  32.2158041  55.1164204 136.8210943
  31.7004664  55.8868808 137.0599330  31.9435349  54.4429340 137.4444005
  37.1892315  57.8696558 138.7564117  36.4121758  57.5307718 138.3119279
  37.8683796  57.8749181 138.0819082  32.0044344  52.9891296 138.6470724
  31.6994480  53.3037445 139.4980867  32.9574786  53.0672716 138.6898057
  30.4490776  59.1481519 140.2963678  29.9212137  58.4134279 139.9836916
  29.9478279  59.9256195 140.0503647  28.5943376  56.9661729 133.2998651
  27.6870438  56.7350983 133.4989800  29.0914408  56.1699348 133.4872633
  31.5011455  65.6759236 136.2195337  30.8273154  65.9790933 136.8280295
  31.8877277  66.4788317 135.8700794  29.7731609  57.0674324 137.8222641
  28.8642829  56.7833357 137.9195111  29.8026693  57.4873403 136.9625948
  35.0050877  60.6780914 141.5913809  34.5513204  59.8371823 141.6478999
  34.3744844  61.3142312 141.9288589  33.4483816  62.5157410 142.5263627
  33.7406791  63.0762467 141.8075993  33.9582437  62.8085971 143.2816786
  29.4707697  58.6083068 135.1610720  29.0327127  57.8918927 134.7016357
  30.2118138  58.8359183 134.5995811  28.4117441  63.2937761 143.6157080
  28.3693620  63.5198608 142.6865612  29.3280140  63.0601136 143.7642881
  37.5880812  56.8840265 141.2187038  37.4498711  57.0741861 140.2908228
  37.2317031  57.6459648 141.6755090  29.7002670  65.8438909 138.4342417
  29.8754426  65.3726952 139.2488039  29.0135458  66.4704675 138.6623677
  33.5918925  57.4667449 134.7542778  32.9748096  56.7414278 134.6575830
  33.1235413  58.2276810 134.4109852  24.2663755  68.9928272 145.2082277
  24.5060354  69.6246796 145.8861295  23.4232952  68.6416312 145.4947636
  25.3817471  51.6852874 133.8764082  24.5046937  51.5641675 133.5126328
  25.8575224  50.8938952 133.6242970  28.5681397  64.0379164 141.1226602
  27.7848919  64.5800844 141.2164827  29.2674142  64.5553144 141.5220843
  32.9607828  58.6045481 141.3399231  32.0264106  58.7246943 141.1703935
  33.1384496  57.7017948 141.0759241  36.3480379  54.4462800 141.8749265
  36.8140831  55.2790792 141.8009568  36.7987879  53.9807782 142.5794524
  34.4156610  60.7906621 138.8735417  34.6916454  60.6763216 139.7829291
  33.5461109  60.3924106 138.8347590  31.0510674  65.0392972 142.5168231
  31.2333069  64.2214628 142.9795983  31.8743660  65.2560664 142.0793121
  31.3852840  63.9661157 139.7783279  31.9140606  63.4553612 139.1653441
  31.6481059  63.6503688 140.6428812  24.7408588  65.0176274 142.5381055
  24.0718963  65.5022402 142.0545095  24.6021457  65.2645494 143.4524434
  32.0182243  65.0001993 146.1227396  31.8933383  64.1991733 145.6138341
  32.6761335  65.4948186 145.6341366  31.0863585  62.5963729 143.9511298
  30.9388548  61.6680437 144.1318868  31.9117079  62.6183820 143.4668373
  34.6897707  63.4192288 145.0376171  35.6144254  63.2135149 144.9000622
  34.5213010  63.1708689 145.9465512  34.4793023  63.9377956 140.3938262
  34.6529901  63.3724378 139.6412115  34.9721914  64.7378850 140.2117752
  40.3332414  56.7014378 142.0128562  40.7763560  55.9521704 141.6147685
  39.4558925  56.6924515 141.6302294  35.4668196  63.2544720 137.4935161
  36.1619100  63.8751413 137.7122475  35.8091346  62.4040071 137.7687539
  37.3659619  60.7044425 139.0222491  37.8910943  61.0431698 138.2971811
  37.2781971  59.7691441 138.8385626  29.0500280  66.7716409 143.3817745
  28.6105270  66.2792787 144.0750601  29.8008396  66.2289376 143.1409820
  26.0587659  60.8658341 138.9298507  26.2075779  61.5493806 138.2765180
  26.8654102  60.8463431 139.4447963  39.8765279  58.1719617 144.4051010
  40.7112170  58.6109421 144.5688570  40.0124408  57.6958270 143.5859255
  29.5583064  63.3606472 136.4010254  28.9857031  63.9796659 135.9480726
  30.1315858  63.9105833 136.9350176  32.7780324  63.6443622 137.5318836
  33.7110997  63.5789183 137.7351712  32.6903537  64.4799889 137.0733369
  35.4068341  62.9609492 134.4922784  35.3281972  62.6269356 135.3858542
  36.2278007  63.4531260 134.4914256  29.9429863  54.6967284 133.7426307
  30.8888967  54.5673492 133.8114725  29.5644108  53.9581946 134.2195735
  28.1272780  52.6217261 133.6781192  27.2204235  52.3250373 133.7543906
  28.4048761  52.3247079 132.8115478  26.8971564  49.4804196 133.8193171
  27.7590728  49.8059094 134.0788988  27.0821909  48.6935692 133.3066237
  32.9772292  60.2777487 134.1132762  33.6808142  60.4827490 134.7290418
  32.2534941  60.8454249 134.3781846  33.8070103  56.0287349 140.2335033
  33.7505304  56.4855900 139.3942665  34.3598445  55.2678033 140.0557875
  41.9287246  54.5573154 143.5656443  41.3686804  54.6266343 144.3388006
  41.3230750  54.3814138 142.8455940  34.8858990  60.7160017 136.1631222
  35.7204594  60.2841215 135.9808697  34.7243333  60.5442030 137.0908117
  34.5404882  57.2192130 137.5287562  34.4853686  57.0536401 136.5876006
  33.9150937  57.9268163 137.6849751  27.7790571  65.3969129 145.1940637
  26.8286202  65.3970991 145.0805009  28.0823057  64.6501864 144.6776671
  43.5143265  71.2329668 146.2586399  44.1521675  71.1136415 145.5549739
  43.3964108  72.1810512 146.3174351  40.3232971  71.1857096 146.1947924
  39.9851483  71.0698161 145.3068459  41.1922739  70.7848261 146.1748930
  36.1819787  73.0392572 142.1844815  35.6184652  72.9482509 141.4161103
  36.0672182  72.2192477 142.6647307  40.8052754  72.3391948 152.1534129
  40.7941395  71.9444746 151.2814633  40.9673394  71.6058020 152.7467901
  33.7284219  74.5343764 145.0229035  34.5205511  74.1934589 144.6075335
  33.9680869  74.6438739 145.9431189  41.7619346  76.7063540 137.4959280
  41.1107325  77.2917620 137.1093294  42.5563708  77.2369735 137.5554317
  35.6874973  73.7952677 137.8946414  36.4605849  73.2481664 137.7559290
  36.0400372  74.6596926 138.1060875  37.5260015  75.1229059 151.1013313
  37.2349881  76.0274690 150.9859980  38.1617000  75.1645587 151.8157383
  38.4516222  72.5005908 147.6914673  39.0479794  72.2761930 146.9771636
  38.5091194  71.7590653 148.2940121  38.0241251  69.9545343 135.5264864
  38.2766771  69.4326865 134.7648327  37.0865810  69.7911489 135.6291548
  43.0684533  68.9581122 143.3339607  43.8547623  68.5400545 142.9830024
  43.3323238  69.8627214 143.5021256  43.2394611  74.3953972 138.0328264
  42.6040444  74.4688598 138.7449169  42.9092017  74.9847571 137.3547343
  48.4692960  68.8956355 144.2372586  49.2018132  68.3255572 144.4710415
  47.7132316  68.5077955 144.6779091  37.7437539  71.8573449 137.7289239
  37.6273797  71.1818353 138.3970323  37.8539799  71.3705823 136.9121392
  40.0869080  71.3183596 141.4335928  39.7227287  70.7914217 142.1448850
  40.9436196  70.9282065 141.2602414  45.9918381  62.6077929 148.6967194
  45.6601706  63.4773340 148.4728409  45.3963994  62.2914213 149.3761225
  39.7274567  66.3473496 136.4297277  39.8948969  67.2153732 136.7967748
  39.5371736  66.5100778 135.5058566  42.4849900  74.8090475 148.0963107
  42.1850623  75.7115514 147.9878914  42.1400960  74.5422658 148.9484260
  35.9362382  71.2604272 144.1299811  35.0112878  71.1280486 144.3377503
  36.1846795  72.0398491 144.6269754  45.8847044  67.3273015 145.7760544
  44.9763921  67.2588424 145.4819305  45.8334640  67.8044960 146.6042370
  39.7063788  68.8031154 137.4143944  39.5863413  69.2488204 138.2529424
  39.0116376  69.1516471 136.8557482  33.2971193  70.9037545 144.9643601
  33.4263574  71.1572024 145.8783012  32.6168644  71.4965253 144.6448256
  37.4670680  81.5734795 141.0634075  37.3894710  82.5242620 141.1422555
  36.8632324  81.2280668 141.7209001  47.7508691  65.5289454 147.5538418
  47.1083071  65.8221987 146.9078213  47.2463619  65.4142374 148.3591615
  45.4048854  69.2752627 138.2424278  46.3166710  69.5080013 138.0671975
  44.8958501  69.8589671 137.6799356  38.2134282  71.5548114 153.2813409
  38.9548967  72.0933158 153.0048232  37.5071268  72.1814403 153.4384960
  43.6889622  73.6977255 151.8785570  44.0972978  73.2559665 151.1340203
  42.9666883  73.1229882 152.1319763  40.0420692  68.6349861 149.2519127
  40.8881887  69.0589275 149.3953776  39.9819330  67.9783486 149.9457690
  44.0118436  74.2578445 145.6337859  43.3827299  74.4224159 144.9313927
  43.6244099  74.6720055 146.4048823  47.8907668  75.1932883 142.9882223
  47.2058707  75.5731784 142.4379256  47.9751518  75.8028210 143.7214171
  43.1920137  66.2954230 150.9100301  42.9481069  67.0496290 150.3734576
  43.4680068  66.6739577 151.7447548  45.1458600  72.8392842 149.5877566
  45.3575495  73.4824602 148.9111947  45.0988348  72.0055159 149.1199496
  42.7484829  65.4510663 146.4914138  41.8869308  65.7491916 146.7830876
  42.7747264  65.6681062 145.5595171  39.5646398  73.9952853 142.8987944
  40.0284744  74.2740556 142.1092567  39.3003196  73.0936298 142.7161035
  36.4570479  73.5424335 145.8367707  37.0271836  73.9711603 145.1985192
  37.0478591  73.2606919 146.5351893  38.5015284  70.1176006 139.7077509
  39.2039328  70.5697049 140.1751436  38.1695913  69.4759824 140.3357402
  32.2440618  68.3759558 145.0094643  31.4539672  68.6317087 144.5334753
  32.7351866  69.1907896 145.1146683  46.2604428  75.7164797 147.7599924
  47.0821872  75.3144985 147.4782605  46.2566831  75.6133032 148.7116039
  34.1955364  68.7404138 141.9678120  33.3986527  68.8522832 142.4861615
  33.9680956  69.0790790 141.1019010  40.0261031  75.2648841 149.9160634
  40.0905464  75.7269248 150.7518806  39.3171955  74.6346206 150.0442944
  30.5278321  68.6290049 147.4409634  30.7786360  69.5137059 147.7067210
  31.0637870  68.4494650 146.6684725  54.3510421  72.0603546 144.1084895
  53.5974129  71.4910944 143.9528900  54.4857962  72.0266210 145.0555530
  39.7409049  76.9316948 139.7839614  39.6054724  77.7768484 140.2124462
  40.2818862  77.1336226 139.0205548  33.1938446  74.4492386 140.3567540
  33.7062967  75.2435637 140.5073104  33.8461159  73.7518677 140.2901141
  35.0033331  77.5658143 142.4390293  35.1799959  78.4876107 142.2511277
  35.7990165  77.2516562 142.8684673  41.3677525  77.5540515 153.9139957
  40.9241380  76.7676893 153.5960861  42.0294739  77.7419665 153.2483847
  36.1264647  79.0836316 148.4400635  36.6772072  78.9553380 147.6677629
  35.2876122  79.3831205 148.0895528  43.4658763  77.8343315 151.9421358
  43.4477239  78.6552196 151.4501627  44.3878684  77.7097390 152.1671499
  39.9231818  75.3487444 152.7844866  40.4560154  74.5875732 152.5544174
  39.3945899  75.0561096 153.5269021  43.0901513  60.4547510 148.3138508
  42.7465782  61.3449152 148.2377619  43.4580475  60.2649168 147.4508093
  31.1587363  72.7781041 141.1327110  31.9962585  73.1878049 140.9160818
  31.3365631  71.8380483 141.1027304  43.0551795  70.4456121 136.8210943
  42.5398419  71.2160726 137.0599330  42.7829104  69.7721257 137.4444005
  40.6398906  65.2905822 141.8796181  39.7840503  64.9012672 141.7001820
  41.0525858  65.3697783 141.0195967  42.1698053  62.8252165 146.2787741
  41.6662849  62.7882300 145.4655546  42.4628660  63.7344908 146.3384398
  38.4140939  62.9090895 145.2853923  39.2793936  62.7133704 144.9259812
  38.4818448  62.6801247 146.2123280  48.0286069  73.1988476 138.7564117
  47.2515512  72.8599635 138.3119279  48.7077550  73.2041099 138.0819082
  42.8438098  68.3183213 138.6470724  42.5388234  68.6329363 139.4980867
  43.7968541  68.3964633 138.6898057  41.2884530  74.4773437 140.2963678
  40.7605892  73.7426196 139.9836916  40.7872033  75.2548113 140.0503647
  46.2677376  72.6722457 145.4130725  45.6101051  73.3621719 145.5010853
  47.0717776  73.0618889 145.7564711  36.0203258  65.1393103 142.6570290
  36.5947010  64.9168284 141.9243483  36.6074240  65.2081797 143.4098891
  45.0782835  71.0266830 143.4634666  45.5914717  71.6596822 143.9656376
  45.7284059  70.4268025 143.0978026  36.3472845  67.1697564 136.6766175
  35.5110157  67.5072250 136.9975450  36.2077615  67.0346544 135.7393312
  38.3225926  62.0134352 141.3845359  37.6690338  61.6983369 140.7601974
  38.2806400  61.3910092 142.1105182  39.4337131  72.2953647 133.2998651
  38.5264192  72.0642900 133.4989800  39.9308163  71.4991266 133.4872633
  42.3405209  81.0051154 136.2195337  41.6666908  81.3082851 136.8280295
  42.7271031  81.8080234 135.8700794  41.5563666  68.5016285 145.7093007
  40.6386227  68.7231232 145.5514695  41.9723810  68.5762596 144.8504714
  42.3398714  69.9007701 140.8395687  43.0870533  70.4129098 140.5302809
  42.6090303  69.5791754 141.7000081  40.6125364  72.3966242 137.8222641
  39.7036583  72.1125275 137.9195111  40.6420448  72.8165320 136.9625948
  45.8444631  76.0072831 141.5913809  45.3906958  75.1663741 141.6478999
  45.2138598  76.6434230 141.9288589  44.7877551  66.9364817 142.8214476
  44.0500308  66.4242204 143.1524719  45.0404324  66.4965199 142.0097753
  44.2877571  77.8449328 142.5263627  44.5800545  78.4054385 141.8075993
  44.7976191  78.1377889 143.2816786  44.8889178  59.7141069 143.4156246
  45.1948055  58.8538433 143.1282161  45.6141783  60.3058690 143.2155240
  31.1813534  70.1171756 141.8037844  30.9837934  69.5241117 141.0788910
  30.6260198  69.8123966 142.5213782  39.1610258  70.0094862 143.9232437
  39.2158868  69.0568699 143.8474913  38.3501460  70.1654301 144.4073735
  40.3101452  73.9374985 135.1610720  39.8720882  73.2210844 134.7016357
  41.0511893  74.1651100 134.5995811  37.1002618  68.6271922 141.6822816
  36.2870483  68.9266093 142.0888008  37.5961612  68.2327611 142.3997298
  39.2511196  78.6229679 143.6157080  39.2087375  78.8490525 142.6865612
  40.1673895  78.3893054 143.7642881  42.6976830  69.0913747 150.5137709
  43.0526217  69.3185220 151.3732175  43.3448961  69.4232123 149.8914965
  48.4274567  72.2132182 141.2187038  48.2892465  72.4033778 140.2908228
  48.0710785  72.9751565 141.6755090  36.5916693  66.1990278 147.2984051
  37.2316072  66.0579037 146.6007014  35.7594223  65.9124791 146.9222653
  48.4543946  74.2808709 146.2298310  48.8880453  74.1883999 147.0781364
  49.1675527  74.2566210 145.5918326  37.3676997  75.4992708 143.4119043
  38.1617595  75.0043028 143.2101618  36.6568689  74.9710571 143.0486749
  42.1871841  77.8810804 147.7631411  42.2408863  78.4501740 148.5309127
  41.3186622  78.0512689 147.3985448  33.6759760  69.6435790 139.4878796
  32.7457348  69.5820245 139.7048758  33.7717232  69.1211743 138.6915437
  33.5945309  66.1690603 142.0757037  33.8552126  67.0835936 141.9666198
  34.4162481  65.7015045 142.2253650  35.0670234  67.5828360 149.2455862
  35.7393288  67.3745722 148.5968511  34.2400021  67.3850446 148.8061094
  49.3159496  74.3232410 148.7631195  49.5095386  75.2278221 149.0090470
  49.2160114  73.8639829 149.5969780  44.3774604  74.4739153 154.3372076
  44.2260111  74.2449705 153.4202160  44.3679284  75.4309754 154.3503421
  41.1459941  72.0471066 149.3218342  42.0752001  72.1982225 149.1487310
  40.7250971  72.1355086 148.4666989  39.9448273  76.0721730 147.0916880
  39.8059358  75.7040514 147.9642818  39.1562869  76.5869369 146.9200838
  40.5396425  81.1730827 138.4342417  40.7148180  80.7018870 139.2488039
  39.8529213  81.7996593 138.6623677  41.4953488  75.4503333 144.4805718
  41.1603320  75.4104103 145.3763368  40.9957433  74.7848049 144.0076128
  35.4697732  70.8570963 150.0058299  35.3317530  70.1251202 150.6069838
  36.3802655  70.7679863 149.7242487  44.4312679  72.7959367 134.7542778
  43.8141850  72.0706195 134.6575830  43.9629168  73.5568727 134.4109852
  38.0980032  70.5690922 149.4941979  38.8079651  69.9284114 149.4528597
  38.0549341  70.8203817 150.4168159  46.0866811  77.5058275 152.4148558
  46.0279357  76.8217496 151.7479141  46.4886329  78.2477265 151.9629184
  35.1057510  84.3220189 145.2082277  35.3454108  84.9538713 145.8861295
  34.2626706  83.9708229 145.4947636  36.2211225  67.0144791 133.8764082
  35.3440692  66.8933592 133.5126328  36.6968978  66.2230870 133.6242970
  46.0884218  75.4697859 150.6462538  45.2010997  75.1323781 150.7688936
  46.6582769  74.7380891 150.8831303  27.7413365  71.8021951 143.9705589
  28.4284405  71.4883681 143.3826604  27.5861494  72.7063316 143.6972840
  39.6185372  80.1299312 147.6123781  39.5455543  80.9354283 148.1243085
  39.1762765  80.3291278 146.7871802  39.4075151  79.3671082 141.1226602
  38.6242673  79.9092762 141.2164827  40.1067896  79.8845061 141.5220843
  42.7171801  65.1765711 143.7660808  43.2140501  64.4235674 143.4461878
  41.9458783  65.2130028 143.2004017  50.5701559  70.8806077 145.4079099
  50.5591435  71.7630792 145.0373032  49.7018938  70.5277628 145.2133636
  42.0784055  80.0286146 149.7681939  42.7912027  80.6633611 149.6957841
  41.5874084  80.1250012 148.9521941  43.8001582  73.9337398 141.3399231
  42.8657861  74.0538861 141.1703935  43.9778251  73.0309865 141.0759241
  39.3006770  67.3183094 143.4932492  38.9304558  66.7654135 144.1813398
  39.7965863  66.7141228 142.9407492  47.1874133  69.7754718 141.8749265
  47.6534586  70.6082709 141.8009568  47.6381634  69.3099699 142.5794524
  37.1295969  77.7780589 150.5887510  37.8305428  78.4117072 150.7416904
  36.6591084  78.1195321 149.8283150  45.2550365  76.1198539 138.8735417
  45.5310208  76.0055134 139.7829291  44.3854863  75.7216024 138.8347590
  45.1590796  62.1435305 145.9140167  44.2453876  62.3739532 146.0822373
  45.5883898  62.2273749 146.7654199  44.9297255  70.3325197 148.4140061
  44.2768705  70.5801104 147.7592513  45.3077635  69.5189335 148.0802538
  41.8904429  80.3684890 142.5168231  42.0726823  79.5506546 142.9795983
  42.7137415  80.5852582 142.0793121  42.2246594  79.2953075 139.7783279
  42.7534361  78.7845530 139.1653441  42.4874814  78.9795605 140.6428812
  32.7263687  77.3116944 147.5218613  33.3117124  76.5660632 147.6546517
  32.5288525  77.6220901 148.4055277  35.5802342  80.3468192 142.5381055
  34.9112717  80.8314319 142.0545095  35.4415212  80.5937412 143.4524434
  27.3181342  69.8822544 146.2423056  27.3565441  69.3486135 147.0360174
  26.8121634  69.3557750 145.6234033  39.7207611  82.3811935 149.1363714
  40.2725919  82.5443557 149.9012799  40.0613804  82.9716373 148.4643739
  44.5718485  77.2073193 154.9912368  45.1158389  77.8203151 154.4967323
  43.9905330  77.7652771 155.5079381  30.9489919  68.6086647 139.3176987
  31.2443360  67.6997325 139.2644041  30.0477955  68.5874386 138.9957990
  42.8575998  80.3293911 146.1227396  42.7327137  79.5283651 145.6138341
  43.5155089  80.8240104 145.6341366  34.4784166  66.6842643 145.3004536
  33.7570752  67.2978611 145.1612009  35.2677422  67.2200408 145.2221182
  44.9210906  78.1302931 147.7506946  43.9741242  78.0108282 147.6785273
  45.2693679  77.2425429 147.8333207  32.6777761  66.2900744 139.4416313
  32.3490467  65.4098123 139.2591419  33.0317131  66.2348413 140.3292702
  41.9257340  77.9255647 143.9511298  41.7782302  76.9972354 144.1318868
  42.7510833  77.9475738 143.4668373  35.7919584  66.5773714 139.8091790
  36.1315656  67.1059635 139.0870399  36.2391704  66.9154120 140.5850357
  45.5291461  78.7484206 145.0376171  46.4538009  78.5427067 144.9000622
  45.3606765  78.5000607 145.9465512  39.1379497  62.0460077 147.7122181
  39.9605566  61.5720555 147.5901072  39.3817560  62.8250561 148.2120868
  37.7787731  65.0748336 138.0085083  38.4996094  65.4529588 137.5048800
  37.1553035  65.7937213 138.1120061  41.9218854  65.7793485 138.9443415
  42.1382468  66.6618123 138.6432244  41.4412921  65.3879698 138.2149057
  36.6618075  68.7379198 145.5214160  36.5162656  69.0519501 146.4138441
  36.1843279  69.3564098 144.9685059  38.5214458  65.7281746 145.5695050
  38.5076027  64.8322839 145.2327347  39.2386886  65.7352410 146.2033336
  40.3740589  66.1619086 147.6148177  40.1158367  67.0836157 147.6132507
  39.8425629  65.7649521 148.3048641  45.3186778  79.2669873 140.3938262
  45.4923655  78.7016296 139.6412115  45.8115669  80.0670768 140.2117752
  31.1363737  71.2784542 148.4601821  30.5917206  72.0544350 148.5922095
  32.0143087  71.6255347 148.3020943  37.9251354  64.6096126 140.8382620
  38.0467265  63.6812772 141.0373507  37.6353396  64.6234812 139.9260935
  40.7942544  62.2951037 143.9749340  40.8164241  62.3590370 143.0201319
  41.2110603  61.4555545 144.1689846  51.1726169  72.0306296 142.0128562
  51.6157315  71.2813621 141.6147685  50.2952679  72.0216433 141.6302294
  46.3061950  78.5836638 137.4935161  47.0012855  79.2043330 137.7122475
  46.6485100  77.7331989 137.7687539  48.2053373  76.0336343 139.0222491
  48.7304697  76.3723616 138.2971811  48.1175726  75.0983358 138.8385626
  39.8673422  79.9470417 151.1512368  40.1760548  79.7019564 152.0235068
  40.6648904  80.1517055 150.6631238  39.8894034  82.1008326 143.3817745
  39.4499024  81.6084705 144.0750601  40.6402151  81.5581294 143.1409820
  32.3686373  78.2919867 143.3842373  33.1944393  77.9923639 143.0041016
  32.0180425  77.5227490 143.8332161  37.3367906  77.6446335 145.4540046
  36.7147915  76.9817041 145.1542274  38.0072773  77.6707467 144.7713694
  30.5694978  76.2106194 144.3431306  29.7326886  75.7828368 144.1615308
  30.5418623  76.4038637 145.2802097  47.8947279  76.6669247 154.3273689
  47.1042823  76.6493386 153.7878189  47.6580634  77.2057540 155.0822726
  48.0145154  73.5161713 151.6406418  48.0643159  73.3511721 152.5821941
  47.9059078  72.6488972 151.2504299  36.8981413  76.1950259 138.9298507
  37.0469533  76.8785723 138.2765180  37.7047857  76.1755349 139.4447963
  45.3048917  69.4992641 152.9565725  46.2058780  69.3599106 152.6649722
  45.3796891  69.6647096 153.8963902  49.5163351  75.9358655 151.8848439
  49.2248159  76.2988635 152.7211900  48.9035482  75.2225663 151.7061772
  50.7159034  73.5011534 144.4051010  51.5505925  73.9401339 144.5688570
  50.8518162  73.0250188 143.5859255  47.7650539  71.0591269 150.3528497
  48.2404661  71.2518916 149.5447349  46.8416105  71.1150455 150.1071881
  34.6534046  72.2215436 139.9359576  34.4080088  71.3177766 140.1339786
  34.8229961  72.2232587 138.9939054  42.3430756  63.0939113 149.3184331
  42.8612700  63.8300140 148.9930820  41.9885889  63.4003106 150.1531090
  33.9229694  67.9543794 137.4345737  33.2298939  68.0288149 136.7785773
  33.6781445  67.1904138 137.9567254  42.5943350  59.5139395 144.8385228
  42.8745104  58.8462584 145.4645654  43.3793957  59.7068491 144.3259892
  40.3976819  78.6898389 136.4010254  39.8250786  79.3088576 135.9480726
  40.9709612  79.2397751 136.9350176  46.4652208  67.9357029 148.5856803
  47.4169631  68.0355127 148.6069027  46.2955659  67.1435298 149.0954887
  44.4866588  65.0212613 148.7716204  43.8916520  65.3017625 148.0762693
  44.2016285  65.5106514 149.5432945  43.6174078  78.9735539 137.5318836
  44.5504752  78.9081101 137.7351712  43.5297291  79.8091806 137.0733369
  46.2462095  78.2901410 134.4922784  46.1675727  77.9561273 135.3858542
  47.0671762  78.7823178 134.4914256  48.9440286  71.1563149 147.6999103
  48.9116606  70.2179150 147.8858786  49.5540910  71.2347186 146.9664928
  40.7823617  70.0259202 133.7426307  41.7282722  69.8965410 133.8114725
  40.4037862  69.2873864 134.2195735  49.0934775  67.9474192 147.7457386
  48.5773823  67.1632649 147.5587315  49.9774723  67.6192909 147.9103905
  46.7545502  61.6915208 143.7053199  46.5570323  61.3830296 144.5896530
  47.3645207  62.4176847 143.8351128  54.7616836  72.2179156 146.8405139
  55.4920225  71.9564444 147.4012843  54.1523782  71.4807878 146.8807207
  52.8432133  70.3587018 147.4379591  52.1165297  70.2242983 146.8296082
  52.4279420  70.6663847 148.2436309  40.6662310  74.0776948 155.2026964
  41.5865319  74.2555547 155.3967010  40.6311893  73.1332994 155.0506663
  38.9666534  67.9509178 133.6781192  38.0597990  67.6542291 133.7543906
  39.2442515  67.6538997 132.8115478  29.8844475  69.2715542 144.1280238
  29.5647259  68.4180850 143.8354612  29.3377903  69.4864120 144.8838206
  33.6624382  71.9877983 147.8449745  33.8810392  72.9195091 147.8637779
  34.0750156  71.6285957 148.6304549  40.5828600  62.4946068 139.8325433
  39.7729328  62.1493153 140.2080679  41.2713017  62.1853612 140.4213045
  42.5119148  61.5724115 141.4549730  43.0650187  61.9919568 142.1139753
  42.7489235  60.6459863 141.4972686  37.7365319  64.8096114 133.8193171
  38.5984483  65.1351012 134.0788988  37.9215663  64.0227610 133.3066237
  29.7532735  72.8918453 146.0973360  29.0596206  72.4772406 145.5843314
  30.5005726  72.9338990 145.5006779  45.8897955  63.6824640 140.9628394
  45.3096624  64.3409444 140.5806447  45.6233888  62.8601985 140.5515812
  44.3401522  63.0829698 143.1649714  44.8401300  63.1946232 142.3564033
  44.9837130  62.7790751 143.8050523  31.6669477  72.8236707 143.9739375
  31.6440165  72.9224394 143.0221258  31.9770114  73.6701858 144.2956541
  34.3256855  74.8812862 148.0885989  35.2800109  74.8496804 148.0215921
  34.1269379  74.4203486 148.9036215  34.9156237  73.4513978 150.6556787
  35.7349126  73.9458057 150.6791624  35.1893045  72.5345946 150.6274354
  44.6722833  65.8424730 140.0184742  43.7848688  66.1274381 139.8004937
  45.0876822  65.6818494 139.1712019  48.0237369  65.8671251 143.7339082
  48.7997760  66.3567704 144.0063698  47.2985504  66.2929306 144.1910951
  50.4609928  66.5798871 144.7913022  51.0554419  66.3394607 144.0806331
  50.5336512  65.8606001 145.4186559  32.6807084  80.4232482 145.1056187
  32.5461552  79.6632883 144.5394185  32.2639146  81.1473381 144.6384976
  43.8166047  75.6069405 134.1132762  44.5201897  75.8119408 134.7290418
  43.0928696  76.1746167 134.3781846  44.6463857  71.3579266 140.2335033
  44.5899058  71.8147818 139.3942665  45.1992200  70.5969951 140.0557875
  48.4568663  67.1468998 141.0585152  48.2005597  66.7465634 141.8893360
  47.8321531  67.8612792 140.9335291  52.7681001  69.8865072 143.5656443
  52.2080559  69.9558261 144.3388006  52.1624504  69.7106056 142.8455940
  35.8376210  81.3201799 145.3174630  35.7208594  82.2647231 145.2153320
  35.0168656  81.0175360 145.7060429  45.7252744  76.0451934 136.1631222
  46.5598348  75.6133133 135.9808697  45.5637087  75.8733948 137.0908117
  45.3798636  72.5484048 137.5287562  45.3247440  72.3828319 136.5876006
  44.7544692  73.2560081 137.6849751  42.6944544  74.8532960 156.8541125
  43.5635703  75.0273612 156.4927759  42.2151295  75.6727376 156.7316854
  38.6894762  62.0492157 137.1072880  38.6773432  62.9933997 137.2641151
  39.5818184  61.8662302 136.8132341  36.8630724  81.9730061 148.5330558
  37.7657971  82.0053671 148.8497053  36.6368094  81.0430511 148.5476894
  38.6184326  80.7261047 145.1940637  37.6679957  80.7262909 145.0805009
  38.9216812  79.9793782 144.6776671  42.5046881  58.6434933 141.3618817
  41.7379277  58.0893420 141.5075499  42.9157586  58.7156802 142.2232969
  54.3537019  86.5621585 146.2586399  54.9915429  86.4428333 145.5549739
  54.2357862  87.5102429 146.3174351  51.1626726  86.5149014 146.1947924
  50.8245237  86.3990078 145.3068459  52.0316494  86.1140179 146.1748930
  47.0213541  88.3684490 142.1844815  46.4578406  88.2774427 141.4161103
  46.9065936  87.5484394 142.6647307  51.6446509  87.6683865 152.1534129
  51.6335149  87.2736664 151.2814633  51.8067148  86.9349938 152.7467901
  44.5677973  89.8635682 145.0229035  45.3599265  89.5226506 144.6075335
  44.8074623  89.9730657 145.9431189  52.6013100  92.0355458 137.4959280
  51.9501080  92.6209538 137.1093294  53.3957463  92.5661653 137.5554317
  46.5268727  89.1244595 137.8946414  47.2999603  88.5773582 137.7559290
  46.8794126  89.9888844 138.1060875  48.3653770  90.4520977 151.1013313
  48.0743636  91.3566608 150.9859980  49.0010754  90.4937505 151.8157383
  49.2909977  87.8297826 147.6914673  49.8873549  87.6053848 146.9771636
  49.3484948  87.0882571 148.2940121  48.8635005  85.2837261 135.5264864
  49.1160526  84.7618782 134.7648327  47.9259564  85.1203406 135.6291548
  53.9078288  84.2873039 143.3339607  54.6941377  83.8692462 142.9830024
  54.1716992  85.1919132 143.5021256  54.0788365  89.7245890 138.0328264
  53.4434198  89.7980516 138.7449169  53.7485772  90.3139488 137.3547343
  59.3086715  84.2248273 144.2372586  60.0411887  83.6547489 144.4710415
  58.5526071  83.8369873 144.6779091  48.5831294  87.1865367 137.7289239
  48.4667552  86.5110270 138.3970323  48.6933554  86.6997741 136.9121392
  50.9262835  86.6475514 141.4335928  50.5621042  86.1206135 142.1448850
  51.7829951  86.2573983 141.2602414  56.8312135  77.9369847 148.6967194
  56.4995460  78.8065258 148.4728409  56.2357749  77.6206131 149.3761225
  50.5668322  81.6765414 136.4297277  50.7342724  82.5445650 136.7967748
  50.3765491  81.8392695 135.5058566  53.3243655  90.1382393 148.0963107
  53.0244378  91.0407431 147.9878914  52.9794714  89.8714576 148.9484260
  46.7756136  86.5896189 144.1299811  45.8506633  86.4572404 144.3377503
  47.0240549  87.3690409 144.6269754  56.7240799  82.6564933 145.7760544
  55.8157676  82.5880341 145.4819305  56.6728394  83.1336878 146.6042370
  50.5457543  84.1323071 137.4143944  50.4257168  84.5780122 138.2529424
  49.8510131  84.4808389 136.8557482  44.1364947  86.2329463 144.9643601
  44.2657329  86.4863942 145.8783012  43.4562399  86.8257171 144.6448256
  48.3064435  96.9026713 141.0634075  48.2288464  97.8534538 141.1422555
  47.7026078  96.5572585 141.7209001  50.7981664  84.0754578 153.7195442
  50.0214998  84.6348499 153.7098306  51.4372227  84.5611361 154.2410312
  58.5902445  80.8581371 147.5538418  57.9476825  81.1513904 146.9078213
  58.0857374  80.7434292 148.3591615  56.2442609  84.6044544 138.2424278
  57.1560465  84.8371931 138.0671975  55.7352256  85.1881589 137.6799356
  49.0528037  86.8840032 153.2813409  49.7942721  87.4225076 153.0048232
  48.3465022  87.5106321 153.4384960  54.5283376  89.0269172 151.8785570
  54.9366732  88.5851583 151.1340203  53.8060638  88.4521800 152.1319763
  50.8814446  83.9641779 149.2519127  51.7275642  84.3881193 149.3953776
  50.8213084  83.3075403 149.9457690  54.8512191  89.5870363 145.6337859
  54.2221053  89.7516077 144.9313927  54.4637853  90.0011972 146.4048823
  58.7301423  90.5224801 142.9882223  58.0452461  90.9023702 142.4379256
  58.8145272  91.1320127 143.7214171  54.0313892  81.6246147 150.9100301
  53.7874824  82.3788208 150.3734576  54.3073822  82.0031495 151.7447548
  55.9852354  88.1684760 149.5877566  56.1969250  88.8116520 148.9111947
  55.9382103  87.3347076 149.1199496  53.5878583  80.7802580 146.4914138
  52.7263062  81.0783834 146.7830876  53.6141018  80.9972979 145.5595171
  50.4040153  89.3244771 142.8987944  50.8678498  89.6032474 142.1092567
  50.1396951  88.4228216 142.7161035  47.2964234  88.8716252 145.8367707
  47.8665591  89.3003521 145.1985192  47.8872346  88.5898837 146.5351893
  49.3409039  85.4467923 139.7077509  50.0433082  85.8988967 140.1751436
  49.0089667  84.8051742 140.3357402  47.7889400  84.0379680 154.0828719
  47.1588061  84.7195961 154.3164115  47.6825488  83.9262762 153.1381857
  43.0834373  83.7051476 145.0094643  42.2933427  83.9609005 144.5334753
  43.5745620  84.5199814 145.1146683  57.0998182  91.0456715 147.7599924
  57.9215626  90.6436902 147.4782605  57.0960585  90.9424949 148.7116039
  45.0349118  84.0696055 141.9678120  44.2380282  84.1814749 142.4861615
  44.8074710  84.4082707 141.1019010  50.8654786  90.5940758 149.9160634
  50.9299218  91.0561166 150.7518806  50.1565710  89.9638123 150.0442944
  41.3672076  83.9581966 147.4409634  41.6180114  84.8428976 147.7067210
  41.9031624  83.7786568 146.6684725  65.1904175  87.3895464 144.1084895
  64.4367884  86.8202862 143.9528900  65.3251717  87.3558128 145.0555530
  50.5802804  92.2608866 139.7839614  50.4448478  93.1060402 140.2124462
  51.1212616  92.4628144 139.0205548  47.0670143  78.3400446 156.4453970
  46.6737089  77.7866644 157.1201614  47.8836283  78.6511024 156.8360487
  44.0332201  89.7784304 140.3567540  44.5456721  90.5727554 140.5073104
  44.6854914  89.0810594 140.2901141  45.8427086  92.8950060 142.4390293
  46.0193714  93.8168025 142.2511277  46.6383919  92.5808479 142.8684673
  49.9838104  79.7558325 154.0374226  50.7247818  80.3565478 153.9578689
  50.2156027  79.0135963 153.4792269  45.1279442  84.9414692 152.3152456
  45.0132957  84.0399949 152.6159555  44.2723960  85.1878389 151.9637273
  52.2071280  92.8832432 153.9139957  51.7635134  92.0968811 153.5960861
  52.8688493  93.0711583 153.2483847  46.9658401  94.4128234 148.4400635
  47.5165826  94.2845297 147.6677629  46.1269877  94.7123123 148.0895528
  54.3052518  93.1635232 151.9421358  54.2870993  93.9844113 151.4501627
  55.2272438  93.0389308 152.1671499  50.7625572  90.6779362 152.7844866
  51.2953909  89.9167650 152.5544174  50.2339653  90.3853014 153.5269021
  53.9295267  75.7839428 148.3138508  53.5859536  76.6741069 148.2377619
  54.2974230  75.5941085 147.4508093  41.9981118  88.1072958 141.1327110
  42.8356340  88.5169967 140.9160818  42.1759385  87.1672400 141.1027304
  53.8945550  85.7748039 136.8210943  53.3792173  86.5452644 137.0599330
  53.6222858  85.1013175 137.4444005  51.4792661  80.6197740 141.8796181
  50.6234257  80.2304590 141.7001820  51.8919613  80.6989700 141.0195967
  53.0091807  78.1544083 146.2787741  52.5056603  78.1174218 145.4655546
  53.3022414  79.0636826 146.3384398  49.2534693  78.2382813 145.2853923
  50.1187690  78.0425621 144.9259812  49.3212202  78.0093164 146.2123280
  58.8679824  88.5280394 138.7564117  58.0909267  88.1891553 138.3119279
  59.5471305  88.5333017 138.0819082  53.6831853  83.6475131 138.6470724
  53.3781989  83.9621280 139.4980867  54.6362295  83.7256551 138.6898057
  52.1278285  89.8065354 140.2963678  51.5999646  89.0718114 139.9836916
  51.6265788  90.5840031 140.0503647  57.1071131  88.0014375 145.4130725
  56.4494805  88.6913636 145.5010853  57.9111530  88.3910807 145.7564711
  46.8597012  80.4685021 142.6570290  47.4340764  80.2460202 141.9243483
  47.4467995  80.5373715 143.4098891  55.9176590  86.3558748 143.4634666
  56.4308471  86.9888739 143.9656376  56.5677814  85.7559943 143.0978026
  47.1866600  82.4989482 136.6766175  46.3503912  82.8364168 136.9975450
  47.0471369  82.3638461 135.7393312  49.1619680  77.3426270 141.3845359
  48.5084092  77.0275287 140.7601974  49.1200154  76.7202010 142.1105182
  50.2730885  87.6245565 133.2998651  49.3657947  87.3934818 133.4989800
  50.7701917  86.8283184 133.4872633  53.1798964  96.3343072 136.2195337
  52.5060663  96.6374769 136.8280295  53.5664786  97.1372152 135.8700794
  52.3957421  83.8308203 145.7093007  51.4779982  84.0523150 145.5514695
  52.8117564  83.9054514 144.8504714  53.1792468  85.2299619 140.8395687
  53.9264287  85.7421016 140.5302809  53.4484058  84.9083671 141.7000081
  51.4519118  87.7258159 137.8222641  50.5430338  87.4417192 137.9195111
  51.4814202  88.1457238 136.9625948  56.6838386  91.3364749 141.5913809
  56.2300713  90.4955659 141.6478999  56.0532353  91.9726147 141.9288589
  55.6271305  82.2656735 142.8214476  54.8894062  81.7534121 143.1524719
  55.8798079  81.8257117 142.0097753  55.1271325  93.1741246 142.5263627
  55.4194299  93.7346303 141.8075993  55.6369946  93.4669807 143.2816786
  55.7282933  75.0432987 143.4156246  56.0341810  74.1830350 143.1282161
  56.4535538  75.6350607 143.2155240  42.0207289  85.4463674 141.8037844
  41.8231689  84.8533034 141.0788910  41.4653953  85.1415884 142.5213782
  50.0004012  85.3386780 143.9232437  50.0552622  84.3860616 143.8474913
  49.1895215  85.4946219 144.4073735  51.1495206  89.2666903 135.1610720
  50.7114636  88.5502762 134.7016357  51.8905647  89.4943018 134.5995811
  47.9396372  83.9563840 141.6822816  47.1264238  84.2558010 142.0888008
  48.4355367  83.5619529 142.3997298  50.0904950  93.9521597 143.6157080
  50.0481129  94.1782443 142.6865612  51.0067649  93.7184971 143.7642881
  53.5370584  84.4205664 150.5137709  53.8919972  84.6477137 151.3732175
  54.1842715  84.7524041 149.8914965  59.2668321  87.5424100 141.2187038
  59.1286220  87.7325696 140.2908228  58.9104540  88.3043483 141.6755090
  47.4310447  81.5282195 147.2984051  48.0709826  81.3870954 146.6007014
  46.5987978  81.2416709 146.9222653  59.2937701  89.6100627 146.2298310
  59.7274207  89.5175916 147.0781364  60.0069281  89.5858128 145.5918326
  48.2070751  90.8284626 143.4119043  49.0011350  90.3334946 143.2101618
  47.4962443  90.3002489 143.0486749  53.0265596  93.2102721 147.7631411
  53.0802618  93.7793658 148.5309127  52.1580377  93.3804606 147.3985448
  44.5153515  84.9727707 139.4878796  43.5851103  84.9112163 139.7048758
  44.6110987  84.4503660 138.6915437  44.4339064  81.4982520 142.0757037
  44.6945881  82.4127854 141.9666198  45.2556236  81.0306963 142.2253650
  45.9063989  82.9120277 149.2455862  46.5787042  82.7037640 148.5968511
  45.0793775  82.7142363 148.8061094  60.1553250  89.6524328 148.7631195
  60.3489140  90.5570138 149.0090470  60.0553868  89.1931747 149.5969780
  51.8089561  79.5382218 151.2621523  51.1617476  80.2372168 151.1685999
  52.5790576  79.9718362 151.6297771  55.2168359  89.8031071 154.3372076
  55.0653865  89.5741622 153.4202160  55.2073038  90.7601672 154.3503421
  51.9853695  87.3762983 149.3218342  52.9145755  87.5274143 149.1487310
  51.5644725  87.4647004 148.4666989  50.7842027  91.4013648 147.0916880
  50.6453113  91.0332432 147.9642818  49.9956623  91.9161287 146.9200838
  51.3790179  96.5022744 138.4342417  51.5541935  96.0310787 139.2488039
  50.6922967  97.1288510 138.6623677  52.3347242  90.7795250 144.4805718
  51.9997075  90.7396020 145.3763368  51.8351188  90.1139966 144.0076128
  46.3091486  86.1862880 150.0058299  46.1711284  85.4543119 150.6069838
  47.2196410  86.0971781 149.7242487  55.2706434  88.1251285 134.7542778
  54.6535605  87.3998113 134.6575830  54.8022922  88.8860645 134.4109852
  48.9373787  85.8982840 149.4941979  49.6473405  85.2576032 149.4528597
  48.8943095  86.1495735 150.4168159  56.9260566  92.8350193 152.4148558
  56.8673112  92.1509413 151.7479141  57.3280084  93.5769183 151.9629184
  47.6502721  82.8848058 151.3137618  47.1140078  82.4338796 151.9659214
  47.0619429  83.0193967 150.5708082  45.9451264  99.6512107 145.2082277
  46.1847863 100.2830631 145.8861295  45.1020461  99.3000147 145.4947636
  47.0604980  82.3436709 133.8764082  46.1834446  82.2225510 133.5126328
  47.5362733  81.5522787 133.6242970  56.9277973  90.7989777 150.6462538
  56.0404752  90.4615699 150.7688936  57.4976524  90.0672808 150.8831303
  38.5807120  87.1313869 143.9705589  39.2678160  86.8175599 143.3826604
  38.4255249  88.0355233 143.6972840  43.3841842  82.0204065 148.3990613
  43.3000031  81.4129735 147.6641023  42.5624548  82.5113084 148.4000109
  50.4579126  95.4591229 147.6123781  50.3849298  96.2646201 148.1243085
  50.0156519  95.6583195 146.7871802  50.2468906  94.6962999 141.1226602
  49.4636428  95.2384680 141.2164827  50.9461651  95.2136979 141.5220843
  53.5565556  80.5057629 143.7660808  54.0534255  79.7527591 143.4461878
  52.7852537  80.5421946 143.2004017  61.4095313  86.2097994 145.4079099
  61.3985190  87.0922710 145.0373032  60.5412693  85.8569545 145.2133636
  52.9177810  95.3578063 149.7681939  53.6305782  95.9925528 149.6957841
  52.4267838  95.4541929 148.9521941  54.6395337  89.2629316 141.3399231
  53.7051615  89.3830779 141.1703935  54.8172005  88.3601783 141.0759241
  50.1400525  82.6475012 143.4932492  49.7698312  82.0946052 144.1813398
  50.6359617  82.0433145 142.9407492  58.0267888  85.1046635 141.8749265
  58.4928340  85.9374627 141.8009568  58.4775388  84.6391617 142.5794524
  47.9689723  93.1072507 150.5887510  48.6699183  93.7408990 150.7416904
  47.4984838  93.4487238 149.8283150  56.0944119  91.4490457 138.8735417
  56.3703963  91.3347051 139.7829291  55.2248618  91.0507942 138.8347590
  55.9984551  77.4727222 145.9140167  55.0847631  77.7031449 146.0822373
  56.4277652  77.5565666 146.7654199  55.7691009  85.6617114 148.4140061
  55.1162459  85.9093022 147.7592513  56.1471389  84.8481253 148.0802538
  52.7298183  95.6976808 142.5168231  52.9120578  94.8798463 142.9795983
  53.5531169  95.9144500 142.0793121  53.0640349  94.6244993 139.7783279
  53.5928115  94.1137447 139.1653441  53.3268568  94.3087523 140.6428812
  51.8178582  86.4036925 154.9006098  51.1419219  86.3031055 155.5708473
  52.6406216  86.2476139 155.3642095  43.5657441  92.6408862 147.5218613
  44.1510878  91.8952550 147.6546517  43.3682280  92.9512819 148.4055277
  46.4196097  95.6760109 142.5381055  45.7506472  96.1606237 142.0545095
  46.2808966  95.9229330 143.4524434  38.1575096  85.2114462 146.2423056
  38.1959196  84.6778053 147.0360174  37.6515389  84.6849668 145.6234033
  50.5601365  97.7103853 149.1363714  51.1119673  97.8735474 149.9012799
  50.9007559  98.3008291 148.4643739  45.5365858  80.0579003 149.7385598
  45.6007185  80.9193834 149.3262996  45.4732979  79.4453004 149.0057957
  45.0118131  82.1302135 153.3858633  45.6390170  81.7479213 153.9996157
  44.1546050  81.9116337 153.7514325  55.4112239  92.5365110 154.9912368
  55.9552143  93.1495069 154.4967323  54.8299084  93.0944689 155.5079381
  41.7883674  83.9378564 139.3176987  42.0837115  83.0289243 139.2644041
  40.8871709  83.9166304 138.9957990  53.6969752  95.6585828 146.1227396
  53.5720892  94.8575568 145.6138341  54.3548844  96.1532022 145.6341366
  45.3177921  82.0134561 145.3004536  44.5964506  82.6270529 145.1612009
  46.1071176  82.5492326 145.2221182  55.7604661  93.4594848 147.7506946
  54.8134996  93.3400200 147.6785273  56.1087434  92.5717347 147.8333207
  48.1204234  79.3488987 151.5745188  48.6438636  79.5951284 152.3371497
  47.9016567  80.1809022 151.1548325  43.5171515  81.6192662 139.4416313
  43.1884221  80.7390041 139.2591419  43.8710886  81.5640331 140.3292702
  52.7651094  93.2547565 143.9511298  52.6176057  92.3264272 144.1318868
  53.5904588  93.2767655 143.4668373  46.6313338  81.9065632 139.8091790
  46.9709411  82.4351553 139.0870399  47.0785459  82.2446038 140.5850357
  56.3685216  94.0776123 145.0376171  57.2931763  93.8718985 144.9000622
  56.2000519  93.8292525 145.9465512  49.3256779  80.2902683 149.2594858
  48.9853600  79.4910496 149.6615538  48.6195785  80.5904393 148.6871692
  49.9773251  77.3751995 147.7122181  50.7999320  76.9012473 147.5901072
  50.2211315  78.1542479 148.2120868  48.6181486  80.4040253 138.0085083
  49.3389848  80.7821506 137.5048800  47.9946790  81.1229130 138.1120061
  52.7612608  81.1085402 138.9443415  52.9776223  81.9910040 138.6432244
  52.2806676  80.7171616 138.2149057  47.5011830  84.0671116 145.5214160
  47.3556410  84.3811419 146.4138441  47.0237033  84.6856016 144.9685059
  49.3608213  81.0573664 145.5695050  49.3469781  80.1614757 145.2327347
  50.0780641  81.0644327 146.2033336  51.2134343  81.4911004 147.6148177
  50.9552121  82.4128074 147.6132507  50.6819384  81.0941438 148.3048641
  56.1580532  94.5961791 140.3938262  56.3317410  94.0308213 139.6412115
  56.6509423  95.3962686 140.2117752  41.9757492  86.6076460 148.4601821
  41.4310960  87.3836268 148.5922095  42.8536842  86.9547264 148.3020943
  48.7645109  79.9388044 140.8382620  48.8861020  79.0104690 141.0373507
  48.4747151  79.9526730 139.9260935  51.6336299  77.6242954 143.9749340
  51.6557996  77.6882287 143.0201319  52.0504358  76.7847463 144.1689846
  62.0119923  87.3598214 142.0128562  62.4551069  86.6105539 141.6147685
  61.1346434  87.3508350 141.6302294  57.1455705  93.9128555 137.4935161
  57.8406609  94.5335248 137.7122475  57.4878855  93.0623907 137.7687539
  42.7623514  85.7346356 151.3531978  42.0205250  85.8828992 151.9396608
  42.4416258  85.9954622 150.4898727  59.0447128  91.3628261 139.0222491
  59.5698452  91.7015534 138.2971811  58.9569480  90.4275276 138.8385626
  50.7067176  95.2762334 151.1512368  51.0154303  95.0311481 152.0235068
  51.5042658  95.4808973 150.6631238  50.7287788  97.4300244 143.3817745
  50.2892779  96.9376623 144.0750601  51.4795905  96.8873212 143.1409820
  43.2080127  93.6211785 143.3842373  44.0338147  93.3215557 143.0041016
  42.8574179  92.8519407 143.8332161  48.1761661  92.9738253 145.4540046
  47.5541670  92.3108958 145.1542274  48.8466528  92.9999385 144.7713694
  41.4088733  91.5398111 144.3431306  40.5720641  91.1120286 144.1615308
  41.3812378  91.7330555 145.2802097  48.2486188  81.4520041 155.0472552
  48.2974344  82.3282164 154.6650322  48.7908702  80.9097434 154.4744195
  58.7341034  91.9961164 154.3273689  57.9436578  91.9785303 153.7878189
  58.4974388  92.5349458 155.0822726  58.8538909  88.8453631 151.6406418
  58.9036914  88.6803638 152.5821941  58.7452832  87.9780890 151.2504299
  47.7375168  91.5242177 138.9298507  47.8863288  92.2077641 138.2765180
  48.5441611  91.5047267 139.4447963  56.1442671  84.8284559 152.9565725
  57.0452534  84.6891024 152.6649722  56.2190646  84.9939014 153.8963902
  50.4785477  82.2051414 151.8018911  49.6088786  82.4984980 151.5301499
  50.7144957  82.7891859 152.5226175  60.3557106  91.2650572 151.8848439
  60.0641914  91.6280553 152.7211900  59.7429237  90.5517581 151.7061772
  61.5552788  88.8303452 144.4051010  62.3899679  89.2693256 144.5688570
  61.6911917  88.3542105 143.5859255  58.6044294  86.3883187 150.3528497
  59.0798416  86.5810833 149.5447349  57.6809859  86.4442373 150.1071881
  45.4927801  87.5507354 139.9359576  45.2473842  86.6469684 140.1339786
  45.6623715  87.5524505 138.9939054  53.1824510  78.4231031 149.3184331
  53.7006454  79.1592057 148.9930820  52.8279643  78.7295024 150.1531090
  44.7623448  83.2835712 137.4345737  44.0692693  83.3580067 136.7785773
  44.5175200  82.5196055 137.9567254  53.4337105  74.8431313 144.8385228
  53.7138858  74.1754502 145.4645654  54.2187712  75.0360409 144.3259892
  51.2370573  94.0190307 136.4010254  50.6644540  94.6380494 135.9480726
  51.8103367  94.5689669 136.9350176  57.3045963  83.2648947 148.5856803
  58.2563386  83.3647045 148.6069027  57.1349413  82.4727216 149.0954887
  55.3260342  80.3504530 148.7716204  54.7310275  80.6309543 148.0762693
  55.0410039  80.8398431 149.5432945  54.4567833  94.3027457 137.5318836
  55.3898506  94.2373019 137.7351712  54.3691046  95.1383724 137.0733369
  57.0855850  93.6193327 134.4922784  57.0069481  93.2853191 135.3858542
  57.9065516  94.1115095 134.4914256  59.7834041  86.4855067 147.6999103
  59.7510361  85.5471067 147.8858786  60.3934664  86.5639103 146.9664928
  51.6217372  85.3551120 133.7426307  52.5676476  85.2257328 133.8114725
  51.2431617  84.6165782 134.2195735  59.9328529  83.2766110 147.7457386
  59.4167578  82.4924567 147.5587315  60.8168478  82.9484827 147.9103905
  57.5939256  77.0207126 143.7053199  57.3964077  76.7122214 144.5896530
  58.2038962  77.7468765 143.8351128  65.6010591  87.5471074 146.8405139
  66.3313979  87.2856362 147.4012843  64.9917536  86.8099796 146.8807207
  63.6825888  85.6878936 147.4379591  62.9559051  85.5534901 146.8296082
  63.2673175  85.9955765 148.2436309  51.5056064  89.4068866 155.2026964
  52.4259074  89.5847465 155.3967010  51.4705647  88.4624911 155.0506663
  49.8060289  83.2801096 133.6781192  48.8991744  82.9834209 133.7543906
  50.0836270  82.9830914 132.8115478  40.7238229  84.6007460 144.1280238
  40.4041013  83.7472768 143.8354612  40.1771657  84.8156038 144.8838206
  44.5018137  87.3169901 147.8449745  44.7204146  88.2487008 147.8637779
  44.9143910  86.9577875 148.6304549  51.4222354  77.8237986 139.8325433
  50.6123083  77.4785071 140.2080679  52.1106771  77.5145530 140.4213045
  53.3512903  76.9016033 141.4549730  53.9043941  77.3211486 142.1139753
  53.5882989  75.9751781 141.4972686  49.3746002  82.8903106 157.2352494
  49.2742729  83.8397463 157.1664585  49.1567544  82.5621345 156.3628564
  48.5759073  80.1388031 133.8193171  49.4378237  80.4642930 134.0788988
  48.7609418  79.3519527 133.3066237  40.5926489  88.2210371 146.0973360
  39.8989961  87.8064324 145.5843314  41.3399480  88.2630908 145.5006779
  56.7291710  79.0116558 140.9628394  56.1490379  79.6701362 140.5806447
  56.4627643  78.1893902 140.5515812  55.1795276  78.4121615 143.1649714
  55.6795055  78.5238150 142.3564033  55.8230884  78.1082668 143.8050523
  49.2377272  86.3200245 156.0517555  48.7544354  87.1200605 156.2581444
  49.3238211  86.3308190 155.0984999  42.5063232  88.1528625 143.9739375
  42.4833920  88.2516312 143.0221258  42.8163868  88.9993776 144.2956541
  45.1650610  90.2104780 148.0885989  46.1193863  90.1788722 148.0215921
  44.9663133  89.7495404 148.9036215  45.7549992  88.7805896 150.6556787
  46.5742881  89.2749975 150.6791624  46.0286799  87.8637864 150.6274354
  55.5116588  81.1716648 140.0184742  54.6242443  81.4566299 139.8004937
  55.9270577  81.0110412 139.1712019  58.8631124  81.1963169 143.7339082
  59.6391514  81.6859622 144.0063698  58.1379258  81.6221223 144.1910951
  61.3003683  81.9090788 144.7913022  61.8948173  81.6686524 144.0806331
  61.3730266  81.1897919 145.4186559  43.5200838  95.7524399 145.1056187
  43.3855306  94.9924800 144.5394185  43.1032901  96.4765299 144.6384976
  54.6559801  90.9361323 134.1132762  55.3595651  91.1411325 134.7290418
  53.9322450  91.5038085 134.3781846  55.4857612  86.6871184 140.2335033
  55.4292813  87.1439736 139.3942665  56.0385954  85.9261869 140.0557875
  59.2962418  82.4760916 141.0585152  59.0399352  82.0757552 141.8893360
  58.6715286  83.1904710 140.9335291  63.6074755  85.2156989 143.5656443
  63.0474313  85.2850179 144.3388006  63.0018259  85.0397974 142.8455940
  46.6769964  96.6493716 145.3174630  46.5602348  97.5939149 145.2153320
  45.8562410  96.3467278 145.7060429  56.5646499  91.3743852 136.1631222
  57.3992103  90.9425051 135.9808697  56.4030842  91.2025866 137.0908117
  56.2192391  87.8775965 137.5287562  56.1641195  87.7120237 136.5876006
  55.5938446  88.5851998 137.6849751  41.0084906  83.1144030 151.3548984
  41.6543769  82.6042984 151.8436209  40.8002057  83.8512711 151.9292409
  53.5338298  90.1824877 156.8541125  54.4029458  90.3565529 156.4927759
  53.0545050  91.0019294 156.7316854  49.5288516  77.3784074 137.1072880
  49.5167186  78.3225914 137.2641151  50.4211938  77.1954220 136.8132341
  47.7024478  97.3021978 148.5330558  48.6051725  97.3345588 148.8497053
  47.4761848  96.3722429 148.5476894  49.4578080  96.0552965 145.1940637
  48.5073711  96.0554826 145.0805009  49.7610566  95.3085699 144.6776671
  53.3440636  73.9726851 141.3618817  52.5773032  73.4185338 141.5075499
  53.7551341  74.0448720 142.2232969  45.3482397  80.2611647 155.4523998
  46.2113858  79.9048452 155.6627323  44.7747808  79.9225542 156.1399402
  65.1930774 101.8913503 146.2586399  65.8309184 101.7720251 145.5549739
  65.0751617 102.8394347 146.3174351  62.0020480 101.8440931 146.1947924
  61.6638992 101.7281996 145.3068459  62.8710248 101.4432096 146.1748930
  57.8607296 103.6976408 142.1844815  57.2972161 103.6066345 141.4161103
  57.7459691 102.8776312 142.6647307  62.4840263 102.9975783 152.1534129
  62.4728904 102.6028581 151.2814633  62.6460903 102.2641856 152.7467901
  55.4071728 105.1927599 145.0229035  56.1993020 104.8518424 144.6075335
  55.6468378 105.3022574 145.9431189  63.4406855 107.3647375 137.4959280
  62.7894834 107.9501456 137.1093294  64.2351217 107.8953570 137.5554317
  57.3662482 104.4536513 137.8946414  58.1393358 103.9065500 137.7559290
  57.7187881 105.3180762 138.1060875  59.2047524 105.7812895 151.1013313
  58.9137390 106.6858526 150.9859980  59.8404509 105.8229422 151.8157383
  60.1303731 103.1589743 147.6914673  60.7267303 102.9345766 146.9771636
  60.1878703 102.4174489 148.2940121  59.7028759 100.6129179 135.5264864
  59.9554280 100.0910700 134.7648327  58.7653319 100.4495324 135.6291548
  64.7472042  99.6164957 143.3339607  65.5335132  99.1984380 142.9830024
  65.0110747 100.5211049 143.5021256  64.9182120 105.0537807 138.0328264
  64.2827953 105.1272434 138.7449169  64.5879526 105.6431406 137.3547343
  70.1480469  99.5540190 144.2372586  70.8805641  98.9839407 144.4710415
  69.3919825  99.1661791 144.6779091  59.4225048 102.5157285 137.7289239
  59.3061306 101.8402188 138.3970323  59.5327308 102.0289659 136.9121392
  61.7656589 101.9767432 141.4335928  61.4014796 101.4498053 142.1448850
  62.6223705 101.5865901 141.2602414  67.6705890  93.2661764 148.6967194
  67.3389215  94.1357175 148.4728409  67.0751503  92.9498048 149.3761225
  61.4062076  97.0057331 136.4297277  61.5736478  97.8737568 136.7967748
  61.2159245  97.1684613 135.5058566  64.1637409 105.4674310 148.0963107
  63.8638132 106.3699349 147.9878914  63.8188469 105.2006494 148.9484260
  57.6149891 101.9188107 144.1299811  56.6900387 101.7864321 144.3377503
  57.8634304 102.6982326 144.6269754  67.5634553  97.9856850 145.7760544
  66.6551430  97.9172259 145.4819305  67.5122149  98.4628795 146.6042370
  61.3851297  99.4614989 137.4143944  61.2650922  99.9072040 138.2529424
  60.6903885  99.8100307 136.8557482  54.9758702 101.5621381 144.9643601
  55.1051083 101.8155860 145.8783012  54.2956153 102.1549089 144.6448256
  59.1458189 112.2318631 141.0634075  59.0682219 113.1826456 141.1422555
  58.5419833 111.8864503 141.7209001  61.6375419  99.4046496 153.7195442
  60.8608753  99.9640416 153.7098306  62.2765982  99.8903279 154.2410312
  69.4296199  96.1873289 147.5538418  68.7870580  96.4805822 146.9078213
  68.9251128  96.0726209 148.3591615  67.0836363  99.9336462 138.2424278
  67.9954219 100.1663849 138.0671975  66.5746010 100.5173506 137.6799356
  59.8921791 102.2131949 153.2813409  60.6336476 102.7516993 153.0048232
  59.1858777 102.8398238 153.4384960  65.3677131 104.3561090 151.8785570
  65.7760487 103.9143500 151.1340203  64.6454392 103.7813717 152.1319763
  61.7208201  99.2933697 149.2519127  62.5669396  99.7173110 149.3953776
  61.6606839  98.6367321 149.9457690  65.6905945 104.9162281 145.6337859
  65.0614808 105.0807995 144.9313927  65.3031608 105.3303890 146.4048823
  69.5695177 105.8516718 142.9882223  68.8846216 106.2315620 142.4379256
  69.6539027 106.4612045 143.7214171  64.8707646  96.9538065 150.9100301
  64.6268578  97.7080126 150.3734576  65.1467577  97.3323413 151.7447548
  66.8246109 103.4976677 149.5877566  67.0363004 104.1408437 148.9111947
  66.7775857 102.6638994 149.1199496  64.4272338  96.1094498 146.4914138
  63.5656817  96.4075752 146.7830876  64.4534773  96.3264897 145.5595171
  61.2433907 104.6536689 142.8987944  61.7072253 104.9324392 142.1092567
  60.9790705 103.7520133 142.7161035  58.1357988 104.2008170 145.8367707
  58.7059345 104.6295439 145.1985192  58.7266100 103.9190755 146.5351893
  60.1802793 100.7759841 139.7077509  60.8826837 101.2280885 140.1751436
  59.8483422 100.1343660 140.3357402  58.6283155  99.3671598 154.0828719
  57.9981816 100.0487878 154.3164115  58.5219243  99.2554679 153.1381857
  53.9228127  99.0343394 145.0094643  53.1327181  99.2900922 144.5334753
  54.4139375  99.8491732 145.1146683  67.9391937 106.3748633 147.7599924
  68.7609381 105.9728820 147.4782605  67.9354340 106.2716867 148.7116039
  55.8742873  99.3987973 141.9678120  55.0774036  99.5106667 142.4861615
  55.6468465  99.7374625 141.1019010  61.7048540 105.9232676 149.9160634
  61.7692973 106.3853083 150.7518806  60.9959464 105.2930041 150.0442944
  52.2065830  99.2873884 147.4409634  52.4573869 100.1720894 147.7067210
  52.7425379  99.1078486 146.6684725  76.0297930 102.7187381 144.1084895
  75.2761638 102.1494779 143.9528900  76.1645471 102.6850046 145.0555530
  61.4196558 107.5900784 139.7839614  61.2842233 108.4352319 140.2124462
  61.9606371 107.7920061 139.0205548  57.9063898  93.6692363 156.4453970
  57.5130843  93.1158562 157.1201614  58.7230038  93.9802942 156.8360487
  54.8725955 105.1076222 140.3567540  55.3850476 105.9019472 140.5073104
  55.5248668 104.4102512 140.2901141  56.6820840 108.2241978 142.4390293
  56.8587468 109.1459943 142.2511277  57.4777674 107.9100397 142.8684673
  60.8231859  95.0850243 154.0374226  61.5641572  95.6857396 153.9578689
  61.0549781  94.3427880 153.4792269  55.9673197 100.2706610 152.3152456
  55.8526712  99.3691867 152.6159555  55.1117714 100.5170307 151.9637273
  63.0465034 108.2124350 153.9139957  62.6028889 107.4260729 153.5960861
  63.7082248 108.4003501 153.2483847  57.8052156 109.7420152 148.4400635
  58.3559581 109.6137215 147.6677629  56.9663631 110.0415041 148.0895528
  65.1446272 108.4927150 151.9421358  65.1264748 109.3136031 151.4501627
  66.0666193 108.3681225 152.1671499  61.6019327 106.0071280 152.7844866
  62.1347663 105.2459568 152.5544174  61.0733408 105.7144931 153.5269021
  64.7689022  91.1131345 148.3138508  64.4253291  92.0032987 148.2377619
  65.1367984  90.9233003 147.4508093  52.8374872 103.4364876 141.1327110
  53.6750094 103.8461884 140.9160818  53.0153140 102.4964318 141.1027304
  64.7339304 101.1039957 136.8210943  64.2185928 101.8744561 137.0599330
  64.4616613 100.4305093 137.4444005  62.3186415  95.9489657 141.8796181
  61.4628012  95.5596508 141.7001820  62.7313367  96.0281618 141.0195967
  63.8485562  93.4836001 146.2787741  63.3450358  93.4466136 145.4655546
  64.1416169  94.3928743 146.3384398  60.0928448  93.5674730 145.2853923
  60.9581445  93.3717539 144.9259812  60.1605957  93.3385082 146.2123280
  69.7073578 103.8572311 138.7564117  68.9303021 103.5183471 138.3119279
  70.3865059 103.8624934 138.0819082  64.5225607  98.9767049 138.6470724
  64.2175743  99.2913198 139.4980867  65.4756050  99.0548469 138.6898057
  62.9672039 105.1357272 140.2963678  62.4393401 104.4010032 139.9836916
  62.4659542 105.9131948 140.0503647  67.9464885 103.3306292 145.4130725
  67.2888560 104.0205554 145.5010853  68.7505285 103.7202724 145.7564711
  57.6990767  95.7976938 142.6570290  58.2734519  95.5752120 141.9243483
  58.2861749  95.8665633 143.4098891  66.7570344 101.6850665 143.4634666
  67.2702226 102.3180657 143.9656376  67.4071568 101.0851861 143.0978026
  58.0260354  97.8281399 136.6766175  57.1897666  98.1656086 136.9975450
  57.8865124  97.6930379 135.7393312  60.0013435  92.6718187 141.3845359
  59.3477847  92.3567204 140.7601974  59.9593909  92.0493928 142.1105182
  61.1124639 102.9537482 133.2998651  60.2051701 102.7226736 133.4989800
  61.6095671 102.1575102 133.4872633  64.0192718 111.6634989 136.2195337
  63.3454417 111.9666686 136.8280295  64.4058540 112.4664070 135.8700794
  63.2351175  99.1600121 145.7093007  62.3173736  99.3815068 145.5514695
  63.6511319  99.2346431 144.8504714  64.0186223 100.5591536 140.8395687
  64.7658042 101.0712934 140.5302809  64.2877812 100.2375589 141.7000081
  62.2912873 103.0550077 137.8222641  61.3824092 102.7709110 137.9195111
  62.3207957 103.4749156 136.9625948  67.5232140 106.6656667 141.5913809
  67.0694467 105.8247577 141.6478999  66.8926107 107.3018065 141.9288589
  66.4665060  97.5948653 142.8214476  65.7287817  97.0826039 143.1524719
  66.7191833  97.1549034 142.0097753  65.9665080 108.5033163 142.5263627
  66.2588054 109.0638220 141.8075993  66.4763700 108.7961724 143.2816786
  66.5676687  90.3724905 143.4156246  66.8735564  89.5122268 143.1282161
  67.2929292  90.9642525 143.2155240  52.8601043 100.7755591 141.8037844
  52.6625443 100.1824952 141.0788910  52.3047707 100.4707801 142.5213782
  60.8397767 100.6678698 143.9232437  60.8946377  99.7152534 143.8474913
  60.0288969 100.8238137 144.4073735  61.9888961 104.5958821 135.1610720
  61.5508391 103.8794680 134.7016357  62.7299402 104.8234936 134.5995811
  58.7790127  99.2855757 141.6822816  57.9657992  99.5849928 142.0888008
  59.2749121  98.8911446 142.3997298  60.9298705 109.2813514 143.6157080
  60.8874884 109.5074361 142.6865612  61.8461404 109.0476889 143.7642881
  64.3764339  99.7497582 150.5137709  64.7313726  99.9769055 151.3732175
  65.0236470 100.0815959 149.8914965  70.1062076 102.8716018 141.2187038
  69.9679974 103.0617614 140.2908228  69.7498294 103.6335401 141.6755090
  58.2704202  96.8574113 147.2984051  58.9103581  96.7162872 146.6007014
  57.4381732  96.5708626 146.9222653  70.1331455 104.9392545 146.2298310
  70.5667962 104.8467834 147.0781364  70.8463036 104.9150045 145.5918326
  59.0464506 106.1576543 143.4119043  59.8405104 105.6626864 143.2101618
  58.3356198 105.6294407 143.0486749  63.8659350 108.5394639 147.7631411
  63.9196372 109.1085575 148.5309127  62.9974131 108.7096524 147.3985448
  55.3547269 100.3019625 139.4878796  54.4244857 100.2404081 139.7048758
  55.4504741  99.7795578 138.6915437  55.2732818  96.8274438 142.0757037
  55.5339635  97.7419771 141.9666198  56.0949990  96.3598881 142.2253650
  56.7457743  98.2412195 149.2455862  57.4180797  98.0329557 148.5968511
  55.9187530  98.0434281 148.8061094  70.9947005 104.9816246 148.7631195
  71.1882895 105.8862056 149.0090470  70.8947623 104.5223665 149.5969780
  62.6483315  94.8674136 151.2621523  62.0011230  95.5664086 151.1685999
  63.4184331  95.3010280 151.6297771  66.0562113 105.1322988 154.3372076
  65.9047620 104.9033540 153.4202160  66.0466793 106.0893590 154.3503421
  62.8247450 102.7054901 149.3218342  63.7539510 102.8566061 149.1487310
  62.4038480 102.7938922 148.4666989  61.6235782 106.7305565 147.0916880
  61.4846867 106.3624350 147.9642818  60.8350378 107.2453205 146.9200838
  62.2183934 111.8314662 138.4342417  62.3935689 111.3602705 139.2488039
  61.5316722 112.4580428 138.6623677  63.1740997 106.1087168 144.4805718
  62.8390829 106.0687938 145.3763368  62.6744942 105.4431884 144.0076128
  57.1485241 101.5154798 150.0058299  57.0105039 100.7835037 150.6069838
  58.0590164 101.4263698 149.7242487  66.1100188 103.4543202 134.7542778
  65.4929359 102.7290031 134.6575830  65.6416677 104.2152563 134.4109852
  59.7767541 101.2274757 149.4941979  60.4867160 100.5867950 149.4528597
  59.7336849 101.4787652 150.4168159  67.7654320 108.1642111 152.4148558
  67.7066866 107.4801331 151.7479141  68.1673838 108.9061101 151.9629184
  58.4896475  98.2139975 151.3137618  57.9533832  97.7630714 151.9659214
  57.9013184  98.3485884 150.5708082  56.7845019 114.9804025 145.2082277
  57.0241617 115.6122549 145.8861295  55.9414215 114.6292065 145.4947636
  57.8998734  97.6728627 133.8764082  57.0228201  97.5517428 133.5126328
  58.3756487  96.8814705 133.6242970  67.7671727 106.1281695 150.6462538
  66.8798506 105.7907617 150.7688936  68.3370278 105.3964726 150.8831303
  49.4200874 102.4605786 143.9705589  50.1071914 102.1467517 143.3826604
  49.2649003 103.3647151 143.6972840  54.2235597  97.3495983 148.3990613
  54.1393785  96.7421653 147.6641023  53.4018303  97.8405001 148.4000109
  61.2972881 110.7883147 147.6123781  61.2243052 111.5938119 148.1243085
  60.8550274 110.9875113 146.7871802  61.0862660 110.0254917 141.1226602
  60.3030182 110.5676597 141.2164827  61.7855405 110.5428897 141.5220843
  64.3959310  95.8349547 143.7660808  64.8928010  95.0819509 143.4461878
  63.6246292  95.8713863 143.2004017  72.2489068 101.5389912 145.4079099
  72.2378944 102.4214628 145.0373032  71.3806447 101.1861463 145.2133636
  63.7571564 110.6869981 149.7681939  64.4699536 111.3217446 149.6957841
  63.2661593 110.7833847 148.9521941  65.4789091 104.5921234 141.3399231
  64.5445370 104.7122696 141.1703935  65.6565760 103.6893701 141.0759241
  60.9794279  97.9766930 143.4932492  60.6092067  97.4237970 144.1813398
  61.4753372  97.3725063 142.9407492  68.8661642 100.4338553 141.8749265
  69.3322095 101.2666545 141.8009568  69.3169143  99.9683535 142.5794524
  58.8083478 108.4364425 150.5887510  59.5092937 109.0700908 150.7416904
  58.3378593 108.7779156 149.8283150  66.9337874 106.7782374 138.8735417
  67.2097717 106.6638969 139.7829291  66.0642372 106.3799859 138.8347590
  66.8378305  92.8019140 145.9140167  65.9241385  93.0323367 146.0822373
  67.2671407  92.8857584 146.7654199  66.6084764 100.9909032 148.4140061
  65.9556214 101.2384939 147.7592513  66.9865144 100.1773170 148.0802538
  63.5691938 111.0268725 142.5168231  63.7514332 110.2090381 142.9795983
  64.3924924 111.2436417 142.0793121  63.9034103 109.9536910 139.7783279
  64.4321870 109.4429365 139.1653441  64.1662323 109.6379441 140.6428812
  62.6572337 101.7328843 154.9006098  61.9812974 101.6322972 155.5708473
  63.4799971 101.5768057 155.3642095  54.4051196 107.9700780 147.5218613
  54.9904633 107.2244468 147.6546517  54.2076034 108.2804736 148.4055277
  57.2589851 111.0052027 142.5381055  56.5900226 111.4898155 142.0545095
  57.1202721 111.2521247 143.4524434  48.9968851 100.5406380 146.2423056
  49.0352950 100.0069971 147.0360174  48.4909143 100.0141585 145.6234033
  61.3995120 113.0395771 149.1363714  61.9513428 113.2027392 149.9012799
  61.7401313 113.6300208 148.4643739  56.3759613  95.3870920 149.7385598
  56.4400939  96.2485751 149.3262996  56.3126733  94.7744922 149.0057957
  55.8511885  97.4594053 153.3858633  56.4783924  97.0771130 153.9996157
  54.9939804  97.2408255 153.7514325  66.2505994 107.8657028 154.9912368
  66.7945898 108.4786986 154.4967323  65.6692839 108.4236606 155.5079381
  52.6277428  99.2670482 139.3176987  52.9230869  98.3581160 139.2644041
  51.7265464  99.2458221 138.9957990  64.5363507 110.9877746 146.1227396
  64.4114646 110.1867486 145.6138341  65.1942598 111.4823939 145.6341366
  56.1571675  97.3426479 145.3004536  55.4358261  97.9562446 145.1612009
  56.9464931  97.8784243 145.2221182  66.5998415 108.7886766 147.7506946
  65.6528751 108.6692117 147.6785273  66.9481188 107.9009264 147.8333207
  58.9597989  94.6780905 151.5745188  59.4832390  94.9243202 152.3371497
  58.7410322  95.5100940 151.1548325  54.3565270  96.9484580 139.4416313
  54.0277976  96.0681959 139.2591419  54.7104640  96.8932248 140.3292702
  63.6044849 108.5839482 143.9511298  63.4569811 107.6556190 144.1318868
  64.4298342 108.6059573 143.4668373  57.4707093  97.2357549 139.8091790
  57.8103165  97.7643471 139.0870399  57.9179213  97.5737956 140.5850357
  67.2078970 109.4068041 145.0376171  68.1325518 109.2010902 144.9000622
  67.0394274 109.1584442 145.9465512  60.1650534  95.6194600 149.2594858
  59.8247354  94.8202413 149.6615538  59.4589540  95.9196311 148.6871692
  60.8167005  92.7043913 147.7122181  61.6393075  92.2304391 147.5901072
  61.0605069  93.4834396 148.2120868  59.4575240  95.7332171 138.0085083
  60.1783602  96.1113424 137.5048800  58.8340544  96.4521048 138.1120061
  63.6006363  96.4377320 138.9443415  63.8169977  97.3201958 138.6432244
  63.1200430  96.0463533 138.2149057  58.3405584  99.3963033 145.5214160
  58.1950165  99.7103336 146.4138441  57.8630788 100.0147934 144.9685059
  60.2001967  96.3865581 145.5695050  60.1863536  95.4906675 145.2327347
  60.9174395  96.3936245 146.2033336  62.0528098  96.8202921 147.6148177
  61.7945876  97.7419992 147.6132507  61.5213138  96.4233356 148.3048641
  66.9974287 109.9253709 140.3938262  67.1711164 109.3600131 139.6412115
  67.4903178 110.7254603 140.2117752  52.8151246 101.9368378 148.4601821
  52.2704714 102.7128186 148.5922095  53.6930596 102.2839182 148.3020943
  59.6038863  95.2679962 140.8382620  59.7254774  94.3396608 141.0373507
  59.3140905  95.2818647 139.9260935  62.4730053  92.9534872 143.9749340
  62.4951750  93.0174205 143.0201319  62.8898112  92.1139381 144.1689846
  72.8513678 102.6890131 142.0128562  73.2944824 101.9397457 141.6147685
  71.9740188 102.6800268 141.6302294  67.9849459 109.2420473 137.4935161
  68.6800364 109.8627166 137.7122475  68.3272609 108.3915824 137.7687539
  53.6017268 101.0638274 151.3531978  52.8599004 101.2120909 151.9396608
  53.2810013 101.3246540 150.4898727  69.8840882 106.6920178 139.0222491
  70.4092206 107.0307451 138.2971811  69.7963235 105.7567194 138.8385626
  61.5460931 110.6054252 151.1512368  61.8548057 110.3603399 152.0235068
  62.3436413 110.8100891 150.6631238  61.5681543 112.7592162 143.3817745
  61.1286533 112.2668540 144.0750601  62.3189660 112.2165129 143.1409820
  54.0473882 108.9503703 143.3842373  54.8731902 108.6507474 143.0041016
  53.6967934 108.1811325 143.8332161  59.0155415 108.3030171 145.4540046
  58.3935424 107.6400876 145.1542274  59.6860282 108.3291303 144.7713694
  52.2482487 106.8690029 144.3431306  51.4114395 106.4412203 144.1615308
  52.2206132 107.0622472 145.2802097  59.0879943  96.7811959 155.0472552
  59.1368098  97.6574082 154.6650322  59.6302457  96.2389352 154.4744195
  69.5734788 107.3253082 154.3273689  68.7830332 107.3077221 153.7878189
  69.3368143 107.8641376 155.0822726  69.6932663 104.1745548 151.6406418
  69.7430668 104.0095556 152.5821941  69.5846587 103.3072808 151.2504299
  58.5768922 106.8534094 138.9298507  58.7257042 107.5369559 138.2765180
  59.3835365 106.8339184 139.4447963  66.9836426 100.1576477 152.9565725
  67.8846288 100.0182941 152.6649722  67.0584400 100.3230931 153.8963902
  61.3179231  97.5343331 151.8018911  60.4482540  97.8276897 151.5301499
  61.5538711  98.1183776 152.5226175  71.1950860 106.5942490 151.8848439
  70.9035668 106.9572471 152.7211900  70.5822991 105.8809498 151.7061772
  72.3946542 104.1595370 144.4051010  73.2293434 104.5985174 144.5688570
  72.5305671 103.6834023 143.5859255  69.4438048 101.7175105 150.3528497
  69.9192170 101.9102751 149.5447349  68.5203614 101.7734290 150.1071881
  56.3321555 102.8799272 139.9359576  56.0867597 101.9761602 140.1339786
  56.5017470 102.8816422 138.9939054  64.0218265  93.7522948 149.3184331
  64.5400209  94.4883975 148.9930820  63.6673398  94.0586941 150.1531090
  55.6017203  98.6127629 137.4345737  54.9086447  98.6871984 136.7785773
  55.3568954  97.8487973 137.9567254  64.2730859  90.1723231 144.8385228
  64.5532613  89.5046420 145.4645654  65.0581466  90.3652326 144.3259892
  62.0764328 109.3482225 136.4010254  61.5038295 109.9672412 135.9480726
  62.6497121 109.8981586 136.9350176  68.1439717  98.5940865 148.5856803
  69.0957140  98.6938962 148.6069027  67.9743168  97.8019133 149.0954887
  66.1654097  95.6796448 148.7716204  65.5704029  95.9601461 148.0762693
  65.8803794  96.1690349 149.5432945  65.2961587 109.6319375 137.5318836
  66.2292260 109.5664936 137.7351712  65.2084800 110.4675642 137.0733369
  67.9249604 108.9485245 134.4922784  67.8463236 108.6145109 135.3858542
  68.7459271 109.4407013 134.4914256  70.6227795 101.8146984 147.6999103
  70.5904115 100.8762985 147.8858786  71.2328419 101.8931021 146.9664928
  62.4611126 100.6843037 133.7426307  63.4070231 100.5549245 133.8114725
  62.0825371  99.9457699 134.2195735  70.7722284  98.6058028 147.7457386
  70.2561332  97.8216484 147.5587315  71.6562232  98.2776744 147.9103905
  68.4333011  92.3499043 143.7053199  68.2357832  92.0414132 144.5896530
  69.0432716  93.0760682 143.8351128  76.4404345 102.8762991 146.8405139
  77.1707734 102.6148279 147.4012843  75.8311291 102.1391713 146.8807207
  74.5219642 101.0170854 147.4379591  73.7952806 100.8826819 146.8296082
  74.1066929 101.3247682 148.2436309  62.3449819 104.7360784 155.2026964
  63.2652828 104.9139383 155.3967010  62.3099402 103.7916829 155.0506663
  60.6454043  98.6093014 133.6781192  59.7385499  98.3126126 133.7543906
  60.9230024  98.3122832 132.8115478  51.5631984  99.9299377 144.1280238
  51.2434768  99.0764685 143.8354612  51.0165412 100.1447955 144.8838206
  55.3411891 102.6461818 147.8449745  55.5597901 103.5778926 147.8637779
  55.7537665 102.2869793 148.6304549  62.2616109  93.1529903 139.8325433
  61.4516837  92.8076988 140.2080679  62.9500526  92.8437447 140.4213045
  64.1906657  92.2307950 141.4549730  64.7437696  92.6503404 142.1139753
  64.4276744  91.3043698 141.4972686  60.2139756  98.2195024 157.2352494
  60.1136483  99.1689381 157.1664585  59.9961299  97.8913263 156.3628564
  59.4152828  95.4679949 133.8193171  60.2771992  95.7934847 134.0788988
  59.6003172  94.6811445 133.3066237  51.4320244 103.5502289 146.0973360
  50.7383715 103.1356241 145.5843314  52.1793235 103.5922825 145.5006779
  67.5685464  94.3408475 140.9628394  66.9884133  94.9993279 140.5806447
  67.3021397  93.5185820 140.5515812  66.0189031  93.7413533 143.1649714
  66.5188809  93.8530068 142.3564033  66.6624639  93.4374586 143.8050523
  60.0771027 101.6492163 156.0517555  59.5938108 102.4492523 156.2581444
  60.1631966 101.6600108 155.0984999  53.3456986 103.4820542 143.9739375
  53.3227674 103.5808230 143.0221258  53.6557623 104.3285693 144.2956541
  56.0044364 105.5396697 148.0885989  56.9587618 105.5080640 148.0215921
  55.8056888 105.0787321 148.9036215  56.5943746 104.1097814 150.6556787
  57.4136635 104.6041892 150.6791624  56.8680554 103.1929782 150.6274354
  66.3510342  96.5008566 140.0184742  65.4636197  96.7858216 139.8004937
  66.7664331  96.3402329 139.1712019  69.7024878  96.5255087 143.7339082
  70.4785269  97.0151539 144.0063698  68.9773013  96.9513141 144.1910951
  72.1397437  97.2382706 144.7913022  72.7341928  96.9978442 144.0806331
  72.2124021  96.5189837 145.4186559  54.3594593 111.0816317 145.1056187
  54.2249061 110.3216718 144.5394185  53.9426655 111.8057217 144.6384976
  65.4953556 106.2653241 134.1132762  66.1989406 106.4703243 134.7290418
  64.7716205 106.8330002 134.3781846  66.3251366 102.0163102 140.2335033
  66.2686567 102.4731653 139.3942665  66.8779709 101.2553786 140.0557875
  70.1356172  97.8052834 141.0585152  69.8793106  97.4049469 141.8893360
  69.5109040  98.5196628 140.9335291  74.4468510 100.5448907 143.5656443
  73.8868068 100.6142096 144.3388006  73.8412013 100.3689892 142.8455940
  57.5163719 111.9785634 145.3174630  57.3996103 112.9231066 145.2153320
  56.6956165 111.6759196 145.7060429  67.4040253 106.7035770 136.1631222
  68.2385857 106.2716968 135.9808697  67.2424596 106.5317783 137.0908117
  67.0586145 103.2067883 137.5287562  67.0034949 103.0412154 136.5876006
  66.4332201 103.9143916 137.6849751  51.8478660  98.4435947 151.3548984
  52.4937524  97.9334901 151.8436209  51.6395811  99.1804629 151.9292409
  64.3732053 105.5116795 156.8541125  65.2423212 105.6857447 156.4927759
  63.8938804 106.3311212 156.7316854  60.3682271  92.7075992 137.1072880
  60.3560941  93.6517832 137.2641151  61.2605693  92.5246137 136.8132341
  58.5418233 112.6313896 148.5330558  59.4445479 112.6637506 148.8497053
  58.3155603 111.7014347 148.5476894  60.2971835 111.3844882 145.1940637
  59.3467466 111.3846744 145.0805009  60.6004321 110.6377617 144.6776671
  64.1834390  89.3018769 141.3618817  63.4166786  88.7477255 141.5075499
  64.5945095  89.3740637 142.2232969  56.1876151  95.5903564 155.4523998
  57.0507613  95.2340369 155.6627323  55.6141562  95.2517459 156.1399402
  76.0324528 117.2205421 146.2586399  76.6702938 117.1012168 145.5549739
  75.9145371 118.1686265 146.3174351  72.8414235 117.1732849 146.1947924
  72.5032746 117.0573914 145.3068459  73.7104003 116.7724014 146.1748930
  68.7001050 119.0268325 142.1844815  68.1365915 118.9358262 141.4161103
  68.5853445 118.2068230 142.6647307  73.3234018 118.3267701 152.1534129
  73.3122658 117.9320499 151.2814633  73.4854657 117.5933773 152.7467901
  66.2465482 120.5219517 145.0229035  67.0386774 120.1810342 144.6075335
  66.4862132 120.6314492 145.9431189  74.2800609 122.6939293 137.4959280
  73.6288589 123.2793373 137.1093294  75.0744972 123.2245488 137.5554317
  68.2056236 119.7828430 137.8946414  68.9787112 119.2357417 137.7559290
  68.5581635 120.6472680 138.1060875  70.0441279 121.1104812 151.1013313
  69.7531145 122.0150443 150.9859980  70.6798263 121.1521340 151.8157383
  70.9697486 118.4881661 147.6914673  71.5661058 118.2637683 146.9771636
  71.0272457 117.7466406 148.2940121  70.5422514 115.9421096 135.5264864
  70.7948035 115.4202618 134.7648327  69.6047073 115.7787242 135.6291548
  75.5865797 114.9456875 143.3339607  76.3728886 114.5276298 142.9830024
  75.8504501 115.8502967 143.5021256  75.7575874 120.3829725 138.0328264
  75.1221707 120.4564352 138.7449169  75.4273281 120.9723324 137.3547343
  80.9874224 114.8832108 144.2372586  81.7199396 114.3131325 144.4710415
  80.2313580 114.4953708 144.6779091  70.2618803 117.8449202 137.7289239
  70.1455061 117.1694106 138.3970323  70.3721063 117.3581576 136.9121392
  72.6050344 117.3059349 141.4335928  72.2408551 116.7789970 142.1448850
  73.4617460 116.9157818 141.2602414  78.5099644 108.5953682 148.6967194
  78.1782969 109.4649093 148.4728409  77.9145258 108.2789966 149.3761225
  72.2455831 112.3349249 136.4297277  72.4130233 113.2029485 136.7967748
  72.0553000 112.4976531 135.5058566  75.0031164 120.7966228 148.0963107
  74.7031887 121.6991267 147.9878914  74.6582223 120.5298411 148.9484260
  68.4543645 117.2480025 144.1299811  67.5294142 117.1156239 144.3377503
  68.7028058 118.0274244 144.6269754  78.4028308 113.3148768 145.7760544
  77.4945185 113.2464177 145.4819305  78.3515903 113.7920713 146.6042370
  72.2245051 114.7906907 137.4143944  72.1044677 115.2363957 138.2529424
  71.5297640 115.1392224 136.8557482  65.8152456 116.8913298 144.9643601
  65.9444837 117.1447777 145.8783012  65.1349908 117.4841006 144.6448256
  69.9851944 127.5610548 141.0634075  69.9075973 128.5118373 141.1422555
  69.3813587 127.2156421 141.7209001  72.4769173 114.7338414 153.7195442
  71.7002507 115.2932334 153.7098306  73.1159736 115.2195197 154.2410312
  80.2689954 111.5165207 147.5538418  79.6264334 111.8097740 146.9078213
  79.7644883 111.4018127 148.3591615  77.9230118 115.2628380 138.2424278
  78.8347974 115.4955767 138.0671975  77.4139765 115.8465424 137.6799356
  70.7315546 117.5423867 153.2813409  71.4730230 118.0808911 153.0048232
  70.0252531 118.1690156 153.4384960  72.5601955 114.6225614 149.2519127
  73.4063151 115.0465028 149.3953776  72.5000593 113.9659239 149.9457690
  76.5299700 120.2454198 145.6337859  75.9008562 120.4099912 144.9313927
  76.1425362 120.6595808 146.4048823  80.4088932 121.1808636 142.9882223
  79.7239970 121.5607537 142.4379256  80.4932781 121.7903963 143.7214171
  75.7101401 112.2829983 150.9100301  75.4662333 113.0372043 150.3734576
  75.9861331 112.6615330 151.7447548  77.6639863 118.8268595 149.5877566
  77.8756759 119.4700355 148.9111947  77.6169612 117.9930912 149.1199496
  75.2666092 111.4386416 146.4914138  74.4050571 111.7367669 146.7830876
  75.2928527 111.6556815 145.5595171  72.0827662 119.9828606 142.8987944
  72.5466007 120.2616309 142.1092567  71.8184460 119.0812051 142.7161035
  68.9751743 119.5300088 145.8367707  69.5453100 119.9587356 145.1985192
  69.5659855 119.2482673 146.5351893  71.0196548 116.1051759 139.7077509
  71.7220591 116.5572802 140.1751436  70.6877176 115.4635578 140.3357402
  69.4676909 114.6963515 154.0828719  68.8375570 115.3779796 154.3164115
  69.3612997 114.5846597 153.1381857  64.7621882 114.3635311 145.0094643
  63.9720936 114.6192840 144.5334753  65.2533129 115.1783649 145.1146683
  78.7785691 121.7040551 147.7599924  79.6003135 121.3020738 147.4782605
  78.7748094 121.6008785 148.7116039  66.7136627 114.7279891 141.9678120
  65.9167791 114.8398585 142.4861615  66.4862219 115.0666543 141.1019010
  72.5442295 121.2524594 149.9160634  72.6086727 121.7145001 150.7518806
  71.8353219 120.6221959 150.0442944  63.0459585 114.6165802 147.4409634
  63.2967623 115.5012812 147.7067210  63.5819133 114.4370403 146.6684725
  86.8691684 118.0479299 144.1084895  86.1155393 117.4786697 143.9528900
  87.0039226 118.0141963 145.0555530  72.2590312 122.9192701 139.7839614
  72.1235987 123.7644237 140.2124462  72.8000125 123.1211979 139.0205548
  68.7457652 108.9984281 156.4453970  68.3524598 108.4450480 157.1201614
  69.5623792 109.3094860 156.8360487  65.7119710 120.4368139 140.3567540
  66.2244230 121.2311390 140.5073104  66.3642423 119.7394430 140.2901141
  67.5214595 123.5533896 142.4390293  67.6981223 124.4751860 142.2511277
  68.3171428 123.2392315 142.8684673  71.6625613 110.4142160 154.0374226
  72.4035327 111.0149313 153.9578689  71.8943536 109.6719798 153.4792269
  66.8066951 115.5998527 152.3152456  66.6920466 114.6983785 152.6159555
  65.9511469 115.8462224 151.9637273  68.6445910 125.0712069 148.4400635
  69.1953335 124.9429133 147.6677629  67.8057386 125.3706958 148.0895528
  75.6082776 106.4423263 148.3138508  75.2647045 107.3324905 148.2377619
  75.9761739 106.2524921 147.4508093  63.6768627 118.7656794 141.1327110
  64.5143849 119.1753802 140.9160818  63.8546894 117.8256236 141.1027304
  75.5733059 116.4331874 136.8210943  75.0579682 117.2036479 137.0599330
  75.3010367 115.7597010 137.4444005  73.1580170 111.2781575 141.8796181
  72.3021766 110.8888425 141.7001820  73.5707122 111.3573536 141.0195967
  74.6879316 108.8127918 146.2787741  74.1844112 108.7758053 145.4655546
  74.9809923 109.7220661 146.3384398  70.9322202 108.8966648 145.2853923
  71.7975199 108.7009457 144.9259812  70.9999711 108.6677000 146.2123280
  80.5467333 119.1864229 138.7564117  79.7696776 118.8475388 138.3119279
  81.2258814 119.1916852 138.0819082  75.3619362 114.3058966 138.6470724
  75.0569498 114.6205116 139.4980867  76.3149804 114.3840386 138.6898057
  73.8065794 120.4649190 140.2963678  73.2787155 119.7301949 139.9836916
  73.3053297 121.2423866 140.0503647  78.7858640 118.6598210 145.4130725
  78.1282314 119.3497472 145.5010853  79.5899039 119.0494642 145.7564711
  68.5384521 111.1268856 142.6570290  69.1128273 110.9044037 141.9243483
  69.1255504 111.1957550 143.4098891  77.5964099 117.0142583 143.4634666
  78.1095980 117.6472575 143.9656376  78.2465323 116.4143778 143.0978026
  68.8654109 113.1573317 136.6766175  68.0291421 113.4948004 136.9975450
  68.7258878 113.0222297 135.7393312  70.8407189 108.0010105 141.3845359
  70.1871601 107.6859122 140.7601974  70.7987663 107.3785845 142.1105182
  71.9518394 118.2829400 133.2998651  71.0445456 118.0518653 133.4989800
  72.4489426 117.4867019 133.4872633  74.8586473 126.9926907 136.2195337
  74.1848172 127.2958604 136.8280295  75.2452295 127.7955987 135.8700794
  74.0744929 114.4892038 145.7093007  73.1567491 114.7106985 145.5514695
  74.4905073 114.5638349 144.8504714  74.8579977 115.8883454 140.8395687
  75.6051796 116.4004851 140.5302809  75.1271567 115.5667507 141.7000081
  73.1306627 118.3841995 137.8222641  72.2217847 118.1001028 137.9195111
  73.1601711 118.8041073 136.9625948  78.3625895 121.9948584 141.5913809
  77.9088222 121.1539494 141.6478999  77.7319862 122.6309983 141.9288589
  77.3058814 112.9240570 142.8214476  76.5681571 112.4117957 143.1524719
  77.5585588 112.4840952 142.0097753  76.8058834 123.8325081 142.5263627
  77.0981808 124.3930138 141.8075993  77.3157455 124.1253642 143.2816786
  77.4070442 105.7016822 143.4156246  77.7129319 104.8414186 143.1282161
  78.1323047 106.2934443 143.2155240  63.6994798 116.1047509 141.8037844
  63.5019198 115.5116870 141.0788910  63.1441462 115.7999719 142.5213782
  71.6791521 115.9970615 143.9232437  71.7340131 115.0444452 143.8474913
  70.8682723 116.1530055 144.4073735  72.8282715 119.9250738 135.1610720
  72.3902145 119.2086597 134.7016357  73.5693156 120.1526853 134.5995811
  69.6183881 114.6147675 141.6822816  68.8051747 114.9141846 142.0888008
  70.1142876 114.2203364 142.3997298  71.7692459 124.6105432 143.6157080
  71.7268638 124.8366278 142.6865612  72.6855158 124.3768807 143.7642881
  75.2158093 115.0789500 150.5137709  75.5707481 115.3060973 151.3732175
  75.8630224 115.4107876 149.8914965  80.9455830 118.2007936 141.2187038
  80.8073729 118.3909531 140.2908228  80.5892049 118.9627318 141.6755090
  69.1097956 112.1866031 147.2984051  69.7497335 112.0454790 146.6007014
  68.2775487 111.9000544 146.9222653  80.9725210 120.2684463 146.2298310
  81.4061716 120.1759752 147.0781364  81.6856790 120.2441963 145.5918326
  69.8858260 121.4868461 143.4119043  70.6798859 120.9918781 143.2101618
  69.1749952 120.9586324 143.0486749  74.7053105 123.8686557 147.7631411
  74.7590127 124.4377493 148.5309127  73.8367886 124.0388442 147.3985448
  66.1941024 115.6311543 139.4878796  65.2638612 115.5695998 139.7048758
  66.2898496 115.1087496 138.6915437  66.1126573 112.1566356 142.0757037
  66.3733390 113.0711689 141.9666198  66.9343745 111.6890798 142.2253650
  67.5851498 113.5704113 149.2455862  68.2574551 113.3621475 148.5968511
  66.7581284 113.3726199 148.8061094  73.4877070 110.1966054 151.2621523
  72.8404985 110.8956003 151.1685999  74.2578085 110.6302198 151.6297771
  73.6641204 118.0346819 149.3218342  74.5933264 118.1857978 149.1487310
  73.2432234 118.1230839 148.4666989  72.4629536 122.0597483 147.0916880
  72.3240622 121.6916267 147.9642818  71.6744132 122.5745123 146.9200838
  73.0577688 127.1606580 138.4342417  73.2329444 126.6894623 139.2488039
  72.3710476 127.7872346 138.6623677  74.0134751 121.4379086 144.4805718
  73.6784584 121.3979856 145.3763368  73.5138697 120.7723802 144.0076128
  67.9878995 116.8446716 150.0058299  67.8498793 116.1126955 150.6069838
  68.8983919 116.7555616 149.7242487  76.9493943 118.7835120 134.7542778
  76.3323113 118.0581948 134.6575830  76.4810431 119.5444480 134.4109852
  70.6161296 116.5566675 149.4941979  71.3260914 115.9159867 149.4528597
  70.5730604 116.8079570 150.4168159  69.3290230 113.5431893 151.3137618
  68.7927587 113.0922631 151.9659214  68.7406938 113.6777802 150.5708082
  67.6238773 130.3095942 145.2082277  67.8635372 130.9414466 145.8861295
  66.7807970 129.9583982 145.4947636  68.7392489 113.0020544 133.8764082
  67.8621955 112.8809345 133.5126328  69.2150242 112.2106623 133.6242970
  60.2594629 117.7897704 143.9705589  60.9465669 117.4759434 143.3826604
  60.1042758 118.6939069 143.6972840  65.0629351 112.6787901 148.3990613
  64.9787540 112.0713570 147.6641023  64.2412057 113.1696919 148.4000109
  72.1366635 126.1175065 147.6123781  72.0636807 126.9230036 148.1243085
  71.6944028 126.3167031 146.7871802  71.9256415 125.3546835 141.1226602
  71.1423937 125.8968515 141.2164827  72.6249160 125.8720814 141.5220843
  75.2353065 111.1641464 143.7660808  75.7321764 110.4111427 143.4461878
  74.4640046 111.2005781 143.2004017  83.0882822 116.8681830 145.4079099
  83.0772699 117.7506545 145.0373032  82.2200202 116.5153381 145.2133636
  76.3182846 119.9213151 141.3399231  75.3839124 120.0414614 141.1703935
  76.4959514 119.0185618 141.0759241  71.8188034 113.3058847 143.4932492
  71.4485821 112.7529888 144.1813398  72.3147126 112.7016981 142.9407492
  79.7055397 115.7630471 141.8749265  80.1715849 116.5958462 141.8009568
  80.1562897 115.2975452 142.5794524  69.6477232 123.7656342 150.5887510
  70.3486692 124.3992825 150.7416904  69.1772347 124.1071074 149.8283150
  77.7731628 122.1074292 138.8735417  78.0491472 121.9930887 139.7829291
  76.9036127 121.7091777 138.8347590  77.6772060 108.1311058 145.9140167
  76.7635139 108.3615285 146.0822373  78.1065161 108.2149502 146.7654199
  77.4478518 116.3200950 148.4140061  76.7949968 116.5676857 147.7592513
  77.8258898 115.5065088 148.0802538  74.4085692 126.3560643 142.5168231
  74.5908087 125.5382299 142.9795983  75.2318678 126.5728335 142.0793121
  74.7427858 125.2828828 139.7783279  75.2715624 124.7721283 139.1653441
  75.0056077 124.9671358 140.6428812  65.2444950 123.2992697 147.5218613
  65.8298387 122.5536385 147.6546517  65.0469789 123.6096654 148.4055277
  68.0983606 126.3343945 142.5381055  67.4293981 126.8190072 142.0545095
  67.9596475 126.5813165 143.4524434  59.8362605 115.8698298 146.2423056
  59.8746705 115.3361888 147.0360174  59.3302898 115.3433503 145.6234033
  67.2153367 110.7162838 149.7385598  67.2794694 111.5777669 149.3262996
  67.1520488 110.1036840 149.0057957  66.6905640 112.7885971 153.3858633
  67.3177679 112.4063048 153.9996157  65.8333559 112.5700172 153.7514325
  63.4671183 114.5962400 139.3176987  63.7624624 113.6873078 139.2644041
  62.5659218 114.5750139 138.9957990  75.3757261 126.3169664 146.1227396
  75.2508401 125.5159404 145.6138341  76.0336352 126.8115857 145.6341366
  66.9965430 112.6718396 145.3004536  66.2752015 113.2854364 145.1612009
  67.7858685 113.2076161 145.2221182  77.4392170 124.1178684 147.7506946
  76.4922505 123.9984035 147.6785273  77.7874943 123.2301182 147.8333207
  69.7991743 110.0072823 151.5745188  70.3226145 110.2535119 152.3371497
  69.5804076 110.8392858 151.1548325  65.1959024 112.2776497 139.4416313
  64.8671730 111.3973876 139.2591419  65.5498395 112.2224166 140.3292702
  74.4438603 123.9131400 143.9511298  74.2963565 122.9848107 144.1318868
  75.2692097 123.9351491 143.4668373  68.3100847 112.5649467 139.8091790
  68.6496920 113.0935388 139.0870399  68.7572968 112.9029873 140.5850357
  78.0472725 124.7359959 145.0376171  78.9719272 124.5302820 144.9000622
  77.8788028 124.4876360 145.9465512  71.0044288 110.9486518 149.2594858
  70.6641109 110.1494331 149.6615538  70.2983294 111.2488229 148.6871692
  71.6560760 108.0335830 147.7122181  72.4786829 107.5596308 147.5901072
  71.8998824 108.8126314 148.2120868  70.2968994 111.0624089 138.0085083
  71.0177357 111.4405342 137.5048800  69.6734299 111.7812966 138.1120061
  74.4400117 111.7669238 138.9443415  74.6563732 112.6493876 138.6432244
  73.9594185 111.3755451 138.2149057  69.1799339 114.7254951 145.5214160
  69.0343919 115.0395254 146.4138441  68.7024542 115.3439851 144.9685059
  71.0395722 111.7157499 145.5695050  71.0257290 110.8198592 145.2327347
  71.7568150 111.7228163 146.2033336  72.8921852 112.1494839 147.6148177
  72.6339630 113.0711910 147.6132507  72.3606893 111.7525274 148.3048641
  77.8368041 125.2545626 140.3938262  78.0104919 124.6892049 139.6412115
  78.3296932 126.0546521 140.2117752  63.6545001 117.2660295 148.4601821
  63.1098469 118.0420103 148.5922095  64.5324351 117.6131100 148.3020943
  70.4432618 110.5971879 140.8382620  70.5648529 109.6688525 141.0373507
  70.1534660 110.6110565 139.9260935  73.3123808 108.2826790 143.9749340
  73.3345505 108.3466123 143.0201319  73.7291867 107.4431298 144.1689846
  83.6907432 118.0182049 142.0128562  84.1338578 117.2689374 141.6147685
  82.8133943 118.0092186 141.6302294  78.8243214 124.5712391 137.4935161
  79.5194118 125.1919083 137.7122475  79.1666364 123.7207742 137.7687539
  64.4411023 116.3930192 151.3531978  63.6992759 116.5412827 151.9396608
  64.1203767 116.6538457 150.4898727  80.7234637 122.0212096 139.0222491
  81.2485961 122.3599369 138.2971811  80.6356989 121.0859111 138.8385626
  72.4075297 128.0884079 143.3817745  71.9680288 127.5960458 144.0750601
  73.1583414 127.5457047 143.1409820  64.8867636 124.2795620 143.3842373
  65.7125656 123.9799392 143.0041016  64.5361688 123.5103243 143.8332161
  69.8549170 123.6322089 145.4540046  69.2329179 122.9692794 145.1542274
  70.5254037 123.6583220 144.7713694  63.0876241 122.1981947 144.3431306
  62.2508150 121.7704121 144.1615308  63.0599887 122.3914390 145.2802097
  69.9273697 112.1103877 155.0472552  69.9761853 112.9865999 154.6650322
  70.4696211 111.5681270 154.4744195  69.4162677 122.1826012 138.9298507
  69.5650797 122.8661476 138.2765180  70.2229120 122.1631102 139.4447963
  72.1572986 112.8635249 151.8018911  71.2876295 113.1568815 151.5301499
  72.3932466 113.4475694 152.5226175  83.2340297 119.4887287 144.4051010
  84.0687188 119.9277092 144.5688570  83.3699426 119.0125941 143.5859255
  80.2831803 117.0467022 150.3528497  80.7585924 117.2394669 149.5447349
  79.3597368 117.1026208 150.1071881  67.1715310 118.2091190 139.9359576
  66.9261351 117.3053519 140.1339786  67.3411224 118.2108340 138.9939054
  74.8612019 109.0814866 149.3184331  75.3793963 109.8175893 148.9930820
  74.5067152 109.3878859 150.1531090  66.4410957 113.9419547 137.4345737
  65.7480202 114.0163902 136.7785773  66.1962709 113.1779891 137.9567254
  75.1124614 105.5015148 144.8385228  75.3926367 104.8338337 145.4645654
  75.8975220 105.6944244 144.3259892  72.9158082 124.6774142 136.4010254
  72.3432049 125.2964329 135.9480726  73.4890876 125.2273504 136.9350176
  78.9833472 113.9232782 148.5856803  79.9350895 114.0230880 148.6069027
  78.8136922 113.1311051 149.0954887  77.0047851 111.0088366 148.7716204
  76.4097783 111.2893378 148.0762693  76.7197548 111.4982267 149.5432945
  76.1355342 124.9611292 137.5318836  77.0686015 124.8956854 137.7351712
  76.0478555 125.7967559 137.0733369  78.7643359 124.2777163 134.4922784
  78.6856990 123.9437026 135.3858542  79.5853025 124.7698931 134.4914256
  81.4621550 117.1438902 147.6999103  81.4297870 116.2054903 147.8858786
  82.0722173 117.2222939 146.9664928  73.3004881 116.0134955 133.7426307
  74.2463985 115.8841163 133.8114725  72.9219126 115.2749617 134.2195735
  81.6116038 113.9349946 147.7457386  81.0955087 113.1508402 147.5587315
  82.4955987 113.6068662 147.9103905  79.2726765 107.6790961 143.7053199
  79.0751586 107.3706049 144.5896530  79.8826471 108.4052600 143.8351128
  87.2798100 118.2054909 146.8405139  88.0101488 117.9440197 147.4012843
  86.6705045 117.4683631 146.8807207  85.3613397 116.3462772 147.4379591
  84.6346560 116.2118736 146.8296082  84.9460684 116.6539600 148.2436309
  71.4847798 113.9384931 133.6781192  70.5779253 113.6418044 133.7543906
  71.7623779 113.6414750 132.8115478  62.4025738 115.2591295 144.1280238
  62.0828522 114.4056603 143.8354612  61.8559166 115.4739873 144.8838206
  66.1805646 117.9753736 147.8449745  66.3991655 118.9070844 147.8637779
  66.5931419 117.6161710 148.6304549  73.1009863 108.4821821 139.8325433
  72.2910592 108.1368906 140.2080679  73.7894280 108.1729365 140.4213045
  75.0300412 107.5599868 141.4549730  75.5831450 107.9795321 142.1139753
  75.2670498 106.6335616 141.4972686  70.2546582 110.7971867 133.8193171
  71.1165746 111.1226765 134.0788988  70.4396926 110.0103363 133.3066237
  62.2713998 118.8794206 146.0973360  61.5777470 118.4648159 145.5843314
  63.0186989 118.9214743 145.5006779  78.4079219 109.6700393 140.9628394
  77.8277888 110.3285197 140.5806447  78.1415151 108.8477738 140.5515812
  76.8582785 109.0705451 143.1649714  77.3582564 109.1821985 142.3564033
  77.5018393 108.7666504 143.8050523  64.1850741 118.8112460 143.9739375
  64.1621429 118.9100147 143.0221258  64.4951377 119.6577611 144.2956541
  66.8438118 120.8688615 148.0885989  67.7981372 120.8372557 148.0215921
  66.6450642 120.4079239 148.9036215  67.4337501 119.4389731 150.6556787
  68.2530390 119.9333810 150.6791624  67.7074308 118.5221699 150.6274354
  77.1904097 111.8300484 140.0184742  76.3029952 112.1150134 139.8004937
  77.6058086 111.6694247 139.1712019  80.5418633 111.8547004 143.7339082
  81.3179023 112.3443457 144.0063698  79.8166767 112.2805059 144.1910951
  82.9791192 112.5674624 144.7913022  83.5735682 112.3270360 144.0806331
  83.0517775 111.8481754 145.4186559  65.1988347 126.4108235 145.1056187
  65.0642815 125.6508636 144.5394185  64.7820410 127.1349135 144.6384976
  76.3347310 121.5945158 134.1132762  77.0383160 121.7995161 134.7290418
  75.6109959 122.1621920 134.3781846  77.1645121 117.3455019 140.2335033
  77.1080322 117.8023571 139.3942665  77.7173463 116.5845704 140.0557875
  80.9749926 113.1344751 141.0585152  80.7186861 112.7341387 141.8893360
  80.3502795 113.8488545 140.9335291  85.2862264 115.8740825 143.5656443
  84.7261822 115.9434014 144.3388006  84.6805768 115.6981809 142.8455940
  68.3557473 127.3077552 145.3174630  68.2389857 128.2522984 145.2153320
  67.5349919 127.0051113 145.7060429  78.2434008 122.0327687 136.1631222
  79.0779612 121.6008886 135.9808697  78.0818351 121.8609701 137.0908117
  77.8979900 118.5359801 137.5287562  77.8428704 118.3704072 136.5876006
  77.2725955 119.2435834 137.6849751  62.6872415 113.7727865 151.3548984
  63.3331278 113.2626819 151.8436209  62.4789566 114.5096547 151.9292409
  71.2076025 108.0367910 137.1072880  71.1954695 108.9809750 137.2641151
  72.0999447 107.8538055 136.8132341  69.3811987 127.9605814 148.5330558
  70.2839234 127.9929424 148.8497053  69.1549357 127.0306265 148.5476894
  71.1365589 126.7136800 145.1940637  70.1861220 126.7138662 145.0805009
  71.4398075 125.9669535 144.6776671  75.0228145 104.6310686 141.3618817
  74.2560541 104.0769173 141.5075499  75.4338850 104.7032555 142.2232969
  67.0269906 110.9195482 155.4523998  67.8901367 110.5632287 155.6627323
  66.4535317 110.5809377 156.1399402  79.0449991 135.1120348 137.8946414
  79.8180867 134.5649335 137.7559290  79.3975390 135.9764597 138.1060875
  81.3816268 131.2713014 135.5264864  81.6341789 130.7494535 134.7648327
  80.4440828 131.1079159 135.6291548  81.1012557 133.1741120 137.7289239
  80.9848815 132.4986023 138.3970323  81.2114817 132.6873494 136.9121392
  83.0849585 127.6641167 136.4297277  83.2523987 128.5321403 136.7967748
  82.8946754 127.8268448 135.5058566  83.0638806 130.1198824 137.4143944
  82.9438431 130.5655875 138.2529424  82.3691394 130.4684142 136.8557482
  88.7623872 130.5920297 138.2424278  89.6741728 130.8247684 138.0671975
  88.2533519 131.1757342 137.6799356  81.8590302 131.4343676 139.7077509
  82.5614346 131.8864720 140.1751436  81.5270931 130.7927495 140.3357402
  75.6015636 129.6927229 145.0094643  74.8114690 129.9484758 144.5334753
  76.0926884 130.5075567 145.1146683  77.5530382 130.0571808 141.9678120
  76.7561545 130.1690502 142.4861615  77.3255974 130.3958460 141.1019010
  76.5513464 135.7660057 140.3567540  77.0637985 136.5603307 140.5073104
  77.2036177 135.0686347 140.2901141  74.5162381 134.0948711 141.1327110
  75.3537603 134.5045720 140.9160818  74.6940649 133.1548153 141.1027304
  86.4126813 131.7623792 136.8210943  85.8973437 132.5328397 137.0599330
  86.1404122 131.0888928 137.4444005  83.9973924 126.6073493 141.8796181
  83.1415521 126.2180343 141.7001820  84.4100876 126.6865454 141.0195967
  81.7715957 124.2258566 145.2853923  82.6368954 124.0301374 144.9259812
  81.8393466 123.9968917 146.2123280  86.2013116 129.6350884 138.6470724
  85.8963252 129.9497033 139.4980867  87.1543559 129.7132304 138.6898057
  79.3778276 126.4560774 142.6570290  79.9522028 126.2335955 141.9243483
  79.9649258 126.5249468 143.4098891  79.7047863 128.4865235 136.6766175
  78.8685175 128.8239921 136.9975450  79.5652633 128.3514214 135.7393312
  81.6800944 123.3302023 141.3845359  81.0265356 123.0151040 140.7601974
  81.6381418 122.7077763 142.1105182  82.7912148 133.6121318 133.2998651
  81.8839210 133.3810571 133.4989800  83.2883180 132.8158937 133.4872633
  83.9700382 133.7133912 137.8222641  83.0611601 133.4292945 137.9195111
  83.9995466 134.1332991 136.9625948  88.2464196 121.0308740 143.4156246
  88.5523073 120.1706103 143.1282161  88.9716801 121.6226360 143.2155240
  74.5388552 131.4339427 141.8037844  74.3412952 130.8408787 141.0788910
  73.9835216 131.1291637 142.5213782  83.6676470 135.2542656 135.1610720
  83.2295900 134.5378515 134.7016357  84.4086911 135.4818771 134.5995811
  80.4577636 129.9439593 141.6822816  79.6445501 130.2433763 142.0888008
  80.9536630 129.5495282 142.3997298  77.0334778 130.9603461 139.4878796
  76.1032366 130.8987916 139.7048758  77.1292250 130.4379413 138.6915437
  76.9520327 127.4858273 142.0757037  77.2127144 128.4003607 141.9666198
  77.7737499 127.0182716 142.2253650  87.7887697 134.1127038 134.7542778
  87.1716868 133.3873866 134.6575830  87.3204186 134.8736398 134.4109852
  79.5786243 128.3312462 133.8764082  78.7015710 128.2101263 133.5126328
  80.0543996 127.5398540 133.6242970  71.0988383 133.1189622 143.9705589
  71.7859423 132.8051352 143.3826604  70.9436512 134.0230986 143.6972840
  86.0746819 126.4933382 143.7660808  86.5715519 125.7403344 143.4461878
  85.3033801 126.5297699 143.2004017  82.6581788 128.6350765 143.4932492
  82.2879576 128.0821805 144.1813398  83.1540881 128.0308898 142.9407492
  70.6756360 131.1990215 146.2423056  70.7140459 130.6653806 147.0360174
  70.1696652 130.6725421 145.6234033  74.3064937 129.9254317 139.3176987
  74.6018378 129.0164996 139.2644041  73.4052973 129.9042057 138.9957990
  77.8359184 128.0010314 145.3004536  77.1145770 128.6146282 145.1612009
  78.6252440 128.5368079 145.2221182  76.0352779 127.6068415 139.4416313
  75.7065485 126.7265794 139.2591419  76.3892149 127.5516084 140.3292702
  79.1494602 127.8941385 139.8091790  79.4890674 128.4227306 139.0870399
  79.5966722 128.2321791 140.5850357  81.1362749 126.3916006 138.0085083
  81.8571111 126.7697259 137.5048800  80.5128053 127.1104883 138.1120061
  85.2793872 127.0961155 138.9443415  85.4957486 127.9785793 138.6432244
  84.7987939 126.7047369 138.2149057  81.2826372 125.9263797 140.8382620
  81.4042283 124.9980443 141.0373507  80.9928414 125.9402483 139.9260935
  84.1517562 123.6118707 143.9749340  84.1739259 123.6758040 143.0201319
  84.5685621 122.7723216 144.1689846  80.2556431 137.5117930 138.9298507
  80.4044551 138.1953394 138.2765180  81.0622874 137.4923020 139.4447963
  78.0109064 133.5383107 139.9359576  77.7655106 132.6345437 140.1339786
  78.1804979 133.5400258 138.9939054  77.2804712 129.2711465 137.4345737
  76.5873956 129.3455820 136.7785773  77.0356463 128.5071808 137.9567254
  85.9518368 120.8307066 144.8385228  86.2320122 120.1630255 145.4645654
  86.7368975 121.0236162 144.3259892  84.1398635 131.3426873 133.7426307
  85.0857740 131.2133081 133.8114725  83.7612880 130.6041535 134.2195735
  82.3241552 129.2676849 133.6781192  81.4173008 128.9709962 133.7543906
  82.6017533 128.9706667 132.8115478  73.2419493 130.5883213 144.1280238
  72.9222277 129.7348521 143.8354612  72.6952921 130.8031791 144.8838206
  83.9403618 123.8113739 139.8325433  83.1304346 123.4660824 140.2080679
  84.6288035 123.5021283 140.4213045  85.8694166 122.8891786 141.4549730
  86.4225205 123.3087239 142.1139753  86.1064253 121.9627534 141.4972686
  81.0940337 126.1263784 133.8193171  81.9559501 126.4518683 134.0788988
  81.2790681 125.3395280 133.3066237  89.2472973 124.9992311 140.9628394
  88.6671642 125.6577115 140.5806447  88.9808906 124.1769655 140.5515812
  87.6976540 124.3997369 143.1649714  88.1976318 124.5113903 142.3564033
  88.3412148 124.0958421 143.8050523  88.0297851 127.1592401 140.0184742
  87.1423706 127.4442052 139.8004937  88.4451840 126.9986165 139.1712019
  87.1741065 136.9237076 134.1132762  87.8776915 137.1287078 134.7290418
  86.4503714 137.4913838 134.3781846  88.7373654 133.8651718 137.5287562
  88.6822458 133.6995990 136.5876006  88.1119710 134.5727751 137.6849751
  82.0469780 123.3659827 137.1072880  82.0348450 124.3101667 137.2641151
  82.9393202 123.1829973 136.8132341  85.8621899 119.9602604 141.3618817
  85.0954295 119.4061091 141.5075499  86.2732604 120.0324473 142.2232969
  30.9225592  38.3833745 124.2204586  30.2713572  38.9687825 123.8338600
  31.7169955  38.9139940 124.2799624  24.8481219  35.4722882 124.6191721
  25.6212095  34.9251869 124.4804597  25.2006618  36.3367131 124.8306182
  27.1847497  31.6315548 122.2510171  27.4373018  31.1097069 121.4893634
  26.2472056  31.4681694 122.3536854  32.4000857  36.0724177 124.7573571
  31.7646690  36.1458803 125.4694475  32.0698264  36.6617776 124.0792650
  26.9043786  33.5343654 124.4534546  26.7880044  32.8588558 125.1215630
  27.0146046  33.0476028 123.6366699  28.8880814  28.0243701 123.1542583
  29.0555216  28.8923937 123.5213054  28.6977983  28.1870983 122.2303873
  28.8670035  30.4801358 124.1389250  28.7469660  30.9258409 124.9774730
  28.1722623  30.8286676 123.5802788  26.6276927  43.2505000 127.7879381
  26.5500957  44.2012825 127.8667862  26.0238570  42.9050873 128.4454308
  34.5655101  30.9522832 124.9669584  35.4772957  31.1850218 124.7917282
  34.0564748  31.5359876 124.4044663  37.0513915  36.8703088 129.7127529
  36.3664953  37.2501989 129.1624563  37.1357764  37.4798415 130.4459477
  43.5116668  33.7373751 130.8330202  42.7580376  33.1681149 130.6774206
  43.6464209  33.7036415 131.7800836  28.9015296  38.6087153 126.5084921
  28.7660971  39.4538689 126.9369769  29.4425108  38.8106431 125.7450855
  32.2158042  32.1226326 123.5456250  31.7004666  32.8930931 123.7844637
  31.9435351  31.4491462 124.1689311  37.1892316  34.8758681 125.4809423
  36.4121759  34.5369840 125.0364585  37.8683797  34.8811304 124.8064388
  32.0044345  29.9953418 125.3716031  31.6994481  30.3099567 126.2226174
  32.9574787  30.0734838 125.4143364  30.4490777  36.1543642 127.0208985
  29.9212139  35.4196401 126.7082222  29.9478280  36.9318318 126.7748953
  28.5943377  33.9723852 120.0243958  27.6870439  33.7413105 120.2235107
  29.0914409  33.1761471 120.2117939  31.5011456  42.6821359 122.9440644
  30.8273155  42.9853056 123.5525602  31.8877278  43.4850439 122.5946101
  29.7731611  34.0736447 124.5467948  28.8642830  33.7895480 124.6440418
  29.8026695  34.4935525 123.6871255  35.0050878  37.6843036 128.3159116
  34.5513205  36.8433946 128.3724306  34.3744845  38.3204435 128.6533896
  33.4483817  39.5219533 129.2508934  33.7406792  40.0824590 128.5321299
  33.9582438  39.8148094 130.0062093  29.4707699  35.6145190 121.8856027
  29.0327128  34.8981049 121.4261664  30.2118139  35.8421305 121.3241118
  28.4117443  40.2999884 130.3402387  28.3693621  40.5260730 129.4110919
  29.3280141  40.0663259 130.4888188  37.5880813  33.8902387 127.9432345
  37.4498712  34.0803983 127.0153534  37.2317032  34.6521770 128.4000396
  29.7002671  42.8501031 125.1587723  29.8754427  42.3789075 125.9733346
  29.0135459  43.4766798 125.3868984  33.5918926  34.4729572 121.4788084
  32.9748097  33.7476400 121.3821137  33.1235415  35.2338932 121.1355158
  24.2663757  45.9990394 131.9327583  24.5060355  46.6308918 132.6106602
  23.4232953  45.6478434 132.2192943  25.3817472  28.6914996 120.6009388
  24.5046938  28.5703797 120.2371635  25.8575225  27.9001075 120.3488277
  28.5681398  41.0441287 127.8471909  27.7848920  41.5862967 127.9410133
  29.2674143  41.5615266 128.2466150  32.9607829  35.6107603 128.0644538
  32.0264108  35.7309066 127.8949242  33.1384497  34.7080070 127.8004548
  36.3480380  31.4524923 128.5994572  36.8140832  32.2852914 128.5254875
  36.7987881  30.9869904 129.3039830  34.4156611  37.7968744 125.5980724
  34.6916455  37.6825339 126.5074598  33.5461110  37.3986229 125.5592897
  31.0510675  42.0455095 129.2413538  31.2333070  41.2276751 129.7041290
  31.8743661  42.2622787 128.8038428  31.3852841  40.9723280 126.5028586
  31.9140607  40.4615734 125.8898748  31.6481060  40.6565810 127.3674119
  24.7408589  42.0238397 129.2626362  24.0718964  42.5084524 128.7790402
  24.6021459  42.2707617 130.1769740  32.0182245  42.0064116 132.8472702
  31.8933384  41.2053855 132.3383648  32.6761336  42.5010309 132.3586672
  31.0863586  39.6025852 130.6756605  30.9388549  38.6742559 130.8564175
  31.9117080  39.6245943 130.1913680  34.6897708  40.4254411 131.7621478
  35.6144256  40.2197272 131.6245929  34.5213012  40.1770812 132.6710819
  34.4793024  40.9440078 127.1183569  34.6529902  40.3786501 126.3657421
  34.9721916  41.7440973 126.9363059  40.3332416  33.7076501 128.7373869
  40.7763562  32.9583826 128.3392992  39.4558926  33.6986637 128.3547601
  35.4668197  40.2606843 124.2180467  36.1619102  40.8813535 124.4367782
  35.8091347  39.4102194 124.4932845  37.3659620  37.7106548 125.7467798
  37.8910944  38.0493821 125.0217118  37.2781973  36.7753563 125.5630933
  29.0500281  43.7778531 130.1063051  28.6105271  43.2854910 130.7995908
  29.8008398  43.2351499 129.8655126  26.0587660  37.8720464 125.6543813
  26.2075780  38.5555928 125.0010486  26.8654103  37.8525554 126.1693269
  39.8765280  35.1781739 131.1296316  40.7112172  35.6171543 131.2933877
  40.0124409  34.7020393 130.3104562  29.5583065  40.3668594 123.1255561
  28.9857032  40.9858781 122.6726033  30.1315859  40.9167956 123.6595483
  32.7780325  40.6505744 124.2564143  33.7110998  40.5851306 124.4597019
  32.6903538  41.4862011 123.7978676  35.4068342  39.9671615 121.2168091
  35.3281973  39.6331478 122.1103849  36.2278009  40.4593383 121.2159563
  29.9429864  31.7029407 120.4671613  30.8888969  31.5735615 120.5360031
  29.5644109  30.9644069 120.9441042  28.1272781  29.6279383 120.4026499
  27.2204236  29.3312496 120.4789212  28.4048762  29.3309201 119.5360785
  26.8971566  26.4866319 120.5438478  27.7590730  26.8121217 120.8034295
  27.0821910  25.6997814 120.0311544  32.9772294  37.2839610 120.8378069
  33.6808144  37.4889613 121.4535725  32.2534942  37.8516372 121.1027153
  33.8070104  33.0349471 126.9580339  33.7505305  33.4918023 126.1187972
  34.3598446  32.2740156 126.7803182  41.9287248  31.5635276 130.2901750
  41.3686806  31.6328466 131.0633312  41.3230751  31.3876261 129.5701246
  34.8858991  37.7222139 122.8876529  35.7204595  37.2903338 122.7054004
  34.7243334  37.5504153 123.8153424  34.5404883  34.2254253 124.2532868
  34.4853687  34.0598524 123.3121313  33.9150938  34.9330285 124.4095058
  27.7790573  42.4031252 131.9185943  26.8286204  42.4033114 131.8050316
  28.0823059  41.6563987 131.4021978  43.5143266  48.2391790 132.9831706
  44.1521676  48.1198538 132.2795046  43.3964109  49.1872634 133.0419658
  40.3232972  48.1919219 132.9193231  39.9851484  48.0760283 132.0313765
  41.1922741  47.7910384 132.8994237  36.1819788  50.0454695 128.9090121
  35.6184653  49.9544632 128.1406409  36.0672183  49.2254599 129.3892614
  40.8052755  49.3454070 138.8779436  40.7941396  48.9506868 138.0059940
  40.9673395  48.6120143 139.4713208  33.7284220  51.5405887 131.7474342
  34.5205512  51.1996711 131.3320641  33.9680870  51.6500862 132.6676495
  41.7619347  53.7125663 124.2204586  41.1107327  54.2979743 123.8338600
  42.5563710  54.2431858 124.2799624  35.6874974  50.8014800 124.6191721
  36.4605850  50.2543787 124.4804597  36.0400373  51.6659049 124.8306182
  37.5260016  52.1291182 137.8258620  37.2349882  53.0336813 137.7105286
  38.1617001  52.1707710 138.5402690  38.4516223  49.5068031 134.4159980
  39.0479796  49.2824053 133.7016943  38.5091195  48.7652776 135.0185428
  38.0241252  46.9607466 122.2510171  38.2766772  46.4388987 121.4893634
  37.0865811  46.7973611 122.3536854  43.0684535  45.9643244 130.0584914
  43.8547624  45.5462667 129.7075331  43.3323239  46.8689336 130.2266562
  43.2394612  51.4016095 124.7573571  42.6040445  51.4750721 125.4694475
  42.9092018  51.9909693 124.0792650  48.4692962  45.9018477 130.9617892
  49.2018134  45.3317694 131.1955722  47.7132317  45.5140078 131.4024398
  37.7437540  48.8635572 124.4534546  37.6273799  48.1880475 125.1215630
  37.8539800  48.3767946 123.6366699  40.0869081  48.3245719 128.1581235
  39.7227289  47.7976340 128.8694156  40.9436197  47.9344188 127.9847720
  45.9918382  39.6140052 135.4212501  45.6601707  40.4835463 135.1973716
  45.3963995  39.2976336 136.1006531  39.7274568  43.3535619 123.1542583
  39.8948971  44.2215855 123.5213054  39.5371737  43.5162900 122.2303873
  42.4849902  51.8152598 134.8208414  42.1850625  52.7177636 134.7124221
  42.1400961  51.5484781 135.6729567  35.9362383  48.2666394 130.8545118
  35.0112880  48.1342608 131.0622810  36.1846796  49.0460614 131.3515061
  45.8847045  44.3335138 132.5005851  44.9763923  44.2650546 132.2064612
  45.8334641  44.8107083 133.3287677  39.7063789  45.8093276 124.1389250
  39.5863414  46.2550327 124.9774730  39.0116378  46.1578594 123.5802788
  33.2971194  47.9099668 131.6888907  33.4263575  48.1634147 132.6028319
  32.6168645  48.5027376 131.3693562  37.4670681  58.5796918 127.7879381
  37.3894711  59.5304743 127.8667862  36.8632325  58.2342790 128.4454308
  47.7508692  42.5351576 134.2783725  47.1083072  42.8284109 133.6323520
  47.2463620  42.4204496 135.0836922  45.4048855  46.2814749 124.9669584
  46.3166712  46.5142136 124.7917282  44.8958503  46.8651794 124.4044663
  38.2134283  48.5610237 140.0058715  38.9548968  49.0995281 139.7293539
  37.5071269  49.1876525 140.1630267  43.6889623  50.7039377 138.6030877
  44.0972979  50.2621788 137.8585509  42.9666885  50.1292005 138.8565070
  40.0420693  45.6411984 135.9764434  40.8881888  46.0651397 136.1199083
  39.9819331  44.9845608 136.6702997  44.0118438  51.2640568 132.3583166
  43.3827300  51.4286282 131.6559234  43.6244100  51.6782177 133.1294130
  47.8907670  52.1995006 129.7127529  47.2058708  52.5793907 129.1624563
  47.9751519  52.8090332 130.4459477  43.1920138  43.3016352 137.6345607
  42.9481070  44.0558413 137.0979883  43.4680069  43.6801700 138.4692854
  45.1458601  49.8454965 136.3122873  45.3575496  50.4886725 135.6357254
  45.0988349  49.0117281 135.8444803  42.7484830  42.4572785 133.2159445
  41.8869309  42.7554039 133.5076183  42.7747265  42.6743184 132.2840478
  39.5646400  51.0014976 129.6233251  40.0284745  51.2802679 128.8337873
  39.3003198  50.0998420 129.4406341  36.4570481  50.5486457 132.5613014
  37.0271838  50.9773726 131.9230499  37.0478593  50.2669042 133.2597200
  38.5015286  47.1238128 126.4322816  39.2039329  47.5759172 126.8996742
  38.1695914  46.4821947 127.0602709  32.2440620  45.3821681 131.7339949
  31.4539674  45.6379209 131.2580060  32.7351867  46.1970019 131.8391990
  46.2604429  52.7226920 134.4845230  47.0821873  52.3207107 134.2027912
  46.2566832  52.6195154 135.4361346  34.1955365  45.7466260 128.6923426
  33.3986528  45.8584954 129.2106922  33.9680957  46.0852912 127.8264317
  40.0261033  52.2710963 136.6405941  40.0905465  52.7331371 137.4764113
  39.3171957  51.6408328 136.7688251  30.5278323  45.6352171 134.1654940
  30.7786361  46.5199181 134.4312516  31.0637871  45.4556773 133.3930032
  54.3510422  49.0665669 130.8330202  53.5974131  48.4973067 130.6774206
  54.4857963  49.0328333 131.7800836  39.7409050  53.9379071 126.5084921
  39.6054725  54.7830607 126.9369769  40.2818863  54.1398348 125.7450855
  33.1938448  51.4554509 127.0812846  33.7062968  52.2497759 127.2318411
  33.8461161  50.7580799 127.0146448  35.0033332  54.5720265 129.1635599
  35.1799961  55.4938230 128.9756583  35.7990166  54.2578684 129.5929979
  41.3677527  54.5602637 140.6385263  40.9241381  53.7739016 140.3206168
  42.0294740  54.7481788 139.9729154  36.1264648  56.0898439 135.1645942
  36.6772073  55.9615502 134.3922936  35.2876124  56.3893328 134.8140835
  43.4658765  54.8405437 138.6666665  43.4477240  55.6614318 138.1746934
  44.3878685  54.7159513 138.8916806  39.9231819  52.3549567 139.5090173
  40.4560156  51.5937855 139.2789481  39.3945900  52.0623219 140.2514327
  43.0901514  37.4609633 135.0383815  42.7465783  38.3511274 134.9622925
  43.4580476  37.2711290 134.1753400  31.1587364  49.7843163 127.8572417
  31.9962586  50.1940172 127.6406124  31.3365632  48.8442605 127.8272611
  43.0551797  47.4518244 123.5456250  42.5398420  48.2222848 123.7844637
  42.7829105  46.7783380 124.1689311  40.6398908  42.2967945 128.6041488
  39.7840504  41.9074795 128.4247127  41.0525859  42.3759905 127.7441274
  42.1698054  39.8314288 133.0033048  41.6662850  39.7944423 132.1900853
  42.4628661  40.7407031 133.0629705  38.4140940  39.9153018 132.0099230
  39.2793937  39.7195826 131.6505119  38.4818449  39.6863369 132.9368586
  48.0286071  50.2050598 125.4809423  47.2515513  49.8661758 125.0364585
  48.7077552  50.2103222 124.8064388  42.8438100  45.3245336 125.3716031
  42.5388235  45.6391485 126.2226174  43.7968542  45.4026756 125.4143364
  41.2884532  51.4835559 127.0208985  40.7605893  50.7488319 126.7082222
  40.7872034  52.2610236 126.7748953  46.2677378  49.6784580 132.1376031
  45.6101052  50.3683841 132.2256160  47.0717777  50.0681012 132.4810018
  36.0203259  42.1455226 129.3815596  36.5947011  41.9230407 128.6488789
  36.6074242  42.2143920 130.1344198  45.0782836  48.0328952 130.1879973
  45.5914718  48.6658944 130.6901683  45.7284060  47.4330148 129.8223333
  36.3472846  44.1759687 123.4011482  35.5110159  44.5134373 123.7220756
  36.2077616  44.0408666 122.4638619  38.3225927  39.0196474 128.1090666
  37.6690339  38.7045492 127.4847281  38.2806401  38.3972215 128.8350489
  39.4337132  49.3015770 120.0243958  38.5264194  49.0705023 120.2235107
  39.9308164  48.5053389 120.2117939  42.3405211  58.0113277 122.9440644
  41.6666909  58.3144973 123.5525602  42.7271033  58.8142357 122.5946101
  41.5563667  45.5078408 132.4338313  40.6386229  45.7293355 132.2760002
  41.9723811  45.5824718 131.5750021  42.3398715  46.9069824 127.5640994
  43.0870534  47.4191221 127.2548116  42.6090305  46.5853876 128.4245387
  40.6125365  49.4028364 124.5467948  39.7036584  49.1187397 124.6440418
  40.6420449  49.8227443 123.6871255  45.8444633  53.0134954 128.3159116
  45.3906960  52.1725864 128.3724306  45.2138599  53.6496352 128.6533896
  44.7877552  43.9426940 129.5459783  44.0500309  43.4304326 129.8770026
  45.0404326  43.5027322 128.7343060  44.2877572  54.8511451 129.2508934
  44.5800546  55.4116508 128.5321299  44.7976192  55.1440012 130.0062093
  44.8889180  36.7203192 130.1401552  45.1948056  35.8600555 129.8527467
  45.6141784  37.3120812 129.9400546  31.1813536  47.1233879 128.5283150
  30.9837935  46.5303239 127.8034217  30.6260200  46.8186089 129.2459089
  39.1610259  47.0156985 130.6477743  39.2158869  46.0630821 130.5720220
  38.3501461  47.1716424 131.1319042  40.3101453  50.9437108 121.8856027
  39.8720883  50.2272967 121.4261664  41.0511894  51.1713223 121.3241118
  37.1002619  45.6334045 128.4068122  36.2870485  45.9328215 128.8133314
  37.5961613  45.2389733 129.1242604  39.2511197  55.6291802 130.3402387
  39.2087376  55.8552648 129.4110919  40.1673896  55.3955176 130.4888188
  42.6976831  46.0975869 137.2383016  43.0526219  46.3247342 138.0977482
  43.3448962  46.4294246 136.6160271  48.4274568  49.2194305 127.9432345
  48.2892466  49.4095901 127.0153534  48.0710787  49.9813688 128.4000396
  36.5916694  43.2052400 134.0229357  37.2316073  43.0641159 133.3252320
  35.7594224  42.9186914 133.6467959  48.4543947  51.2870832 132.9543617
  48.8880454  51.1946121 133.8026671  49.1675528  51.2628333 132.3163633
  37.3676998  52.5054831 130.1364350  38.1617596  52.0105151 129.9346925
  36.6568690  51.9772694 129.7732055  42.1871842  54.8872926 134.4876717
  42.2408865  55.4563863 135.2554433  41.3186624  55.0574811 134.1230754
  33.6759761  46.6497912 126.2124102  32.7457349  46.5882368 126.4294064
  33.7717233  46.1273865 125.4160744  33.5945310  43.1752725 128.8002344
  33.8552128  44.0898058 128.6911504  34.4162483  42.7077168 128.9498957
  35.0670236  44.5890482 135.9701169  35.7393289  44.3807845 135.3213817
  34.2400022  44.3912568 135.5306401  49.3159497  51.3294533 135.4876502
  49.5095387  52.2340343 135.7335777  49.2160115  50.8701952 136.3215087
  44.3774606  51.4801275 141.0617383  44.2260112  51.2511827 140.1447466
  44.3679285  52.4371877 141.0748728  41.1459942  49.0533188 136.0463649
  42.0752002  49.2044348 135.8732616  40.7250972  49.1417209 135.1912296
  39.9448274  53.0783853 133.8162187  39.8059360  52.7102637 134.6888125
  39.1562870  53.5931492 133.6446145  40.5396426  58.1792949 125.1587723
  40.7148182  57.7080992 125.9733346  39.8529214  58.8058715 125.3868984
  41.4953489  52.4565455 131.2051025  41.1603322  52.4166225 132.1008674
  40.9957435  51.7910171 130.7321435  35.4697733  47.8633085 136.7303606
  35.3317531  47.1313324 137.3315145  36.3802656  47.7741985 136.4487793
  44.4312681  49.8021490 121.4788084  43.8141851  49.0768318 121.3821137
  43.9629169  50.5630850 121.1355158  38.0980034  47.5753045 136.2187285
  38.8079652  46.9346237 136.1773904  38.0549342  47.8265940 137.1413466
  46.0866812  54.5120398 139.1393865  46.0279358  53.8279618 138.4724448
  46.4886331  55.2539388 138.6874491  35.1057511  61.3282312 131.9327583
  35.3454109  61.9600836 132.6106602  34.2626708  60.9770352 132.2192943
  36.2211227  44.0206914 120.6009388  35.3440693  43.8995715 120.2371635
  36.6968980  43.2292992 120.3488277  46.0884220  52.4759982 137.3707844
  45.2010998  52.1385904 137.4934243  46.6582771  51.7443013 137.6076610
  27.7413367  48.8084074 130.6950896  28.4284407  48.4945804 130.1071911
  27.5861495  49.7125438 130.4218147  39.6185373  57.1361434 134.3369087
  39.5455544  57.9416406 134.8488392  39.1762766  57.3353400 133.5117109
  39.4075153  56.3733204 127.8471909  38.6242674  56.9154885 127.9410133
  40.1067898  56.8907184 128.2466150  42.7171803  42.1827834 130.4906114
  43.2140502  41.4297796 130.1707185  41.9458784  42.2192150 129.9249324
  50.5701560  47.8868199 132.1324406  50.5591436  48.7692915 131.7618339
  49.7018940  47.5339750 131.9378943  42.0784056  57.0348268 136.4927246
  42.7912029  57.6695733 136.4203148  41.5874085  57.1312134 135.6767248
  43.8001583  50.9399521 128.0644538  42.8657862  51.0600984 127.8949242
  43.9778252  50.0371988 127.8004548  39.3006771  44.3245217 130.2177799
  38.9304559  43.7716257 130.9058705  39.7965864  43.7203350 129.6652799
  47.1874135  46.7816840 128.5994572  47.6534587  47.6144832 128.5254875
  47.6381635  46.3161822 129.3039830  37.1295970  54.7842712 137.3132817
  37.8305430  55.4179195 137.4662211  36.6591085  55.1257443 136.5528456
  45.2550366  53.1260662 125.5980724  45.5310210  53.0117256 126.5074598
  44.3854865  52.7278146 125.5592897  45.1590797  39.1497427 132.6385473
  44.2453877  39.3801654 132.8067680  45.5883899  39.2335871 133.4899506
  44.9297256  47.3387319 135.1385367  44.2768706  47.5863227 134.4837820
  45.3077636  46.5251457 134.8047845  41.8904430  57.3747012 129.2413538
  42.0726824  56.5568668 129.7041290  42.7137416  57.5914705 128.8038428
  42.2246595  56.3015198 126.5028586  42.7534362  55.7907652 125.8898748
  42.4874815  55.9857728 127.3674119  32.7263688  54.3179067 134.2463920
  33.3117125  53.5722755 134.3791824  32.5288527  54.6283024 135.1300583
  35.5802343  57.3530314 129.2626362  34.9112719  57.8376442 128.7790402
  35.4415213  57.5999535 130.1769740  27.3181343  46.8884667 132.9668363
  27.3565442  46.3548258 133.7605481  26.8121636  46.3619873 132.3479340
  39.7207612  59.3874058 135.8609020  40.2725920  59.5505679 136.6258106
  40.0613805  59.9778496 135.1889045  44.5718486  54.2135315 141.7157675
  45.1158390  54.8265274 141.2212630  43.9905331  54.7714894 142.2324688
  30.9489920  45.6148769 126.0422294  31.2443361  44.7059448 125.9889348
  30.0477956  45.5936509 125.7203296  42.8575999  57.3356033 132.8472702
  42.7327139  56.5345773 132.3383648  43.5155090  57.8302227 132.3586672
  34.4784167  43.6904766 132.0249843  33.7570753  44.3040734 131.8857316
  35.2677423  44.2262531 131.9466489  44.9210908  55.1365053 134.4752253
  43.9741243  55.0170405 134.4030579  45.2693681  54.2487551 134.5578514
  32.6777762  43.2962867 126.1661619  32.3490468  42.4160246 125.9836725
  33.0317133  43.2410536 127.0538008  41.9257341  54.9317770 130.6756605
  41.7782303  54.0034477 130.8564175  42.7510834  54.9537860 130.1913680
  35.7919585  43.5835837 126.5337097  36.1315658  44.1121758 125.8115705
  36.2391706  43.9216243 127.3095663  45.5291463  55.7546328 131.7621478
  46.4538010  55.5489190 131.6245929  45.3606766  55.5062730 132.6710819
  39.1379498  39.0522200 134.4367488  39.9605567  38.5782678 134.3146378
  39.3817561  39.8312684 134.9366174  37.7787732  42.0810458 124.7330390
  38.4996095  42.4591711 124.2294107  37.1553036  42.7999335 124.8365368
  41.9218855  42.7855607 125.6688722  42.1382470  43.6680245 125.3677550
  41.4412922  42.3941821 124.9394364  36.6618077  45.7441320 132.2459467
  36.5162657  46.0581624 133.1383748  36.1843280  46.3626221 131.6930365
  38.5214459  42.7343868 132.2940356  38.5076028  41.8384962 131.9572654
  39.2386888  42.7414532 132.9278642  40.3740590  43.1681209 134.3393484
  40.1158368  44.0898279 134.3377814  39.8425631  42.7711643 135.0293948
  45.3186779  56.2731996 127.1183569  45.4923656  55.7078418 126.3657421
  45.8115670  57.0732891 126.9363059  31.1363739  48.2846665 135.1847128
  30.5917207  49.0606473 135.3167402  32.0143089  48.6317469 135.0266249
  37.9251355  41.6158249 127.5627926  38.0467267  40.6874895 127.7618814
  37.6353398  41.6296935 126.6506242  40.7942546  39.3013159 130.6994646
  40.8164243  39.3652492 129.7446626  41.2110605  38.4617668 130.8935152
  51.1726170  49.0368419 128.7373869  51.6157316  48.2875744 128.3392992
  50.2952680  49.0278555 128.3547601  46.3061951  55.5898760 124.2180467
  47.0012856  56.2105453 124.4367782  46.6485102  54.7394111 124.4932845
  48.2053375  53.0398466 125.7467798  48.7304699  53.3785738 125.0217118
  48.1175727  52.1045481 125.5630933  39.8673423  56.9532539 137.8757675
  40.1760550  56.7081686 138.7480374  40.6648905  57.1579178 137.3876545
  39.8894035  59.1070449 130.1063051  39.4499026  58.6146828 130.7995908
  40.6402152  58.5643417 129.8655126  32.3686374  55.2981990 130.1087679
  33.1944394  54.9985762 129.7286323  32.0180426  54.5289612 130.5577468
  37.3367907  54.6508458 132.1785353  36.7147917  53.9879163 131.8787581
  38.0072774  54.6769590 131.4959001  30.5694979  53.2168316 131.0676613
  29.7326888  52.7890491 130.8860614  30.5418625  53.4100760 132.0047404
  47.8947281  53.6731369 141.0518996  47.1042824  53.6555508 140.5123495
  47.6580635  54.2119663 141.8068033  48.0145156  50.5223836 138.3651725
  48.0643161  50.3573843 139.3067247  47.9059079  49.6551095 137.9749605
  36.8981414  53.2012381 125.6543813  37.0469535  53.8847846 125.0010486
  37.7047858  53.1817471 126.1693269  45.3048918  46.5054764 139.6811031
  46.2058781  46.3661229 139.3895029  45.3796893  46.6709219 140.6209209
  49.5163352  52.9420777 138.6093746  49.2248161  53.3050758 139.4457207
  48.9035484  52.2287786 138.4307078  50.7159035  50.5073657 131.1296316
  51.5505926  50.9463461 131.2933877  50.8518164  50.0312310 130.3104562
  47.7650541  48.0653392 137.0773804  48.2404662  48.2581038 136.2692655
  46.8416106  48.1212578 136.8317188  34.6534047  49.2277559 126.6604882
  34.4080089  48.3239889 126.8585092  34.8229962  49.2294710 125.7184360
  42.3430757  40.1001235 136.0429638  42.8612701  40.8362262 135.7176127
  41.9885890  40.4065229 136.8776397  33.9229695  44.9605917 124.1591044
  33.2298940  45.0350272 123.5031080  33.6781447  44.1966260 124.6812561
  42.5943351  36.5201518 131.5630535  42.8745105  35.8524707 132.1890961
  43.3793958  36.7130614 131.0505198  40.3976820  55.6960512 123.1255561
  39.8250787  56.3150699 122.6726033  40.9709614  56.2459874 123.6595483
  46.4652210  44.9419152 135.3102110  47.4169633  45.0417250 135.3314334
  46.2955660  44.1497421 135.8200194  44.4866589  42.0274735 135.4961511
  43.8916521  42.3079748 134.8007999  44.2016286  42.5168636 136.2678252
  43.6174080  55.9797662 124.2564143  44.5504753  55.9143224 124.4597019
  43.5297292  56.8153929 123.7978676  46.2462096  55.2963532 121.2168091
  46.1675728  54.9623396 122.1103849  47.0671763  55.7885300 121.2159563
  48.9440287  48.1625272 134.4244409  48.9116608  47.2241272 134.6104093
  49.5540911  48.2409308 133.6910234  40.7823618  47.0321325 120.4671613
  41.7282723  46.9027533 120.5360031  40.4037863  46.2935987 120.9441042
  49.0934776  44.9536315 134.4702693  48.5773825  44.1694772 134.2832621
  49.9774724  44.6255032 134.6349212  46.7545503  38.6977331 130.4298505
  46.5570324  38.3892419 131.3141837  47.3645208  39.4238970 130.5596435
  54.7616837  49.2241279 133.5650446  55.4920226  48.9626567 134.1258149
  54.1523783  48.4870000 133.6052514  52.8432134  47.3649141 134.1624897
  52.1165298  47.2305106 133.5541389  52.4279421  47.6725970 134.9681615
  40.6662311  51.0839071 141.9272270  41.5865320  51.2617670 142.1212317
  40.6311894  50.1395116 141.7751970  38.9666535  44.9571301 120.4026499
  38.0597991  44.6604414 120.4789212  39.2442516  44.6601119 119.5360785
  29.8844476  46.2777664 130.8525545  29.5647260  45.4242973 130.5599919
  29.3377904  46.4926243 131.6083512  33.6624383  48.9940105 134.5695052
  33.8810393  49.9257213 134.5883085  34.0750157  48.6348080 135.3549855
  40.5828601  39.5008191 126.5570740  39.7729330  39.1555276 126.9325986
  41.2713018  39.1915734 127.1458351  42.5119150  38.5786238 128.1795037
  43.0650188  38.9981691 128.8385060  42.7489236  37.6521986 128.2217993
  37.7365320  41.8158236 120.5438478  38.5984484  42.1413135 120.8034295
  37.9215664  41.0289732 120.0311544  29.7532736  49.8980576 132.8218667
  29.0596207  49.4834529 132.3088621  30.5005727  49.9401112 132.2252085
  45.8897957  40.6886763 127.6873701  45.3096626  41.3471567 127.3051753
  45.6233889  39.8664107 127.2761118  44.3401523  40.0891820 129.8895021
  44.8401301  40.2008355 129.0809340  44.9837131  39.7852873 130.5295830
  31.6669478  49.8298830 130.6984681  31.6440167  49.9286517 129.7466565
  31.9770115  50.6763981 131.0201848  34.3256856  51.8874985 134.8131296
  35.2800110  51.8558927 134.7461227  34.1269380  51.4265608 135.6281522
  34.9156238  50.4576101 137.3802094  35.7349127  50.9520179 137.4036931
  35.1893046  49.5408069 137.3519661  44.6722835  42.8486853 126.7430049
  43.7848690  43.1336504 126.5250244  45.0876824  42.6880616 125.8957326
  48.0237371  42.8733374 130.4584388  48.7997761  43.3629827 130.7309005
  47.2985505  43.2991428 130.9156258  50.4609929  43.5860993 131.5158329
  51.0554420  43.3456729 130.8051637  50.5336513  42.8668124 132.1431865
  32.6807085  57.4294604 131.8301494  32.5461553  56.6695005 131.2639492
  32.2639147  58.1535504 131.3630283  43.8166048  52.6131528 120.8378069
  44.5201898  52.8181530 121.4535725  43.0928697  53.1808290 121.1027153
  44.6463858  48.3641389 126.9580339  44.5899060  48.8209940 126.1187972
  45.1992201  47.6032074 126.7803182  48.4568664  44.1531121 127.7830459
  48.2005599  43.7527757 128.6138666  47.8321532  44.8674915 127.6580598
  52.7681002  46.8927194 130.2901750  52.2080560  46.9620383 131.0633312
  52.1624505  46.7168179 129.5701246  35.8376211  58.3263921 132.0419936
  35.7208595  59.2709354 131.9398627  35.0168657  58.0237483 132.4305736
  45.7252745  53.0514057 122.8876529  46.5598349  52.6195255 122.7054004
  45.5637088  52.8796071 123.8153424  45.3798638  49.5546170 124.2532868
  45.3247441  49.3890442 123.3121313  44.7544693  50.2622203 124.4095058
  42.6944545  51.8595082 143.5786431  43.5635704  52.0335734 143.2173066
  42.2151296  52.6789499 143.4562161  38.6894763  39.0554279 123.8318187
  38.6773433  39.9996119 123.9886458  39.5818185  38.8724425 123.5377648
  36.8630725  58.9792183 135.2575865  37.7657972  59.0115793 135.5742360
  36.6368095  58.0492634 135.2722201  38.6184327  57.7323170 131.9185943
  37.6679958  57.7325031 131.8050316  38.9216813  56.9855904 131.4021978
  42.5046883  35.6497056 128.0864124  41.7379278  35.0955543 128.2320806
  42.9157588  35.7218925 128.9478275  54.3537021  63.5683708 132.9831706
  54.9915431  63.4490455 132.2795046  54.2357863  64.5164552 133.0419658
  51.1626727  63.5211136 132.9193231  50.8245238  63.4052201 132.0313765
  52.0316495  63.1202301 132.8994237  47.0213543  65.3746613 128.9090121
  46.4578408  65.2836550 128.1406409  46.9065938  64.5546517 129.3892614
  51.6446510  64.6745988 138.8779436  51.6335151  64.2798786 138.0059940
  51.8067149  63.9412061 139.4713208  44.5677974  66.8697804 131.7474342
  45.3599266  66.5288629 131.3320641  44.8074625  66.9792779 132.6676495
  52.6013101  69.0417580 124.2204586  51.9501081  69.6271661 123.8338600
  53.3957464  69.5723775 124.2799624  46.5268728  66.1306717 124.6191721
  47.2999604  65.5835705 124.4804597  46.8794127  66.9950967 124.8306182
  48.3653771  67.4583100 137.8258620  48.0743637  68.3628731 137.7105286
  49.0010755  67.4999627 138.5402690  49.2909978  64.8359948 134.4159980
  49.8873550  64.6115971 133.7016943  49.3484949  64.0944694 135.0185428
  48.8635006  62.2899384 122.2510171  49.1160527  61.7680905 121.4893634
  47.9259565  62.1265529 122.3536854  53.9078289  61.2935162 130.0584914
  54.6941378  60.8754585 129.7075331  54.1716993  62.1981254 130.2266562
  54.0788366  66.7308012 124.7573571  53.4434199  66.8042639 125.4694475
  53.7485773  67.3201611 124.0792650  59.3086716  61.2310395 130.9617892
  60.0411888  60.6609612 131.1955722  58.5526072  60.8431996 131.4024398
  48.5831295  64.1927490 124.4534546  48.4667553  63.5172393 125.1215630
  48.6933555  63.7059863 123.6366699  50.9262836  63.6537637 128.1581235
  50.5621043  63.1268258 128.8694156  51.7829952  63.2636106 127.9847720
  56.8312137  54.9431969 135.4212501  56.4995461  55.8127380 135.1973716
  56.2357750  54.6268253 136.1006531  50.5668323  58.6827536 123.1542583
  50.7342725  59.5507773 123.5213054  50.3765492  58.8454818 122.2303873
  53.3243656  67.1444515 134.8208414  53.0244379  68.0469554 134.7124221
  52.9794716  66.8776698 135.6729567  46.7756138  63.5958312 130.8545118
  45.8506634  63.4634526 131.0622810  47.0240551  64.3752531 131.3515061
  56.7240800  59.6627055 132.5005851  55.8157677  59.5942464 132.2064612
  56.6728396  60.1399000 133.3287677  50.5457544  61.1385194 124.1389250
  50.4257169  61.5842245 124.9774730  49.8510132  61.4870511 123.5802788
  44.1364949  63.2391586 131.6888907  44.2657330  63.4926065 132.6028319
  43.4562400  63.8319294 131.3693562  48.3064436  73.9088836 127.7879381
  48.2288466  74.8596661 127.8667862  47.7026079  73.5634708 128.4454308
  50.7981666  61.0816701 140.4440748  50.0215000  61.6410621 140.4343613
  51.4372229  61.5673484 140.9655618  58.5902446  57.8643494 134.2783725
  57.9476827  58.1576027 133.6323520  58.0857375  57.7496414 135.0836922
  56.2442610  61.6106667 124.9669584  57.1560466  61.8434054 124.7917282
  55.7352257  62.1943711 124.4044663  49.0528038  63.8902154 140.0058715
  49.7942722  64.4287198 139.7293539  48.3465023  64.5168443 140.1630267
  54.5283378  66.0331295 138.6030877  54.9366734  65.5913705 137.8585509
  53.8060639  65.4583922 138.8565070  50.8814448  60.9703902 135.9764434
  51.7275643  61.3943315 136.1199083  50.8213085  60.3137526 136.6702997
  54.8512192  66.5932485 132.3583166  54.2221055  66.7578200 131.6559234
  54.4637854  67.0074095 133.1294130  58.7301424  67.5286923 129.7127529
  58.0452462  67.9085825 129.1624563  58.8145273  68.1382250 130.4459477
  54.0313893  58.6308270 137.6345607  53.7874825  59.3850330 137.0979883
  54.3073823  59.0093618 138.4692854  55.9852356  65.1746882 136.3122873
  56.1969251  65.8178642 135.6357254  55.9382104  64.3409199 135.8444803
  53.5878585  57.7864703 133.2159445  52.7263064  58.0845957 133.5076183
  53.6141019  58.0035102 132.2840478  50.4040154  66.3306894 129.6233251
  50.8678500  66.6094597 128.8337873  50.1396952  65.4290338 129.4406341
  47.2964235  65.8778375 132.5613014  47.8665592  66.3065643 131.9230499
  47.8872347  65.5960960 133.2597200  49.3409040  62.4530046 126.4322816
  50.0433084  62.9051090 126.8996742  49.0089669  61.8113865 127.0602709
  47.7889402  61.0441803 140.8074025  47.1588062  61.7258083 141.0409422
  47.6825490  60.9324884 139.8627164  43.0834374  60.7113599 131.7339949
  42.2933428  60.9671127 131.2580060  43.5745621  61.5261936 131.8391990
  57.0998184  68.0518838 134.4845230  57.9215627  67.6499025 134.2027912
  57.0960587  67.9487072 135.4361346  45.0349120  61.0758178 128.6923426
  44.2380283  61.1876872 129.2106922  44.8074712  61.4144830 127.8264317
  50.8654787  67.6002881 136.6405941  50.9299220  68.0623288 137.4764113
  50.1565711  66.9700246 136.7688251  41.3672077  60.9644089 134.1654940
  41.6180116  61.8491099 134.4312516  41.9031626  60.7848691 133.3930032
  65.1904177  64.3957586 130.8330202  64.4367885  63.8264984 130.6774206
  65.3251718  64.3620251 131.7800836  50.5802805  69.2670989 126.5084921
  50.4448480  70.1122524 126.9369769  51.1212617  69.4690266 125.7450855
  47.0670144  55.3462568 143.1699276  46.6737090  54.7928767 143.8446921
  47.8836285  55.6573147 143.5605794  44.0332202  66.7846427 127.0812846
  44.5456723  67.5789677 127.2318411  44.6854915  66.0872717 127.0146448
  45.8427087  69.9012183 129.1635599  46.0193715  70.8230148 128.9756583
  46.6383920  69.5870602 129.5929979  49.9838105  56.7620447 140.7619533
  50.7247819  57.3627601 140.6823995  50.2156028  56.0198085 140.2037575
  45.1279443  61.9476815 139.0397763  45.0132959  61.0462072 139.3404862
  44.2723961  62.1940511 138.6882579  52.2071281  69.8894555 140.6385263
  51.7635135  69.1030934 140.3206168  52.8688495  70.0773706 139.9729154
  46.9658402  71.4190357 135.1645942  47.5165827  71.2907420 134.3922936
  46.1269878  71.7185246 134.8140835  54.3052519  70.1697355 138.6666665
  54.2870995  70.9906236 138.1746934  55.2272439  70.0451430 138.8916806
  50.7625573  67.6841484 139.5090173  51.2953910  66.9229773 139.2789481
  50.2339654  67.3915136 140.2514327  53.9295268  52.7901550 135.0383815
  53.5859538  53.6803192 134.9622925  54.2974231  52.6003208 134.1753400
  41.9981119  65.1135081 127.8572417  42.8356341  65.5232089 127.6406124
  42.1759387  64.1734523 127.8272611  53.8945551  62.7810162 123.5456250
  53.3792175  63.5514766 123.7844637  53.6222860  62.1075298 124.1689311
  51.4792662  57.6259862 128.6041488  50.6234258  57.2366713 128.4247127
  51.8919614  57.7051823 127.7441274  53.0091809  55.1606206 133.0033048
  52.5056604  55.1236341 132.1900853  53.3022416  56.0698948 133.0629705
  49.2534695  55.2444935 132.0099230  50.1187691  55.0487744 131.6505119
  49.3212204  55.0155287 132.9368586  58.8679825  65.5342516 125.4809423
  58.0909268  65.1953676 125.0364585  59.5471306  65.5395139 124.8064388
  53.6831854  60.6537254 125.3716031  53.3781990  60.9683403 126.2226174
  54.6362296  60.7318673 125.4143364  52.1278286  66.8127477 127.0208985
  51.5999648  66.0780237 126.7082222  51.6265789  67.5902153 126.7748953
  57.1071132  65.0076497 132.1376031  56.4494807  65.6975759 132.2256160
  57.9111531  65.3972929 132.4810018  46.8597014  57.4747143 129.3815596
  47.4340766  57.2522325 128.6488789  47.4467996  57.5435838 130.1344198
  55.9176591  63.3620870 130.1879973  56.4308473  63.9950862 130.6901683
  56.5677815  62.7622066 129.8223333  47.1866601  59.5051604 123.4011482
  46.3503913  59.8426291 123.7220756  47.0471370  59.3700584 122.4638619
  49.1619681  54.3488392 128.1090666  48.5084094  54.0337409 127.4847281
  49.1200156  53.7264133 128.8350489  50.2730886  64.6307687 120.0243958
  49.3657948  64.3996941 120.2235107  50.7701918  63.8345306 120.2117939
  53.1798965  73.3405194 122.9440644  52.5060664  73.6436891 123.5525602
  53.5664787  74.1434275 122.5946101  52.3957422  60.8370326 132.4338313
  51.4779983  61.0585273 132.2760002  52.8117565  60.9116636 131.5750021
  53.1792470  62.2361741 127.5640994  53.9264288  62.7483139 127.2548116
  53.4484059  61.9145794 128.4245387  51.4519120  64.7320282 124.5467948
  50.5430339  64.4479315 124.6440418  51.4814204  65.1519361 123.6871255
  56.6838387  68.3426872 128.3159116  56.2300714  67.5017781 128.3724306
  56.0532354  68.9788270 128.6533896  55.6271307  59.2718858 129.5459783
  54.8894063  58.7596244 129.8770026  55.8798080  58.8319239 128.7343060
  55.1271326  70.1803368 129.2508934  55.4194301  70.7408425 128.5321299
  55.6369947  70.4731929 130.0062093  55.7282934  52.0495110 130.1401552
  56.0341811  51.1892473 129.8527467  56.4535539  52.6412730 129.9400546
  42.0207290  62.4525796 128.5283150  41.8231690  61.8595157 127.8034217
  41.4653954  62.1478006 129.2459089  50.0004014  62.3448903 130.6477743
  50.0552624  61.3922739 130.5720220  49.1895216  62.5008342 131.1319042
  51.1495208  66.2729026 121.8856027  50.7114637  65.5564885 121.4261664
  51.8905648  66.5005141 121.3241118  47.9396374  60.9625962 128.4068122
  47.1264239  61.2620133 128.8133314  48.4355368  60.5681651 129.1242604
  50.0904952  70.9583719 130.3402387  50.0481130  71.1844566 129.4110919
  51.0067650  70.7247094 130.4888188  53.5370585  61.4267787 137.2383016
  53.8919973  61.6539260 138.0977482  54.1842717  61.7586164 136.6160271
  59.2668322  64.5486223 127.9432345  59.1286221  64.7387819 127.0153534
  58.9104541  65.3105606 128.4000396  47.4310448  58.5344318 134.0229357
  48.0709828  58.3933077 133.3252320  46.5987979  58.2478831 133.6467959
  59.2937702  66.6162750 132.9543617  59.7274209  66.5238039 133.8026671
  60.0069283  66.5920250 132.3163633  48.2070752  67.8346748 130.1364350
  49.0011351  67.3397068 129.9346925  47.4962445  67.3064611 129.7732055
  53.0265597  70.2164844 134.4876717  53.0802619  70.7855780 135.2554433
  52.1580378  70.3866729 134.1230754  44.5153516  61.9789830 126.2124102
  43.5851104  61.9174286 126.4294064  44.6110988  61.4565783 125.4160744
  44.4339065  58.5044643 128.8002344  44.6945882  59.4189976 128.6911504
  45.2556237  58.0369085 128.9498957  45.9063990  59.9182400 135.9701169
  46.5787044  59.7099762 135.3213817  45.0793777  59.7204486 135.5306401
  60.1553251  66.6586450 135.4876502  60.3489142  67.5632261 135.7335777
  60.0553870  66.1993869 136.3215087  51.8089562  56.5444341 137.9866829
  51.1617477  57.2434291 137.8931306  52.5790578  56.9780485 138.3543078
  55.2168360  66.8093193 141.0617383  55.0653867  66.5803745 140.1447466
  55.2073040  67.7663795 141.0748728  51.9853697  64.3825106 136.0463649
  52.9145757  64.5336266 135.8732616  51.5644727  64.4709127 135.1912296
  50.7842028  68.4075770 133.8162187  50.6453114  68.0394555 134.6888125
  49.9956625  68.9223410 133.6446145  51.3790180  73.5084867 125.1587723
  51.5541936  73.0372910 125.9733346  50.6922968  74.1350633 125.3868984
  52.3347243  67.7857373 131.2051025  51.9997076  67.7458143 132.1008674
  51.8351189  67.1202089 130.7321435  46.3091487  63.1925003 136.7303606
  46.1711285  62.4605242 137.3315145  47.2196411  63.1033903 136.4487793
  55.2706435  65.1313407 121.4788084  54.6535606  64.4060236 121.3821137
  54.8022924  65.8922768 121.1355158  48.9373788  62.9044962 136.2187285
  49.6473407  62.2638155 136.1773904  48.8943096  63.1557857 137.1413466
  56.9260567  69.8412316 139.1393865  56.8673113  69.1571536 138.4724448
  57.3280085  70.5831306 138.6874491  47.6502722  59.8910180 138.0382925
  47.1140079  59.4400919 138.6904521  47.0619431  60.0256089 137.2953389
  45.9451266  76.6574230 131.9327583  46.1847864  77.2892754 132.6106602
  45.1020462  76.3062270 132.2192943  47.0604981  59.3498832 120.6009388
  46.1834447  59.2287632 120.2371635  47.5362734  58.5584910 120.3488277
  56.9277974  67.8051900 137.3707844  56.0404753  67.4677821 137.4934243
  57.4976525  67.0734931 137.6076610  38.5807121  64.1375991 130.6950896
  39.2678161  63.8237721 130.1071911  38.4255250  65.0417356 130.4218147
  43.3841843  59.0266188 135.1235919  43.3000032  58.4191858 134.3886329
  42.5624550  59.5175206 135.1245416  50.4579127  72.4653352 134.3369087
  50.3849299  73.2708324 134.8488392  50.0156521  72.6645318 133.5117109
  50.2468907  71.7025122 127.8471909  49.4636429  72.2446802 127.9410133
  50.9461652  72.2199102 128.2466150  53.5565557  57.5119751 130.4906114
  54.0534257  56.7589714 130.1707185  52.7852539  57.5484068 129.9249324
  61.4095315  63.2160117 132.1324406  61.3985191  64.0984832 131.7618339
  60.5412694  62.8631668 131.9378943  52.9177811  72.3640186 136.4927246
  53.6305783  72.9987651 136.4203148  52.4267840  72.4604052 135.6767248
  54.6395338  66.2691439 128.0644538  53.7051617  66.3892901 127.8949242
  54.8172006  65.3663905 127.8004548  50.1400526  59.6537134 130.2177799
  49.7698313  59.1008175 130.9058705  50.6359618  59.0495268 129.6652799
  58.0267889  62.1108758 128.5994572  58.4928341  62.9436750 128.5254875
  58.4775390  61.6453740 129.3039830  47.9689725  70.1134630 137.3132817
  48.6699184  70.7471112 137.4662211  47.4984839  70.4549361 136.5528456
  56.0944120  68.4552579 125.5980724  56.3703964  68.3409174 126.5074598
  55.2248619  68.0570064 125.5592897  55.9984552  54.4789345 132.6385473
  55.0847632  54.7093572 132.8067680  56.4277653  54.5627789 133.4899506
  55.7691010  62.6679237 135.1385367  55.1162461  62.9155144 134.4837820
  56.1471390  61.8543375 134.8047845  52.7298184  72.7038930 129.2413538
  52.9120579  71.8860586 129.7041290  53.5531170  72.9206622 128.8038428
  53.0640350  71.6307115 126.5028586  53.5928116  71.1199570 125.8898748
  53.3268569  71.3149645 127.3674119  51.8178583  63.4099048 141.6251404
  51.1419221  63.3093177 142.2953780  52.6406217  63.2538262 142.0887402
  43.5657443  69.6470985 134.2463920  44.1510879  68.9014672 134.3791824
  43.3682281  69.9574941 135.1300583  46.4196098  72.6822232 129.2626362
  45.7506473  73.1668360 128.7790402  46.2808967  72.9291452 130.1769740
  38.1575097  62.2176585 132.9668363  38.1959197  61.6840175 133.7605481
  37.6515390  61.6911790 132.3479340  50.5601366  74.7165975 135.8609020
  51.1119674  74.8797597 136.6258106  50.9007560  75.3070413 135.1889045
  45.5365860  57.0641125 136.4630905  45.6007186  57.9255956 136.0508303
  45.4732980  56.4515127 135.7303264  45.0118132  59.1364258 140.1103939
  45.6390171  58.7541335 140.7241464  44.1546051  58.9178460 140.4759632
  55.4112241  69.5427233 141.7157675  55.9552145  70.1557191 141.2212630
  54.8299086  70.1006811 142.2324688  41.7883675  60.9440687 126.0422294
  42.0837116  60.0351365 125.9889348  40.8871711  60.9228426 125.7203296
  53.6969754  72.6647951 132.8472702  53.5720893  71.8637691 132.3383648
  54.3548845  73.1594144 132.3586672  45.3177922  59.0196683 132.0249843
  44.5964508  59.6332651 131.8857316  46.1071178  59.5554448 131.9466489
  55.7604662  70.4656971 134.4752253  54.8134998  70.3462322 134.4030579
  56.1087435  69.5779469 134.5578514  48.1204235  56.3551110 138.2990494
  48.6438637  56.6013407 139.0616804  47.9016569  57.1871145 137.8793632
  43.5171516  58.6254785 126.1661619  43.1884223  57.7452163 125.9836725
  43.8710887  58.5702453 127.0538008  52.7651095  70.2609687 130.6756605
  52.6176058  69.3326395 130.8564175  53.5904589  70.2829778 130.1913680
  46.6313340  58.9127754 126.5337097  46.9709412  59.4413676 125.8115705
  47.0785460  59.2508160 127.3095663  56.3685217  71.0838246 131.7621478
  57.2931765  70.8781107 131.6245929  56.2000521  70.8354647 132.6710819
  49.3256780  57.2964805 135.9840165  48.9853601  56.4972618 136.3860845
  48.6195787  57.5966516 135.4116998  49.9773252  54.3814118 134.4367488
  50.7999322  53.9074596 134.3146378  50.2211316  55.1604601 134.9366174
  48.6181487  57.4102376 124.7330390  49.3389849  57.7883629 124.2294107
  47.9946791  58.1291253 124.8365368  52.7612610  58.1147525 125.6688722
  52.9776224  58.9972163 125.3677550  52.2806677  57.7233738 124.9394364
  47.5011831  61.0733238 132.2459467  47.3556412  61.3873541 133.1383748
  47.0237035  61.6918138 131.6930365  49.3608214  58.0635786 132.2940356
  49.3469783  57.1676879 131.9572654  50.0780642  58.0706450 132.9278642
  51.2134345  58.4973126 134.3393484  50.9552122  59.4190197 134.3377814
  50.6819385  58.1003561 135.0293948  56.1580533  71.6023913 127.1183569
  56.3317411  71.0370336 126.3657421  56.6509425  72.4024808 126.9363059
  41.9757493  63.6138583 135.1847128  41.4310961  64.3898391 135.3167402
  42.8536843  63.9609387 135.0266249  48.7645110  56.9450166 127.5627926
  48.8861021  56.0166813 127.7618814  48.4747152  56.9588852 126.6506242
  51.6336300  54.6305077 130.6994646  51.6557997  54.6944410 129.7446626
  52.0504359  53.7909586 130.8935152  62.0119925  64.3660336 128.7373869
  62.4551071  63.6167662 128.3392992  61.1346435  64.3570473 128.3547601
  57.1455706  70.9190678 124.2180467  57.8406611  71.5397371 124.4367782
  57.4878856  70.0686029 124.4932845  42.7623515  62.7408479 138.0777285
  42.0205251  62.8891114 138.6641915  42.4416259  63.0016744 137.2144034
  59.0447129  68.3690383 125.7467798  59.5698453  68.7077656 125.0217118
  58.9569482  67.4337399 125.5630933  50.7067178  72.2824457 137.8757675
  51.0154304  72.0373604 138.7480374  51.5042660  72.4871096 137.3876545
  50.7287790  74.4362367 130.1063051  50.2892780  73.9438745 130.7995908
  51.4795907  73.8935334 129.8655126  43.2080129  70.6273908 130.1087679
  44.0338149  70.3277679 129.7286323  42.8574181  69.8581530 130.5577468
  48.1761662  69.9800376 132.1785353  47.5541671  69.3171081 131.8787581
  48.8466529  70.0061508 131.4959001  41.4088734  68.5460234 131.0676613
  40.5720642  68.1182408 130.8860614  41.3812379  68.7392677 132.0047404
  48.2486189  58.4582164 141.7717859  48.2974345  59.3344287 141.3895629
  48.7908704  57.9159557 141.1989502  58.7341035  69.0023287 141.0518996
  57.9436579  68.9847426 140.5123495  58.4974390  69.5411581 141.8068033
  58.8538910  65.8515753 138.3651725  58.9036915  65.6865761 139.3067247
  58.7452833  64.9843012 137.9749605  47.7375169  68.5304299 125.6543813
  47.8863289  69.2139764 125.0010486  48.5441612  68.5109389 126.1693269
  56.1442673  61.8346681 139.6811031  57.0452535  61.6953146 139.3895029
  56.2190647  62.0001136 140.6209209  50.4785478  59.2113536 138.5264218
  49.6088787  59.5047102 138.2546806  50.7144958  59.7953981 139.2471481
  60.3557107  68.2712695 138.6093746  60.0641915  68.6342675 139.4457207
  59.7429238  67.5579703 138.4307078  61.5552789  65.8365575 131.1296316
  62.3899681  66.2755379 131.2933877  61.6911918  65.3604228 130.3104562
  58.6044295  63.3945310 137.0773804  59.0798417  63.5872956 136.2692655
  57.6809861  63.4504495 136.8317188  45.4927802  64.5569477 126.6604882
  45.2473844  63.6531807 126.8585092  45.6623716  64.5586627 125.7184360
  53.1824512  55.4293153 136.0429638  53.7006456  56.1654180 135.7176127
  52.8279644  55.7357146 136.8776397  44.7623449  60.2897834 124.1591044
  44.0692694  60.3642189 123.5031080  44.5175201  59.5258178 124.6812561
  53.4337106  51.8493436 131.5630535  53.7138860  51.1816625 132.1890961
  54.2187713  52.0422531 131.0505198  51.2370574  71.0252430 123.1255561
  50.6644541  71.6442617 122.6726033  51.8103368  71.5751791 123.6595483
  57.3045964  60.2711070 135.3102110  58.2563387  60.3709167 135.3314334
  57.1349415  59.4789338 135.8200194  55.3260344  57.3566653 135.4961511
  54.7310276  57.6371666 134.8007999  55.0410040  57.8460554 136.2678252
  54.4567834  71.3089580 124.2564143  55.3898507  71.2435141 124.4597019
  54.3691047  72.1445847 123.7978676  57.0855851  70.6255450 121.2168091
  57.0069482  70.2915314 122.1103849  57.9065518  71.1177218 121.2159563
  59.7834042  63.4917189 134.4244409  59.7510362  62.5533190 134.6104093
  60.3934666  63.5701226 133.6910234  51.6217373  62.3613242 120.4671613
  52.5676478  62.2319450 120.5360031  51.2431618  61.6227904 120.9441042
  59.9328530  60.2828233 134.4702693  59.4167579  59.4986689 134.2832621
  60.8168479  59.9546949 134.6349212  57.5939257  54.0269248 130.4298505
  57.3964079  53.7184337 131.3141837  58.2038963  54.7530887 130.5596435
  65.6010592  64.5533196 133.5650446  66.3313980  64.2918484 134.1258149
  64.9917537  63.8161918 133.6052514  63.6825889  62.6941059 134.1624897
  62.9559053  62.5597024 133.5541389  63.2673176  63.0017887 134.9681615
  51.5056065  66.4130988 141.9272270  52.4259075  66.5909587 142.1212317
  51.4705648  65.4687034 141.7751970  49.8060290  60.2863219 120.4026499
  48.8991745  59.9896331 120.4789212  50.0836271  59.9893037 119.5360785
  40.7238230  61.6069582 130.8525545  40.4041015  60.7534890 130.5599919
  40.1771659  61.8218160 131.6083512  44.5018138  64.3232023 134.5695052
  44.7204148  65.2549131 134.5883085  44.9143912  63.9639998 135.3549855
  51.4222356  54.8300108 126.5570740  50.6123084  54.4847193 126.9325986
  52.1106773  54.5207652 127.1458351  53.3512904  53.9078155 128.1795037
  53.9043943  54.3273609 128.8385060  53.5882990  52.9813903 128.2217993
  49.3746003  59.8965229 143.9597800  49.2742730  60.8459586 143.8909892
  49.1567545  59.5683468 143.0873871  48.5759075  57.1450154 120.5438478
  49.4378239  57.4705052 120.8034295  48.7609419  56.3581650 120.0311544
  40.5926490  65.2272494 132.8218667  39.8989962  64.8126446 132.3088621
  41.3399481  65.2693030 132.2252085  56.7291711  56.0178680 127.6873701
  56.1490380  56.6763484 127.3051753  56.4627644  55.1956025 127.2761118
  55.1795277  55.4183738 129.8895021  55.6795056  55.5300273 129.0809340
  55.8230885  55.1144791 130.5295830  49.2377273  63.3262368 142.7762862
  48.7544355  64.1262728 142.9826751  49.3238212  63.3370313 141.8230306
  42.5063233  65.1590747 130.6984681  42.4833921  65.2578435 129.7466565
  42.8163869  66.0055898 131.0201848  45.1650611  67.2166902 134.8131296
  46.1193864  67.1850845 134.7461227  44.9663134  66.7557526 135.6281522
  45.7549993  65.7868018 137.3802094  46.5742882  66.2812097 137.4036931
  46.0286801  64.8699987 137.3519661  55.5116589  58.1778771 126.7430049
  54.6242444  58.4628421 126.5250244  55.9270578  58.0172534 125.8957326
  58.8631125  58.2025292 130.4584388  59.6391515  58.6921744 130.7309005
  58.1379259  58.6283346 130.9156258  61.3003684  58.9152911 131.5158329
  61.8948175  58.6748647 130.8051637  61.3730268  58.1960042 132.1431865
  43.5200840  72.7586522 131.8301494  43.3855307  71.9986923 131.2639492
  43.1032902  73.4827422 131.3630283  54.6559803  67.9423445 120.8378069
  55.3595653  68.1473448 121.4535725  53.9322451  68.5100207 121.1027153
  55.4857613  63.6933307 126.9580339  55.4292814  64.1501858 126.1187972
  56.0385955  62.9323991 126.7803182  59.2962419  59.4823039 127.7830459
  59.0399353  59.0819674 128.6138666  58.6715287  60.1966832 127.6580598
  63.6074757  62.2219112 130.2901750  63.0474315  62.2912301 131.0633312
  63.0018260  62.0460096 129.5701246  46.6769965  73.6555839 132.0419936
  46.5602350  74.6001271 131.9398627  45.8562412  73.3529400 132.4305736
  56.5646500  68.3805975 122.8876529  57.3992104  67.9487173 122.7054004
  56.4030843  68.2087988 123.8153424  56.2192392  64.8838088 124.2532868
  56.1641196  64.7182359 123.3121313  55.5938447  65.5914121 124.4095058
  41.0084907  60.1206152 138.0794291  41.6543771  59.6105106 138.5681516
  40.8002058  60.8574834 138.6537716  53.5338299  67.1887000 143.5786431
  54.4029459  67.3627652 143.2173066  53.0545051  68.0081417 143.4562161
  49.5288518  54.3846197 123.8318187  49.5167187  55.3288037 123.9886458
  50.4211939  54.2016342 123.5377648  47.7024480  74.3084101 135.2575865
  48.6051726  74.3407711 135.5742360  47.4761850  73.3784552 135.2722201
  49.4578082  73.0615087 131.9185943  48.5073713  73.0616949 131.8050316
  49.7610568  72.3147822 131.4021978  53.3440637  50.9788974 128.0864124
  52.5773033  50.4247460 128.2320806  53.7551342  51.0510842 128.9478275
  45.3482398  57.2673769 142.1769305  46.2113860  56.9110574 142.3872629
  44.7747809  56.9287664 142.8644709  65.1930775  78.8975626 132.9831706
  65.8309185  78.7782373 132.2795046  65.0751618  79.8456470 133.0419658
  62.0020481  78.8503054 132.9193231  61.6638993  78.7344119 132.0313765
  62.8710250  78.4494219 132.8994237  57.8607297  80.7038530 128.9090121
  57.2972162  80.6128467 128.1406409  57.7459692  79.8838435 129.3892614
  62.4840264  80.0037906 138.8779436  62.4728905  79.6090704 138.0059940
  62.6460904  79.2703978 139.4713208  55.4071729  82.1989722 131.7474342
  56.1993021  81.8580547 131.3320641  55.6468379  82.3084697 132.6676495
  63.4406856  84.3709498 124.2204586  62.7894836  84.9563578 123.8338600
  64.2351219  84.9015693 124.2799624  57.3662483  81.4598635 124.6191721
  58.1393359  80.9127622 124.4804597  57.7187882  82.3242884 124.8306182
  59.2047525  82.7875017 137.8258620  58.9137391  83.6920648 137.7105286
  59.8404510  82.8291545 138.5402690  60.1303732  80.1651866 134.4159980
  60.7267305  79.9407888 133.7016943  60.1878704  79.4236611 135.0185428
  59.7028761  77.6191301 122.2510171  59.9554281  77.0972823 121.4893634
  58.7653320  77.4557447 122.3536854  64.7472044  76.6227080 130.0584914
  65.5335133  76.2046503 129.7075331  65.0110748  77.5273172 130.2266562
  64.9182121  82.0599930 124.7573571  64.2827954  82.1334556 125.4694475
  64.5879527  82.6493529 124.0792650  70.1480471  76.5602313 130.9617892
  70.8805643  75.9901530 131.1955722  69.3919826  76.1723913 131.4024398
  59.4225049  79.5219407 124.4534546  59.3061308  78.8464311 125.1215630
  59.5327309  79.0351781 123.6366699  61.7656590  78.9829554 128.1581235
  61.4014798  78.4560175 128.8694156  62.6223706  78.5928023 127.9847720
  67.6705891  70.2723887 135.4212501  67.3389216  71.1419298 135.1973716
  67.0751504  69.9560171 136.1006531  61.4062077  74.0119454 123.1542583
  61.5736480  74.8799690 123.5213054  61.2159246  74.1746736 122.2303873
  64.1637411  82.4736433 134.8208414  63.8638134  83.3761472 134.7124221
  63.8188470  82.2068616 135.6729567  57.6149892  78.9250230 130.8545118
  56.6900389  78.7926444 131.0622810  57.8634305  79.7044449 131.3515061
  67.5634554  74.9918973 132.5005851  66.6551432  74.9234382 132.2064612
  67.5122150  75.4690918 133.3287677  61.3851298  76.4677111 124.1389250
  61.2650923  76.9134162 124.9774730  60.6903887  76.8162429 123.5802788
  54.9758703  78.5683503 131.6888907  55.1051084  78.8217982 132.6028319
  54.2956154  79.1611211 131.3693562  59.1458190  89.2380753 127.7879381
  59.0682220  90.1888578 127.8667862  58.5419834  88.8926626 128.4454308
  61.6375420  76.4108619 140.4440748  60.8608754  76.9702539 140.4343613
  62.2765983  76.8965402 140.9655618  69.4296201  73.1935411 134.2783725
  68.7870581  73.4867945 133.6323520  68.9251129  73.0788332 135.0836922
  67.0836364  76.9398585 124.9669584  67.9954221  77.1725971 124.7917282
  66.5746011  77.5235629 124.4044663  59.8921792  79.2194072 140.0058715
  60.6336477  79.7579116 139.7293539  59.1858778  79.8460361 140.1630267
  65.3677132  81.3623212 138.6030877  65.7760488  80.9205623 137.8585509
  64.6454394  80.7875840 138.8565070  61.7208202  76.2995819 135.9764434
  62.5669397  76.7235233 136.1199083  61.6606840  75.6429444 136.6702997
  65.6905947  81.9224403 132.3583166  65.0614809  82.0870117 131.6559234
  65.3031609  82.3366013 133.1294130  69.5695179  82.8578841 129.7127529
  68.8846217  83.2377742 129.1624563  69.6539028  83.4674168 130.4459477
  64.8707647  73.9600188 137.6345607  64.6268579  74.7142248 137.0979883
  65.1467578  74.3385535 138.4692854  66.8246110  80.5038800 136.3122873
  67.0363005  81.1470560 135.6357254  66.7775858  79.6701117 135.8444803
  64.4272339  73.1156621 133.2159445  63.5656818  73.4137874 133.5076183
  64.4534774  73.3327020 132.2840478  61.2433909  81.6598811 129.6233251
  61.7072254  81.9386514 128.8337873  60.9790707  80.7582256 129.4406341
  58.1357990  81.2070293 132.5613014  58.7059347  81.6357561 131.9230499
  58.7266102  80.9252877 133.2597200  60.1802795  77.7821964 126.4322816
  60.8826838  78.2343007 126.8996742  59.8483423  77.1405782 127.0602709
  58.6283156  76.3733720 140.8074025  57.9981817  77.0550001 141.0409422
  58.5219244  76.2616802 139.8627164  53.9228129  76.0405516 131.7339949
  53.1327183  76.2963045 131.2580060  54.4139376  76.8553854 131.8391990
  67.9391938  83.3810755 134.4845230  68.7609382  82.9790943 134.2027912
  67.9354341  83.2778990 135.4361346  55.8742874  76.4050095 128.6923426
  55.0774037  76.5168790 129.2106922  55.6468466  76.7436748 127.8264317
  61.7048542  82.9294799 136.6405941  61.7692974  83.3915206 137.4764113
  60.9959465  82.2992164 136.7688251  52.2065832  76.2936007 134.1654940
  52.4573870  77.1783017 134.4312516  52.7425380  76.1140608 133.3930032
  76.0297931  79.7249504 130.8330202  75.2761640  79.1556902 130.6774206
  76.1645472  79.6912168 131.7800836  61.4196559  84.5962906 126.5084921
  61.2842234  85.4414442 126.9369769  61.9606372  84.7982184 125.7450855
  57.9063899  70.6754486 143.1699276  57.5130844  70.1220685 143.8446921
  58.7230039  70.9865065 143.5605794  54.8725957  82.1138344 127.0812846
  55.3850477  82.9081594 127.2318411  55.5248669  81.4164635 127.0146448
  56.6820841  85.2304101 129.1635599  56.8587470  86.1522065 128.9756583
  57.4777675  84.9162520 129.5929979  60.8231860  72.0912365 140.7619533
  61.5641573  72.6919518 140.6823995  61.0549783  71.3490003 140.2037575
  55.9673198  77.2768732 139.0397763  55.8526713  76.3753990 139.3404862
  55.1117716  77.5232429 138.6882579  63.0465036  85.2186473 140.6385263
  62.6028890  84.4322851 140.3206168  63.7082249  85.4065623 139.9729154
  57.8052157  86.7482274 135.1645942  58.3559582  86.6199338 134.3922936
  56.9663633  87.0477163 134.8140835  65.1446274  85.4989273 138.6666665
  65.1264749  86.3198154 138.1746934  66.0666194  85.3743348 138.8916806
  61.6019328  83.0133402 139.5090173  62.1347665  82.2521690 139.2789481
  61.0733409  82.7207054 140.2514327  64.7689023  68.1193468 135.0383815
  64.4253292  69.0095110 134.9622925  65.1367985  67.9295126 134.1753400
  52.8374873  80.4426999 127.8572417  53.6750095  80.8524007 127.6406124
  53.0153141  79.5026441 127.8272611  64.7339306  78.1102079 123.5456250
  64.2185929  78.8806684 123.7844637  64.4616614  77.4367215 124.1689311
  62.3186417  72.9551780 128.6041488  61.4628013  72.5658630 128.4247127
  62.7313368  73.0343741 127.7441274  63.8485563  70.4898123 133.0033048
  63.3450359  70.4528258 132.1900853  64.1416170  71.3990866 133.0629705
  60.0928449  70.5736853 132.0099230  60.9581446  70.3779662 131.6505119
  60.1605958  70.3447205 132.9368586  69.7073580  80.8634434 125.4809423
  68.9303022  80.5245593 125.0364585  70.3865061  80.8687057 124.8064388
  64.5225609  75.9829171 125.3716031  64.2175744  76.2975320 126.2226174
  65.4756051  76.0610591 125.4143364  62.9672041  82.1419395 127.0208985
  62.4393402  81.4072154 126.7082222  62.4659543  82.9194071 126.7748953
  67.9464887  80.3368415 132.1376031  67.2888561  81.0267676 132.2256160
  68.7505286  80.7264847 132.4810018  57.6990768  72.8039061 129.3815596
  58.2734520  72.5814242 128.6488789  58.2861751  72.8727755 130.1344198
  66.7570345  78.6912788 130.1879973  67.2702227  79.3242780 130.6901683
  67.4071569  78.0913983 129.8223333  58.0260355  74.8343522 123.4011482
  57.1897668  75.1718208 123.7220756  57.8865125  74.6992502 122.4638619
  60.0013436  69.6780310 128.1090666  59.3477848  69.3629327 127.4847281
  59.9593910  69.0556050 128.8350489  61.1124641  79.9599605 120.0243958
  60.2051703  79.7288858 120.2235107  61.6095673  79.1637224 120.2117939
  64.0192720  88.6697112 122.9440644  63.3454418  88.9728809 123.5525602
  64.4058542  89.4726192 122.5946101  63.2351176  76.1662243 132.4338313
  62.3173738  76.3877190 132.2760002  63.6511320  76.2408554 131.5750021
  64.0186224  77.5653659 127.5640994  64.7658043  78.0775056 127.2548116
  64.2877814  77.2437712 128.4245387  62.2912874  80.0612200 124.5467948
  61.3824093  79.7771233 124.6440418  62.3207958  80.4811278 123.6871255
  67.5232142  83.6718789 128.3159116  67.0694469  82.8309699 128.3724306
  66.8926108  84.3080188 128.6533896  66.4665061  74.6010775 129.5459783
  65.7287818  74.0888161 129.8770026  66.7191835  74.1611157 128.7343060
  65.9665081  85.5095286 129.2508934  66.2588055  86.0700343 128.5321299
  66.4763701  85.8023847 130.0062093  66.5676688  67.3787027 130.1401552
  66.8735565  66.5184391 129.8527467  67.2929293  67.9704647 129.9400546
  52.8601045  77.7817714 128.5283150  52.6625444  77.1887075 127.8034217
  52.3047709  77.4769924 129.2459089  60.8397768  77.6740820 130.6477743
  60.8946378  76.7214657 130.5720220  60.0288970  77.8300259 131.1319042
  61.9888962  81.6020943 121.8856027  61.5508392  80.8856802 121.4261664
  62.7299403  81.8297058 121.3241118  58.7790128  76.2917880 128.4068122
  57.9657994  76.5912051 128.8133314  59.2749122  75.8973569 129.1242604
  60.9298706  86.2875637 130.3402387  60.8874885  86.5136483 129.4110919
  61.8461405  86.0539012 130.4888188  64.3764340  76.7559705 137.2383016
  64.7313728  76.9831178 138.0977482  65.0236471  77.0878081 136.6160271
  70.1062077  79.8778140 127.9432345  69.9679975  80.0679736 127.0153534
  69.7498296  80.6397523 128.4000396  58.2704203  73.8636236 134.0229357
  58.9103582  73.7224995 133.3252320  57.4381733  73.5770749 133.6467959
  70.1331456  81.9454667 132.9543617  70.5667963  81.8529957 133.8026671
  70.8463037  81.9212168 132.3163633  59.0464507  83.1638666 130.1364350
  59.8405105  82.6688986 129.9346925  58.3356199  82.6356529 129.7732055
  63.8659351  85.5456762 134.4876717  63.9196374  86.1147698 135.2554433
  62.9974133  85.7158647 134.1230754  55.3547270  77.3081748 126.2124102
  54.4244858  77.2466203 126.4294064  55.4504742  76.7857701 125.4160744
  55.2732819  73.8336561 128.8002344  55.5339637  74.7481894 128.6911504
  56.0949992  73.3661003 128.9498957  56.7457745  75.2474318 135.9701169
  57.4180798  75.0391680 135.3213817  55.9187531  75.0496404 135.5306401
  70.9947006  81.9878368 135.4876502  71.1882896  82.8924179 135.7335777
  70.8947624  81.5285787 136.3215087  62.6483317  71.8736259 137.9866829
  62.0011232  72.5726208 137.8931306  63.4184332  72.3072403 138.3543078
  66.0562115  82.1385111 141.0617383  65.9047621  81.9095663 140.1447466
  66.0466794  83.0955712 141.0748728  62.8247451  79.7117024 136.0463649
  63.7539511  79.8628183 135.8732616  62.4038481  79.8001044 135.1912296
  61.6235783  83.7367688 133.8162187  61.4846869  83.3686472 134.6888125
  60.8350379  84.2515327 133.6446145  62.2183935  88.8376784 125.1587723
  62.3935690  88.3664828 125.9733346  61.5316723  89.4642551 125.3868984
  63.1740998  83.1149291 131.2051025  62.8390831  83.0750061 132.1008674
  62.6744944  82.4494007 130.7321435  57.1485242  78.5216921 136.7303606
  57.0105040  77.7897160 137.3315145  58.0590165  78.4325821 136.4487793
  66.1100190  80.4605325 121.4788084  65.4929360  79.7352153 121.3821137
  65.6416678  81.2214685 121.1355158  59.7767543  78.2336880 136.2187285
  60.4867161  77.5930072 136.1773904  59.7336851  78.4849775 137.1413466
  67.7654321  85.1704233 139.1393865  67.7066867  84.4863454 138.4724448
  68.1673840  85.9123223 138.6874491  58.4896477  75.2202098 138.0382925
  57.9533834  74.7692836 138.6904521  57.9013185  75.3548007 137.2953389
  56.7845020  91.9866147 131.9327583  57.0241618  92.6184671 132.6106602
  55.9414217  91.6354187 132.2192943  57.8998736  74.6790749 120.6009388
  57.0228202  74.5579550 120.2371635  58.3756489  73.8876828 120.3488277
  67.7671729  83.1343817 137.3707844  66.8798507  82.7969739 137.4934243
  68.3370280  82.4026849 137.6076610  49.4200876  79.4667909 130.6950896
  50.1071916  79.1529639 130.1071911  49.2649004  80.3709274 130.4218147
  54.2235598  74.3558106 135.1235919  54.1393787  73.7483775 134.3886329
  53.4018304  74.8467124 135.1245416  61.2972882  87.7945270 134.3369087
  61.2243053  88.6000241 134.8488392  60.8550275  87.9937236 133.5117109
  61.0862662  87.0317040 127.8471909  60.3030183  87.5738720 127.9410133
  61.7855407  87.5491019 128.2466150  64.3959312  72.8411669 130.4906114
  64.8928011  72.0881631 130.1707185  63.6246293  72.8775986 129.9249324
  72.2489069  78.5452035 132.1324406  72.2378945  79.4276750 131.7618339
  71.3806449  78.1923586 131.9378943  63.7571565  87.6932104 136.4927246
  64.4699538  88.3279569 136.4203148  63.2661594  87.7895970 135.6767248
  65.4789092  81.5983356 128.0644538  64.5445371  81.7184819 127.8949242
  65.6565761  80.6955823 127.8004548  60.9794280  74.9829052 130.2177799
  60.6092068  74.4300093 130.9058705  61.4753373  74.3787186 129.6652799
  68.8661644  77.4400676 128.5994572  69.3322096  78.2728667 128.5254875
  69.3169144  76.9745657 129.3039830  58.8083479  85.4426547 137.3132817
  59.5092938  86.0763030 137.4662211  58.3378594  85.7841279 136.5528456
  66.9337875  83.7844497 125.5980724  67.2097719  83.6701092 126.5074598
  66.0642374  83.3861982 125.5592897  66.8378306  69.8081263 132.6385473
  65.9241386  70.0385490 132.8067680  67.2671408  69.8919707 133.4899506
  66.6084765  77.9971155 135.1385367  65.9556215  78.2447062 134.4837820
  66.9865145  77.1835293 134.8047845  63.5691939  88.0330848 129.2413538
  63.7514333  87.2152504 129.7041290  64.3924925  88.2498540 128.8038428
  63.9034104  86.9599033 126.5028586  64.4321871  86.4491488 125.8898748
  64.1662324  86.6441563 127.3674119  62.6572338  78.7390966 141.6251404
  61.9812975  78.6385095 142.2953780  63.4799972  78.5830179 142.0887402
  54.4051197  84.9762902 134.2463920  54.9904634  84.2306590 134.3791824
  54.2076036  85.2866859 135.1300583  57.2589852  88.0114150 129.2626362
  56.5900228  88.4960277 128.7790402  57.1202722  88.2583370 130.1769740
  48.9968852  77.5468502 132.9668363  49.0352951  77.0132093 133.7605481
  48.4909145  77.0203708 132.3479340  61.3995121  90.0457893 135.8609020
  61.9513429  90.2089515 136.6258106  61.7401314  90.6362331 135.1889045
  56.3759614  72.3933043 136.4630905  56.4400941  73.2547874 136.0508303
  56.3126734  71.7807045 135.7303264  55.8511887  74.4656175 140.1103939
  56.4783925  74.0833253 140.7241464  54.9939805  74.2470377 140.4759632
  66.2505995  84.8719151 141.7157675  66.7945899  85.4849109 141.2212630
  65.6692840  85.4298729 142.2324688  52.6277429  76.2732605 126.0422294
  52.9230870  75.3643283 125.9889348  51.7265465  76.2520344 125.7203296
  64.5363508  87.9939869 132.8472702  64.4114648  87.1929609 132.3383648
  65.1942599  88.4886062 132.3586672  56.1571676  74.3488601 132.0249843
  55.4358262  74.9624569 131.8857316  56.9464932  74.8846366 131.9466489
  66.5998417  85.7948889 134.4752253  65.6528752  85.6754240 134.4030579
  66.9481190  84.9071387 134.5578514  58.9597990  71.6843028 138.2990494
  59.4832392  71.9305324 139.0616804  58.7410323  72.5163062 137.8793632
  54.3565271  73.9546702 126.1661619  54.0277977  73.0744081 125.9836725
  54.7104642  73.8994371 127.0538008  63.6044850  85.5901605 130.6756605
  63.4569812  84.6618312 130.8564175  64.4298343  85.6121696 130.1913680
  57.4707094  74.2419672 126.5337097  57.8103167  74.7705593 125.8115705
  57.9179215  74.5800078 127.3095663  67.2078972  86.4130164 131.7621478
  68.1325519  86.2073025 131.6245929  67.0394275  86.1646565 132.6710819
  60.1650535  72.6256723 135.9840165  59.8247355  71.8264536 136.3860845
  59.4589541  72.9258434 135.4116998  60.8167007  69.7106035 134.4367488
  61.6393076  69.2366513 134.3146378  61.0605070  70.4896519 134.9366174
  59.4575241  72.7394294 124.7330390  60.1783604  73.1175546 124.2294107
  58.8340545  73.4583170 124.8365368  63.6006364  73.4439443 125.6688722
  63.8169979  74.3264080 125.3677550  63.1200431  73.0525656 124.9394364
  58.3405586  76.4025156 132.2459467  58.1950166  76.7165459 133.1383748
  57.8630789  77.0210056 131.6930365  60.2001968  73.3927704 132.2940356
  60.1863537  72.4968797 131.9572654  60.9174397  73.3998368 132.9278642
  62.0528099  73.8265044 134.3393484  61.7945877  74.7482115 134.3377814
  61.5213139  73.4295479 135.0293948  66.9974288  86.9315831 127.1183569
  67.1711165  86.3662254 126.3657421  67.4903179  87.7316726 126.9363059
  52.8151248  78.9430500 135.1847128  52.2704716  79.7190308 135.3167402
  53.6930598  79.2901305 135.0266249  59.6038864  72.2742084 127.5627926
  59.7254776  71.3458730 127.7618814  59.3140907  72.2880770 126.6506242
  62.4730055  69.9596995 130.6994646  62.4951752  70.0236328 129.7446626
  62.8898114  69.1201503 130.8935152  72.8513679  79.6952254 128.7373869
  73.2944825  78.9459579 128.3392992  71.9740189  79.6862390 128.3547601
  67.9849460  86.2482596 124.2180467  68.6800365  86.8689288 124.4367782
  68.3272611  85.3977947 124.4932845  53.6017270  78.0700396 138.0777285
  52.8599006  78.2183032 138.6641915  53.2810014  78.3308662 137.2144034
  69.8840883  83.6982301 125.7467798  70.4092208  84.0369574 125.0217118
  69.7963236  82.7629316 125.5630933  61.5460932  87.6116375 137.8757675
  61.8548059  87.3665521 138.7480374  62.3436414  87.8163013 137.3876545
  61.5681544  89.7654284 130.1063051  61.1286535  89.2730663 130.7995908
  62.3189661  89.2227252 129.8655126  54.0473883  85.9565825 130.1087679
  54.8731903  85.6569597 129.7286323  53.6967935  85.1873448 130.5577468
  59.0155416  85.3092293 132.1785353  58.3935426  84.6462998 131.8787581
  59.6860283  85.3353425 131.4959001  52.2482488  83.8752152 131.0676613
  51.4114397  83.4474326 130.8860614  52.2206134  84.0684595 132.0047404
  59.0879944  73.7874081 141.7717859  59.1368099  74.6636204 141.3895629
  59.6302458  73.2451475 141.1989502  69.5734790  84.3315205 141.0518996
  68.7830333  84.3139344 140.5123495  69.3368144  84.8703498 141.8068033
  69.6932665  81.1807671 138.3651725  69.7430670  81.0157679 139.3067247
  69.5846588  80.3134930 137.9749605  58.5768923  83.8596217 125.6543813
  58.7257044  84.5431681 125.0010486  59.3835367  83.8401307 126.1693269
  66.9836427  77.1638599 139.6811031  67.8846290  77.0245064 139.3895029
  67.0584402  77.3293054 140.6209209  61.3179232  74.5405454 138.5264218
  60.4482542  74.8339020 138.2546806  61.5538713  75.1245899 139.2471481
  71.1950861  83.6004613 138.6093746  70.9035670  83.9634593 139.4457207
  70.5822993  82.8871621 138.4307078  72.3946544  81.1657492 131.1296316
  73.2293435  81.6047296 131.2933877  72.5305673  80.6896146 130.3104562
  69.4438050  78.7237227 137.0773804  69.9192171  78.9164874 136.2692655
  68.5203615  78.7796413 136.8317188  56.3321556  79.8861394 126.6604882
  56.0867598  78.9823724 126.8585092  56.5017471  79.8878545 125.7184360
  64.0218266  70.7585071 136.0429638  64.5400210  71.4946098 135.7176127
  63.6673399  71.0649064 136.8776397  55.6017204  75.6189752 124.1591044
  54.9086449  75.6934107 123.5031080  55.3568956  74.8550096 124.6812561
  64.2730860  67.1785353 131.5630535  64.5532614  66.5108542 132.1890961
  65.0581467  67.3714449 131.0505198  62.0764329  86.3544347 123.1255561
  61.5038296  86.9734534 122.6726033  62.6497122  86.9043709 123.6595483
  68.1439719  75.6002987 135.3102110  69.0957142  75.7001085 135.3314334
  67.9743169  74.8081256 135.8200194  66.1654098  72.6858571 135.4961511
  65.5704030  72.9663583 134.8007999  65.8803795  73.1752471 136.2678252
  65.2961589  86.6381497 124.2564143  66.2292262  86.5727059 124.4597019
  65.2084801  87.4737764 123.7978676  67.9249605  85.9547368 121.2168091
  67.8463237  85.6207231 122.1103849  68.7459272  86.4469136 121.2159563
  70.6227796  78.8209107 134.4244409  70.5904117  77.8825108 134.6104093
  71.2328420  78.8993144 133.6910234  62.4611127  77.6905160 120.4671613
  63.4070232  77.5611368 120.5360031  62.0825372  76.9519822 120.9441042
  70.7722285  75.6120150 134.4702693  70.2561334  74.8278607 134.2832621
  71.6562233  75.2838867 134.6349212  68.4333012  69.3561166 130.4298505
  68.2357833  69.0476254 131.3141837  69.0432717  70.0822805 130.5596435
  76.4404346  79.8825114 133.5650446  77.1707735  79.6210402 134.1258149
  75.8311292  79.1453836 133.6052514  74.5219643  78.0232976 134.1624897
  73.7952807  77.8888941 133.5541389  74.1066930  78.3309805 134.9681615
  62.3449820  81.7422906 141.9272270  63.2652829  81.9201505 142.1212317
  62.3099403  80.7978951 141.7751970  60.6454044  75.6155136 120.4026499
  59.7385500  75.3188249 120.4789212  60.9230025  75.3184954 119.5360785
  51.5631985  76.9361500 130.8525545  51.2434769  76.0826808 130.5599919
  51.0165413  77.1510078 131.6083512  55.3411892  79.6523941 134.5695052
  55.5597902  80.5841049 134.5883085  55.7537666  79.2931915 135.3549855
  62.2616110  70.1592026 126.5570740  61.4516839  69.8139111 126.9325986
  62.9500527  69.8499570 127.1458351  64.1906658  69.2370073 128.1795037
  64.7437697  69.6565526 128.8385060  64.4276745  68.3105821 128.2217993
  60.2139758  75.2257147 143.9597800  60.1136485  76.1751503 143.8909892
  59.9961300  74.8975385 143.0873871  59.4152829  72.4742072 120.5438478
  60.2771993  72.7996970 120.8034295  59.6003173  71.6873567 120.0311544
  51.4320245  80.5564411 132.8218667  50.7383716  80.1418364 132.3088621
  52.1793236  80.5984948 132.2252085  67.5685466  71.3470598 127.6873701
  66.9884135  72.0055402 127.3051753  67.3021398  70.5247943 127.2761118
  66.0189032  70.7475656 129.8895021  66.5188810  70.8592190 129.0809340
  66.6624640  70.4436709 130.5295830  60.0771028  78.6554285 142.7762862
  59.5938109  79.4554645 142.9826751  60.1631967  78.6662230 141.8230306
  53.3456987  80.4882665 130.6984681  53.3227675  80.5870352 129.7466565
  53.6557624  81.3347816 131.0201848  56.0044365  82.5458820 134.8131296
  56.9587619  82.5142762 134.7461227  55.8056889  82.0849444 135.6281522
  56.5943747  81.1159936 137.3802094  57.4136636  81.6104015 137.4036931
  56.8680555  80.1991904 137.3519661  66.3510344  73.5070688 126.7430049
  65.4636199  73.7920339 126.5250244  66.7664333  73.3464452 125.8957326
  69.7024880  73.5317209 130.4584388  70.4785270  74.0213662 130.7309005
  68.9773014  73.9575264 130.9156258  72.1397438  74.2444829 131.5158329
  72.7341929  74.0040565 130.8051637  72.2124022  73.5251959 132.1431865
  54.3594594  88.0878440 131.8301494  54.2249062  87.3278840 131.2639492
  53.9426656  88.8119339 131.3630283  65.4953557  83.2715363 120.8378069
  66.1989407  83.4765366 121.4535725  64.7716206  83.8392125 121.1027153
  66.3251367  79.0225224 126.9580339  66.2686569  79.4793776 126.1187972
  66.8779710  78.2615909 126.7803182  70.1356173  74.8114956 127.7830459
  69.8793107  74.4111592 128.6138666  69.5109041  75.5258750 127.6580598
  74.4468511  77.5511029 130.2901750  73.8868069  77.6204219 131.0633312
  73.8412014  77.3752014 129.5701246  57.5163720  88.9847757 132.0419936
  57.3996104  89.9293189 131.9398627  56.6956166  88.6821318 132.4305736
  67.4040254  83.7097892 122.8876529  68.2385858  83.2779091 122.7054004
  67.2424597  83.5379906 123.8153424  67.0586147  80.2130006 124.2532868
  67.0034950  80.0474277 123.3121313  66.4332202  80.9206039 124.4095058
  51.8478662  75.4498070 138.0794291  52.4937525  74.9397024 138.5681516
  51.6395813  76.1866752 138.6537716  64.3732054  82.5178917 143.5786431
  65.2423213  82.6919570 143.2173066  63.8938805  83.3373334 143.4562161
  60.3682272  69.7138115 123.8318187  60.3560942  70.6579955 123.9886458
  61.2605694  69.5308260 123.5377648  58.5418234  89.6376018 135.2575865
  59.4445481  89.6699629 135.5742360  58.3155604  88.7076469 135.2722201
  60.2971836  88.3907005 131.9185943  59.3467467  88.3908867 131.8050316
  60.6004322  87.6439740 131.4021978  64.1834392  66.3080891 128.0864124
  63.4166787  65.7539378 128.2320806  64.5945097  66.3802760 128.9478275
  56.1876153  72.5965687 142.1769305  57.0507614  72.2402492 142.3872629
  55.6141563  72.2579582 142.8644709  76.0324530  94.2267543 132.9831706
  76.6702940  94.1074291 132.2795046  75.9145372  95.1748387 133.0419658
  72.8414236  94.1794972 132.9193231  72.5032747  94.0636036 132.0313765
  73.7104004  93.7786137 132.8994237  68.7001052  96.0330448 128.9090121
  68.1365917  95.9420385 128.1406409  68.5853447  95.2130352 129.3892614
  73.3234019  95.3329823 138.8779436  73.3122660  94.9382622 138.0059940
  73.4854658  94.5995896 139.4713208  66.2465483  97.5281640 131.7474342
  67.0386775  97.1872464 131.3320641  66.4862134  97.6376615 132.6676495
  74.2800610  99.7001416 124.2204586  73.6288590 100.2855496 123.8338600
  75.0744973 100.2307611 124.2799624  68.2056237  96.7890553 124.6191721
  68.9787113  96.2419540 124.4804597  68.5581636  97.6534802 124.8306182
  70.0441280  98.1166935 137.8258620  69.7531146  99.0212566 137.7105286
  70.6798264  98.1583463 138.5402690  70.9697487  95.4943784 134.4159980
  71.5661059  95.2699806 133.7016943  71.0272458  94.7528529 135.0185428
  70.5422515  92.9483219 122.2510171  70.7948036  92.4264740 121.4893634
  69.6047074  92.7849364 122.3536854  75.5865798  91.9518997 130.0584914
  76.3728887  91.5338420 129.7075331  75.8504502  92.8565089 130.2266562
  75.7575875  97.3891848 124.7573571  75.1221708  97.4626474 125.4694475
  75.4273282  97.9785446 124.0792650  80.9874225  91.8894230 130.9617892
  81.7199397  91.3193447 131.1955722  80.2313581  91.5015831 131.4024398
  70.2618804  94.8511325 124.4534546  70.1455062  94.1756228 125.1215630
  70.3721064  94.3643699 123.6366699  72.6050345  94.3121472 128.1581235
  72.2408552  93.7852093 128.8694156  73.4617461  93.9219941 127.9847720
  78.5099646  85.6015805 135.4212501  78.1782970  86.4711216 135.1973716
  77.9145259  85.2852089 136.1006531  72.2455832  89.3411372 123.1542583
  72.4130234  90.2091608 123.5213054  72.0553001  89.5038653 122.2303873
  75.0031165  97.8028351 134.8208414  74.7031888  98.7053389 134.7124221
  74.6582225  97.5360534 135.6729567  68.4543647  94.2542147 130.8545118
  67.5294143  94.1218362 131.0622810  68.7028060  95.0336367 131.3515061
  78.4028309  90.3210891 132.5005851  77.4945186  90.2526299 132.2064612
  78.3515905  90.7982836 133.3287677  72.2245053  91.7969029 124.1389250
  72.1044678  92.2426080 124.9774730  71.5297641  92.1454347 123.5802788
  65.8152458  93.8975421 131.6888907  65.9444839  94.1509900 132.6028319
  65.1349909  94.4903129 131.3693562  69.9851945 104.5672671 127.7879381
  69.9075975 105.5180496 127.8667862  69.3813588 104.2218543 128.4454308
  72.4769175  91.7400536 140.4440748  71.7002509  92.2994456 140.4343613
  73.1159738  92.2257319 140.9655618  80.2689955  88.5227329 134.2783725
  79.6264335  88.8159862 133.6323520  79.7644884  88.4080249 135.0836922
  77.9230119  92.2690502 124.9669584  78.8347975  92.5017889 124.7917282
  77.4139766  92.8527547 124.4044663  70.7315547  94.5485990 140.0058715
  71.4730231  95.0871034 139.7293539  70.0252532  95.1752278 140.1630267
  76.2070887  96.6915130 138.6030877  76.6154243  96.2497541 137.8585509
  75.4848148  96.1167758 138.8565070  72.5601957  91.6287737 135.9764434
  73.4063152  92.0527150 136.1199083  72.5000594  90.9721361 136.6702997
  76.5299701  97.2516321 132.3583166  75.9008564  97.4162035 131.6559234
  76.1425363  97.6657930 133.1294130  80.4088933  98.1870759 129.7127529
  79.7239971  98.5669660 129.1624563  80.4932782  98.7966085 130.4459477
  75.7101402  89.2892105 137.6345607  75.4662334  90.0434166 137.0979883
  75.9861332  89.6677453 138.4692854  77.6639865  95.8330718 136.3122873
  77.8756760  96.4762478 135.6357254  77.6169613  94.9993034 135.8444803
  75.2666094  88.4448538 133.2159445  74.4050573  88.7429792 133.5076183
  75.2928528  88.6618937 132.2840478  72.0827663  96.9890729 129.6233251
  72.5466009  97.2678432 128.8337873  71.8184461  96.0874173 129.4406341
  68.9751744  96.5362210 132.5613014  69.5453101  96.9649479 131.9230499
  69.5659856  96.2544795 133.2597200  71.0196549  93.1113881 126.4322816
  71.7220592  93.5634925 126.8996742  70.6877178  92.4697700 127.0602709
  69.4676911  91.7025638 140.8074025  68.8375571  92.3841919 141.0409422
  69.3612999  91.5908719 139.8627164  64.7621883  91.3697434 131.7339949
  63.9720937  91.6254962 131.2580060  65.2533130  92.1845772 131.8391990
  78.7785693  98.7102673 134.4845230  79.6003136  98.3082860 134.2027912
  78.7748096  98.6070907 135.4361346  66.7136628  91.7342013 128.6923426
  65.9167792  91.8460707 129.2106922  66.4862221  92.0728665 127.8264317
  72.5442296  98.2586716 136.6405941  72.6086729  98.7207124 137.4764113
  71.8353220  97.6284081 136.7688251  63.0459586  91.6227924 134.1654940
  63.2967625  92.5074934 134.4312516  63.5819134  91.4432526 133.3930032
  86.8691686  95.0541422 130.8330202  86.1155394  94.4848820 130.6774206
  87.0039227  95.0204086 131.7800836  72.2590314  99.9254824 126.5084921
  72.1235989 100.7706360 126.9369769  72.8000126 100.1274102 125.7450855
  68.7457653  86.0046404 143.1699276  68.3524599  85.4512602 143.8446921
  69.5623794  86.3156982 143.5605794  65.7119711  97.4430262 127.0812846
  66.2244232  98.2373512 127.2318411  66.3642424  96.7456552 127.0146448
  67.5214596 100.5596018 129.1635599  67.6981224 101.4813983 128.9756583
  68.3171429 100.2454437 129.5929979  71.6625614  87.4204283 140.7619533
  72.4035328  88.0211436 140.6823995  71.8943537  86.6781921 140.2037575
  66.8066952  92.6060650 139.0397763  66.6920468  91.7045907 139.3404862
  65.9511470  92.8524347 138.6882579  73.8858790 100.5478390 140.6385263
  73.4422644  99.7614769 140.3206168  74.5476004 100.7357541 139.9729154
  68.6445911 102.0774192 135.1645942  69.1953336 101.9491255 134.3922936
  67.8057387 102.3769081 134.8140835  75.9840028 100.8281190 138.6666665
  75.9658504 101.6490071 138.1746934  76.9059948 100.7035266 138.8916806
  72.4413082  98.3425320 139.5090173  72.9741419  97.5813608 139.2789481
  71.9127163  98.0498972 140.2514327  75.6082777  83.4485386 135.0383815
  75.2647047  84.3387027 134.9622925  75.9761740  83.2587043 134.1753400
  63.6768628  95.7718916 127.8572417  64.5143850  96.1815925 127.6406124
  63.8546896  94.8318358 127.8272611  75.5733060  93.4393997 123.5456250
  75.0579683  94.2098602 123.7844637  75.3010368  92.7659133 124.1689311
  73.1580171  88.2843698 128.6041488  72.3021767  87.8950548 128.4247127
  73.5707123  88.3635658 127.7441274  74.6879318  85.8190041 133.0033048
  74.1844113  85.7820176 132.1900853  74.9809925  86.7282784 133.0629705
  70.9322204  85.9028771 132.0099230  71.7975200  85.7071579 131.6505119
  70.9999713  85.6739122 132.9368586  80.5467334  96.1926352 125.4809423
  79.7696777  95.8537511 125.0364585  81.2258815  96.1978975 124.8064388
  75.3619363  91.3121089 125.3716031  75.0569499  91.6267238 126.2226174
  76.3149805  91.3902509 125.4143364  73.8065795  97.4711312 127.0208985
  73.2787157  96.7364072 126.7082222  73.3053298  98.2485989 126.7748953
  78.7858641  95.6660333 132.1376031  78.1282316  96.3559594 132.2256160
  79.5899040  96.0556765 132.4810018  68.5384523  88.1330979 129.3815596
  69.1128275  87.9106160 128.6488789  69.1255505  88.2019673 130.1344198
  77.5964100  94.0204705 130.1879973  78.1095982  94.6534697 130.6901683
  78.2465324  93.4205901 129.8223333  68.8654110  90.1635440 123.4011482
  68.0291422  90.5010126 123.7220756  68.7258879  90.0284419 122.4638619
  70.8407190  85.0072227 128.1090666  70.1871603  84.6921245 127.4847281
  70.7987665  84.3847968 128.8350489  71.9518395  95.2891523 120.0243958
  71.0445457  95.0580776 120.2235107  72.4489427  94.4929142 120.2117939
  74.8586474 103.9989030 122.9440644  74.1848173 104.3020726 123.5525602
  75.2452296 104.8018110 122.5946101  74.0744931  91.4954161 132.4338313
  73.1567492  91.7169108 132.2760002  74.4905074  91.5700471 131.5750021
  74.8579979  92.8945577 127.5640994  75.6051797  93.4066974 127.2548116
  75.1271568  92.5729629 128.4245387  73.1306629  95.3904117 124.5467948
  72.2217848  95.1063150 124.6440418  73.1601712  95.8103196 123.6871255
  78.3625896  99.0010707 128.3159116  77.9088223  98.1601617 128.3724306
  77.7319863  99.6372105 128.6533896  77.3058816  89.9302693 129.5459783
  76.5681572  89.4180079 129.8770026  77.5585589  89.4903075 128.7343060
  76.8058835 100.8387204 129.2508934  77.0981810 101.3992261 128.5321299
  77.3157456 101.1315765 130.0062093  77.4070443  82.7078945 130.1401552
  77.7129320  81.8476308 129.8527467  78.1323048  83.2996565 129.9400546
  63.6994799  93.1109632 128.5283150  63.5019199  92.5178992 127.8034217
  63.1441463  92.8061842 129.2459089  71.6791523  93.0032738 130.6477743
  71.7340133  92.0506574 130.5720220  70.8682725  93.1592177 131.1319042
  72.8282716  96.9312861 121.8856027  72.3902146  96.2148720 121.4261664
  73.5693157  97.1588976 121.3241118  69.6183883  91.6209798 128.4068122
  68.8051748  91.9203968 128.8133314  70.1142877  91.2265487 129.1242604
  71.7692461 101.6167555 130.3402387  71.7268639 101.8428401 129.4110919
  72.6855159 101.3830929 130.4888188  75.2158094  92.0851622 137.2383016
  75.5707482  92.3123095 138.0977482  75.8630226  92.4169999 136.6160271
  80.9455831  95.2070058 127.9432345  80.8073730  95.3971654 127.0153534
  80.5892050  95.9689441 128.4000396  69.1097957  89.1928153 134.0229357
  69.7497337  89.0516912 133.3252320  68.2775488  88.9062667 133.6467959
  80.9725211  97.2746585 132.9543617  81.4061718  97.1821874 133.8026671
  81.6856792  97.2504086 132.3163633  69.8858261  98.4930584 130.1364350
  70.6798860  97.9980904 129.9346925  69.1749954  97.9648447 129.7732055
  74.7053106 100.8748679 134.4876717  74.7590128 101.4439616 135.2554433
  73.8367887 101.0450564 134.1230754  66.1941025  92.6373665 126.2124102
  65.2638613  92.5758121 126.4294064  66.2898497  92.1149618 125.4160744
  66.1126574  89.1628478 128.8002344  66.3733391  90.0773812 128.6911504
  66.9343746  88.6952921 128.9498957  67.5851499  90.5766235 135.9701169
  68.2574553  90.3683598 135.3213817  66.7581286  90.3788321 135.5306401
  81.8340760  97.3170286 135.4876502  82.0276651  98.2216096 135.7335777
  81.7341379  96.8577705 136.3215087  73.4877071  87.2028176 137.9866829
  72.8404986  87.9018126 137.8931306  74.2578087  87.6364320 138.3543078
  76.8955869  97.4677029 141.0617383  76.7441376  97.2387580 140.1447466
  76.8860549  98.4247630 141.0748728  73.6641206  95.0408941 136.0463649
  74.5933266  95.1920101 135.8732616  73.2432236  95.1292962 135.1912296
  72.4629537  99.0659606 133.8162187  72.3240623  98.6978390 134.6888125
  71.6744134  99.5807245 133.6446145  73.0577689 104.1668702 125.1587723
  73.2329445 103.6956745 125.9733346  72.3710477 104.7934468 125.3868984
  74.0134752  98.4441208 131.2051025  73.6784585  98.4041978 132.1008674
  73.5138698  97.7785924 130.7321435  67.9878996  93.8508838 136.7303606
  67.8498794  93.1189077 137.3315145  68.8983920  93.7617739 136.4487793
  76.9493944  95.7897243 121.4788084  76.3323115  95.0644071 121.3821137
  76.4810433  96.5506603 121.1355158  70.6161297  93.5628798 136.2187285
  71.3260916  92.9221990 136.1773904  70.5730605  93.8141693 137.1413466
  78.6048076 100.4996151 139.1393865  78.5460622  99.8155371 138.4724448
  79.0067594 101.2415141 138.6874491  69.3290231  90.5494016 138.0382925
  68.7927588  90.0984754 138.6904521  68.7406940  90.6839924 137.2953389
  67.6238775 107.3158065 131.9327583  67.8635373 107.9476589 132.6106602
  66.7807971 106.9646105 132.2192943  68.7392490  90.0082667 120.6009388
  67.8621956  89.8871468 120.2371635  69.2150243  89.2168745 120.3488277
  78.6065483  98.4635735 137.3707844  77.7192262  98.1261657 137.4934243
  79.1764034  97.7318766 137.6076610  60.2594630  94.7959827 130.6950896
  60.9465670  94.4821557 130.1071911  60.1042759  95.7001191 130.4218147
  65.0629352  89.6850023 135.1235919  64.9787541  89.0775693 134.3886329
  64.2412059  90.1759042 135.1245416  72.1366636 103.1237187 134.3369087
  72.0636808 103.9292159 134.8488392  71.6944030 103.3229153 133.5117109
  71.9256416 102.3608957 127.8471909  71.1423938 102.9030638 127.9410133
  72.6249161 102.8782937 128.2466150  75.2353066  88.1703587 130.4906114
  75.7321766  87.4173549 130.1707185  74.4640048  88.2067904 129.9249324
  83.0882824  93.8743952 132.1324406  83.0772700  94.7568668 131.7618339
  82.2200203  93.5215503 131.9378943  74.5965320 103.0224021 136.4927246
  75.3093292 103.6571486 136.4203148  74.1055349 103.1187887 135.6767248
  76.3182847  96.9275274 128.0644538  75.3839126  97.0476737 127.8949242
  76.4959515  96.0247741 127.8004548  71.8188035  90.3120970 130.2177799
  71.4485822  89.7592010 130.9058705  72.3147127  89.7079103 129.6652799
  79.7055398  92.7692593 128.5994572  80.1715850  93.6020585 128.5254875
  80.1562899  92.3037575 129.3039830  69.6477233 100.7718465 137.3132817
  70.3486693 101.4054948 137.4662211  69.1772348 101.1133196 136.5528456
  77.7731629  99.1136415 125.5980724  78.0491473  98.9993009 126.5074598
  76.9036128  98.7153899 125.5592897  77.6772061  85.1373180 132.6385473
  76.7635141  85.3677407 132.8067680  78.1065162  85.2211624 133.4899506
  77.4478519  93.3263072 135.1385367  76.7949970  93.5738980 134.4837820
  77.8258899  92.5127210 134.8047845  74.4085693 103.3622765 129.2413538
  74.5908088 102.5444421 129.7041290  75.2318679 103.5790458 128.8038428
  74.7427859 102.2890951 126.5028586  75.2715625 101.7783405 125.8898748
  75.0056078 101.9733481 127.3674119  73.4966092  94.0682883 141.6251404
  72.8206729  93.9677013 142.2953780  74.3193726  93.9122097 142.0887402
  65.2444952 100.3054820 134.2463920  65.8298388  99.5598508 134.3791824
  65.0469790 100.6158777 135.1300583  68.0983607 103.3406067 129.2626362
  67.4293982 103.8252195 128.7790402  67.9596476 103.5875288 130.1769740
  59.8362606  92.8760420 132.9668363  59.8746706  92.3424011 133.7605481
  59.3302899  92.3495626 132.3479340  72.2388875 105.3749811 135.8609020
  72.7907183 105.5381432 136.6258106  72.5795069 105.9654249 135.1889045
  67.2153369  87.7224961 136.4630905  67.2794695  88.5839792 136.0508303
  67.1520489  87.1098962 135.7303264  66.6905641  89.7948093 140.1103939
  67.3177680  89.4125170 140.7241464  65.8333560  89.5762295 140.4759632
  77.0899750 100.2011068 141.7157675  77.6339654 100.8141027 141.2212630
  76.5086595 100.7590647 142.2324688  63.4671184  91.6024522 126.0422294
  63.7624625  90.6935201 125.9889348  62.5659220  91.5812262 125.7203296
  75.3757263 103.3231786 132.8472702  75.2508402 102.5221526 132.3383648
  76.0336354 103.8177980 132.3586672  66.9965431  89.6780519 132.0249843
  66.2752017  90.2916487 131.8857316  67.7858687  90.2138284 131.9466489
  77.4392171 101.1240806 134.4752253  76.4922507 101.0046158 134.4030579
  77.7874944 100.2363304 134.5578514  69.7991744  87.0134945 138.2990494
  70.3226146  87.2597242 139.0616804  69.5804078  87.8454980 137.8793632
  65.1959025  89.2838620 126.1661619  64.8671732  88.4035999 125.9836725
  65.5498396  89.2286289 127.0538008  74.4438604 100.9193523 130.6756605
  74.2963567  99.9910230 130.8564175  75.2692098 100.9413613 130.1913680
  68.3100849  89.5711590 126.5337097  68.6496921  90.0997511 125.8115705
  68.7572969  89.9091996 127.3095663  78.0472726 101.7422081 131.7621478
  78.9719274 101.5364943 131.6245929  77.8788030 101.4938483 132.6710819
  71.0044289  87.9548640 135.9840165  70.6641110  87.1556454 136.3860845
  70.2983296  88.2550351 135.4116998  71.6560761  85.0397953 134.4367488
  72.4786831  84.5658431 134.3146378  71.8998825  85.8188437 134.9366174
  70.2968996  88.0686211 124.7330390  71.0177358  88.4467464 124.2294107
  69.6734300  88.7875088 124.8365368  74.4400119  88.7731360 125.6688722
  74.6563733  89.6555998 125.3677550  73.9594186  88.3817574 124.9394364
  69.1799340  91.7317074 132.2459467  69.0343921  92.0457377 133.1383748
  68.7024544  92.3501974 131.6930365  71.0395723  88.7219622 132.2940356
  71.0257292  87.8260715 131.9572654  71.7568151  88.7290285 132.9278642
  72.8921854  89.1556962 134.3393484  72.6339631  90.0774032 134.3377814
  72.3606894  88.7587396 135.0293948  77.8368042 102.2607749 127.1183569
  78.0104920 101.6954171 126.3657421  78.3296934 103.0608644 126.9363059
  63.6545002  94.2722418 135.1847128  63.1098470  95.0482226 135.3167402
  64.5324352  94.6193222 135.0266249  70.4432619  87.6034002 127.5627926
  70.5648530  86.6750648 127.7618814  70.1534661  87.6172688 126.6506242
  73.3123809  85.2888912 130.6994646  73.3345506  85.3528245 129.7446626
  73.7291868  84.4493421 130.8935152  83.6907434  95.0244172 128.7373869
  84.1338580  94.2751497 128.3392992  82.8133944  95.0154308 128.3547601
  78.8243215 101.5774513 124.2180467  79.5194119 102.1981206 124.4367782
  79.1666365 100.7269864 124.4932845  64.4411024  93.3992314 138.0777285
  63.6992760  93.5474950 138.6641915  64.1203768  93.6600580 137.2144034
  80.7234638  99.0274219 125.7467798  81.2485962  99.3661492 125.0217118
  80.6356991  98.0921234 125.5630933  72.3854687 102.9408292 137.8757675
  72.6941813 102.6957439 138.7480374  73.1830169 103.1454931 137.3876545
  72.4075299 105.0946202 130.1063051  71.9680289 104.6022581 130.7995908
  73.1583416 104.5519170 129.8655126  64.8867638 101.2857743 130.1087679
  65.7125658 100.9861515 129.7286323  64.5361690 100.5165365 130.5577468
  69.8549171 100.6384211 132.1785353  69.2329180  99.9754916 131.8787581
  70.5254038 100.6645343 131.4959001  63.0876243  99.2044069 131.0676613
  62.2508151  98.7766244 130.8860614  63.0599888  99.3976513 132.0047404
  69.9273698  89.1165999 141.7717859  69.9761854  89.9928122 141.3895629
  70.4696213  88.5743392 141.1989502  80.4128544  99.6607122 141.0518996
  79.6224088  99.6431261 140.5123495  80.1761899 100.1995416 141.8068033
  80.5326419  96.5099589 138.3651725  80.5824424  96.3449596 139.3067247
  80.4240342  95.6426848 137.9749605  69.4162678  99.1888134 125.6543813
  69.5650798  99.8723599 125.0010486  70.2229121  99.1693225 126.1693269
  77.8230181  92.4930517 139.6811031  78.7240044  92.3536982 139.3895029
  77.8978156  92.6584972 140.6209209  72.1572987  89.8697372 138.5264218
  71.2876296  90.1630938 138.2546806  72.3932467  90.4537817 139.2471481
  82.0344616  98.9296530 138.6093746  81.7429424  99.2926511 139.4457207
  81.4216747  98.2163539 138.4307078  83.2340298  96.4949410 131.1296316
  84.0687190  96.9339214 131.2933877  83.3699427  96.0188063 130.3104562
  80.2831804  94.0529145 137.0773804  80.7585926  94.2456791 136.2692655
  79.3597370  94.1088331 136.8317188  67.1715311  95.2153312 126.6604882
  66.9261353  94.3115642 126.8585092  67.3411225  95.2170463 125.7184360
  74.8612021  86.0876988 136.0429638  75.3793965  86.8238015 135.7176127
  74.5067153  86.3940982 136.8776397  66.4410958  90.9481670 124.1591044
  65.7480203  91.0226025 123.5031080  66.1962710  90.1842013 124.6812561
  75.1124615  82.5077271 131.5630535  75.3926369  81.8400460 132.1890961
  75.8975222  82.7006367 131.0505198  72.9158083 101.6836265 123.1255561
  72.3432050 102.3026452 122.6726033  73.4890877 102.2335627 123.6595483
  78.9833473  90.9294905 135.3102110  79.9350896  91.0293003 135.3314334
  78.8136924  90.1373174 135.8200194  77.0047853  88.0150488 135.4961511
  76.4097785  88.2955501 134.8007999  76.7197549  88.5044389 136.2678252
  76.1355343 101.9673415 124.2564143  77.0686016 101.9018977 124.4597019
  76.0478556 102.8029682 123.7978676  78.7643360 101.2839285 121.2168091
  78.6856991 100.9499149 122.1103849  79.5853027 101.7761053 121.2159563
  81.4621551  94.1501025 134.4244409  81.4297871  93.2117025 134.6104093
  82.0722175  94.2285061 133.6910234  73.3004882  93.0197078 120.4671613
  74.2463987  92.8903286 120.5360031  72.9219127  92.2811740 120.9441042
  81.6116039  90.9412068 134.4702693  81.0955088  90.1570525 134.2832621
  82.4955988  90.6130785 134.6349212  79.2726766  84.6853084 130.4298505
  79.0751587  84.3768172 131.3141837  79.8826472  85.4114723 130.5596435
  87.2798101  95.2117032 133.5650446  88.0101489  94.9502320 134.1258149
  86.6705046  94.4745753 133.6052514  85.3613398  93.3524894 134.1624897
  84.6346561  93.2180859 133.5541389  84.9460685  93.6601723 134.9681615
  73.1843574  97.0714824 141.9272270  74.1046584  97.2493423 142.1212317
  73.1493157  96.1270869 141.7751970  71.4847799  90.9447054 120.4026499
  70.5779254  90.6480167 120.4789212  71.7623780  90.6476872 119.5360785
  62.4025739  92.2653417 130.8525545  62.0828524  91.4118726 130.5599919
  61.8559168  92.4801996 131.6083512  66.1805647  94.9815858 134.5695052
  66.3991657  95.9132966 134.5883085  66.5931421  94.6223833 135.3549855
  73.1009865  85.4883944 126.5570740  72.2910593  85.1431029 126.9325986
  73.7894282  85.1791487 127.1458351  75.0300413  84.5661991 128.1795037
  75.5831452  84.9857444 128.8385060  75.2670499  83.6397739 128.2217993
  71.0533512  90.5549064 143.9597800  70.9530239  91.5043421 143.8909892
  70.8355054  90.2267303 143.0873871  70.2546584  87.8033989 120.5438478
  71.1165748  88.1288888 120.8034295  70.4396928  87.0165485 120.0311544
  62.2713999  95.8856329 132.8218667  61.5777471  95.4710282 132.3088621
  63.0186990  95.9276865 132.2252085  78.4079220  86.6762516 127.6873701
  77.8277889  87.3347320 127.3051753  78.1415153  85.8539860 127.2761118
  76.8582786  86.0767573 129.8895021  77.3582565  86.1884108 129.0809340
  77.5018394  85.7728626 130.5295830  70.9164782  93.9846203 142.7762862
  70.4331864  94.7846563 142.9826751  71.0025721  93.9954148 141.8230306
  64.1850742  95.8174583 130.6984681  64.1621430  95.9162270 129.7466565
  64.4951378  96.6639734 131.0201848  66.8438120  97.8750738 134.8131296
  67.7981373  97.8434680 134.7461227  66.6450643  97.4141361 135.6281522
  67.4337502  96.4451854 137.3802094  68.2530391  96.9395932 137.4036931
  67.7074310  95.5283822 137.3519661  77.1904098  88.8362606 126.7430049
  76.3029953  89.1212257 126.5250244  77.6058087  88.6756369 125.8957326
  80.5418634  88.8609127 130.4584388  81.3179024  89.3505580 130.7309005
  79.8166768  89.2867181 130.9156258  82.9791193  89.5736746 131.5158329
  83.5735684  89.3332482 130.8051637  83.0517777  88.8543877 132.1431865
  65.1988349 103.4170357 131.8301494  65.0642816 102.6570758 131.2639492
  64.7820411 104.1411257 131.3630283  76.3347312  98.6007281 120.8378069
  77.0383162  98.8057283 121.4535725  75.6109960  99.1684043 121.1027153
  77.1645122  94.3517142 126.9580339  77.1080323  94.8085693 126.1187972
  77.7173464  93.5907827 126.7803182  80.9749928  90.1406874 127.7830459
  80.7186862  89.7403510 128.6138666  80.3502796  90.8550668 127.6580598
  85.2862266  92.8802947 130.2901750  84.7261824  92.9496136 131.0633312
  84.6805769  92.7043932 129.5701246  68.3557474 104.3139674 132.0419936
  68.2389859 105.2585107 131.9398627  67.5349921 104.0113236 132.4305736
  78.2434009  99.0389810 122.8876529  79.0779613  98.6071008 122.7054004
  78.0818352  98.8671824 123.8153424  77.8979901  95.5421923 124.2532868
  77.8428705  95.3766195 123.3121313  77.2725956  96.2497956 124.4095058
  62.6872416  90.7789988 138.0794291  63.3331280  90.2688942 138.5681516
  62.4789567  91.5158669 138.6537716  75.2125808  97.8470835 143.5786431
  76.0816968  98.0211487 143.2173066  74.7332560  98.6665252 143.4562161
  71.2076027  85.0430032 123.8318187  71.1954696  85.9871872 123.9886458
  72.0999448  84.8600178 123.5377648  69.3811989 104.9667936 135.2575865
  70.2839235 104.9991546 135.5742360  69.1549359 104.0368387 135.2722201
  71.1365591 103.7198923 131.9185943  70.1861222 103.7200784 131.8050316
  71.4398077 102.9731657 131.4021978  75.0228146  81.6372809 128.0864124
  74.2560542  81.0831296 128.2320806  75.4338851  81.7094678 128.9478275
  67.0269907  87.9257605 142.1769305  67.8901369  87.5694410 142.3872629
  66.4535318  87.5871500 142.8644709  86.8718284 109.5559461 132.9831706
  87.5096694 109.4366208 132.2795046  86.7539127 110.5040305 133.0419658
  83.6807990 109.5086889 132.9193231  83.3426502 109.3927954 132.0313765
  84.5497759 109.1078054 132.8994237  79.5394806 111.3622366 128.9090121
  78.9759671 111.2712303 128.1406409  79.4247201 110.5422270 129.3892614
  84.1627773 110.6621741 138.8779436  84.1516414 110.2674539 138.0059940
  84.3248413 109.9287814 139.4713208  77.0859238 112.8573557 131.7474342
  77.8780530 112.5164382 131.3320641  77.3255888 112.9668532 132.6676495
  85.1194365 115.0293333 124.2204586  84.4682344 115.6147414 123.8338600
  85.9138728 115.5599528 124.2799624  79.0449992 112.1182470 124.6191721
  79.8180868 111.5711458 124.4804597  79.3975391 112.9826720 124.8306182
  80.8835034 113.4458853 137.8258620  80.5924900 114.3504484 137.7105286
  81.5192019 113.4875380 138.5402690  81.8091241 110.8235701 134.4159980
  82.4054814 110.5991724 133.7016943  81.8666213 110.0820447 135.0185428
  81.3816270 108.2775137 122.2510171  81.6341790 107.7556658 121.4893634
  80.4440829 108.1141282 122.3536854  86.4259553 107.2810915 130.0584914
  87.2122642 106.8630338 129.7075331  86.6898257 108.1857007 130.2266562
  86.5969630 112.7183765 124.7573571  85.9615463 112.7918392 125.4694475
  86.2667036 113.3077364 124.0792650  91.8267980 107.2186148 130.9617892
  92.5593152 106.6485365 131.1955722  91.0707335 106.8307749 131.4024398
  81.1012558 110.1803243 124.4534546  80.9848817 109.5048146 125.1215630
  81.2114818 109.6935616 123.6366699  83.4444099 109.6413390 128.1581235
  83.0802307 109.1144011 128.8694156  84.3011215 109.2511859 127.9847720
  89.3493400 100.9307722 135.4212501  89.0176725 101.8003133 135.1973716
  88.7539013 100.6144006 136.1006531  83.0849586 104.6703289 123.1542583
  83.2523989 105.5383526 123.5213054  82.8946755 104.8330571 122.2303873
  85.8424920 113.1320268 134.8208414  85.5425643 114.0345307 134.7124221
  85.4975979 112.8652451 135.6729567  79.2937401 109.5834065 130.8545118
  78.3687897 109.4510279 131.0622810  79.5421814 110.3628284 131.3515061
  89.2422063 105.6502808 132.5005851  88.3338941 105.5818217 132.2064612
  89.1909659 106.1274753 133.3287677  83.0638807 107.1260947 124.1389250
  82.9438432 107.5717998 124.9774730  82.3691396 107.4746265 123.5802788
  76.6546212 109.2267339 131.6888907  76.7838593 109.4801818 132.6028319
  75.9743663 109.8195047 131.3693562  80.8245699 119.8964589 127.7879381
  80.7469729 120.8472414 127.8667862  80.2207343 119.5510461 128.4454308
  83.3162929 107.0692454 140.4440748  82.5396263 107.6286374 140.4343613
  83.9553492 107.5549237 140.9655618  91.1083710 103.8519247 134.2783725
  90.4658090 104.1451780 133.6323520  90.6038638 103.7372167 135.0836922
  88.7623873 107.5982420 124.9669584  89.6741730 107.8309807 124.7917282
  88.2533520 108.1819464 124.4044663  81.5709301 109.8777907 140.0058715
  82.3123986 110.4162951 139.7293539  80.8646287 110.5044196 140.1630267
  87.0464641 112.0207048 138.6030877  87.4547997 111.5789458 137.8585509
  86.3241903 111.4459675 138.8565070  83.3995711 106.9579655 135.9764434
  84.2456906 107.3819068 136.1199083  83.3394349 106.3013279 136.6702997
  87.3693456 112.5808238 132.3583166  86.7402318 112.7453953 131.6559234
  86.9819118 112.9949848 133.1294130  91.2482688 113.5162676 129.7127529
  90.5633726 113.8961578 129.1624563  91.3326537 114.1258003 130.4459477
  86.5495156 104.6184023 137.6345607  86.3056088 105.3726084 137.0979883
  86.8255087 104.9969371 138.4692854  88.5033619 111.1622635 136.3122873
  88.7150514 111.8054395 135.6357254  88.4563367 110.3284952 135.8444803
  86.1059848 103.7740456 133.2159445  85.2444327 104.0721710 133.5076183
  86.1322283 103.9910855 132.2840478  82.9221418 112.3182647 129.6233251
  83.3859763 112.5970350 128.8337873  82.6578216 111.4166091 129.4406341
  79.8145499 111.8654128 132.5613014  80.3846856 112.2941396 131.9230499
  80.4053610 111.5836713 133.2597200  81.8590304 108.4405799 126.4322816
  82.5614347 108.8926843 126.8996742  81.5270932 107.7989618 127.0602709
  80.3070665 107.0317556 140.8074025  79.6769326 107.7133836 141.0409422
  80.2006753 106.9200637 139.8627164  75.6015638 106.6989352 131.7339949
  74.8114692 106.9546880 131.2580060  76.0926885 107.5137689 131.8391990
  89.6179447 114.0394591 134.4845230  90.4396891 113.6374778 134.2027912
  89.6141850 113.9362825 135.4361346  77.5530383 107.0633931 128.6923426
  76.7561546 107.1752625 129.2106922  77.3255975 107.4020583 127.8264317
  83.3836051 113.5878634 136.6405941  83.4480483 114.0499041 137.4764113
  82.6746974 112.9575999 136.7688251  73.8853341 106.9519842 134.1654940
  74.1361379 107.8366852 134.4312516  74.4212889 106.7724444 133.3930032
  97.7085440 110.3833339 130.8330202  96.9549149 109.8140737 130.6774206
  97.8432981 110.3496004 131.7800836  83.0984068 115.2546742 126.5084921
  82.9629743 116.0998277 126.9369769  83.6393881 115.4566019 125.7450855
  79.5851408 101.3338321 143.1699276  79.1918353 100.7804520 143.8446921
  80.4017548 101.6448900 143.5605794  76.5513466 112.7722180 127.0812846
  77.0637986 113.5665430 127.2318411  77.2036178 112.0748470 127.0146448
  78.3608350 115.8887936 129.1635599  78.5374979 116.8105901 128.9756583
  79.1565184 115.5746355 129.5929979  82.5019369 102.7496200 140.7619533
  83.2429082 103.3503354 140.6823995  82.7337292 102.0073838 140.2037575
  77.6460707 107.9352568 139.0397763  77.5314222 107.0337825 139.3404862
  76.7905225 108.1816265 138.6882579  84.7252545 115.8770308 140.6385263
  84.2816399 115.0906687 140.3206168  85.3869758 116.0649459 139.9729154
  79.4839666 117.4066110 135.1645942  80.0347091 117.2783173 134.3922936
  78.6451142 117.7060999 134.8140835  86.8233783 116.1573108 138.6666665
  86.8052258 116.9781989 138.1746934  87.7453703 116.0327183 138.8916806
  83.2806837 113.6717237 139.5090173  83.8135174 112.9105526 139.2789481
  82.7520918 113.3790889 140.2514327  86.4476532  98.7777303 135.0383815
  86.1040801  99.6678945 134.9622925  86.8155494  98.5878961 134.1753400
  74.5162382 111.1010834 127.8572417  75.3537604 111.5107842 127.6406124
  74.6940650 110.1610276 127.8272611  86.4126815 108.7685915 123.5456250
  85.8973438 109.5390519 123.7844637  86.1404123 108.0951051 124.1689311
  83.9973926 103.6135615 128.6041488  83.1415522 103.2242466 128.4247127
  84.4100877 103.6927576 127.7441274  85.5273072 101.1481959 133.0033048
  85.0237868 101.1112094 132.1900853  85.8203679 102.0574701 133.0629705
  81.7715958 101.2320688 132.0099230  82.6368955 101.0363497 131.6505119
  81.8393467 101.0031040 132.9368586  91.3861089 111.5218269 125.4809423
  90.6090531 111.1829429 125.0364585  92.0652570 111.5270892 124.8064388
  86.2013118 106.6413007 125.3716031  85.8963253 106.9559156 126.2226174
  87.1543560 106.7194427 125.4143364  84.6459550 112.8003230 127.0208985
  84.1180911 112.0655990 126.7082222  84.1447052 113.5777906 126.7748953
  89.6252396 110.9952250 132.1376031  88.9676070 111.6851512 132.2256160
  90.4292795 111.3848682 132.4810018  79.3778277 103.4622896 129.3815596
  79.9522029 103.2398078 128.6488789  79.9649260 103.5311591 130.1344198
  88.4357854 109.3496623 130.1879973  88.9489736 109.9826615 130.6901683
  89.0859078 108.7497819 129.8223333  79.7047864 105.4927357 123.4011482
  78.8685177 105.8302044 123.7220756  79.5652634 105.3576337 122.4638619
  81.6800945 100.3364145 128.1090666  81.0265357 100.0213162 127.4847281
  81.6381419  99.7139886 128.8350489  82.7912150 110.6183440 120.0243958
  81.8839211 110.3872694 120.2235107  83.2883182 109.8221059 120.2117939
  85.6980229 119.3280947 122.9440644  85.0241927 119.6312644 123.5525602
  86.0846051 120.1310028 122.5946101  84.9138685 106.8246079 132.4338313
  83.9961247 107.0461026 132.2760002  85.3298829 106.8992389 131.5750021
  85.6973733 108.2237494 127.5640994  86.4445552 108.7358892 127.2548116
  85.9665323 107.9021547 128.4245387  83.9700383 110.7196035 124.5467948
  83.0611602 110.4355068 124.6440418  83.9995467 111.1395114 123.6871255
  89.2019651 114.3302625 128.3159116  88.7481978 113.4893534 128.3724306
  88.5713617 114.9664023 128.6533896  88.1452570 105.2594611 129.5459783
  87.4075327 104.7471997 129.8770026  88.3979344 104.8194992 128.7343060
  87.6452590 116.1679121 129.2508934  87.9375564 116.7284178 128.5321299
  88.1551210 116.4607682 130.0062093  88.2464197  98.0370863 130.1401552
  88.5523074  97.1768226 129.8527467  88.9716802  98.6288483 129.9400546
  74.5388554 108.4401549 128.5283150  74.3412953 107.8470910 127.8034217
  73.9835218 108.1353759 129.2459089  82.5185277 108.3324656 130.6477743
  82.5733887 107.3798492 130.5720220  81.7076479 108.4884095 131.1319042
  83.6676471 112.2604779 121.8856027  83.2295901 111.5440638 121.4261664
  84.4086912 112.4880894 121.3241118  80.4577637 106.9501715 128.4068122
  79.6445503 107.2495886 128.8133314  80.9536631 106.5557404 129.1242604
  82.6086215 116.9459472 130.3402387  82.5662394 117.1720319 129.4110919
  83.5248914 116.7122847 130.4888188  86.0551849 107.4143540 137.2383016
  86.4101237 107.6415013 138.0977482  86.7023980 107.7461917 136.6160271
  91.7849586 110.5361976 127.9432345  91.6467484 110.7263572 127.0153534
  91.4285805 111.2981359 128.4000396  79.9491712 104.5220071 134.0229357
  80.5891091 104.3808830 133.3252320  79.1169242 104.2354584 133.6467959
  91.8118965 112.6038503 132.9543617  92.2455472 112.5113792 133.8026671
  92.5250546 112.5796003 132.3163633  80.7252016 113.8222501 130.1364350
  81.5192614 113.3272822 129.9346925  80.0143708 113.2940365 129.7732055
  85.5446860 116.2040597 134.4876717  85.5983883 116.7731533 135.2554433
  84.6761642 116.3742482 134.1230754  77.0334779 107.9665583 126.2124102
  76.1032367 107.9050039 126.4294064  77.1292251 107.4441536 125.4160744
  76.9520328 104.4920396 128.8002344  77.2127146 105.4065729 128.6911504
  77.7737501 104.0244839 128.9498957  78.4245254 105.9058153 135.9701169
  79.0968307 105.6975515 135.3213817  77.5975040 105.7080239 135.5306401
  92.6734515 112.6462203 135.4876502  92.8670405 113.5508014 135.7335777
  92.5735133 112.1869623 136.3215087  84.3270826 102.5320094 137.9866829
  83.6798741 103.2310044 137.8931306  85.0971841 102.9656238 138.3543078
  87.7349624 112.7968946 141.0617383  87.5835130 112.5679498 140.1447466
  87.7254303 113.7539548 141.0748728  84.5034960 110.3700859 136.0463649
  85.4327020 110.5212019 135.8732616  84.0825990 110.4584880 135.1912296
  83.3023292 114.3951523 133.8162187  83.1634377 114.0270308 134.6888125
  82.5137888 114.9099163 133.6446145  83.8971444 119.4960620 125.1587723
  84.0723199 119.0248663 125.9733346  83.2104232 120.1226386 125.3868984
  84.8528507 113.7733126 131.2051025  84.5178340 113.7333896 132.1008674
  84.3532453 113.1077842 130.7321435  78.8272751 109.1800756 136.7303606
  78.6892549 108.4480995 137.3315145  79.7377674 109.0909656 136.4487793
  87.7887699 111.1189160 121.4788084  87.1716869 110.3935989 121.3821137
  87.3204187 111.8798521 121.1355158  81.4555052 108.8920715 136.2187285
  82.1654670 108.2513908 136.1773904  81.4124360 109.1433610 137.1413466
  89.4441830 115.8288069 139.1393865  89.3854376 115.1447289 138.4724448
  89.8461349 116.5707059 138.6874491  80.1683986 105.8785933 138.0382925
  79.6321343 105.4276672 138.6904521  79.5800694 106.0131842 137.2953389
  78.4632529 122.6449983 131.9327583  78.7029127 123.2768507 132.6106602
  77.6201726 122.2938023 132.2192943  79.5786245 105.3374585 120.6009388
  78.7015711 105.2163385 120.2371635  80.0543998 104.5460663 120.3488277
  89.4459238 113.7927653 137.3707844  88.5586016 113.4553574 137.4934243
  90.0157789 113.0610684 137.6076610  71.0988385 110.1251744 130.6950896
  71.7859424 109.8113474 130.1071911  70.9436513 111.0293109 130.4218147
  75.9023107 105.0141941 135.1235919  75.8181296 104.4067611 134.3886329
  75.0805813 105.5050959 135.1245416  82.9760391 118.4529105 134.3369087
  82.9030562 119.2584077 134.8488392  82.5337784 118.6521071 133.5117109
  82.7650171 117.6900875 127.8471909  81.9817692 118.2322555 127.9410133
  83.4642916 118.2074855 128.2466150  86.0746821 103.4995505 130.4906114
  86.5715520 102.7465467 130.1707185  85.3033802 103.5359821 129.9249324
  93.9276578 109.2035870 132.1324406  93.9166454 110.0860585 131.7618339
  93.0593957 108.8507421 131.9378943  85.4359074 118.3515939 136.4927246
  86.1487047 118.9863404 136.4203148  84.9449103 118.4479805 135.6767248
  87.1576601 112.2567192 128.0644538  86.2232880 112.3768654 127.8949242
  87.3353270 111.3539659 127.8004548  82.6581789 105.6412888 130.2177799
  82.2879577 105.0883928 130.9058705  83.1540882 105.0371021 129.6652799
  90.5449153 108.0984511 128.5994572  91.0109605 108.9312503 128.5254875
  90.9956653 107.6329493 129.3039830  80.4870988 116.1010383 137.3132817
  81.1880447 116.7346866 137.4662211  80.0166103 116.4425114 136.5528456
  88.6125384 114.4428332 125.5980724  88.8885228 114.3284927 126.5074598
  87.7429883 114.0445817 125.5592897  88.5165815 100.4665098 132.6385473
  87.6028895 100.6969325 132.8067680  88.9458917 100.5503542 133.4899506
  88.2872274 108.6554990 135.1385367  87.6343724 108.9030897 134.4837820
  88.6652654 107.8419128 134.8047845  85.2479448 118.6914683 129.2413538
  85.4301842 117.8736339 129.7041290  86.0712434 118.9082375 128.8038428
  85.5821613 117.6182868 126.5028586  86.1109380 117.1075323 125.8898748
  85.8449833 117.3025399 127.3674119  84.3359847 109.3974801 141.6251404
  83.6600484 109.2968930 142.2953780  85.1587481 109.2414015 142.0887402
  76.0838706 115.6346738 134.2463920  76.6692143 114.8890425 134.3791824
  75.8863544 115.9450694 135.1300583  78.9377361 118.6697985 129.2626362
  78.2687737 119.1544113 128.7790402  78.7990231 118.9167205 130.1769740
  70.6756361 108.2052338 132.9668363  70.7140460 107.6715928 133.7605481
  70.1696654 107.6787543 132.3479340  83.0782630 120.7041728 135.8609020
  83.6300938 120.8673350 136.6258106  83.4188823 121.2946166 135.1889045
  78.0547123 103.0516878 136.4630905  78.1188450 103.9131709 136.0508303
  77.9914243 102.4390880 135.7303264  77.5299396 105.1240011 140.1103939
  78.1571434 104.7417088 140.7241464  76.6727314 104.9054213 140.4759632
  87.9293504 115.5302986 141.7157675  88.4733408 116.1432944 141.2212630
  87.3480349 116.0882564 142.2324688  74.3064938 106.9316440 126.0422294
  74.6018379 106.0227118 125.9889348  73.4052974 106.9104179 125.7203296
  86.2151017 118.6523704 132.8472702  86.0902157 117.8513444 132.3383648
  86.8730108 119.1469897 132.3586672  77.8359185 105.0072437 132.0249843
  77.1145771 105.6208404 131.8857316  78.6252441 105.5430201 131.9466489
  88.2785926 116.4532724 134.4752253  87.3316261 116.3338075 134.4030579
  88.6268699 115.5655222 134.5578514  80.6385499 102.3426863 138.2990494
  81.1619901 102.5889160 139.0616804  80.4197832 103.1746898 137.8793632
  76.0352780 104.6130538 126.1661619  75.7065486 103.7327917 125.9836725
  76.3892151 104.5578206 127.0538008  85.2832359 116.2485440 130.6756605
  85.1357321 115.3202148 130.8564175  86.1085852 116.2705531 130.1913680
  79.1494603 104.9003507 126.5337097  79.4890676 105.4289429 125.8115705
  79.5966724 105.2383914 127.3095663  88.8866481 117.0713999 131.7621478
  89.8113028 116.8656860 131.6245929  88.7181784 116.8230400 132.6710819
  81.8438044 103.2840558 135.9840165  81.5034864 102.4848371 136.3860845
  81.1377050 103.5842269 135.4116998  82.4954516 100.3689871 134.4367488
  83.3180585  99.8950349 134.3146378  82.7392579 101.1480354 134.9366174
  81.1362750 103.3978129 124.7330390  81.8571113 103.7759382 124.2294107
  80.5128054 104.1167006 124.8365368  85.2793873 104.1023278 125.6688722
  85.4957488 104.9847916 125.3677550  84.7987940 103.7109491 124.9394364
  80.0193095 107.0608991 132.2459467  79.8737675 107.3749294 133.1383748
  79.5418298 107.6793892 131.6930365  81.8789477 104.0511539 132.2940356
  81.8651046 103.1552632 131.9572654  82.5961905 104.0582203 132.9278642
  83.7315608 104.4848879 134.3393484  83.4733386 105.4065950 134.3377814
  83.2000648 104.0879314 135.0293948  88.6761797 117.5899666 127.1183569
  88.8498674 117.0246089 126.3657421  89.1690688 118.3900561 126.9363059
  74.4938757 109.6014336 135.1847128  73.9492225 110.3774144 135.3167402
  75.3718107 109.9485140 135.0266249  81.2826373 102.9325919 127.5627926
  81.4042285 102.0042566 127.7618814  80.9928416 102.9464605 126.6506242
  84.1517564 100.6180830 130.6994646  84.1739261 100.6820163 129.7446626
  84.5685623  99.7785339 130.8935152  94.5301188 110.3536089 128.7373869
  94.9732334 109.6043415 128.3392992  93.6527698 110.3446226 128.3547601
  89.6636969 116.9066431 124.2180467  90.3587874 117.5273124 124.4367782
  90.0060119 116.0561782 124.4932845  75.2804779 108.7284232 138.0777285
  74.5386515 108.8766867 138.6641915  74.9597523 108.9892497 137.2144034
  91.5628392 114.3566136 125.7467798  92.0879717 114.6953409 125.0217118
  91.4750745 113.4213152 125.5630933  83.2248441 118.2700210 137.8757675
  83.5335568 118.0249357 138.7480374  84.0223923 118.4746849 137.3876545
  83.2469053 120.4238120 130.1063051  82.8074044 119.9314498 130.7995908
  83.9977170 119.8811087 129.8655126  75.7261392 116.6149661 130.1087679
  76.5519412 116.3153432 129.7286323  75.3755444 115.8457283 130.5577468
  80.6942925 115.9676129 132.1785353  80.0722935 115.3046834 131.8787581
  81.3647792 115.9937261 131.4959001  73.9269997 114.5335987 131.0676613
  73.0901906 114.1058161 130.8860614  73.8993643 114.7268430 132.0047404
  80.7667453 104.4457917 141.7717859  80.8155608 105.3220040 141.3895629
  81.3089967 103.9035310 141.1989502  91.2522299 114.9899040 141.0518996
  90.4617842 114.9723179 140.5123495  91.0155653 115.5287334 141.8068033
  91.3720174 111.8391506 138.3651725  91.4218179 111.6741514 139.3067247
  91.2634097 110.9718765 137.9749605  80.2556432 114.5180052 125.6543813
  80.4044553 115.2015517 125.0010486  81.0622876 114.4985142 126.1693269
  88.6623936 107.8222434 139.6811031  89.5633799 107.6828899 139.3895029
  88.7371910 107.9876889 140.6209209  82.9966741 105.1989289 138.5264218
  82.1270051 105.4922855 138.2546806  83.2326222 105.7829734 139.2471481
  92.8738370 114.2588448 138.6093746  92.5823179 114.6218429 139.4457207
  92.2610502 113.5455456 138.4307078  94.0734053 111.8241328 131.1296316
  94.9080944 112.2631132 131.2933877  94.2093182 111.3479981 130.3104562
  91.1225559 109.3821063 137.0773804  91.5979680 109.5748709 136.2692655
  90.1991124 109.4380248 136.8317188  78.0109065 110.5445230 126.6604882
  77.7655107 109.6407560 126.8585092  78.1804980 110.5462380 125.7184360
  85.7005775 101.4168906 136.0429638  86.2187719 102.1529933 135.7176127
  85.3460908 101.7232899 136.8776397  77.2804713 106.2773587 124.1591044
  76.5873958 106.3517942 123.5031080  77.0356465 105.5133931 124.6812561
  85.9518369  97.8369189 131.5630535  86.2320123  97.1692378 132.1890961
  86.7368976  98.0298284 131.0505198  83.7551838 117.0128183 123.1255561
  83.1825805 117.6318370 122.6726033  84.3284631 117.5627544 123.6595483
  89.8227228 106.2586823 135.3102110  90.7744651 106.3584920 135.3314334
  89.6530678 105.4665091 135.8200194  87.8441607 103.3442406 135.4961511
  87.2491539 103.6247419 134.8007999  87.5591304 103.8336307 136.2678252
  86.9749098 117.2965333 124.2564143  87.9079771 117.2310894 124.4597019
  86.8872310 118.1321600 123.7978676  89.6037114 116.6131203 121.2168091
  89.5250746 116.2791067 122.1103849  90.4246781 117.1052971 121.2159563
  92.3015305 109.4792942 134.4244409  92.2691626 108.5408943 134.6104093
  92.9115929 109.5576979 133.6910234  84.1398636 108.3488995 120.4671613
  85.0857741 108.2195203 120.5360031  83.7612881 107.6103657 120.9441042
  92.4509794 106.2703986 134.4702693  91.9348843 105.4862442 134.2832621
  93.3349742 105.9422702 134.6349212  90.1120521 100.0145001 130.4298505
  89.9145342  99.7060090 131.3141837  90.7220226 100.7406640 130.5596435
  98.1191855 110.5408949 133.5650446  98.8495244 110.2794237 134.1258149
  97.5098801 109.8037671 133.6052514  96.2007152 108.6816812 134.1624897
  95.4740316 108.5472777 133.5541389  95.7854439 108.9893640 134.9681615
  84.0237329 112.4006741 141.9272270  84.9440338 112.5785340 142.1212317
  83.9886912 111.4562787 141.7751970  82.3241553 106.2738972 120.4026499
  81.4173009 105.9772084 120.4789212  82.6017534 105.9768790 119.5360785
  73.2419494 107.5945335 130.8525545  72.9222278 106.7410643 130.5599919
  72.6952922 107.8093913 131.6083512  77.0199401 110.3107776 134.5695052
  77.2385411 111.2424884 134.5883085  77.4325175 109.9515751 135.3549855
  83.9403619 100.8175861 126.5570740  83.1304347 100.4722946 126.9325986
  84.6288036 100.5083405 127.1458351  85.8694167  99.8953908 128.1795037
  86.4225206 100.3149362 128.8385060  86.1064254  98.9689656 128.2217993
  81.8927267 105.8840982 143.9597800  81.7923994 106.8335339 143.8909892
  81.6748809 105.5559221 143.0873871  81.0940338 103.1325907 120.5438478
  81.9559502 103.4580805 120.8034295  81.2790682 102.3457403 120.0311544
  73.1107754 111.2148247 132.8218667  72.4171225 110.8002199 132.3088621
  73.8580745 111.2568783 132.2252085  89.2472975 102.0054433 127.6873701
  88.6671644 102.6639237 127.3051753  88.9808907 101.1831778 127.2761118
  87.6976541 101.4059491 129.8895021  88.1976319 101.5176026 129.0809340
  88.3412149 101.1020544 130.5295830  81.7558537 109.3138121 142.7762862
  81.2725618 110.1138481 142.9826751  81.8419476 109.3246066 141.8230306
  75.0244496 111.1466500 130.6984681  75.0015184 111.2454188 129.7466565
  75.3345133 111.9931651 131.0201848  77.6831874 113.2042655 134.8131296
  78.6375128 113.1726598 134.7461227  77.4844398 112.7433279 135.6281522
  78.2731256 111.7743771 137.3802094  79.0924145 112.2687850 137.4036931
  78.5468064 110.8575740 137.3519661  88.0297853 104.1654524 126.7430049
  87.1423708 104.4504174 126.5250244  88.4451842 104.0048287 125.8957326
  91.3812389 104.1901045 130.4584388  92.1572779 104.6797497 130.7309005
  90.6560523 104.6159099 130.9156258  93.8184947 104.9028664 131.5158329
  94.4129438 104.6624400 130.8051637  93.8911531 104.1835795 132.1431865
  76.0382103 118.7462275 131.8301494  75.9036571 117.9862676 131.2639492
  75.6214165 119.4703175 131.3630283  87.1741066 113.9299198 120.8378069
  87.8776916 114.1349201 121.4535725  86.4503715 114.4975960 121.1027153
  88.0038876 109.6809060 126.9580339  87.9474078 110.1377611 126.1187972
  88.5567219 108.9199744 126.7803182  91.8143682 105.4698792 127.7830459
  91.5580616 105.0695427 128.6138666  91.1896550 106.1842586 127.6580598
  96.1256020 108.2094865 130.2901750  95.5655578 108.2788054 131.0633312
  95.5199523 108.0335849 129.5701246  79.1951229 119.6431592 132.0419936
  79.0783613 120.5877024 131.9398627  78.3743675 119.3405154 132.4305736
  89.0827763 114.3681728 122.8876529  89.9173367 113.9362926 122.7054004
  88.9212106 114.1963741 123.8153424  88.7373656 110.8713841 124.2532868
  88.6822459 110.7058112 123.3121313  88.1119711 111.5789874 124.4095058
  73.5266171 106.1081905 138.0794291  74.1725034 105.5980859 138.5681516
  73.3183322 106.8450587 138.6537716  86.0519563 113.1762753 143.5786431
  86.9210722 113.3503405 143.2173066  85.5726314 113.9957170 143.4562161
  82.0469781 100.3721950 123.8318187  82.0348451 101.3163790 123.9886458
  82.9393203 100.1892095 123.5377648  80.2205743 120.2959854 135.2575865
  81.1232990 120.3283464 135.5742360  79.9943113 119.3660305 135.2722201
  81.9759345 119.0490840 131.9185943  81.0254976 119.0492702 131.8050316
  82.2791831 118.3023575 131.4021978  85.8621901  96.9664727 128.0864124
  85.0954296  96.4123213 128.2320806  86.2732606  97.0386595 128.9478275
  77.8663662 103.2549522 142.1769305  78.7295123 102.8986327 142.3872629
  77.2929072 102.9163417 142.8644709  97.7112039 124.8851379 132.9831706
  98.3490448 124.7658126 132.2795046  97.5932881 125.8332223 133.0419658
  94.5201745 124.8378807 132.9193231  94.1820256 124.7219872 132.0313765
  95.3891513 124.4369972 132.8994237  90.3788561 126.6914283 128.9090121
  89.8153426 126.6004220 128.1406409  90.2640956 125.8714188 129.3892614
  95.0021528 125.9913659 138.8779436  94.9910169 125.5966457 138.0059940
  95.1642167 125.2579731 139.4713208  87.9252992 128.1865475 131.7474342
  88.7174284 127.8456300 131.3320641  88.1649643 128.2960450 132.6676495
  95.9588119 130.3585251 124.2204586  95.3076099 130.9439331 123.8338600
  96.7532482 130.8891446 124.2799624  89.8843746 127.4474388 124.6191721
  90.6574622 126.9003375 124.4804597  90.2369145 128.3118637 124.8306182
  91.7228789 128.7750770 137.8258620  91.4318655 129.6796401 137.7105286
  92.3585773 128.8167298 138.5402690  92.6484996 126.1527619 134.4159980
  93.2448568 125.9283641 133.7016943  92.7059967 125.4112364 135.0185428
  92.2210024 123.6067054 122.2510171  92.4735545 123.0848576 121.4893634
  91.2834583 123.4433200 122.3536854  97.2653307 122.6102833 130.0584914
  98.0516396 122.1922256 129.7075331  97.5292011 123.5148925 130.2266562
  97.4363384 128.0475683 124.7573571  96.8009217 128.1210309 125.4694475
  97.1060791 128.6369282 124.0792650 102.6661734 122.5478066 130.9617892
 103.3986906 121.9777283 131.1955722 101.9101090 122.1599666 131.4024398
  91.9406313 125.5095160 124.4534546  91.8242571 124.8340064 125.1215630
  92.0508573 125.0227534 123.6366699  94.2837854 124.9705307 128.1581235
  93.9196061 124.4435928 128.8694156  95.1404970 124.5803776 127.9847720
 100.1887154 116.2599640 135.4212501  99.8570479 117.1295051 135.1973716
  99.5932768 115.9435924 136.1006531  93.9243341 119.9995207 123.1542583
  94.0917743 120.8675443 123.5213054  93.7340510 120.1622489 122.2303873
  96.6818674 128.4612186 134.8208414  96.3819397 129.3637225 134.7124221
  96.3369734 128.1944369 135.6729567  90.1331155 124.9125983 130.8545118
  89.2081652 124.7802197 131.0622810  90.3815569 125.6920202 131.3515061
 100.0815818 120.9794726 132.5005851  99.1732695 120.9110135 132.2064612
 100.0303414 121.4566671 133.3287677  93.9032562 122.4552865 124.1389250
  93.7832187 122.9009915 124.9774730  93.2085150 122.8038182 123.5802788
  87.4939967 124.5559256 131.6888907  87.6232348 124.8093735 132.6028319
  86.8137418 125.1486964 131.3693562  91.6639454 135.2256506 127.7879381
  91.5863484 136.1764331 127.8667862  91.0601097 134.8802379 128.4454308
  94.1556684 122.3984372 140.4440748  93.3790018 122.9578292 140.4343613
  94.7947247 122.8841155 140.9655618 101.9477464 119.1811165 134.2783725
 101.3051844 119.4743698 133.6323520 101.4432393 119.0664085 135.0836922
  99.6017628 122.9274338 124.9669584 100.5135484 123.1601724 124.7917282
  99.0927275 123.5111382 124.4044663  92.4103056 125.2069825 140.0058715
  93.1517740 125.7454869 139.7293539  91.7040041 125.8336114 140.1630267
  94.2389466 122.2871572 135.9764434  95.0850661 122.7110986 136.1199083
  94.1788103 121.6305197 136.6702997  98.2087210 127.9100156 132.3583166
  97.5796073 128.0745870 131.6559234  97.8212872 128.3241766 133.1294130
 102.0876442 128.8454594 129.7127529 101.4027480 129.2253495 129.1624563
 102.1720291 129.4549921 130.4459477  97.3888911 119.9475941 137.6345607
  97.1449843 120.7018001 137.0979883  97.6648841 120.3261288 138.4692854
  99.3427374 126.4914553 136.3122873  99.5544269 127.1346313 135.6357254
  99.2957122 125.6576870 135.8444803  96.9453603 119.1032374 133.2159445
  96.0838082 119.4013627 133.5076183  96.9716037 119.3202773 132.2840478
  93.7615172 127.6474564 129.6233251  94.2253518 127.9262267 128.8337873
  93.4971970 126.7458009 129.4406341  90.6539253 127.1946046 132.5613014
  91.2240610 127.6233314 131.9230499  91.2447365 126.9128630 133.2597200
  92.6984058 123.7697717 126.4322816  93.4008101 124.2218760 126.8996742
  92.3664687 123.1281535 127.0602709  91.1464420 122.3609473 140.8074025
  90.5163080 123.0425754 141.0409422  91.0400508 122.2492555 139.8627164
  86.4409392 122.0281269 131.7339949  85.6508446 122.2838798 131.2580060
  86.9320639 122.8429607 131.8391990 100.4573202 129.3686508 134.4845230
 101.2790645 128.9666696 134.2027912 100.4535605 129.2654743 135.4361346
  88.3924137 122.3925849 128.6923426  87.5955301 122.5044543 129.2106922
  88.1649730 122.7312501 127.8264317  94.2229805 128.9170552 136.6405941
  94.2874238 129.3790959 137.4764113  93.5140729 128.2867917 136.7688251
  84.7247095 122.2811760 134.1654940  84.9755133 123.1658770 134.4312516
  85.2606643 122.1016361 133.3930032 108.5479195 125.7125257 130.8330202
 107.7942903 125.1432655 130.6774206 108.6826736 125.6787921 131.7800836
  93.9377823 130.5838659 126.5084921  93.8023498 131.4290195 126.9369769
  94.4787635 130.7857937 125.7450855  90.4245162 116.6630239 143.1699276
  90.0312108 116.1096438 143.8446921  91.2411303 116.9740818 143.5605794
  87.3907220 128.1014097 127.0812846  87.9031741 128.8957348 127.2318411
  88.0429933 127.4040388 127.0146448  89.2002105 131.2179854 129.1635599
  89.3768733 132.1397818 128.9756583  89.9958938 130.9038273 129.5929979
  93.3413123 118.0788118 140.7619533  94.0822837 118.6795271 140.6823995
  93.5731046 117.3365756 140.2037575  88.4854461 123.2644485 139.0397763
  88.3707977 122.3629743 139.3404862  87.6298979 123.5108182 138.6882579
  90.3233420 132.7358027 135.1645942  90.8740845 132.6075091 134.3922936
  89.4844896 133.0352916 134.8140835  97.2870286 114.1069221 135.0383815
  96.9434556 114.9970863 134.9622925  97.6549249 113.9170879 134.1753400
  85.3556137 126.4302752 127.8572417  86.1931359 126.8399760 127.6406124
  85.5334405 125.4902194 127.8272611  97.2520569 124.0977832 123.5456250
  96.7367192 124.8682437 123.7844637  96.9797877 123.4242968 124.1689311
  94.8367680 118.9427533 128.6041488  93.9809276 118.5534383 128.4247127
  95.2494632 119.0219494 127.7441274  96.3666827 116.4773876 133.0033048
  95.8631622 116.4404011 132.1900853  96.6597434 117.3866619 133.0629705
  92.6109713 116.5612606 132.0099230  93.4762709 116.3655415 131.6505119
  92.6787221 116.3322958 132.9368586 102.2254843 126.8510187 125.4809423
 101.4484286 126.5121346 125.0364585 102.9046324 126.8562810 124.8064388
  97.0406872 121.9704924 125.3716031  96.7357008 122.2851073 126.2226174
  97.9937314 122.0486344 125.4143364  95.4853304 128.1295148 127.0208985
  94.9574666 127.3947907 126.7082222  94.9840807 128.9069824 126.7748953
 100.4646150 126.3244168 132.1376031  99.8069825 127.0143430 132.2256160
 101.2686549 126.7140600 132.4810018  90.2172032 118.7914814 129.3815596
  90.7915784 118.5689995 128.6488789  90.8043014 118.8603508 130.1344198
  99.2751609 124.6788541 130.1879973  99.7883491 125.3118533 130.6901683
  99.9252833 124.0789736 129.8223333  90.5441619 120.8219275 123.4011482
  89.7078931 121.1593961 123.7220756  90.4046388 120.6868255 122.4638619
  92.5194699 115.6656063 128.1090666  91.8659112 115.3505080 127.4847281
  92.4775174 115.0431803 128.8350489  93.6305904 125.9475358 120.0243958
  92.7232966 125.7164611 120.2235107  94.1276936 125.1512977 120.2117939
  96.5373983 134.6572865 122.9440644  95.8635682 134.9604562 123.5525602
  96.9239805 135.4601945 122.5946101  95.7532440 122.1537996 132.4338313
  94.8355001 122.3752943 132.2760002  96.1692583 122.2284307 131.5750021
  96.5367487 123.5529412 127.5640994  97.2839306 124.0650809 127.2548116
  96.8059077 123.2313465 128.4245387  94.8094138 126.0487953 124.5467948
  93.9005357 125.7646986 124.6440418  94.8389221 126.4687031 123.6871255
 100.0413405 129.6594542 128.3159116  99.5875732 128.8185452 128.3724306
  99.4107372 130.2955941 128.6533896  98.9846325 120.5886528 129.5459783
  98.2469081 120.0763914 129.8770026  99.2373098 120.1486910 128.7343060
  98.4846344 131.4971039 129.2508934  98.7769319 132.0576096 128.5321299
  98.9944965 131.7899600 130.0062093  99.0857952 113.3662780 130.1401552
  99.3916829 112.5060144 129.8527467  99.8110557 113.9580400 129.9400546
  85.3782308 123.7693467 128.5283150  85.1806708 123.1762828 127.8034217
  84.8228972 123.4645677 129.2459089  93.3579032 123.6616573 130.6477743
  93.4127641 122.7090410 130.5720220  92.5470234 123.8176012 131.1319042
  94.5070225 127.5896696 121.8856027  94.0689655 126.8732555 121.4261664
  95.2480666 127.8172811 121.3241118  91.2971392 122.2793633 128.4068122
  90.4839257 122.5787804 128.8133314  91.7930386 121.8849322 129.1242604
  93.4479970 132.2751390 130.3402387  93.4056148 132.5012236 129.4110919
  94.3642668 132.0414765 130.4888188  96.8945603 122.7435458 137.2383016
  97.2494991 122.9706931 138.0977482  97.5417735 123.0753834 136.6160271
 102.6243340 125.8653893 127.9432345 102.4861239 126.0555489 127.0153534
 102.2679559 126.6273276 128.4000396  90.7885466 119.8511989 134.0229357
  91.4284846 119.7100748 133.3252320  89.9562997 119.5646502 133.6467959
 102.6512720 127.9330420 132.9543617 103.0849227 127.8405710 133.8026671
 103.3644301 127.9087921 132.3163633  91.5645770 129.1514419 130.1364350
  92.3586369 128.6564739 129.9346925  90.8537463 128.6232282 129.7732055
  96.3840615 131.5332515 134.4876717  96.4377637 132.1023451 135.2554433
  95.5155396 131.7034400 134.1230754  87.8728534 123.2957501 126.2124102
  86.9426122 123.2341956 126.4294064  87.9686006 122.7733454 125.4160744
  87.7914083 119.8212314 128.8002344  88.0520900 120.7357647 128.6911504
  88.6131255 119.3536756 128.9498957  89.2639008 121.2350071 135.9701169
  89.9362062 121.0267433 135.3213817  88.4368795 121.0372157 135.5306401
  95.1664580 117.8612012 137.9866829  94.5192495 118.5601961 137.8931306
  95.9365596 118.2948156 138.3543078  95.3428715 125.6992777 136.0463649
  96.2720775 125.8503936 135.8732616  94.9219745 125.7876797 135.1912296
  94.1417046 129.7243441 133.8162187  94.0028132 129.3562225 134.6888125
  93.3531643 130.2391080 133.6446145  94.7365198 134.8252538 125.1587723
  94.9116954 134.3540581 125.9733346  94.0497986 135.4518304 125.3868984
  95.6922261 129.1025044 131.2051025  95.3572094 129.0625814 132.1008674
  95.1926207 128.4369760 130.7321435  89.6666505 124.5092674 136.7303606
  89.5286303 123.7772913 137.3315145  90.5771429 124.4201574 136.4487793
  98.6281453 126.4481078 121.4788084  98.0110624 125.7227906 121.3821137
  98.1597942 127.2090438 121.1355158  92.2948806 124.2212633 136.2187285
  93.0048425 123.5805825 136.1773904  92.2518114 124.4725528 137.1413466
  91.0077740 121.2077851 138.0382925  90.4715097 120.7568589 138.6904521
  90.4194448 121.3423760 137.2953389  89.3026284 137.9741900 131.9327583
  89.5422882 138.6060424 132.6106602  88.4595480 137.6229940 132.2192943
  90.4179999 120.6666502 120.6009388  89.5409465 120.5455303 120.2371635
  90.8937752 119.8752581 120.3488277  81.9382139 125.4543662 130.6950896
  82.6253179 125.1405392 130.1071911  81.7830268 126.3585027 130.4218147
  86.7416861 120.3433859 135.1235919  86.6575050 119.7359528 134.3886329
  85.9199568 120.8342877 135.1245416  93.8154145 133.7821023 134.3369087
  93.7424317 134.5875994 134.8488392  93.3731539 133.9812989 133.5117109
  93.6043925 133.0192793 127.8471909  92.8211447 133.5614473 127.9410133
  94.3036670 133.5366772 128.2466150  96.9140575 118.8287422 130.4906114
  97.4109275 118.0757385 130.1707185  96.1427557 118.8651739 129.9249324
 104.7670333 124.5327788 132.1324406 104.7560209 125.4152503 131.7618339
 103.8987712 124.1799339 131.9378943  97.9970356 127.5859109 128.0644538
  97.0626635 127.7060572 127.8949242  98.1747024 126.6831576 127.8004548
  93.4975544 120.9704805 130.2177799  93.1273331 120.4175846 130.9058705
  93.9934636 120.3662939 129.6652799 101.3842907 123.4276429 128.5994572
 101.8503359 124.2604420 128.5254875 101.8350408 122.9621410 129.3039830
  91.3264742 131.4302300 137.3132817  92.0274202 132.0638783 137.4662211
  90.8559857 131.7717032 136.5528456  99.4519138 129.7720250 125.5980724
  99.7278982 129.6576845 126.5074598  98.5823637 129.3737735 125.5592897
  99.3559570 115.7957016 132.6385473  98.4422650 116.0261243 132.8067680
  99.7852671 115.8795460 133.4899506  99.1266028 123.9846908 135.1385367
  98.4737479 124.2322815 134.4837820  99.5046408 123.1711046 134.8047845
  96.0873202 134.0206601 129.2413538  96.2695597 133.2028257 129.7041290
  96.9106188 134.2374293 128.8038428  96.4215368 132.9474786 126.5028586
  96.9503134 132.4367241 125.8898748  96.6843587 132.6317316 127.3674119
  86.9232461 130.9638655 134.2463920  87.5085897 130.2182343 134.3791824
  86.7257299 131.2742612 135.1300583  89.7771116 133.9989903 129.2626362
  89.1081491 134.4836030 128.7790402  89.6383985 134.2459123 130.1769740
  81.5150115 123.5344255 132.9668363  81.5534215 123.0007846 133.7605481
  81.0090408 123.0079461 132.3479340  88.8940878 118.3808796 136.4630905
  88.9582204 119.2423627 136.0508303  88.8307998 117.7682798 135.7303264
  88.3693150 120.4531929 140.1103939  88.9965189 120.0709006 140.7241464
  87.5121069 120.2346130 140.4759632  85.1458693 122.2608358 126.0422294
  85.4412134 121.3519036 125.9889348  84.2446729 122.2396097 125.7203296
  97.0544772 133.9815622 132.8472702  96.9295911 133.1805362 132.3383648
  97.7123863 134.4761815 132.3586672  88.6752940 120.3364354 132.0249843
  87.9539526 120.9500322 131.8857316  89.4646196 120.8722119 131.9466489
  99.1179680 131.7824642 134.4752253  98.1710016 131.6629993 134.4030579
  99.4662453 130.8947140 134.5578514  91.4779253 117.6718781 138.2990494
  92.0013655 117.9181077 139.0616804  91.2591587 118.5038816 137.8793632
  86.8746534 119.9422455 126.1661619  86.5459241 119.0619834 125.9836725
  87.2285905 119.8870124 127.0538008  96.1226113 131.5777358 130.6756605
  95.9751076 130.6494065 130.8564175  96.9479607 131.5997449 130.1913680
  89.9888358 120.2295425 126.5337097  90.3284430 120.7581346 125.8115705
  90.4360478 120.5675831 127.3095663  99.7260235 132.4005917 131.7621478
 100.6506783 132.1948778 131.6245929  99.5575539 132.1522318 132.6710819
  92.6831798 118.6132476 135.9840165  92.3428619 117.8140289 136.3860845
  91.9770805 118.9134187 135.4116998  93.3348270 115.6981788 134.4367488
  94.1574340 115.2242266 134.3146378  93.5786334 116.4772272 134.9366174
  91.9756505 118.7270047 124.7330390  92.6964867 119.1051299 124.2294107
  91.3521809 119.4458923 124.8365368  96.1187628 119.4315196 125.6688722
  96.3351242 120.3139834 125.3677550  95.6381695 119.0401409 124.9394364
  90.8586849 122.3900909 132.2459467  90.7131430 122.7041212 133.1383748
  90.3812053 123.0085809 131.6930365  92.7183232 119.3803457 132.2940356
  92.7044801 118.4844550 131.9572654  93.4355660 119.3874121 132.9278642
  94.5709363 119.8140797 134.3393484  94.3127140 120.7357868 134.3377814
  94.0394403 119.4171232 135.0293948  99.5155551 132.9191584 127.1183569
  99.6892429 132.3538007 126.3657421 100.0084443 133.7192479 126.9363059
  85.3332511 124.9306253 135.1847128  84.7885979 125.7066061 135.3167402
  86.2111861 125.2777058 135.0266249  92.1220128 118.2617837 127.5627926
  92.2436039 117.3334483 127.7618814  91.8322170 118.2756523 126.6506242
  94.9911318 115.9472748 130.6994646  95.0133015 116.0112081 129.7446626
  95.4079377 115.1077256 130.8935152 105.3694943 125.6828007 128.7373869
 105.8126089 124.9335332 128.3392992 104.4921453 125.6738143 128.3547601
 100.5030724 132.2358349 124.2180467 101.1981628 132.8565041 124.4367782
 100.8453874 131.3853700 124.4932845  86.1198533 124.0576150 138.0777285
  85.3780269 124.2058785 138.6641915  85.7991277 124.3184415 137.2144034
 102.4022147 129.6858054 125.7467798 102.9273471 130.0245327 125.0217118
 102.3144500 128.7505069 125.5630933  94.0862808 135.7530037 130.1063051
  93.6467798 135.2606416 130.7995908  94.8370925 135.2103005 129.8655126
  86.5655147 131.9441578 130.1087679  87.3913167 131.6445350 129.7286323
  86.2149199 131.1749201 130.5577468  91.5336680 131.2968046 132.1785353
  90.9116689 130.6338751 131.8787581  92.2041547 131.3229178 131.4959001
  84.7663752 129.8627905 131.0676613  83.9295660 129.4350079 130.8860614
  84.7387397 130.0560348 132.0047404  91.6061207 119.7749834 141.7717859
  91.6549363 120.6511957 141.3895629  92.1483722 119.2327228 141.1989502
  91.0950187 129.8471970 125.6543813  91.2438307 130.5307434 125.0010486
  91.9016630 129.8277060 126.1693269  93.8360496 120.5281207 138.5264218
  92.9663805 120.8214773 138.2546806  94.0719976 121.1121652 139.2471481
 104.9127807 127.1533245 131.1296316 105.7474699 127.5923049 131.2933877
 105.0486936 126.6771899 130.3104562 101.9619313 124.7112980 137.0773804
 102.4373435 124.9040627 136.2692655 101.0384879 124.7672166 136.8317188
  88.8502820 125.8737147 126.6604882  88.6048862 124.9699477 126.8585092
  89.0198734 125.8754298 125.7184360  96.5399530 116.7460824 136.0429638
  97.0581473 117.4821851 135.7176127  96.1854662 117.0524817 136.8776397
  88.1198467 121.6065505 124.1591044  87.4267712 121.6809860 123.5031080
  87.8750219 120.8425849 124.6812561  96.7912124 113.1661106 131.5630535
  97.0713878 112.4984295 132.1890961  97.5762731 113.3590202 131.0505198
  94.5945592 132.3420100 123.1255561  94.0219559 132.9610287 122.6726033
  95.1678386 132.8919462 123.6595483 100.6620982 121.5878740 135.3102110
 101.6138405 121.6876838 135.3314334 100.4924433 120.7957009 135.8200194
  98.6835362 118.6734324 135.4961511  98.0885294 118.9539336 134.8007999
  98.3985058 119.1628224 136.2678252  97.8142852 132.6257250 124.2564143
  98.7473525 132.5602812 124.4597019  97.7266065 133.4613517 123.7978676
 100.4430869 131.9423121 121.2168091 100.3644500 131.6082984 122.1103849
 101.2640536 132.4344889 121.2159563 103.1409060 124.8084860 134.4244409
 103.1085380 123.8700861 134.6104093 103.7509684 124.8868897 133.6910234
  94.9792391 123.6780913 120.4671613  95.9251496 123.5487121 120.5360031
  94.6006636 122.9395575 120.9441042 103.2903548 121.5995903 134.4702693
 102.7742597 120.8154360 134.2832621 104.1743497 121.2714620 134.6349212
 100.9514275 115.3436919 130.4298505 100.7539096 115.0352007 131.3141837
 101.5613981 116.0698558 130.5596435 108.9585610 125.8700867 133.5650446
 109.6888998 125.6086155 134.1258149 108.3492555 125.1329589 133.6052514
 107.0400907 124.0108729 134.1624897 106.3134070 123.8764694 133.5541389
 106.6248194 124.3185558 134.9681615  93.1635308 121.6030889 120.4026499
  92.2566763 121.3064002 120.4789212  93.4411289 121.3060707 119.5360785
  84.0813248 122.9237253 130.8525545  83.7616033 122.0702561 130.5599919
  83.5346677 123.1385831 131.6083512  87.8593156 125.6399694 134.5695052
  88.0779166 126.5716802 134.5883085  88.2718930 125.2807668 135.3549855
  94.7797374 116.1467779 126.5570740  93.9698102 115.8014864 126.9325986
  95.4681791 115.8375323 127.1458351  96.7087922 115.2245826 128.1795037
  97.2618961 115.6441279 128.8385060  96.9458008 114.2981574 128.2217993
  91.9334093 118.4617825 120.5438478  92.7953257 118.7872723 120.8034295
  92.1184437 117.6749321 120.0311544  83.9501508 126.5440164 132.8218667
  83.2564980 126.1294117 132.3088621  84.6974499 126.5860701 132.2252085
 100.0866729 117.3346351 127.6873701  99.5065398 117.9931155 127.3051753
  99.8202662 116.5123696 127.2761118  98.5370295 116.7351409 129.8895021
  99.0370074 116.8467943 129.0809340  99.1805903 116.4312462 130.5295830
  85.8638251 126.4758418 130.6984681  85.8408939 126.5746105 129.7466565
  86.1738887 127.3223569 131.0201848  88.5225629 128.5334573 134.8131296
  89.4768882 128.5018515 134.7461227  88.3238152 128.0725197 135.6281522
  89.1125011 127.1035689 137.3802094  89.9317900 127.5979768 137.4036931
  89.3861819 126.1867657 137.3519661  98.8691607 119.4946441 126.7430049
  97.9817462 119.7796092 126.5250244  99.2845596 119.3340205 125.8957326
 102.2206143 119.5192962 130.4584388 102.9966533 120.0089415 130.7309005
 101.4954277 119.9451017 130.9156258 104.6578702 120.2320582 131.5158329
 105.2523193 119.9916318 130.8051637 104.7305286 119.5127712 132.1431865
  86.8775858 134.0754193 131.8301494  86.7430325 133.3154593 131.2639492
  86.4607920 134.7995092 131.3630283  98.0134821 129.2591116 120.8378069
  98.7170671 129.4641119 121.4535725  97.2897469 129.8267878 121.1027153
  98.8432631 125.0100977 126.9580339  98.7867832 125.4669529 126.1187972
  99.3960973 124.2491662 126.7803182 102.6537437 120.7990709 127.7830459
 102.3974371 120.3987345 128.6138666 102.0290305 121.5134503 127.6580598
 106.9649775 123.5386783 130.2901750 106.4049333 123.6079972 131.0633312
 106.3593278 123.3627767 129.5701246  90.0344983 134.9723510 132.0419936
  89.9177368 135.9168942 131.9398627  89.2137430 134.6697071 132.4305736
  99.9221518 129.6973645 122.8876529 100.7567122 129.2654844 122.7054004
  99.7605861 129.5255659 123.8153424  99.5767410 126.2005759 124.2532868
  99.5216214 126.0350030 123.3121313  98.9513465 126.9081792 124.4095058
  84.3659925 121.4373823 138.0794291  85.0118789 120.9272777 138.5681516
  84.1577076 122.1742505 138.6537716  92.8863536 115.7013868 123.8318187
  92.8742205 116.6455708 123.9886458  93.7786957 115.5184013 123.5377648
  91.0599498 135.6251772 135.2575865  91.9626744 135.6575382 135.5742360
  90.8336868 134.6952222 135.2722201  92.8153100 134.3782758 131.9185943
  91.8648731 134.3784620 131.8050316  93.1185586 133.6315493 131.4021978
  96.7015655 112.2956644 128.0864124  95.9348051 111.7415131 128.2320806
  97.1126360 112.3678513 128.9478275  88.7057416 118.5841440 142.1769305
  89.5688878 118.2278245 142.3872629  88.1322827 118.2455335 142.8644709
 100.7237501 142.7766306 124.6191721 101.4968377 142.2295293 124.4804597
 101.0762900 143.6410555 124.8306182 103.0603779 138.9358972 122.2510171
 103.3129299 138.4140493 121.4893634 102.1228338 138.7725117 122.3536854
 102.7800067 140.8387078 124.4534546 102.6636326 140.1631981 125.1215630
 102.8902327 140.3519452 123.6366699 104.7637095 135.3287125 123.1542583
 104.9311498 136.1967361 123.5213054 104.5734264 135.4914406 122.2303873
 104.7426316 137.7844782 124.1389250 104.6225941 138.2301833 124.9774730
 104.0478905 138.1330100 123.5802788 110.4411382 138.2566255 124.9669584
 111.3529238 138.4893642 124.7917282 109.9321029 138.8403300 124.4044663
 103.5377813 139.0989634 126.4322816 104.2401856 139.5510678 126.8996742
 103.2058441 138.4573453 127.0602709  97.2803147 137.3573187 131.7339949
  96.4902201 137.6130715 131.2580060  97.7714394 138.1721525 131.8391990
  99.2317892 137.7217766 128.6923426  98.4349055 137.8336460 129.2106922
  99.0043484 138.0604418 127.8264317  98.2300975 143.4306015 127.0812846
  98.7425495 144.2249265 127.2318411  98.8823687 142.7332305 127.0146448
  96.1949891 141.7594669 127.8572417  97.0325113 142.1691678 127.6406124
  96.3728159 140.8194111 127.8272611 108.0914324 139.4269750 123.5456250
 107.5760947 140.1974355 123.7844637 107.8191632 138.7534886 124.1689311
 105.6761435 134.2719451 128.6041488 104.8203031 133.8826301 128.4247127
 106.0888386 134.3511411 127.7441274 103.4503467 131.8904524 132.0099230
 104.3156464 131.6947332 131.6505119 103.5180976 131.6614875 132.9368586
 107.8800627 137.2996842 125.3716031 107.5750762 137.6142991 126.2226174
 108.8331069 137.3778262 125.4143364 101.0565786 134.1206732 129.3815596
 101.6309538 133.8981913 128.6488789 101.6436769 134.1895426 130.1344198
 101.3835373 136.1511193 123.4011482 100.5472686 136.4885879 123.7220756
 101.2440143 136.0160172 122.4638619 103.3588454 130.9947980 128.1090666
 102.7052866 130.6796998 127.4847281 103.3168928 130.3723721 128.8350489
 104.4699659 141.2767276 120.0243958 103.5626720 141.0456529 120.2235107
 104.9670691 140.4804895 120.2117939 105.6487892 141.3779870 124.5467948
 104.7399111 141.0938903 124.6440418 105.6782976 141.7978949 123.6871255
 109.9251706 128.6954698 130.1401552 110.2310583 127.8352061 129.8527467
 110.6504311 129.2872318 129.9400546  96.2176063 139.0985385 128.5283150
  96.0200462 138.5054745 127.8034217  95.6622727 138.7937595 129.2459089
 105.3463980 142.9188614 121.8856027 104.9083410 142.2024473 121.4261664
 106.0874421 143.1464729 121.3241118 102.1365146 137.6085551 128.4068122
 101.3233012 137.9079721 128.8133314 102.6324140 137.2141240 129.1242604
  98.7122288 138.6249418 126.2124102  97.7819876 138.5633874 126.4294064
  98.8079760 138.1025371 125.4160744  98.6307837 135.1504231 128.8002344
  98.8914655 136.0649565 128.6911504  99.4525010 134.6828674 128.9498957
 109.4675208 141.7772996 121.4788084 108.8504378 141.0519824 121.3821137
 108.9991696 142.5382356 121.1355158 101.2573753 135.9958420 120.6009388
 100.3803220 135.8747221 120.2371635 101.7331507 135.2044498 120.3488277
  92.7775894 140.7835580 130.6950896  93.4646933 140.4697310 130.1071911
  92.6224022 141.6876944 130.4218147 107.7534330 134.1579340 130.4906114
 108.2503029 133.4049302 130.1707185 106.9821311 134.1943657 129.9249324
 104.3369298 136.2996723 130.2177799 103.9667086 135.7467763 130.9058705
 104.8328391 135.6954856 129.6652799  92.3543870 138.8636173 132.9668363
  92.3927969 138.3299764 133.7605481  91.8484163 138.3371379 132.3479340
  95.9852447 137.5900275 126.0422294  96.2805888 136.6810954 125.9889348
  95.0840483 137.5688015 125.7203296  99.5146694 135.6656272 132.0249843
  98.7933280 136.2792240 131.8857316 100.3039950 136.2014037 131.9466489
  97.7140289 135.2714373 126.1661619  97.3852995 134.3911752 125.9836725
  98.0679660 135.2162042 127.0538008 100.8282112 135.5587343 126.5337097
 101.1678185 136.0873264 125.8115705 101.2754233 135.8967749 127.3095663
 102.8150259 134.0561964 124.7330390 103.5358622 134.4343217 124.2294107
 102.1915563 134.7750841 124.8365368 106.9581382 134.7607113 125.6688722
 107.1744996 135.6431751 125.3677550 106.4775449 134.3693327 124.9394364
 102.9613882 133.5909755 127.5627926 103.0829793 132.6626401 127.7618814
 102.6715925 133.6048441 126.6506242 105.8305073 131.2764665 130.6994646
 105.8526770 131.3403998 129.7446626 106.2473132 130.4369174 130.8935152
 101.9343941 145.1763887 125.6543813 102.0832062 145.8599352 125.0010486
 102.7410385 145.1568978 126.1693269  99.6896574 141.2029065 126.6604882
  99.4442616 140.2991395 126.8585092  99.8592489 141.2046216 125.7184360
  98.9592222 136.9357423 124.1591044  98.2661467 137.0101778 123.5031080
  98.7143974 136.1717766 124.6812561 107.6305878 128.4953024 131.5630535
 107.9107632 127.8276213 132.1890961 108.4156485 128.6882120 131.0505198
 105.8186145 139.0072831 120.4671613 106.7645250 138.8779039 120.5360031
 105.4400390 138.2687493 120.9441042 104.0029062 136.9322807 120.4026499
 103.0960518 136.6355920 120.4789212 104.2805043 136.6352625 119.5360785
  94.9207003 138.2529170 130.8525545  94.6009787 137.3994479 130.5599919
  94.3740431 138.4677749 131.6083512 105.6191128 131.4759697 126.5570740
 104.8091856 131.1306782 126.9325986 106.3075545 131.1667241 127.1458351
 107.5481676 130.5537744 128.1795037 108.1012715 130.9733197 128.8385060
 107.7851763 129.6273492 128.2217993 102.7727847 133.7909742 120.5438478
 103.6347011 134.1164641 120.8034295 102.9578191 133.0041238 120.0311544
 110.9260484 132.6638269 127.6873701 110.3459153 133.3223073 127.3051753
 110.6596416 131.8415613 127.2761118 109.3764050 132.0643326 129.8895021
 109.8763828 132.1759861 129.0809340 110.0199658 131.7604379 130.5295830
 109.7085362 134.8238359 126.7430049 108.8211217 135.1088010 126.5250244
 110.1239351 134.6632123 125.8957326 108.8528575 144.5883034 120.8378069
 109.5564425 144.7933036 121.4535725 108.1291224 145.1559796 121.1027153
 110.4161165 141.5297676 124.2532868 110.3609968 141.3641948 123.3121313
 109.7907220 142.2373709 124.4095058 103.7257290 131.0305785 123.8318187
 103.7135960 131.9747625 123.9886458 104.6180712 130.8475931 123.5377648
 107.5409410 127.6248562 128.0864124 106.7741805 127.0707049 128.2320806
 107.9520114 127.6970431 128.9478275  30.9225594  15.3895868 110.9449893
  30.2713573  15.9749948 110.5583907  31.7169956  15.9202062 111.0044930
  24.8481221  12.4785005 111.3437027  25.6212097  11.9313992 111.2049903
  25.2006620  13.3429254 111.5551489  27.1847499   8.6377671 108.9755477
  27.4373019   8.1159192 108.2138940  26.2472058   8.4743816 109.0782161
  32.4000859  13.0786299 111.4818877  31.7646692  13.1520926 112.1939782
  32.0698265  13.6679898 110.8037957  26.9043787  10.5405777 111.1779852
  26.7880045   9.8650680 111.8460937  27.0146047  10.0538151 110.3612005
  28.8880815   5.0305824 109.8787890  29.0555218   5.8986060 110.2458361
  28.6977984   5.1933105 108.9549179  28.8670036   7.4863481 110.8634557
  28.7469661   7.9320532 111.7020037  28.1722624   7.8348799 110.3048095
  26.6276928  20.2567123 114.5124688  26.5500958  21.2074948 114.5913169
  26.0238572  19.9112995 115.1699614  34.5655102   7.9584954 111.6914891
  35.4772958   8.1912341 111.5162588  34.0564749   8.5421998 111.1289969
  37.0513916  13.8765211 116.4372836  36.3664955  14.2564112 115.8869869
  37.1357766  14.4860537 117.1704784  43.5116669  10.7435873 117.5575508
  42.7580377  10.1743272 117.4019513  43.6464210  10.7098538 118.5046143
  28.9015297  15.6149276 113.2330228  28.7660972  16.4600811 113.6615076
  29.4425110  15.8168553 112.4696162  32.2158043   9.1288449 110.2701556
  31.7004667   9.8993053 110.5089944  31.9435352   8.4553585 110.8934618
  37.1892317  11.8820803 112.2054730  36.4121760  11.5431963 111.7609892
  37.8683798  11.8873427 111.5309695  32.0044347   7.0015541 112.0961338
  31.6994482   7.3161690 112.9471481  32.9574789   7.0796961 112.1388671
  30.4490778  13.1605764 113.7454292  29.9212140  12.4258524 113.4327529
  29.9478281  13.9380441 113.4994260  28.5943379  10.9785974 106.7489265
  27.6870440  10.7475228 106.9480414  29.0914411  10.1823594 106.9363246
  31.5011457  19.6883482 109.6685951  30.8273156  19.9915178 110.2770909
  31.8877279  20.4912562 109.3191408  29.7731612  11.0798569 111.2713255
  28.8642831  10.7957602 111.3685724  29.8026696  11.4997648 110.4116561
  35.0050879  14.6905159 115.0404422  34.5513207  13.8496069 115.0969613
  34.3744846  15.3266557 115.3779202  33.4483819  16.5281655 115.9754240
  33.7406793  17.0886713 115.2566606  33.9582439  16.8210216 116.7307399
  29.4707700  12.6207313 108.6101333  29.0327130  11.9043172 108.1506971
  30.2118141  12.8483428 108.0486425  28.4117444  17.3062007 117.0647694
  28.3693623  17.5322853 116.1356226  29.3280143  17.0725381 117.2133495
  37.5880815  10.8964510 114.6677652  37.4498713  11.0866106 113.7398841
  37.2317033  11.6583893 115.1245703  29.7002673  19.8563154 111.8833030
  29.8754428  19.3851197 112.6978653  29.0135461  20.4828920 112.1114291
  33.5918927  11.4791695 108.2033391  32.9748098  10.7538523 108.1066443
  33.1235416  12.2401055 107.8600465  24.2663758  23.0052517 118.6572890
  24.5060356  23.6371041 119.3351909  23.4232954  22.6540557 118.9438249
  28.5681399  18.0503409 114.5717216  27.7848921  18.5925089 114.6655440
  29.2674145  18.5677389 114.9711457  32.9607830  12.6169726 114.7889844
  32.0264109  12.7371188 114.6194549  33.1384499  11.7142193 114.5249854
  36.3480382   8.4587045 115.3239879  36.8140834   9.2915037 115.2500181
  36.7987882   7.9932027 116.0285137  34.4156613  14.8030867 112.3226031
  34.6916457  14.6887461 113.2319905  33.5461111  14.4048351 112.2838204
  31.0510677  19.0517217 115.9658844  31.2333071  18.2338873 116.4286596
  31.8743663  19.2684910 115.5283734  31.3852842  17.9785403 113.2273893
  31.9140609  17.4677857 112.6144055  31.6481062  17.6627933 114.0919426
  24.7408590  19.0300519 115.9871669  24.0718965  19.5146647 115.5035709
  24.6021460  19.2769740 116.9015047  32.0182246  19.0126238 119.5718009
  31.8933385  18.2115978 119.0628955  32.6761337  19.5072432 119.0831979
  31.0863588  16.6087975 117.4001911  30.9388550  15.6804682 117.5809481
  31.9117081  16.6308065 116.9158987  34.6897709  17.4316533 118.4866784
  35.6144257  17.2259395 118.3491235  34.5213013  17.1832934 119.3956126
  34.4793026  17.9502201 113.8428876  34.6529903  17.3848623 113.0902728
  34.9721917  18.7503096 113.6608366  40.3332417  10.7138624 115.4619175
  40.7763563   9.9645949 115.0638299  39.4558927  10.7048760 115.0792907
  35.4668198  17.2668965 110.9425774  36.1619103  17.8875658 111.1613089
  35.8091348  16.4164316 111.2178152  37.3659621  14.7168671 112.4713105
  37.8910945  15.0555943 111.7462425  37.2781974  13.7815686 112.2876239
  29.0500282  20.7840654 116.8308358  28.6105272  20.2917033 117.5241215
  29.8008399  20.2413622 116.5900433  26.0587661  14.8782586 112.3789120
  26.2075781  15.5618051 111.7255793  26.8654105  14.8587676 112.8938576
  39.8765282  12.1843862 117.8541623  40.7112173  12.6233666 118.0179183
  40.0124410  11.7082515 117.0349869  29.5583067  17.3730717 109.8500868
  28.9857034  17.9920904 109.3971339  30.1315860  17.9230078 110.3840789
  32.7780326  17.6567867 110.9809450  33.7111000  17.5913429 111.1842325
  32.6903539  18.4924134 110.5223982  35.4068343  16.9733737 107.9413397
  35.3281975  16.6393601 108.8349155  36.2278010  17.4655505 107.9404870
  29.9429865   8.7091530 107.1916920  30.8888970   8.5797738 107.2605338
  29.5644110   7.9706191 107.6686348  28.1272782   6.6341506 107.1271805
  27.2204238   6.3374619 107.2034519  28.4048763   6.3371324 106.2606091
  32.9772295  14.2901733 107.5623376  33.6808145  14.4951735 108.1781031
  32.2534944  14.8578495 107.8272459  33.8070105  10.0411594 113.6825646
  33.7505307  10.4980145 112.8433278  34.3598448   9.2802279 113.5048489
  41.9287249   8.5697399 117.0147057  41.3686807   8.6390588 117.7878619
  41.3230752   8.3938384 116.2946553  34.8858992  14.7284262 109.6121836
  35.7204596  14.2965460 109.4299311  34.7243335  14.5566276 110.5398730
  34.5404884  11.2316375 110.9778175  34.4853688  11.0660647 110.0366619
  33.9150940  11.9392408 111.1340365  27.7790574  19.4093375 118.6431250
  26.8286205  19.4095236 118.5295622  28.0823060  18.6626109 118.1267285
  43.5143267  25.2453913 119.7077012  44.1521677  25.1260660 119.0040353
  43.3964110  26.1934757 119.7664965  40.3232974  25.1981341 119.6438537
  39.9851485  25.0822406 118.7559072  41.1922742  24.7972506 119.6239543
  36.1819789  27.0516818 115.6335428  35.6184654  26.9606754 114.8651716
  36.0672184  26.2316722 116.1137921  40.8052757  26.3516193 125.6024743
  40.7941397  25.9568991 124.7305246  40.9673396  25.6182265 126.1958514
  33.7284221  28.5468009 118.4719649  34.5205513  28.2058834 118.0565948
  33.9680871  28.6562984 119.3921802  41.7619348  30.7187785 110.9449893
  41.1107328  31.3041866 110.5583907  42.5563711  31.2493980 111.0044930
  35.6874975  27.8076922 111.3437027  36.4605851  27.2605909 111.2049903
  36.0400374  28.6721172 111.5551489  37.5260018  29.1353305 124.5503927
  37.2349884  30.0398935 124.4350593  38.1617002  29.1769832 125.2647996
  38.4516225  26.5130153 121.1405286  39.0479797  26.2886176 120.4262249
  38.5091196  25.7714899 121.7430734  38.0241253  23.9669588 108.9755477
  38.2766774  23.4451110 108.2138940  37.0865812  23.8035734 109.0782161
  43.0684536  22.9705367 116.7830221  43.8547625  22.5524790 116.4320638
  43.3323240  23.8751459 116.9511869  43.2394613  28.4078217 111.4818877
  42.6040446  28.4812844 112.1939782  42.9092020  28.9971816 110.8037957
  48.4692963  22.9080600 117.6863199  49.2018135  22.3379817 117.9201029
  47.7132319  22.5202200 118.1269705  37.7437542  25.8697694 111.1779852
  37.6273800  25.1942598 111.8460937  37.8539802  25.3830068 110.3612005
  40.0869083  25.3307842 114.8826541  39.7227290  24.8038463 115.5939463
  40.9436199  24.9406311 114.7093027  45.9918383  16.6202174 122.1457808
  45.6601708  17.4897585 121.9219023  45.3963997  16.3038458 122.8251838
  39.7274570  20.3597741 109.8787890  39.8948972  21.2277978 110.2458361
  39.5371739  20.5225023 108.9549179  42.4849903  28.8214720 121.5453720
  42.1850626  29.7239759 121.4369528  42.1400962  28.5546903 122.3974873
  35.9362384  25.2728517 117.5790425  35.0112881  25.1404731 117.7868117
  36.1846798  26.0522736 118.0760367  45.8847047  21.3397260 119.2251158
  44.9763924  21.2712669 118.9309919  45.8334642  21.8169205 120.0532983
  39.7063791  22.8155399 110.8634557  39.5863416  23.2612449 111.7020037
  39.0116379  23.1640716 110.3048095  33.2971195  24.9161791 118.4134214
  33.4263577  25.1696269 119.3273626  32.6168647  25.5089499 118.0938869
  37.4670683  35.5859040 114.5124688  37.3894712  36.5366866 114.5913169
  36.8632326  35.2404913 115.1699614  47.7508693  19.5413699 121.0029032
  47.1083073  19.8346232 120.3568826  47.2463622  19.4266619 121.8082228
  45.4048857  23.2876872 111.6914891  46.3166713  23.5204259 111.5162588
  44.8958504  23.8713916 111.1289969  38.2134285  25.5672359 126.7304022
  38.9548969  26.1057403 126.4538846  37.5071270  26.1938648 126.8875574
  43.6889624  27.7101500 125.3276183  44.0972980  27.2683910 124.5830816
  42.9666886  27.1354127 125.5810376  40.0420694  22.6474107 122.7009740
  40.8881890  23.0713520 122.8444389  39.9819332  21.9907731 123.3948303
  44.0118439  28.2702690 119.0828472  43.3827301  28.4348404 118.3804540
  43.6244101  28.6844300 119.8539436  47.8907671  29.2057128 116.4372836
  47.2058709  29.5856030 115.8869869  47.9751520  29.8152455 117.1704784
  43.1920140  20.3078475 124.3590914  42.9481072  21.0620535 123.8225190
  43.4680070  20.6863822 125.1938161  45.1458603  26.8517087 123.0368180
  45.3575498  27.4948847 122.3602561  45.0988351  26.0179404 122.5690110
  42.7484831  19.4634908 119.9404752  41.8869310  19.7616161 120.2321489
  42.7747266  19.6805307 119.0085784  39.5646401  28.0077098 116.3478557
  40.0284746  28.2864801 115.5583180  39.3003199  27.1060543 116.1651648
  36.4570482  27.5548580 119.2858321  37.0271839  27.9835848 118.6475805
  37.0478594  27.2731165 119.9842506  38.5015287  24.1300251 113.1568123
  39.2039330  24.5821294 113.6242049  38.1695915  23.4884070 113.7848016
  32.2440621  22.3883803 118.4585256  31.4539675  22.6441332 117.9825367
  32.7351868  23.2032141 118.5637297  46.2604430  29.7289043 121.2090537
  47.0821874  29.3269230 120.9273219  46.2566833  29.6257277 122.1606653
  34.1955366  22.7528383 115.4168733  33.3986530  22.8647077 115.9352228
  33.9680958  23.0915035 114.5509623  40.0261034  29.2773086 123.3651247
  40.0905466  29.7393493 124.2009419  39.3171958  28.6470451 123.4933557
  30.5278324  22.6414294 120.8900247  30.7786362  23.5261304 121.1557823
  31.0637872  22.4618895 120.1175339  54.3510424  26.0727791 117.5575508
  53.5974132  25.5035189 117.4019513  54.4857965  26.0390456 118.5046143
  39.7409052  30.9441193 113.2330228  39.6054726  31.7892729 113.6615076
  40.2818864  31.1460471 112.4696162  33.1938449  28.4616631 113.8058153
  33.7062970  29.2559882 113.9563718  33.8461162  27.7642922 113.7391754
  35.0033334  31.5782388 115.8880906  35.1799962  32.5000352 115.7001890
  35.7990167  31.2640807 116.3175286  41.3677528  31.5664760 127.3630570
  40.9241382  30.7801139 127.0451474  42.0294742  31.7543910 126.6974461
  36.1264649  33.0960562 121.8891248  36.6772074  32.9677625 121.1168242
  35.2876125  33.3955451 121.5386141  43.4658766  31.8467560 125.3911971
  43.4477241  32.6676441 124.8992240  44.3878686  31.7221635 125.6162112
  39.9231820  29.3611689 126.2335479  40.4560157  28.5999978 126.0034787
  39.3945901  29.0685341 126.9759634  43.0901515  14.4671755 121.7629121
  42.7465785  15.3573397 121.6868232  43.4580478  14.2773413 120.8998706
  31.1587366  26.7905286 114.5817723  31.9962588  27.2002294 114.3651431
  31.3365633  25.8504728 114.5517917  43.0551798  24.4580366 110.2701556
  42.5398421  25.2284971 110.5089944  42.7829106  23.7845503 110.8934618
  40.6398909  19.3030067 115.3286795  39.7840505  18.9136918 115.1492433
  41.0525861  19.3822028 114.4686580  42.1698056  16.8376410 119.7278354
  41.6662851  16.8006546 118.9146160  42.4628662  17.7469153 119.7875011
  38.4140941  16.9215140 118.7344536  39.2793938  16.7257949 118.3750426
  38.4818450  16.6925492 119.6613893  48.0286072  27.2112721 112.2054730
  47.2515515  26.8723881 111.7609892  48.7077553  27.2165344 111.5309695
  42.8438101  22.3307459 112.0961338  42.5388237  22.6453608 112.9471481
  43.7968543  22.4088878 112.1388671  41.2884533  28.4897682 113.7454292
  40.7605894  27.7550441 113.4327529  40.7872036  29.2672358 113.4994260
  46.2677379  26.6846702 118.8621338  45.6101053  27.3745964 118.9501466
  47.0717778  27.0743134 119.2055324  36.0203260  19.1517348 116.1060903
  36.5947012  18.9292530 115.3734096  36.6074243  19.2206043 116.8589504
  45.0782838  25.0391075 116.9125280  45.5914719  25.6721067 117.4146989
  45.7284062  24.4392271 116.5468640  36.3472848  21.1821809 110.1256788
  35.5110160  21.5196496 110.4466063  36.2077617  21.0470789 109.1883925
  38.3225928  16.0258597 114.8335972  37.6690341  15.7107614 114.2092587
  38.2806402  15.4034337 115.5595795  39.4337133  26.3077892 106.7489265
  38.5264195  26.0767146 106.9480414  39.9308165  25.5115511 106.9363246
  42.3405212  35.0175399 109.6685951  41.6666911  35.3207096 110.2770909
  42.7271034  35.8204480 109.3191408  41.5563669  22.5140531 119.1583620
  40.6386230  22.7355478 119.0005308  41.9723812  22.5886841 118.2995327
  42.3398716  23.9131946 114.2886300  43.0870535  24.4253343 113.9793422
  42.6090306  23.5915999 115.1490694  40.6125366  26.4090487 111.2713255
  39.7036586  26.1249520 111.3685724  40.6420450  26.8289566 110.4116561
  45.8444634  30.0197076 115.0404422  45.3906961  29.1787986 115.0969613
  45.2138601  30.6558475 115.3779202  44.7877553  20.9489063 116.2705090
  44.0500310  20.4366449 116.6015332  45.0404327  20.5089444 115.4588367
  44.2877573  31.8573573 115.9754240  44.5800548  32.4178630 115.2566606
  44.7976194  32.1502134 116.7307399  44.8889181  13.7265315 116.8646859
  45.1948058  12.8662678 116.5772774  45.6141786  14.3182935 116.6645853
  31.1813537  24.1296001 115.2528457  30.9837937  23.5365362 114.5279523
  30.6260201  23.8248211 115.9704396  39.1610261  24.0219108 117.3723050
  39.2158870  23.0692944 117.2965527  38.3501463  24.1778547 117.8564348
  40.3101454  27.9499231 108.6101333  39.8720884  27.2335090 108.1506971
  41.0511895  28.1775345 108.0486425  37.1002620  22.6396167 115.1313429
  36.2870486  22.9390338 115.5378621  37.5961615  22.2451856 115.8487911
  39.2511198  32.6353924 117.0647694  39.2087377  32.8614771 116.1356226
  40.1673897  32.4017299 117.2133495  42.6976832  23.1037992 123.9628323
  43.0526220  23.3309465 124.8222788  43.3448963  23.4356369 123.3405578
  48.4274569  26.2256428 114.6677652  48.2892468  26.4158024 113.7398841
  48.0710788  26.9875811 115.1245703  36.5916695  20.2114523 120.7474664
  37.2316075  20.0703282 120.0497627  35.7594226  19.9249036 120.3713266
  48.4543949  28.2932955 119.6788923  48.8880455  28.2008244 120.5271977
  49.1675529  28.2690455 119.0408939  37.3676999  29.5116953 116.8609656
  38.1617598  29.0167273 116.6592231  36.6568691  28.9834816 116.4977362
  42.1871844  31.8935049 121.2122024  42.2408866  32.4625985 121.9799740
  41.3186625  32.0636934 120.8476061  33.6759763  23.6560035 112.9369409
  32.7457351  23.5944490 113.1539371  33.7717235  23.1335988 112.1406050
  33.5945312  20.1814848 115.5247651  33.8552129  21.0960181 115.4156811
  34.4162484  19.7139290 115.6744263  35.0670237  21.5952605 122.6946475
  35.7393290  21.3869967 122.0459124  34.2400023  21.3974691 122.2551707
  49.3159498  28.3356655 122.2121809  49.5095388  29.2402466 122.4581084
  49.2160116  27.8764074 123.0460394  44.3774607  28.4863398 127.7862689
  44.2260113  28.2573950 126.8692773  44.3679286  29.4434000 127.7994034
  41.1459943  26.0595311 122.7708956  42.0752003  26.2106470 122.5977923
  40.7250973  26.1479332 121.9157602  39.9448275  30.0845975 120.5407493
  39.8059361  29.7164760 121.4133431  39.1562871  30.5993615 120.3691451
  40.5396427  35.1855072 111.8833030  40.7148183  34.7143115 112.6978653
  39.8529215  35.8120838 112.1114291  41.4953490  29.4627578 117.9296331
  41.1603323  29.4228348 118.8253981  40.9957436  28.7972294 117.4566741
  35.4697734  24.8695208 123.4548912  35.3317532  24.1375447 124.0560451
  36.3802658  24.7804108 123.1733100  44.4312682  26.8083612 108.2033391
  43.8141853  26.0830440 108.1066443  43.9629170  27.5692973 107.8600465
  38.0980035  24.5815167 122.9432592  38.8079653  23.9408359 122.9019210
  38.0549343  24.8328062 123.8658773  46.0866814  31.5182521 125.8639171
  46.0279360  30.8341741 125.1969754  46.4886332  32.2601511 125.4119797
  35.1057512  38.3344434 118.6572890  35.3454111  38.9662959 119.3351909
  34.2626709  37.9832475 118.9438249  36.2211228  21.0269037 107.3254695
  35.3440694  20.9057837 106.9616942  36.6968981  20.2355115 107.0733584
  46.0884221  29.4822105 124.0953151  45.2011000  29.1448026 124.2179550
  46.6582772  28.7505136 124.3321916  27.7413368  25.8146196 117.4196202
  28.4284408  25.5007926 116.8317218  27.5861497  26.7187561 117.1463454
  39.6185374  34.1423557 121.0614394  39.5455546  34.9478528 121.5733699
  39.1762767  34.3415523 120.2362415  39.4075154  33.3795327 114.5717216
  38.6242676  33.9217007 114.6655440  40.1067899  33.8969307 114.9711457
  42.7171804  19.1889956 117.2151421  43.2140503  18.4359919 116.8952491
  41.9458785  19.2254273 116.6494630  50.5701561  24.8930322 118.8569712
  50.5591438  25.7755037 118.4863646  49.7018941  24.5401873 118.6624250
  42.0784058  34.0410391 123.2172553  42.7912030  34.6757856 123.1448454
  41.5874086  34.1374257 122.4012555  43.8001585  27.9461644 114.7889844
  42.8657863  28.0663106 114.6194549  43.9778253  27.0434110 114.5249854
  39.3006773  21.3307339 116.9423106  38.9304560  20.7778380 117.6304011
  39.7965865  20.7265473 116.3898106  47.1874136  23.7878963 115.3239879
  47.6534588  24.6206955 115.2500181  47.6381636  23.3223944 116.0285137
  37.1295971  31.7904834 124.0378124  37.8305431  32.4241317 124.1907518
  36.6591086  32.1319566 123.2773763  45.2550367  30.1322784 112.3226031
  45.5310211  30.0179379 113.2319905  44.3854866  29.7340269 112.2838204
  45.1590799  16.1559550 119.3630780  44.2453879  16.3863777 119.5312987
  45.5883900  16.2397994 120.2144812  44.9297257  24.3449442 121.8630674
  44.2768707  24.5925349 121.2083127  45.3077637  23.5313580 121.5293151
  41.8904431  34.3809135 115.9658844  42.0726826  33.5630791 116.4286596
  42.7137417  34.5976827 115.5283734  42.2246597  33.3077320 113.2273893
  42.7534363  32.7969775 112.6144055  42.4874816  32.9919850 114.0919426
  32.7263689  31.3241189 120.9709226  33.3117126  30.5784877 121.1037130
  32.5288528  31.6345146 121.8545890  35.5802345  34.3592437 115.9871669
  34.9112720  34.8438564 115.5035709  35.4415214  34.6061657 116.9015047
  27.3181344  23.8946790 119.6913669  27.3565444  23.3610380 120.4850787
  26.8121637  23.3681995 119.0724647  39.7207613  36.3936180 122.5854327
  40.2725921  36.5567802 123.3503412  40.0613807  36.9840618 121.9134352
  44.5718487  31.2197438 128.4402981  45.1158391  31.8327396 127.9457936
  43.9905332  31.7777016 128.9569994  30.9489922  22.6210892 112.7667601
  31.2443363  21.7121570 112.7134654  30.0477957  22.5998631 112.4448603
  42.8576000  34.3418156 119.5718009  42.7327140  33.5407896 119.0628955
  43.5155092  34.8364349 119.0831979  34.4784169  20.6966888 118.7495149
  33.7570754  21.3102856 118.6102623  35.2677424  21.2324653 118.6711795
  44.9210909  32.1427176 121.1997559  43.9741244  32.0232527 121.1275886
  45.2693682  31.2549674 121.2823821  32.6777763  20.3024989 112.8906926
  32.3490469  19.4222368 112.7082032  33.0317134  20.2472658 113.7783315
  41.9257342  31.9379892 117.4001911  41.7782305  31.0096600 117.5809481
  42.7510836  31.9599983 116.9158987  35.7919586  20.5897959 113.2582404
  36.1315659  21.1183881 112.5361012  36.2391707  20.9278365 114.0340970
  45.5291464  32.7608451 118.4866784  46.4538011  32.5551312 118.3491235
  45.3606767  32.5124852 119.3956126  39.1379499  16.0584322 121.1612795
  39.9605568  15.5844801 121.0391685  39.3817563  16.8374806 121.6611481
  37.7787734  19.0872581 111.4575696  38.4996096  19.4653834 110.9539413
  37.1553038  19.8061458 111.5610674  41.9218856  19.7917730 112.3934029
  42.1382471  20.6742368 112.0922857  41.4412924  19.4003943 111.6639671
  36.6618078  22.7503443 118.9704773  36.5162659  23.0643746 119.8629055
  36.1843281  23.3688343 118.4175672  38.5214461  19.7405991 119.0185663
  38.5076029  18.8447084 118.6817961  39.2386889  19.7476655 119.6523949
  40.3740591  20.1743331 121.0638790  40.1158369  21.0960402 121.0623121
  39.8425632  19.7773766 121.7539254  45.3186780  33.2794118 113.8428876
  45.4923658  32.7140541 113.0902728  45.8115671  34.0795013 113.6608366
  31.1363740  25.2908787 121.9092434  30.5917208  26.0668595 122.0412709
  32.0143090  25.6379592 121.7511556  37.9251357  18.6220371 114.2873233
  38.0467268  17.6937018 114.4864120  37.6353399  18.6359057 113.3751548
  40.7942547  16.3075282 117.4239953  40.8164244  16.3714615 116.4691932
  41.2110606  15.4679790 117.6180459  51.1726171  26.0430541 115.4619175
  51.6157317  25.2937867 115.0638299  50.2952682  26.0340678 115.0792907
  46.3061953  32.5960883 110.9425774  47.0012857  33.2167575 111.1613089
  46.6485103  31.7456234 111.2178152  48.2053376  30.0460588 112.4713105
  48.7304700  30.3847861 111.7462425  48.1175728  29.1107604 112.2876239
  39.8673424  33.9594662 124.6002981  40.1760551  33.7143809 125.4725681
  40.6648906  34.1641300 124.1121852  39.8894037  36.1132572 116.8308358
  39.4499027  35.6208950 117.5241215  40.6402153  35.5705539 116.5900433
  32.3686375  32.3044112 116.8332986  33.1944395  32.0047884 116.4531629
  32.0180427  31.5351735 117.2822775  37.3367909  31.6570581 118.9030660
  36.7147918  30.9941286 118.6032887  38.0072776  31.6831713 118.2204307
  30.5694981  30.2230439 117.7921920  29.7326889  29.7952613 117.6105921
  30.5418626  30.4162882 118.7292711  47.8947282  30.6793492 127.7764303
  47.1042826  30.6617631 127.2368802  47.6580636  31.2181786 128.5313339
  48.0145157  27.5285958 125.0897031  48.0643162  27.3635966 126.0312554
  47.9059080  26.6613217 124.6994912  36.8981416  30.2074504 112.3789120
  37.0469536  30.8909968 111.7255793  37.7047859  30.1879594 112.8938576
  45.3048919  23.5116886 126.4056338  46.2058782  23.3723351 126.1140336
  45.3796894  23.6771341 127.3454515  49.5163354  29.9482900 125.3339053
  49.2248162  30.3112880 126.1702514  48.9035485  29.2349908 125.1552385
  50.7159036  27.5135780 117.8541623  51.5505927  27.9525584 118.0179183
  50.8518165  27.0374433 117.0349869  47.7650542  25.0715514 123.8019111
  48.2404664  25.2643161 122.9937962  46.8416107  25.1274700 123.5562494
  34.6534049  26.2339682 113.3850189  34.4080090  25.3302012 113.5830399
  34.8229963  26.2356832 112.4429667  42.3430758  17.1063358 122.7674945
  42.8612702  17.8424385 122.4421433  41.9885891  17.4127351 123.6021704
  33.9229696  21.9668039 110.8836350  33.2298941  22.0412394 110.2276386
  33.6781448  21.2028383 111.4057867  42.5943353  13.5263641 118.2875841
  42.8745106  12.8586830 118.9136268  43.3793960  13.7192736 117.7750505
  40.3976821  32.7022634 109.8500868  39.8250788  33.3212822 109.3971339
  40.9709615  33.2521996 110.3840789  46.4652211  21.9481275 122.0347416
  47.4169634  22.0479372 122.0559640  46.2955661  21.1559543 122.5445501
  44.4866590  19.0336858 122.2206817  43.8916523  19.3141871 121.5253306
  44.2016287  19.5230759 122.9923558  43.6174081  32.9859785 110.9809450
  44.5504754  32.9205346 111.1842325  43.5297294  33.8216051 110.5223982
  46.2462098  32.3025655 107.9413397  46.1675729  31.9685519 108.8349155
  47.0671764  32.7947423 107.9404870  48.9440289  25.1687394 121.1489716
  48.9116609  24.2303395 121.3349400  49.5540912  25.2471431 120.4155541
  40.7823620  24.0383447 107.1916920  41.7282724  23.9089655 107.2605338
  40.4037865  23.2998109 107.6686348  49.0934777  21.9598438 121.1947999
  48.5773826  21.1756894 121.0077928  49.9774726  21.6317154 121.3594519
  46.7545504  15.7039453 117.1543812  46.5570325  15.3954541 118.0387144
  47.3645210  16.4301092 117.2841742  54.7616839  26.2303401 120.2895753
  55.4920227  25.9688689 120.8503456  54.1523784  25.4932123 120.3297821
  52.8432136  24.3711264 120.8870204  52.1165299  24.2367229 120.2786696
  52.4279423  24.6788092 121.6926922  40.6662312  28.0901193 128.6517577
  41.5865322  28.2679792 128.8457623  40.6311895  27.1457239 128.4997276
  38.9666537  21.9633424 107.1271805  38.0597992  21.6666536 107.2034519
  39.2442518  21.6663242 106.2606091  29.8844477  23.2839787 117.5770852
  29.5647261  22.4305095 117.2845226  29.3377905  23.4988365 118.3328819
  33.6624385  26.0002228 121.2940358  33.8810394  26.9319336 121.3128392
  34.0750159  25.6410202 122.0795162  40.5828602  16.5070313 113.2816047
  39.7729331  16.1617398 113.6571293  41.2713019  16.1977857 113.8703658
  42.5119151  15.5848360 114.9040343  43.0650189  16.0043814 115.5630366
  42.7489237  14.6584108 114.9463299  37.7365321  18.8220359 107.2683784
  38.5984485  19.1475257 107.5279602  37.9215666  18.0351855 106.7556850
  29.7532737  26.9042699 119.5463973  29.0596209  26.4896651 119.0333928
  30.5005728  26.9463235 118.9497392  45.8897958  17.6948885 114.4119007
  45.3096627  18.3533689 114.0297060  45.6233891  16.8726230 114.0006425
  44.3401524  17.0953943 116.6140328  44.8401303  17.2070478 115.8054647
  44.9837132  16.7914996 117.2541136  31.6669480  26.8360952 117.4229988
  31.6440168  26.9348640 116.4711871  31.9770116  27.6826103 117.7447154
  34.3256858  28.8937107 121.5376603  35.2800111  28.8621050 121.4706534
  34.1269381  28.4327731 122.3526828  34.9156240  27.4638223 124.1047400
  35.7349129  27.9582302 124.1282237  35.1893047  26.5470192 124.0764968
  44.6722836  19.8548976 113.4675356  43.7848691  20.1398626 113.2495550
  45.0876825  19.6942739 112.6202633  48.0237372  19.8795497 117.1829695
  48.7997762  20.3691949 117.4554312  47.2985506  20.3053551 117.6401564
  50.4609931  20.5923116 118.2403636  51.0554421  20.3518852 117.5296944
  50.5336514  19.8730246 118.8677172  32.6807086  34.4356727 118.5546800
  32.5461554  33.6757128 117.9884798  32.2639149  35.1597627 118.0875589
  43.8166049  29.6193650 107.5623376  44.5201899  29.8243653 108.1781031
  43.0928698  30.1870412 107.8272459  44.6463860  25.3703512 113.6825646
  44.5899061  25.8272063 112.8433278  45.1992202  24.6094196 113.5048489
  48.4568666  21.1593243 114.5075765  48.2005600  20.7589879 115.3383973
  47.8321534  21.8737037 114.3825904  52.7681003  23.8989317 117.0147057
  52.2080561  23.9682506 117.7878619  52.1624507  23.7230301 116.2946553
  35.8376212  35.3326044 118.7665243  35.7208596  36.2771476 118.6643933
  35.0168658  35.0299605 119.1551042  45.7252747  30.0576180 109.6121836
  46.5598351  29.6257378 109.4299311  45.5637090  29.8858193 110.5398730
  45.3798639  26.5608293 110.9778175  45.3247443  26.3952564 110.0366619
  44.7544694  27.2684326 111.1340365  42.6944546  28.8657205 130.3031738
  43.5635706  29.0397857 129.9418373  42.2151298  29.6851622 130.1807467
  38.6894764  16.0616402 110.5563493  38.6773434  17.0058242 110.7131764
  39.5818186  15.8786547 110.2622955  36.8630726  35.9854306 121.9821171
  37.7657973  36.0177916 122.2987666  36.6368096  35.0554757 121.9967507
  38.6184328  34.7385292 118.6431250  37.6679959  34.7387154 118.5295622
  38.9216814  33.9918027 118.1267285  42.5046884  12.6559179 114.8109430
  41.7379280  12.1017665 114.9566113  42.9157589  12.7281047 115.6723582
  54.3537022  40.5745831 119.7077012  54.9915432  40.4552578 119.0040353
  54.2357865  41.5226675 119.7664965  51.1626728  40.5273259 119.6438537
  50.8245240  40.4114323 118.7559072  52.0316496  40.1264424 119.6239543
  47.0213544  42.3808735 115.6335428  46.4578409  42.2898672 114.8651716
  46.9065939  41.5608640 116.1137921  51.6446511  41.6808110 125.6024743
  51.6335152  41.2860909 124.7305246  51.8067151  40.9474183 126.1958514
  44.5677976  43.8759927 118.4719649  45.3599268  43.5350751 118.0565948
  44.8074626  43.9854902 119.3921802  52.6013103  46.0479703 110.9449893
  51.9501082  46.6333783 110.5583907  53.3957465  46.5785898 111.0044930
  46.5268730  43.1368840 111.3437027  47.2999606  42.5897827 111.2049903
  46.8794129  44.0013089 111.5551489  48.3653772  44.4645222 124.5503927
  48.0743638  45.3690853 124.4350593  49.0010757  44.5061750 125.2647996
  49.2909979  41.8422071 121.1405286  49.8873551  41.6178093 120.4262249
  49.3484951  41.1006816 121.7430734  48.8635008  39.2961506 108.9755477
  49.1160528  38.7743027 108.2138940  47.9259567  39.1327652 109.0782161
  53.9078290  38.2997285 116.7830221  54.6941380  37.8816708 116.4320638
  54.1716995  39.2043377 116.9511869  54.0788368  43.7370135 111.4818877
  53.4434201  43.8104761 112.1939782  53.7485774  44.3263734 110.8037957
  59.3086717  38.2372518 117.6863199  60.0411889  37.6671735 117.9201029
  58.5526073  37.8494118 118.1269705  48.5831296  41.1989612 111.1779852
  48.4667554  40.5234515 111.8460937  48.6933556  40.7121986 110.3612005
  50.9262837  40.6599759 114.8826541  50.5621044  40.1330380 115.5939463
  51.7829953  40.2698228 114.7093027  56.8312138  31.9494092 122.1457808
  56.4995463  32.8189503 121.9219023  56.2357751  31.6330376 122.8251838
  50.5668324  35.6889659 109.8787890  50.7342727  36.5569895 110.2458361
  50.3765493  35.8516941 108.9549179  53.3243657  44.1506638 121.5453720
  53.0244380  45.0531677 121.4369528  52.9794717  43.8838821 122.3974873
  46.7756139  40.6020435 117.5790425  45.8506635  40.4696649 117.7868117
  47.0240552  41.3814654 118.0760367  56.7240801  36.6689178 119.2251158
  55.8157678  36.6004586 118.9309919  56.6728397  37.1461123 120.0532983
  50.5457545  38.1447316 110.8634557  50.4257170  38.5904367 111.7020037
  49.8510133  38.4932634 110.3048095  44.1364950  40.2453708 118.4134214
  44.2657331  40.4988187 119.3273626  43.4562401  40.8381416 118.0938869
  48.3064437  50.9150958 114.5124688  48.2288467  51.8658783 114.5913169
  47.7026081  50.5696831 115.1699614  50.7981667  38.0878824 127.1686055
  50.0215001  38.6472744 127.1588920  51.4372230  38.5735607 127.6900925
  58.5902448  34.8705616 121.0029032  57.9476828  35.1638150 120.3568826
  58.0857376  34.7558537 121.8082228  56.2442611  38.6168790 111.6914891
  57.1560467  38.8496176 111.5162588  55.7352258  39.2005834 111.1289969
  49.0528039  40.8964277 126.7304022  49.7942724  41.4349321 126.4538846
  48.3465025  41.5230566 126.8875574  54.5283379  43.0393417 125.3276183
  54.9366735  42.5975828 124.5830816  53.8060640  42.4646045 125.5810376
  50.8814449  37.9766024 122.7009740  51.7275644  38.4005438 122.8444389
  50.8213087  37.3199648 123.3948303  54.8512193  43.5994608 119.0828472
  54.2221056  43.7640322 118.3804540  54.4637856  44.0136218 119.8539436
  58.7301425  44.5349046 116.4372836  58.0452464  44.9147947 115.8869869
  58.8145275  45.1444373 117.1704784  54.0313894  35.6370393 124.3590914
  53.7874826  36.3912453 123.8225190  54.3073825  36.0155740 125.1938161
  55.9852357  42.1809005 123.0368180  56.1969252  42.8240765 122.3602561
  55.9382105  41.3471321 122.5690110  53.5878586  34.7926826 119.9404752
  52.7263065  35.0908079 120.2321489  53.6141021  35.0097224 119.0085784
  50.4040155  43.3369016 116.3478557  50.8678501  43.6156719 115.5583180
  50.1396953  42.4352461 116.1651648  47.2964236  42.8840498 119.2858321
  47.8665593  43.3127766 118.6475805  47.8872348  42.6023082 119.9842506
  49.3409041  39.4592169 113.1568123  50.0433085  39.9113212 113.6242049
  49.0089670  38.8175987 113.7848016  47.7889403  38.0503925 127.5319332
  47.1588064  38.7320206 127.7654729  47.6825491  37.9387007 126.5872470
  43.0834375  37.7175721 118.4585256  42.2933429  37.9733250 117.9825367
  43.5745623  38.5324059 118.5637297  57.0998185  45.0580960 121.2090537
  57.9215629  44.6561148 120.9273219  57.0960588  44.9549194 122.1606653
  45.0349121  38.0820300 115.4168733  44.2380284  38.1938995 115.9352228
  44.8074713  38.4206953 114.5509623  50.8654788  44.6065004 123.3651247
  50.9299221  45.0685411 124.2009419  50.1565712  43.9762369 123.4933557
  41.3672078  37.9706212 120.8900247  41.6180117  38.8553222 121.1557823
  41.9031627  37.7910813 120.1175339  65.1904178  41.4019709 117.5575508
  64.4367886  40.8327107 117.4019513  65.3251719  41.3682373 118.5046143
  50.5802806  46.2733111 113.2330228  50.4448481  47.1184647 113.6615076
  51.1212619  46.4752389 112.4696162  47.0670146  32.3524691 129.8944583
  46.6737091  31.7990890 130.5692227  47.8836286  32.6635269 130.2851101
  44.0332203  43.7908549 113.8058153  44.5456724  44.5851799 113.9563718
  44.6854916  43.0934840 113.7391754  45.8427088  46.9074305 115.8880906
  46.0193716  47.8292270 115.7001890  46.6383922  46.5932725 116.3175286
  49.9838107  33.7682570 127.4864840  50.7247820  34.3689723 127.4069302
  50.2156029  33.0260208 126.9282882  45.1279445  38.9538937 125.7643069
  45.0132960  38.0524195 126.0650168  44.2723962  39.2002634 125.4127886
  52.2071282  46.8956678 127.3630570  51.7635137  46.1093056 127.0451474
  52.8688496  47.0835828 126.6974461  46.9658404  48.4252479 121.8891248
  47.5165829  48.2969543 121.1168242  46.1269880  48.7247368 121.5386141
  54.3052520  47.1759478 125.3911971  54.2870996  47.9968359 124.8992240
  55.2272441  47.0513553 125.6162112  50.7625575  44.6903607 126.2335479
  51.2953911  43.9291895 126.0034787  50.2339656  44.3977259 126.9759634
  53.9295270  29.7963673 121.7629121  53.5859539  30.6865315 121.6868232
  54.2974232  29.6065331 120.8998706  41.9981120  42.1197203 114.5817723
  42.8356342  42.5294212 114.3651431  42.1759388  41.1796646 114.5517917
  53.8945552  39.7872284 110.2701556  53.3792176  40.5576889 110.5089944
  53.6222861  39.1137420 110.8934618  51.4792663  34.6321985 115.3286795
  50.6234260  34.2428835 115.1492433  51.8919615  34.7113946 114.4686580
  53.0091810  32.1668328 119.7278354  52.5056606  32.1298463 118.9146160
  53.3022417  33.0761071 119.7875011  49.2534696  32.2507058 118.7344536
  50.1187693  32.0549867 118.3750426  49.3212205  32.0217410 119.6613893
  58.8679826  42.5404639 112.2054730  58.0909269  42.2015798 111.7609892
  59.5471307  42.5457262 111.5309695  53.6831856  37.6599376 112.0961338
  53.3781991  37.9745525 112.9471481  54.6362298  37.7380796 112.1388671
  52.1278287  43.8189600 113.7454292  51.5999649  43.0842359 113.4327529
  51.6265790  44.5964276 113.4994260  57.1071133  42.0138620 118.8621338
  56.4494808  42.7037881 118.9501466  57.9111533  42.4035052 119.2055324
  46.8597015  34.4809266 116.1060903  47.4340767  34.2584447 115.3734096
  47.4467997  34.5497960 116.8589504  55.9176592  40.3682993 116.9125280
  56.4308474  41.0012985 117.4146989  56.5677816  39.7684188 116.5468640
  47.1866602  36.5113727 110.1256788  46.3503914  36.8488413 110.4466063
  47.0471372  36.3762707 109.1883925  49.1619683  31.3550515 114.8335972
  48.5084095  31.0399532 114.2092587  49.1200157  30.7326255 115.5595795
  50.2730888  41.6369810 106.7489265  49.3657949  41.4059063 106.9480414
  50.7701920  40.8407429 106.9363246  53.1798966  50.3467317 109.6685951
  52.5060665  50.6499014 110.2770909  53.5664788  51.1496397 109.3191408
  52.3957423  37.8432448 119.1583620  51.4779984  38.0647395 119.0005308
  52.8117567  37.9178759 118.2995327  53.1792471  39.2423864 114.2886300
  53.9264290  39.7545261 113.9793422  53.4484060  38.9207917 115.1490694
  51.4519121  41.7382405 111.2713255  50.5430340  41.4541437 111.3685724
  51.4814205  42.1581483 110.4116561  56.6838388  45.3488994 115.0404422
  56.2300715  44.5079904 115.0969613  56.0532355  45.9850393 115.3779202
  55.6271308  36.2780980 116.2705090  54.8894065  35.7658366 116.6015332
  55.8798081  35.8381362 115.4588367  55.1271328  47.1865491 115.9754240
  55.4194302  47.7470548 115.2566606  55.6369948  47.4794052 116.7307399
  55.7282935  29.0557232 116.8646859  56.0341812  28.1954596 116.5772774
  56.4535540  29.6474852 116.6645853  42.0207291  39.4587919 115.2528457
  41.8231691  38.8657279 114.5279523  41.4653955  39.1540129 115.9704396
  50.0004015  39.3511025 117.3723050  50.0552625  38.3984862 117.2965527
  49.1895217  39.5070464 117.8564348  51.1495209  43.2791148 108.6101333
  50.7114639  42.5627007 108.1506971  51.8905650  43.5067263 108.0486425
  47.9396375  37.9688085 115.1313429  47.1264240  38.2682256 115.5378621
  48.4355369  37.5743774 115.8487911  50.0904953  47.9645842 117.0647694
  50.0481132  48.1906688 116.1356226  51.0067652  47.7309217 117.2133495
  53.5370587  38.4329909 123.9628323  53.8919974  38.6601383 124.8222788
  54.1842718  38.7648286 123.3405578  59.2668324  41.5548345 114.6677652
  59.1286222  41.7449941 113.7398841  58.9104542  42.3167728 115.1245703
  47.4310450  35.5406441 120.7474664  48.0709829  35.3995200 120.0497627
  46.5987980  35.2540954 120.3713266  59.2937703  43.6224872 119.6788923
  59.7274210  43.5300161 120.5271977  60.0069284  43.5982373 119.0408939
  48.2070754  44.8408871 116.8609656  49.0011352  44.3459191 116.6592231
  47.4962446  44.3126734 116.4977362  53.0265598  47.2226966 121.2122024
  53.0802620  47.7917903 121.9799740  52.1580379  47.3928852 120.8476061
  44.5153517  38.9851953 112.9369409  43.5851105  38.9236408 113.1539371
  44.6110989  38.4627905 112.1406050  44.4339066  35.5106766 115.5247651
  44.6945883  36.4252099 115.4156811  45.2556238  35.0431208 115.6744263
  45.9063991  36.9244523 122.6946475  46.5787045  36.7161885 122.0459124
  45.0793778  36.7266609 122.2551707  60.1553253  43.6648573 122.2121809
  60.3489143  44.5694384 122.4581084  60.0553871  43.2055992 123.0460394
  51.8089563  33.5506464 124.7112136  51.1617478  34.2496413 124.6176612
  52.5790579  33.9842608 125.0788384  55.2168361  43.8155316 127.7862689
  55.0653868  43.5865867 126.8692773  55.2073041  44.7725917 127.7994034
  51.9853698  41.3887229 122.7708956  52.9145758  41.5398388 122.5977923
  51.5644728  41.4771249 121.9157602  50.7842030  45.4137893 120.5407493
  50.6453115  45.0456677 121.4133431  49.9956626  45.9285532 120.3691451
  51.3790182  50.5146989 111.8833030  51.5541937  50.0435033 112.6978653
  50.6922970  51.1412756 112.1114291  52.3347245  44.7919496 117.9296331
  51.9997077  44.7520266 118.8253981  51.8351190  44.1264212 117.4566741
  46.3091489  40.1987126 123.4548912  46.1711287  39.4667364 124.0560451
  47.2196412  40.1096026 123.1733100  55.2706436  42.1375530 108.2033391
  54.6535607  41.4122358 108.1066443  54.8022925  42.8984890 107.8600465
  48.9373789  39.9107085 122.9432592  49.6473408  39.2700277 122.9019210
  48.8943098  40.1619980 123.8658773  56.9260568  46.8474438 125.8639171
  56.8673114  46.1633658 125.1969754  57.3280086  47.5893428 125.4119797
  47.6502723  36.8972303 124.7628231  47.1140080  36.4463041 125.4149828
  47.0619432  37.0318212 124.0198696  45.9451267  53.6636352 118.6572890
  46.1847865  54.2954876 119.3351909  45.1020463  53.3124392 118.9438249
  47.0604982  36.3560954 107.3254695  46.1834449  36.2349755 106.9616942
  47.5362735  35.5647033 107.0733584  56.9277975  44.8114022 124.0953151
  56.0404754  44.4739944 124.2179550  57.4976526  44.0797053 124.3321916
  38.5807122  41.1438114 117.4196202  39.2678162  40.8299844 116.8317218
  38.4255251  42.0479479 117.1463454  43.3841845  36.0328311 121.8481226
  43.3000033  35.4253980 121.1131636  42.5624551  36.5237329 121.8490722
  50.4579129  49.4715475 121.0614394  50.3849300  50.2770446 121.5733699
  50.0156522  49.6707440 120.2362415  50.2468908  48.7087245 114.5717216
  49.4636430  49.2508925 114.6655440  50.9461654  49.2261224 114.9711457
  53.5565558  34.5181874 117.2151421  54.0534258  33.7651836 116.8952491
  52.7852540  34.5546191 116.6494630  61.4095316  40.2222240 118.8569712
  61.3985192  41.1046955 118.4863646  60.5412695  39.8693790 118.6624250
  52.9177812  49.3702309 123.2172553  53.6305784  50.0049773 123.1448454
  52.4267841  49.4666175 122.4012555  54.6395339  43.2753561 114.7889844
  53.7051618  43.3955024 114.6194549  54.8172008  42.3726028 114.5249854
  50.1400527  36.6599257 116.9423106  49.7698315  36.1070297 117.6304011
  50.6359620  36.0557391 116.3898106  58.0267890  39.1170881 115.3239879
  58.4928343  39.9498872 115.2500181  58.4775391  38.6515862 116.0285137
  47.9689726  47.1196752 124.0378124  48.6699185  47.7533235 124.1907518
  47.4984841  47.4611484 123.2773763  56.0944122  45.4614702 112.3226031
  56.3703965  45.3471296 113.2319905  55.2248620  45.0632187 112.2838204
  55.9984553  31.4851468 119.3630780  55.0847633  31.7155694 119.5312987
  56.4277655  31.5689912 120.2144812  55.7691012  39.6741360 121.8630674
  55.1162462  39.9217267 121.2083127  56.1471392  38.8605498 121.5293151
  52.7298186  49.7101053 115.9658844  52.9120580  48.8922709 116.4286596
  53.5531172  49.9268745 115.5283734  53.0640351  48.6369238 113.2273893
  53.5928118  48.1261692 112.6144055  53.3268571  48.3211768 114.0919426
  51.8178585  40.4161171 128.3496711  51.1419222  40.3155300 129.0199086
  52.6406219  40.2600384 128.8132708  43.5657444  46.6533107 120.9709226
  44.1510881  45.9076795 121.1037130  43.3682282  46.9637064 121.8545890
  46.4196099  49.6884355 115.9871669  45.7506474  50.1730482 115.5035709
  46.2808969  49.9353575 116.9015047  38.1575099  39.2238707 119.6913669
  38.1959198  38.6902298 120.4850787  37.6515391  38.6973913 119.0724647
  50.5601368  51.7228098 122.5854327  51.1119676  51.8859720 123.3503412
  50.9007561  52.3132536 121.9134352  45.5365861  34.0703248 123.1876212
  45.6007187  34.9318079 122.7753609  45.4732981  33.4577250 122.4548570
  45.0118133  36.1426380 126.8349246  45.6390172  35.7603458 127.4486770
  44.1546052  35.9240582 127.2004938  55.4112242  46.5489356 128.4402981
  55.9552146  47.1619314 127.9457936  54.8299087  47.1068934 128.9569994
  41.7883676  37.9502810 112.7667601  42.0837117  37.0413488 112.7134654
  40.8871712  37.9290549 112.4448603  53.6969755  49.6710074 119.5718009
  53.5720894  48.8699813 119.0628955  54.3548846  50.1656267 119.0831979
  45.3177923  36.0258806 118.7495149  44.5964509  36.6394774 118.6102623
  46.1071179  36.5616571 118.6711795  55.7604663  47.4719094 121.1997559
  54.8134999  47.3524445 121.1275886  56.1087436  46.5841592 121.2823821
  48.1204237  33.3613233 125.0235801  48.6438638  33.6075529 125.7862110
  47.9016570  34.1933267 124.6038938  43.5171518  35.6316907 112.8906926
  43.1884224  34.7514286 112.7082032  43.8710888  35.5764576 113.7783315
  52.7651097  47.2671810 117.4001911  52.6176059  46.3388517 117.5809481
  53.5904590  47.2891901 116.9158987  46.6313341  35.9189877 113.2582404
  46.9709413  36.4475798 112.5361012  47.0785461  36.2570283 114.0340970
  56.3685218  48.0900369 118.4866784  57.2931766  47.8843230 118.3491235
  56.2000522  47.8416770 119.3956126  49.3256782  34.3026928 122.7085472
  48.9853602  33.5034741 123.1106152  48.6195788  34.6028639 122.1362305
  49.9773254  31.3876240 121.1612795  50.7999323  30.9136718 121.0391685
  50.2211317  32.1666724 121.6611481  48.6181488  34.4164499 111.4575696
  49.3389851  34.7945751 110.9539413  47.9946792  35.1353375 111.5610674
  52.7612611  35.1209648 112.3934029  52.9776225  36.0034285 112.0922857
  52.2806678  34.7295861 111.6639671  47.5011832  38.0795361 118.9704773
  47.3556413  38.3935664 119.8629055  47.0237036  38.6980261 118.4175672
  49.3608215  35.0697909 119.0185663  49.3469784  34.1739002 118.6817961
  50.0780643  35.0768572 119.6523949  51.2134346  35.5035249 121.0638790
  50.9552124  36.4252320 121.0623121  50.6819386  35.1065683 121.7539254
  56.1580535  48.6086036 113.8428876  56.3317412  48.0432459 113.0902728
  56.6509426  49.4086931 113.6608366  41.9757494  40.6200705 121.9092434
  41.4310963  41.3960513 122.0412709  42.8536844  40.9671510 121.7511556
  48.7645111  33.9512289 114.2873233  48.8861022  33.0228935 114.4864120
  48.4747153  33.9650975 113.3751548  51.6336301  31.6367199 117.4239953
  51.6557998  31.7006533 116.4691932  52.0504360  30.7971708 117.6180459
  62.0119926  41.3722459 115.4619175  62.4551072  40.6229784 115.0638299
  61.1346436  41.3632595 115.0792907  57.1455707  47.9252800 110.9425774
  57.8406612  48.5459493 111.1613089  57.4878857  47.0748152 111.2178152
  42.7623516  39.7470601 124.8022591  42.0205252  39.8953237 125.3887222
  42.4416261  40.0078867 123.9389341  59.0447130  45.3752506 112.4713105
  59.5698454  45.7139779 111.7462425  58.9569483  44.4399521 112.2876239
  50.7067179  49.2886580 124.6002981  51.0154305  49.0435726 125.4725681
  51.5042661  49.4933218 124.1121852  50.7287791  51.4424489 116.8308358
  50.2892781  50.9500868 117.5241215  51.4795908  50.8997457 116.5900433
  43.2080130  47.6336030 116.8332986  44.0338150  47.3339802 116.4531629
  42.8574182  46.8643653 117.2822775  48.1761663  46.9862498 118.9030660
  47.5541672  46.3233203 118.6032887  48.8466530  47.0123630 118.2204307
  41.4088735  45.5522357 117.7921920  40.5720643  45.1244531 117.6105921
  41.3812380  45.7454800 118.7292711  48.2486191  35.4644286 128.4963166
  48.2974346  36.3406409 128.1140935  48.7908705  34.9221679 127.9234809
  58.7341036  46.0085410 127.7764303  57.9436580  45.9909548 127.2368802
  58.4974391  46.5473703 128.5313339  58.8538911  42.8577876 125.0897031
  58.9036916  42.6927883 126.0312554  58.7452835  41.9905135 124.6994912
  47.7375170  45.5366422 112.3789120  47.8863290  46.2201886 111.7255793
  48.5441614  45.5171512 112.8938576  56.1442674  38.8408804 126.4056338
  57.0452537  38.7015269 126.1140336  56.2190648  39.0063259 127.3454515
  50.4785479  36.2175659 125.2509524  49.6088788  36.5109225 124.9792113
  50.7144959  36.8016104 125.9716788  60.3557108  45.2774818 125.3339053
  60.0641917  45.6404798 126.1702514  59.7429239  44.5641826 125.1552385
  61.5552791  42.8427697 117.8541623  62.3899682  43.2817501 118.0179183
  61.6911919  42.3666351 117.0349869  58.6044296  40.4007432 123.8019111
  59.0798418  40.5935078 122.9937962  57.6809862  40.4566618 123.5562494
  45.4927803  41.5631599 113.3850189  45.2473845  40.6593929 113.5830399
  45.6623718  41.5648750 112.4429667  53.1824513  32.4355276 122.7674945
  53.7006457  33.1716303 122.4421433  52.8279646  32.7419269 123.6021704
  44.7623451  37.2959957 110.8836350  44.0692696  37.3704312 110.2276386
  44.5175202  36.5320301 111.4057867  53.4337107  28.8555558 118.2875841
  53.7138861  28.1878747 118.9136268  54.2187714  29.0484654 117.7750505
  51.2370576  48.0314552 109.8500868  50.6644543  48.6504739 109.3971339
  51.8103369  48.5813914 110.3840789  57.3045965  37.2773192 122.0347416
  58.2563388  37.3771290 122.0559640  57.1349416  36.4851461 122.5445501
  55.3260345  34.3628775 122.2206817  54.7310277  34.6433788 121.5253306
  55.0410042  34.8522676 122.9923558  54.4567835  48.3151702 110.9809450
  55.3898509  48.2497264 111.1842325  54.3691048  49.1507969 110.5223982
  59.7834043  40.4979312 121.1489716  59.7510363  39.5595313 121.3349400
  60.3934667  40.5763349 120.4155541  51.6217374  39.3675365 107.1916920
  52.5676479  39.2381573 107.2605338  51.2431619  38.6290027 107.6686348
  59.9328532  37.2890355 121.1947999  59.4167580  36.5048812 121.0077928
  60.8168480  36.9609072 121.3594519  57.5939259  31.0331371 117.1543812
  57.3964080  30.7246459 118.0387144  58.2038964  31.7593010 117.2841742
  65.6010593  41.5595319 120.2895753  66.3313982  41.2980607 120.8503456
  64.9917539  40.8224041 120.3297821  63.6825890  39.7003181 120.8870204
  62.9559054  39.5659146 120.2786696  63.2673177  40.0080010 121.6926922
  51.5056067  43.4193111 128.6517577  52.4259076  43.5971710 128.8457623
  51.4705650  42.4749156 128.4997276  49.8060291  37.2925341 107.1271805
  48.8991747  36.9958454 107.2034519  50.0836272  36.9955159 106.2606091
  40.7238232  38.6131705 117.5770852  40.4041016  37.7597013 117.2845226
  40.1771660  38.8280283 118.3328819  44.5018139  41.3294146 121.2940358
  44.7204149  42.2611254 121.3128392  44.9143913  40.9702120 122.0795162
  51.4222357  31.8362231 113.2816047  50.6123085  31.4909316 113.6571293
  52.1106774  31.5269775 113.8703658  53.3512905  30.9140278 114.9040343
  53.9043944  31.3335731 115.5630366  53.5882992  29.9876026 114.9463299
  49.3746004  36.9027351 130.6843107  49.2742731  37.8521708 130.6155198
  49.1567547  36.5745590 129.8119177  48.5759076  34.1512277 107.2683784
  49.4378240  34.4767175 107.5279602  48.7609420  33.3643772 106.7556850
  40.5926492  42.2334616 119.5463973  39.8989963  41.8188569 119.0333928
  41.3399483  42.2755153 118.9497392  56.7291712  33.0240803 114.4119007
  56.1490381  33.6825607 114.0297060  56.4627645  32.2018148 114.0006425
  55.1795279  32.4245861 116.6140328  55.6795057  32.5362395 115.8054647
  55.8230887  32.1206914 117.2541136  49.2377275  40.3324490 129.5008169
  48.7544356  41.1324850 129.7072058  49.3238214  40.3432435 128.5475613
  42.5063234  42.1652870 117.4229988  42.4833922  42.2640557 116.4711871
  42.8163871  43.0118021 117.7447154  45.1650612  44.2229025 121.5376603
  46.1193866  44.1912967 121.4706534  44.9663136  43.7619649 122.3526828
  45.7549994  42.7930141 124.1047400  46.5742883  43.2874220 124.1282237
  46.0286802  41.8762109 124.0764968  55.5116590  35.1840893 113.4675356
  54.6242445  35.4690544 113.2495550  55.9270579  35.0234657 112.6202633
  58.8631126  35.2087414 117.1829695  59.6391517  35.6983867 117.4554312
  58.1379261  35.6345469 117.6401564  61.3003685  35.9215034 118.2403636
  61.8948176  35.6810770 117.5296944  61.3730269  35.2022164 118.8677172
  43.5200841  49.7648644 118.5546800  43.3855309  49.0049045 117.9884798
  43.1032903  50.4889544 118.0875589  54.6559804  44.9485568 107.5623376
  55.3595654  45.1535571 108.1781031  53.9322453  45.5162330 107.8272459
  55.4857614  40.6995429 113.6825646  55.4292816  41.1563981 112.8433278
  56.0385957  39.9386114 113.5048489  59.2962420  36.4885161 114.5075765
  59.0399354  36.0881797 115.3383973  58.6715288  37.2028955 114.3825904
  63.6074758  39.2281234 117.0147057  63.0474316  39.2974424 117.7878619
  63.0018261  39.0522219 116.2946553  46.6769967  50.6617962 118.7665243
  46.5602351  51.6063394 118.6643933  45.8562413  50.3591523 119.1551042
  56.5646501  45.3868097 109.6121836  57.3992105  44.9549296 109.4299311
  56.4030844  45.2150111 110.5398730  56.2192393  41.8900211 110.9778175
  56.1641197  41.7244482 110.0366619  55.5938449  42.5976243 111.1340365
  41.0084908  37.1268275 124.8039597  41.6543772  36.6167229 125.2926822
  40.8002060  37.8636957 125.3783022  53.5338301  44.1949122 130.3031738
  54.4029460  44.3689775 129.9418373  53.0545052  45.0143539 130.1807467
  49.5288519  31.3908320 110.5563493  49.5167189  32.3350159 110.7131764
  50.4211941  31.2078465 110.2622955  47.7024481  51.3146223 121.9821171
  48.6051728  51.3469834 122.2987666  47.4761851  50.3846674 121.9967507
  49.4578083  50.0677210 118.6431250  48.5073714  50.0679072 118.5295622
  49.7610569  49.3209945 118.1267285  53.3440638  27.9851096 114.8109430
  52.5773034  27.4309583 114.9566113  53.7551343  28.0572965 115.6723582
  45.3482399  34.2735892 128.9014611  46.2113861  33.9172697 129.1117936
  44.7747810  33.9349787 129.5890016  65.1930776  55.9037748 119.7077012
  65.8309186  55.7844496 119.0040353  65.0751619  56.8518592 119.7664965
  62.0020483  55.8565176 119.6438537  61.6638994  55.7406241 118.7559072
  62.8710251  55.4556342 119.6239543  57.8607298  57.7100653 115.6335428
  57.2972163  57.6190590 114.8651716  57.7459693  56.8900557 116.1137921
  62.4840266  57.0100028 125.6024743  62.4728906  56.6152826 124.7305246
  62.6460905  56.2766101 126.1958514  55.4071730  59.2051844 118.4719649
  56.1993022  58.8642669 118.0565948  55.6468380  59.3146820 119.3921802
  63.4406857  61.3771621 110.9449893  62.7894837  61.9625701 110.5583907
  64.2351220  61.9077815 111.0044930  57.3662484  58.4660758 111.3437027
  58.1393360  57.9189745 111.2049903  57.7187883  59.3305007 111.5551489
  59.2047527  59.7937140 124.5503927  58.9137393  60.6982771 124.4350593
  59.8404511  59.8353668 125.2647996  60.1303734  57.1713988 121.1405286
  60.7267306  56.9470011 120.4262249  60.1878705  56.4298734 121.7430734
  59.7028762  54.6253424 108.9755477  59.9554283  54.1034945 108.2138940
  58.7653321  54.4619569 109.0782161  64.7472045  53.6289202 116.7830221
  65.5335134  53.2108625 116.4320638  65.0110749  54.5335294 116.9511869
  64.9182122  59.0662052 111.4818877  64.2827955  59.1396679 112.1939782
  64.5879529  59.6555651 110.8037957  70.1480472  53.5664435 117.6863199
  70.8805644  52.9963652 117.9201029  69.3919828  53.1786036 118.1269705
  59.4225051  56.5281530 111.1779852  59.3061309  55.8526433 111.8460937
  59.5327311  56.0413904 110.3612005  61.7656592  55.9891677 114.8826541
  61.4014799  55.4622298 115.5939463  62.6223708  55.5990146 114.7093027
  67.6705892  47.2786009 122.1457808  67.3389217  48.1481420 121.9219023
  67.0751506  46.9622293 122.8251838  61.4062079  51.0181577 109.8787890
  61.5736481  51.8861813 110.2458361  61.2159248  51.1808858 108.9549179
  64.1637412  59.4798555 121.5453720  63.8638135  60.3823594 121.4369528
  63.8188471  59.2130739 122.3974873  57.6149893  55.9312352 117.5790425
  56.6900390  55.7988566 117.7868117  57.8634307  56.7106572 118.0760367
  67.5634556  51.9981096 119.2251158  66.6551433  51.9296504 118.9309919
  67.5122151  52.4753041 120.0532983  61.3851300  53.4739234 110.8634557
  61.2650925  53.9196285 111.7020037  60.6903888  53.8224552 110.3048095
  54.9758704  55.5745626 118.4134214  55.1051086  55.8280105 119.3273626
  54.2956156  56.1673334 118.0938869  59.1458192  66.2442876 114.5124688
  59.0682221  67.1950701 114.5913169  58.5419835  65.8988748 115.1699614
  61.6375421  53.4170741 127.1686055  60.8608755  53.9764661 127.1588920
  62.2765984  53.9027524 127.6900925  69.4296202  50.1997534 121.0029032
  68.7870582  50.4930067 120.3568826  68.9251131  50.0850454 121.8082228
  67.0836366  53.9460707 111.6914891  67.9954222  54.1788094 111.5162588
  66.5746013  54.5297751 111.1289969  59.8921794  56.2256195 126.7304022
  60.6336478  56.7641239 126.4538846  59.1858779  56.8522483 126.8875574
  65.3677133  58.3685335 125.3276183  65.7760489  57.9267746 124.5830816
  64.6454395  57.7937963 125.5810376  61.7208203  53.3057942 122.7009740
  62.5669399  53.7297355 122.8444389  61.6606841  52.6491566 123.3948303
  65.6905948  58.9286526 119.0828472  65.0614810  59.0932240 118.3804540
  65.3031610  59.3428135 119.8539436  69.5695180  59.8640964 116.4372836
  68.8846218  60.2439865 115.8869869  69.6539029  60.4736290 117.1704784
  64.8707649  50.9662310 124.3590914  64.6268581  51.7204371 123.8225190
  65.1467579  51.3447658 125.1938161  66.8246111  57.5100923 123.0368180
  67.0363007  58.1532682 122.3602561  66.7775860  56.6763239 122.5690110
  64.4272340  50.1218743 119.9404752  63.5656819  50.4199997 120.2321489
  64.4534775  50.3389142 119.0085784  61.2433910  58.6660934 116.3478557
  61.7072255  58.9448637 115.5583180  60.9790708  57.7644378 116.1651648
  58.1357991  58.2132415 119.2858321  58.7059348  58.6419684 118.6475805
  58.7266103  57.9315000 119.9842506  60.1802796  54.7884086 113.1568123
  60.8826839  55.2405130 113.6242049  59.8483424  54.1467905 113.7848016
  58.6283157  53.3795843 127.5319332  57.9981818  54.0612124 127.7654729
  58.5219245  53.2678924 126.5872470  53.9228130  53.0467639 118.4585256
  53.1327184  53.3025167 117.9825367  54.4139377  53.8615977 118.5637297
  67.9391939  60.3872878 121.2090537  68.7609383  59.9853065 120.9273219
  67.9354342  60.2841112 122.1606653  55.8742875  53.4112218 115.4168733
  55.0774039  53.5230912 115.9352228  55.6468467  53.7498870 114.5509623
  61.7048543  59.9356921 123.3651247  61.7692975  60.3977329 124.2009419
  60.9959467  59.3054286 123.4933557  52.2065833  53.2998129 120.8900247
  52.4573871  54.1845139 121.1557823  52.7425381  53.1202731 120.1175339
  76.0297932  56.7311626 117.5575508  75.2761641  56.1619025 117.4019513
  76.1645474  56.6974291 118.5046143  61.4196561  61.6025029 113.2330228
  61.2842235  62.4476565 113.6615076  61.9606373  61.8044306 112.4696162
  57.9063900  47.6816609 129.8944583  57.5130846  47.1282807 130.5692227
  58.7230040  47.9927187 130.2851101  54.8725958  59.1200467 113.8058153
  55.3850478  59.9143717 113.9563718  55.5248671  58.4226757 113.7391754
  56.6820843  62.2366223 115.8880906  56.8587471  63.1584188 115.7001890
  57.4777676  61.9224642 116.3175286  60.8231861  49.0974488 127.4864840
  61.5641575  49.6981641 127.4069302  61.0549784  48.3552126 126.9282882
  55.9673199  54.2830855 125.7643069  55.8526714  53.3816112 126.0650168
  55.1117717  54.5294552 125.4127886  63.0465037  62.2248595 127.3630570
  62.6028891  61.4384974 127.0451474  63.7082250  62.4127746 126.6974461
  57.8052158  63.7544397 121.8891248  58.3559583  63.6261460 121.1168242
  56.9663634  64.0539286 121.5386141  65.1446275  62.5051395 125.3911971
  65.1264750  63.3260276 124.8992240  66.0666195  62.3805470 125.6162112
  61.6019329  60.0195525 126.2335479  62.1347666  59.2583813 126.0034787
  61.0733410  59.7269177 126.9759634  64.7689024  45.1255591 121.7629121
  64.4253293  46.0157232 121.6868232  65.1367987  44.9357248 120.8998706
  52.8374875  57.4489121 114.5817723  53.6750097  57.8586129 114.3651431
  53.0153142  56.5088563 114.5517917  64.7339307  55.1164202 110.2701556
  64.2185930  55.8868806 110.5089944  64.4616615  54.4429338 110.8934618
  62.3186418  49.9613903 115.3286795  61.4628014  49.5720753 115.1492433
  62.7313370  50.0405863 114.4686580  63.8485564  47.4960246 119.7278354
  63.3450360  47.4590381 118.9146160  64.1416171  48.4052989 119.7875011
  60.0928450  47.5798976 118.7344536  60.9581447  47.3841784 118.3750426
  60.1605959  47.3509327 119.6613893  69.7073581  57.8696556 112.2054730
  68.9303024  57.5307716 111.7609892  70.3865062  57.8749180 111.5309695
  64.5225610  52.9891294 112.0961338  64.2175746  53.3037443 112.9471481
  65.4756052  53.0672714 112.1388671  62.9672042  59.1481517 113.7454292
  62.4393403  58.4134277 113.4327529  62.4659545  59.9256194 113.4994260
  67.9464888  57.3430538 118.8621338  67.2888562  58.0329799 118.9501466
  68.7505287  57.7326970 119.2055324  57.6990769  49.8101183 116.1060903
  58.2734521  49.5876365 115.3734096  58.2861752  49.8789878 116.8589504
  66.7570347  55.6974910 116.9125280  67.2702228  56.3304902 117.4146989
  67.4071571  55.0976106 116.5468640  58.0260357  51.8405645 110.1256788
  57.1897669  52.1780331 110.4466063  57.8865126  51.7054624 109.1883925
  60.0013437  46.6842432 114.8335972  59.3477850  46.3691450 114.2092587
  59.9593911  46.0618173 115.5595795  63.2351178  53.1724366 119.1583620
  62.3173739  53.3939313 119.0005308  63.6511321  53.2470676 118.2995327
  64.0186225  54.5715782 114.2886300  64.7658044  55.0837179 113.9793422
  64.2877815  54.2499834 115.1490694  62.2912875  57.0674322 111.2713255
  61.3824095  56.7833355 111.3685724  62.3207959  57.4873401 110.4116561
  67.5232143  60.6780912 115.0404422  67.0694470  59.8371822 115.0969613
  66.8926110  61.3142310 115.3779202  66.4665062  51.6072898 116.2705090
  65.7287819  51.0950284 116.6015332  66.7191836  51.1673279 115.4588367
  65.9665082  62.5157409 115.9754240  66.2588056  63.0762466 115.2566606
  66.4763703  62.8085970 116.7307399  66.5676690  44.3849150 116.8646859
  66.8735567  43.5246513 116.5772774  67.2929295  44.9766770 116.6645853
  52.8601046  54.7879836 115.2528457  52.6625446  54.1949197 114.5279523
  52.3047710  54.4832047 115.9704396  60.8397769  54.6802943 117.3723050
  60.8946379  53.7276779 117.2965527  60.0288972  54.8362382 117.8564348
  61.9888963  58.6083066 108.6101333  61.5508393  57.8918925 108.1506971
  62.7299404  58.8359181 108.0486425  58.7790129  53.2980003 115.1313429
  57.9657995  53.5974173 115.5378621  59.2749124  52.9035691 115.8487911
  60.9298707  63.2937760 117.0647694  60.8874886  63.5198606 116.1356226
  61.8461406  63.0601134 117.2133495  64.3764341  53.7621827 123.9628323
  64.7313729  53.9893300 124.8222788  65.0236472  54.0940204 123.3405578
  70.1062078  56.8840263 114.6677652  69.9679977  57.0741859 113.7398841
  69.7498297  57.6459646 115.1245703  58.2704204  50.8698358 120.7474664
  58.9103583  50.7287117 120.0497627  57.4381735  50.5832872 120.3713266
  70.1331458  58.9516790 119.6788923  70.5667964  58.8592079 120.5271977
  70.8463038  58.9274291 119.0408939  59.0464508  60.1700789 116.8609656
  59.8405107  59.6751109 116.6592231  58.3356200  59.6418652 116.4977362
  63.8659353  62.5518884 121.2122024  63.9196375  63.1209820 121.9799740
  62.9974134  62.7220769 120.8476061  55.3547272  54.3143870 112.9369409
  54.4244860  54.2528326 113.1539371  55.4504744  53.7919823 112.1406050
  55.2732821  50.8398683 115.5247651  55.5339638  51.7544016 115.4156811
  56.0949993  50.3723126 115.6744263  56.7457746  52.2536440 122.6946475
  57.4180799  52.0453802 122.0459124  55.9187532  52.0558526 122.2551707
  70.9947007  58.9940491 122.2121809  71.1882897  59.8986301 122.4581084
  70.8947625  58.5347910 123.0460394  62.6483318  48.8798381 124.7112136
  62.0011233  49.5788331 124.6176612  63.4184333  49.3134525 125.0788384
  66.0562116  59.1447233 127.7862689  65.9047622  58.9157785 126.8692773
  66.0466795  60.1017835 127.7994034  62.8247452  56.7179146 122.7708956
  63.7539512  56.8690306 122.5977923  62.4038482  56.8063167 121.9157602
  61.6235784  60.7429811 120.5407493  61.4846870  60.3748595 121.4133431
  60.8350380  61.2577450 120.3691451  62.2183936  65.8438907 111.8833030
  62.3935692  65.3726950 112.6978653  61.5316724  66.4704673 112.1114291
  63.1740999  60.1211413 117.9296331  62.8390832  60.0812183 118.8253981
  62.6744945  59.4556129 117.4566741  57.1485243  55.5279043 123.4548912
  57.0105041  54.7959282 124.0560451  58.0590167  55.4387943 123.1733100
  66.1100191  57.4667448 108.2033391  65.4929362  56.7414276 108.1066443
  65.6416679  58.2276808 107.8600465  59.7767544  55.2399003 122.9432592
  60.4867162  54.5992195 122.9019210  59.7336852  55.4911898 123.8658773
  67.7654323  62.1766356 125.8639171  67.7066869  61.4925576 125.1969754
  68.1673841  62.9185346 125.4119797  58.4896478  52.2264221 124.7628231
  57.9533835  51.7754959 125.4149828  57.9013186  52.3610129 124.0198696
  56.7845021  68.9928270 118.6572890  57.0241620  69.6246794 119.3351909
  55.9414218  68.6416310 118.9438249  67.7671730  60.1405940 124.0953151
  66.8798509  59.8031862 124.2179550  68.3370281  59.4088971 124.3321916
  49.4200877  56.4730032 117.4196202  50.1071917  56.1591762 116.8317218
  49.2649006  57.3771396 117.1463454  54.2235599  51.3620228 121.8481226
  54.1393788  50.7545898 121.1131636  53.4018305  51.8529247 121.8490722
  61.2972883  64.8007392 121.0614394  61.2243055  65.6062364 121.5733699
  60.8550276  64.9999358 120.2362415  61.0862663  64.0379162 114.5717216
  60.3030185  64.5800842 114.6655440  61.7855408  64.5553142 114.9711457
  64.3959313  49.8473792 117.2151421  64.8928012  49.0943754 116.8952491
  63.6246294  49.8838108 116.6494630  72.2489070  55.5514157 118.8569712
  72.2378947  56.4338873 118.4863646  71.3806450  55.1985708 118.6624250
  63.7571567  64.6994226 123.2172553  64.4699539  65.3341691 123.1448454
  63.2661595  64.7958092 122.4012555  65.4789094  58.6045479 114.7889844
  64.5445372  58.7246941 114.6194549  65.6565762  57.7017946 114.5249854
  60.9794282  51.9891175 116.9423106  60.6092069  51.4362215 117.6304011
  61.4753374  51.3849308 116.3898106  68.8661645  54.4462798 115.3239879
  69.3322097  55.2790790 115.2500181  69.3169145  53.9807780 116.0285137
  58.8083480  62.4488670 124.0378124  59.5092940  63.0825153 124.1907518
  58.3378595  62.7903401 123.2773763  66.9337876  60.7906620 112.3226031
  67.2097720  60.6763214 113.2319905  66.0642375  60.3924104 112.2838204
  66.8378308  46.8143385 119.3630780  65.9241388  47.0447612 119.5312987
  67.2671409  46.8981829 120.2144812  66.6084766  55.0033277 121.8630674
  65.9556216  55.2509185 121.2083127  66.9865146  54.1897415 121.5293151
  63.5691940  65.0392970 115.9658844  63.7514335  64.2214626 116.4286596
  64.3924926  65.2560663 115.5283734  63.9034106  63.9661156 113.2273893
  64.4321872  63.4553610 112.6144055  64.1662325  63.6503686 114.0919426
  62.6572339  55.7453088 128.3496711  61.9812976  55.6447218 129.0199086
  63.4799973  55.5892302 128.8132708  54.4051198  61.9825025 120.9709226
  54.9904635  61.2368713 121.1037130  54.2076037  62.2928982 121.8545890
  57.2589854  65.0176272 115.9871669  56.5900229  65.5022400 115.5035709
  57.1202723  65.2645493 116.9015047  48.9968853  54.5530625 119.6913669
  49.0352953  54.0194216 120.4850787  48.4909146  54.0265831 119.0724647
  61.3995122  67.0520016 122.5854327  61.9513430  67.2151637 123.3503412
  61.7401316  67.6424454 121.9134352  56.3759615  49.3995166 123.1876212
  56.4400942  50.2609996 122.7753609  56.3126736  48.7869167 122.4548570
  55.8511888  51.4718298 126.8349246  56.4783927  51.0895375 127.4486770
  54.9939807  51.2532500 127.2004938  66.2505996  61.8781273 128.4402981
  66.7945900  62.4911232 127.9457936  65.6692841  62.4360852 128.9569994
  52.6277431  53.2794727 112.7667601  52.9230872  52.3705406 112.7134654
  51.7265466  53.2582467 112.4448603  64.5363509  65.0001991 119.5718009
  64.4114649  64.1991731 119.0628955  65.1942601  65.4948185 119.0831979
  56.1571678  51.3550724 118.7495149  55.4358263  51.9686691 118.6102623
  56.9464933  51.8908489 118.6711795  66.5998418  62.8011011 121.1997559
  65.6528753  62.6816363 121.1275886  66.9481191  61.9133509 121.2823821
  58.9597991  48.6905150 125.0235801  59.4832393  48.9367447 125.7862110
  58.7410324  49.5225185 124.6038938  54.3565272  50.9608825 112.8906926
  54.0277978  50.0806204 112.7082032  54.7104643  50.9056494 113.7783315
  63.6044851  62.5963728 117.4001911  63.4569814  61.6680435 117.5809481
  64.4298345  62.6183818 116.9158987  57.4707095  51.2481795 113.2582404
  57.8103168  51.7767716 112.5361012  57.9179216  51.5862201 114.0340970
  67.2078973  63.4192286 118.4866784  68.1325520  63.2135148 118.3491235
  67.0394276  63.1708687 119.3956126  60.1650536  49.6318845 122.7085472
  59.8247357  48.8326658 123.1106152  59.4589542  49.9320556 122.1362305
  60.8167008  46.7168158 121.1612795  61.6393077  46.2428636 121.0391685
  61.0605072  47.4958642 121.6611481  59.4575243  49.7456416 111.4575696
  60.1783605  50.1237669 110.9539413  58.8340547  50.4645293 111.5610674
  63.6006365  50.4501565 112.3934029  63.8169980  51.3326203 112.0922857
  63.1200433  50.0587779 111.6639671  58.3405587  53.4087278 118.9704773
  58.1950167  53.7227581 119.8629055  57.8630790  54.0272179 118.4175672
  60.2001970  50.3989826 119.0185663  60.1863538  49.5030920 118.6817961
  60.9174398  50.4060490 119.6523949  62.0528100  50.8327167 121.0638790
  61.7945878  51.7544237 121.0623121  61.5213141  50.4357601 121.7539254
  66.9974289  63.9377954 113.8428876  67.1711167  63.3724376 113.0902728
  67.4903180  64.7378849 113.6608366  52.8151249  55.9492623 121.9092434
  52.2704717  56.7252431 122.0412709  53.6930599  56.2963427 121.7511556
  59.6038866  49.2804207 114.2873233  59.7254777  48.3520853 114.4864120
  59.3140908  49.2942893 113.3751548  62.4730056  46.9659117 117.4239953
  62.4951753  47.0298450 116.4691932  62.8898115  46.1263626 117.6180459
  72.8513680  56.7014377 115.4619175  73.2944826  55.9521702 115.0638299
  71.9740191  56.6924513 115.0792907  67.9849462  63.2544718 110.9425774
  68.6800366  63.8751411 111.1613089  68.3272612  62.4040069 111.2178152
  53.6017271  55.0762519 124.8022591  52.8599007  55.2245154 125.3887222
  53.2810015  55.3370785 123.9389341  69.8840885  60.7044424 112.4713105
  70.4092209  61.0431696 111.7462425  69.7963237  59.7691439 112.2876239
  61.5460933  64.6178497 124.6002981  61.8548060  64.3727644 125.4725681
  62.3436415  64.8225136 124.1121852  61.5681545  66.7716407 116.8308358
  61.1286536  66.2792786 117.5241215  62.3189662  66.2289375 116.5900433
  54.0473884  62.9627948 116.8332986  54.8731904  62.6631720 116.4531629
  53.6967936  62.1935570 117.2822775  59.0155418  62.3154416 118.9030660
  58.3935427  61.6525121 118.6032887  59.6860285  62.3415548 118.2204307
  52.2482490  60.8814274 117.7921920  51.4114398  60.4536449 117.6105921
  52.2206135  61.0746718 118.7292711  59.0879945  50.7936204 128.4963166
  59.1368101  51.6698327 128.1140935  59.6302459  50.2513597 127.9234809
  69.5734791  61.3377327 127.7764303  68.7830335  61.3201466 127.2368802
  69.3368145  61.8765621 128.5313339  69.6932666  58.1869794 125.0897031
  69.7430671  58.0219801 126.0312554  69.5846589  57.3197053 124.6994912
  58.5768925  60.8658339 112.3789120  58.7257045  61.5493804 111.7255793
  59.3835368  60.8463429 112.8938576  66.9836428  54.1700722 126.4056338
  67.8846291  54.0307187 126.1140336  67.0584403  54.3355177 127.3454515
  61.3179234  51.5467576 125.2509524  60.4482543  51.8401143 124.9792113
  61.5538714  52.1308021 125.9716788  71.1950863  60.6066735 125.3339053
  70.9035671  60.9696716 126.1702514  70.5822994  59.8933743 125.1552385
  72.3946545  58.1719615 117.8541623  73.2293436  58.6109419 118.0179183
  72.5305674  57.6958268 117.0349869  69.4438051  55.7299350 123.8019111
  69.9192173  55.9226996 122.9937962  68.5203616  55.7858536 123.5562494
  56.3321558  56.8923517 113.3850189  56.0867599  55.9885847 113.5830399
  56.5017472  56.8940667 112.4429667  64.0218267  47.7647193 122.7674945
  64.5400211  48.5008220 122.4421433  63.6673400  48.0711187 123.6021704
  55.6017205  52.6251875 110.8836350  54.9086450  52.6996230 110.2276386
  55.3568957  51.8612218 111.4057867  64.2730862  44.1847476 118.2875841
  64.5532615  43.5170665 118.9136268  65.0581469  44.3776572 117.7750505
  62.0764330  63.3606470 109.8500868  61.5038297  63.9796657 109.3971339
  62.6497124  63.9105832 110.3840789  68.1439720  52.6065110 122.0347416
  69.0957143  52.7063208 122.0559640  67.9743170  51.8143378 122.5445501
  66.1654099  49.6920693 122.2206817  65.5704032  49.9725706 121.5253306
  65.8803796  50.1814594 122.9923558  65.2961590  63.6443620 110.9809450
  66.2292263  63.5789182 111.1842325  65.2084803  64.4799887 110.5223982
  70.6227798  55.8271230 121.1489716  70.5904118  54.8887230 121.3349400
  71.2328421  55.9055266 120.4155541  70.7722286  52.6182273 121.1947999
  70.2561335  51.8340730 121.0077928  71.6562235  52.2900990 121.3594519
  68.4333013  46.3623289 117.1543812  68.2357834  46.0538377 118.0387144
  69.0432719  47.0884928 117.2841742  76.4404348  56.8887236 120.2895753
  77.1707736  56.6272525 120.8503456  75.8311293  56.1515958 120.3297821
  74.5219645  55.0295099 120.8870204  73.7952808  54.8951064 120.2786696
  74.1066932  55.3371928 121.6926922  62.3449821  58.7485029 128.6517577
  63.2652831  58.9263628 128.8457623  62.3099404  57.8041074 128.4997276
  51.5631986  53.9423622 117.5770852  51.2434770  53.0888931 117.2845226
  51.0165414  54.1572201 118.3328819  55.3411894  56.6586063 121.2940358
  55.5597903  57.5903171 121.3128392  55.7537667  56.2994038 122.0795162
  62.2616111  47.1654149 113.2816047  61.4516840  46.8201234 113.6571293
  62.9500528  46.8561692 113.8703658  64.1906660  46.2432196 114.9040343
  64.7437698  46.6627649 115.5630366  64.4276746  45.3167944 114.9463299
  60.2139759  52.2319269 130.6843107  60.1136486  53.1813626 130.6155198
  59.9961301  51.9037508 129.8119177  51.4320246  57.5626534 119.5463973
  50.7383718  57.1480487 119.0333928  52.1793237  57.6047070 118.9497392
  67.5685467  48.3532721 114.4119007  66.9884136  49.0117525 114.0297060
  67.3021400  47.5310065 114.0006425  66.0189033  47.7537778 116.6140328
  66.5188812  47.8654313 115.8054647  66.6624641  47.4498831 117.2541136
  60.0771029  55.6616408 129.5008169  59.5938111  56.4616768 129.7072058
  60.1631968  55.6724353 128.5475613  53.3456989  57.4944788 117.4229988
  53.3227677  57.5932475 116.4711871  53.6557625  58.3409938 117.7447154
  56.0044367  59.5520943 121.5376603  56.9587620  59.5204885 121.4706534
  55.8056890  59.0911566 122.3526828  56.5943749  58.1222059 124.1047400
  57.4136638  58.6166137 124.1282237  56.8680556  57.2054027 124.0764968
  66.3510345  50.5132811 113.4675356  65.4636200  50.7982462 113.2495550
  66.7664334  50.3526574 112.6202633  69.7024881  50.5379332 117.1829695
  70.4785271  51.0275784 117.4554312  68.9773015  50.9637386 117.6401564
  72.1397440  51.2506951 118.2403636  72.7341930  51.0102687 117.5296944
  72.2124023  50.5314082 118.8677172  54.3594595  65.0940562 118.5546800
  54.2249063  64.3340963 117.9884798  53.9426658  65.8181462 118.0875589
  65.4953558  60.2777486 107.5623376  66.1989408  60.4827488 108.1781031
  64.7716207  60.8454248 107.8272459  66.3251369  56.0287347 113.6825646
  66.2686570  56.4855898 112.8433278  66.8779711  55.2678032 113.5048489
  70.1356175  51.8177079 114.5075765  69.8793109  51.4173715 115.3383973
  69.5109043  52.5320873 114.3825904  74.4468512  54.5573152 117.0147057
  73.8868070  54.6266341 117.7878619  73.8412016  54.3814137 116.2946553
  57.5163721  65.9909879 118.7665243  57.3996105  66.9355312 118.6643933
  56.6956167  65.6883441 119.1551042  67.4040256  60.7160015 109.6121836
  68.2385860  60.2841213 109.4299311  67.2424599  60.5442029 110.5398730
  67.0586148  57.2192128 110.9778175  67.0034952  57.0536400 110.0366619
  66.4332203  57.9268161 111.1340365  51.8478663  52.4560193 124.8039597
  52.4937526  51.9459147 125.2926822  51.6395814  53.1928874 125.3783022
  64.3732055  59.5241040 130.3031738  65.2423215  59.6981692 129.9418373
  63.8938807  60.3435457 130.1807467  60.3682273  46.7200237 110.5563493
  60.3560943  47.6642077 110.7131764  61.2605695  46.5370383 110.2622955
  58.5418235  66.6438141 121.9821171  59.4445482  66.6761751 122.2987666
  58.3155605  65.7138592 121.9967507  60.2971837  65.3969128 118.6431250
  59.3467468  65.3970989 118.5295622  60.6004323  64.6501862 118.1267285
  64.1834393  43.3143014 114.8109430  63.4166789  42.7601501 114.9566113
  64.5945098  43.3864883 115.6723582  56.1876154  49.6027810 128.9014611
  57.0507615  49.2464615 129.1117936  55.6141565  49.2641704 129.5890016
  76.0324531  71.2329666 119.7077012  76.6702941  71.1136413 119.0040353
  75.9145374  72.1810510 119.7664965  72.8414237  71.1857094 119.6438537
  72.5032749  71.0698159 118.7559072  73.7104005  70.7848259 119.6239543
  68.7001053  73.0392571 115.6335428  68.1365918  72.9482507 114.8651716
  68.5853448  72.2192475 116.1137921  73.3234020  72.3391946 125.6024743
  73.3122661  71.9444744 124.7305246  73.4854660  71.6058018 126.1958514
  66.2465485  74.5343762 118.4719649  67.0386777  74.1934587 118.0565948
  66.4862135  74.6438737 119.3921802  74.2800612  76.7063538 110.9449893
  73.6288591  77.2917619 110.5583907  75.0744974  77.2369733 111.0044930
  68.2056239  73.7952675 111.3437027  68.9787115  73.2481662 111.2049903
  68.5581638  74.6596925 111.5551489  70.0441281  75.1229058 124.5503927
  69.7531147  76.0274688 124.4350593  70.6798266  75.1645585 125.2647996
  70.9697488  72.5005906 121.1405286  71.5661060  72.2761929 120.4262249
  71.0272460  71.7590652 121.7430734  70.5422516  69.9545342 108.9755477
  70.7948037  69.4326863 108.2138940  69.6047076  69.7911487 109.0782161
  75.5865799  68.9581120 116.7830221  76.3728889  68.5400543 116.4320638
  75.8504504  69.8627212 116.9511869  75.7575877  74.3953970 111.4818877
  75.1221710  74.4688597 112.1939782  75.4273283  74.9847569 110.8037957
  80.9874226  68.8956353 117.6863199  81.7199398  68.3255570 117.9201029
  80.2313582  68.5077954 118.1269705  70.2618805  71.8573447 111.1779852
  70.1455063  71.1818351 111.8460937  70.3721065  71.3705821 110.3612005
  72.6050346  71.3183595 114.8826541  72.2408553  70.7914216 115.5939463
  73.4617462  70.9282064 114.7093027  78.5099647  62.6077927 122.1457808
  78.1782972  63.4773338 121.9219023  77.9145260  62.2914211 122.8251838
  72.2455833  66.3473494 109.8787890  72.4130235  67.2153731 110.2458361
  72.0553002  66.5100776 108.9549179  75.0031166  74.8090473 121.5453720
  74.7031889  75.7115512 121.4369528  74.6582226  74.5422656 122.3974873
  68.4543648  71.2604270 117.5790425  67.5294144  71.1280484 117.7868117
  68.7028061  72.0398489 118.0760367  78.4028310  67.3273013 119.2251158
  77.4945187  67.2588422 118.9309919  78.3515906  67.8044958 120.0532983
  72.2245054  68.8031152 110.8634557  72.1044679  69.2488203 111.7020037
  71.5297642  69.1516469 110.3048095  65.8152459  70.9037544 118.4134214
  65.9444840  71.1572022 119.3273626  65.1349910  71.4965252 118.0938869
  69.9851946  81.5734794 114.5124688  69.9075976  82.5242619 114.5913169
  69.3813590  81.2280666 115.1699614  72.4769176  68.7462659 127.1686055
  71.7002510  69.3056579 127.1588920  73.1159739  69.2319442 127.6900925
  80.2689957  65.5289452 121.0029032  79.6264337  65.8221985 120.3568826
  79.7644885  65.4142372 121.8082228  77.9230120  69.2752625 111.6914891
  78.8347976  69.5080012 111.5162588  77.4139767  69.8589669 111.1289969
  70.7315548  71.5548112 126.7304022  71.4730233  72.0933156 126.4538846
  70.0252534  72.1814401 126.8875574  76.2070888  73.6977253 125.3276183
  76.6154244  73.2559663 124.5830816  75.4848149  73.1229880 125.5810376
  72.5601958  68.6349860 122.7009740  73.4063153  69.0589273 122.8444389
  72.5000596  67.9783484 123.3948303  76.5299702  74.2578443 119.0828472
  75.9008565  74.4224158 118.3804540  76.1425365  74.6720053 119.8539436
  80.4088934  75.1932881 116.4372836  79.7239973  75.5731783 115.8869869
  80.4932784  75.8028208 117.1704784  75.7101403  66.2954228 124.3590914
  75.4662335  67.0496288 123.8225190  75.9861334  66.6739576 125.1938161
  77.6639866  72.8392840 123.0368180  77.8756761  73.4824600 122.3602561
  77.6169614  72.0055157 122.5690110  75.2666095  65.4510661 119.9404752
  74.4050574  65.7491914 120.2321489  75.2928530  65.6681060 119.0085784
  72.0827664  73.9952851 116.3478557  72.5466010  74.2740554 115.5583180
  71.8184462  73.0936296 116.1651648  68.9751745  73.5424333 119.2858321
  69.5453102  73.9711601 118.6475805  69.5659857  73.2606918 119.9842506
  71.0196550  70.1176004 113.1568123  71.7220594  70.5697048 113.6242049
  70.6877179  69.4759823 113.7848016  69.4676912  68.7087760 127.5319332
  68.8375573  69.3904041 127.7654729  69.3613000  68.5970842 126.5872470
  64.7621884  68.3759557 118.4585256  63.9720938  68.6317085 117.9825367
  65.2533132  69.1907894 118.5637297  78.7785694  75.7164796 121.2090537
  79.6003138  75.3144983 120.9273219  78.7748097  75.6133030 122.1606653
  66.7136630  68.7404136 115.4168733  65.9167793  68.8522830 115.9352228
  66.4862222  69.0790788 114.5509623  72.5442297  75.2648839 123.3651247
  72.6086730  75.7269246 124.2009419  71.8353221  74.6346204 123.4933557
  63.0459587  68.6290047 120.8900247  63.2967626  69.5137057 121.1557823
  63.5819136  68.4494648 120.1175339  86.8691687  72.0603544 117.5575508
  86.1155395  71.4910942 117.4019513  87.0039228  72.0266209 118.5046143
  72.2590315  76.9316946 113.2330228  72.1235990  77.7768482 113.6615076
  72.8000128  77.1336224 112.4696162  68.7457655  63.0108526 129.8944583
  68.3524600  62.4574725 130.5692227  69.5623795  63.3219105 130.2851101
  65.7119712  74.4492385 113.8058153  66.2244233  75.2435635 113.9563718
  66.3642425  73.7518675 113.7391754  67.5214597  77.5658141 115.8880906
  67.6981225  78.4876105 115.7001890  68.3171431  77.2516560 116.3175286
  71.6625616  64.4266405 127.4864840  72.4035329  65.0273559 127.4069302
  71.8943538  63.6844043 126.9282882  66.8066954  69.6122773 125.7643069
  66.6920469  68.7108030 126.0650168  65.9511471  69.8586469 125.4127886
  73.8858791  77.5540513 127.3630570  73.4422646  76.7676892 127.0451474
  74.5476005  77.7419663 126.6974461  68.6445913  79.0836315 121.8891248
  69.1953338  78.9553378 121.1168242  67.8057388  79.3831204 121.5386141
  75.9840029  77.8343313 125.3911971  75.9658505  78.6552194 124.8992240
  76.9059950  77.7097388 125.6162112  72.4413084  75.3487442 126.2335479
  72.9741420  74.5875731 126.0034787  71.9127165  75.0561094 126.9759634
  75.6082779  60.4547508 121.7629121  75.2647048  61.3449150 121.6868232
  75.9761741  60.2649166 120.8998706  63.6768629  72.7781039 114.5817723
  64.5143851  73.1878047 114.3651431  63.8546897  71.8380481 114.5517917
  75.5733061  70.4456119 110.2701556  75.0579685  71.2160724 110.5089944
  75.3010370  69.7721256 110.8934618  73.1580172  65.2905820 115.3286795
  72.3021769  64.9012671 115.1492433  73.5707124  65.3697781 114.4686580
  74.6879319  62.8252164 119.7278354  74.1844115  62.7882299 118.9146160
  74.9809926  63.7344906 119.7875011  70.9322205  62.9090893 118.7344536
  71.7975202  62.7133702 118.3750426  70.9999714  62.6801245 119.6613893
  80.5467335  73.1988474 112.2054730  79.7696778  72.8599634 111.7609892
  81.2258816  73.2041097 111.5309695  75.3619364  68.3183212 112.0961338
  75.0569500  68.6329361 112.9471481  76.3149807  68.3964631 112.1388671
  73.8065796  74.4773435 113.7454292  73.2787158  73.7426194 113.4327529
  73.3053299  75.2548111 113.4994260  78.7858642  72.6722455 118.8621338
  78.1282317  73.3621717 118.9501466  79.5899042  73.0618887 119.2055324
  68.5384524  65.1393101 116.1060903  69.1128276  64.9168283 115.3734096
  69.1255506  65.2081796 116.8589504  77.5964101  71.0266828 116.9125280
  78.1095983  71.6596820 117.4146989  78.2465325  70.4268024 116.5468640
  70.8407192  62.0134350 114.8335972  70.1871604  61.6983367 114.2092587
  70.7987666  61.3910091 115.5595795  71.9518397  72.2953645 106.7489265
  71.0445458  72.0642899 106.9480414  72.4489428  71.4991264 106.9363246
  74.8586475  81.0051152 109.6685951  74.1848174  81.3082849 110.2770909
  75.2452297  81.8080233 109.3191408  74.0744932  68.5016284 119.1583620
  73.1567493  68.7231231 119.0005308  74.4905076  68.5762594 118.2995327
  74.8579980  69.9007699 114.2886300  75.6051799  70.4129096 113.9793422
  75.1271569  69.5791752 115.1490694  73.1306630  72.3966240 111.2713255
  72.2217849  72.1125273 111.3685724  73.1601714  72.8165319 110.4116561
  78.3625897  76.0072830 115.0404422  77.9088224  75.1663739 115.0969613
  77.7319864  76.6434228 115.3779202  77.3058817  66.9364816 116.2705090
  76.5681574  66.4242202 116.6015332  77.5585590  66.4965197 115.4588367
  76.8058837  77.8449326 115.9754240  77.0981811  78.4054383 115.2566606
  77.3157457  78.1377887 116.7307399  77.4070444  59.7141068 116.8646859
  77.7129321  58.8538431 116.5772774  78.1323049  60.3058688 116.6645853
  63.6994800  70.1171754 115.2528457  63.5019200  69.5241115 114.5279523
  63.1441464  69.8123964 115.9704396  71.6791524  70.0094861 117.3723050
  71.7340134  69.0568697 117.2965527  70.8682726  70.1654300 117.8564348
  72.8282718  73.9374984 108.6101333  72.3902148  73.2210843 108.1506971
  73.5693159  74.1651098 108.0486425  69.6183884  68.6271920 115.1313429
  68.8051749  68.9266091 115.5378621  70.1142878  68.2327609 115.8487911
  71.7692462  78.6229677 117.0647694  71.7268641  78.8490524 116.1356226
  72.6855161  78.3893052 117.2133495  75.2158096  69.0913745 123.9628323
  75.5707483  69.3185218 124.8222788  75.8630227  69.4232122 123.3405578
  80.9455833  72.2132181 114.6677652  80.8073731  72.4033777 113.7398841
  80.5892051  72.9751564 115.1245703  69.1097959  66.1990276 120.7474664
  69.7497338  66.0579035 120.0497627  68.2775489  65.9124789 120.3713266
  80.9725212  74.2808708 119.6788923  81.4061719  74.1883997 120.5271977
  81.6856793  74.2566208 119.0408939  69.8858263  75.4992706 116.8609656
  70.6798861  75.0043026 116.6592231  69.1749955  74.9710569 116.4977362
  74.7053107  77.8810802 121.2122024  74.7590129  78.4501738 121.9799740
  73.8367888  78.0512687 120.8476061  66.1941026  69.6435788 112.9369409
  65.2638614  69.5820244 113.1539371  66.2898498  69.1211741 112.1406050
  66.1126575  66.1690601 115.5247651  66.3733392  67.0835934 115.4156811
  66.9343747  65.7015043 115.6744263  67.5851500  67.5828358 122.6946475
  68.2574554  67.3745720 122.0459124  66.7581287  67.3850444 122.2551707
  81.8340762  74.3232408 122.2121809  82.0276652  75.2278219 122.4581084
  81.7341380  73.8639827 123.0460394  73.4877072  64.2090299 124.7112136
  72.8404987  64.9080249 124.6176612  74.2578088  64.6426443 125.0788384
  76.8955870  74.4739151 127.7862689  76.7441377  74.2449703 126.8692773
  76.8860550  75.4309753 127.7994034  73.6641207  72.0471064 122.7708956
  74.5933267  72.1982223 122.5977923  73.2432237  72.1355085 121.9157602
  72.4629539  76.0721728 120.5407493  72.3240624  75.7040513 121.4133431
  71.6744135  76.5869368 120.3691451  73.0577691  81.1730825 111.8833030
  73.2329446  80.7018868 112.6978653  72.3710479  81.7996591 112.1114291
  74.0134754  75.4503331 117.9296331  73.6784586  75.4104101 118.8253981
  73.5138699  74.7848047 117.4566741  67.9878998  70.8570961 123.4548912
  67.8498796  70.1251200 124.0560451  68.8983921  70.7679861 123.1733100
  76.9493945  72.7959365 108.2033391  76.3323116  72.0706193 108.1066443
  76.4810434  73.5568726 107.8600465  70.6161298  70.5690920 122.9432592
  71.3260917  69.9284113 122.9019210  70.5730607  70.8203815 123.8658773
  78.6048077  77.5058274 125.8639171  78.5460623  76.8217494 125.1969754
  79.0067595  78.2477264 125.4119797  69.3290232  67.5556138 124.7628231
  68.7927589  67.1046877 125.4149828  68.7406941  67.6902047 124.0198696
  67.6238776  84.3220188 118.6572890  67.8635374  84.9538712 119.3351909
  66.7807972  83.9708228 118.9438249  78.6065484  75.4697858 124.0953151
  77.7192263  75.1323779 124.2179550  79.1764035  74.7380889 124.3321916
  60.2594631  71.8021949 117.4196202  60.9465671  71.4883679 116.8317218
  60.1042760  72.7063314 117.1463454  65.0629354  66.6912146 121.8481226
  64.9787542  66.0837815 121.1131636  64.2412060  67.1821164 121.8490722
  72.1366638  80.1299310 121.0614394  72.0636809  80.9354281 121.5733699
  71.6944031  80.3291276 120.2362415  71.9256417  79.3671080 114.5717216
  71.1423939  79.9092760 114.6655440  72.6249162  79.8845060 114.9711457
  75.2353067  65.1765709 117.2151421  75.7321767  64.4235672 116.8952491
  74.4640049  65.2130026 116.6494630  83.0882825  70.8806075 118.8569712
  83.0772701  71.7630790 118.4863646  82.2200204  70.5277626 118.6624250
  74.5965321  80.0286144 123.2172553  75.3093293  80.6633609 123.1448454
  74.1055350  80.1250010 122.4012555  76.3182848  73.9337397 114.7889844
  75.3839127  74.0538859 114.6194549  76.4959517  73.0309863 114.5249854
  71.8188036  67.3183092 116.9423106  71.4485824  66.7654133 117.6304011
  72.3147129  66.7141226 116.3898106  79.7055399  69.7754716 115.3239879
  80.1715852  70.6082708 115.2500181  80.1562900  69.3099698 116.0285137
  69.6477235  77.7780587 124.0378124  70.3486694  78.4117070 124.1907518
  69.1772350  78.1195319 123.2773763  77.7731631  76.1198537 112.3226031
  78.0491474  76.0055132 113.2319905  76.9036129  75.7216022 112.2838204
  77.6772062  62.1435303 119.3630780  76.7635142  62.3739530 119.5312987
  78.1065164  62.2273747 120.2144812  77.4478521  70.3325195 121.8630674
  76.7949971  70.5801102 121.2083127  77.8258901  69.5189333 121.5293151
  74.4085695  80.3684888 115.9658844  74.5908089  79.5506544 116.4286596
  75.2318681  80.5852580 115.5283734  74.7427860  79.2953073 113.2273893
  75.2715627  78.7845528 112.6144055  75.0056080  78.9795603 114.0919426
  73.4966094  71.0745006 128.3496711  72.8206731  70.9739135 129.0199086
  74.3193728  70.9184220 128.8132708  65.2444953  77.3116942 120.9709226
  65.8298390  76.5660630 121.1037130  65.0469791  77.6220899 121.8545890
  68.0983608  80.3468190 115.9871669  67.4293983  80.8314318 115.5035709
  67.9596478  80.5937410 116.9015047  59.8362608  69.8822543 119.6913669
  59.8746707  69.3486133 120.4850787  59.3302900  69.3557748 119.0724647
  72.2388877  82.3811933 122.5854327  72.7907185  82.5443555 123.3503412
  72.5795070  82.9716371 121.9134352  67.2153370  64.7287083 123.1876212
  67.2794696  65.5901914 122.7753609  67.1520490  64.1161085 122.4548570
  66.6905642  66.8010216 126.8349246  67.3177681  66.4187293 127.4486770
  65.8333561  66.5824418 127.2004938  77.0899751  77.2073191 128.4402981
  77.6339655  77.8203149 127.9457936  76.5086596  77.7652769 128.9569994
  63.4671185  68.6086645 112.7667601  63.7624626  67.6997323 112.7134654
  62.5659221  68.5874384 112.4448603  75.3757264  80.3293909 119.5718009
  75.2508403  79.5283649 119.0628955  76.0336355  80.8240102 119.0831979
  66.9965432  66.6842641 118.7495149  66.2752018  67.2978609 118.6102623
  67.7858688  67.2200406 118.6711795  77.4392172  78.1302929 121.1997559
  76.4922508  78.0108280 121.1275886  77.7874945  77.2425427 121.2823821
  69.7991746  64.0197068 125.0235801  70.3226147  64.2659364 125.7862110
  69.5804079  64.8517103 124.6038938  65.1959027  66.2900743 112.8906926
  64.8671733  65.4098121 112.7082032  65.5498397  66.2348411 113.7783315
  74.4438606  77.9255645 117.4001911  74.2963568  76.9972353 117.5809481
  75.2692099  77.9475736 116.9158987  68.3100850  66.5773712 113.2582404
  68.6496922  67.1059634 112.5361012  68.7572970  66.9154118 114.0340970
  78.0472727  78.7484204 118.4866784  78.9719275  78.5427065 118.3491235
  77.8788031  78.5000605 119.3956126  71.0044291  64.9610763 122.7085472
  70.6641111  64.1618576 123.1106152  70.2983297  65.2612474 122.1362305
  71.6560763  62.0460075 121.1612795  72.4786832  61.5720554 121.0391685
  71.8998826  62.8250559 121.6611481  70.2968997  65.0748334 111.4575696
  71.0177359  65.4529587 110.9539413  69.6734301  65.7937211 111.5610674
  74.4400120  65.7793483 112.3934029  74.6563734  66.6618121 112.0922857
  73.9594187  65.3879696 111.6639671  69.1799341  68.7379196 118.9704773
  69.0343922  69.0519499 119.8629055  68.7024545  69.3564096 118.4175672
  71.0395724  65.7281744 119.0185663  71.0257293  64.8322837 118.6817961
  71.7568152  65.7352408 119.6523949  72.8921855  66.1619084 121.0638790
  72.6339633  67.0836155 121.0623121  72.3606895  65.7649519 121.7539254
  77.8368044  79.2669871 113.8428876  78.0104921  78.7016294 113.0902728
  78.3296935  80.0670766 113.6608366  63.6545003  71.2784540 121.9092434
  63.1098471  72.0544348 122.0412709  64.5324353  71.6255345 121.7511556
  70.4432620  64.6096124 114.2873233  70.5648531  63.6812771 114.4864120
  70.1534662  64.6234810 113.3751548  73.3123810  62.2951035 117.4239953
  73.3345507  62.3590368 116.4691932  73.7291869  61.4555543 117.6180459
  83.6907435  72.0306294 115.4619175  84.1338581  71.2813620 115.0638299
  82.8133945  72.0216431 115.0792907  78.8243216  78.5836636 110.9425774
  79.5194121  79.2043328 111.1613089  79.1666366  77.7331987 111.2178152
  64.4411025  70.4054437 124.8022591  63.6992761  70.5537072 125.3887222
  64.1203770  70.6662702 123.9389341  80.7234639  76.0336341 112.4713105
  81.2485963  76.3723614 111.7462425  80.6356992  75.0983357 112.2876239
  72.3854688  79.9470415 124.6002981  72.6941814  79.7019562 125.4725681
  73.1830170  80.1517053 124.1121852  72.4075300  82.1008325 116.8308358
  71.9680290  81.6084703 117.5241215  73.1583417  81.5581292 116.5900433
  64.8867639  78.2919865 116.8332986  65.7125659  77.9923637 116.4531629
  64.5361691  77.5227488 117.2822775  69.8549172  77.6446334 118.9030660
  69.2329181  76.9817039 118.6032887  70.5254039  77.6707466 118.2204307
  63.0876244  76.2106192 117.7921920  62.2508152  75.7828366 117.6105921
  63.0599889  76.4038635 118.7292711  69.9273700  66.1228122 128.4963166
  69.9761855  66.9990245 128.1140935  70.4696214  65.5805515 127.9234809
  80.4128545  76.6669245 127.7764303  79.6224089  76.6493384 127.2368802
  80.1761900  77.2057539 128.5313339  80.5326420  73.5161711 125.0897031
  80.5824425  73.3511719 126.0312554  80.4240344  72.6488970 124.6994912
  69.4162679  76.1950257 112.3789120  69.5650799  76.8785721 111.7255793
  70.2229122  76.1755347 112.8938576  77.8230183  69.4992639 126.4056338
  78.7240045  69.3599104 126.1140336  77.8978157  69.6647094 127.3454515
  72.1572988  66.8759494 125.2509524  71.2876297  67.1693060 124.9792113
  72.3932468  67.4599939 125.9716788  82.0344617  75.9358653 125.3339053
  81.7429425  76.2988633 126.1702514  81.4216748  75.2225661 125.1552385
  83.2340299  73.5011533 117.8541623  84.0687191  73.9401337 118.0179183
  83.3699428  73.0250186 117.0349869  80.2831805  71.0591268 123.8019111
  80.7585927  71.2518914 122.9937962  79.3597371  71.1150453 123.5562494
  67.1715312  72.2215435 113.3850189  66.9261354  71.3177765 113.5830399
  67.3411227  72.2232585 112.4429667  74.8612022  63.0939111 122.7674945
  75.3793966  63.8300138 122.4421433  74.5067155  63.4003104 123.6021704
  75.1124616  59.5139394 118.2875841  75.3926370  58.8462583 118.9136268
  75.8975223  59.7068489 117.7750505  72.9158085  78.6898387 109.8500868
  72.3432052  79.3088575 109.3971339  73.4890878  79.2397749 110.3840789
  78.9833474  67.9357028 122.0347416  79.9350897  68.0355125 122.0559640
  78.8136925  67.1435296 122.5445501  77.0047854  65.0212611 122.2206817
  76.4097786  65.3017624 121.5253306  76.7197551  65.5106512 122.9923558
  76.1355344  78.9735538 110.9809450  77.0686018  78.9081099 111.1842325
  76.0478557  79.8091804 110.5223982  78.7643361  78.2901408 107.9413397
  78.6856993  77.9561272 108.8349155  79.5853028  78.7823176 107.9404870
  81.4621552  71.1563147 121.1489716  81.4297872  70.2179148 121.3349400
  82.0722176  71.2347184 120.4155541  73.3004883  70.0259200 107.1916920
  74.2463988  69.8965408 107.2605338  72.9219128  69.2873862 107.6686348
  81.6116041  67.9474191 121.1947999  81.0955089  67.1632647 121.0077928
  82.4955989  67.6192907 121.3594519  79.2726768  61.6915206 117.1543812
  79.0751589  61.3830294 118.0387144  79.8826473  62.4176845 117.2841742
  87.2798102  72.2179154 120.2895753  88.0101491  71.9564442 120.8503456
  86.6705048  71.4807876 120.3297821  85.3613399  70.3587017 120.8870204
  84.6346563  70.2242982 120.2786696  84.9460686  70.6663845 121.6926922
  73.1843576  74.0776946 128.6517577  74.1046585  74.2555545 128.8457623
  73.1493159  73.1332992 128.4997276  71.4847800  67.9509177 107.1271805
  70.5779256  67.6542289 107.2034519  71.7623781  67.6538995 106.2606091
  62.4025741  69.2715540 117.5770852  62.0828525  68.4180848 117.2845226
  61.8559169  69.4864118 118.3328819  66.1805648  71.9877981 121.2940358
  66.3991658  72.9195089 121.3128392  66.5931422  71.6285955 122.0795162
  73.1009866  62.4946066 113.2816047  72.2910594  62.1493151 113.6571293
  73.7894283  62.1853610 113.8703658  75.0300414  61.5724113 114.9040343
  75.5831453  61.9919567 115.5630366  75.2670501  60.6459861 114.9463299
  71.0533513  67.5611187 130.6843107  70.9530240  68.5105544 130.6155198
  70.8355056  67.2329426 129.8119177  70.2546585  64.8096112 107.2683784
  71.1165749  65.1351010 107.5279602  70.4396929  64.0227608 106.7556850
  62.2714001  72.8918452 119.5463973  61.5777472  72.4772404 119.0333928
  63.0186992  72.9338988 118.9497392  78.4079221  63.6824638 114.4119007
  77.8277890  64.3409442 114.0297060  78.1415154  62.8601983 114.0006425
  76.8582788  63.0829696 116.6140328  77.3582566  63.1946231 115.8054647
  77.5018396  62.7790749 117.2541136  70.9164784  70.9908326 129.5008169
  70.4331865  71.7908686 129.7072058  71.0025723  71.0016271 128.5475613
  64.1850743  72.8236705 117.4229988  64.1621431  72.9224393 116.4711871
  64.4951380  73.6701856 117.7447154  66.8438121  74.8812860 121.5376603
  67.7981375  74.8496803 121.4706534  66.6450645  74.4203484 122.3526828
  67.4337503  73.4513976 124.1047400  68.2530392  73.9458055 124.1282237
  67.7074311  72.5345945 124.0764968  77.1904099  65.8424729 113.4675356
  76.3029954  66.1274379 113.2495550  77.6058088  65.6818492 112.6202633
  80.5418635  65.8671250 117.1829695  81.3179026  66.3567702 117.4554312
  79.8166770  66.2929304 117.6401564  82.9791194  66.5798869 118.2403636
  83.5735685  66.3394605 117.5296944  83.0517778  65.8605999 118.8677172
  65.1988350  80.4232480 118.5546800  65.0642818  79.6632881 117.9884798
  64.7820412  81.1473380 118.0875589  76.3347313  75.6069403 107.5623376
  77.0383163  75.8119406 108.1781031  75.6109962  76.1746165 107.8272459
  77.1645123  71.3579265 113.6825646  77.1080324  71.8147816 112.8433278
  77.7173466  70.5969949 113.5048489  80.9749929  67.1468997 114.5075765
  80.7186863  66.7465632 115.3383973  80.3502797  67.8612790 114.3825904
  85.2862267  69.8865070 117.0147057  84.7261825  69.9558259 117.7878619
  84.6805770  69.7106054 116.2946553  68.3557476  81.3201797 118.7665243
  68.2389860  82.2647229 118.6643933  67.5349922  81.0175358 119.1551042
  78.2434010  76.0451933 109.6121836  79.0779614  75.6133131 109.4299311
  78.0818353  75.8733946 110.5398730  77.8979902  72.5484046 110.9778175
  77.8428706  72.3828317 110.0366619  77.2725958  73.2560079 111.1340365
  62.6872417  67.7852110 124.8039597  63.3331281  67.2751064 125.2926822
  62.4789568  68.5220792 125.3783022  75.2125810  74.8532958 130.3031738
  76.0816969  75.0273610 129.9418373  74.7332561  75.6727375 130.1807467
  71.2076028  62.0492155 110.5563493  71.1954698  62.9933995 110.7131764
  72.0999450  61.8662300 110.2622955  69.3811990  81.9730059 121.9821171
  70.2839237  82.0053669 122.2987666  69.1549360  81.0430510 121.9967507
  71.1365592  80.7261045 118.6431250  70.1861223  80.7262907 118.5295622
  71.4398078  79.9793780 118.1267285  75.0228147  58.6434932 114.8109430
  74.2560543  58.0893418 114.9566113  75.4338852  58.7156800 115.6723582
  67.0269908  64.9319727 128.9014611  67.8901370  64.5756532 129.1117936
  66.4535319  64.5933622 129.5890016  86.8718285  86.5621584 119.7077012
  87.5096695  86.4428331 119.0040353  86.7539128  87.5102428 119.7664965
  83.6807992  86.5149012 119.6438537  83.3426503  86.3990076 118.7559072
  84.5497760  86.1140177 119.6239543  79.5394807  88.3684488 115.6335428
  78.9759672  88.2774425 114.8651716  79.4247202  87.5484393 116.1137921
  84.1627775  87.6683864 125.6024743  84.1516415  87.2736662 124.7305246
  84.3248414  86.9349936 126.1958514  77.0859239  89.8635680 118.4719649
  77.8780531  89.5226504 118.0565948  77.3255889  89.9730655 119.3921802
  85.1194366  92.0355456 110.9449893  84.4682346  92.6209536 110.5583907
  85.9138729  92.5661651 111.0044930  79.0449993  89.1244593 111.3437027
  79.8180869  88.5773580 111.2049903  79.3975392  89.9888842 111.5551489
  80.8835036  90.4520975 124.5503927  80.5924902  91.3566606 124.4350593
  81.5192020  90.4937503 125.2647996  81.8091243  87.8297824 121.1405286
  82.4054815  87.6053846 120.4262249  81.8666214  87.0882569 121.7430734
  81.3816271  85.2837259 108.9755477  81.6341792  84.7618780 108.2138940
  80.4440830  85.1203405 109.0782161  86.4259554  84.2873038 116.7830221
  87.2122643  83.8692461 116.4320638  86.6898258  85.1919130 116.9511869
  86.5969631  89.7245888 111.4818877  85.9615464  89.7980514 112.1939782
  86.2667038  90.3139487 110.8037957  91.8267981  84.2248271 117.6863199
  92.5593153  83.6547488 117.9201029  91.0707337  83.8369871 118.1269705
  81.1012560  87.1865365 111.1779852  80.9848818  86.5110269 111.8460937
  81.2114820  86.6997739 110.3612005  83.4444101  86.6475512 114.8826541
  83.0802308  86.1206133 115.5939463  84.3011217  86.2573981 114.7093027
  89.3493401  77.9369845 122.1457808  89.0176726  78.8065256 121.9219023
  88.7539015  77.6206129 122.8251838  83.0849588  81.6765412 109.8787890
  83.2523990  82.5445648 110.2458361  82.8946757  81.8392694 108.9549179
  85.8424921  90.1382391 121.5453720  85.5425644  91.0407430 121.4369528
  85.4975980  89.8714574 122.3974873  79.2937402  86.5896188 117.5790425
  78.3687899  86.4572402 117.7868117  79.5421815  87.3690407 118.0760367
  89.2422065  82.6564931 119.2251158  88.3338942  82.5880339 118.9309919
  89.1909660  83.1336876 120.0532983  83.0638808  84.1323069 110.8634557
  82.9438434  84.5780120 111.7020037  82.3691397  84.4808387 110.3048095
  76.6546213  86.2329461 118.4134214  76.7838594  86.4863940 119.3273626
  75.9743665  86.8257169 118.0938869  80.8245701  96.9026711 114.5124688
  80.7469730  97.8534536 114.5913169  80.2207344  96.5572584 115.1699614
  83.3162930  84.0754577 127.1686055  82.5396264  84.6348497 127.1588920
  83.9553493  84.5611360 127.6900925  91.1083711  80.8581369 121.0029032
  90.4658091  81.1513903 120.3568826  90.6038640  80.7434290 121.8082228
  88.7623875  84.6044543 111.6914891  89.6741731  84.8371929 111.5162588
  88.2533522  85.1881587 111.1289969  81.5709303  86.8840030 126.7304022
  82.3123987  87.4225074 126.4538846  80.8646288  87.5106319 126.8875574
  87.0464642  89.0269170 125.3276183  87.4547998  88.5851581 124.5830816
  86.3241904  88.4521798 125.5810376  83.3995712  83.9641777 122.7009740
  84.2456908  84.3881191 122.8444389  83.3394350  83.3075402 123.3948303
  87.3693457  89.5870361 119.0828472  86.7402319  89.7516075 118.3804540
  86.9819119  90.0011971 119.8539436  91.2482689  90.5224799 116.4372836
  90.5633727  90.9023700 115.8869869  91.3326538  91.1320126 117.1704784
  86.5495158  81.6246146 124.3590914  86.3056090  82.3788206 123.8225190
  86.8255088  82.0031493 125.1938161  88.5033620  88.1684758 123.0368180
  88.7150516  88.8116518 122.3602561  88.4563369  87.3347074 122.5690110
  86.1059849  80.7802579 119.9404752  85.2444328  81.0783832 120.2321489
  86.1322284  80.9972977 119.0085784  82.9221419  89.3244769 116.3478557
  83.3859764  89.6032472 115.5583180  82.6578217  88.4228214 116.1651648
  79.8145500  88.8716251 119.2858321  80.3846857  89.3003519 118.6475805
  80.4053612  88.5898835 119.9842506  81.8590305  85.4467922 113.1568123
  82.5614348  85.8988965 113.6242049  81.5270933  84.8051740 113.7848016
  80.3070666  84.0379678 127.5319332  79.6769327  84.7195959 127.7654729
  80.2006754  83.9262760 126.5872470  75.6015639  83.7051474 118.4585256
  74.8114693  83.9609003 117.9825367  76.0926886  84.5199812 118.5637297
  89.6179448  91.0456713 121.2090537  90.4396892  90.6436901 120.9273219
  89.6141851  90.9424948 122.1606653  77.5530384  84.0696053 115.4168733
  76.7561548  84.1814748 115.9352228  77.3255976  84.4082706 114.5509623
  83.3836052  90.5940757 123.3651247  83.4480484  91.0561164 124.2009419
  82.6746976  89.9638122 123.4933557  73.8853342  83.9581965 120.8900247
  74.1361380  84.8428975 121.1557823  74.4212890  83.7786566 120.1175339
  97.7085441  87.3895462 117.5575508  96.9549150  86.8202860 117.4019513
  97.8432983  87.3558126 118.5046143  83.0984070  92.2608864 113.2330228
  82.9629744  93.1060400 113.6615076  83.6393882  92.4628142 112.4696162
  79.5851409  78.3400444 129.8944583  79.1918355  77.7866643 130.5692227
  80.4017549  78.6511022 130.2851101  76.5513467  89.7784302 113.8058153
  77.0637987  90.5727552 113.9563718  77.2036180  89.0810593 113.7391754
  78.3608352  92.8950058 115.8880906  78.5374980  93.8168023 115.7001890
  79.1565185  92.5808478 116.3175286  82.5019370  79.7558323 127.4864840
  83.2429084  80.3565476 127.4069302  82.7337293  79.0135961 126.9282882
  77.6460708  84.9414690 125.7643069  77.5314223  84.0399948 126.0650168
  76.7905226  85.1878387 125.4127886  84.7252546  92.8832431 127.3630570
  84.2816400  92.0968809 127.0451474  85.3869759  93.0711581 126.6974461
  79.4839667  94.4128232 121.8891248  80.0347092  94.2845296 121.1168242
  78.6451143  94.7123121 121.5386141  86.8233784  93.1635231 125.3911971
  86.8052259  93.9844112 124.8992240  87.7453704  93.0389306 125.6162112
  83.2806838  90.6779360 126.2335479  83.8135175  89.9167648 126.0034787
  82.7520919  90.3853012 126.9759634  86.4476533  75.7839426 121.7629121
  86.1040802  76.6741068 121.6868232  86.8155496  75.5941084 120.8998706
  74.5162384  88.1072956 114.5817723  75.3537606  88.5169965 114.3651431
  74.6940651  87.1672399 114.5517917  86.4126816  85.7748037 110.2701556
  85.8973439  86.5452642 110.5089944  86.1404124  85.1013173 110.8934618
  83.9973927  80.6197738 115.3286795  83.1415523  80.2304588 115.1492433
  84.4100879  80.6989699 114.4686580  85.5273073  78.1544081 119.7278354
  85.0237869  78.1174216 118.9146160  85.8203680  79.0636824 119.7875011
  81.7715959  78.2382811 118.7344536  82.6368956  78.0425620 118.3750426
  81.8393468  78.0093163 119.6613893  91.3861090  88.5280392 112.2054730
  90.6090533  88.1891551 111.7609892  92.0652571  88.5333015 111.5309695
  86.2013119  83.6475129 112.0961338  85.8963255  83.9621278 112.9471481
  87.1543561  83.7256549 112.1388671  84.6459551  89.8065353 113.7454292
  84.1180912  89.0718112 113.4327529  84.1447054  90.5840029 113.4994260
  89.6252397  88.0014373 118.8621338  88.9676071  88.6913634 118.9501466
  90.4292796  88.3910805 119.2055324  79.3778278  80.4685019 116.1060903
  79.9522030  80.2460200 115.3734096  79.9649261  80.5373713 116.8589504
  88.4357856  86.3558746 116.9125280  88.9489737  86.9888738 117.4146989
  89.0859080  85.7559941 116.5468640  79.7047866  82.4989480 110.1256788
  78.8685178  82.8364166 110.4466063  79.5652635  82.3638460 109.1883925
  81.6800946  77.3426268 114.8335972  81.0265358  77.0275285 114.2092587
  81.6381420  76.7202008 115.5595795  82.7912151  87.6245563 106.7489265
  81.8839213  87.3934816 106.9480414  83.2883183  86.8283182 106.9363246
  84.9138686  83.8308201 119.1583620  83.9961248  84.0523148 119.0005308
  85.3298830  83.9054512 118.2995327  85.6973734  85.2299617 114.2886300
  86.4445553  85.7421014 113.9793422  85.9665324  84.9083670 115.1490694
  83.9700384  87.7258158 111.2713255  83.0611604  87.4417190 111.3685724
  83.9995468  88.1457236 110.4116561  89.2019652  91.3364747 115.0404422
  88.7481979  90.4955657 115.0969613  88.5713619  91.9726146 115.3779202
  88.1452571  82.2656733 116.2705090  87.4075328  81.7534119 116.6015332
  88.3979345  81.8257115 115.4588367  87.6452591  93.1741244 115.9754240
  87.9375565  93.7346301 115.2566606  88.1551212  93.4669805 116.7307399
  88.2464199  75.0432985 116.8646859  88.5523076  74.1830349 116.5772774
  88.9716804  75.6350605 116.6645853  74.5388555  85.4463672 115.2528457
  74.3412955  84.8533033 114.5279523  73.9835219  85.1415882 115.9704396
  82.5185278  85.3386778 117.3723050  82.5733888  84.3860615 117.2965527
  81.7076481  85.4946217 117.8564348  83.6676472  89.2666901 108.6101333
  83.2295902  88.5502760 108.1506971  84.4086913  89.4943016 108.0486425
  80.4577638  83.9563838 115.1313429  79.6445504  84.2558009 115.5378621
  80.9536633  83.5619527 115.8487911  82.6086216  93.9521595 117.0647694
  82.5662395  94.1782441 116.1356226  83.5248915  93.7184970 117.2133495
  86.0551850  84.4205663 123.9628323  86.4101238  84.6477136 124.8222788
  86.7023981  84.7524039 123.3405578  91.7849587  87.5424098 114.6677652
  91.6467486  87.7325694 113.7398841  91.4285806  88.3043481 115.1245703
  79.9491713  81.5282194 120.7474664  80.5891092  81.3870953 120.0497627
  79.1169244  81.2416707 120.3713266  91.8118967  89.6100625 119.6788923
  92.2455473  89.5175914 120.5271977  92.5250547  89.5858126 119.0408939
  80.7252017  90.8284624 116.8609656  81.5192616  90.3334944 116.6592231
  80.0143709  90.3002487 116.4977362  85.5446862  93.2102720 121.2122024
  85.5983884  93.7793656 121.9799740  84.6761643  93.3804605 120.8476061
  77.0334781  84.9727706 112.9369409  76.1032369  84.9112161 113.1539371
  77.1292253  84.4503658 112.1406050  76.9520330  81.4982519 115.5247651
  77.2127147  82.4127852 115.4156811  77.7737502  81.0306961 115.6744263
  78.4245255  82.9120276 122.6946475  79.0968308  82.7037638 122.0459124
  77.5975041  82.7142362 122.2551707  92.6734516  89.6524326 122.2121809
  92.8670406  90.5570137 122.4581084  92.5735134  89.1931745 123.0460394
  84.3270827  79.5382217 124.7112136  83.6798742  80.2372166 124.6176612
  85.0971842  79.9718361 125.0788384  87.7349625  89.8031069 127.7862689
  87.5835131  89.5741620 126.8692773  87.7254304  90.7601670 127.7994034
  84.5034961  87.3762982 122.7708956  85.4327021  87.5274141 122.5977923
  84.0825991  87.4647002 121.9157602  83.3023293  91.4013646 120.5407493
  83.1634379  91.0332430 121.4133431  82.5137889  91.9161285 120.3691451
  83.8971445  96.5022742 111.8833030  84.0723201  96.0310786 112.6978653
  83.2104233  97.1288509 112.1114291  84.8528508  90.7795249 117.9296331
  84.5178341  90.7396019 118.8253981  84.3532454  90.1139965 117.4566741
  78.8272752  86.1862879 123.4548912  78.6892550  85.4543118 124.0560451
  79.7377676  86.0971779 123.1733100  87.7887700  88.1251283 108.2033391
  87.1716870  87.3998111 108.1066443  87.3204188  88.8860643 107.8600465
  81.4555053  85.8982838 122.9432592  82.1654671  85.2576030 122.9019210
  81.4124361  86.1495733 123.8658773  89.4441832  92.8350191 125.8639171
  89.3854378  92.1509411 125.1969754  89.8461350  93.5769181 125.4119797
  80.1683987  82.8848056 124.7628231  79.6321344  82.4338794 125.4149828
  79.5800695  83.0193965 124.0198696  78.4632530  99.6512105 118.6572890
  78.7029129 100.2830629 119.3351909  77.6201727  99.3000145 118.9438249
  79.5786246  82.3436707 107.3254695  78.7015712  82.2225508 106.9616942
  80.0543999  81.5522786 107.0733584  89.4459239  90.7989775 124.0953151
  88.5586018  90.4615697 124.2179550  90.0157790  90.0672807 124.3321916
  71.0988386  87.1313867 117.4196202  71.7859426  86.8175597 116.8317218
  70.9436515  88.0355232 117.1463454  75.9023108  82.0204064 121.8481226
  75.8181297  81.4129733 121.1131636  75.0805814  82.5113082 121.8490722
  82.9760392  95.4591228 121.0614394  82.9030564  96.2646199 121.5733699
  82.5337785  95.6583193 120.2362415  82.7650172  94.6962998 114.5717216
  81.9817694  95.2384678 114.6655440  83.4642917  95.2136977 114.9711457
  86.0746822  80.5057627 117.2151421  86.5715521  79.7527589 116.8952491
  85.3033803  80.5421944 116.6494630  93.9276579  86.2097993 118.8569712
  93.9166456  87.0922708 118.4863646  93.0593959  85.8569543 118.6624250
  85.4359076  95.3578062 123.2172553  86.1487048  95.9925526 123.1448454
  84.9449104  95.4541928 122.4012555  87.1576603  89.2629314 114.7889844
  86.2232881  89.3830777 114.6194549  87.3353271  88.3601781 114.5249854
  82.6581791  82.6475010 116.9423106  82.2879578  82.0946050 117.6304011
  83.1540883  82.0433144 116.3898106  90.5449154  85.1046634 115.3239879
  91.0109606  85.9374625 115.2500181  90.9956654  84.6391615 116.0285137
  80.4870989  93.1072505 124.0378124  81.1880449  93.7408988 124.1907518
  80.0166104  93.4487237 123.2773763  88.6125385  91.4490455 112.3226031
  88.8885229  91.3347049 113.2319905  87.7429884  91.0507940 112.2838204
  88.5165817  77.4727221 119.3630780  87.6028896  77.7031447 119.5312987
  88.9458918  77.5565665 120.2144812  88.2872275  85.6617113 121.8630674
  87.6343725  85.9093020 121.2083127  88.6652655  84.8481251 121.5293151
  85.2479449  95.6976806 115.9658844  85.4301844  94.8798462 116.4286596
  86.0712435  95.9144498 115.5283734  85.5821615  94.6244991 113.2273893
  86.1109381  94.1137445 112.6144055  85.8449834  94.3087521 114.0919426
  84.3359848  86.4036924 128.3496711  83.6600485  86.3031053 129.0199086
  85.1587482  86.2476137 128.8132708  76.0838707  92.6408860 120.9709226
  76.6692144  91.8952548 121.1037130  75.8863546  92.9512817 121.8545890
  78.9377363  95.6760108 115.9871669  78.2687738  96.1606235 115.5035709
  78.7990232  95.9229328 116.9015047  70.6756362  85.2114460 119.6913669
  70.7140462  84.6778051 120.4850787  70.1696655  84.6849666 119.0724647
  83.0782631  97.7103851 122.5854327  83.6300939  97.8735473 123.3503412
  83.4188825  98.3008289 121.9134352  78.0547124  80.0579001 123.1876212
  78.1188451  80.9193832 122.7753609  77.9914245  79.4453003 122.4548570
  77.5299397  82.1302133 126.8349246  78.1571436  81.7479211 127.4486770
  76.6727316  81.9116335 127.2004938  87.9293505  92.5365109 128.4402981
  88.4733409  93.1495067 127.9457936  87.3480350  93.0944687 128.9569994
  74.3064940  83.9378563 112.7667601  74.6018381  83.0289241 112.7134654
  73.4052975  83.9166302 112.4448603  86.2151018  95.6585827 119.5718009
  86.0902158  94.8575566 119.0628955  86.8730109  96.1532020 119.0831979
  77.8359187  82.0134559 118.7495149  77.1145772  82.6270527 118.6102623
  78.6252442  82.5492324 118.6711795  88.2785927  93.4594847 121.1997559
  87.3316262  93.3400198 121.1275886  88.6268700  92.5717345 121.2823821
  80.6385500  79.3488986 125.0235801  81.1619902  79.5951282 125.7862110
  80.4197833  80.1809020 124.6038938  76.0352781  81.6192660 112.8906926
  75.7065487  80.7390039 112.7082032  76.3892152  81.5640329 113.7783315
  85.2832360  93.2547563 117.4001911  85.1357322  92.3264270 117.5809481
  86.1085854  93.2767654 116.9158987  79.1494604  81.9065630 113.2582404
  79.4890677  82.4351551 112.5361012  79.5966725  82.2446036 114.0340970
  88.8866482  94.0776122 118.4866784  89.8113029  93.8718983 118.3491235
  88.7181785  93.8292523 119.3956126  81.8438045  80.2902681 122.7085472
  81.5034866  79.4910494 123.1106152  81.1377051  80.5904392 122.1362305
  82.4954517  77.3751993 121.1612795  83.3180586  76.9012471 121.0391685
  82.7392581  78.1542477 121.6611481  81.1362751  80.4040252 111.4575696
  81.8571114  80.7821504 110.9539413  80.5128056  81.1229128 111.5610674
  85.2793874  81.1085401 112.3934029  85.4957489  81.9910038 112.0922857
  84.7987942  80.7171614 111.6639671  80.0193096  84.0671114 118.9704773
  79.8737676  84.3811417 119.8629055  79.5418299  84.6856014 118.4175672
  81.8789479  81.0573662 119.0185663  81.8651047  80.1614755 118.6817961
  82.5961907  81.0644326 119.6523949  83.7315609  81.4911002 121.0638790
  83.4733387  82.4128073 121.0623121  83.2000650  81.0941437 121.7539254
  88.6761798  94.5961789 113.8428876  88.8498676  94.0308212 113.0902728
  89.1690689  95.3962684 113.6608366  74.4938758  86.6076458 121.9092434
  73.9492226  87.3836266 122.0412709  75.3718108  86.9547263 121.7511556
  81.2826375  79.9388042 114.2873233  81.4042286  79.0104688 114.4864120
  80.9928417  79.9526728 113.3751548  84.1517565  77.6242952 117.4239953
  84.1739262  77.6882286 116.4691932  84.5685624  76.7847461 117.6180459
  94.5301189  87.3598212 115.4619175  94.9732335  86.6105537 115.0638299
  93.6527700  87.3508348 115.0792907  89.6636971  93.9128554 110.9425774
  90.3587875  94.5335246 111.1613089  90.0060121  93.0623905 111.2178152
  75.2804780  85.7346354 124.8022591  74.5386516  85.8828990 125.3887222
  74.9597524  85.9954620 123.9389341  91.5628394  91.3628259 112.4713105
  92.0879718  91.7015532 111.7462425  91.4750746  90.4275274 112.2876239
  83.2248442  95.2762333 124.6002981  83.5335569  95.0311479 125.4725681
  84.0223924  95.4808971 124.1121852  83.2469054  97.4300242 116.8308358
  82.8074045  96.9376621 117.5241215  83.9977171  96.8873210 116.5900433
  75.7261393  93.6211783 116.8332986  76.5519413  93.3215555 116.4531629
  75.3755445  92.8519406 117.2822775  80.6942927  92.9738251 118.9030660
  80.0722936  92.3108956 118.6032887  81.3647794  92.9999383 118.2204307
  73.9269998  91.5398110 117.7921920  73.0901907  91.1120284 117.6105921
  73.8993644  91.7330553 118.7292711  80.7667454  81.4520039 128.4963166
  80.8155610  82.3282162 128.1140935  81.3089968  80.9097432 127.9234809
  91.2522300  91.9961163 127.7764303  90.4617843  91.9785302 127.2368802
  91.0155654  92.5349456 128.5313339  91.3720175  88.8453629 125.0897031
  91.4218180  88.6803636 126.0312554  91.2634098  87.9780888 124.6994912
  80.2556434  91.5242175 112.3789120  80.4044554  92.2077639 111.7255793
  81.0622877  91.5047265 112.8938576  88.6623937  84.8284557 126.4056338
  89.5633800  84.6891022 126.1140336  88.7371912  84.9939012 127.3454515
  82.9966743  82.2051412 125.2509524  82.1270052  82.4984978 124.9792113
  83.2326223  82.7891857 125.9716788  92.8738372  91.2650571 125.3339053
  92.5823180  91.6280551 126.1702514  92.2610503  90.5517579 125.1552385
  94.0734054  88.8303450 117.8541623  94.9080945  89.2693254 118.0179183
  94.2093183  88.3542104 117.0349869  91.1225560  86.3883185 123.8019111
  91.5979682  86.5810831 122.9937962  90.1991125  86.4442371 123.5562494
  78.0109067  87.5507352 113.3850189  77.7655108  86.6469682 113.5830399
  78.1804981  87.5524503 112.4429667  85.7005776  78.4231029 122.7674945
  86.2187720  79.1592056 122.4421433  85.3460909  78.7295022 123.6021704
  77.2804714  83.2835710 110.8836350  76.5873959  83.3580065 110.2276386
  77.0356466  82.5196054 111.4057867  85.9518371  74.8431311 118.2875841
  86.2320124  74.1754500 118.9136268  86.7368977  75.0360407 117.7750505
  83.7551839  94.0190305 109.8500868  83.1825806  94.6380492 109.3971339
  84.3284633  94.5689667 110.3840789  89.8227229  83.2648945 122.0347416
  90.7744652  83.3647043 122.0559640  89.6530679  82.4727214 122.5445501
  87.8441608  80.3504528 122.2206817  87.2491540  80.6309541 121.5253306
  87.5591305  80.8398429 122.9923558  86.9749099  94.3027455 110.9809450
  87.9079772  94.2373017 111.1842325  86.8872312  95.1383722 110.5223982
  89.6037116  93.6193326 107.9413397  89.5250747  93.2853189 108.8349155
  90.4246782  94.1115094 107.9404870  92.3015307  86.4855065 121.1489716
  92.2691627  85.5471066 121.3349400  92.9115930  86.5639102 120.4155541
  84.1398638  85.3551118 107.1916920  85.0857742  85.2257326 107.2605338
  83.7612883  84.6165780 107.6686348  92.4509795  83.2766108 121.1947999
  91.9348844  82.4924565 121.0077928  93.3349744  82.9484825 121.3594519
  90.1120522  77.0207124 117.1543812  89.9145343  76.7122212 118.0387144
  90.7220228  77.7468763 117.2841742  98.1191857  87.5471072 120.2895753
  98.8495245  87.2856360 120.8503456  97.5098802  86.8099794 120.3297821
  96.2007154  85.6878934 120.8870204  95.4740317  85.5534899 120.2786696
  95.7854441  85.9955763 121.6926922  84.0237330  89.4068864 128.6517577
  84.9440340  89.5847463 128.8457623  83.9886913  88.4624909 128.4997276
  82.3241555  83.2801094 107.1271805  81.4173010  82.9834207 107.2034519
  82.6017536  82.9830912 106.2606091  73.2419495  84.6007458 117.5770852
  72.9222279  83.7472766 117.2845226  72.6952923  84.8156036 118.3328819
  77.0199403  87.3169899 121.2940358  77.2385412  88.2487007 121.3128392
  77.4325176  86.9577873 122.0795162  83.9403620  77.8237984 113.2816047
  83.1304349  77.4785069 113.6571293  84.6288037  77.5145528 113.8703658
  85.8694169  76.9016031 114.9040343  86.4225207  77.3211484 115.5630366
  86.1064255  75.9751779 114.9463299  81.8927268  82.8903104 130.6843107
  81.7923995  83.8397461 130.6155198  81.6748810  82.5621343 129.8119177
  81.0940339  80.1388030 107.2683784  81.9559503  80.4642928 107.5279602
  81.2790683  79.3519525 106.7556850  73.1107755  88.2210369 119.5463973
  72.4171227  87.8064322 119.0333928  73.8580746  88.2630906 118.9497392
  89.2472976  79.0116556 114.4119007  88.6671645  79.6701360 114.0297060
  88.9808908  78.1893901 114.0006425  87.6976542  78.4121614 116.6140328
  88.1976321  78.5238148 115.8054647  88.3412150  78.1082667 117.2541136
  81.7558538  86.3200243 129.5008169  81.2725620  87.1200603 129.7072058
  81.8419477  86.3308188 128.5475613  75.0244498  88.1528623 117.4229988
  75.0015186  88.2516310 116.4711871  75.3345134  88.9993774 117.7447154
  77.6831875  90.2104778 121.5376603  78.6375129  90.1788720 121.4706534
  77.4844399  89.7495402 122.3526828  78.2731258  88.7805894 124.1047400
  79.0924147  89.2749973 124.1282237  78.5468065  87.8637862 124.0764968
  88.0297854  81.1716646 113.4675356  87.1423709  81.4566297 113.2495550
  88.4451843  81.0110410 112.6202633  91.3812390  81.1963167 117.1829695
  92.1572780  81.6859620 117.4554312  90.6560524  81.6221222 117.6401564
  93.8184949  81.9090787 118.2403636  94.4129439  81.6686523 117.5296944
  93.8911532  81.1897917 118.8677172  76.0382104  95.7524398 118.5546800
  75.9036572  94.9924798 117.9884798  75.6214167  96.4765297 118.0875589
  87.1741067  90.9361321 107.5623376  87.8776917  91.1411324 108.1781031
  86.4503716  91.5038083 107.8272459  88.0038878  86.6871182 113.6825646
  87.9474079  87.1439734 112.8433278  88.5567220  85.9261867 113.5048489
  91.8143683  82.4760914 114.5075765  91.5580618  82.0757550 115.3383973
  91.1896552  83.1904708 114.3825904  96.1256021  85.2156987 117.0147057
  95.5655579  85.2850177 117.7878619  95.5199525  85.0397972 116.2946553
  79.1951230  96.6493715 118.7665243  79.0783614  97.5939147 118.6643933
  78.3743676  96.3467276 119.1551042  89.0827765  91.3743850 109.6121836
  89.9173369  90.9425049 109.4299311  88.9212108  91.2025864 110.5398730
  88.7373657  87.8775964 110.9778175  88.6822461  87.7120235 110.0366619
  88.1119712  88.5851996 111.1340365  73.5266172  83.1144028 124.8039597
  74.1725035  82.6042982 125.2926822  73.3183323  83.8512710 125.3783022
  86.0519564  90.1824875 130.3031738  86.9210724  90.3565528 129.9418373
  85.5726316  91.0019292 130.1807467  82.0469782  77.3784073 110.5563493
  82.0348452  78.3225912 110.7131764  82.9393204  77.1954218 110.2622955
  80.2205744  97.3021976 121.9821171  81.1232991  97.3345587 122.2987666
  79.9943114  96.3722427 121.9967507  81.9759346  96.0552963 118.6431250
  81.0254977  96.0554825 118.5295622  82.2791832  95.3085698 118.1267285
  85.8621902  73.9726849 114.8109430  85.0954298  73.4185336 114.9566113
  86.2732607  74.0448718 115.6723582  77.8663663  80.2611645 128.9014611
  78.7295124  79.9048450 129.1117936  77.2929074  79.9225540 129.5890016
  95.0021529 102.9975781 125.6024743  94.9910170 102.6028579 124.7305246
  95.1642169 102.2641854 126.1958514  91.7228790 105.7812893 124.5503927
  91.4318656 106.6858524 124.4350593  92.3585775 105.8229421 125.2647996
 102.6661735  99.5540188 117.6863199 103.3986907  98.9839405 117.9201029
 101.9101091  99.1661789 118.1269705 100.1887156  93.2661763 122.1457808
  99.8570481  94.1357173 121.9219023  99.5932769  92.9498047 122.8251838
 100.0815819  97.9856849 119.2251158  99.1732696  97.9172257 118.9309919
 100.0303415  98.4628794 120.0532983  94.1556685  99.4046494 127.1686055
  93.3790019  99.9640414 127.1588920  94.7947248  99.8903277 127.6900925
 101.9477465  96.1873287 121.0029032 101.3051846  96.4805820 120.3568826
 101.4432394  96.0726207 121.8082228  92.4103057 102.2131948 126.7304022
  93.1517742 102.7516992 126.4538846  91.7040043 102.8398236 126.8875574
  97.8858397 104.3561088 125.3276183  98.2941753 103.9143499 124.5830816
  97.1635658 103.7813716 125.5810376  94.2389467  99.2933695 122.7009740
  95.0850662  99.7173108 122.8444389  94.1788105  98.6367319 123.3948303
 102.0876443 105.8516717 116.4372836 101.4027481 106.2315618 115.8869869
 102.1720293 106.4612043 117.1704784  97.3888912  96.9538063 124.3590914
  97.1449844  97.7080124 123.8225190  97.6648843  97.3323411 125.1938161
  99.3427375 103.4976676 123.0368180  99.5544270 104.1408436 122.3602561
  99.2957123 102.6638992 122.5690110  96.9453604  96.1094496 119.9404752
  96.0838083  96.4075750 120.2321489  96.9716039  96.3264895 119.0085784
  91.1464421  99.3671596 127.5319332  90.5163081 100.0487877 127.7654729
  91.0400509  99.2554677 126.5872470  86.4409393  99.0343392 118.4585256
  85.6508447  99.2900920 117.9825367  86.9320641  99.8491730 118.5637297
  84.7247096  99.2873882 120.8900247  84.9755135 100.1720892 121.1557823
  85.2606645  99.1078484 120.1175339 108.5479196 102.7187380 117.5575508
 107.7942904 102.1494778 117.4019513 108.6826737 102.6850044 118.5046143
  90.4245164  93.6692362 129.8944583  90.0312109  93.1158560 130.5692227
  91.2411304  93.9802940 130.2851101  93.3413125  95.0850241 127.4864840
  94.0822838  95.6857394 127.4069302  93.5731047  94.3427879 126.9282882
  88.4854463 100.2706608 125.7643069  88.3707978  99.3691865 126.0650168
  87.6298980 100.5170305 125.4127886  95.5646300 108.2124348 127.3630570
  95.1210155 107.4260727 127.0451474  96.2263514 108.4003499 126.6974461
  90.3233422 109.7420150 121.8891248  90.8740847 109.6137213 121.1168242
  89.4844897 110.0415039 121.5386141  97.6627538 108.4927148 125.3911971
  97.6446014 109.3136029 124.8992240  98.5847458 108.3681223 125.6162112
  94.1200593 106.0071278 126.2335479  94.6528929 105.2459566 126.0034787
  93.5914674 105.7144930 126.9759634  97.2870288  91.1131344 121.7629121
  96.9434557  92.0032985 121.6868232  97.6549250  90.9233001 120.8998706
  96.3666828  93.4835999 119.7278354  95.8631624  93.4466134 118.9146160
  96.6597435  94.3928742 119.7875011  92.6109714  93.5674729 118.7344536
  93.4762711  93.3717537 118.3750426  92.6787223  93.3385080 119.6613893
  90.2172033  95.7976937 116.1060903  90.7915785  95.5752118 115.3734096
  90.8043015  95.8665631 116.8589504  92.5194701  92.6718185 114.8335972
  91.8659113  92.3567203 114.2092587  92.4775175  92.0493926 115.5595795
  95.7532441  99.1600119 119.1583620  94.8355002  99.3815066 119.0005308
  96.1692585  99.2346429 118.2995327  98.9846326  97.5948651 116.2705090
  98.2469083  97.0826037 116.6015332  99.2373099  97.1549032 115.4588367
  99.0857953  90.3724903 116.8646859  99.3916830  89.5122266 116.5772774
  99.8110558  90.9642523 116.6645853  96.8945605  99.7497580 123.9628323
  97.2494992  99.9769053 124.8222788  97.5417736 100.0815957 123.3405578
 102.6243342 102.8716016 114.6677652 102.4861240 103.0617612 113.7398841
 102.2679560 103.6335399 115.1245703  90.7885468  96.8574111 120.7474664
  91.4284847  96.7162870 120.0497627  89.9562998  96.5708625 120.3713266
 102.6512721 104.9392543 119.6788923 103.0849228 104.8467832 120.5271977
 103.3644302 104.9150044 119.0408939  87.7914084  96.8274436 115.5247651
  88.0520901  97.7419769 115.4156811  88.6131256  96.3598879 115.6744263
  89.2639009  98.2412193 122.6946475  89.9362063  98.0329556 122.0459124
  88.4368796  98.0434279 122.2551707 103.5128271 104.9816244 122.2121809
 103.7064161 105.8862054 122.4581084 103.4128889 104.5223663 123.0460394
  95.1664581  94.8674134 124.7112136  94.5192496  95.5664084 124.6176612
  95.9365597  95.3010278 125.0788384  98.5743379 105.1322986 127.7862689
  98.4228886 104.9033538 126.8692773  98.5648059 106.0893588 127.7994034
  95.3428716 102.7054899 122.7708956  96.2720776 102.8566059 122.5977923
  94.9219746 102.7938920 121.9157602  89.6666507 101.5154796 123.4548912
  89.5286305 100.7835035 124.0560451  90.5771430 101.4263696 123.1733100
  92.2948807 101.2274756 122.9432592  93.0048426 100.5867948 122.9019210
  92.2518115 101.4787651 123.8658773 100.2835586 108.1642109 125.8639171
 100.2248132 107.4801329 125.1969754 100.6855104 108.9061099 125.4119797
  91.0077741  98.2139974 124.7628231  90.4715098  97.7630712 125.4149828
  90.4194450  98.3485882 124.0198696  89.3026285 114.9804023 118.6572890
  89.5422883 115.6122547 119.3351909  88.4595481 114.6292063 118.9438249
 100.2852993 106.1281693 124.0953151  99.3979772 105.7907615 124.2179550
 100.8551544 105.3964724 124.3321916  86.7416863  97.3495981 121.8481226
  86.6575051  96.7421651 121.1131636  85.9199569  97.8405000 121.8490722
  93.8154147 110.7883145 121.0614394  93.7424318 111.5938117 121.5733699
  93.3731540 110.9875111 120.2362415  96.9140576  95.8349545 117.2151421
  97.4109276  95.0819507 116.8952491  96.1427558  95.8713861 116.6494630
 104.7670334 101.5389910 118.8569712 104.7560210 102.4214626 118.4863646
 103.8987713 101.1861461 118.6624250  96.2752830 110.6869979 123.2172553
  96.9880802 111.3217444 123.1448454  95.7842859 110.7833845 122.4012555
  93.4975545  97.9766928 116.9423106  93.1273333  97.4237968 117.6304011
  93.9934638  97.3725061 116.3898106  91.3264744 108.4364423 124.0378124
  92.0274203 109.0700906 124.1907518  90.8559859 108.7779154 123.2773763
  99.3559571  92.8019138 119.3630780  98.4422651  93.0323365 119.5312987
  99.7852673  92.8857582 120.2144812  99.1266030 100.9909030 121.8630674
  98.4737480 101.2384938 121.2083127  99.5046410 100.1773168 121.5293151
  96.0873204 111.0268723 115.9658844  96.2695598 110.2090379 116.4286596
  96.9106190 111.2436416 115.5283734  95.1753603 101.7328841 128.3496711
  94.4994240 101.6322971 129.0199086  95.9981237 101.5768055 128.8132708
  86.9232462 107.9700778 120.9709226  87.5085899 107.2244466 121.1037130
  86.7257300 108.2804735 121.8545890  81.5150117 100.5406378 119.6913669
  81.5534216 100.0069969 120.4850787  81.0090409 100.0141584 119.0724647
  93.9176386 113.0395769 122.5854327  94.4694694 113.2027390 123.3503412
  94.2582579 113.6300207 121.9134352  88.8940879  95.3870919 123.1876212
  88.9582205  96.2485749 122.7753609  88.8307999  94.7744920 122.4548570
  88.3693151  97.4594051 126.8349246  88.9965190  97.0771128 127.4486770
  87.5121070  97.2408253 127.2004938  98.7687260 107.8657026 128.4402981
  99.3127164 108.4786985 127.9457936  98.1874105 108.4236605 128.9569994
  97.0544773 110.9877744 119.5718009  96.9295912 110.1867484 119.0628955
  97.7123864 111.4823938 119.0831979  88.6752941  97.3426477 118.7495149
  87.9539527  97.9562445 118.6102623  89.4646197  97.8784242 118.6711795
  91.4779255  94.6780903 125.0235801  92.0013656  94.9243200 125.7862110
  91.2591588  95.5100938 124.6038938  99.7260236 109.4068039 118.4866784
 100.6506784 109.2010901 118.3491235  99.5575540 109.1584440 119.3956126
  92.6831800  95.6194598 122.7085472  92.3428620  94.8202411 123.1106152
  91.9770806  95.9196309 122.1362305  93.3348271  92.7043911 121.1612795
  94.1574341  92.2304389 121.0391685  93.5786335  93.4834395 121.6611481
  91.9756506  95.7332169 111.4575696  92.6964868  96.1113422 110.9539413
  91.3521810  96.4521046 111.5610674  90.8586850  99.3963031 118.9704773
  90.7131431  99.7103335 119.8629055  90.3812054 100.0147932 118.4175672
  92.7183233  96.3865579 119.0185663  92.7044802  95.4906673 118.6817961
  93.4355661  96.3936243 119.6523949  94.5709364  96.8202920 121.0638790
  94.3127142  97.7419990 121.0623121  94.0394404  96.4233354 121.7539254
  99.5155553 109.9253707 113.8428876  99.6892430 109.3600129 113.0902728
 100.0084444 110.7254602 113.6608366  85.3332512 101.9368376 121.9092434
  84.7885980 102.7128184 122.0412709  86.2111862 102.2839180 121.7511556
  92.1220129  95.2679960 114.2873233  92.2436040  94.3396606 114.4864120
  91.8322171  95.2818646 113.3751548  94.9911319  92.9534870 117.4239953
  95.0133016  93.0174203 116.4691932  95.4079378  92.1139379 117.6180459
 105.3694944 102.6890130 115.4619175 105.8126090 101.9397455 115.0638299
 104.4921454 102.6800266 115.0792907  86.1198534 101.0638272 124.8022591
  85.3780270 101.2120907 125.3887222  85.7991279 101.3246538 123.9389341
  94.0642197 110.6054250 124.6002981  94.3729323 110.3603397 125.4725681
  94.8617679 110.8100889 124.1121852  94.0862809 112.7592160 116.8308358
  93.6467799 112.2668539 117.5241215  94.8370926 112.2165128 116.5900433
  84.7663753 106.8690027 117.7921920  83.9295661 106.4412202 117.6105921
  84.7387398 107.0622471 118.7292711  91.6061209  96.7811957 128.4963166
  91.6549364  97.6574080 128.1140935  92.1483723  96.2389350 127.9234809
 102.0916054 107.3253080 127.7764303 101.3011598 107.3077219 127.2368802
 101.8549409 107.8641374 128.5313339 102.2113929 104.1745547 125.0897031
 102.2611934 104.0095554 126.0312554 102.1027853 103.3072806 124.6994912
  99.5017692 100.1576475 126.4056338 100.4027554 100.0182940 126.1140336
  99.5765666 100.3230930 127.3454515  93.8360497  97.5343330 125.2509524
  92.9663806  97.8276896 124.9792113  94.0719977  98.1183775 125.9716788
 103.7132126 106.5942488 125.3339053 103.4216934 106.9572469 126.1702514
 103.1004257 105.8809497 125.1552385 104.9127808 104.1595368 117.8541623
 105.7474700 104.5985172 118.0179183 105.0486937 103.6834021 117.0349869
 101.9619314 101.7175103 123.8019111 102.4373436 101.9102749 122.9937962
 101.0384880 101.7734289 123.5562494  96.5399531  93.7522946 122.7674945
  97.0581475  94.4883973 122.4421433  96.1854664  94.0586940 123.6021704
  96.7912125  90.1723229 118.2875841  97.0713879  89.5046418 118.9136268
  97.5762732  90.3652325 117.7750505 100.6620983  98.5940863 122.0347416
 101.6138406  98.6938961 122.0559640 100.4924434  97.8019132 122.5445501
  98.6835363  95.6796446 122.2206817  98.0885295  95.9601459 121.5253306
  98.3985060  96.1690347 122.9923558 103.1409061 101.8146983 121.1489716
 103.1085381 100.8762983 121.3349400 103.7509685 101.8931019 120.4155541
 103.2903550  98.6058026 121.1947999 102.7742598  97.8216483 121.0077928
 104.1743498  98.2776743 121.3594519 100.9514277  92.3499042 117.1543812
 100.7539098  92.0414130 118.0387144 101.5613982  93.0760681 117.2841742
 108.9585611 102.8762989 120.2895753 109.6889000 102.6148278 120.8503456
 108.3492557 102.1391711 120.3297821 107.0400908 101.0170852 120.8870204
 106.3134072 100.8826817 120.2786696 106.6248195 101.3247681 121.6926922
  94.8631085 104.7360782 128.6517577  95.7834094 104.9139381 128.8457623
  94.8280668 103.7916827 128.4997276  84.0813250  99.9299375 117.5770852
  83.7616034  99.0764684 117.2845226  83.5346678 100.1447954 118.3328819
  87.8593157 102.6461816 121.2940358  88.0779167 103.5778924 121.3128392
  88.2718931 102.2869791 122.0795162  94.7797375  93.1529902 113.2816047
  93.9698103  92.8076987 113.6571293  95.4681792  92.8437445 113.8703658
  96.7087923  92.2307949 114.9040343  97.2618962  92.6503402 115.5630366
  96.9458010  91.3043697 114.9463299  92.7321022  98.2195022 130.6843107
  92.6317749  99.1689379 130.6155198  92.5142564  97.8913261 129.8119177
  83.9501510 103.5502287 119.5463973  83.2564981 103.1356240 119.0333928
  84.6974501 103.5922823 118.9497392 100.0866730  94.3408474 114.4119007
  99.5065399  94.9993278 114.0297060  99.8202663  93.5185818 114.0006425
  98.5370297  93.7413531 116.6140328  99.0370075  93.8530066 115.8054647
  99.1805905  93.4374584 117.2541136  92.5952292 101.6492161 129.5008169
  92.1119374 102.4492521 129.7072058  92.6813232 101.6600106 128.5475613
  88.5225630 105.5396696 121.5376603  89.4768884 105.5080638 121.4706534
  88.3238154 105.0787319 122.3526828  89.1125012 104.1097812 124.1047400
  89.9317901 104.6041890 124.1282237  89.3861820 103.1929780 124.0764968
 102.2206144  96.5255085 117.1829695 102.9966535  97.0151537 117.4554312
 101.4954279  96.9513139 117.6401564 104.6578703  97.2382704 118.2403636
 105.2523194  96.9978440 117.5296944 104.7305287  96.5189835 118.8677172
 106.9649776 100.5448905 117.0147057 106.4049334 100.6142094 117.7878619
 106.3593279 100.3689890 116.2946553  90.0344985 111.9785632 118.7665243
  89.9177369 112.9231065 118.6643933  89.2137431 111.6759194 119.1551042
  84.3659926  98.4435946 124.8039597  85.0118790  97.9334900 125.2926822
  84.1577077  99.1804627 125.3783022  96.8913319 105.5116793 130.3031738
  97.7604478 105.6857445 129.9418373  96.4120070 106.3311210 130.1807467
  92.8863537  92.7075990 110.5563493  92.8742207  93.6517830 110.7131764
  93.7786959  92.5246136 110.2622955  91.0599499 112.6313894 121.9821171
  91.9626745 112.6637504 122.2987666  90.8336869 111.7014345 121.9967507
  92.8153101 111.3844881 118.6431250  91.8648732 111.3846742 118.5295622
  93.1185587 110.6377615 118.1267285  96.7015656  89.3018767 114.8109430
  95.9348052  88.7477254 114.9566113  97.1126361  89.3740636 115.6723582
  88.7057417  95.5903563 128.9014611  89.5688879  95.2340368 129.1117936
  88.1322828  95.2517458 129.5890016 108.5505794 117.2205419 119.7077012
 109.1884204 117.1012166 119.0040353 108.4326637 118.1686263 119.7664965
 105.3595501 117.1732847 119.6438537 105.0214012 117.0573912 118.7559072
 106.2285269 116.7724012 119.6239543 105.8415284 118.3267699 125.6024743
 105.8303924 117.9320497 124.7305246 106.0035923 117.5933771 126.1958514
  98.7646748 120.5219515 118.4719649  99.5568040 120.1810340 118.0565948
  99.0043398 120.6314490 119.3921802 106.7981875 122.6939291 110.9449893
 106.1469855 123.2793372 110.5583907 107.5926238 123.2245486 111.0044930
 102.5622545 121.1104811 124.5503927 102.2712411 122.0150442 124.4350593
 103.1979529 121.1521338 125.2647996 103.4878752 118.4881659 121.1405286
 104.0842324 118.2637682 120.4262249 103.5453723 117.7466405 121.7430734
 108.1047063 114.9456873 116.7830221 108.8910152 114.5276296 116.4320638
 108.3685767 115.8502965 116.9511869 108.2757140 120.3829723 111.4818877
 107.6402973 120.4564350 112.1939782 107.9454547 120.9723322 110.8037957
 113.5055490 114.8832106 117.6863199 114.2380662 114.3131323 117.9201029
 112.7494846 114.4953707 118.1269705 102.7800069 117.8449200 111.1779852
 102.6636327 117.1694104 111.8460937 102.8902329 117.3581574 110.3612005
 105.1231610 117.3059348 114.8826541 104.7589817 116.7789969 115.5939463
 105.9798726 116.9157817 114.7093027 111.0280910 108.5953680 122.1457808
 110.6964235 109.4649091 121.9219023 110.4326524 108.2789964 122.8251838
 107.5212430 120.7966226 121.5453720 107.2213153 121.6991265 121.4369528
 107.1763489 120.5298409 122.3974873 100.9724911 117.2480023 117.5790425
 100.0475408 117.1156237 117.7868117 101.2209324 118.0274242 118.0760367
 110.9209574 113.3148766 119.2251158 110.0126451 113.2464175 118.9309919
 110.8697169 113.7920711 120.0532983  98.3333722 116.8913297 118.4134214
  98.4626103 117.1447776 119.3273626  97.6531174 117.4841005 118.0938869
 102.5033210 127.5610547 114.5124688 102.4257239 128.5118372 114.5913169
 101.8994853 127.2156419 115.1699614 104.9950439 114.7338412 127.1686055
 104.2183773 115.2932332 127.1588920 105.6341002 115.2195195 127.6900925
 112.7871220 111.5165205 121.0029032 112.1445600 111.8097738 120.3568826
 112.2826148 111.4018125 121.8082228 110.4411384 115.2628378 111.6914891
 111.3529240 115.4955765 111.5162588 109.9321031 115.8465422 111.1289969
 103.2496812 117.5423865 126.7304022 103.9911496 118.0808909 126.4538846
 102.5433797 118.1690154 126.8875574 108.7252151 119.6853006 125.3276183
 109.1335507 119.2435416 124.5830816 108.0029413 119.1105633 125.5810376
 105.0783221 114.6225613 122.7009740 105.9244417 115.0465026 122.8444389
 105.0181859 113.9659237 123.3948303 109.0480966 120.2454196 119.0828472
 108.4189828 120.4099911 118.3804540 108.6606628 120.6595806 119.8539436
 112.9270198 121.1808634 116.4372836 112.2421236 121.5607536 115.8869869
 113.0114047 121.7903961 117.1704784 108.2282667 112.2829981 124.3590914
 107.9843599 113.0372041 123.8225190 108.5042597 112.6615329 125.1938161
 110.1821129 118.8268593 123.0368180 110.3938025 119.4700353 122.3602561
 110.1350878 117.9930910 122.5690110 107.7847358 111.4386414 119.9404752
 106.9231837 111.7367668 120.2321489 107.8109793 111.6556813 119.0085784
 104.6008928 119.9828605 116.3478557 105.0647273 120.2616307 115.5583180
 104.3365726 119.0812049 116.1651648 101.4933009 119.5300086 119.2858321
 102.0634366 119.9587354 118.6475805 102.0841121 119.2482671 119.9842506
 103.5377814 116.1051757 113.1568123 104.2401857 116.5572801 113.6242049
 103.2058442 115.4635576 113.7848016 101.9858175 114.6963514 127.5319332
 101.3556836 115.3779794 127.7654729 101.8794263 114.5846595 126.5872470
  97.2803148 114.3635310 118.4585256  96.4902202 114.6192838 117.9825367
  97.7714395 115.1783647 118.5637297 111.2966957 121.7040549 121.2090537
 112.1184401 121.3020736 120.9273219 111.2929360 121.6008783 122.1606653
  99.2317893 114.7279889 115.4168733  98.4349056 114.8398583 115.9352228
  99.0043485 115.0666541 114.5509623 105.0623561 121.2524592 123.3651247
 105.1267993 121.7144999 124.2009419 104.3534485 120.6221957 123.4933557
  95.5640851 114.6165800 120.8900247  95.8148889 115.5012810 121.1557823
  96.1000399 114.4370402 120.1175339 119.3872950 118.0479297 117.5575508
 118.6336659 117.4786695 117.4019513 119.5220492 118.0141962 118.5046143
 104.7771578 122.9192700 113.2330228 104.6417253 123.7644235 113.6615076
 105.3181391 123.1211977 112.4696162 101.2638918 108.9984279 129.8944583
 100.8705864 108.4450478 130.5692227 102.0805058 109.3094858 130.2851101
 104.1806879 110.4142158 127.4864840 104.9216592 111.0149312 127.4069302
 104.4124802 109.6719796 126.9282882  99.3248217 115.5998526 125.7643069
  99.2101732 114.6983783 126.0650168  98.4692735 115.8462222 125.4127886
 106.4040055 123.5416266 127.3630570 105.9603909 122.7552645 127.0451474
 107.0657268 123.7295417 126.6974461 101.1627176 125.0712068 121.8891248
 101.7134601 124.9429131 121.1168242 100.3238652 125.3706957 121.5386141
 108.5021293 123.8219066 125.3911971 108.4839768 124.6427947 124.8992240
 109.4241213 123.6973141 125.6162112 104.9594347 121.3363195 126.2335479
 105.4922684 120.5751484 126.0034787 104.4308428 121.0436847 126.9759634
 108.1264042 106.4423261 121.7629121 107.7828311 107.3324903 121.6868232
 108.4943005 106.2524919 120.8998706 108.0914325 116.4331872 110.2701556
 107.5760948 117.2036477 110.5089944 107.8191633 115.7597009 110.8934618
 105.6761436 111.2781573 115.3286795 104.8203032 110.8888424 115.1492433
 106.0888388 111.3573534 114.4686580 107.2060582 108.8127917 119.7278354
 106.7025378 108.7758052 118.9146160 107.4991189 109.7220659 119.7875011
 103.4503468 108.8966646 118.7344536 104.3156465 108.7009455 118.3750426
 103.5180977 108.6676998 119.6613893 113.0648599 119.1864227 112.2054730
 112.2878042 118.8475387 111.7609892 113.7440080 119.1916850 111.5309695
 107.8800628 114.3058965 112.0961338 107.5750764 114.6205114 112.9471481
 108.8331070 114.3840384 112.1388671 106.3247060 120.4649188 113.7454292
 105.7968421 119.7301947 113.4327529 105.8234563 121.2423864 113.4994260
 111.3039906 118.6598208 118.8621338 110.6463580 119.3497470 118.9501466
 112.1080305 119.0494640 119.2055324 101.0565787 111.1268854 116.1060903
 101.6309539 110.9044036 115.3734096 101.6436770 111.1957549 116.8589504
 110.1145365 117.0142581 116.9125280 110.6277246 117.6472573 117.4146989
 110.7646589 116.4143777 116.5468640 103.3588455 108.0010103 114.8335972
 102.7052867 107.6859120 114.2092587 103.3168929 107.3785844 115.5595795
 107.3767739 126.9926905 109.6685951 106.7029438 127.2958602 110.2770909
 107.7633561 127.7955986 109.3191408 106.5926195 114.4892037 119.1583620
 105.6748757 114.7106984 119.0005308 107.0086339 114.5638347 118.2995327
 107.3761243 115.8883452 114.2886300 108.1233062 116.4004850 113.9793422
 107.6452833 115.5667505 115.1490694 105.6487893 118.3841993 111.2713255
 104.7399113 118.1001026 111.3685724 105.6782977 118.8041072 110.4116561
 110.8807161 121.9948583 115.0404422 110.4269488 121.1539492 115.0969613
 110.2501128 122.6309981 115.3779202 109.8240080 112.9240569 116.2705090
 109.0862837 112.4117955 116.6015332 110.0766854 112.4840950 115.4588367
 109.3240100 123.8325079 115.9754240 109.6163074 124.3930136 115.2566606
 109.8338721 124.1253640 116.7307399 109.9251708 105.7016821 116.8646859
 110.2310585 104.8414184 116.5772774 110.6504313 106.2934441 116.6645853
 104.1972787 115.9970614 117.3723050 104.2521397 115.0444450 117.2965527
 103.3863989 116.1530053 117.8564348 102.1365147 114.6147673 115.1313429
 101.3233013 114.9141844 115.5378621 102.6324142 114.2203362 115.8487911
 104.2873725 124.6105430 117.0647694 104.2449904 124.8366277 116.1356226
 105.2036424 124.3768805 117.2133495 107.7339359 115.0789498 123.9628323
 108.0888747 115.3060971 124.8222788 108.3811490 115.4107875 123.3405578
 113.4637096 118.2007934 114.6677652 113.3254995 118.3909530 113.7398841
 113.1073315 118.9627317 115.1245703 101.6279222 112.1866029 120.7474664
 102.2678601 112.0454788 120.0497627 100.7956753 111.9000542 120.3713266
 113.4906476 120.2684461 119.6788923 113.9242982 120.1759750 120.5271977
 114.2038056 120.2441961 119.0408939 107.2234371 123.8686555 121.2122024
 107.2771393 124.4377491 121.9799740 106.3549152 124.0388440 120.8476061
  98.6307839 112.1566354 115.5247651  98.8914656 113.0711687 115.4156811
  99.4525011 111.6890796 115.6744263 100.1032764 113.5704111 122.6946475
 100.7755817 113.3621473 122.0459124  99.2762550 113.3726197 122.2551707
 114.3522025 120.3108161 122.2121809 114.5457915 121.2153972 122.4581084
 114.2522643 119.8515580 123.0460394 106.0058336 110.1966052 124.7112136
 105.3586251 110.8956002 124.6176612 106.7759351 110.6302196 125.0788384
 109.4137134 120.4614904 127.7862689 109.2622640 120.2325456 126.8692773
 109.4041813 121.4185506 127.7994034 106.1822470 118.0346817 122.7708956
 107.1114530 118.1857977 122.5977923 105.7613500 118.1230838 121.9157602
 104.9810802 122.0597481 120.5407493 104.8421888 121.6916266 121.4133431
 104.1925398 122.5745121 120.3691451 105.5758954 127.1606578 111.8833030
 105.7510710 126.6894621 112.6978653 104.8891742 127.7872344 112.1114291
 106.5316017 121.4379084 117.9296331 106.1965850 121.3979854 118.8253981
 106.0319963 120.7723800 117.4566741 100.5060261 116.8446714 123.4548912
 100.3680059 116.1126953 124.0560451 101.4165185 116.7555614 123.1733100
 103.1342562 116.5566673 122.9432592 103.8442180 115.9159866 122.9019210
 103.0911870 116.8079568 123.8658773 111.1229340 123.4934027 125.8639171
 111.0641887 122.8093247 125.1969754 111.5248859 124.2353017 125.4119797
 101.8471496 113.5431891 124.7628231 101.3108853 113.0922630 125.4149828
 101.2588204 113.6777800 124.0198696 100.1420039 130.3095941 118.6572890
 100.3816638 130.9414465 119.3351909  99.2989236 129.9583981 118.9438249
 111.1246748 121.4573611 124.0953151 110.2373527 121.1199532 124.2179550
 111.6945299 120.7256642 124.3321916  92.7775895 117.7897702 117.4196202
  93.4646935 117.4759432 116.8317218  92.6224024 118.6939067 117.1463454
  97.5810617 112.6787899 121.8481226  97.4968806 112.0713568 121.1131636
  96.7593323 113.1696917 121.8490722 104.6547901 126.1175063 121.0614394
 104.5818073 126.9230034 121.5733699 104.2125294 126.3167029 120.2362415
 104.4437681 125.3546833 114.5717216 103.6605203 125.8968513 114.6655440
 105.1430426 125.8720813 114.9711457 107.7534331 111.1641462 117.2151421
 108.2503030 110.4111425 116.8952491 106.9821312 111.2005779 116.6494630
 115.6064088 116.8681828 118.8569712 115.5953965 117.7506543 118.4863646
 114.7381468 116.5153379 118.6624250 107.1146585 126.0161897 123.2172553
 107.8274557 126.6509362 123.1448454 106.6236613 126.1125763 122.4012555
 108.8364112 119.9213150 114.7889844 107.9020390 120.0414612 114.6194549
 109.0140780 119.0185616 114.5249854 104.3369300 113.3058845 116.9423106
 103.9667087 112.7529886 117.6304011 104.8328392 112.7016979 116.3898106
 112.2236663 115.7630469 115.3239879 112.6897115 116.5958461 115.2500181
 112.6744163 115.2975451 116.0285137 102.1658498 123.7656340 124.0378124
 102.8667958 124.3992823 124.1907518 101.6953613 124.1071072 123.2773763
 110.2912894 122.1074290 112.3226031 110.5672738 121.9930885 113.2319905
 109.4217393 121.7091775 112.2838204 110.1953326 108.1311056 119.3630780
 109.2816405 108.3615283 119.5312987 110.6246427 108.2149500 120.2144812
 109.9659784 116.3200948 121.8630674 109.3131234 116.5676855 121.2083127
 110.3440164 115.5065086 121.5293151 106.9266958 126.3560641 115.9658844
 107.1089353 125.5382297 116.4286596 107.7499944 126.5728333 115.5283734
 107.2609124 125.2828826 113.2273893 107.7896890 124.7721281 112.6144055
 107.5237343 124.9671356 114.0919426 106.0147357 117.0620759 128.3496711
 105.3387994 116.9614888 129.0199086 106.8374991 116.9059973 128.8132708
  97.7626216 123.2992696 120.9709226  98.3479653 122.5536383 121.1037130
  97.5651055 123.6096652 121.8545890 100.6164871 126.3343943 115.9871669
  99.9475247 126.8190071 115.5035709 100.4777741 126.5813163 116.9015047
  92.3543871 115.8698296 119.6913669  92.3927971 115.3361886 120.4850787
  91.8484164 115.3433501 119.0724647 104.7570140 128.3687686 122.5854327
 105.3088448 128.5319308 123.3503412 105.0976334 128.9592124 121.9134352
  99.7334633 110.7162836 123.1876212  99.7975960 111.5777667 122.7753609
  99.6701754 110.1036838 122.4548570  99.2086906 112.7885969 126.8349246
  99.8358945 112.4063046 127.4486770  98.3514825 112.5700171 127.2004938
 109.6081014 123.1948944 128.4402981 110.1520918 123.8078902 127.9457936
 109.0267859 123.7528522 128.9569994 107.8938527 126.3169662 119.5718009
 107.7689667 125.5159402 119.0628955 108.5517618 126.8115855 119.0831979
  99.5146696 112.6718394 118.7495149  98.7933281 113.2854362 118.6102623
 100.3039951 113.2076159 118.6711795 109.9573436 124.1178682 121.1997559
 109.0103771 123.9984033 121.1275886 110.3056209 123.2301180 121.2823821
 102.3173009 110.0072821 125.0235801 102.8407411 110.2535118 125.7862110
 102.0985342 110.8392856 124.6038938 106.9619869 123.9131398 117.4001911
 106.8144831 122.9848106 117.5809481 107.7873363 123.9351489 116.9158987
 100.8282113 112.5649465 113.2582404 101.1678186 113.0935387 112.5361012
 101.2754234 112.9029871 114.0340970 110.5653991 124.7359957 118.4866784
 111.4900538 124.5302818 118.3491235 110.3969294 124.4876358 119.3956126
 103.5225554 110.9486516 122.7085472 103.1822375 110.1494329 123.1106152
 102.8164560 111.2488227 122.1362305 104.1742026 108.0335828 121.1612795
 104.9968095 107.5596307 121.0391685 104.4180090 108.8126312 121.6611481
 102.8150260 111.0624087 111.4575696 103.5358623 111.4405340 110.9539413
 102.1915565 111.7812964 111.5610674 106.9581383 111.7669236 112.3934029
 107.1744998 112.6493874 112.0922857 106.4775451 111.3755449 111.6639671
 101.6980605 114.7254949 118.9704773 101.5525185 115.0395252 119.8629055
 101.2205808 115.3439849 118.4175672 103.5576988 111.7157497 119.0185663
 103.5438556 110.8198590 118.6817961 104.2749416 111.7228161 119.6523949
 105.4103118 112.1494837 121.0638790 105.1520896 113.0711908 121.0623121
 104.8788159 111.7525272 121.7539254 110.3549307 125.2545624 113.8428876
 110.5286185 124.6892047 113.0902728 110.8478198 126.0546519 113.6608366
  96.1726267 117.2660294 121.9092434  95.6279735 118.0420101 122.0412709
  97.0505617 117.6131098 121.7511556 102.9613884 110.5971877 114.2873233
 103.0829795 109.6688524 114.4864120 102.6715926 110.6110563 113.3751548
 105.8305074 108.2826788 117.4239953 105.8526771 108.3466121 116.4691932
 106.2473133 107.4431296 117.6180459 116.2088698 118.0182047 115.4619175
 116.6519844 117.2689373 115.0638299 115.3315209 118.0092184 115.0792907
 111.3424480 124.5712389 110.9425774 112.0375384 125.1919082 111.1613089
 111.6847630 123.7207740 111.2178152  96.9592289 116.3930190 124.8022591
  96.2174025 116.5412825 125.3887222  96.6385033 116.6538455 123.9389341
 113.2415903 122.0212094 112.4713105 113.7667227 122.3599367 111.7462425
 113.1538255 121.0859110 112.2876239 104.9035951 125.9346168 124.6002981
 105.2123078 125.6895315 125.4725681 105.7011433 126.1392806 124.1121852
 104.9256563 128.0884078 116.8308358 104.4861554 127.5960456 117.5241215
 105.6764680 127.5457045 116.5900433  97.4048902 124.2795619 116.8332986
  98.2306922 123.9799390 116.4531629  97.0542954 123.5103241 117.2822775
 102.3730436 123.6322087 118.9030660 101.7510445 122.9692792 118.6032887
 103.0435303 123.6583219 118.2204307  95.6057507 122.1981945 117.7921920
  94.7689416 121.7704119 117.6105921  95.5781153 122.3914388 118.7292711
 102.4454963 112.1103875 128.4963166 102.4943119 112.9865998 128.1140935
 102.9877477 111.5681268 127.9234809 112.9309809 122.6544998 127.7764303
 112.1405352 122.6369137 127.2368802 112.6943163 123.1933292 128.5313339
 113.0507684 119.5037464 125.0897031 113.1005689 119.3387472 126.0312554
 112.9421607 118.6364723 124.6994912 110.3411446 115.4868392 126.4056338
 111.2421309 115.3474857 126.1140336 110.4159421 115.6522847 127.3454515
 104.6754252 112.8635247 125.2509524 103.8057561 113.1568813 124.9792113
 104.9113732 113.4475692 125.9716788 114.5525881 121.9234406 125.3339053
 114.2610689 122.2864386 126.1702514 113.9398012 121.2101414 125.1552385
 115.7521563 119.4887286 117.8541623 116.5868454 119.9277090 118.0179183
 115.8880692 119.0125939 117.0349869 112.8013069 117.0467021 123.8019111
 113.2767190 117.2394667 122.9937962 111.8778634 117.1026206 123.5562494
 107.3793285 109.0814864 122.7674945 107.8975229 109.8175891 122.4421433
 107.0248418 109.3878857 123.6021704 107.6305880 105.5015147 118.2875841
 107.9107633 104.8338336 118.9136268 108.4156486 105.6944242 117.7750505
 105.4339348 124.6774141 109.8500868 104.8613315 125.2964328 109.3971339
 106.0072142 125.2273502 110.3840789 111.5014738 113.9232781 122.0347416
 112.4532161 114.0230878 122.0559640 111.3318188 113.1311049 122.5445501
 109.5229117 111.0088364 122.2206817 108.9279049 111.2893377 121.5253306
 109.2378814 111.4982265 122.9923558 108.6536608 124.9611291 110.9809450
 109.5867281 124.8956852 111.1842325 108.5659821 125.7967558 110.5223982
 111.2824624 124.2777161 107.9413397 111.2038256 123.9437025 108.8349155
 112.1034291 124.7698929 107.9404870 113.9802816 117.1438900 121.1489716
 113.9479136 116.2054901 121.3349400 114.5903439 117.2222937 120.4155541
 114.1297304 113.9349944 121.1947999 113.6136353 113.1508400 121.0077928
 115.0137253 113.6068660 121.3594519 111.7908031 107.6790959 117.1543812
 111.5932852 107.3706048 118.0387144 112.4007737 108.4052598 117.2841742
 119.7979366 118.2054907 120.2895753 120.5282754 117.9440195 120.8503456
 119.1886311 117.4683629 120.3297821 117.8794663 116.3462770 120.8870204
 117.1527826 116.2118735 120.2786696 117.4641950 116.6539598 121.6926922
 105.7024839 120.0652699 128.6517577 106.6227849 120.2431298 128.8457623
 105.6674422 119.1208745 128.4997276  94.9207004 115.2591293 117.5770852
  94.6009788 114.4056601 117.2845226  94.3740432 115.4739871 118.3328819
  98.6986912 117.9753734 121.2940358  98.9172921 118.9070842 121.3128392
  99.1112685 117.6161708 122.0795162 105.6191129 108.4821819 113.2816047
 104.8091858 108.1368904 113.6571293 106.3075546 108.1729363 113.8703658
 107.5481678 107.5599866 114.9040343 108.1012716 107.9795320 115.5630366
 107.7851764 106.6335614 114.9463299 103.5714777 113.5486940 130.6843107
 103.4711504 114.4981297 130.6155198 103.3536319 113.2205179 129.8119177
  94.7895264 118.8794205 119.5463973  94.0958735 118.4648157 119.0333928
  95.5368255 118.9214741 118.9497392 110.9260485 109.6700391 114.4119007
 110.3459154 110.3285195 114.0297060 110.6596417 108.8477736 114.0006425
 109.3764051 109.0705449 116.6140328 109.8763830 109.1821984 115.8054647
 110.0199659 108.7666502 117.2541136 103.4346047 116.9784079 129.5008169
 102.9513129 117.7784439 129.7072058 103.5206986 116.9892024 128.5475613
  96.7032007 118.8112458 117.4229988  96.6802695 118.9100146 116.4711871
  97.0132643 119.6577609 117.7447154  99.3619384 120.8688613 121.5376603
 100.3162638 120.8372556 121.4706534  99.1631908 120.4079237 122.3526828
  99.9518767 119.4389729 124.1047400 100.7711656 119.9333808 124.1282237
 100.2255574 118.5221698 124.0764968 109.7085363 111.8300482 113.4675356
 108.8211218 112.1150132 113.2495550 110.1239352 111.6694245 112.6202633
 113.0599899 111.8547003 117.1829695 113.8360289 112.3443455 117.4554312
 112.3348033 112.2805057 117.6401564 115.4972458 112.5674622 118.2403636
 116.0916948 112.3270358 117.5296944 115.5699041 111.8481753 118.8677172
  97.7169613 126.4108233 118.5546800  97.5824081 125.6508634 117.9884798
  97.3001676 127.1349133 118.0875589 109.6826387 117.3455018 113.6825646
 109.6261588 117.8023569 112.8433278 110.2354729 116.5845702 113.5048489
 113.4931192 113.1344750 114.5075765 113.2368127 112.7341385 115.3383973
 112.8684060 113.8488543 114.3825904 117.8043530 115.8740823 117.0147057
 117.2443088 115.9434012 117.7878619 117.1987034 115.6981807 116.2946553
 100.8738739 127.3077550 118.7665243 100.7571123 128.2522982 118.6643933
 100.0531185 127.0051111 119.1551042 110.7615274 122.0327686 109.6121836
 111.5960878 121.6008884 109.4299311 110.5999617 121.8609699 110.5398730
 110.4161166 118.5359799 110.9778175 110.3609970 118.3704070 110.0366619
 109.7907221 119.2435832 111.1340365  95.2053681 113.7727863 124.8039597
  95.8512544 113.2626817 125.2926822  94.9970832 114.5096545 125.3783022
 107.7307073 120.8408711 130.3031738 108.5998233 121.0149363 129.9418373
 107.2513825 121.6603128 130.1807467 101.8993253 127.9605812 121.9821171
 102.8020500 127.9929422 122.2987666 101.6730623 127.0306263 121.9967507
 103.6546855 126.7136798 118.6431250 102.7042486 126.7138660 118.5295622
 103.9579341 125.9669533 118.1267285 107.5409411 104.6310685 114.8109430
 106.7741807 104.0769171 114.9566113 107.9520116 104.7032553 115.6723582
  99.5451172 110.9195480 128.9014611 100.4082633 110.5632285 129.1117936
  98.9716582 110.5809375 129.5890016 119.3899549 132.5497337 119.7077012
 120.0277959 132.4304084 119.0040353 119.2720392 133.4978181 119.7664965
 116.1989255 132.5024765 119.6438537 115.8607767 132.3865830 118.7559072
 117.0679023 132.1015930 119.6239543 112.0576071 134.3560241 115.6335428
 111.4940936 134.2650178 114.8651716 111.9428466 133.5360146 116.1137921
 116.6809038 133.6559617 125.6024743 116.6697679 133.2612415 124.7305246
 116.8429678 132.9225689 126.1958514 109.6040503 135.8511433 118.4719649
 110.3961795 135.5102257 118.0565948 109.8437153 135.9606408 119.3921802
 117.6375629 138.0231209 110.9449893 116.9863609 138.6085289 110.5583907
 118.4319992 138.5537404 111.0044930 111.5631257 135.1120346 111.3437027
 112.3362133 134.5649333 111.2049903 111.9156655 135.9764595 111.5551489
 113.4016299 136.4396728 124.5503927 113.1106165 137.3442359 124.4350593
 114.0373284 136.4813256 125.2647996 114.3272506 133.8173577 121.1405286
 114.9236078 133.5929599 120.4262249 114.3847478 133.0758322 121.7430734
 113.8997534 131.2713012 108.9755477 114.1523055 130.7494533 108.2138940
 112.9622094 131.1079158 109.0782161 118.9440817 130.2748791 116.7830221
 119.7303906 129.8568214 116.4320638 119.2079522 131.1794883 116.9511869
 119.1150895 135.7121641 111.4818877 118.4796728 135.7856267 112.1939782
 118.7848301 136.3015240 110.8037957 124.3449244 130.2124024 117.6863199
 125.0774416 129.6423241 117.9201029 123.5888600 129.8245624 118.1269705
 113.6193823 133.1741118 111.1779852 113.5030081 132.4986022 111.8460937
 113.7296083 132.6873492 110.3612005 115.9625364 132.6351265 114.8826541
 115.5983571 132.1081886 115.5939463 116.8192480 132.2449734 114.7093027
 121.8674665 123.9245598 122.1457808 121.5357990 124.7941009 121.9219023
 121.2720278 123.6081882 122.8251838 115.6030851 127.6641165 109.8787890
 115.7705253 128.5321401 110.2458361 115.4128020 127.8268447 108.9549179
 118.3606184 136.1258144 121.5453720 118.0606907 137.0283183 121.4369528
 118.0157244 135.8590327 122.3974873 111.8118666 132.5771941 117.5790425
 110.8869162 132.4448155 117.7868117 112.0603079 133.3566160 118.0760367
 121.7603328 128.6440684 119.2251158 120.8520205 128.5756092 118.9309919
 121.7090924 129.1212629 120.0532983 115.5820072 130.1198822 110.8634557
 115.4619697 130.5655873 111.7020037 114.8872660 130.4684140 110.3048095
 109.1727477 132.2205214 118.4134214 109.3019858 132.4739693 119.3273626
 108.4924928 132.8132922 118.0938869 113.3426964 142.8902464 114.5124688
 113.2650994 143.8410289 114.5913169 112.7388608 142.5448337 115.1699614
 115.8344194 130.0630330 127.1686055 115.0577528 130.6224250 127.1588920
 116.4734757 130.5487113 127.6900925 123.6264974 126.8457122 121.0029032
 122.9839355 127.1389656 120.3568826 123.1219903 126.7310043 121.8082228
 121.2805138 130.5920296 111.6914891 122.1922994 130.8247682 111.5162588
 120.7714785 131.1757340 111.1289969 114.0890566 132.8715783 126.7304022
 114.8305251 133.4100827 126.4538846 113.3827552 133.4982072 126.8875574
 115.9176976 129.9517530 122.7009740 116.7638171 130.3756944 122.8444389
 115.8575614 129.2951155 123.3948303 119.8874720 135.5746114 119.0828472
 119.2583583 135.7391828 118.3804540 119.5000383 135.9887724 119.8539436
 123.7663952 136.5100552 116.4372836 123.0814990 136.8899453 115.8869869
 123.8507802 137.1195879 117.1704784 119.0676421 127.6121899 124.3590914
 118.8237353 128.3663959 123.8225190 119.3436352 127.9907246 125.1938161
 121.0214884 134.1560511 123.0368180 121.2331779 134.7992271 122.3602561
 120.9744632 133.3222828 122.5690110 118.6241113 126.7678332 119.9404752
 117.7625592 127.0659585 120.2321489 118.6503548 126.9848731 119.0085784
 115.4402682 135.3120522 116.3478557 115.9041028 135.5908225 115.5583180
 115.1759480 134.4103967 116.1651648 112.3326763 134.8592004 119.2858321
 112.9028120 135.2879272 118.6475805 112.9234875 134.5774588 119.9842506
 114.3771568 131.4343675 113.1568123 115.0795612 131.8864718 113.6242049
 114.0452197 130.7927493 113.7848016 112.8251930 130.0255431 127.5319332
 112.1950590 130.7071712 127.7654729 112.7188018 129.9138513 126.5872470
 108.1196902 129.6927227 118.4585256 107.3295956 129.9484756 117.9825367
 108.6108150 130.5075565 118.5637297 122.1360712 137.0332466 121.2090537
 122.9578156 136.6312654 120.9273219 122.1323115 136.9300701 122.1606653
 110.0711648 130.0571806 115.4168733 109.2742811 130.1690501 115.9352228
 109.8437240 130.3958459 114.5509623 115.9017315 136.5816510 123.3651247
 115.9661748 137.0436917 124.2009419 115.1928239 135.9513875 123.4933557
 106.4034605 129.9457718 120.8900247 106.6542644 130.8304728 121.1557823
 106.9394154 129.7662319 120.1175339 130.2266705 133.3771215 117.5575508
 129.4730413 132.8078613 117.4019513 130.3614246 133.3433879 118.5046143
 115.6165333 138.2484617 113.2330228 115.4811008 139.0936153 113.6615076
 116.1575145 138.4503895 112.4696162 112.1032673 124.3276197 129.8944583
 111.7099618 123.7742396 130.5692227 112.9198813 124.6386776 130.2851101
 109.0694730 135.7660055 113.8058153 109.5819251 136.5603305 113.9563718
 109.7217443 135.0686346 113.7391754 110.8789615 138.8825811 115.8880906
 111.0556243 139.8043776 115.7001890 111.6746449 138.5684231 116.3175286
 115.0200634 125.7434076 127.4864840 115.7610347 126.3441229 127.4069302
 115.2518556 125.0011714 126.9282882 110.1641972 130.9290443 125.7643069
 110.0495487 130.0275701 126.0650168 109.3086489 131.1754140 125.4127886
 112.0020931 140.4003985 121.8891248 112.5528356 140.2721049 121.1168242
 111.1632406 140.6998874 121.5386141 118.9657797 121.7715179 121.7629121
 118.6222066 122.6616821 121.6868232 119.3336759 121.5816837 120.8998706
 107.0343647 134.0948710 114.5817723 107.8718869 134.5045718 114.3651431
 107.2121915 133.1548152 114.5517917 118.9308079 131.7623790 110.2701556
 118.4154703 132.5328395 110.5089944 118.6585388 131.0888926 110.8934618
 116.5155190 126.6073491 115.3286795 115.6596787 126.2180341 115.1492433
 116.9282142 126.6865452 114.4686580 118.0454337 124.1419834 119.7278354
 117.5419133 124.1049969 118.9146160 118.3384944 125.0512577 119.7875011
 114.2897223 124.2258564 118.7344536 115.1550220 124.0301373 118.3750426
 114.3574732 123.9968916 119.6613893 123.9042353 134.5156145 112.2054730
 123.1271796 134.1767304 111.7609892 124.5833834 134.5208768 111.5309695
 118.7194382 129.6350882 112.0961338 118.4144518 129.9497031 112.9471481
 119.6724825 129.7132302 112.1388671 117.1640814 135.7941106 113.7454292
 116.6362176 135.0593865 113.4327529 116.6628317 136.5715782 113.4994260
 122.1433660 133.9890126 118.8621338 121.4857335 134.6789387 118.9501466
 122.9474060 134.3786558 119.2055324 111.8959542 126.4560772 116.1060903
 112.4703294 126.2335953 115.3734096 112.4830524 126.5249466 116.8589504
 120.9539119 132.3434499 116.9125280 121.4671001 132.9764491 117.4146989
 121.6040343 131.7435694 116.5468640 112.2229129 128.4865233 110.1256788
 111.3866441 128.8239919 110.4466063 112.0833899 128.3514213 109.1883925
 114.1982210 123.3302021 114.8335972 113.5446622 123.0151038 114.2092587
 114.1562684 122.7077761 115.5595795 115.3093414 133.6121316 106.7489265
 114.4020476 133.3810569 106.9480414 115.8064446 132.8158935 106.9363246
 118.2161493 142.3218823 109.6685951 117.5423192 142.6250520 110.2770909
 118.6027315 143.1247903 109.3191408 117.4319950 129.8183954 119.1583620
 116.5142511 130.0398901 119.0005308 117.8480094 129.8930265 118.2995327
 118.2154998 131.2175370 114.2886300 118.9626817 131.7296767 113.9793422
 118.4846587 130.8959423 115.1490694 116.4881648 133.7133911 111.2713255
 115.5792867 133.4292944 111.3685724 116.5176732 134.1332989 110.4116561
 121.7200915 137.3240500 115.0404422 121.2663242 136.4831410 115.0969613
 121.0894882 137.9601899 115.3779202 120.6633835 128.2532486 116.2705090
 119.9256592 127.7409872 116.6015332 120.9160608 127.8132868 115.4588367
 120.1633855 139.1616997 115.9754240 120.4556829 139.7222054 115.2566606
 120.6732475 139.4545558 116.7307399 120.7645462 121.0308738 116.8646859
 121.0704339 120.1706102 116.5772774 121.4898067 121.6226358 116.6645853
 107.0569818 131.4339425 115.2528457 106.8594218 130.8408786 114.5279523
 106.5016482 131.1291635 115.9704396 115.0366542 131.3262531 117.3723050
 115.0915152 130.3736368 117.2965527 114.2257744 131.4821970 117.8564348
 116.1857736 135.2542654 108.6101333 115.7477166 134.5378513 108.1506971
 116.9268177 135.4818769 108.0486425 112.9758902 129.9439591 115.1313429
 112.1626767 130.2433762 115.5378621 113.4717896 129.5495280 115.8487911
 115.1267480 139.9397348 117.0647694 115.0843659 140.1658194 116.1356226
 116.0430179 139.7060723 117.2133495 118.5733114 130.4081416 123.9628323
 118.9282501 130.6352889 124.8222788 119.2205245 130.7399792 123.3405578
 124.3030850 133.5299851 114.6677652 124.1648749 133.7201447 113.7398841
 123.9467069 134.2919234 115.1245703 112.4672977 127.5157947 120.7474664
 113.1072356 127.3746706 120.0497627 111.6350507 127.2292460 120.3713266
 124.3300230 135.5976378 119.6788923 124.7636737 135.5051668 120.5271977
 125.0431811 135.5733879 119.0408939 113.2433281 136.8160377 116.8609656
 114.0373879 136.3210697 116.6592231 112.5324973 136.2878240 116.4977362
 118.0628125 139.1978473 121.2122024 118.1165147 139.7669409 121.9799740
 117.1942906 139.3680358 120.8476061 109.5516044 130.9603459 112.9369409
 108.6213632 130.8987914 113.1539371 109.6473516 130.4379411 112.1406050
 109.4701593 127.4858272 115.5247651 109.7308410 128.4003605 115.4156811
 110.2918765 127.0182714 115.6744263 110.9426518 128.8996029 122.6946475
 111.6149572 128.6913391 122.0459124 110.1156305 128.7018115 122.2551707
 116.8452090 125.5257970 124.7112136 116.1980005 126.2247919 124.6176612
 117.6153106 125.9594114 125.0788384 117.0216225 133.3638735 122.7708956
 117.9508285 133.5149894 122.5977923 116.6007255 133.4522755 121.9157602
 115.8204557 137.3889399 120.5407493 115.6815642 137.0208183 121.4133431
 115.0319153 137.9037038 120.3691451 116.4152708 142.4898495 111.8833030
 116.5904464 142.0186539 112.6978653 115.7285497 143.1164262 112.1114291
 117.3709772 136.7671002 117.9296331 117.0359604 136.7271772 118.8253981
 116.8713717 136.1015718 117.4566741 111.3454016 132.1738632 123.4548912
 111.2073814 131.4418871 124.0560451 112.2558939 132.0847532 123.1733100
 120.3068963 134.1127036 108.2033391 119.6898134 133.3873864 108.1066443
 119.8385452 134.8736396 107.8600465 113.9736316 131.8858591 122.9432592
 114.6835935 131.2451783 122.9019210 113.9305624 132.1371486 123.8658773
 112.6865250 128.8723809 124.7628231 112.1502607 128.4214547 125.4149828
 112.0981959 129.0069718 124.0198696 110.9813794 145.6387858 118.6572890
 111.2210392 146.2706382 119.3351909 110.1382990 145.2875898 118.9438249
 112.0967509 128.3312460 107.3254695 111.2196976 128.2101261 106.9616942
 112.5725262 127.5398539 107.0733584 103.6169649 133.1189620 117.4196202
 104.3040689 132.8051350 116.8317218 103.4617778 134.0230985 117.1463454
 108.4204372 128.0079817 121.8481226 108.3362560 127.4005486 121.1131636
 107.5987078 128.4988835 121.8490722 115.4941656 141.4466981 121.0614394
 115.4211827 142.2521952 121.5733699 115.0519049 141.6458946 120.2362415
 115.2831435 140.6838751 114.5717216 114.4998957 141.2260431 114.6655440
 115.9824180 141.2012730 114.9711457 118.5928085 126.4933380 117.2151421
 119.0896785 125.7403342 116.8952491 117.8215067 126.5297697 116.6494630
 126.4457843 132.1973746 118.8569712 126.4347719 133.0798461 118.4863646
 125.5775222 131.8445297 118.6624250 119.6757866 135.2505067 114.7889844
 118.7414145 135.3706530 114.6194549 119.8534535 134.3477534 114.5249854
 115.1763054 128.6350763 116.9423106 114.8060842 128.0821804 117.6304011
 115.6722147 128.0308897 116.3898106 123.0630417 131.0922387 115.3239879
 123.5290870 131.9250378 115.2500181 123.5137918 130.6267368 116.0285137
 113.0052253 139.0948258 124.0378124 113.7061712 139.7284741 124.1907518
 112.5347368 139.4362990 123.2773763 121.1306649 137.4366208 112.3226031
 121.4066492 137.3222803 113.2319905 120.2611147 137.0383693 112.2838204
 121.0347080 123.4602974 119.3630780 120.1210160 123.6907200 119.5312987
 121.4640182 123.5441418 120.2144812 120.8053539 131.6492866 121.8630674
 120.1524989 131.8968773 121.2083127 121.1833919 130.8357004 121.5293151
 117.7660713 141.6852559 115.9658844 117.9483107 140.8674215 116.4286596
 118.5893699 141.9020251 115.5283734 118.1002878 140.6120744 113.2273893
 118.6290644 140.1013199 112.6144055 118.3631098 140.2963274 114.0919426
 108.6019971 138.6284613 120.9709226 109.1873408 137.8828301 121.1037130
 108.4044809 138.9388570 121.8545890 111.4558626 141.6635861 115.9871669
 110.7869001 142.1481988 115.5035709 111.3171496 141.9105081 116.9015047
 103.1937625 131.1990213 119.6913669 103.2321725 130.6653804 120.4850787
 102.6877918 130.6725419 119.0724647 110.5728388 126.0454754 123.1876212
 110.6369714 126.9069585 122.7753609 110.5095508 125.4328756 122.4548570
 110.0480660 128.1177886 126.8349246 110.6752699 127.7354964 127.4486770
 109.1908579 127.8992088 127.2004938 106.8246203 129.9254316 112.7667601
 107.1199644 129.0164994 112.7134654 105.9234239 129.9042055 112.4448603
 118.7332282 141.6461580 119.5718009 118.6083421 140.8451319 119.0628955
 119.3911373 142.1407773 119.0831979 110.3540450 128.0010312 118.7495149
 109.6327036 128.6146280 118.6102623 111.1433706 128.5368077 118.6711795
 120.7967190 139.4470600 121.1997559 119.8497526 139.3275951 121.1275886
 121.1449963 138.5593098 121.2823821 113.1566764 125.3364739 125.0235801
 113.6801165 125.5827035 125.7862110 112.9379097 126.1684773 124.6038938
 108.5534045 127.6068413 112.8906926 108.2246751 126.7265792 112.7082032
 108.9073415 127.5516082 113.7783315 117.8013624 139.2423316 117.4001911
 117.6538586 138.3140023 117.5809481 118.6267117 139.2643407 116.9158987
 111.6675868 127.8941383 113.2582404 112.0071940 128.4227304 112.5361012
 112.1147988 128.2321789 114.0340970 121.4047745 140.0651875 118.4866784
 122.3294293 139.8594736 118.3491235 121.2363049 139.8168276 119.3956126
 114.3619309 126.2778434 122.7085472 114.0216129 125.4786247 123.1106152
 113.6558315 126.5780145 122.1362305 115.0135780 123.3627746 121.1612795
 115.8361850 122.8888224 121.0391685 115.2573844 124.1418230 121.6611481
 113.6544015 126.3916005 111.4575696 114.3752377 126.7697257 110.9539413
 113.0309319 127.1104881 111.5610674 117.7975138 127.0961154 112.3934029
 118.0138752 127.9785791 112.0922857 117.3169205 126.7047367 111.6639671
 112.5374359 130.0546867 118.9704773 112.3918940 130.3687170 119.8629055
 112.0599563 130.6731767 118.4175672 114.3970742 127.0449415 119.0185663
 114.3832311 126.1490508 118.6817961 115.1143170 127.0520079 119.6523949
 116.2496873 127.4786755 121.0638790 115.9914651 128.4003826 121.0623121
 115.7181913 127.0817190 121.7539254 121.1943062 140.5837542 113.8428876
 121.3679939 140.0183965 113.0902728 121.6871953 141.3838437 113.6608366
 107.0120021 132.5952211 121.9092434 106.4673489 133.3712019 122.0412709
 107.8899371 132.9423016 121.7511556 113.8007638 125.9263795 114.2873233
 113.9223549 124.9980441 114.4864120 113.5109680 125.9402481 113.3751548
 116.6698828 123.6118706 117.4239953 116.6920525 123.6758039 116.4691932
 117.0866887 122.7723214 117.6180459 127.0482453 133.3473965 115.4619175
 127.4913599 132.5981290 115.0638299 126.1708963 133.3384101 115.0792907
 122.1818234 139.9004307 110.9425774 122.8769139 140.5210999 111.1613089
 122.5241384 139.0499658 111.2178152 107.7986043 131.7222107 124.8022591
 107.0567779 131.8704743 125.3887222 107.4778788 131.9830373 123.9389341
 124.0809657 137.3504012 112.4713105 124.6060981 137.6891285 111.7462425
 123.9932010 136.4151027 112.2876239 115.7650318 143.4175995 116.8308358
 115.3255308 142.9252374 117.5241215 116.5158435 142.8748963 116.5900433
 108.2442657 139.6087536 116.8332986 109.0700677 139.3091308 116.4531629
 107.8936709 138.8395159 117.2822775 113.2124190 138.9614004 118.9030660
 112.5904199 138.2984709 118.6032887 113.8829057 138.9875136 118.2204307
 106.4451262 137.5273863 117.7921920 105.6083170 137.0996037 117.6105921
 106.4174907 137.7206306 118.7292711 113.2848718 127.4395792 128.4963166
 113.3336873 128.3157915 128.1140935 113.8271232 126.8973185 127.9234809
 112.7737697 137.5117928 112.3789120 112.9225817 138.1953392 111.7255793
 113.5804140 137.4923018 112.8938576 115.5148006 128.1927165 125.2509524
 114.6451315 128.4860731 124.9792113 115.7507486 128.7767610 125.9716788
 126.5915317 134.8179203 117.8541623 127.4262209 135.2569007 118.0179183
 126.7274446 134.3417857 117.0349869 123.6406823 132.3758938 123.8019111
 124.1160945 132.5686585 122.9937962 122.7172389 132.4318124 123.5562494
 110.5290330 133.5383105 113.3850189 110.2836372 132.6345435 113.5830399
 110.6986245 133.5400256 112.4429667 118.2187040 124.4106782 122.7674945
 118.7368984 125.1467809 122.4421433 117.8642173 124.7170775 123.6021704
 109.7985978 129.2711463 110.8836350 109.1055222 129.3455818 110.2276386
 109.5537729 128.5071807 111.4057867 118.4699634 120.8307064 118.2875841
 118.7501388 120.1630253 118.9136268 119.2550241 121.0236160 117.7750505
 116.2733103 140.0066058 109.8500868 115.7007070 140.6256245 109.3971339
 116.8465896 140.5565420 110.3840789 122.3408492 129.2524698 122.0347416
 123.2925915 129.3522796 122.0559640 122.1711943 128.4602967 122.5445501
 120.3622872 126.3380282 122.2206817 119.7672804 126.6185294 121.5253306
 120.0772569 126.8274182 122.9923558 119.4930362 140.2903208 110.9809450
 120.4261035 140.2248770 111.1842325 119.4053575 141.1259475 110.5223982
 122.1218379 139.6069079 107.9413397 122.0432011 139.2728942 108.8349155
 122.9428046 140.0990847 107.9404870 124.8196570 132.4730818 121.1489716
 124.7872890 131.5346819 121.3349400 125.4297194 132.5514855 120.4155541
 116.6579901 131.3426871 107.1916920 117.6039006 131.2133079 107.2605338
 116.2794146 130.6041533 107.6686348 124.9691059 129.2641861 121.1947999
 124.4530107 128.4800318 121.0077928 125.8531007 128.9360578 121.3594519
 122.6301786 123.0082877 117.1543812 122.4326607 122.6997965 118.0387144
 123.2401491 123.7344516 117.2841742 130.6373120 133.5346825 120.2895753
 131.3676508 133.2732113 120.8503456 130.0280065 132.7975547 120.3297821
 128.7188417 131.6754687 120.8870204 127.9921581 131.5410652 120.2786696
 128.3035704 131.9831516 121.6926922 114.8422818 129.2676847 107.1271805
 113.9354274 128.9709960 107.2034519 115.1198799 128.9706665 106.2606091
 105.7600759 130.5883211 117.5770852 105.4403543 129.7348519 117.2845226
 105.2134187 130.8031789 118.3328819 109.5380666 133.3045652 121.2940358
 109.7566676 134.2362760 121.3128392 109.9506440 132.9453626 122.0795162
 116.4584884 123.8113737 113.2816047 115.6485612 123.4660822 113.6571293
 117.1469301 123.5021281 113.8703658 118.3875432 122.8891784 114.9040343
 118.9406471 123.3087237 115.5630366 118.6245519 121.9627532 114.9463299
 113.6121603 126.1263783 107.2683784 114.4740767 126.4518681 107.5279602
 113.7971947 125.3395278 106.7556850 105.6289019 134.2086122 119.5463973
 104.9352490 133.7940075 119.0333928 106.3762010 134.2506659 118.9497392
 121.7654239 124.9992309 114.4119007 121.1852908 125.6577113 114.0297060
 121.4990172 124.1769654 114.0006425 120.2157806 124.3997367 116.6140328
 120.7157584 124.5113901 115.8054647 120.8593414 124.0958420 117.2541136
 107.5425761 134.1404376 117.4229988 107.5196449 134.2392063 116.4711871
 107.8526398 134.9869527 117.7447154 110.2013139 136.1980531 121.5376603
 111.1556393 136.1664473 121.4706534 110.0025663 135.7371155 122.3526828
 110.7912521 134.7681647 124.1047400 111.6105410 135.2625726 124.1282237
 111.0649329 133.8513615 124.0764968 120.5479117 127.1592399 113.4675356
 119.6604972 127.4442050 113.2495550 120.9633106 126.9986163 112.6202633
 123.8993653 127.1838920 117.1829695 124.6754044 127.6735373 117.4554312
 123.1741788 127.6096975 117.6401564 126.3366212 127.8966540 118.2403636
 126.9310703 127.6562276 117.5296944 126.4092796 127.1773670 118.8677172
 108.5563368 141.7400151 118.5546800 108.4217836 140.9800551 117.9884798
 108.1395430 142.4641050 118.0875589 119.6922331 136.9237074 107.5623376
 120.3958181 137.1287077 108.1781031 118.9684980 137.4913836 107.8272459
 120.5220141 132.6746935 113.6825646 120.4655342 133.1315487 112.8433278
 121.0748484 131.9137620 113.5048489 124.3324947 128.4636667 114.5075765
 124.0761881 128.0633303 115.3383973 123.7077815 129.1780461 114.3825904
 128.6437285 131.2032740 117.0147057 128.0836843 131.2725930 117.7878619
 128.0380788 131.0273725 116.2946553 111.7132494 142.6369468 118.7665243
 111.5964878 143.5814900 118.6643933 110.8924940 142.3343029 119.1551042
 121.6009028 137.3619603 109.6121836 122.4354632 136.9300802 109.4299311
 121.4393371 137.1901617 110.5398730 121.2554920 133.8651717 110.9778175
 121.2003724 133.6995988 110.0366619 120.6300976 134.5727750 111.1340365
 106.0447435 129.1019781 124.8039597 106.6906299 128.5918735 125.2926822
 105.8364586 129.8388463 125.3783022 114.5651046 123.3659826 110.5563493
 114.5529716 124.3101666 110.7131764 115.4574468 123.1829971 110.2622955
 112.7387008 143.2897729 121.9821171 113.6414254 143.3221340 122.2987666
 112.5124378 142.3598180 121.9967507 114.4940610 142.0428716 118.6431250
 113.5436241 142.0430578 118.5295622 114.7973096 141.2961451 118.1267285
 118.3803165 119.9602602 114.8109430 117.6135561 119.4061089 114.9566113
 118.7913870 120.0324471 115.6723582 110.3844926 126.2487398 128.9014611
 111.2476388 125.8924203 129.1117936 109.8110337 125.9101293 129.5890016
 122.4025011 150.4412264 111.3437027 123.1755887 149.8941251 111.2049903
 122.7550410 151.3056513 111.5551489 124.7391289 146.6004930 108.9755477
 124.9916810 146.0786451 108.2138940 123.8015848 146.4371075 109.0782161
 124.4587578 148.5033036 111.1779852 124.3423836 147.8277939 111.8460937
 124.5689838 148.0165410 110.3612005 126.4424606 142.9933083 109.8787890
 126.6099008 143.8613319 110.2458361 126.2521775 143.1560364 108.9549179
 126.4213826 145.4490740 110.8634557 126.3013452 145.8947791 111.7020037
 125.7266415 145.7976058 110.3048095 132.1198893 145.9212213 111.6914891
 133.0316749 146.1539600 111.5162588 131.6108540 146.5049258 111.1289969
 125.2165323 146.7635592 113.1568123 125.9189366 147.2156636 113.6242049
 124.8845951 146.1219411 113.7848016 118.9590657 145.0219145 118.4585256
 118.1689711 145.2776673 117.9825367 119.4501904 145.8367483 118.5637297
 120.9105402 145.3863724 115.4168733 120.1136565 145.4982418 115.9352228
 120.6830994 145.7250376 114.5509623 119.9088485 151.0951973 113.8058153
 120.4213005 151.8895223 113.9563718 120.5611198 150.3978263 113.7391754
 117.8737402 149.4240627 114.5817723 118.7112624 149.8337636 114.3651431
 118.0515669 148.4840069 114.5517917 129.7701834 147.0915708 110.2701556
 129.2548457 147.8620312 110.5089944 129.4979142 146.4180844 110.8934618
 127.3548945 141.9365409 115.3286795 126.4990541 141.5472259 115.1492433
 127.7675897 142.0157369 114.4686580 125.1290977 139.5550482 118.7344536
 125.9943974 139.3593290 118.3750426 125.1968486 139.3260833 119.6613893
 129.5588137 144.9642800 112.0961338 129.2538273 145.2788949 112.9471481
 130.5118579 145.0424220 112.1388671 122.7353296 141.7852690 116.1060903
 123.3097048 141.5627871 115.3734096 123.3224279 141.8541384 116.8589504
 123.0622883 143.8157151 110.1256788 122.2260196 144.1531837 110.4466063
 122.9227653 143.6806130 109.1883925 125.0375964 138.6593938 114.8335972
 124.3840376 138.3442956 114.2092587 124.9956438 138.0369679 115.5595795
 126.1487169 148.9413234 106.7489265 125.2414231 148.7102487 106.9480414
 126.6458201 148.1450853 106.9363246 127.3275402 149.0425828 111.2713255
 126.4186622 148.7584861 111.3685724 127.3570486 149.4624907 110.4116561
 131.6039217 136.3600656 116.8646859 131.9098094 135.4998019 116.5772774
 132.3291822 136.9518276 116.6645853 117.8963573 146.7631343 115.2528457
 117.6987973 146.1700703 114.5279523 117.3410237 146.4583553 115.9704396
 127.0251490 150.5834572 108.6101333 126.5870920 149.8670431 108.1506971
 127.7661931 150.8110687 108.0486425 123.8152656 145.2731509 115.1313429
 123.0020522 145.5725679 115.5378621 124.3111651 144.8787198 115.8487911
 120.3909798 146.2895376 112.9369409 119.4607387 146.2279832 113.1539371
 120.4867270 145.7671329 112.1406050 120.3095348 142.8150189 115.5247651
 120.5702165 143.7295522 115.4156811 121.1312520 142.3474632 115.6744263
 131.1462718 149.4418954 108.2033391 130.5291888 148.7165782 108.1066443
 130.6779206 150.2028314 107.8600465 122.9361264 143.6604378 107.3254695
 122.0590730 143.5393179 106.9616942 123.4119017 142.8690456 107.0733584
 114.4563404 148.4481538 117.4196202 115.1434444 148.1343268 116.8317218
 114.3011533 149.3522902 117.1463454 129.4321840 141.8225298 117.2151421
 129.9290539 141.0695260 116.8952491 128.6608821 141.8589614 116.6494630
 126.0156809 143.9642681 116.9423106 125.6454596 143.4113721 117.6304011
 126.5115901 143.3600814 116.3898106 114.0331380 146.5282131 119.6913669
 114.0715479 145.9945722 120.4850787 113.5271673 146.0017337 119.0724647
 117.6639958 145.2546233 112.7667601 117.9593399 144.3456912 112.7134654
 116.7627993 145.2333973 112.4448603 121.1934205 143.3302230 118.7495149
 120.4720790 143.9438198 118.6102623 121.9827460 143.8659995 118.6711795
 119.3927799 142.9360331 112.8906926 119.0640505 142.0557710 112.7082032
 119.7467170 142.8808000 113.7783315 122.5069622 143.2233301 113.2582404
 122.8465695 143.7519222 112.5361012 122.9541743 143.5613707 114.0340970
 124.4937769 141.7207922 111.4575696 125.2146132 142.0989175 110.9539413
 123.8703074 142.4396799 111.5610674 128.6368892 142.4253071 112.3934029
 128.8532507 143.3077709 112.0922857 128.1562959 142.0339285 111.6639671
 124.6401393 141.2555713 114.2873233 124.7617304 140.3272359 114.4864120
 124.3503435 141.2694399 113.3751548 127.5092583 138.9410623 117.4239953
 127.5314280 139.0049956 116.4691932 127.9260642 138.1015132 117.6180459
 123.6131451 152.8409845 112.3789120 123.7619572 153.5245310 111.7255793
 124.4197895 152.8214936 112.8938576 121.3684084 148.8675023 113.3850189
 121.1230126 147.9637353 113.5830399 121.5379999 148.8692174 112.4429667
 120.6379732 144.6003381 110.8836350 119.9448977 144.6747736 110.2276386
 120.3931484 143.8363724 111.4057867 129.3093389 136.1598982 118.2875841
 129.5895142 135.4922171 118.9136268 130.0943995 136.3528078 117.7750505
 127.4973656 146.6718789 107.1916920 128.4432760 146.5424997 107.2605338
 127.1187900 145.9333451 107.6686348 125.6816573 144.5968765 107.1271805
 124.7748028 144.3001878 107.2034519 125.9592554 144.2998583 106.2606091
 116.5994513 145.9175128 117.5770852 116.2797297 145.0640437 117.2845226
 116.0527941 146.1323707 118.3328819 127.2978638 139.1405655 113.2816047
 126.4879367 138.7952740 113.6571293 127.9863055 138.8313198 113.8703658
 129.2269187 138.2183702 114.9040343 129.7800225 138.6379155 115.5630366
 129.4639273 137.2919450 114.9463299 124.4515357 141.4555700 107.2683784
 125.3134521 141.7810599 107.5279602 124.6365701 140.6687196 106.7556850
 132.6047994 140.3284227 114.4119007 132.0246663 140.9869031 114.0297060
 132.3383926 139.5061571 114.0006425 131.0551560 139.7289284 116.6140328
 131.5551338 139.8405819 115.8054647 131.6987168 139.4250337 117.2541136
 131.3872872 142.4884317 113.4675356 130.4998727 142.7733968 113.2495550
 131.8026861 142.3278080 112.6202633 132.0948675 149.1943634 110.9778175
 132.0397479 149.0287906 110.0366619 131.4694730 149.9019667 111.1340365
 125.4044800 138.6951743 110.5563493 125.3923470 139.6393583 110.7131764
 126.2968222 138.5121889 110.2622955 129.2196920 135.2894520 114.8109430
 128.4529316 134.7353007 114.9566113 129.6307625 135.3616389 115.6723582
  43.5143269   2.2516036 106.4322319  44.1521679   2.1322783 105.7285659
  43.3964111   3.1996880 106.4910271  40.3232975   2.2043464 106.3683844
  39.9851486   2.0884528 105.4804379  41.1922743   1.8034629 106.3484850
  36.1819791   4.0578940 102.3580735  35.6184656   3.9668877 101.5897023
  36.0672186   3.2378845 102.8383227  40.8052758   3.3578315 112.3270049
  40.7941399   2.9631114 111.4550553  40.9673397   2.6244388 112.9203821
  33.7284223   5.5530132 105.1964955  34.5205514   5.2120956 104.7811255
  33.9680873   5.6625107 106.1167109  41.7619349   7.7249908  97.6695200
  41.1107329   8.3103988  97.2829213  42.5563712   8.2556103  97.7290237
  35.6874976   4.8139045  98.0682334  36.4605852   4.2668032  97.9295210
  36.0400375   5.6783294  98.2796795  37.5260019   6.1415427 111.2749233
  37.2349885   7.0461058 111.1595900  38.1617003   6.1831955 111.9893303
  38.4516226   3.5192276 107.8650593  39.0479798   3.2948298 107.1507556
  38.5091197   2.7777021 108.4676041  38.0241254   0.9731711  95.7000784
  38.2766775   0.4513232  94.9384247  37.0865813   0.8097857  95.8027468
  43.0684537  -0.0232511 103.5075527  43.8547626  -0.4413087 103.1565944
  43.3323241   0.8813582 103.6757176  43.2394614   5.4140340  98.2064184
  42.6040447   5.4874966  98.9185089  42.9092021   6.0033939  97.5283263
  48.4692964  -0.0857277 104.4108506  49.2018136  -0.6558061 104.6446335
  47.7132320  -0.4735677 104.8515011  37.7437543   2.8759817  97.9025159
  37.6273801   2.2004720  98.5706243  37.8539803   2.3892191  97.0857312
  40.0869084   2.3369964 101.6071848  39.7227291   1.8100585 102.3184770
  40.9436200   1.9468433 101.4338334  45.9918385  -6.3735703 108.8703114
  45.6601709  -5.5040292 108.6464329  45.3963998  -6.6899419 109.5497145
  39.7274571  -2.6340136  96.6033197  39.8948973  -1.7659900  96.9703668
  39.5371740  -2.4712854  95.6794486  42.4849904   5.8276843 108.2699027
  42.1850627   6.7301882 108.1614834  42.1400964   5.5609026 109.1220180
  35.9362386   2.2790640 104.3035731  35.0112882   2.1466854 104.5113423
  36.1846799   3.0584859 104.8005674  45.8847048  -1.6540617 105.9496464
  44.9763925  -1.7225209 105.6555225  45.8334644  -1.1768672 106.7778290
  39.7063792  -0.1782479  97.5879863  39.5863417   0.2674572  98.4265344
  39.0116380   0.1702839  97.0293402  33.2971197   1.9223913 105.1379520
  33.4263578   2.1758392 106.0518932  32.6168648   2.5151621 104.8184176
  37.4670684  12.5921163 101.2369995  37.3894714  13.5428988 101.3158475
  36.8632327  12.2467036 101.8944921  47.7508694  -3.4524179 107.7274338
  47.1083075  -3.1591646 107.0814133  47.2463623  -3.5671258 108.5327535
  45.4048858   0.2938995  98.4160198  46.3166714   0.5266381  98.2407895
  44.8958505   0.8776039  97.8535276  38.2134286   2.5734482 113.4549329
  38.9548970   3.1119526 113.1784152  37.5071271   3.2000771 113.6120880
  43.6889626   4.7163622 112.0521490  44.0972982   4.2746033 111.3076122
  42.9666887   4.1416250 112.3055683  40.0420696  -0.3463771 109.4255047
  40.8881891   0.0775643 109.5689696  39.9819333  -1.0030147 110.1193610
  44.0118440   5.2764813 105.8073779  43.3827303   5.4410527 105.1049847
  43.6244102   5.6906423 106.5784743  47.8907672   6.2119251 103.1618143
  47.2058710   6.5918152 102.6115176  47.9751521   6.8214577 103.8950090
  43.1920141  -2.6859403 111.0836221  42.9481073  -1.9317342 110.5470496
  43.4680072  -2.3074055 111.9183468  45.1458604   3.8579210 109.7613486
  45.3575499   4.5010970 109.0847867  45.0988352   3.0241526 109.2935416
  42.7484833  -3.5302970 106.6650058  41.8869312  -3.2321716 106.9566796
  42.7747267  -3.3132571 105.7331091  39.5646402   5.0139221 103.0723864
  40.0284748   5.2926924 102.2828487  39.3003200   4.1122666 102.8896955
  36.4570483   4.5610703 106.0103627  37.0271840   4.9897971 105.3721112
  37.0478595   4.2793287 106.7087813  38.5015288   1.1362373  99.8813429
  39.2039332   1.5883417 100.3487356  38.1695917   0.4946192 100.5093322
  46.2604432   6.7351165 107.9335844  47.0821875   6.3331353 107.6518525
  46.2566835   6.6319399 108.8851959  40.0261035   6.2835209 110.0896554
  40.0905468   6.7455616 110.9254726  39.3171959   5.6532573 110.2178864
  54.3510425   3.0789914 104.2820815  53.5974133   2.5097312 104.1264819
  54.4857966   3.0452578 105.2291450  39.7409053   7.9503316  99.9575534
  39.6054728   8.7954852 100.3860382  40.2818865   8.1522594  99.1941468
  33.1938450   5.4678754 100.5303460  33.7062971   6.2622004 100.6809024
  33.8461163   4.7705045 100.4637061  35.0033335   8.5844510 102.6126213
  35.1799963   9.5062475 102.4247197  35.7990168   8.2702930 103.0420592
  41.3677529   8.5726883 114.0875876  40.9241383   7.7863261 113.7696781
  42.0294743   8.7606033 113.4219767  36.1264650  10.1022684 108.6136555
  36.6772075   9.9739748 107.8413549  35.2876126  10.4017573 108.2631448
  43.4658767   8.8529682 112.1157278  43.4477243   9.6738564 111.6237547
  44.3878687   8.7283758 112.3407419  39.9231821   6.3673812 112.9580786
  40.4560158   5.6062100 112.7280094  39.3945903   6.0747464 113.7004941
  31.1587367   3.7967408 101.3063030  31.9962589   4.2064417 101.0896738
  31.3365635   2.8566851 101.2763224  43.0551799   1.4642489  96.9946863
  42.5398423   2.2347094  97.2335250  42.7829108   0.7907625  97.6179924
  40.6398910  -3.6907810 102.0532101  39.7840506  -4.0800960 101.8737740
  41.0525862  -3.6115849 101.1931887  48.0286073   4.2174844  98.9300036
  47.2515516   3.8786003  98.4855199  48.7077554   4.2227467  98.2555002
  42.8438102  -0.6630419  98.8206644  42.5388238  -0.3484270  99.6716787
  43.7968544  -0.5848999  98.8633977  41.2884534   5.4959804 100.4699598
  40.7605896   4.7612564 100.1572836  40.7872037   6.2734481 100.2239566
  46.2677380   3.6908825 105.5866644  45.6101055   4.3808086 105.6746773
  47.0717779   4.0805257 105.9300631  45.0782839   2.0453198 103.6370586
  45.5914721   2.6783189 104.1392296  45.7284063   1.4454393 103.2713946
  39.4337134   3.3140015  93.4734571  38.5264196   3.0829268  93.6725720
  39.9308166   2.5177634  93.6608553  42.3405213  12.0237522  96.3931257
  41.6666912  12.3269219  97.0016215  42.7271035  12.8266602  96.0436714
  41.5563670  -0.4797347 105.8828927  40.6386231  -0.2582400 105.7250615
  41.9723813  -0.4051036 105.0240634  42.3398718   0.9194069 101.0131607
  43.0870537   1.4315466 100.7038729  42.6090307   0.5978122 101.8736001
  40.6125368   3.4152610  97.9958561  39.7036587   3.1311642  98.0931031
  40.6420452   3.8351688  97.1361868  45.8444635   7.0259199 101.7649729
  45.3906962   6.1850109 101.8214919  45.2138602   7.6620597 102.1024509
  44.7877555  -2.0448815 102.9950396  44.0500312  -2.5571429 103.3260639
  45.0404328  -2.4848433 102.1833673  44.2877574   8.8635696 102.6999547
  44.5800549   9.4240753 101.9811913  44.7976195   9.1564257 103.4552706
  39.1610262   1.0281230 104.0968357  39.2158872   0.0755067 104.0210833
  38.3501464   1.1840669 104.5809655  40.3101456   4.9561353  95.3346640
  39.8720885   4.2397212  94.8752277  41.0511896   5.1837468  94.7731731
  37.1002622  -0.3541710 101.8558735  36.2870487  -0.0547540 102.2623928
  37.5961616  -0.7486021 102.5733218  39.2511200   9.6416047 103.7893000
  39.2087378   9.8676893 102.8601532  40.1673898   9.4079421 103.9378801
  42.6976833   0.1100114 110.6873629  43.0526221   0.3371588 111.5468095
  43.3448965   0.4418491 110.0650885  48.4274570   3.2318550 101.3922958
  48.2892469   3.4220146 100.4644148  48.0710789   3.9937933 101.8491010
  48.4543950   5.2995077 106.4034230  48.8880457   5.2070366 107.2517284
  49.1675531   5.2752578 105.7654246  37.3677000   6.5179076 103.5854963
  38.1617599   6.0229396 103.3837538  36.6568693   5.9896939 103.2222668
  42.1871845   8.8997171 107.9367331  42.2408867   9.4688108 108.7045046
  41.3186626   9.0699056 107.5721368  49.3159499   5.3418778 108.9367115
  49.5095390   6.2464588 109.1826390  49.2160118   4.8826197 109.7705700
  44.3774608   5.4925521 114.5107996  44.2260115   5.2636072 113.5938080
  44.3679288   6.4496122 114.5239341  41.1459945   3.0657433 109.4954262
  42.0752005   3.2168593 109.3223230  40.7250975   3.1541454 108.6402909
  39.9448276   7.0908098 107.2652800  39.8059362   6.7226882 108.1378738
  39.1562873   7.6055737 107.0936758  40.5396428  12.1917194  98.6078337
  40.7148184  11.7205238  99.4223959  39.8529216  12.8182961  98.8359597
  41.4953492   6.4689701 104.6541638  41.1603324   6.4290471 105.5499288
  40.9957437   5.8034416 104.1812048  35.4697735   1.8757331 110.1794219
  35.3317533   1.1437569 110.7805758  36.3802659   1.7866231 109.8978407
  44.4312683   3.8145735  94.9278697  43.8141854   3.0892563  94.8311750
  43.9629172   4.5755095  94.5845772  38.0980036   1.5877290 109.6677899
  38.8079655   0.9470482 109.6264517  38.0549344   1.8390185 110.5904079
  46.0866815   8.5244643 112.5884478  46.0279361   7.8403863 111.9215061
  46.4886333   9.2663633 112.1365104  35.1057514  15.3406557 105.3818197
  35.3454112  15.9725081 106.0597215  34.2626710  14.9894597 105.6683556
  46.0884222   6.4884227 110.8198457  45.2011001   6.1510149 110.9424856
  46.6582773   5.7567258 111.0567223  39.6185375  11.1485680 107.7859701
  39.5455547  11.9540651 108.2979005  39.1762769  11.3477645 106.9607722
  39.4075155  10.3857450 101.2962522  38.6242677  10.9279130 101.3900747
  40.1067900  10.9031429 101.6956763  42.7171805  -3.8047921 103.9396728
  43.2140505  -4.5577959 103.6197798  41.9458787  -3.7683604 103.3739937
  50.5701563   1.8992445 105.5815019  50.5591439   2.7817160 105.2108952
  49.7018942   1.5463995 105.3869556  42.0784059  11.0472514 109.9417859
  42.7912031  11.6819978 109.8693761  41.5874088  11.1436380 109.1257861
  43.8001586   4.9523766 101.5135151  42.8657865   5.0725229 101.3439855
  43.9778254   4.0496233 101.2495161  39.3006774  -1.6630538 103.6668412
  38.9304561  -2.2159498 104.3549318  39.7965866  -2.2672405 103.1143412
  47.1874137   0.7941086 102.0485185  47.6534589   1.6269077 101.9745488
  47.6381638   0.3286067 102.7530444  37.1295973   8.7966957 110.7623430
  37.8305432   9.4303440 110.9152824  36.6591088   9.1381689 110.0019069
  45.2550368   7.1384907  99.0471337  45.5310212   7.0241501  99.9565211
  44.3854867   6.7402392  99.0083510  45.1590800  -6.8378327 106.0876086
  44.2453880  -6.6074101 106.2558293  45.5883901  -6.7539883 106.9390119
  44.9297259   1.3511564 108.5875981  44.2768709   1.5987472 107.9328433
  45.3077638   0.5375703 108.2538458  41.8904432  11.3871258 102.6904151
  42.0726827  10.5692914 103.1531903  42.7137418  11.6038950 102.2529041
  42.2246598  10.3139443  99.9519199  42.7534364   9.8031897  99.3389361
  42.4874817   9.9981973 100.8164732  32.7263691   8.3303312 107.6954533
  33.3117127   7.5847000 107.8282437  32.5288529   8.6407269 108.5791197
  35.5802346  11.3654559 102.7116975  34.9112721  11.8500687 102.2281015
  35.4415216  11.6123780 103.6260354  39.7207614  13.3998303 109.3099634
  40.2725922  13.5629924 110.0748719  40.0613808  13.9902741 108.6379658
  44.5718489   8.2259560 115.1648288  45.1158393   8.8389519 114.6703243
  43.9905334   8.7839139 115.6815301  42.8576002  11.3480279 106.2963316
  42.7327141  10.5470018 105.7874261  43.5155093  11.8426472 105.8077286
  44.9210910   9.1489299 107.9242866  43.9741246   9.0294650 107.8521193
  45.2693683   8.2611797 108.0069127  41.9257343   8.9442015 104.1247218
  41.7782306   8.0158722 104.3054788  42.7510837   8.9662106 103.6404293
  45.5291465   9.7670574 105.2112091  46.4538013   9.5613435 105.0736542
  45.3606769   9.5186975 106.1201432  41.9218858  -3.2020148  99.1179335
  42.1382472  -2.3195510  98.8168163  41.4412925  -3.5933934  98.3884977
  36.6618079  -0.2434434 105.6950080  36.5162660   0.0705869 106.5874361
  36.1843283   0.3750466 105.1420979  40.3740593  -2.8194546 107.7884097
  40.1158370  -1.8977475 107.7868427  39.8425633  -3.2164112 108.4784561
  45.3186781  10.2856241 100.5674182  45.4923659   9.7202663  99.8148035
  45.8115673  11.0857136 100.3853672  31.1363741   2.2970910 108.6337741
  30.5917209   3.0730718 108.7658015  32.0143091   2.6441715 108.4756863
  51.1726173   3.0492664 102.1864482  51.6157319   2.2999989 101.7883605
  50.2952683   3.0402800 101.8038214  46.3061954   9.6023005  97.6671081
  47.0012859  10.2229698  97.8858395  46.6485104   8.7518357  97.9423458
  48.2053377   7.0522711  99.1958411  48.7304701   7.3909984  98.4707731
  48.1175730   6.1169726  99.0121546  39.8673426  10.9656785 111.3248288
  40.1760552  10.7205931 112.1970988  40.6648908  11.1703423 110.8367158
  39.8894038  13.1194694 103.5553664  39.4499028  12.6271073 104.2486521
  40.6402155  12.5767662 103.3145740  32.3686377   9.3106235 103.5578293
  33.1944397   9.0110007 103.1776936  32.0180429   8.5413857 104.0068081
  37.3367910   8.6632703 105.6275966  36.7147919   8.0003408 105.3278194
  38.0072777   8.6893835 104.9449614  30.5694982   7.2292562 104.5167226
  29.7326890   6.8014736 104.3351227  30.5418627   7.4225005 105.4538017
  47.8947283   7.6855615 114.5009609  47.1042827   7.6679753 113.9614109
  47.6580638   8.2243908 115.2558646  48.0145158   4.5348081 111.8142338
  48.0643163   4.3698088 112.7557861  47.9059081   3.6675340 111.4240219
  36.8981417   7.2136627  99.1034427  37.0469537   7.8972091  98.4501099
  37.7047860   7.1941717  99.6183882  45.3048921   0.5179009 113.1301645
  46.2058783   0.3785474 112.8385642  45.3796895   0.6833464 114.0699822
  49.5163355   6.9545022 112.0584359  49.2248163   7.3175003 112.8947820
  48.9035486   6.2412031 111.8797691  50.7159037   4.5197902 104.5786930
  51.5505929   4.9587706 104.7424490  50.8518166   4.0436555 103.7595175
  47.7650543   2.0777637 110.5264417  48.2404665   2.2705283 109.7183269
  46.8416109   2.1336823 110.2807801  34.6534050   3.2401804 100.1095496
  34.4080092   2.3364134 100.3075706  34.8229964   3.2418955  99.1674974
  42.3430760  -5.8874519 109.4920251  42.8612704  -5.1513492 109.1666740
  41.9885892  -5.5810526 110.3267010  40.3976822   9.7084757  96.5746174
  39.8250789  10.3274944  96.1216646  40.9709616  10.2584119  97.1086096
  46.4652212  -1.0456603 108.7592723  47.4169635  -0.9458505 108.7804947
  46.2955663  -1.8378334 109.2690807  44.4866592  -3.9601020 108.9452124
  43.8916524  -3.6796007 108.2498612  44.2016288  -3.4707119 109.7168865
  43.6174082   9.9921907  97.7054756  44.5504755   9.9267469  97.9087632
  43.5297295  10.8278174  97.2469289  46.2462099   9.3087778  94.6658704
  46.1675730   8.9747641  95.5594462  47.0671766   9.8009545  94.6650176
  48.9440290   2.1749517 107.8735023  48.9116610   1.2365518 108.0594706
  49.5540914   2.2533554 107.1400847  40.7823621   1.0445570  93.9162227
  41.7282726   0.9151778  93.9850645  40.4037866   0.3060232  94.3931655
  49.0934778  -1.0339440 107.9193306  48.5773827  -1.8180983 107.7323235
  49.9774727  -1.3620723 108.0839825  46.7545505  -7.2898424 103.8789118
  46.5570327  -7.5983336 104.7632450  47.3645211  -6.5636785 104.0087048
  54.7616840   3.2365524 107.0141059  55.4920228   2.9750812 107.5748763
  54.1523785   2.4994246 107.0543127  52.8432137   1.3773386 107.6115511
  52.1165301   1.2429351 107.0032002  52.4279424   1.6850215 108.4172229
  40.6662313   5.0963316 115.3762884  41.5865323   5.2741915 115.5702930
  40.6311896   4.1519361 115.2242583  38.9666538  -1.0304454  93.8517112
  38.0597993  -1.3271341  93.9279825  39.2442519  -1.3274636  92.9851398
  33.6624386   3.0064351 108.0185665  33.8810396   3.9381458 108.0373699
  34.0750160   2.6472325 108.8040469  29.7532738   3.9104821 106.2709280
  29.0596210   3.4958774 105.7579234  30.5005729   3.9525358 105.6742699
  45.8897959  -5.2988992 101.1364314  45.3096628  -4.6404188 100.7542366
  45.6233892  -6.1211648 100.7251732  44.3401525  -5.8983934 103.3385634
  44.8401304  -5.7867400 102.5299953  44.9837133  -6.2022882 103.9786443
  31.6669481   3.8423075 104.1475295  31.6440169   3.9410762 103.1957178
  31.9770117   4.6888226 104.4692461  34.3256859   5.8999230 108.2621909
  35.2800112   5.8683172 108.1951841  34.1269382   5.4389854 109.0772135
  34.9156241   4.4700346 110.8292707  35.7349130   4.9644425 110.8527544
  35.1893049   3.5532314 110.8010274  44.6722837  -3.1388902 100.1920662
  43.7848692  -2.8539251  99.9740857  45.0876826  -3.2995138  99.3447939
  48.0237373  -3.1142381 103.9075002  48.7997763  -2.6245928 104.1799618
  47.2985507  -2.6884327 104.3646871  50.4609932  -2.4014762 104.9648942
  51.0554423  -2.6419026 104.2542250  50.5336516  -3.1207631 105.5922478
  32.6807088  11.4418849 105.2792107  32.5461556  10.6819250 104.7130105
  32.2639150  12.1659749 104.8120896  43.8166051   6.6255773  94.2868682
  44.5201901   6.8305775  94.9026338  43.0928699   7.1932535  94.5517766
  44.6463861   2.3765634 100.4070952  44.5899062   2.8334186  99.5678585
  45.1992203   1.6156319 100.2293795  48.4568667  -1.8344634 101.2321072
  48.2005601  -2.2347998 102.0629280  47.8321535  -1.1200840 101.1071211
  52.7681005   0.9051439 103.7392363  52.2080563   0.9744629 104.5123925
  52.1624508   0.7292424 103.0191860  35.8376213  12.3388166 105.4910550
  35.7208598  13.2833599 105.3889240  35.0168660  12.0361728 105.8796349
  45.7252748   7.0638302  96.3367142  46.5598352   6.6319501  96.1544617
  45.5637091   6.8920316  97.2644037  45.3798640   3.5670415  97.7023482
  45.3247444   3.4014687  96.7611926  44.7544695   4.2746448  97.8585671
  42.6944547   5.8719327 117.0277044  43.5635707   6.0459980 116.6663679
  42.2151299   6.6913744 116.9052774  36.8630728  12.9916428 108.7066478
  37.7657974  13.0240039 109.0232973  36.6368098  12.0616879 108.7212814
  38.6184330  11.7447415 105.3676557  37.6679961  11.7449276 105.2540929
  38.9216816  10.9980149 104.8512591  54.3537023  17.5807953 106.4322319
  54.9915433  17.4614701 105.7285659  54.2357866  18.5288797 106.4910271
  51.1626729  17.5335381 106.3683844  50.8245241  17.4176446 105.4804379
  52.0316498  17.1326546 106.3484850  47.0213545  19.3870858 102.3580735
  46.4578410  19.2960795 101.5897023  46.9065940  18.5670762 102.8383227
  51.6446512  18.6870233 112.3270049  51.6335153  18.2923031 111.4550553
  51.8067152  17.9536306 112.9203821  44.5677977  20.8822049 105.1964955
  45.3599269  20.5412874 104.7811255  44.8074627  20.9917024 106.1167109
  52.6013104  23.0541825  97.6695200  51.9501084  23.6395906  97.2829213
  53.3957467  23.5848020  97.7290237  46.5268731  20.1430963  98.0682334
  47.2999607  19.5959950  97.9295210  46.8794130  21.0075212  98.2796795
  48.3653774  21.4707345 111.2749233  48.0743639  22.3752976 111.1595900
  49.0010758  21.5123873 111.9893303  49.2909980  18.8484193 107.8650593
  49.8873553  18.6240216 107.1507556  49.3484952  18.1068939 108.4676041
  48.8635009  16.3023629  95.7000784  49.1160529  15.7805150  94.9384247
  47.9259568  16.1389774  95.8027468  53.9078292  15.3059407 103.5075527
  54.6941381  14.8878830 103.1565944  54.1716996  16.2105499 103.6757176
  54.0788369  20.7432257  98.2064184  53.4434202  20.8166884  98.9185089
  53.7485775  21.3325856  97.5283263  59.3086719  15.2434640 104.4108506
  60.0411891  14.6733857 104.6446335  58.5526074  14.8556241 104.8515011
  48.5831297  18.2051735  97.9025159  48.4667556  17.5296638  98.5706243
  48.6933557  17.7184109  97.0857312  50.9262838  17.6661882 101.6071848
  50.5621046  17.1392503 102.3184770  51.7829954  17.2760351 101.4338334
  56.8312139   8.9556214 108.8703114  56.4995464   9.8251625 108.6464329
  56.2357752   8.6392498 109.5497145  50.5668325  12.6951781  96.6033197
  50.7342728  13.5632018  96.9703668  50.3765494  12.8579063  95.6794486
  53.3243659  21.1568760 108.2699027  53.0244382  22.0593799 108.1614834
  52.9794718  20.8900944 109.1220180  46.7756140  17.6082557 104.3035731
  45.8506637  17.4758771 104.5113423  47.0240553  18.3876776 104.8005674
  56.7240802  13.6751301 105.9496464  55.8157680  13.6066709 105.6555225
  56.6728398  14.1523246 106.7778290  50.5457546  15.1509439  97.5879863
  50.4257171  15.5966490  98.4265344  49.8510135  15.4994757  97.0293402
  44.1364951  17.2515831 105.1379520  44.2657332  17.5050310 106.0518932
  43.4562402  17.8443539 104.8184176  48.3064438  27.9213081 101.2369995
  48.2288468  28.8720906 101.3158475  47.7026082  27.5758953 101.8944921
  50.7981668  15.0940946 113.8931362  50.0215002  15.6534866 113.8834226
  51.4372231  15.5797729 114.4146232  58.5902449  11.8767739 107.7274338
  57.9476829  12.1700272 107.0814133  58.0857377  11.7620659 108.5327535
  56.2442612  15.6230912  98.4160198  57.1560469  15.8558299  98.2407895
  55.7352260  16.2067956  97.8535276  49.0528040  17.9026400 113.4549329
  49.7942725  18.4411444 113.1784152  48.3465026  18.5292688 113.6120880
  54.5283380  20.0455540 112.0521490  54.9366736  19.6037951 111.3076122
  53.8060642  19.4708168 112.3055683  50.8814450  14.9828147 109.4255047
  51.7275645  15.4067560 109.5689696  50.8213088  14.3261771 110.1193610
  54.8512195  20.6056731 105.8073779  54.2221057  20.7702445 105.1049847
  54.4637857  21.0198340 106.5784743  58.7301427  21.5411168 103.1618143
  58.0452465  21.9210070 102.6115176  58.8145276  22.1506495 103.8950090
  54.0313895  12.6432515 111.0836221  53.7874827  13.3974576 110.5470496
  54.3073826  13.0217863 111.9183468  55.9852358  19.1871128 109.7613486
  56.1969253  19.8302887 109.0847867  55.9382107  18.3533444 109.2935416
  53.5878587  11.7988948 106.6650058  52.7263066  12.0970202 106.9566796
  53.6141022  12.0159347 105.7331091  50.4040157  20.3431139 103.0723864
  50.8678502  20.6218842 102.2828487  50.1396955  19.4414583 102.8896955
  47.2964238  19.8902620 106.0103627  47.8665595  20.3189889 105.3721112
  47.8872350  19.6085205 106.7087813  49.3409043  16.4654291  99.8813429
  50.0433086  16.9175335 100.3487356  49.0089671  15.8238110 100.5093322
  47.7889404  15.0566048 114.2564639  47.1588065  15.7382329 114.4900035
  47.6825492  14.9449129 113.3117777  43.0834377  14.7237844 105.1830563
  42.2933431  14.9795372 104.7070673  43.5745624  15.5386182 105.2882603
  57.0998186  22.0643083 107.9335844  57.9215630  21.6623270 107.6518525
  57.0960589  21.9611317 108.8851959  45.0349122  15.0882423 102.1414039
  44.2380285  15.2001117 102.6597535  44.8074714  15.4269075 101.2754930
  50.8654790  21.6127126 110.0896554  50.9299222  22.0747533 110.9254726
  50.1565714  20.9824491 110.2178864  41.3672080  14.9768334 107.6145554
  41.6180118  15.8615344 107.8803130  41.9031628  14.7972936 106.8420645
  65.1904179  18.4081831 104.2820815  64.4367888  17.8389229 104.1264819
  65.3251720  18.3744496 105.2291450  50.5802807  23.2795234  99.9575534
  50.4448482  24.1246769 100.3860382  51.1212620  23.4814511  99.1941468
  47.0670147   9.3586814 116.6189890  46.6737093   8.8053012 117.2937534
  47.8836287   9.6697392 117.0096407  44.0332205  20.7970672 100.5303460
  44.5456725  21.5913922 100.6809024  44.6854918  20.0996962 100.4637061
  45.8427089  23.9136428 102.6126213  46.0193718  24.8354393 102.4247197
  46.6383923  23.5994847 103.0420592  49.9838108  10.7744693 114.2110146
  50.7247821  11.3751846 114.1314609  50.2156031  10.0322330 113.6528189
  45.1279446  15.9601060 112.4888376  45.0132961  15.0586317 112.7895475
  44.2723964  16.2064757 112.1373192  52.2071284  23.9018800 114.0875876
  51.7635138  23.1155179 113.7696781  52.8688497  24.0897951 113.4219767
  46.9658405  25.4314602 108.6136555  47.5165830  25.3031665 107.8413549
  46.1269881  25.7309491 108.2631448  54.3052522  24.1821600 112.1157278
  54.2870997  25.0030481 111.6237547  55.2272442  24.0575675 112.3407419
  50.7625576  21.6965730 112.9580786  51.2953913  20.9354018 112.7280094
  50.2339657  21.4039381 113.7004941  53.9295271   6.8025796 108.4874428
  53.5859540   7.6927437 108.4113538  54.2974233   6.6127453 107.6244013
  41.9981121  19.1259326 101.3063030  42.8356343  19.5356334 101.0896738
  42.1759389  18.1858768 101.2763224  53.8945554  16.7934407  96.9946863
  53.3792177  17.5639011  97.2335250  53.6222862  16.1199543  97.6179924
  51.4792665  11.6384107 102.0532101  50.6234261  11.2490958 101.8737740
  51.8919616  11.7176068 101.1931887  53.0091811   9.1730451 106.4523661
  52.5056607   9.1360586 105.6391466  53.3022418  10.0823193 106.5120318
  49.2534697   9.2569180 105.4589843  50.1187694   9.0611989 105.0995732
  49.3212206   9.0279532 106.3859200  58.8679828  19.5466761  98.9300036
  58.0909270  19.2077921  98.4855199  59.5471309  19.5519385  98.2555002
  53.6831857  14.6661499  98.8206644  53.3781992  14.9807648  99.6716787
  54.6362299  14.7442919  98.8633977  52.1278289  20.8251722 100.4699598
  51.5999650  20.0904482 100.1572836  51.6265791  21.6026398 100.2239566
  57.1071135  19.0200743 105.5866644  56.4494809  19.7100004 105.6746773
  57.9111534  19.4097175 105.9300631  46.8597016  11.4871388 102.8306210
  47.4340768  11.2646570 102.0979403  47.4467999  11.5560083 103.5834811
  55.9176593  17.3745115 103.6370586  56.4308475  18.0075107 104.1392296
  56.5677817  16.7746311 103.2713946  47.1866603  13.5175849  96.8502095
  46.3503916  13.8550536  97.1711370  47.0471373  13.3824829  95.9129232
  49.1619684   8.3612637 101.5581279  48.5084096   8.0461654 100.9337894
  49.1200158   7.7388378 102.2841102  50.2730889  18.6431932  93.4734571
  49.3657951  18.4121186  93.6725720  50.7701921  17.8469552  93.6608553
  53.1798968  27.3529440  96.3931257  52.5060666  27.6561136  97.0016215
  53.5664790  28.1558520  96.0436714  52.3957424  14.8494571 105.8828927
  51.4779986  15.0709518 105.7250615  52.8117568  14.9240881 105.0240634
  53.1792472  16.2485987 101.0131607  53.9264291  16.7607384 100.7038729
  53.4484062  15.9270039 101.8736001  51.4519122  18.7444527  97.9958561
  50.5430341  18.4603560  98.0931031  51.4814206  19.1643606  97.1361868
  56.6838390  22.3551117 101.7649729  56.2300717  21.5142027 101.8214919
  56.0532356  22.9912515 102.1024509  55.6271309  13.2843103 102.9950396
  54.8894066  12.7720489 103.3260639  55.8798083  12.8443484 102.1833673
  55.1271329  24.1927613 102.6999547  55.4194303  24.7532671 101.9811913
  55.6369949  24.4856174 103.4552706  55.7282937   6.0619355 103.5892166
  56.0341813   5.2016718 103.3018081  56.4535541   6.6536975 103.3891159
  42.0207293  16.4650041 101.9773763  41.8231692  15.8719402 101.2524830
  41.4653957  16.1602252 102.6949702  50.0004016  16.3573148 104.0968357
  50.0552626  15.4046984 104.0210833  49.1895218  16.5132587 104.5809655
  51.1495210  20.2853271  95.3346640  50.7114640  19.5689130  94.8752277
  51.8905651  20.5129386  94.7731731  47.9396376  14.9750208 101.8558735
  47.1264242  15.2744378 102.2623928  48.4355370  14.5805896 102.5733218
  50.0904954  24.9707965 103.7893000  50.0481133  25.1968811 102.8601532
  51.0067653  24.7371339 103.9378801  53.5370588  15.4392032 110.6873629
  53.8919976  15.6663505 111.5468095  54.1842719  15.7710409 110.0650885
  59.2668325  18.5610468 101.3922958  59.1286223  18.7512064 100.4644148
  58.9104544  19.3229851 101.8491010  47.4310451  12.5468563 107.4719970
  48.0709830  12.4057322 106.7742934  46.5987981  12.2603077 107.0958572
  59.2937704  20.6286995 106.4034230  59.7274211  20.5362284 107.2517284
  60.0069285  20.6044495 105.7654246  48.2070755  21.8470994 103.5854963
  49.0011353  21.3521314 103.3837538  47.4962447  21.3188857 103.2222668
  53.0265599  24.2289089 107.9367331  53.0802622  24.7980025 108.7045046
  52.1580381  24.3990974 107.5721368  44.5153518  15.9914075  99.6614716
  43.5851106  15.9298531  99.8784678  44.6110990  15.4690028  98.8651357
  44.4339067  12.5168888 102.2492957  44.6945885  13.4314221 102.1402118
  45.2556240  12.0493331 102.3989570  45.9063993  13.9306645 109.4191782
  46.5787046  13.7224007 108.7704431  45.0793779  13.7328731 108.9797014
  60.1553254  20.6710696 108.9367115  60.3489144  21.5756506 109.1826390
  60.0553872  20.2118115 109.7705700  51.8089565  10.5568586 111.4357443
  51.1617480  11.2558536 111.3421919  52.5790580  10.9904730 111.8033691
  55.2168363  20.8217438 114.5107996  55.0653869  20.5927990 113.5938080
  55.2073042  21.7788040 114.5239341  51.9853699  18.3949351 109.4954262
  52.9145759  18.5460511 109.3223230  51.5644729  18.4833372 108.6402909
  50.7842031  22.4200016 107.2652800  50.6453117  22.0518800 108.1378738
  49.9956627  22.9347655 107.0936758  51.3790183  27.5209112  98.6078337
  51.5541939  27.0497155  99.4223959  50.6922971  28.1474878  98.8359597
  52.3347246  21.7981618 104.6541638  51.9997079  21.7582388 105.5499288
  51.8351192  21.1326334 104.1812048  46.3091490  17.2049248 110.1794219
  46.1711288  16.4729487 110.7805758  47.2196413  17.1158148 109.8978407
  55.2706438  19.1437653  94.9278697  54.6535608  18.4184481  94.8311750
  54.8022926  19.9047013  94.5845772  48.9373791  16.9169208 109.6677899
  49.6473409  16.2762400 109.6264517  48.8943099  17.1682102 110.5904079
  56.9260569  23.8536561 112.5884478  56.8673115  23.1695781 111.9215061
  57.3280088  24.5955551 112.1365104  47.6502725  13.9034425 111.4873538
  47.1140082  13.4525164 112.1395134  47.0619433  14.0380334 110.7444002
  45.9451268  30.6698475 105.3818197  46.1847866  31.3016999 106.0597215
  45.1020465  30.3186515 105.6683556  47.0604984  13.3623077  94.0500002
  46.1834450  13.2411878  93.6862248  47.5362737  12.5709155  93.7978890
  56.9277977  21.8176145 110.8198457  56.0404755  21.4802067 110.9424856
  57.4976528  21.0859176 111.0567223  38.5807124  18.1500237 104.1441509
  39.2678164  17.8361967 103.5562524  38.4255252  19.0541601 103.8708760
  43.3841846  13.0390433 108.5726533  43.3000035  12.4316103 107.8376942
  42.5624552  13.5299451 108.5736029  50.4579130  26.4777597 107.7859701
  50.3849301  27.2832569 108.2979005  50.0156523  26.6769563 106.9607722
  50.2468910  25.7149367 101.2962522  49.4636431  26.2571047 101.3900747
  50.9461655  26.2323347 101.6956763  53.5565560  11.5243997 103.9396728
  54.0534259  10.7713959 103.6197798  52.7852541  11.5608313 103.3739937
  61.4095317  17.2284362 105.5815019  61.3985193  18.1109078 105.2108952
  60.5412697  16.8755913 105.3869556  52.9177813  26.3764431 109.9417859
  53.6305786  27.0111896 109.8693761  52.4267842  26.4728297 109.1257861
  54.6395340  20.2815684 101.5135151  53.7051619  20.4017146 101.3439855
  54.8172009  19.3788151 101.2495161  50.1400528  13.6661380 103.6668412
  49.7698316  13.1132420 104.3549318  50.6359621  13.0619513 103.1143412
  58.0267892  16.1233003 102.0485185  58.4928344  16.9560995 101.9745488
  58.4775392  15.6577985 102.7530444  47.9689727  24.1258875 110.7623430
  48.6699187  24.7595358 110.9152824  47.4984842  24.4673606 110.0019069
  56.0944123  22.4676824  99.0471337  56.3703967  22.3533419  99.9565211
  55.2248622  22.0694309  99.0083510  55.9984554   8.4913590 106.0876086
  55.0847634   8.7217817 106.2558293  56.4277656   8.5752034 106.9390119
  55.7691013  16.6803482 108.5875981  55.1162463  16.9279390 107.9328433
  56.1471393  15.8667620 108.2538458  52.7298187  26.7163175 102.6904151
  52.9120581  25.8984831 103.1531903  53.5531173  26.9330868 102.2529041
  53.0640352  25.6431360  99.9519199  53.5928119  25.1323815  99.3389361
  53.3268572  25.3273891 100.8164732  51.8178586  17.4223293 115.0742018
  51.1419223  17.3217423 115.7444393  52.6406220  17.2662507 115.5378015
  43.5657445  23.6595230 107.6954533  44.1510882  22.9138918 107.8282437
  43.3682284  23.9699186 108.5791197  46.4196100  26.6946477 102.7116975
  45.7506476  27.1792605 102.2281015  46.2808970  26.9415698 103.6260354
  38.1575100  16.2300830 106.4158976  38.1959199  15.6964421 107.2096094
  37.6515393  15.7036035 105.7969953  50.5601369  28.7290221 109.3099634
  51.1119677  28.8921842 110.0748719  50.9007562  29.3194658 108.6379658
  45.5365862  11.0765370 109.9121518  45.6007189  11.9380201 109.4998916
  45.4732982  10.4639372 109.1793877  45.0118135  13.1488503 113.5594553
  45.6390173  12.7665580 114.1732077  44.1546054  12.9302705 113.9250245
  55.4112243  23.5551478 115.1648288  55.9552147  24.1681436 114.6703243
  54.8299088  24.1131057 115.6815301  41.7883677  14.9564932  99.4912907
  42.0837118  14.0475611  99.4379961  40.8871713  14.9352672  99.1693910
  53.6969756  26.6772196 106.2963316  53.5720896  25.8761936 105.7874261
  54.3548847  27.1718390 105.8077286  45.3177924  13.0320929 105.4740456
  44.5964510  13.6456896 105.3347929  46.1071180  13.5678694 105.3957102
  55.7604665  24.4781216 107.9242866  54.8135000  24.3586567 107.8521193
  56.1087438  23.5903714 108.0069127  48.1204238  10.3675355 111.7481108
  48.6438640  10.6137652 112.5107417  47.9016571  11.1995390 111.3284245
  43.5171519  12.6379030  99.6152233  43.1884225  11.7576409  99.4327338
  43.8710890  12.5826698 100.5028622  52.7651098  24.2733932 104.1247218
  52.6176060  23.3450640 104.3054788  53.5904591  24.2954023 103.6404293
  46.6313342  12.9252000  99.9827710  46.9709415  13.4537921  99.2606319
  47.0785463  13.2632406 100.7586277  56.3685220  25.0962491 105.2112091
  57.2931767  24.8905353 105.0736542  56.2000523  24.8478892 106.1201432
  49.3256783  11.3089050 109.4330778  48.9853603  10.5096863 109.8351458
  48.6195789  11.6090761 108.8607611  49.9773255   8.3938363 107.8858101
  50.7999324   7.9198841 107.7636992  50.2211318   9.1728846 108.3856788
  48.6181489  11.4226621  98.1821003  49.3389852  11.8007874  97.6784720
  47.9946793  12.1415498  98.2855981  52.7612612  12.1271770  99.1179335
  52.9776227  13.0096408  98.8168163  52.2806679  11.7357984  98.3884977
  47.5011834  15.0857483 105.6950080  47.3556414  15.3997786 106.5874361
  47.0237037  15.7042384 105.1420979  49.3608216  12.0760031 105.7430969
  49.3469785  11.1801125 105.4063267  50.0780645  12.0830695 106.3769255
  51.2134347  12.5097372 107.7884097  50.9552125  13.4314442 107.7868427
  50.6819388  12.1127806 108.4784561  56.1580536  25.6148159 100.5674182
  56.3317413  25.0494581  99.8148035  56.6509427  26.4149054 100.3853672
  41.9757496  17.6262828 108.6337741  41.4310964  18.4022636 108.7658015
  42.8536846  17.9733632 108.4756863  48.7645112  10.9574412 101.0118540
  48.8861024  10.0291058 101.2109427  48.4747155  10.9713098 100.0996855
  51.6336303   8.6429322 104.1485259  51.6558000   8.7068655 103.1937239
  52.0504362   7.8033831 104.3425766  62.0119927  18.3784582 102.1864482
  62.4551073  17.6291907 101.7883605  61.1346437  18.3694718 101.8038214
  57.1455708  24.9314923  97.6671081  57.8406613  25.5521616  97.8858395
  57.4878859  24.0810274  97.9423458  42.7623518  16.7532724 111.5267898
  42.0205254  16.9015359 112.1132528  42.4416262  17.0140990 110.6634647
  59.0447132  22.3814629  99.1958411  59.5698456  22.7201901  98.4707731
  58.9569484  21.4461644  99.0121546  50.7067180  26.2948702 111.3248288
  51.0154307  26.0497849 112.1970988  51.5042662  26.4995341 110.8367158
  50.7287792  28.4486612 103.5553664  50.2892783  27.9562991 104.2486521
  51.4795909  27.9059580 103.3145740  43.2080131  24.6398153 103.5578293
  44.0338151  24.3401925 103.1776936  42.8574183  23.8705775 104.0068081
  48.1761664  23.9924621 105.6275966  47.5541674  23.3295326 105.3278194
  48.8466531  24.0185753 104.9449614  41.4088736  22.5584479 104.5167226
  40.5720645  22.1306654 104.3351227  41.3812382  22.7516923 105.4538017
  48.2486192  12.4706409 115.2208472  48.2974347  13.3468532 114.8386242
  48.7908706  11.9283802 114.6480115  58.7341038  23.0147532 114.5009609
  57.9436581  22.9971671 113.9614109  58.4974392  23.5535826 115.2558646
  58.8538913  19.8639999 111.8142338  58.9036918  19.6990006 112.7557861
  58.7452836  18.9967258 111.4240219  47.7375171  22.5428544  99.1034427
  47.8863292  23.2264009  98.4501099  48.5441615  22.5233634  99.6183882
  56.1442675  15.8470927 113.1301645  57.0452538  15.7077391 112.8385642
  56.2190650  16.0125381 114.0699822  50.4785480  13.2237781 111.9754831
  49.6088790  13.5171347 111.7037419  50.7144961  13.8078226 112.6962094
  60.3557109  22.2836940 112.0584359  60.0641918  22.6466921 112.8947820
  59.7429241  21.5703948 111.8797691  61.5552792  19.8489820 104.5786930
  62.3899683  20.2879624 104.7424490  61.6911921  19.3728473 103.7595175
  58.6044298  17.4069555 110.5264417  59.0798419  17.5997201 109.7183269
  57.6809863  17.4628741 110.2807801  45.4927804  18.5693722 100.1095496
  45.2473846  17.6656052 100.3075706  45.6623719  18.5710872  99.1674974
  53.1824514   9.4417398 109.4920251  53.7006458  10.1778425 109.1666740
  52.8279647   9.7481392 110.3267010  44.7623452  14.3022080  97.6081657
  44.0692697  14.3766435  96.9521693  44.5175204  13.5382423  98.1303174
  53.4337108   5.8617681 105.0121148  53.7138862   5.1940870 105.6381574
  54.2187715   6.0546776 104.4995812  51.2370577  25.0376675  96.5746174
  50.6644544  25.6566862  96.1216646  51.8103371  25.5876036  97.1086096
  57.3045967  14.2835315 108.7592723  58.2563390  14.3833413 108.7804947
  57.1349417  13.4913583 109.2690807  55.3260346  11.3690898 108.9452124
  54.7310278  11.6495911 108.2498612  55.0410043  11.8584799 109.7168865
  54.4567837  25.3213825  97.7054756  55.3898510  25.2559387  97.9087632
  54.3691049  26.1570092  97.2469289  57.0855853  24.6379695  94.6658704
  57.0069485  24.3039559  95.5594462  57.9065520  25.1301463  94.6650176
  59.7834044  17.5041435 107.8735023  59.7510365  16.5657435 108.0594706
  60.3934668  17.5825471 107.1400847  51.6217375  16.3737488  93.9162227
  52.5676480  16.2443696  93.9850645  51.2431620  15.6352149  94.3931655
  59.9328533  14.2952478 107.9193306  59.4167582  13.5110935 107.7323235
  60.8168481  13.9671195 108.0839825  57.5939260   8.0393494 103.8789118
  57.3964081   7.7308582 104.7632450  58.2038965   8.7655132 104.0087048
  65.6010594  18.5657441 107.0141059  66.3313983  18.3042730 107.5748763
  64.9917540  17.8286163 107.0543127  63.6825891  16.7065304 107.6115511
  62.9559055  16.5721269 107.0032002  63.2673178  17.0142133 108.4172229
  51.5056068  20.4255234 115.3762884  52.4259077  20.6033833 115.5702930
  51.4705651  19.4811279 115.2242583  49.8060292  14.2987464  93.8517112
  48.8991748  14.0020577  93.9279825  50.0836274  14.0017282  92.9851398
  40.7238233  15.6193827 104.3016158  40.4041017  14.7659135 104.0090532
  40.1771661  15.8342405 105.0574126  44.5018140  18.3356268 108.0185665
  44.7204150  19.2673376 108.0373699  44.9143914  17.9764243 108.8040469
  51.4222358   8.8424354 100.0061353  50.6123087   8.4971439 100.3816599
  52.1106775   8.5331897 100.5948965  53.3512907   7.9202400 101.6285650
  53.9043945   8.3397854 102.2875673  53.5882993   6.9938149 101.6708606
  49.3746006  13.9089474 117.4088414  49.2742733  14.8583831 117.3400505
  49.1567548  13.5807713 116.5364484  48.5759077  11.1574399  93.9929091
  49.4378241  11.4829297  94.2524908  48.7609421  10.3705895  93.4802157
  40.5926493  19.2396739 106.2709280  39.8989964  18.8250692 105.7579234
  41.3399484  19.2817275 105.6742699  56.7291714  10.0302926 101.1364314
  56.1490383  10.6887730 100.7542366  56.4627646   9.2080270 100.7251732
  55.1795280   9.4307983 103.3385634  55.6795058   9.5424518 102.5299953
  55.8230888   9.1269036 103.9786443  49.2377276  17.3386613 116.2253475
  48.7544358  18.1386973 116.4317364  49.3238215  17.3494558 115.2720919
  42.5063235  19.1714993 104.1475295  42.4833924  19.2702680 103.1957178
  42.8163872  20.0180143 104.4692461  45.1650613  21.2291148 108.2621909
  46.1193867  21.1975090 108.1951841  44.9663137  20.7681771 109.0772135
  45.7549995  19.7992264 110.8292707  46.5742884  20.2936342 110.8527544
  46.0286803  18.8824232 110.8010274  55.5116592  12.1903016 100.1920662
  54.6242447  12.4752667  99.9740857  55.9270581  12.0296779  99.3447939
  58.8631128  12.2149537 103.9075002  59.6391518  12.7045989 104.1799618
  58.1379262  12.6407591 104.3646871  61.3003686  12.9277156 104.9648942
  61.8948177  12.6872892 104.2542250  61.3730270  12.2084287 105.5922478
  43.5200842  26.7710767 105.2792107  43.3855310  26.0111168 104.7130105
  43.1032904  27.4951667 104.8120896  54.6559805  21.9547691  94.2868682
  55.3595655  22.1597693  94.9026338  53.9322454  22.5224453  94.5517766
  55.4857615  17.7057552 100.4070952  55.4292817  18.1626103  99.5678585
  56.0385958  16.9448236 100.2293795  59.2962421  13.4947284 101.2321072
  59.0399356  13.0943919 102.0629280  58.6715289  14.2091078 101.1071211
  63.6074759  16.2343357 103.7392363  63.0474317  16.3036546 104.5123925
  63.0018262  16.0584342 103.0191860  46.6769968  27.6680084 105.4910550
  46.5602352  28.6125517 105.3889240  45.8562414  27.3653646 105.8796349
  56.5646502  22.3930220  96.3367142  57.3992106  21.9611418  96.1544617
  56.4030845  22.2212234  97.2644037  56.2192395  18.8962333  97.7023482
  56.1641198  18.7306605  96.7611926  55.5938450  19.6038366  97.8585671
  41.0084910  14.1330398 111.5284904  41.6543773  13.6229351 112.0172129
  40.8002061  14.8699079 112.1028329  53.5338302  21.2011245 117.0277044
  54.4029461  21.3751897 116.6663679  53.0545053  22.0205662 116.9052774
  49.5288520   8.3970442  97.2808800  49.5167190   9.3412282  97.4377071
  50.4211942   8.2140588  96.9868261  47.7024482  28.3208346 108.7066478
  48.6051729  28.3531956 109.0232973  47.4761852  27.3908797 108.7212814
  49.4578084  27.0739333 105.3676557  48.5073715  27.0741194 105.2540929
  49.7610570  26.3272067 104.8512591  53.3440640   4.9913219 101.5354737
  52.5773035   4.4371705 101.6811419  53.7551345   5.0635088 102.3968888
  45.3482401  11.2798015 115.6259918  46.2113862  10.9234819 115.8363243
  44.7747811  10.9411909 116.3135322  65.1930778  32.9099871 106.4322319
  65.8309188  32.7906618 105.7285659  65.0751620  33.8580715 106.4910271
  62.0020484  32.8627299 106.3683844  61.6638995  32.7468364 105.4804379
  62.8710252  32.4618464 106.3484850  57.8607300  34.7162775 102.3580735
  57.2972165  34.6252712 101.5897023  57.7459695  33.8962680 102.8383227
  62.4840267  34.0162151 112.3270049  62.4728908  33.6214949 111.4550553
  62.6460906  33.2828223 112.9203821  55.4071731  36.2113967 105.1964955
  56.1993023  35.8704792 104.7811255  55.6468382  36.3208942 106.1167109
  63.4406858  38.3833743  97.6695200  62.7894838  38.9687824  97.2829213
  64.2351221  38.9139938  97.7290237  57.3662485  35.4722880  98.0682334
  58.1393361  34.9251867  97.9295210  57.7187884  36.3367130  98.2796795
  59.2047528  36.7999263 111.2749233  58.9137394  37.7044893 111.1595900
  59.8404512  36.8415790 111.9893303  60.1303735  34.1776111 107.8650593
  60.7267307  33.9532133 107.1507556  60.1878706  33.4360857 108.4676041
  59.7028763  31.6315546  95.7000784  59.9554284  31.1097068  94.9384247
  58.7653322  31.4681692  95.8027468  64.7472046  30.6351325 103.5075527
  65.5335135  30.2170748 103.1565944  65.0110750  31.5397417 103.6757176
  64.9182123  36.0724175  98.2064184  64.2827956  36.1458802  98.9185089
  64.5879530  36.6617774  97.5283263  70.1480473  30.5726558 104.4108506
  70.8805645  30.0025775 104.6446335  69.3919829  30.1848158 104.8515011
  59.4225052  33.5343652  97.9025159  59.3061310  32.8588556  98.5706243
  59.5327312  33.0476026  97.0857312  61.7656593  32.9953799 101.6071848
  61.4014800  32.4684420 102.3184770  62.6223709  32.6052269 101.4338334
  67.6705894  24.2848132 108.8703114  67.3389218  25.1543543 108.6464329
  67.0751507  23.9684416 109.5497145  61.4062080  28.0243699  96.6033197
  61.5736482  28.8923936  96.9703668  61.2159249  28.1870981  95.6794486
  64.1637413  36.4860678 108.2699027  63.8638136  37.3885717 108.1614834
  63.8188473  36.2192861 109.1220180  57.6149895  32.9374475 104.3035731
  56.6900391  32.8050689 104.5113423  57.8634308  33.7168694 104.8005674
  67.5634557  29.0043218 105.9496464  66.6551434  28.9358627 105.6555225
  67.5122153  29.4815163 106.7778290  61.3851301  30.4801357  97.5879863
  61.2650926  30.9258407  98.4265344  60.6903889  30.8286674  97.0293402
  54.9758706  32.5807748 105.1379520  55.1051087  32.8342227 106.0518932
  54.2956157  33.1735456 104.8184176  61.6375423  30.4232864 113.8931362
  60.8608757  30.9826784 113.8834226  62.2765986  30.9089647 114.4146232
  69.4296203  27.2059657 107.7274338  68.7870584  27.4992190 107.0814133
  68.9251132  27.0912577 108.5327535  67.0836367  30.9522830  98.4160198
  67.9954223  31.1850217  98.2407895  66.5746014  31.5359874  97.8535276
  59.8921795  33.2318317 113.4549329  60.6336479  33.7703361 113.1784152
  59.1858780  33.8584606 113.6120880  65.3677135  35.3747458 112.0521490
  65.7760491  34.9329868 111.3076122  64.6454396  34.8000085 112.3055683
  61.7208205  30.3120064 109.4255047  62.5669400  30.7359478 109.5689696
  61.6606842  29.6553689 110.1193610  65.6905949  35.9348648 105.8073779
  65.0614812  36.0994362 105.1049847  65.3031611  36.3490258 106.5784743
  69.5695181  36.8703086 103.1618143  68.8846219  37.2501988 102.6115176
  69.6539030  37.4798413 103.8950090  64.8707650  27.9724433 111.0836221
  64.6268582  28.7266493 110.5470496  65.1467580  28.3509780 111.9183468
  66.8246113  34.5163045 109.7613486  67.0363008  35.1594805 109.0847867
  66.7775861  33.6825362 109.2935416  64.4272342  27.1280866 106.6650058
  63.5656821  27.4262119 106.9566796  64.4534776  27.3451265 105.7331091
  61.2433911  35.6723056 103.0723864  61.7072257  35.9510759 102.2828487
  60.9790709  34.7706501 102.8896955  58.1357992  35.2194538 106.0103627
  58.7059349  35.6481806 105.3721112  58.7266104  34.9377123 106.7087813
  60.1802797  31.7946209  99.8813429  60.8826841  32.2467252 100.3487356
  59.8483426  31.1530028 100.5093322  58.6283159  30.3857965 114.2564639
  57.9981819  31.0674246 114.4900035  58.5219247  30.2741047 113.3117777
  53.9228131  30.0529761 105.1830563  53.1327185  30.3087290 104.7070673
  54.4139379  30.8678099 105.2882603  67.9391941  37.3935001 107.9335844
  68.7609384  36.9915188 107.6518525  67.9354344  37.2903235 108.8851959
  55.8742877  30.4174341 102.1414039  55.0774040  30.5293035 102.6597535
  55.6468469  30.7560993 101.2754930  61.7048544  36.9419044 110.0896554
  61.7692977  37.4039451 110.9254726  60.9959468  36.3116409 110.2178864
  52.2065834  30.3060252 107.6145554  52.4573873  31.1907262 107.8803130
  52.7425383  30.1264853 106.8420645  76.0297934  33.7373749 104.2820815
  75.2761642  33.1681147 104.1264819  76.1645475  33.7036414 105.2291450
  57.9063901  24.6878731 116.6189890  57.5130847  24.1344930 117.2937534
  58.7230042  24.9989310 117.0096407  54.8725959  36.1262589 100.5303460
  55.3850480  36.9205840 100.6809024  55.5248672  35.4288880 100.4637061
  60.8231862  26.1036610 114.2110146  61.5641576  26.7043763 114.1314609
  61.0549785  25.3614248 113.6528189  55.9673200  31.2892978 112.4888376
  55.8526716  30.3878235 112.7895475  55.1117718  31.5356674 112.1373192
  63.0465038  39.2310718 114.0875876  62.6028892  38.4447096 113.7696781
  63.7082252  39.4189868 113.4219767  57.8052159  40.7606519 108.6136555
  58.3559584  40.6323583 107.8413549  56.9663635  41.0601409 108.2631448
  65.1446276  39.5113518 112.1157278  65.1264752  40.3322399 111.6237547
  66.0666196  39.3867593 112.3407419  61.6019330  37.0257647 112.9580786
  62.1347667  36.2645935 112.7280094  61.0733411  36.7331299 113.7004941
  64.7689025  22.1317713 108.4874428  64.4253295  23.0219355 108.4113538
  65.1367988  21.9419371 107.6244013  52.8374876  34.4551244 101.3063030
  53.6750098  34.8648252 101.0896738  53.0153144  33.5150686 101.2763224
  64.7339308  32.1226324  96.9946863  64.2185932  32.8930929  97.2335250
  64.4616617  31.4491461  97.6179924  62.3186419  26.9676025 102.0532101
  61.4628015  26.5782876 101.8737740  62.7313371  27.0467986 101.1931887
  63.8485566  24.5022368 106.4523661  63.3450361  24.4652504 105.6391466
  64.1416173  25.4115111 106.5120318  60.0928452  24.5861098 105.4589843
  60.9581448  24.3903907 105.0995732  60.1605961  24.3571450 106.3859200
  69.7073582  34.8758679  98.9300036  68.9303025  34.5369839  98.4855199
  70.3865063  34.8811302  98.2555002  64.5225611  29.9953416  98.8206644
  64.2175747  30.3099566  99.6716787  65.4756053  30.0734836  98.8633977
  62.9672043  36.1543640 100.4699598  62.4393405  35.4196399 100.1572836
  62.4659546  36.9318316 100.2239566  67.9464889  34.3492660 105.5866644
  67.2888564  35.0391922 105.6746773  68.7505288  34.7389092 105.9300631
  57.6990771  26.8163306 102.8306210  58.2734523  26.5938488 102.0979403
  58.2861753  26.8852001 103.5834811  66.7570348  32.7037033 103.6370586
  67.2702230  33.3367025 104.1392296  67.4071572  32.1038228 103.2713946
  58.0260358  28.8467767  96.8502095  57.1897670  29.1842454  97.1711370
  57.8865127  28.7116747  95.9129232  60.0013438  23.6904555 101.5581279
  59.3477851  23.3753572 100.9337894  59.9593913  23.0680295 102.2841102
  61.1124643  33.9723850  93.4734571  60.2051705  33.7413104  93.6725720
  61.6095675  33.1761469  93.6608553  63.2351179  30.1786489 105.8828927
  62.3173740  30.4001436 105.7250615  63.6511322  30.2532799 105.0240634
  64.0186227  31.5777904 101.0131607  64.7658045  32.0899301 100.7038729
  64.2877816  31.2561957 101.8736001  62.2912877  34.0736445  97.9958561
  61.3824096  33.7895478  98.0931031  62.3207961  34.4935523  97.1361868
  67.5232144  37.6843034 101.7649729  67.0694471  36.8433944 101.8214919
  66.8926111  38.3204433 102.1024509  66.4665064  28.6135020 102.9950396
  65.7287820  28.1012407 103.3260639  66.7191837  28.1735402 102.1833673
  65.9665083  39.5219531 102.6999547  66.2588058  40.0824588 101.9811913
  66.4763704  39.8148092 103.4552706  66.5676691  21.3911272 103.5892166
  66.8735568  20.5308636 103.3018081  67.2929296  21.9828893 103.3891159
  52.8601047  31.7941959 101.9773763  52.6625447  31.2011320 101.2524830
  52.3047711  31.4894169 102.6949702  60.8397771  31.6865066 104.0968357
  60.8946381  30.7338902 104.0210833  60.0288973  31.8424505 104.5809655
  61.9888965  35.6145189  95.3346640  61.5508394  34.8981048  94.8752277
  62.7299405  35.8421303  94.7731731  58.7790131  30.3042125 101.8558735
  57.9657996  30.6036296 102.2623928  59.2749125  29.9097814 102.5733218
  64.3764342  30.7683950 110.6873629  64.7313730  30.9955423 111.5468095
  65.0236474  31.1002327 110.0650885  70.1062079  33.8902386 101.3922958
  69.9679978  34.0803982 100.4644148  69.7498298  34.6521768 101.8491010
  58.2704205  27.8760481 107.4719970  58.9103585  27.7349240 106.7742934
  57.4381736  27.5894994 107.0958572  70.1331459  35.9578913 106.4034230
  70.5667966  35.8654202 107.2517284  70.8463040  35.9336413 105.7654246
  63.8659354  39.5581007 107.9367331  63.9196376  40.1271943 108.7045046
  62.9974135  39.7282892 107.5721368  55.3547273  31.3205993  99.6614716
  54.4244861  31.2590448  99.8784678  55.4504745  30.7981946  98.8651357
  55.2732822  27.8460806 102.2492957  55.5339639  28.7606139 102.1402118
  56.0949994  27.3785248 102.3989570  56.7457747  29.2598563 109.4191782
  57.4180801  29.0515925 108.7704431  55.9187534  29.0620649 108.9797014
  70.9947008  36.0002613 108.9367115  71.1882899  36.9048424 109.1826390
  70.8947627  35.5410032 109.7705700  62.6483319  25.8860504 111.4357443
  62.0011234  26.5850454 111.3421919  63.4184335  26.3196648 111.8033691
  66.0562117  36.1509356 114.5107996  65.9047624  35.9219908 113.5938080
  66.0466797  37.1079957 114.5239341  62.8247454  33.7241269 109.4954262
  63.7539514  33.8752428 109.3223230  62.4038484  33.8125290 108.6402909
  61.6235785  37.7491933 107.2652800  61.4846871  37.3810718 108.1378738
  60.8350382  38.2639573 107.0936758  63.1741000  37.1273536 104.6541638
  62.8390833  37.0874306 105.5499288  62.6744946  36.4618252 104.1812048
  57.1485244  32.5341166 110.1794219  57.0105042  31.8021405 110.7805758
  58.0590168  32.4450066 109.8978407  66.1100192  34.4729570  94.9278697
  65.4929363  33.7476398  94.8311750  65.6416681  35.2338931  94.5845772
  59.7767545  32.2461125 109.6677899  60.4867164  31.6054317 109.6264517
  59.7336853  32.4974020 110.5904079  67.7654324  39.1828479 112.5884478
  67.7066870  38.4987699 111.9215061  68.1673842  39.9247469 112.1365104
  58.4896479  29.2326343 111.4873538  57.9533836  28.7817082 112.1395134
  57.9013188  29.3672252 110.7444002  57.8998738  28.6914995  94.0500002
  57.0228204  28.5703795  93.6862248  58.3756491  27.9001073  93.7978890
  67.7671731  37.1468063 110.8198457  66.8798510  36.8093984 110.9424856
  68.3370282  36.4151094 111.0567223  49.4200878  33.4792154 104.1441509
  50.1071918  33.1653884 103.5562524  49.2649007  34.3833519 103.8708760
  54.2235600  28.3682351 108.5726533  54.1393789  27.7608020 107.8376942
  53.4018307  28.8591369 108.5736029  64.3959314  26.8535914 103.9396728
  64.8928014  26.1005877 103.6197798  63.6246296  26.8900231 103.3739937
  72.2489072  32.5576280 105.5815019  72.2378948  33.4400995 105.2108952
  71.3806451  32.2047831 105.3869556  65.4789095  35.6107602 101.5135151
  64.5445374  35.7309064 101.3439855  65.6565763  34.7080068 101.2495161
  60.9794283  28.9953297 103.6668412  60.6092070  28.4424338 104.3549318
  61.4753375  28.3911431 103.1143412  68.8661646  31.4524921 102.0485185
  69.3322098  32.2852912 101.9745488  69.3169147  30.9869902 102.7530444
  58.8083482  39.4550792 110.7623430  59.5092941  40.0887275 110.9152824
  58.3378597  39.7965524 110.0019069  66.9337877  37.7968742  99.0471337
  67.2097721  37.6825337  99.9565211  66.0642376  37.3986227  99.0083510
  66.8378309  23.8205508 106.0876086  65.9241389  24.0509735 106.2558293
  67.2671410  23.9043952 106.9390119  66.6084767  32.0095400 108.5875981
  65.9556218  32.2571307 107.9328433  66.9865147  31.1959538 108.2538458
  62.6572340  32.7515211 115.0742018  61.9812978  32.6509340 115.7444393
  63.4799974  32.5954425 115.5378015  54.4051200  38.9887147 107.6954533
  54.9904636  38.2430835 107.8282437  54.2076038  39.2991104 108.5791197
  48.9968854  31.5592748 106.4158976  49.0352954  31.0256338 107.2096094
  48.4909147  31.0327953 105.7969953  56.3759617  26.4057288 109.9121518
  56.4400943  27.2672119 109.4998916  56.3126737  25.7931290 109.1793877
  55.8511889  28.4780421 113.5594553  56.4783928  28.0957498 114.1732077
  54.9939808  28.2594623 113.9250245  66.2505998  38.8843396 115.1648288
  66.7945902  39.4973354 114.6703243  65.6692843  39.4422974 115.6815301
  52.6277432  30.2856850  99.4912907  52.9230873  29.3767528  99.4379961
  51.7265468  30.2644589  99.1693910  56.1571679  28.3612846 105.4740456
  55.4358265  28.9748814 105.3347929  56.9464935  28.8970611 105.3957102
  66.5998419  39.8073134 107.9242866  65.6528755  39.6878485 107.8521193
  66.9481192  38.9195632 108.0069127  58.9597992  25.6967273 111.7481108
  59.4832394  25.9429569 112.5107417  58.7410326  26.5287308 111.3284245
  54.3565273  27.9670947  99.6152233  54.0277980  27.0868326  99.4327338
  54.7104644  27.9118616 100.5028622  63.6044852  39.6025850 104.1247218
  63.4569815  38.6742558 104.3054788  64.4298346  39.6245941 103.6404293
  57.4707097  28.2543917  99.9827710  57.8103169  28.7829838  99.2606319
  57.9179217  28.5924323 100.7586277  67.2078974  40.4254409 105.2112091
  68.1325522  40.2197270 105.0736542  67.0394278  40.1770810 106.1201432
  60.1650537  26.6380968 109.4330778  59.8247358  25.8388781 109.8351458
  59.4589544  26.9382679 108.8607611  60.8167009  23.7230280 107.8858101
  61.6393079  23.2490759 107.7636992  61.0605073  24.5020764 108.3856788
  59.4575244  26.7518539  98.1821003  60.1783606  27.1299792  97.6784720
  58.8340548  27.4707416  98.2855981  63.6006367  27.4563688  99.1179335
  63.8169981  28.3388326  98.8168163  63.1200434  27.0649901  98.3884977
  58.3405588  30.4149401 105.6950080  58.1950169  30.7289704 106.5874361
  57.8630792  31.0334301 105.1420979  60.2001971  27.4051949 105.7430969
  60.1863540  26.5093042 105.4063267  60.9174399  27.4122613 106.3769255
  62.0528102  27.8389289 107.7884097  61.7945879  28.7606360 107.7868427
  61.5213142  27.4419724 108.4784561  66.9974290  40.9440076 100.5674182
  67.1711168  40.3786499  99.8148035  67.4903182  41.7440971 100.3853672
  52.8151250  32.9554745 108.6337741  52.2704718  33.7314553 108.7658015
  53.6930600  33.3025550 108.4756863  59.6038867  26.2866329 101.0118540
  59.7254778  25.3582975 101.2109427  59.3140909  26.3005015 100.0996855
  62.4730057  23.9721240 104.1485259  62.4951754  24.0360573 103.1937239
  62.8898116  23.1325748 104.3425766  72.8513682  33.7076499 102.1864482
  73.2944828  32.9583824 101.7883605  71.9740192  33.6986636 101.8038214
  67.9849463  40.2606841  97.6671081  68.6800368  40.8813533  97.8858395
  68.3272613  39.4102192  97.9423458  53.6017272  32.0824642 111.5267898
  52.8599008  32.2307277 112.1132528  53.2810016  32.3432907 110.6634647
  69.8840886  37.7106546  99.1958411  70.4092210  38.0493819  98.4707731
  69.7963239  36.7753562  99.0121546  61.5460935  41.6240620 111.3248288
  61.8548061  41.3789767 112.1970988  62.3436417  41.8287258 110.8367158
  54.0473886  39.9690070 103.5578293  54.8731906  39.6693842 103.1776936
  53.6967938  39.1997693 104.0068081  52.2482491  37.8876397 104.5167226
  51.4114399  37.4598571 104.3351227  52.2206136  38.0808840 105.4538017
  59.0879946  27.7998327 115.2208472  59.1368102  28.6760449 114.8386242
  59.6302461  27.2575720 114.6480115  69.5734792  38.3439450 114.5009609
  68.7830336  38.3263589 113.9614109  69.3368147  38.8827744 115.2558646
  69.6932667  35.1931916 111.8142338  69.7430672  35.0281924 112.7557861
  69.5846590  34.3259175 111.4240219  66.9836430  31.1762844 113.1301645
  67.8846292  31.0369309 112.8385642  67.0584404  31.3417299 114.0699822
  61.3179235  28.5529699 111.9754831  60.4482544  28.8463265 111.7037419
  61.5538715  29.1370144 112.6962094  71.1950864  37.6128858 112.0584359
  70.9035672  37.9758838 112.8947820  70.5822995  36.8995866 111.8797691
  72.3946546  35.1781738 104.5786930  73.2293438  35.6171542 104.7424490
  72.5305675  34.7020391 103.7595175  69.4438052  32.7361472 110.5264417
  69.9192174  32.9289119 109.7183269  68.5203618  32.7920658 110.2807801
  56.3321559  33.8985640 100.1095496  56.0867601  32.9947970 100.3075706
  56.5017473  33.9002790  99.1674974  64.0218269  24.7709316 109.4920251
  64.5400213  25.5070343 109.1666740  63.6673401  25.0773309 110.3267010
  55.6017206  29.6313997  97.6081657  54.9086451  29.7058352  96.9521693
  55.3568958  28.8674341  98.1303174  64.2730863  21.1909599 105.0121148
  64.5532617  20.5232788 105.6381574  65.0581470  21.3838694 104.4995812
  68.1439721  29.6127233 108.7592723  69.0957144  29.7125330 108.7804947
  67.9743172  28.8205501 109.2690807  66.1654101  26.6982816 108.9452124
  65.5704033  26.9787828 108.2498612  65.8803797  27.1876717 109.7168865
  65.2961591  40.6505743  97.7054756  66.2292264  40.5851304  97.9087632
  65.2084804  41.4862009  97.2469289  67.9249608  39.9671613  94.6658704
  67.8463239  39.6331477  95.5594462  68.7459275  40.4593381  94.6650176
  70.6227799  32.8333352 107.8735023  70.5904119  31.8949353 108.0594706
  71.2328423  32.9117389 107.1400847  62.4611130  31.7029405  93.9162227
  63.4070235  31.5735613  93.9850645  62.0825375  30.9644067  94.3931655
  70.7722287  29.6244396 107.9193306  70.2561336  28.8402852 107.7323235
  71.6562236  29.2963112 108.0839825  68.4333014  23.3685411 103.8789118
  68.2357836  23.0600499 104.7632450  69.0432720  24.0947050 104.0087048
  76.4404349  33.8949359 107.0141059  77.1707737  33.6334647 107.5748763
  75.8311294  33.1578081 107.0543127  74.5219646  32.0357222 107.6115511
  73.7952810  31.9013187 107.0032002  74.1066933  32.3434050 108.4172229
  62.3449822  35.7547151 115.3762884  63.2652832  35.9325750 115.5702930
  62.3099405  34.8103197 115.2242583  60.6454047  29.6279382  93.8517112
  59.7385502  29.3312494  93.9279825  60.9230028  29.3309200  92.9851398
  51.5631987  30.9485745 104.3016158  51.2434772  30.0951053 104.0090532
  51.0165416  31.1634323 105.0574126  55.3411895  33.6648186 108.0185665
  55.5597905  34.5965294 108.0373699  55.7537669  33.3056160 108.8040469
  62.2616113  24.1716271 100.0061353  61.4516841  23.8263356 100.3816599
  62.9500530  23.8623815 100.5948965  64.1906661  23.2494318 101.6285650
  64.7437700  23.6689772 102.2875673  64.4276747  22.3230066 101.6708606
  60.2139760  29.2381392 117.4088414  60.1136487  30.1875749 117.3400505
  59.9961302  28.9099631 116.5364484  59.4152832  26.4866317  93.9929091
  60.2771996  26.8121215  94.2524908  59.6003176  25.6997813  93.4802157
  51.4320247  34.5688656 106.2709280  50.7383719  34.1542609 105.7579234
  52.1793238  34.6109193 105.6742699  67.5685468  25.3594843 101.1364314
  66.9884137  26.0179647 100.7542366  67.3021401  24.5372188 100.7251732
  66.0189034  24.7599901 103.3385634  66.5188813  24.8716435 102.5299953
  66.6624642  24.4560954 103.9786443  60.0771030  32.6678531 116.2253475
  59.5938112  33.4678891 116.4317364  60.1631969  32.6786475 115.2720919
  53.3456990  34.5006910 104.1475295  53.3227678  34.5994598 103.1957178
  53.6557626  35.3472061 104.4692461  56.0044368  36.5583065 108.2621909
  56.9587621  36.5267008 108.1951841  55.8056891  36.0973689 109.0772135
  56.5943750  35.1284181 110.8292707  57.4136639  35.6228260 110.8527544
  56.8680558  34.2116149 110.8010274  66.3510346  27.5194934 100.1920662
  65.4636201  27.8044584  99.9740857  66.7664335  27.3588697  99.3447939
  69.7024882  27.5441455 103.9075002  70.4785272  28.0337907 104.1799618
  68.9773016  27.9699509 104.3646871  72.1397441  28.2569074 104.9648942
  72.7341932  28.0164810 104.2542250  72.2124025  27.5376204 105.5922478
  54.3594597  42.1002685 105.2792107  54.2249064  41.3403086 104.7130105
  53.9426659  42.8243585 104.8120896  65.4953560  37.2839608  94.2868682
  66.1989410  37.4889611  94.9026338  64.7716208  37.8516370  94.5517766
  66.3251370  33.0349470 100.4070952  66.2686571  33.4918021  99.5678585
  66.8779712  32.2740154 100.2293795  70.1356176  28.8239201 101.2321072
  69.8793110  28.4235837 102.0629280  69.5109044  29.5382995 101.1071211
  74.4468514  31.5635275 103.7392363  73.8868072  31.6328464 104.5123925
  73.8412017  31.3876259 103.0191860  67.4040257  37.7222138  96.3367142
  68.2385861  37.2903336  96.1544617  67.2424600  37.5504151  97.2644037
  67.0586149  34.2254251  97.7023482  67.0034953  34.0598522  96.7611926
  66.4332204  34.9330284  97.8585671  51.8478664  29.4622315 111.5284904
  52.4937528  28.9521269 112.0172129  51.6395815  30.1990997 112.1028329
  64.3732056  36.5303163 117.0277044  65.2423216  36.7043815 116.6663679
  63.8938808  37.3497579 116.9052774  60.3682275  23.7262360  97.2808800
  60.3560944  24.6704200  97.4377071  61.2605696  23.5432505  96.9868261
  58.5418237  43.6500264 108.7066478  59.4445483  43.6823874 109.0232973
  58.3155607  42.7200715 108.7212814  64.1834394  20.3205136 101.5354737
  63.4166790  19.7663623 101.6811419  64.5945099  20.3927005 102.3968888
  56.1876155  26.6089932 115.6259918  57.0507617  26.2526737 115.8363243
  55.6141566  26.2703827 116.3135322  76.0324532  48.2391789 106.4322319
  76.6702942  48.1198536 105.7285659  75.9145375  49.1872633 106.4910271
  73.3234021  49.3454068 112.3270049  73.3122662  48.9506867 111.4550553
  73.4854661  48.6120141 112.9203821  70.0441282  52.1291180 111.2749233
  69.7531148  53.0336811 111.1595900  70.6798267  52.1707708 111.9893303
  75.5865801  45.9643242 103.5075527  76.3728890  45.5462666 103.1565944
  75.8504505  46.8689335 103.6757176  75.7575878  51.4016093  98.2064184
  75.1221711  51.4750719  98.9185089  75.4273284  51.9909692  97.5283263
  80.9874228  45.9018476 104.4108506  81.7199400  45.3317692 104.6446335
  80.2313583  45.5140076 104.8515011  78.5099648  39.6140050 108.8703114
  78.1782973  40.4835461 108.6464329  77.9145261  39.2976334 109.5497145
  72.2455834  43.3535617  96.6033197  72.4130237  44.2215853  96.9703668
  72.0553003  43.5162899  95.6794486  75.0031168  51.8152596 108.2699027
  74.7031891  52.7177635 108.1614834  74.6582227  51.5484779 109.1220180
  78.4028311  44.3335136 105.9496464  77.4945189  44.2650544 105.6555225
  78.3515907  44.8107081 106.7778290  72.4769177  45.7524782 113.8931362
  71.7002511  46.3118702 113.8834226  73.1159740  46.2381565 114.4146232
  80.2689958  42.5351574 107.7274338  79.6264338  42.8284108 107.0814133
  79.7644886  42.4204495 108.5327535  77.9230121  46.2814748  98.4160198
  78.8347978  46.5142134  98.2407895  77.4139768  46.8651792  97.8535276
  70.7315549  48.5610235 113.4549329  71.4730234  49.0995279 113.1784152
  70.0252535  49.1876524 113.6120880  76.2070889  50.7039375 112.0521490
  76.6154245  50.2621786 111.3076122  75.4848151  50.1292003 112.3055683
  72.5601959  45.6411982 109.4255047  73.4063154  46.0651396 109.5689696
  72.5000597  44.9845606 110.1193610  76.5299704  51.2640566 105.8073779
  75.9008566  51.4286280 105.1049847  76.1425366  51.6782176 106.5784743
  80.4088936  52.1995004 103.1618143  79.7239974  52.5793905 102.6115176
  80.4932785  52.8090330 103.8950090  75.7101404  43.3016350 111.0836221
  75.4662336  44.0558411 110.5470496  75.9861335  43.6801698 111.9183468
  77.6639867  49.8454963 109.7613486  77.8756762  50.4886723 109.0847867
  77.6169615  49.0117279 109.2935416  75.2666096  42.4572784 106.6650058
  74.4050575  42.7554037 106.9566796  75.2928531  42.6743182 105.7331091
  69.4676913  45.7149883 114.2564639  68.8375574  46.3966164 114.4900035
  69.3613001  45.6032965 113.3117777  78.7785695  52.7226918 107.9335844
  79.6003139  52.3207106 107.6518525  78.7748098  52.6195152 108.8851959
  72.5442299  52.2710962 110.0896554  72.6086731  52.7331369 110.9254726
  71.8353223  51.6408326 110.2178864  86.8691688  49.0665667 104.2820815
  86.1155397  48.4973065 104.1264819  87.0039229  49.0328331 105.2291450
  68.7457656  40.0170649 116.6189890  68.3524601  39.4636847 117.2937534
  69.5623796  40.3281227 117.0096407  71.6625617  41.4328528 114.2110146
  72.4035330  42.0335681 114.1314609  71.8943540  40.6906166 113.6528189
  66.8066955  46.6184895 112.4888376  66.6920470  45.7170153 112.7895475
  65.9511473  46.8648592 112.1373192  73.8858793  54.5602636 114.0875876
  73.4422647  53.7739014 113.7696781  74.5476006  54.7481786 113.4219767
  68.6445914  56.0898437 108.6136555  69.1953339  55.9615501 107.8413549
  67.8057390  56.3893326 108.2631448  75.9840031  54.8405436 112.1157278
  75.9658506  55.6614317 111.6237547  76.9059951  54.7159511 112.3407419
  72.4413085  52.3549565 112.9580786  72.9741422  51.5937853 112.7280094
  71.9127166  52.0623217 113.7004941  75.6082780  37.4609631 108.4874428
  75.2647049  38.3511273 108.4113538  75.9761742  37.2711289 107.6244013
  75.5733063  47.4518242  96.9946863  75.0579686  48.2222847  97.2335250
  75.3010371  46.7783378  97.6179924  73.1580174  42.2967943 102.0532101
  72.3021770  41.9074793 101.8737740  73.5707125  42.3759904 101.1931887
  74.6879320  39.8314286 106.4523661  74.1844116  39.7944421 105.6391466
  74.9809927  40.7407029 106.5120318  70.9322206  39.9153016 105.4589843
  71.7975203  39.7195825 105.0995732  70.9999715  39.6863368 106.3859200
  80.5467337  50.2050597  98.9300036  79.7696779  49.8661756  98.4855199
  81.2258818  50.2103220  98.2555002  75.3619366  45.3245334  98.8206644
  75.0569501  45.6391483  99.6716787  76.3149808  45.4026754  98.8633977
  78.7858644  49.6784578 105.5866644  78.1282318  50.3683839 105.6746773
  79.5899043  50.0681010 105.9300631  68.5384525  42.1455224 102.8306210
  69.1128277  41.9230405 102.0979403  69.1255508  42.2143918 103.5834811
  77.5964102  48.0328951 103.6370586  78.1095984  48.6658942 104.1392296
  78.2465326  47.4330146 103.2713946  68.8654112  44.1759685  96.8502095
  68.0291425  44.5134371  97.1711370  68.7258882  44.0408665  95.9129232
  70.8407193  39.0196473 101.5581279  70.1871605  38.7045490 100.9337894
  70.7987667  38.3972213 102.2841102  74.0744933  45.5078406 105.8828927
  73.1567495  45.7293353 105.7250615  74.4905077  45.5824717 105.0240634
  74.8579981  46.9069822 101.0131607  75.6051800  47.4191219 100.7038729
  75.1271571  46.5853875 101.8736001  78.3625899  53.0134952 101.7649729
  77.9088226  52.1725862 101.8214919  77.7319865  53.6496350 102.1024509
  77.3058818  43.9426938 102.9950396  76.5681575  43.4304324 103.3260639
  77.5585592  43.5027320 102.1833673  76.8058838  54.8511449 102.6999547
  77.0981812  55.4116506 101.9811913  77.3157458  55.1440010 103.4552706
  77.4070446  36.7203190 103.5892166  77.7129322  35.8600554 103.3018081
  78.1323050  37.3120810 103.3891159  75.2158097  46.0975867 110.6873629
  75.5707485  46.3247341 111.5468095  75.8630228  46.4294244 110.0650885
  80.9455834  49.2194303 101.3922958  80.8073732  49.4095899 100.4644148
  80.5892053  49.9813686 101.8491010  69.1097960  43.2052398 107.4719970
  69.7497339  43.0641158 106.7742934  68.2775490  42.9186912 107.0958572
  80.9725213  51.2870830 106.4034230  81.4061720  51.1946119 107.2517284
  81.6856794  51.2628331 105.7654246  74.7053108  54.8872924 107.9367331
  74.7590131  55.4563861 108.7045046  73.8367890  55.0574809 107.5721368
  66.1126576  43.1752723 102.2492957  66.3733394  44.0898057 102.1402118
  66.9343749  42.7077166 102.3989570  67.5851502  44.5890481 109.4191782
  68.2574555  44.3807843 108.7704431  66.7581288  44.3912567 108.9797014
  81.8340763  51.3294531 108.9367115  82.0276653  52.2340341 109.1826390
  81.7341381  50.8701950 109.7705700  73.4877074  41.2152422 111.4357443
  72.8404989  41.9142371 111.3421919  74.2578089  41.6488565 111.8033691
  76.8955872  51.4801274 114.5107996  76.7441378  51.2511825 113.5938080
  76.8860551  52.4371875 114.5239341  73.6641208  49.0533186 109.4954262
  74.5933268  49.2044346 109.3223230  73.2432238  49.1417207 108.6402909
  72.4629540  53.0783851 107.2652800  72.3240626  52.7102635 108.1378738
  71.6744136  53.5931490 107.0936758  67.9878999  47.8633084 110.1794219
  67.8498797  47.1313322 110.7805758  68.8983922  47.7741984 109.8978407
  78.6048078  54.5120396 112.5884478  78.5460624  53.8279616 111.9215061
  79.0067597  55.2539386 112.1365104  69.3290234  44.5618261 111.4873538
  68.7927591  44.1108999 112.1395134  68.7406942  44.6964170 110.7444002
  68.7392493  44.0206912  94.0500002  67.8621959  43.8995713  93.6862248
  69.2150246  43.2292991  93.7978890  78.6065486  52.4759980 110.8198457
  77.7192264  52.1385902 110.9424856  79.1764037  51.7443011 111.0567223
  72.1366639  57.1361433 107.7859701  72.0636810  57.9416404 108.2979005
  71.6944032  57.3353398 106.9607722  75.2353069  42.1827832 103.9396728
  75.7321768  41.4297794 103.6197798  74.4640050  42.2192149 103.3739937
  83.0882826  47.8868198 105.5815019  83.0772702  48.7692913 105.2108952
  82.2200206  47.5339748 105.3869556  74.5965322  57.0348267 109.9417859
  75.3093295  57.6695731 109.8693761  74.1055351  57.1312133 109.1257861
  76.3182849  50.9399519 101.5135151  75.3839128  51.0600982 101.3439855
  76.4959518  50.0371986 101.2495161  71.8188037  44.3245215 103.6668412
  71.4485825  43.7716255 104.3549318  72.3147130  43.7203349 103.1143412
  79.7055401  46.7816839 102.0485185  80.1715853  47.6144830 101.9745488
  80.1562901  46.3161820 102.7530444  69.6477236  54.7842710 110.7623430
  70.3486695  55.4179193 110.9152824  69.1772351  55.1257442 110.0019069
  77.7731632  53.1260660  99.0471337  78.0491476  53.0117254  99.9565211
  76.9036131  52.7278145  99.0083510  77.6772063  39.1497426 106.0876086
  76.7635143  39.3801652 106.2558293  78.1065165  39.2335870 106.9390119
  77.4478522  47.3387317 108.5875981  76.7949972  47.5863225 107.9328433
  77.8258902  46.5251456 108.2538458  73.4966095  48.0807129 115.0742018
  72.8206732  47.9801258 115.7444393  74.3193729  47.9246342 115.5378015
  72.2388878  59.3874056 109.3099634  72.7907186  59.5505678 110.0748719
  72.5795071  59.9778494 108.6379658  67.2153371  41.7349206 109.9121518
  67.2794698  42.5964037 109.4998916  67.1520491  41.1223207 109.1793877
  66.6905644  43.8072338 113.5594553  67.3177682  43.4249416 114.1732077
  65.8333562  43.5886540 113.9250245  77.0899752  54.2135314 115.1648288
  77.6339656  54.8265272 114.6703243  76.5086597  54.7714892 115.6815301
  75.3757265  57.3356032 106.2963316  75.2508405  56.5345771 105.7874261
  76.0336356  57.8302225 105.8077286  66.9965433  43.6904764 105.4740456
  66.2752019  44.3040732 105.3347929  67.7858689  44.2262529 105.3957102
  77.4392174  55.1365052 107.9242866  76.4922509  55.0170403 107.8521193
  77.7874947  54.2487550 108.0069127  69.7991747  41.0259191 111.7481108
  70.3226149  41.2721487 112.5107417  69.5804080  41.8579225 111.3284245
  68.3100851  43.5835835  99.9827710  68.6496924  44.1121756  99.2606319
  68.7572972  43.9216241 100.7586277  78.0472729  55.7546327 105.2112091
  78.9719276  55.5489188 105.0736542  77.8788032  55.5062728 106.1201432
  71.0044292  41.9672886 109.4330778  70.6641112  41.1680699 109.8351458
  70.2983298  42.2674596 108.8607611  71.6560764  39.0522198 107.8858101
  72.4786833  38.5782676 107.7636992  71.8998827  39.8312682 108.3856788
  70.2968998  42.0810457  98.1821003  71.0177361  42.4591709  97.6784720
  69.6734302  42.7999333  98.2855981  74.4400121  42.7855605  99.1179335
  74.6563736  43.6680243  98.8168163  73.9594188  42.3941819  98.3884977
  71.0395725  42.7343867 105.7430969  71.0257294  41.8384960 105.4063267
  71.7568154  42.7414530 106.3769255  72.8921856  43.1681207 107.7884097
  72.6339634  44.0898278 107.7868427  72.3606896  42.7711641 108.4784561
  70.4432621  41.6158247 101.0118540  70.5648533  40.6874893 101.2109427
  70.1534664  41.6296933 100.0996855  73.3123812  39.3013157 104.1485259
  73.3345509  39.3652490 103.1937239  73.7291871  38.4617666 104.3425766
  83.6907436  49.0368417 102.1864482  84.1338582  48.2875742 101.7883605
  82.8133946  49.0278553 101.8038214  78.8243217  55.5898758  97.6671081
  79.5194122  56.2105451  97.8858395  79.1666368  54.7394110  97.9423458
  64.4411027  47.4116559 111.5267898  63.6992763  47.5599195 112.1132528
  64.1203771  47.6724825 110.6634647  80.7234640  53.0398464  99.1958411
  81.2485965  53.3785737  98.4707731  80.6356993  52.1045479  99.0121546
  72.3854689  56.9532538 111.3248288  72.6941816  56.7081684 112.1970988
  73.1830171  57.1579176 110.8367158  69.9273701  43.1290244 115.2208472
  69.9761856  44.0052367 114.8386242  70.4696215  42.5867637 114.6480115
  80.4128547  53.6731368 114.5009609  79.6224090  53.6555506 113.9614109
  80.1761901  54.2119661 115.2558646  80.5326422  50.5223834 111.8142338
  80.5824427  50.3573841 112.7557861  80.4240345  49.6551093 111.4240219
  77.8230184  46.5054762 113.1301645  78.7240047  46.3661227 112.8385642
  77.8978159  46.6709217 114.0699822  72.1572989  43.8821617 111.9754831
  71.2876299  44.1755183 111.7037419  72.3932470  44.4662062 112.6962094
  82.0344618  52.9420775 112.0584359  81.7429427  53.3050756 112.8947820
  81.4216750  52.2287784 111.8797691  83.2340301  50.5073655 104.5786930
  84.0687192  50.9463459 104.7424490  83.3699430  50.0312308 103.7595175
  80.2831807  48.0653390 110.5264417  80.7585928  48.2581036 109.7183269
  79.3597372  48.1212576 110.2807801  74.8612023  40.1001234 109.4920251
  75.3793967  40.8362261 109.1666740  74.5067156  40.4065227 110.3267010
  75.1124617  36.5201516 105.0121148  75.3926371  35.8524705 105.6381574
  75.8975224  36.7130612 104.4995812  78.9833476  44.9419150 108.7592723
  79.9350899  45.0417248 108.7804947  78.8136926  44.1497419 109.2690807
  77.0047855  42.0274733 108.9452124  76.4097787  42.3079746 108.2498612
  76.7197552  42.5168634 109.7168865  78.7643362  55.2963531  94.6658704
  78.6856994  54.9623394  95.5594462  79.5853029  55.7885298  94.6650176
  81.4621553  48.1625270 107.8735023  81.4297874  47.2241271 108.0594706
  82.0722177  48.2409307 107.1400847  73.3004884  47.0321323  93.9162227
  74.2463989  46.9027531  93.9850645  72.9219129  46.2935985  94.3931655
  81.6116042  44.9536313 107.9193306  81.0955091  44.1694770 107.7323235
  82.4955990  44.6255030 108.0839825  79.2726769  38.6977329 103.8789118
  79.0751590  38.3892417 104.7632450  79.8826474  39.4238968 104.0087048
  87.2798103  49.2241277 107.0141059  88.0101492  48.9626565 107.5748763
  86.6705049  48.4869999 107.0543127  85.3613400  47.3649139 107.6115511
  84.6346564  47.2305104 107.0032002  84.9460687  47.6725968 108.4172229
  73.1843577  51.0839069 115.3762884  74.1046586  51.2617668 115.5702930
  73.1493160  50.1395114 115.2242583  71.4847801  44.9571299  93.8517112
  70.5779257  44.6604412  93.9279825  71.7623782  44.6601117  92.9851398
  73.1009867  39.5008189 100.0061353  72.2910596  39.1555274 100.3816599
  73.7894284  39.1915733 100.5948965  75.0300415  38.5786236 101.6285650
  75.5831454  38.9981689 102.2875673  75.2670502  37.6521984 101.6708606
  71.0533515  44.5673309 117.4088414  70.9530242  45.5167666 117.3400505
  70.8355057  44.2391548 116.5364484  70.2546586  41.8158234  93.9929091
  71.1165750  42.1413133  94.2524908  70.4396930  41.0289730  93.4802157
  78.4079223  40.6886761 101.1364314  77.8277892  41.3471565 100.7542366
  78.1415155  39.8664106 100.7251732  76.8582789  40.0891819 103.3385634
  77.3582567  40.2008353 102.5299953  77.5018397  39.7852871 103.9786443
  70.9164785  47.9970448 116.2253475  70.4331866  48.7970808 116.4317364
  71.0025724  48.0078393 115.2720919  67.4337504  50.4576099 110.8292707
  68.2530393  50.9520178 110.8527544  67.7074312  49.5408067 110.8010274
  77.1904101  42.8486851 100.1920662  76.3029956  43.1336502  99.9740857
  77.6058090  42.6880615  99.3447939  80.5418637  42.8733372 103.9075002
  81.3179027  43.3629825 104.1799618  79.8166771  43.2991426 104.3646871
  82.9791195  43.5860992 104.9648942  83.5735686  43.3456727 104.2542250
  83.0517779  42.8668122 105.5922478  80.9749930  44.1531119 101.2321072
  80.7186864  43.7527755 102.0629280  80.3502798  44.8674913 101.1071211
  85.2862268  46.8927192 103.7392363  84.7261826  46.9620382 104.5123925
  84.6805771  46.7168177 103.0191860  78.2434011  53.0514055  96.3367142
  79.0779615  52.6195254  96.1544617  78.0818354  52.8796069  97.2644037
  77.8979904  49.5546168  97.7023482  77.8428707  49.3890440  96.7611926
  77.2725959  50.2622201  97.8585671  62.6872419  44.7914233 111.5284904
  63.3331282  44.2813187 112.0172129  62.4789570  45.5282915 112.1028329
  75.2125811  51.8595080 117.0277044  76.0816970  52.0335733 116.6663679
  74.7332562  52.6789497 116.9052774  71.2076029  39.0554277  97.2808800
  71.1954699  39.9996117  97.4377071  72.0999451  38.8724423  96.9868261
  69.3811991  58.9792181 108.7066478  70.2839238  59.0115792 109.0232973
  69.1549361  58.0492632 108.7212814  71.1365593  57.7323168 105.3676557
  70.1861224  57.7325030 105.2540929  71.4398079  56.9855902 104.8512591
  75.0228149  35.6497054 101.5354737  74.2560544  35.0955541 101.6811419
  75.4338854  35.7218923 102.3968888  67.0269910  41.9381850 115.6259918
  67.8901371  41.5818655 115.8363243  66.4535320  41.5995745 116.3135322
  86.8718287  63.5683706 106.4322319  87.5096697  63.4490454 105.7285659
  86.7539129  64.5164550 106.4910271  83.6807993  63.5211134 106.3683844
  83.3426504  63.4052199 105.4804379  84.5497761  63.1202299 106.3484850
  79.5394809  65.3746611 102.3580735  78.9759674  65.2836548 101.5897023
  79.4247204  64.5546515 102.8383227  84.1627776  64.6745986 112.3270049
  84.1516417  64.2798784 111.4550553  84.3248415  63.9412059 112.9203821
  77.0859240  66.8697802 105.1964955  77.8780532  66.5288627 104.7811255
  77.3255891  66.9792777 106.1167109  80.8835037  67.4583098 111.2749233
  80.5924903  68.3628729 111.1595900  81.5192021  67.4999626 111.9893303
  81.8091244  64.8359946 107.8650593  82.4054816  64.6115969 107.1507556
  81.8666215  64.0944692 108.4676041  86.4259555  61.2935160 103.5075527
  87.2122644  60.8754583 103.1565944  86.6898259  62.1981252 103.6757176
  91.8267982  61.2310393 104.4108506  92.5593154  60.6609610 104.6446335
  91.0707338  60.8431994 104.8515011  83.4444102  63.6537635 101.6071848
  83.0802309  63.1268256 102.3184770  84.3011218  63.2636104 101.4338334
  89.3493403  54.9431967 108.8703114  89.0176727  55.8127378 108.6464329
  88.7539016  54.6268251 109.5497145  83.0849589  58.6827535  96.6033197
  83.2523991  59.5507771  96.9703668  82.8946758  58.8454816  95.6794486
  85.8424922  67.1444513 108.2699027  85.5425645  68.0469552 108.1614834
  85.4975982  66.8776697 109.1220180  79.2937404  63.5958310 104.3035731
  78.3687900  63.4634524 104.5113423  79.5421817  64.3752530 104.8005674
  89.2422066  59.6627054 105.9496464  88.3338943  59.5942462 105.6555225
  89.1909662  60.1398999 106.7778290  76.6546215  63.2391584 105.1379520
  76.7838596  63.4926063 106.0518932  75.9743666  63.8319292 104.8184176
  80.8245702  73.9088834 101.2369995  80.7469732  74.8596659 101.3158475
  80.2207345  73.5634706 101.8944921  83.3162932  61.0816699 113.8931362
  82.5396266  61.6410619 113.8834226  83.9553495  61.5673482 114.4146232
  91.1083712  57.8643492 107.7274338  90.4658092  58.1576025 107.0814133
  90.6038641  57.7496412 108.5327535  88.7623876  61.6106665  98.4160198
  89.6741732  61.8434052  98.2407895  88.2533523  62.1943709  97.8535276
  81.5709304  63.8902153 113.4549329  82.3123988  64.4287197 113.1784152
  80.8646289  64.5168441 113.6120880  87.0464644  66.0331293 112.0521490
  87.4548000  65.5913704 111.3076122  86.3241905  65.4583921 112.3055683
  83.3995714  60.9703900 109.4255047  84.2456909  61.3943313 109.5689696
  83.3394351  60.3137524 110.1193610  87.3693458  66.5932484 105.8073779
  86.7402321  66.7578198 105.1049847  86.9819120  67.0074093 106.5784743
  91.2482690  67.5286922 103.1618143  90.5633728  67.9085823 102.6115176
  91.3326539  68.1382248 103.8950090  86.5495159  58.6308268 111.0836221
  86.3056091  59.3850329 110.5470496  86.8255089  59.0093616 111.9183468
  88.5033622  65.1746881 109.7613486  88.7150517  65.8178640 109.0847867
  88.4563370  64.3409197 109.2935416  86.1059851  57.7864701 106.6650058
  85.2444330  58.0845955 106.9566796  86.1322285  58.0035100 105.7331091
  82.9221420  66.3306892 103.0723864  83.3859766  66.6094595 102.2828487
  82.6578218  65.4290336 102.8896955  79.8145501  65.8778373 106.0103627
  80.3846858  66.3065642 105.3721112  80.4053613  65.5960958 106.7087813
  81.8590306  62.4530044  99.8813429  82.5614349  62.9051088 100.3487356
  81.5270935  61.8113863 100.5093322  80.3070668  61.0441801 114.2564639
  79.6769328  61.7258082 114.4900035  80.2006756  60.9324882 113.3117777
  75.6015640  60.7113597 105.1830563  74.8114694  60.9671125 104.7070673
  76.0926887  61.5261935 105.2882603  89.6179450  68.0518836 107.9335844
  90.4396893  67.6499023 107.6518525  89.6141853  67.9487070 108.8851959
  77.5530385  61.0758176 102.1414039  76.7561549  61.1876870 102.6597535
  77.3255978  61.4144828 101.2754930  83.3836053  67.6002879 110.0896554
  83.4480486  68.0623286 110.9254726  82.6746977  66.9700244 110.2178864
  73.8853343  60.9644087 107.6145554  74.1361382  61.8491097 107.8803130
  74.4212891  60.7848689 106.8420645  97.7085443  64.3957584 104.2820815
  96.9549151  63.8264983 104.1264819  97.8432984  64.3620249 105.2291450
  79.5851410  55.3462567 116.6189890  79.1918356  54.7928765 117.2937534
  80.4017551  55.6573145 117.0096407  78.3608353  69.9012181 102.6126213
  78.5374981  70.8230146 102.4247197  79.1565186  69.5870600 103.0420592
  82.5019371  56.7620446 114.2110146  83.2429085  57.3627599 114.1314609
  82.7337294  56.0198083 113.6528189  77.6460709  61.9476813 112.4888376
  77.5314225  61.0462070 112.7895475  76.7905227  62.1940510 112.1373192
  84.7252547  69.8894553 114.0875876  84.2816401  69.1030932 113.7696781
  85.3869761  70.0773704 113.4219767  79.4839668  71.4190355 108.6136555
  80.0347093  71.2907418 107.8413549  78.6451144  71.7185244 108.2631448
  86.8233785  70.1697353 112.1157278  86.8052261  70.9906234 111.6237547
  87.7453705  70.0451428 112.3407419  83.2806839  67.6841483 112.9580786
  83.8135176  66.9229771 112.7280094  82.7520920  67.3915134 113.7004941
  86.4476534  52.7901549 108.4874428  86.1040804  53.6803190 108.4113538
  86.8155497  52.6003206 107.6244013  86.4126817  62.7810160  96.9946863
  85.8973440  63.5514764  97.2335250  86.1404126  62.1075296  97.6179924
  83.9973928  57.6259861 102.0532101  83.1415524  57.2366711 101.8737740
  84.4100880  57.7051821 101.1931887  85.5273075  55.1606204 106.4523661
  85.0237870  55.1236339 105.6391466  85.8203682  56.0698946 106.5120318
  81.7715961  55.2444933 105.4589843  82.6368957  55.0487742 105.0995732
  81.8393470  55.0155285 106.3859200  91.3861091  65.5342514  98.9300036
  90.6090534  65.1953674  98.4855199  92.0652572  65.5395138  98.2555002
  86.2013120  60.6537252  98.8206644  85.8963256  60.9683401  99.6716787
  87.1543562  60.7318672  98.8633977  89.6252398  65.0076496 105.5866644
  88.9676073  65.6975757 105.6746773  90.4292797  65.3972928 105.9300631
  79.3778280  57.4747141 102.8306210  79.9522032  57.2522323 102.0979403
  79.9649262  57.5435836 103.5834811  88.4357857  63.3620868 103.6370586
  88.9489739  63.9950860 104.1392296  89.0859081  62.7622064 103.2713946
  81.6800947  54.3488390 101.5581279  81.0265360  54.0337408 100.9337894
  81.6381422  53.7264131 102.2841102  84.9138688  60.8370324 105.8828927
  83.9961249  61.0585271 105.7250615  85.3298831  60.9116634 105.0240634
  85.6973736  62.2361740 101.0131607  86.4445554  62.7483137 100.7038729
  85.9665325  61.9145792 101.8736001  88.1452573  59.2718856 102.9950396
  87.4075329  58.7596242 103.3260639  88.3979346  58.8319237 102.1833673
  88.2464200  52.0495108 103.5892166  88.5523077  51.1892471 103.3018081
  88.9716805  52.6412728 103.3891159  74.5388556  62.4525794 101.9773763
  74.3412956  61.8595155 101.2524830  73.9835220  62.1478005 102.6949702
  82.5185280  62.3448901 104.0968357  82.5733890  61.3922737 104.0210833
  81.7076482  62.5008340 104.5809655  80.4577640  60.9625961 101.8558735
  79.6445505  61.2620131 102.2623928  80.9536634  60.5681649 102.5733218
  82.6086218  70.9583718 103.7893000  82.5662396  71.1844564 102.8601532
  83.5248916  70.7247092 103.9378801  86.0551851  61.4267785 110.6873629
  86.4101239  61.6539258 111.5468095  86.7023983  61.7586162 110.0650885
  91.7849588  64.5486221 101.3922958  91.6467487  64.7387817 100.4644148
  91.4285807  65.3105604 101.8491010  79.9491714  58.5344316 107.4719970
  80.5891094  58.3933075 106.7742934  79.1169245  58.2478830 107.0958572
  91.8118968  66.6162748 106.4034230  92.2455475  66.5238037 107.2517284
  92.5250549  66.5920248 105.7654246  80.7252018  67.8346747 103.5854963
  81.5192617  67.3397067 103.3837538  80.0143711  67.3064610 103.2222668
  85.5446863  70.2164842 107.9367331  85.5983885  70.7855778 108.7045046
  84.6761644  70.3866727 107.5721368  76.9520331  58.5044641 102.2492957
  77.2127148  59.4189974 102.1402118  77.7737503  58.0369084 102.3989570
  78.4245256  59.9182398 109.4191782  79.0968310  59.7099760 108.7704431
  77.5975043  59.7204484 108.9797014  92.6734517  66.6586449 108.9367115
  92.8670408  67.5632259 109.1826390  92.5735136  66.1993868 109.7705700
  84.3270828  56.5444339 111.4357443  83.6798743  57.2434289 111.3421919
  85.0971844  56.9780483 111.8033691  87.7349626  66.8093191 114.5107996
  87.5835133  66.5803743 113.5938080  87.7254306  67.7663793 114.5239341
  84.5034963  64.3825104 109.4954262  85.4327023  64.5336264 109.3223230
  84.0825993  64.4709125 108.6402909  83.3023294  68.4075769 107.2652800
  83.1634380  68.0394553 108.1378738  82.5137891  68.9223408 107.0936758
  84.8528509  67.7857371 104.6541638  84.5178342  67.7458141 105.5499288
  84.3532455  67.1202087 104.1812048  78.8272753  63.1925001 110.1794219
  78.6892551  62.4605240 110.7805758  79.7377677  63.1033901 109.8978407
  87.7887701  65.1313406  94.9278697  87.1716872  64.4060234  94.8311750
  87.3204190  65.8922766  94.5845772  81.4555054  62.9044961 109.6677899
  82.1654673  62.2638153 109.6264517  81.4124362  63.1557855 110.5904079
  89.4441833  69.8412314 112.5884478  89.3854379  69.1571534 111.9215061
  89.8461351  70.5831304 112.1365104  80.1683988  59.8910178 111.4873538
  79.6321345  59.4400917 112.1395134  79.5800697  60.0256087 110.7444002
  78.4632532  76.6574228 105.3818197  78.7029130  77.2892752 106.0597215
  77.6201728  76.3062268 105.6683556  89.4459240  67.8051898 110.8198457
  88.5586019  67.4677820 110.9424856  90.0157791  67.0734929 111.0567223
  75.9023109  59.0266186 108.5726533  75.8181298  58.4191856 107.8376942
  75.0805816  59.5175204 108.5736029  82.9760393  72.4653350 107.7859701
  82.9030565  73.2708322 108.2979005  82.5337787  72.6645316 106.9607722
  82.7650173  71.7025120 101.2962522  81.9817695  72.2446800 101.3900747
  83.4642918  72.2199100 101.6956763  86.0746823  57.5119750 103.9396728
  86.5715523  56.7589712 103.6197798  85.3033805  57.5484066 103.3739937
  93.9276581  63.2160115 105.5815019  93.9166457  64.0984831 105.2108952
  93.0593960  62.8631666 105.3869556  85.4359077  72.3640184 109.9417859
  86.1487049  72.9987649 109.8693761  84.9449106  72.4604050 109.1257861
  87.1576604  66.2691437 101.5135151  86.2232883  66.3892899 101.3439855
  87.3353272  65.3663904 101.2495161  82.6581792  59.6537133 103.6668412
  82.2879579  59.1008173 104.3549318  83.1540884  59.0495266 103.1143412
  90.5449155  62.1108756 102.0485185  91.0109607  62.9436748 101.9745488
  90.9956656  61.6453738 102.7530444  80.4870990  70.1134628 110.7623430
  81.1880450  70.7471111 110.9152824  80.0166105  70.4549359 110.0019069
  88.5165818  54.4789343 106.0876086  87.6028898  54.7093570 106.2558293
  88.9458919  54.5627787 106.9390119  88.2872276  62.6679235 108.5875981
  87.6343727  62.9155143 107.9328433  88.6652656  61.8543373 108.2538458
  84.3359849  63.4099046 115.0742018  83.6600486  63.3093176 115.7444393
  85.1587483  63.2538260 115.5378015  76.0838709  69.6470983 107.6954533
  76.6692145  68.9014671 107.8282437  75.8863547  69.9574939 108.5791197
  83.0782632  74.7165974 109.3099634  83.6300940  74.8797595 110.0748719
  83.4188826  75.3070412 108.6379658  78.0547126  57.0641123 109.9121518
  78.1188452  57.9255954 109.4998916  77.9914246  56.4515125 109.1793877
  77.5299398  59.1364256 113.5594553  78.1571437  58.7541333 114.1732077
  76.6727317  58.9178458 113.9250245  87.9293507  69.5427231 115.1648288
  88.4733411  70.1557189 114.6703243  87.3480352  70.1006810 115.6815301
  86.2151020  72.6647949 106.2963316  86.0902159  71.8637689 105.7874261
  86.8730111  73.1594143 105.8077286  77.8359188  59.0196682 105.4740456
  77.1145774  59.6332649 105.3347929  78.6252444  59.5554447 105.3957102
  88.2785928  70.4656969 107.9242866  87.3316264  70.3462320 107.8521193
  88.6268701  69.5779467 108.0069127  80.6385501  56.3551108 111.7481108
  81.1619903  56.6013405 112.5107417  80.4197835  57.1871143 111.3284245
  88.8866483  71.0838244 105.2112091  89.8113031  70.8781106 105.0736542
  88.7181787  70.8354645 106.1201432  81.8438046  57.2964803 109.4330778
  81.5034867  56.4972616 109.8351458  81.1377053  57.5966514 108.8607611
  82.4954518  54.3814116 107.8858101  83.3180588  53.9074594 107.7636992
  82.7392582  55.1604599 108.3856788  85.2793876  58.1147523  99.1179335
  85.4957490  58.9972161  98.8168163  84.7987943  57.7233737  98.3884977
  80.0193097  61.0733236 105.6950080  79.8737678  61.3873539 106.5874361
  79.5418301  61.6918137 105.1420979  81.8789480  58.0635784 105.7430969
  81.8651049  57.1676878 105.4063267  82.5961908  58.0706448 106.3769255
  83.7315611  58.4973125 107.7884097  83.4733388  59.4190195 107.7868427
  83.2000651  58.1003559 108.4784561  74.4938759  63.6138581 108.6337741
  73.9492227  64.3898389 108.7658015  75.3718109  63.9609385 108.4756863
  81.2826376  56.9450165 101.0118540  81.4042287  56.0166811 101.2109427
  80.9928418  56.9588851 100.0996855  84.1517566  54.6305075 104.1485259
  84.1739263  54.6944408 103.1937239  84.5685625  53.7909584 104.3425766
  94.5301191  64.3660335 102.1864482  94.9732337  63.6167660 101.7883605
  93.6527701  64.3570471 101.8038214  75.2804781  62.7408477 111.5267898
  74.5386517  62.8891112 112.1132528  74.9597525  63.0016743 110.6634647
  91.5628395  68.3690382  99.1958411  92.0879719  68.7077654  98.4707731
  91.4750748  67.4337397  99.0121546  83.2248444  72.2824455 111.3248288
  83.5335570  72.0373602 112.1970988  84.0223926  72.4871094 110.8367158
  83.2469056  74.4362365 103.5553664  82.8074046  73.9438744 104.2486521
  83.9977173  73.8935333 103.3145740  75.7261395  70.6273906 103.5578293
  76.5519415  70.3277678 103.1776936  75.3755447  69.8581528 104.0068081
  80.6942928  69.9800374 105.6275966  80.0722937  69.3171079 105.3278194
  81.3647795  70.0061506 104.9449614  73.9270000  68.5460232 104.5167226
  73.0901908  68.1182407 104.3351227  73.8993645  68.7392676 105.4538017
  80.7667455  58.4582162 115.2208472  80.8155611  59.3344285 114.8386242
  81.3089970  57.9159555 114.6480115  91.2522301  69.0023285 114.5009609
  90.4617845  68.9847424 113.9614109  91.0155656  69.5411579 115.2558646
  91.3720176  65.8515752 111.8142338  91.4218181  65.6865759 112.7557861
  91.2634099  64.9843011 111.4240219  88.6623938  61.8346680 113.1301645
  89.5633801  61.6953145 112.8385642  88.7371913  62.0001135 114.0699822
  82.9966744  59.2113534 111.9754831  82.1270053  59.5047100 111.7037419
  83.2326224  59.7953979 112.6962094  92.8738373  68.2712693 112.0584359
  92.5823181  68.6342674 112.8947820  92.2610504  67.5579701 111.8797691
  94.0734055  65.8365573 104.5786930  94.9080947  66.2755377 104.7424490
  94.2093184  65.3604226 103.7595175  91.1225561  63.3945308 110.5264417
  91.5979683  63.5872954 109.7183269  90.1991127  63.4504494 110.2807801
  85.7005778  55.4293151 109.4920251  86.2187722  56.1654178 109.1666740
  85.3460910  55.7357145 110.3267010  85.9518372  51.8493434 105.0121148
  86.2320126  51.1816623 105.6381574  86.7368979  52.0422529 104.4995812
  89.8227230  60.2711068 108.7592723  90.7744653  60.3709166 108.7804947
  89.6530681  59.4789336 109.2690807  87.8441610  57.3566651 108.9452124
  87.2491542  57.6371664 108.2498612  87.5591306  57.8460552 109.7168865
  92.3015308  63.4917188 107.8735023  92.2691628  62.5533188 108.0594706
  92.9115932  63.5701224 107.1400847  92.4509796  60.2828231 107.9193306
  91.9348845  59.4986688 107.7323235  93.3349745  59.9546948 108.0839825
  90.1120523  54.0269247 103.8789118  89.9145344  53.7184335 104.7632450
  90.7220229  54.7530885 104.0087048  98.1191858  64.5533194 107.0141059
  98.8495246  64.2918483 107.5748763  97.5098803  63.8161916 107.0543127
  96.2007155  62.6941057 107.6115511  95.4740319  62.5597022 107.0032002
  95.7854442  63.0017886 108.4172229  84.0237331  66.4130987 115.3762884
  84.9440341  66.5909586 115.5702930  83.9886914  65.4687032 115.2242583
  73.2419496  61.6069580 104.3016158  72.9222281  60.7534889 104.0090532
  72.6952925  61.8218158 105.0574126  77.0199404  64.3232021 108.0185665
  77.2385414  65.2549129 108.0373699  77.4325178  63.9639996 108.8040469
  83.9403622  54.8300107 100.0061353  83.1304350  54.4847192 100.3816599
  84.6288039  54.5207650 100.5948965  85.8694170  53.9078153 101.6285650
  86.4225209  54.3273607 102.2875673  86.1064256  52.9813902 101.6708606
  81.8927269  59.8965227 117.4088414  81.7923996  60.8459584 117.3400505
  81.6748811  59.5683466 116.5364484  81.0940341  57.1450152  93.9929091
  81.9559505  57.4705050  94.2524908  81.2790685  56.3581648  93.4802157
  73.1107756  65.2272492 106.2709280  72.4171228  64.8126445 105.7579234
  73.8580747  65.2693028 105.6742699  89.2472977  56.0178679 101.1364314
  88.6671646  56.6763483 100.7542366  88.9808910  55.1956023 100.7251732
  87.6976543  55.4183736 103.3385634  88.1976322  55.5300271 102.5299953
  88.3412151  55.1144789 103.9786443  81.7558539  63.3262366 116.2253475
  81.2725621  64.1262726 116.4317364  81.8419478  63.3370311 115.2720919
  75.0244499  65.1590746 104.1475295  75.0015187  65.2578433 103.1957178
  75.3345135  66.0055896 104.4692461  77.6831877  67.2166901 108.2621909
  78.6375130  67.1850843 108.1951841  77.4844400  66.7557524 109.0772135
  78.2731259  65.7868017 110.8292707  79.0924148  66.2812095 110.8527544
  78.5468067  64.8699985 110.8010274  88.0297855  58.1778769 100.1920662
  87.1423710  58.4628420  99.9740857  88.4451844  58.0172532  99.3447939
  91.3812391  58.2025290 103.9075002  92.1572781  58.6921742 104.1799618
  90.6560525  58.6283344 104.3646871  93.8184950  58.9152909 104.9648942
  94.4129441  58.6748645 104.2542250  93.8911534  58.1960040 105.5922478
  76.0382106  72.7586520 105.2792107  75.9036573  71.9986921 104.7130105
  75.6214168  73.4827420 104.8120896  88.0038879  63.6933305 100.4070952
  87.9474080  64.1501856  99.5678585  88.5567221  62.9323990 100.2293795
  91.8143685  59.4823037 101.2321072  91.5580619  59.0819672 102.0629280
  91.1896553  60.1966831 101.1071211  96.1256023  62.2219110 103.7392363
  95.5655581  62.2912299 104.5123925  95.5199526  62.0460095 103.0191860
  79.1951231  73.6555837 105.4910550  79.0783616  74.6001270 105.3889240
  78.3743678  73.3529399 105.8796349  88.7373658  64.8838086  97.7023482
  88.6822462  64.7182358  96.7611926  88.1119713  65.5914119  97.8585671
  73.5266173  60.1206151 111.5284904  74.1725037  59.6105105 112.0172129
  73.3183324  60.8574832 112.1028329  86.0519565  67.1886998 117.0277044
  86.9210725  67.3627650 116.6663679  85.5726317  68.0081415 116.9052774
  82.0469784  54.3846195  97.2808800  82.0348453  55.3288035  97.4377071
  82.9393205  54.2016341  96.9868261  80.2205746  74.3084099 108.7066478
  81.1232992  74.3407709 109.0232973  79.9943116  73.3784550 108.7212814
  81.9759348  73.0615086 105.3676557  81.0254979  73.0616947 105.2540929
  82.2791834  72.3147820 104.8512591  85.8621903  50.9788972 101.5354737
  85.0954299  50.4247459 101.6811419  86.2732608  51.0510841 102.3968888
  77.8663664  57.2673768 115.6259918  78.7295126  56.9110572 115.8363243
  77.2929075  56.9287662 116.3135322  97.7112041  78.8975624 106.4322319
  98.3490451  78.7782371 105.7285659  97.5932884  79.8456468 106.4910271
  94.5201747  78.8503052 106.3683844  94.1820259  78.7344117 105.4804379
  95.3891516  78.4494217 106.3484850  90.3788563  80.7038528 102.3580735
  89.8153428  80.6128465 101.5897023  90.2640958  79.8838433 102.8383227
  95.0021530  80.0037904 112.3270049  94.9910171  79.6090702 111.4550553
  95.1642170  79.2703976 112.9203821  87.9252995  82.1989720 105.1964955
  88.7174287  81.8580545 104.7811255  88.1649645  82.3084695 106.1167109
  95.9588122  84.3709496  97.6695200  95.3076102  84.9563577  97.2829213
  96.7532485  84.9015691  97.7290237  89.8843749  81.4598633  98.0682334
  90.6574625  80.9127620  97.9295210  90.2369148  82.3242883  98.2796795
  91.7228791  82.7875016 111.2749233  91.4318657  83.6920646 111.1595900
  92.3585776  82.8291543 111.9893303  92.6484998  80.1651864 107.8650593
  93.2448571  79.9407887 107.1507556  92.7059970  79.4236610 108.4676041
  92.2210027  77.6191299  95.7000784  92.4735547  77.0972821  94.9384247
  91.2834586  77.4557445  95.8027468  97.2653310  76.6227078 103.5075527
  98.0516399  76.2046501 103.1565944  97.5292014  77.5273170 103.6757176
  97.4363387  82.0599928  98.2064184  96.8009220  82.1334555  98.9185089
  97.1060793  82.6493527  97.5283263 102.6661737  76.5602311 104.4108506
 103.3986909  75.9901528 104.6446335 101.9101092  76.1723911 104.8515011
  91.9406315  79.5219405  97.9025159  91.8242574  78.8464309  98.5706243
  92.0508575  79.0351779  97.0857312  94.2837856  78.9829553 101.6071848
  93.9196064  78.4560173 102.3184770  95.1404972  78.5928022 101.4338334
 100.1887157  70.2723885 108.8703114  99.8570482  71.1419296 108.6464329
  99.5932770  69.9560169 109.5497145  93.9243343  74.0119452  96.6033197
  94.0917746  74.8799689  96.9703668  93.7340512  74.1746734  95.6794486
  96.6818677  82.4736431 108.2699027  96.3819400  83.3761470 108.1614834
  96.3369736  82.2068614 109.1220180  90.1331158  78.9250228 104.3035731
  89.2081654  78.7926442 104.5113423  90.3815571  79.7044447 104.8005674
 100.0815820  74.9918971 105.9496464  99.1732698  74.9234380 105.6555225
 100.0303416  75.4690916 106.7778290  93.9032564  76.4677110  97.5879863
  93.7832189  76.9134160  98.4265344  93.2085153  76.8162427  97.0293402
  87.4939969  78.5683502 105.1379520  87.6232350  78.8217980 106.0518932
  86.8137420  79.1611210 104.8184176  94.1556686  76.4108617 113.8931362
  93.3790020  76.9702537 113.8834226  94.7947249  76.8965400 114.4146232
 101.9477467  73.1935410 107.7274338 101.3051847  73.4867943 107.0814133
 101.4432395  73.0788330 108.5327535  99.6017630  76.9398583  98.4160198
 100.5135487  77.1725970  98.2407895  99.0927277  77.5235627  97.8535276
  92.4103058  79.2194070 113.4549329  93.1517743  79.7579114 113.1784152
  91.7040044  79.8460359 113.6120880  97.8858398  81.3623211 112.0521490
  98.2941754  80.9205621 111.3076122  97.1635660  80.7875838 112.3055683
  94.2389468  76.2995817 109.4255047  95.0850663  76.7235231 109.5689696
  94.1788106  75.6429442 110.1193610  98.2087213  81.9224401 105.8073779
  97.5796075  82.0870115 105.1049847  97.8212875  82.3366011 106.5784743
 102.0876445  82.8578839 103.1618143 101.4027483  83.2377741 102.6115176
 102.1720294  83.4674166 103.8950090  97.3888913  73.9600186 111.0836221
  97.1449845  74.7142246 110.5470496  97.6648844  74.3385533 111.9183468
  99.3427376  80.5038798 109.7613486  99.5544271  81.1470558 109.0847867
  99.2957124  79.6701115 109.2935416  96.9453605  73.1156619 106.6650058
  96.0838084  73.4137872 106.9566796  96.9716040  73.3327018 105.7331091
  93.7615175  81.6598809 103.0723864  94.2253520  81.9386512 102.2828487
  93.4971973  80.7582254 102.8896955  90.6539256  81.2070291 106.0103627
  91.2240613  81.6357559 105.3721112  91.2447367  80.9252876 106.7087813
  92.6984061  77.7821962  99.8813429  93.4008104  78.2343005 100.3487356
  92.3664689  77.1405781 100.5093322  91.1464422  76.3733718 114.2564639
  90.5163083  77.0549999 114.4900035  91.0400510  76.2616800 113.3117777
  86.4409395  76.0405514 105.1830563  85.6508449  76.2963043 104.7070673
  86.9320642  76.8553852 105.2882603 100.4573204  83.3810754 107.9335844
 101.2790648  82.9790941 107.6518525 100.4535607  83.2778988 108.8851959
  88.3924140  76.4050094 102.1414039  87.5955303  76.5168788 102.6597535
  88.1649732  76.7436746 101.2754930  94.2229808  82.9294797 110.0896554
  94.2874240  83.3915204 110.9254726  93.5140731  82.2992162 110.2178864
  84.7247098  76.2936005 107.6145554  84.9755136  77.1783015 107.8803130
  85.2606646  76.1140606 106.8420645 108.5479197  79.7249502 104.2820815
 107.7942906  79.1556900 104.1264819 108.6826738  79.6912167 105.2291450
  90.4245165  70.6754484 116.6189890  90.0312110  70.1220683 117.2937534
  91.2411305  70.9865063 117.0096407  87.3907223  82.1138342 100.5303460
  87.9031743  82.9081593 100.6809024  88.0429935  81.4164633 100.4637061
  89.2002107  85.2304099 102.6126213  89.3768736  86.1522063 102.4247197
  89.9958941  84.9162518 103.0420592  93.3413126  72.0912363 114.2110146
  94.0822839  72.6919516 114.1314609  93.5731049  71.3490001 113.6528189
  88.4854464  77.2768731 112.4888376  88.3707979  76.3753988 112.7895475
  87.6298982  77.5232427 112.1373192  95.5646302  85.2186471 114.0875876
  95.1210156  84.4322849 113.7696781  96.2263515  85.4065621 113.4219767
  90.3233423  86.7482273 108.6136555  90.8740848  86.6199336 107.8413549
  89.4844899  87.0477162 108.2631448  97.6627540  85.4989271 112.1157278
  97.6446015  86.3198152 111.6237547  98.5847460  85.3743346 112.3407419
  94.1200594  83.0133400 112.9580786  94.6528931  82.2521689 112.7280094
  93.5914675  82.7207052 113.7004941  97.2870289  68.1193466 108.4874428
  96.9434558  69.0095108 108.4113538  97.6549251  67.9295124 107.6244013
  85.3556139  80.4426997 101.3063030  86.1931361  80.8524005 101.0896738
  85.5334407  79.5026439 101.2763224  97.2520572  78.1102077  96.9946863
  96.7367195  78.8806682  97.2335250  96.9797880  77.4367214  97.6179924
  94.8367683  72.9551778 102.0532101  93.9809279  72.5658629 101.8737740
  95.2494634  73.0343739 101.1931887  96.3666829  70.4898121 106.4523661
  95.8631625  70.4528257 105.6391466  96.6597436  71.3990864 106.5120318
  92.6109715  70.5736851 105.4589843  93.4762712  70.3779660 105.0995732
  92.6787224  70.3447203 106.3859200 102.2254846  80.8634432  98.9300036
 101.4484288  80.5245592  98.4855199 102.9046327  80.8687055  98.2555002
  97.0406875  75.9829170  98.8206644  96.7357010  76.2975319  99.6716787
  97.9937317  76.0610589  98.8633977  95.4853307  82.1419393 100.4699598
  94.9574668  81.4072152 100.1572836  94.9840809  82.9194069 100.2239566
 100.4646153  80.3368413 105.5866644  99.8069827  81.0267675 105.6746773
 101.2686552  80.7264845 105.9300631  90.2172034  72.8039059 102.8306210
  90.7915786  72.5814241 102.0979403  90.8043017  72.8727754 103.5834811
  99.2751611  78.6912786 103.6370586  99.7883493  79.3242778 104.1392296
  99.9252835  78.0913982 103.2713946  90.5441621  74.8343520  96.8502095
  89.7078934  75.1718207  97.1711370  90.4046391  74.6992500  95.9129232
  92.5194702  69.6780308 101.5581279  91.8659114  69.3629325 100.9337894
  92.4775176  69.0556048 102.2841102  95.7532442  76.1662242 105.8828927
  94.8355004  76.3877189 105.7250615  96.1692586  76.2408552 105.0240634
  96.5367490  77.5653657 101.0131607  97.2839309  78.0775054 100.7038729
  96.8059080  77.2437710 101.8736001  94.8094140  80.0612198  97.9958561
  93.9005359  79.7771231  98.0931031  94.8389224  80.4811277  97.1361868
 100.0413408  83.6718787 101.7649729  99.5875735  82.8309697 101.8214919
  99.4107374  84.3080186 102.1024509  98.9846327  74.6010773 102.9950396
  98.2469084  74.0888160 103.3260639  99.2373101  74.1611155 102.1833673
  99.0857954  67.3787025 103.5892166  99.3916831  66.5184389 103.3018081
  99.8110559  67.9704646 103.3891159  85.3782311  77.7817712 101.9773763
  85.1806710  77.1887073 101.2524830  84.8228975  77.4769922 102.6949702
  93.3579034  77.6740819 104.0968357  93.4127644  76.7214655 104.0210833
  92.5470236  77.8300258 104.5809655  91.2971394  76.2917878 101.8558735
  90.4839260  76.5912049 102.2623928  91.7930388  75.8973567 102.5733218
  96.8945606  76.7559703 110.6873629  97.2494994  76.9831176 111.5468095
  97.5417737  77.0878080 110.0650885 102.6243343  79.8778139 101.3922958
 102.4861241  80.0679735 100.4644148 102.2679562  80.6397521 101.8491010
  90.7885469  73.8636234 107.4719970  91.4284848  73.7224993 106.7742934
  89.9562999  73.5770747 107.0958572 102.6512722  81.9454666 106.4034230
 103.0849229  81.8529955 107.2517284 103.3644303  81.9212166 105.7654246
  91.5645773  83.1638664 103.5854963  92.3586371  82.6688984 103.3837538
  90.8537465  82.6356527 103.2222668  96.3840617  85.5456760 107.9367331
  96.4377640  86.1147696 108.7045046  95.5155399  85.7158645 107.5721368
  87.8728536  77.3081746  99.6614716  86.9426124  77.2466201  99.8784678
  87.9686008  76.7857699  98.8651357  89.2639011  75.2474316 109.4191782
  89.9362064  75.0391678 108.7704431  88.4368797  75.0496402 108.9797014
 103.5128272  81.9878366 108.9367115 103.7064162  82.8924177 109.1826390
 103.4128890  81.5285785 109.7705700  95.1664583  71.8736257 111.4357443
  94.5192498  72.5726207 111.3421919  95.9365598  72.3072401 111.8033691
  98.5743381  82.1385109 114.5107996  98.4228887  81.9095661 113.5938080
  98.5648060  83.0955710 114.5239341  95.3428717  79.7117022 109.4954262
  96.2720777  79.8628181 109.3223230  94.9219747  79.8001043 108.6402909
  94.1417049  83.7367686 107.2652800  94.0028134  83.3686471 108.1378738
  93.3531645  84.2515326 107.0936758  95.6922264  83.1149289 104.6541638
  95.3572097  83.0750059 105.5499288  95.1926210  82.4494005 104.1812048
  89.6666508  78.5216919 110.1794219  89.5286306  77.7897158 110.7805758
  90.5771431  78.4325819 109.8978407  92.2948809  78.2336878 109.6677899
  93.0048427  77.5930070 109.6264517  92.2518117  78.4849773 110.5904079
 100.2835587  85.1704232 112.5884478 100.2248133  84.4863452 111.9215061
 100.6855106  85.9123222 112.1365104  91.0077743  75.2202096 111.4873538
  90.4715100  74.7692835 112.1395134  90.4194451  75.3548005 110.7444002
  89.3026286  91.9866145 105.3818197  89.5422884  92.6184670 106.0597215
  88.4595483  91.6354185 105.6683556 100.2852995  83.1343816 110.8198457
  99.3979773  82.7969737 110.9424856 100.8551546  82.4026847 111.0567223
  81.9382142  79.4667907 104.1441509  82.6253181  79.1529637 103.5562524
  81.7830270  80.3709272 103.8708760  86.7416864  74.3558104 108.5726533
  86.6575053  73.7483773 107.8376942  85.9199570  74.8467122 108.5736029
  96.9140578  72.8411667 103.9396728  97.4109277  72.0881630 103.6197798
  96.1427559  72.8775984 103.3739937 104.7670335  78.5452033 105.5815019
 104.7560211  79.4276748 105.2108952 103.8987714  78.1923584 105.3869556
  96.2752831  87.6932102 109.9417859  96.9880804  88.3279567 109.8693761
  95.7842860  87.7895968 109.1257861  97.9970358  81.5983355 101.5135151
  97.0626637  81.7184817 101.3439855  98.1747027  80.6955821 101.2495161
  93.4975546  74.9829050 103.6668412  93.1273334  74.4300091 104.3549318
  93.9934639  74.3787184 103.1143412 101.3842910  77.4400674 102.0485185
 101.8503362  78.2728665 101.9745488 101.8350410  76.9745655 102.7530444
  91.3264745  85.4426545 110.7623430  92.0274204  86.0763028 110.9152824
  90.8559860  85.7841277 110.0019069  99.4519141  83.7844495  99.0471337
  99.7278985  83.6701090  99.9565211  98.5823640  83.3861980  99.0083510
  99.3559572  69.8081261 106.0876086  98.4422652  70.0385488 106.2558293
  99.7852674  69.8919705 106.9390119  99.1266031  77.9971153 108.5875981
  98.4737481  78.2447060 107.9328433  99.5046411  77.1835291 108.2538458
  95.1753604  78.7390964 115.0742018  94.4994241  78.6385093 115.7444393
  95.9981238  78.5830178 115.5378015  86.9232463  84.9762900 107.6954533
  87.5085900  84.2306588 107.8282437  86.7257301  85.2866857 108.5791197
  81.5150118  77.5468501 106.4158976  81.5534217  77.0132091 107.2096094
  81.0090411  77.0203706 105.7969953  93.9176387  90.0457891 109.3099634
  94.4694695  90.2089513 110.0748719  94.2582580  90.6362329 108.6379658
  88.8940880  72.3933041 109.9121518  88.9582207  73.2547872 109.4998916
  88.8308000  71.7807043 109.1793877  88.3693153  74.4656174 113.5594553
  88.9965191  74.0833251 114.1732077  87.5121071  74.2470376 113.9250245
  98.7687261  84.8719149 115.1648288  99.3127165  85.4849107 114.6703243
  98.1874106  85.4298727 115.6815301  85.1458695  76.2732603  99.4912907
  85.4412136  75.3643281  99.4379961  84.2446731  76.2520342  99.1693910
  88.6752942  74.3488599 105.4740456  87.9539528  74.9624567 105.3347929
  89.4646198  74.8846364 105.3957102  99.1179683  85.7948887 107.9242866
  98.1710018  85.6754238 107.8521193  99.4662456  84.9071385 108.0069127
  91.4779256  71.6843026 111.7481108  92.0013658  71.9305322 112.5107417
  91.2591589  72.5163061 111.3284245  89.9888360  74.2419670  99.9827710
  90.3284433  74.7705592  99.2606319  90.4360481  74.5800076 100.7586277
  92.6831801  72.6256721 109.4330778  92.3428621  71.8264534 109.8351458
  91.9770807  72.9258432 108.8607611  93.3348273  69.7106033 107.8858101
  94.1574342  69.2366512 107.7636992  93.5786336  70.4896517 108.3856788
  91.9756507  72.7394292  98.1821003  92.6964870  73.1175545  97.6784720
  91.3521811  73.4583169  98.2855981  96.1187630  73.4439441  99.1179335
  96.3351245  74.3264079  98.8168163  95.6381697  73.0525654  98.3884977
  90.8586852  76.4025154 105.6950080  90.7131432  76.7165457 106.5874361
  90.3812055  77.0210054 105.1420979  92.7183234  73.3927702 105.7430969
  92.7044803  72.4968795 105.4063267  93.4355662  73.3998366 106.3769255
  94.5709365  73.8265042 107.7884097  94.3127143  74.7482113 107.7868427
  94.0394405  73.4295477 108.4784561  85.3332514  78.9430498 108.6337741
  84.7885982  79.7190306 108.7658015  86.2111864  79.2901303 108.4756863
  92.1220130  72.2742082 101.0118540  92.2436042  71.3458729 101.2109427
  91.8322173  72.2880768 100.0996855  94.9911321  69.9596993 104.1485259
  95.0133018  70.0236326 103.1937239  95.4079380  69.1201501 104.3425766
 105.3694945  79.6952252 102.1864482 105.8126091  78.9459578 101.7883605
 104.4921455  79.6862389 101.8038214  86.1198536  78.0700395 111.5267898
  85.3780272  78.2183030 112.1132528  85.7991280  78.3308660 110.6634647
 102.4022149  83.6982299  99.1958411 102.9273474  84.0369572  98.4707731
 102.3144502  82.7629315  99.0121546  94.0642198  87.6116373 111.3248288
  94.3729325  87.3665520 112.1970988  94.8617680  87.8163011 110.8367158
  86.5655149  85.9565823 103.5578293  87.3913169  85.6569595 103.1776936
  86.2149201  85.1873446 104.0068081  91.5336682  85.3092292 105.6275966
  90.9116692  84.6462997 105.3278194  92.2041549  85.3353424 104.9449614
  84.7663754  83.8752150 104.5167226  83.9295663  83.4474324 104.3351227
  84.7387400  84.0684593 105.4538017  91.6061210  73.7874080 115.2208472
  91.6549365  74.6636202 114.8386242  92.1483724  73.2451473 114.6480115
 102.0916056  84.3315203 114.5009609 101.3011599  84.3139342 113.9614109
 101.8549410  84.8703497 115.2558646 102.2113931  81.1807669 111.8142338
 102.2611936  81.0157677 112.7557861 102.1027854  80.3134928 111.4240219
  99.5017693  77.1638597 113.1301645 100.4027556  77.0245062 112.8385642
  99.5765667  77.3293052 114.0699822  93.8360498  74.5405452 111.9754831
  92.9663808  74.8339018 111.7037419  94.0719979  75.1245897 112.6962094
 103.7132127  83.6004611 112.0584359 103.4216936  83.9634591 112.8947820
 103.1004259  82.8871619 111.8797691 104.9127810  81.1657491 104.5786930
 105.7474701  81.6047295 104.7424490 105.0486939  80.6896144 103.7595175
 101.9619316  78.7237225 110.5264417 102.4373437  78.9164872 109.7183269
 101.0384881  78.7796411 110.2807801  88.8502822  79.8861393 100.1095496
  88.6048864  78.9823723 100.3075706  89.0198737  79.8878543  99.1674974
  96.5399532  70.7585069 109.4920251  97.0581476  71.4946096 109.1666740
  96.1854665  71.0649062 110.3267010  88.1198470  75.6189750  97.6081657
  87.4267715  75.6934105  96.9521693  87.8750222  74.8550094  98.1303174
  96.7912126  67.1785352 105.0121148  97.0713880  66.5108541 105.6381574
  97.5762733  67.3714447 104.4995812  94.5945595  86.3544345  96.5746174
  94.0219562  86.9734533  96.1216646  95.1678388  86.9043707  97.1086096
 100.6620985  75.6002986 108.7592723 101.6138408  75.7001083 108.7804947
 100.4924435  74.8081254 109.2690807  98.6835364  72.6858569 108.9452124
  98.0885296  72.9663581 108.2498612  98.3985061  73.1752470 109.7168865
  97.8142855  86.6381496  97.7054756  98.7473528  86.5727057  97.9087632
  97.7266067  87.4737762  97.2469289 103.1409062  78.8209105 107.8735023
 103.1085383  77.8825106 108.0594706 103.7509686  78.8993142 107.1400847
 103.2903551  75.6120149 107.9193306 102.7742600  74.8278605 107.7323235
 104.1743499  75.2838865 108.0839825 100.9514278  69.3561164 103.8789118
 100.7539099  69.0476252 104.7632450 101.5613983  70.0822803 104.0087048
 108.9585612  79.8825112 107.0141059 109.6889001  79.6210400 107.5748763
 108.3492558  79.1453834 107.0543127 107.0400909  78.0232975 107.6115511
 106.3134073  77.8888940 107.0032002 106.6248196  78.3309803 108.4172229
  94.8631086  81.7422904 115.3762884  95.7834095  81.9201503 115.5702930
  94.8280669  80.7978950 115.2242583  93.1635310  75.6155135  93.8517112
  92.2566766  75.3188247  93.9279825  93.4411291  75.3184953  92.9851398
  84.0813251  76.9361498 104.3016158  83.7616035  76.0826806 104.0090532
  83.5346679  77.1510076 105.0574126  87.8593158  79.6523939 108.0185665
  88.0779168  80.5841047 108.0373699  88.2718932  79.2931913 108.8040469
  94.7797376  70.1592024 100.0061353  93.9698104  69.8139109 100.3816599
  95.4681793  69.8499568 100.5948965  96.7087924  69.2370071 101.6285650
  97.2618963  69.6565525 102.2875673  96.9458011  68.3105819 101.6708606
  92.7321024  75.2257145 117.4088414  92.6317751  76.1751502 117.3400505
  92.5142566  74.8975384 116.5364484  91.9334095  72.4742070  93.9929091
  92.7953259  72.7996968  94.2524908  92.1184439  71.6873566  93.4802157
  83.9501511  80.5564409 106.2709280  83.2564982  80.1418362 105.7579234
  84.6974502  80.5984946 105.6742699 100.0866732  71.3470596 101.1364314
  99.5065401  72.0055400 100.7542366  99.8202664  70.5247941 100.7251732
  98.5370298  70.7475654 103.3385634  99.0370076  70.8592189 102.5299953
  99.1805906  70.4436707 103.9786443  92.5952294  78.6554284 116.2253475
  92.1119375  79.4554644 116.4317364  92.6813233  78.6662228 115.2720919
  85.8638253  80.4882663 104.1475295  85.8408941  80.5870351 103.1957178
  86.1738890  81.3347814 104.4692461  88.5225631  82.5458818 108.2621909
  89.4768885  82.5142761 108.1951841  88.3238155  82.0849442 109.0772135
  89.1125013  81.1159934 110.8292707  89.9317902  81.6104013 110.8527544
  89.3861821  80.1991902 110.8010274  98.8691610  73.5070687 100.1920662
  97.9817465  73.7920337  99.9740857  99.2845599  73.3464450  99.3447939
 102.2206146  73.5317208 103.9075002 102.9966536  74.0213660 104.1799618
 101.4954280  73.9575262 104.3646871 104.6578704  74.2444827 104.9648942
 105.2523195  74.0040563 104.2542250 104.7305288  73.5251957 105.5922478
  86.8775860  88.0878438 105.2792107  86.7430328  87.3278839 104.7130105
  86.4607922  88.8119338 104.8120896  98.8432633  79.0225223 100.4070952
  98.7867835  79.4793774  99.5678585  99.3960976  78.2615907 100.2293795
 102.6537439  74.8114954 101.2321072 102.3974373  74.4111590 102.0629280
 102.0290307  75.5258748 101.1071211 106.9649777  77.5511028 103.7392363
 106.4049335  77.6204217 104.5123925 106.3593280  77.3752012 103.0191860
  90.0344986  88.9847755 105.4910550  89.9177370  89.9293187 105.3889240
  89.2137432  88.6821316 105.8796349  99.9221520  83.7097891  96.3367142
 100.7567124  83.2779089  96.1544617  99.7605863  83.5379904  97.2644037
  99.5767413  80.2130004  97.7023482  99.5216216  80.0474275  96.7611926
  98.9513468  80.9206037  97.8585671  84.3659928  75.4498068 111.5284904
  85.0118791  74.9397022 112.0172129  84.1577079  76.1866750 112.1028329
  96.8913320  82.5178916 117.0277044  97.7604479  82.6919568 116.6663679
  96.4120071  83.3373333 116.9052774  92.8863538  69.7138113  97.2808800
  92.8742208  70.6579953  97.4377071  93.7786960  69.5308258  96.9868261
  91.0599500  89.6376017 108.7066478  91.9626747  89.6699627 109.0232973
  90.8336870  88.7076468 108.7212814  96.7015658  66.3080889 101.5354737
  95.9348053  65.7539376 101.6811419  97.1126363  66.3802758 102.3968888
  88.7057419  72.5965685 115.6259918  89.5688880  72.2402490 115.8363243
  88.1322829  72.2579580 116.3135322 113.5055491  91.8894229 104.4108506
 114.2380663  91.3193445 104.6446335 112.7494847  91.5015829 104.8515011
 111.0280911  85.6015803 108.8703114 110.6964236  86.4711214 108.6464329
 110.4326525  85.2852087 109.5497145 100.9724913  94.2542146 104.3035731
 100.0475409  94.1218360 104.5113423 101.2209326  95.0336365 104.8005674
 110.9209575  90.3210889 105.9496464 110.0126452  90.2526297 105.6555225
 110.8697171  90.7982834 106.7778290  98.3333724  93.8975419 105.1379520
  98.4626105  94.1509898 106.0518932  97.6531175  94.4903127 104.8184176
 104.9950441  91.7400535 113.8931362 104.2183775  92.2994455 113.8834226
 105.6341004  92.2257318 114.4146232 112.7871221  88.5227327 107.7274338
 112.1445601  88.8159861 107.0814133 112.2826150  88.4080248 108.5327535
 103.2496813  94.5485988 113.4549329 103.9911497  95.0871032 113.1784152
 102.5433798  95.1752277 113.6120880 108.7252153  96.6915128 112.0521490
 109.1335509  96.2497539 111.3076122 108.0029414  96.1167756 112.3055683
 108.2282668  89.2892104 111.0836221 107.9843600  90.0434164 110.5470496
 108.5042598  89.6677451 111.9183468 107.7847360  88.4448537 106.6650058
 106.9231839  88.7429790 106.9566796 107.8109794  88.6618935 105.7331091
 101.9858177  91.7025636 114.2564639 101.3556837  92.3841917 114.4900035
 101.8794265  91.5908718 113.3117777  95.5640852  91.6227923 107.6145554
  95.8148890  92.5074932 107.8803130  96.1000400  91.4432524 106.8420645
 119.3872952  95.0541420 104.2820815 118.6336660  94.4848818 104.1264819
 119.5220493  95.0204084 105.2291450 101.2638919  86.0046402 116.6189890
 100.8705865  85.4512600 117.2937534 102.0805060  86.3156980 117.0096407
 104.1806880  87.4204281 114.2110146 104.9216594  88.0211434 114.1314609
 104.4124803  86.6781919 113.6528189  99.3248218  92.6060648 112.4888376
  99.2101734  91.7045906 112.7895475  98.4692736  92.8524345 112.1373192
 106.4040056 100.5478389 114.0875876 105.9603910  99.7614767 113.7696781
 107.0657270 100.7357539 113.4219767 108.5021294 100.8281189 112.1157278
 108.4839770 101.6490070 111.6237547 109.4241214 100.7035264 112.3407419
 104.9594348  98.3425318 112.9580786 105.4922685  97.5813606 112.7280094
 104.4308429  98.0498970 113.7004941 108.1264043  83.4485384 108.4874428
 107.7828313  84.3387026 108.4113538 108.4943006  83.2587042 107.6244013
 105.6761437  88.2843696 102.0532101 104.8203033  87.8950546 101.8737740
 106.0888389  88.3635657 101.1931887 107.2060584  85.8190039 106.4523661
 106.7025379  85.7820174 105.6391466 107.4991191  86.7282782 106.5120318
 103.4503470  85.9028769 105.4589843 104.3156466  85.7071578 105.0995732
 103.5180978  85.6739121 106.3859200 107.8800629  91.3121087  98.8206644
 107.5750765  91.6267236  99.6716787 108.8331071  91.3902507  98.8633977
 103.3588456  85.0072226 101.5581279 102.7052869  84.6921243 100.9337894
 103.3168931  84.3847966 102.2841102 106.5926197  91.4954159 105.8828927
 105.6748758  91.7169106 105.7250615 107.0086340  91.5700470 105.0240634
 107.3761244  92.8945575 101.0131607 108.1233063  93.4066972 100.7038729
 107.6452834  92.5729628 101.8736001 109.8240082  89.9302691 102.9950396
 109.0862838  89.4180077 103.3260639 110.0766855  89.4903073 102.1833673
 109.9251709  82.7078943 103.5892166 110.2310586  81.8476307 103.3018081
 110.6504314  83.2996563 103.3891159 104.1972789  93.0032736 104.0968357
 104.2521398  92.0506573 104.0210833 103.3863991  93.1592175 104.5809655
 102.1365149  91.6209796 101.8558735 101.3233014  91.9203967 102.2623928
 102.6324143  91.2265485 102.5733218 107.7339360  92.0851620 110.6873629
 108.0888748  92.3123094 111.5468095 108.3811492  92.4169997 110.0650885
 101.6279223  89.1928151 107.4719970 102.2678603  89.0516911 106.7742934
 100.7956754  88.9062665 107.0958572 100.1032765  90.5766234 109.4191782
 100.7755819  90.3683596 108.7704431  99.2762552  90.3788320 108.9797014
 106.0058337  87.2028175 111.4357443 105.3586252  87.9018124 111.3421919
 106.7759353  87.6364318 111.8033691 109.4137135  97.4677027 114.5107996
 109.2622642  97.2387578 113.5938080 109.4041815  98.4247628 114.5239341
 100.5060262  93.8508837 110.1794219 100.3680060  93.1189075 110.7805758
 101.4165186  93.7617737 109.8978407 101.8471497  90.5494014 111.4873538
 101.3108854  90.0984752 112.1395134 101.2588205  90.6839923 110.7444002
 111.1246749  98.4635733 110.8198457 110.2373528  98.1261655 110.9424856
 111.6945300  97.7318764 111.0567223  97.5810618  89.6850022 108.5726533
  97.4968807  89.0775691 107.8376942  96.7593325  90.1759040 108.5736029
 107.7534332  88.1703585 103.9396728 108.2503032  87.4173547 103.6197798
 106.9821314  88.2067902 103.3739937 115.6064090  93.8743951 105.5815019
 115.5953966  94.7568666 105.2108952 114.7381469  93.5215501 105.3869556
 104.3369301  90.3120968 103.6668412 103.9667088  89.7592008 104.3549318
 104.8328393  89.7079102 103.1143412 112.2236664  92.7692592 102.0485185
 112.6897116  93.6020583 101.9745488 112.6744165  92.3037573 102.7530444
 110.1953327  85.1373179 106.0876086 109.2816407  85.3677405 106.2558293
 110.6246428  85.2211623 106.9390119 106.0147358  94.0682882 115.0742018
 105.3387995  93.9677011 115.7444393 106.8374992  93.9122095 115.5378015
  92.3543872  92.8760418 106.4158976  92.3927972  92.3424009 107.2096094
  91.8484165  92.3495624 105.7969953  99.7334635  87.7224959 109.9121518
  99.7975961  88.5839790 109.4998916  99.6701755  87.1098960 109.1793877
  99.2086907  89.7948091 113.5594553  99.8358946  89.4125169 114.1732077
  98.3514826  89.5762293 113.9250245 109.6081016 100.2011067 115.1648288
 110.1520920 100.8141025 114.6703243 109.0267861 100.7590645 115.6815301
 102.3173010  87.0134944 111.7481108 102.8407412  87.2597240 112.5107417
 102.0985344  87.8454978 111.3284245 103.5225555  87.9548639 109.4330778
 103.1822376  87.1556452 109.8351458 102.8164562  88.2550350 108.8607611
 104.1742027  85.0397951 107.8858101 104.9968097  84.5658429 107.7636992
 104.4180091  85.8188435 108.3856788 106.9581385  88.7731359  99.1179335
 107.1744999  89.6555996  98.8168163 106.4775452  88.3817572  98.3884977
 101.6980606  91.7317072 105.6950080 101.5525187  92.0457375 106.5874361
 101.2205810  92.3501972 105.1420979 103.5576989  88.7219620 105.7430969
 103.5438558  87.8260713 105.4063267 104.2749417  88.7290283 106.3769255
 105.4103120  89.1556960 107.7884097 105.1520897  90.0774031 107.7868427
 104.8788160  88.7587394 108.4784561  96.1726268  94.2722416 108.6337741
  95.6279736  95.0482224 108.7658015  97.0505618  94.6193221 108.4756863
 102.9613885  87.6034000 101.0118540 103.0829796  86.6750646 101.2109427
 102.6715927  87.6172686 100.0996855 105.8305075  85.2888910 104.1485259
 105.8526772  85.3528244 103.1937239 106.2473134  84.4493419 104.3425766
 116.2088700  95.0244170 102.1864482 116.6519846  94.2751495 101.7883605
 115.3315210  95.0154306 101.8038214  96.9592290  93.3992312 111.5267898
  96.2174026  93.5474948 112.1132528  96.6385034  93.6600578 110.6634647
 102.4454964  89.1165997 115.2208472 102.4943120  89.9928120 114.8386242
 102.9877479  88.5743390 114.6480115 112.9309810  99.6607121 114.5009609
 112.1405354  99.6431259 113.9614109 112.6943165 100.1995414 115.2558646
 113.0507685  96.5099587 111.8142338 113.1005690  96.3449594 112.7557861
 112.9421608  95.6426846 111.4240219 110.3411447  92.4930515 113.1301645
 111.2421310  92.3536980 112.8385642 110.4159422  92.6584970 114.0699822
 104.6754253  89.8697370 111.9754831 103.8057562  90.1630936 111.7037419
 104.9113733  90.4537815 112.6962094 114.5525882  98.9296529 112.0584359
 114.2610690  99.2926509 112.8947820 113.9398013  98.2163537 111.8797691
 112.8013070  94.0529143 110.5264417 113.2767192  94.2456789 109.7183269
 111.8778636  94.1088329 110.2807801 107.3793287  86.0876987 109.4920251
 107.8975230  86.8238014 109.1666740 107.0248419  86.3940980 110.3267010
 107.6305881  82.5077269 105.0121148 107.9107635  81.8400458 105.6381574
 108.4156488  82.7006365 104.4995812 111.5014739  90.9294903 108.7592723
 112.4532162  91.0293001 108.7804947 111.3318190  90.1373172 109.2690807
 109.5229119  88.0150486 108.9452124 108.9279051  88.2955499 108.2498612
 109.2378815  88.5044387 109.7168865 114.1297305  90.9412066 107.9193306
 113.6136354  90.1570523 107.7323235 115.0137254  90.6130783 108.0839825
 111.7908032  84.6853082 103.8789118 111.5932853  84.3768170 104.7632450
 112.4007738  85.4114721 104.0087048 119.7979367  95.2117030 107.0141059
 120.5282755  94.9502318 107.5748763 119.1886312  94.4745752 107.0543127
 117.8794664  93.3524892 107.6115511 117.1527827  93.2180857 107.0032002
 117.4641951  93.6601721 108.4172229 105.7024840  97.0714822 115.3762884
 106.6227850  97.2493421 115.5702930 105.6674423  96.1270867 115.2242583
  98.6986913  94.9815857 108.0185665  98.9172923  95.9132964 108.0373699
  99.1112687  94.6223831 108.8040469 105.6191131  85.4883942 100.0061353
 104.8091859  85.1431027 100.3816599 106.3075548  85.1791486 100.5948965
 107.5481679  84.5661989 101.6285650 108.1012718  84.9857442 102.2875673
 107.7851765  83.6397737 101.6708606 103.5714778  90.5549062 117.4088414
 103.4711505  91.5043419 117.3400505 103.3536320  90.2267301 116.5364484
 110.9260486  86.6762514 101.1364314 110.3459155  87.3347318 100.7542366
 110.6596419  85.8539859 100.7251732 109.3764052  86.0767572 103.3385634
 109.8763831  86.1884106 102.5299953 110.0199660  85.7728625 103.9786443
 103.4346048  93.9846201 116.2253475 102.9513130  94.7846561 116.4317364
 103.5206987  93.9954146 115.2720919 109.7085364  88.8362604 100.1920662
 108.8211219  89.1212255  99.9740857 110.1239353  88.6756368  99.3447939
 113.0599900  88.8609125 103.9075002 113.8360290  89.3505578 104.1799618
 112.3348034  89.2867180 104.3646871 115.4972459  89.5736745 104.9648942
 116.0916950  89.3332480 104.2542250 115.5699043  88.8543875 105.5922478
 113.4931194  90.1406872 101.2321072 113.2368128  89.7403508 102.0629280
 112.8684062  90.8550666 101.1071211 117.8043532  92.8802945 103.7392363
 117.2443090  92.9496135 104.5123925 117.1987035  92.7043930 103.0191860
  95.2053682  90.7789986 111.5284904  95.8512546  90.2688940 112.0172129
  94.9970833  91.5158668 112.1028329 107.7307074  97.8470833 117.0277044
 108.5998234  98.0211486 116.6663679 107.2513826  98.6665250 116.9052774
 103.7257293  85.0430031  97.2808800 103.7135962  85.9871870  97.4377071
 104.6180714  84.8600176  96.9868261 107.5409412  81.6372807 101.5354737
 106.7741808  81.0831294 101.6811419 107.9520117  81.7094676 102.3968888
  99.5451173  87.9257603 115.6259918 100.4082635  87.5694408 115.8363243
  98.9716584  87.5871498 116.3135322 119.3899550 109.5559459 106.4322319
 120.0277960 109.4366207 105.7285659 119.2720393 110.5040303 106.4910271
 116.6809039 110.6621739 112.3270049 116.6697680 110.2674537 111.4550553
 116.8429679 109.9287812 112.9203821 113.4016300 113.4458851 111.2749233
 113.1106166 114.3504482 111.1595900 114.0373285 113.4875379 111.9893303
 118.9440819 107.2810913 103.5075527 119.7303908 106.8630336 103.1565944
 119.2079523 108.1857005 103.6757176 124.3449246 107.2186146 104.4108506
 125.0774418 106.6485363 104.6446335 123.5888601 106.8307747 104.8515011
 121.8674666 100.9307720 108.8703114 121.5357991 101.8003131 108.6464329
 121.2720279 100.6144004 109.5497145 118.3606186 113.1320266 108.2699027
 118.0606909 114.0345305 108.1614834 118.0157245 112.8652450 109.1220180
 121.7603329 105.6502807 105.9496464 120.8520207 105.5818215 105.6555225
 121.7090925 106.1274752 106.7778290 115.8344195 107.0692452 113.8931362
 115.0577529 107.6286372 113.8834226 116.4734758 107.5549235 114.4146232
 123.6264976 103.8519245 107.7274338 122.9839356 104.1451778 107.0814133
 123.1219904 103.7372165 108.5327535 121.2805139 107.5982418  98.4160198
 122.1922995 107.8309805  98.2407895 120.7714786 108.1819462  97.8535276
 114.0890567 109.8777906 113.4549329 114.8305252 110.4162950 113.1784152
 113.3827553 110.5044194 113.6120880 119.5645907 112.0207046 112.0521490
 119.9729263 111.5789457 111.3076122 118.8423169 111.4459674 112.3055683
 119.8874722 112.5808237 105.8073779 119.2583584 112.7453951 105.1049847
 119.5000384 112.9949846 106.5784743 123.7663954 113.5162675 103.1618143
 123.0814992 113.8961576 102.6115176 123.8507803 114.1258001 103.8950090
 119.0676422 104.6184021 111.0836221 118.8237354 105.3726082 110.5470496
 119.3436353 104.9969369 111.9183468 121.0214885 111.1622634 109.7613486
 121.2331780 111.8054393 109.0847867 120.9744633 110.3284950 109.2935416
 118.6241114 103.7740454 106.6650058 117.7625593 104.0721708 106.9566796
 118.6503549 103.9910853 105.7331091 112.8251931 107.0317554 114.2564639
 112.1950592 107.7133835 114.4900035 112.7188019 106.9200635 113.3117777
 122.1360713 114.0394589 107.9335844 122.9578157 113.6374776 107.6518525
 122.1323116 113.9362823 108.8851959 115.9017317 113.5878632 110.0896554
 115.9661749 114.0499040 110.9254726 115.1928240 112.9575997 110.2178864
 130.2266706 110.3833337 104.2820815 129.4730415 109.8140736 104.1264819
 130.3614247 110.3496002 105.2291450 112.1032674 101.3338320 116.6189890
 111.7099619 100.7804518 117.2937534 112.9198814 101.6448898 117.0096407
 115.0200635 102.7496199 114.2110146 115.7610348 103.3503352 114.1314609
 115.2518558 102.0073837 113.6528189 110.1641973 107.9352566 112.4888376
 110.0495488 107.0337823 112.7895475 109.3086491 108.1816263 112.1373192
 117.2433811 115.8770306 114.0875876 116.7997665 115.0906685 113.7696781
 117.9051024 116.0649457 113.4219767 119.3415049 116.1573106 112.1157278
 119.3233524 116.9781987 111.6237547 120.2634969 116.0327181 112.3407419
 115.7988103 113.6717236 112.9580786 116.3316440 112.9105524 112.7280094
 115.2702184 113.3790888 113.7004941 123.9042355 111.5218267  98.9300036
 123.1271797 111.1829427  98.4855199 124.5833836 111.5270891  98.2555002
 122.1433662 110.9952249 105.5866644 121.4857336 111.6851510 105.6746773
 122.9474061 111.3848681 105.9300631 120.9539120 109.3496621 103.6370586
 121.4671002 109.9826613 104.1392296 121.6040344 108.7497817 103.2713946
 121.7200917 114.3302623 101.7649729 121.2663244 113.4893533 101.8214919
 121.0894883 114.9664021 102.1024509 120.6633836 105.2594609 102.9950396
 119.9256593 104.7471995 103.3260639 120.9160610 104.8194990 102.1833673
 120.1633856 116.1679119 102.6999547 120.4556830 116.7284177 101.9811913
 120.6732476 116.4607680 103.4552706 120.7645463  98.0370861 103.5892166
 121.0704340  97.1768224 103.3018081 121.4898068  98.6288481 103.3891159
 118.5733115 107.4143538 110.6873629 118.9282503 107.6415011 111.5468095
 119.2205246 107.7461915 110.0650885 124.3030852 110.5361974 101.3922958
 124.1648750 110.7263570 100.4644148 123.9467071 111.2981357 101.8491010
 124.3300231 112.6038501 106.4034230 124.7636738 112.5113790 107.2517284
 125.0431812 112.5796001 105.7654246 118.0628126 116.2040595 107.9367331
 118.1165149 116.7731531 108.7045046 117.1942908 116.3742480 107.5721368
 125.1915781 112.6462202 108.9367115 125.3851671 113.5508012 109.1826390
 125.0916399 112.1869621 109.7705700 116.8452092 102.5320092 111.4357443
 116.1980007 103.2310042 111.3421919 117.6153107 102.9656236 111.8033691
 120.2530890 112.7968944 114.5107996 120.1016396 112.5679496 113.5938080
 120.2435569 113.7539546 114.5239341 121.9623096 115.8288067 112.5884478
 121.9035642 115.1447287 111.9215061 122.3642615 116.5707057 112.1365104
 121.9640504 113.7927651 110.8198457 121.0767282 113.4553573 110.9424856
 122.5339055 113.0610682 111.0567223 115.4941657 118.4529103 107.7859701
 115.4211828 119.2584075 108.2979005 115.0519050 118.6521069 106.9607722
 118.5928087 103.4995503 103.9396728 119.0896786 102.7465465 103.6197798
 117.8215068 103.5359819 103.3739937 126.4457844 109.2035868 105.5815019
 126.4347720 110.0860584 105.2108952 125.5775223 108.8507419 105.3869556
 117.9540340 118.3515937 109.9417859 118.6668313 118.9863402 109.8693761
 117.4630369 118.4479803 109.1257861 119.6757867 112.2567190 101.5135151
 118.7414146 112.3768652 101.3439855 119.8534536 111.3539657 101.2495161
 123.0630419 108.0984509 102.0485185 123.5290871 108.9312501 101.9745488
 123.5137919 107.6329491 102.7530444 113.0052254 116.1010381 110.7623430
 113.7061713 116.7346864 110.9152824 112.5347369 116.4425112 110.0019069
 121.1306650 114.4428331  99.0471337 121.4066494 114.3284925  99.9565211
 120.2611149 114.0445815  99.0083510 121.0347081 100.4665096 106.0876086
 120.1210161 100.6969323 106.2558293 121.4640183 100.5503540 106.9390119
 120.8053540 108.6554988 108.5875981 120.1524990 108.9030896 107.9328433
 121.1833920 107.8419126 108.2538458 116.8541113 109.3974799 115.0742018
 116.1781750 109.2968929 115.7444393 117.6768747 109.2414013 115.5378015
 108.6019972 115.6346736 107.6954533 109.1873409 114.8890424 107.8282437
 108.4044810 115.9450693 108.5791197 115.5963896 120.7041727 109.3099634
 116.1482204 120.8673348 110.0748719 115.9370089 121.2946165 108.6379658
 120.4474770 115.5302984 115.1648288 120.9914674 116.1432942 114.6703243
 119.8661615 116.0882563 115.6815301 118.7332283 118.6523702 106.2963316
 118.6083423 117.8513442 105.7874261 119.3911374 119.1469896 105.8077286
 120.7967191 116.4532722 107.9242866 119.8497527 116.3338074 107.8521193
 121.1449965 115.5655220 108.0069127 121.4047747 117.0713997 105.2112091
 122.3294294 116.8656859 105.0736542 121.2363050 116.8230398 106.1201432
 121.1943063 117.5899665 100.5674182 121.3679940 117.0246087  99.8148035
 121.6871954 118.3900560 100.3853672 127.0482454 110.3536088 102.1864482
 127.4913600 109.6043413 101.7883605 126.1708964 110.3446224 101.8038214
 122.1818235 116.9066429  97.6671081 122.8769140 117.5273122  97.8858395
 122.5241385 116.0561780  97.9423458 124.0809658 114.3566135  99.1958411
 124.6060983 114.6953407  98.4707731 123.9932011 113.4213150  99.0121546
 115.7429707 118.2700208 111.3248288 116.0516834 118.0249355 112.1970988
 116.5405189 118.4746847 110.8367158 113.2848719 104.4457915 115.2208472
 113.3336874 105.3220038 114.8386242 113.8271233 103.9035308 114.6480115
 123.7703565 114.9899038 114.5009609 122.9799108 114.9723177 113.9614109
 123.5336919 115.5287332 115.2558646 123.8901440 111.8391505 111.8142338
 123.9399444 111.6741512 112.7557861 123.7815363 110.9718764 111.4240219
 121.1805202 107.8222433 113.1301645 122.0815065 107.6828898 112.8385642
 121.2553176 107.9876888 114.0699822 125.3919636 114.2588446 112.0584359
 125.1004445 114.6218427 112.8947820 124.7791768 113.5455454 111.8797691
 126.5915319 111.8241326 104.5786930 127.4262210 112.2631130 104.7424490
 126.7274448 111.3479979 103.7595175 123.6406825 109.3821061 110.5264417
 124.1160946 109.5748707 109.7183269 122.7172390 109.4380247 110.2807801
 122.3408494 106.2586821 108.7592723 123.2925917 106.3584919 108.7804947
 122.1711944 105.4665089 109.2690807 120.3622873 103.3442404 108.9452124
 119.7672805 103.6247417 108.2498612 120.0772570 103.8336305 109.7168865
 122.1218380 116.6131201  94.6658704 122.0432012 116.2791065  95.5594462
 122.9428047 117.1052969  94.6650176 124.8196571 109.4792941 107.8735023
 124.7872892 108.5408941 108.0594706 125.4297195 109.5576977 107.1400847
 124.9691060 106.2703984 107.9193306 124.4530109 105.4862441 107.7323235
 125.8531008 105.9422701 108.0839825 122.6301787 100.0145000 103.8789118
 122.4326608  99.7060088 104.7632450 123.2401492 100.7406639 104.0087048
 130.6373121 110.5408947 107.0141059 131.3676510 110.2794236 107.5748763
 130.0280067 109.8037669 107.0543127 128.7188418 108.6816810 107.6115511
 127.9921582 108.5472775 107.0032002 128.3035705 108.9893639 108.4172229
 116.5418595 112.4006740 115.3762884 117.4621604 112.5785339 115.5702930
 116.5068178 111.4562785 115.2242583 118.3875433  99.8953906 101.6285650
 118.9406472 100.3149360 102.2875673 118.6245520  98.9689655 101.6708606
 114.4108533 105.8840980 117.4088414 114.3105260 106.8335337 117.3400505
 114.1930075 105.5559219 116.5364484 121.7654241 102.0054432 101.1364314
 121.1852910 102.6639236 100.7542366 121.4990173 101.1831776 100.7251732
 120.2157807 101.4059489 103.3385634 120.7157585 101.5176024 102.5299953
 120.8593415 101.1020542 103.9786443 114.2739803 109.3138119 116.2253475
 113.7906884 110.1138479 116.4317364 114.3600742 109.3246064 115.2720919
 110.2013140 113.2042654 108.2621909 111.1556394 113.1726596 108.1951841
 110.0025664 112.7433277 109.0772135 110.7912522 111.7743770 110.8292707
 111.6105411 112.2687848 110.8527544 111.0649330 110.8575738 110.8010274
 120.5479119 104.1654522 100.1920662 119.6604974 104.4504173  99.9740857
 120.9633108 104.0048285  99.3447939 123.8993655 104.1901043 103.9075002
 124.6754045 104.6797495 104.1799618 123.1741789 104.6159097 104.3646871
 126.3366213 104.9028662 104.9648942 126.9310704 104.6624398 104.2542250
 126.4092797 104.1835793 105.5922478 120.5220142 109.6809058 100.4070952
 120.4655344 110.1377609  99.5678585 121.0748485 108.9199743 100.2293795
 124.3324948 105.4698790 101.2321072 124.0761882 105.0695425 102.0629280
 123.7077816 106.1842584 101.1071211 128.6437286 108.2094863 103.7392363
 128.0836844 108.2788052 104.5123925 128.0380789 108.0335848 103.0191860
 121.6009029 114.3681726  96.3367142 122.4354633 113.9362924  96.1544617
 121.4393372 114.1963740  97.2644037 121.2554922 110.8713839  97.7023482
 121.2003725 110.7058111  96.7611926 120.6300977 111.5789872  97.8585671
 118.5700829 113.1762751 117.0277044 119.4391988 113.3503403 116.6663679
 118.0907580 113.9957168 116.9052774 118.3803167  96.9664725 101.5354737
 117.6135562  96.4123212 101.6811419 118.7913871  97.0386594 102.3968888
 110.3844928 103.2549521 115.6259918 111.2476389 102.8986325 115.8363243
 109.8110338 102.9163415 116.3135322 130.2293305 124.8851377 106.4322319
 130.8671714 124.7658124 105.7285659 130.1114147 125.8332221 106.4910271
 127.0383011 124.8378805 106.3683844 126.7001522 124.7219870 105.4804379
 127.9072779 124.4369970 106.3484850 122.8969826 126.6914282 102.3580735
 122.3334692 126.6004218 101.5897023 122.7822222 125.8714186 102.8383227
 127.5202794 125.9913657 112.3270049 127.5091435 125.5966455 111.4550553
 127.6823433 125.2579729 112.9203821 120.4434258 128.1865473 105.1964955
 121.2355550 127.8456298 104.7811255 120.6830909 128.2960448 106.1167109
 128.4769385 130.3585249  97.6695200 127.8257365 130.9439330  97.2829213
 129.2713748 130.8891444  97.7290237 122.4025012 127.4474386  98.0682334
 123.1755888 126.9003373  97.9295210 122.7550411 128.3118636  98.2796795
 124.2410055 128.7750769 111.2749233 123.9499921 129.6796399 111.1595900
 124.8767039 128.8167296 111.9893303 125.1666262 126.1527617 107.8650593
 125.7629834 125.9283640 107.1507556 125.2241233 125.4112363 108.4676041
 124.7391290 123.6067052  95.7000784 124.9916811 123.0848574  94.9384247
 123.8015849 123.4433198  95.8027468 129.7834573 122.6102831 103.5075527
 130.5697662 122.1922254 103.1565944 130.0473277 123.5148923 103.6757176
 129.9544650 128.0475681  98.2064184 129.3190483 128.1210308  98.9185089
 129.6242057 128.6369280  97.5283263 135.1843000 122.5478064 104.4108506
 135.9168172 121.9777281 104.6446335 134.4282356 122.1599664 104.8515011
 124.4587579 125.5095158  97.9025159 124.3423837 124.8340062  98.5706243
 124.5689839 125.0227532  97.0857312 126.8019120 124.9705306 101.6071848
 126.4377327 124.4435927 102.3184770 127.6586236 124.5803775 101.4338334
 132.7068420 116.2599638 108.8703114 132.3751745 117.1295049 108.6464329
 132.1114034 115.9435922 109.5497145 126.4424607 119.9995205  96.6033197
 126.6099009 120.8675442  96.9703668 126.2521776 120.1622487  95.6794486
 129.1999940 128.4612184 108.2699027 128.9000663 129.3637223 108.1614834
 128.8551000 128.1944367 109.1220180 122.6512421 124.9125981 104.3035731
 121.7262918 124.7802195 104.5113423 122.8996835 125.6920200 104.8005674
 132.5997084 120.9794724 105.9496464 131.6913961 120.9110133 105.6555225
 132.5484680 121.4566669 106.7778290 126.4213828 122.4552863  97.5879863
 126.3013453 122.9009914  98.4265344 125.7266416 122.8038180  97.0293402
 120.0121233 124.5559255 105.1379520 120.1413614 124.8093733 106.0518932
 119.3318684 125.1486963 104.8184176 124.1820720 135.2256504 101.2369995
 124.1044750 136.1764330 101.3158475 123.5782363 134.8802377 101.8944921
 126.6737950 122.3984370 113.8931362 125.8971284 122.9578290 113.8834226
 127.3128513 122.8841153 114.4146232 134.4658730 119.1811163 107.7274338
 133.8233110 119.4743696 107.0814133 133.9613659 119.0664083 108.5327535
 132.1198894 122.9274336  98.4160198 133.0316750 123.1601723  98.2407895
 131.6108541 123.5111380  97.8535276 124.9284322 125.2069823 113.4549329
 125.6699006 125.7454867 113.1784152 124.2221307 125.8336112 113.6120880
 130.4039662 127.3498964 112.0521490 130.8123018 126.9081374 111.3076122
 129.6816923 126.7751591 112.3055683 126.7570732 122.2871571 109.4255047
 127.6031927 122.7110984 109.5689696 126.6969369 121.6305195 110.1193610
 130.7268476 127.9100154 105.8073779 130.0977339 128.0745868 105.1049847
 130.3394138 128.3241764 106.5784743 134.6057708 128.8454592 103.1618143
 133.9208746 129.2253494 102.6115176 134.6901557 129.4549919 103.8950090
 129.9070177 119.9475939 111.0836221 129.6631109 120.7017999 110.5470496
 130.1830107 120.3261286 111.9183468 131.8608640 126.4914551 109.7613486
 132.0725535 127.1346311 109.0847867 131.8138388 125.6576868 109.2935416
 129.4634869 119.1032372 106.6650058 128.6019348 119.4013625 106.9566796
 129.4897303 119.3202771 105.7331091 126.2796438 127.6474562 103.0723864
 126.7434784 127.9262265 102.2828487 126.0153236 126.7458007 102.8896955
 123.1720519 127.1946044 106.0103627 123.7421876 127.6233312 105.3721112
 123.7628631 126.9128629 106.7087813 125.2165324 123.7697715  99.8813429
 125.9189367 124.2218758 100.3487356 124.8845953 123.1281534 100.5093322
 123.6645686 122.3609471 114.2564639 123.0344346 123.0425752 114.4900035
 123.5581774 122.2492553 113.3117777 118.9590658 122.0281267 105.1830563
 118.1689712 122.2838796 104.7070673 119.4501905 122.8429605 105.2882603
 132.9754468 129.3686507 107.9335844 133.7971911 128.9666694 107.6518525
 132.9716870 129.2654741 108.8851959 120.9105403 122.3925847 102.1414039
 120.1136567 122.5044541 102.6597535 120.6830996 122.7312499 101.2754930
 126.7411071 128.9170550 110.0896554 126.8055504 129.3790957 110.9254726
 126.0321995 128.2867915 110.2178864 117.2428361 122.2811758 107.6145554
 117.4936399 123.1658768 107.8803130 117.7787909 122.1016359 106.8420645
 141.0660461 125.7125255 104.2820815 140.3124169 125.1432653 104.1264819
 141.2008002 125.6787920 105.2291450 126.4559089 130.5838657  99.9575534
 126.3204764 131.4290193 100.3860382 126.9968901 130.7857935  99.1941468
 122.9426428 116.6630237 116.6189890 122.5493374 116.1096436 117.2937534
 123.7592569 116.9740816 117.0096407 119.9088486 128.1014095 100.5303460
 120.4213007 128.8957346 100.6809024 120.5611199 127.4040386 100.4637061
 121.7183371 131.2179852 102.6126213 121.8949999 132.1397816 102.4247197
 122.5140204 130.9038271 103.0420592 125.8594389 118.0788116 114.2110146
 126.6004103 118.6795270 114.1314609 126.0912312 117.3365754 113.6528189
 121.0035727 123.2644484 112.4888376 120.8889243 122.3629741 112.7895475
 120.1480245 123.5108180 112.1373192 128.0827565 131.2062224 114.0875876
 127.6391419 130.4198603 113.7696781 128.7444779 131.3941374 113.4219767
 122.8414686 132.7358026 108.6136555 123.3922111 132.6075089 107.8413549
 122.0026162 133.0352915 108.2631448 130.1808803 131.4865024 112.1157278
 130.1627279 132.3073905 111.6237547 131.1028723 131.3619099 112.3407419
 126.6381857 129.0009153 112.9580786 127.1710194 128.2397442 112.7280094
 126.1095938 128.7082805 113.7004941 129.8051552 114.1069219 108.4874428
 129.4615822 114.9970861 108.4113538 130.1730515 113.9170877 107.6244013
 117.8737403 126.4302750 101.3063030 118.7112625 126.8399758 101.0896738
 118.0515671 125.4902192 101.2763224 129.7701835 124.0977830  96.9946863
 129.2548458 124.8682435  97.2335250 129.4979143 123.4242967  97.6179924
 127.3548946 118.9427531 102.0532101 126.4990542 118.5534382 101.8737740
 127.7675898 119.0219492 101.1931887 128.8848093 116.4773874 106.4523661
 128.3812888 116.4404010 105.6391466 129.1778700 117.3866617 106.5120318
 125.1290979 116.5612604 105.4589843 125.9943975 116.3655413 105.0995732
 125.1968487 116.3322956 106.3859200 134.7436109 126.8510185  98.9300036
 133.9665552 126.5121345  98.4855199 135.4227590 126.8562808  98.2555002
 129.5588138 121.9704923  98.8206644 129.2538274 122.2851072  99.6716787
 130.5118580 122.0486342  98.8633977 128.0034570 128.1295146 100.4699598
 127.4755932 127.3947905 100.1572836 127.5022073 128.9069822 100.2239566
 132.9827416 126.3244166 105.5866644 132.3251090 127.0143428 105.6746773
 133.7867815 126.7140598 105.9300631 122.7353298 118.7914812 102.8306210
 123.3097050 118.5689994 102.0979403 123.3224280 118.8603507 103.5834811
 131.7932875 124.6788539 103.6370586 132.3064757 125.3118531 104.1392296
 132.4434099 124.0789735 103.2713946 123.0622885 120.8219273  96.8502095
 122.2260197 121.1593960  97.1711370 122.9227654 120.6868253  95.9129232
 125.0375965 115.6656061 101.5581279 124.3840378 115.3505078 100.9337894
 124.9956439 115.0431801 102.2841102 126.1487170 125.9475356  93.4734571
 125.2414232 125.7164610  93.6725720 126.6458202 125.1512975  93.6608553
 129.0555249 134.6572863  96.3931257 128.3816948 134.9604560  97.0016215
 129.4421071 135.4601944  96.0436714 128.2713706 122.1537995 105.8828927
 127.3536267 122.3752942 105.7250615 128.6873849 122.2284305 105.0240634
 129.0548753 123.5529410 101.0131607 129.8020572 124.0650807 100.7038729
 129.3240343 123.2313463 101.8736001 127.3275404 126.0487951  97.9958561
 126.4186623 125.7646984  98.0931031 127.3570487 126.4687030  97.1361868
 132.5594671 129.6594540 101.7649729 132.1056998 128.8185450 101.8214919
 131.9288638 130.2955939 102.1024509 131.5027591 120.5886527 102.9950396
 130.7650347 120.0763913 103.3260639 131.7554364 120.1486908 102.1833673
 131.0027610 131.4971037 102.6999547 131.2950585 132.0576094 101.9811913
 131.5126231 131.7899598 103.4552706 131.6039218 113.3662779 103.5892166
 131.9098095 112.5060142 103.3018081 132.3291823 113.9580399 103.3891159
 117.8963574 123.7693465 101.9773763 117.6987974 123.1762826 101.2524830
 117.3410238 123.4645675 102.6949702 125.8760298 123.6616572 104.0968357
 125.9308907 122.7090408 104.0210833 125.0651500 123.8176011 104.5809655
 127.0251491 127.5896695  95.3346640 126.5870921 126.8732554  94.8752277
 127.7661932 127.8172809  94.7731731 123.8152658 122.2793631 101.8558735
 123.0020523 122.5787802 102.2623928 124.3111652 121.8849320 102.5733218
 125.9661235 132.2751388 103.7893000 125.9237414 132.5012235 102.8601532
 126.8823934 132.0414763 103.9378801 129.4126869 122.7435456 110.6873629
 129.7676257 122.9706929 111.5468095 130.0599001 123.0753833 110.0650885
 135.1424606 125.8653892 101.3922958 135.0042505 126.0555488 100.4644148
 134.7860825 126.6273275 101.8491010 123.3066732 119.8511987 107.4719970
 123.9466112 119.7100746 106.7742934 122.4744263 119.5646500 107.0958572
 135.1693986 127.9330419 106.4034230 135.6030493 127.8405708 107.2517284
 135.8825567 127.9087919 105.7654246 124.0827036 129.1514417 103.5854963
 124.8767635 128.6564737 103.3837538 123.3718729 128.6232280 103.2222668
 128.9021881 131.5332513 107.9367331 128.9558903 132.1023449 108.7045046
 128.0336662 131.7034398 107.5721368 120.3909800 123.2957499  99.6614716
 119.4607388 123.2341954  99.8784678 120.4867272 122.7733452  98.8651357
 120.3095349 119.8212312 102.2492957 120.5702166 120.7357645 102.1402118
 121.1312521 119.3536754 102.3989570 121.7820274 121.2350069 109.4191782
 122.4543328 121.0267431 108.7704431 120.9550061 121.0372155 108.9797014
 136.0309535 127.9754119 108.9367115 136.2245425 128.8799930 109.1826390
 135.9310154 127.5161538 109.7705700 127.6845846 117.8612010 111.4357443
 127.0373761 118.5601960 111.3421919 128.4546862 118.2948154 111.8033691
 131.0924644 128.1260862 114.5107996 130.9410150 127.8971414 113.5938080
 131.0829324 129.0831464 114.5239341 127.8609980 125.6992775 109.4954262
 128.7902040 125.8503934 109.3223230 127.4401011 125.7876796 108.6402909
 126.6598312 129.7243439 107.2652800 126.5209398 129.3562224 108.1378738
 125.8712909 130.2391079 107.0936758 127.2546464 134.8252536  98.6078337
 127.4298220 134.3540579  99.4223959 126.5679252 135.4518302  98.8359597
 128.2103527 129.1025042 104.6541638 127.8753360 129.0625812 105.5499288
 127.7107473 128.4369758 104.1812048 122.1847771 124.5092672 110.1794219
 122.0467569 123.7772911 110.7805758 123.0952695 124.4201572 109.8978407
 131.1462719 126.4481076  94.9278697 130.5291890 125.7227904  94.8311750
 130.6779208 127.2090437  94.5845772 124.8130072 124.2212631 109.6677899
 125.5229691 123.5805824 109.6264517 124.7699380 124.4725526 110.5904079
 132.8016851 131.1579985 112.5884478 132.7429397 130.4739205 111.9215061
 133.2036369 131.8998975 112.1365104 123.5259006 121.2077849 111.4873538
 122.9896363 120.7568588 112.1395134 122.9375714 121.3423758 110.7444002
 121.8207550 137.9741898 105.3818197 122.0604148 138.6060423 106.0597215
 120.9776746 137.6229939 105.6683556 122.9361265 120.6666501  94.0500002
 122.0590731 120.5455301  93.6862248 123.4119018 119.8752579  93.7978890
 132.8034258 129.1219569 110.8198457 131.9161037 128.7845490 110.9424856
 133.3732809 128.3902600 111.0567223 114.4563405 125.4543660 104.1441509
 115.1434445 125.1405390 103.5562524 114.3011534 126.3585025 103.8708760
 119.2598127 120.3433857 108.5726533 119.1756316 119.7359526 107.8376942
 118.4380834 120.8342875 108.5736029 126.3335411 133.7821021 107.7859701
 126.2605583 134.5875992 108.2979005 125.8912804 133.9812987 106.9607722
 126.1225191 133.0192791 101.2962522 125.3392713 133.5614471 101.3900747
 126.8217936 133.5366771 101.6956763 129.4321841 118.8287420 103.9396728
 129.9290541 118.0757383 103.6197798 128.6608823 118.8651737 103.3739937
 137.2851599 124.5327786 105.5815019 137.2741475 125.4152501 105.2108952
 136.4168978 124.1799337 105.3869556 128.7934095 133.6807855 109.9417859
 129.5062067 134.3155320 109.8693761 128.3024124 133.7771721 109.1257861
 130.5151622 127.5859108 101.5135151 129.5807901 127.7060570 101.3439855
 130.6928290 126.6831574 101.2495161 126.0156810 120.9704803 103.6668412
 125.6454597 120.4175844 104.3549318 126.5115902 120.3662937 103.1143412
 133.9024173 123.4276427 102.0485185 134.3684625 124.2604419 101.9745488
 134.3531674 122.9621408 102.7530444 123.8446008 131.4302298 110.7623430
 124.5455468 132.0638781 110.9152824 123.3741123 131.7717030 110.0019069
 131.9700404 129.7720248  99.0471337 132.2460248 129.6576843  99.9565211
 131.1004903 129.3737733  99.0083510 131.8740836 115.7957014 106.0876086
 130.9603916 116.0261241 106.2558293 132.3033937 115.8795458 106.9390119
 131.6447294 123.9846906 108.5875981 130.9918745 124.2322813 107.9328433
 132.0227674 123.1711044 108.2538458 128.6054468 134.0206599 102.6904151
 128.7876863 133.2028255 103.1531903 129.4287454 134.2374291 102.2529041
 128.9396634 132.9474784  99.9519199 129.4684400 132.4367239  99.3389361
 129.2024853 132.6317314 100.8164732 127.6934867 124.7266717 115.0742018
 127.0175504 124.6260846 115.7444393 128.5162501 124.5705931 115.5378015
 119.4413727 130.9638653 107.6954533 120.0267163 130.2182341 107.8282437
 119.2438565 131.2742610 108.5791197 122.2952382 133.9989901 102.7116975
 121.6262757 134.4836028 102.2281015 122.1565251 134.2459121 103.6260354
 114.0331381 123.5344254 106.4158976 114.0715481 123.0007844 107.2096094
 113.5271674 123.0079459 105.7969953 126.4357650 136.0333644 109.3099634
 126.9875958 136.1965266 110.0748719 126.7763844 136.6238082 108.6379658
 121.4122144 118.3808794 109.9121518 121.4763470 119.2423625 109.4998916
 121.3489264 117.7682796 109.1793877 120.8874416 120.4531927 113.5594553
 121.5146455 120.0709004 114.1732077 120.0302335 120.2346129 113.9250245
 131.2868525 130.8594902 115.1648288 131.8308429 131.4724860 114.6703243
 130.7055369 131.4174480 115.6815301 129.5726038 133.9815620 106.2963316
 129.4477177 133.1805360 105.7874261 130.2305129 134.4761813 105.8077286
 121.1934206 120.3364352 105.4740456 120.4720792 120.9500320 105.3347929
 121.9827462 120.8722117 105.3957102 131.6360946 131.7824640 107.9242866
 130.6891282 131.6629991 107.8521193 131.9843719 130.8947138 108.0069127
 123.9960519 117.6718779 111.7481108 124.5194921 117.9181075 112.5107417
 123.7772853 118.5038814 111.3284245 128.6407379 131.5777356 104.1247218
 128.4932342 130.6494064 104.3054788 129.4660873 131.5997447 103.6404293
 122.5069624 120.2295423  99.9827710 122.8465696 120.7581345  99.2606319
 122.9541744 120.5675829 100.7586277 132.2441501 132.4005915 105.2112091
 133.1688049 132.1948776 105.0736542 132.0756804 132.1522316 106.1201432
 125.2013064 118.6132474 109.4330778 124.8609885 117.8140287 109.8351458
 124.4952071 118.9134185 108.8607611 125.8529536 115.6981786 107.8858101
 126.6755606 115.2242265 107.7636992 126.0967600 116.4772270 108.3856788
 124.4937771 118.7270045  98.1821003 125.2146133 119.1051298  97.6784720
 123.8703075 119.4458922  98.2855981 128.6368894 119.4315194  99.1179335
 128.8532508 120.3139832  98.8168163 128.1562961 119.0401407  98.3884977
 123.3768115 122.3900907 105.6950080 123.2312696 122.7041210 106.5874361
 122.8993319 123.0085807 105.1420979 125.2364498 119.3803455 105.7430969
 125.2226067 118.4844548 105.4063267 125.9536926 119.3874119 106.3769255
 127.0890629 119.8140795 107.7884097 126.8308406 120.7357866 107.7868427
 126.5575669 119.4171230 108.4784561 132.0336817 132.9191582 100.5674182
 132.2073695 132.3538005  99.8148035 132.5265709 133.7192477 100.3853672
 117.8513777 124.9306251 108.6337741 117.3067245 125.7066059 108.7658015
 118.7293127 125.2777056 108.4756863 124.6401394 118.2617835 101.0118540
 124.7617305 117.3334482 101.2109427 124.3503436 118.2756521 100.0996855
 127.5092584 115.9472746 104.1485259 127.5314281 116.0112079 103.1937239
 127.9260643 115.1077254 104.3425766 137.8876209 125.6828005 102.1864482
 138.3307355 124.9335331 101.7883605 137.0102719 125.6738142 101.8038214
 133.0211990 132.2358347  97.6671081 133.7162894 132.8565039  97.8858395
 133.3635140 131.3853698  97.9423458 118.6379799 124.0576148 111.5267898
 117.8961535 124.2058783 112.1132528 118.3172543 124.3184413 110.6634647
 134.9203413 129.6858052  99.1958411 135.4454737 130.0245325  98.4707731
 134.8325765 128.7505068  99.0121546 126.5823462 133.5992126 111.3248288
 126.8910588 133.3541273 112.1970988 127.3798944 133.8038764 110.8367158
 126.6044074 135.7530036 103.5553664 126.1649064 135.2606414 104.2486521
 127.3552191 135.2103003 103.3145740 119.0836413 131.9441576 103.5578293
 119.9094433 131.6445348 103.1776936 118.7330465 131.1749199 104.0068081
 124.0517946 131.2968045 105.6275966 123.4297955 130.6338750 105.3278194
 124.7222813 131.3229177 104.9449614 117.2845018 129.8627903 104.5167226
 116.4476926 129.4350077 104.3351227 117.2568663 130.0560346 105.4538017
 124.1242473 119.7749833 115.2208472 124.1730629 120.6511956 114.8386242
 124.6664988 119.2327226 114.6480115 134.6097319 130.3190956 114.5009609
 133.8192863 130.3015095 113.9614109 134.3730674 130.8579250 115.2558646
 134.7295194 127.1683422 111.8142338 134.7793199 127.0033430 112.7557861
 134.6209117 126.3010681 111.4240219 123.6131453 129.8471968  99.1034427
 123.7619573 130.5307432  98.4501099 124.4197896 129.8277058  99.6183882
 132.0198956 123.1514350 113.1301645 132.9208819 123.0120815 112.8385642
 132.0946931 123.3168805 114.0699822 126.3541762 120.5281205 111.9754831
 125.4845071 120.8214771 111.7037419 126.5901242 121.1121650 112.6962094
 136.2313391 129.5880364 112.0584359 135.9398199 129.9510344 112.8947820
 135.6185522 128.8747372 111.8797691 137.4309073 127.1533244 104.5786930
 138.2655965 127.5923048 104.7424490 137.5668202 126.6771897 103.7595175
 134.4800579 124.7112978 110.5264417 134.9554701 124.9040625 109.7183269
 133.5566145 124.7672164 110.2807801 121.3684086 125.8737146 100.1095496
 121.1230128 124.9699476 100.3075706 121.5380000 125.8754296  99.1674974
 129.0580796 116.7460822 109.4920251 129.5762739 117.4821849 109.1666740
 128.7035928 117.0524815 110.3267010 129.3093390 113.1661105 105.0121148
 129.5895144 112.4984294 105.6381574 130.0943997 113.3590200 104.4995812
 127.1126858 132.3420098  96.5746174 126.5400825 132.9610286  96.1216646
 127.6859652 132.8919460  97.1086096 133.1802248 121.5878739 108.7592723
 134.1319671 121.6876836 108.7804947 133.0105699 120.7957007 109.2690807
 131.2016628 118.6734322 108.9452124 130.6066560 118.9539335 108.2498612
 130.9166324 119.1628223 109.7168865 130.3324118 132.6257249  97.7054756
 131.2654791 132.5602810  97.9087632 130.2447331 133.4613515  97.2469289
 132.9612135 131.9423119  94.6658704 132.8825766 131.6082983  95.5594462
 133.7821802 132.4344887  94.6650176 135.6590326 124.8084858 107.8735023
 135.6266646 123.8700859 108.0594706 136.2690950 124.8868895 107.1400847
 127.4973657 123.6780911  93.9162227 128.4432761 123.5487119  93.9850645
 127.1187902 122.9395573  94.3931655 135.8084814 121.5995902 107.9193306
 135.2923863 120.8154358 107.7323235 136.6924763 121.2714618 108.0839825
 133.4695541 115.3436917 103.8789118 133.2720362 115.0352005 104.7632450
 134.0795247 116.0698556 104.0087048 141.4766876 125.8700865 107.0141059
 142.2070264 125.6086153 107.5748763 140.8673821 125.1329587 107.0543127
 139.5582173 124.0108728 107.6115511 138.8315336 123.8764693 107.0032002
 139.1429460 124.3185556 108.4172229 127.3812349 127.7298657 115.3762884
 128.3015359 127.9077256 115.5702930 127.3461932 126.7854703 115.2242583
 125.6816574 121.6030888  93.8517112 124.7748029 121.3064000  93.9279825
 125.9592555 121.3060706  92.9851398 116.5994514 122.9237251 104.3016158
 116.2797299 122.0702559 104.0090532 116.0527942 123.1385829 105.0574126
 120.3774422 125.6399692 108.0185665 120.5960432 126.5716800 108.0373699
 120.7900196 125.2807666 108.8040469 127.2978640 116.1467777 100.0061353
 126.4879368 115.8014862 100.3816599 127.9863057 115.8375321 100.5948965
 129.2269188 115.2245824 101.6285650 129.7800227 115.6441278 102.2875673
 129.4639274 114.2981572 101.6708606 125.2502287 121.2132898 117.4088414
 125.1499014 122.1627255 117.3400505 125.0323829 120.8851137 116.5364484
 124.4515359 118.4617823  93.9929091 125.3134523 118.7872721  94.2524908
 124.6365703 117.6749319  93.4802157 116.4682774 126.5440163 106.2709280
 115.7746246 126.1294115 105.7579234 117.2155765 126.5860699 105.6742699
 132.6047995 117.3346349 101.1364314 132.0246664 117.9931153 100.7542366
 132.3383928 116.5123694 100.7251732 131.0551561 116.7351407 103.3385634
 131.5551340 116.8467942 102.5299953 131.6987169 116.4312460 103.9786443
 125.1133557 124.6430037 116.2253475 124.6300639 125.4430397 116.4317364
 125.1994496 124.6537981 115.2720919 118.3819517 126.4758416 104.1475295
 118.3590205 126.5746104 103.1957178 118.6920153 127.3223567 104.4692461
 121.0406895 128.5334571 108.2621909 121.9950148 128.5018514 108.1951841
 120.8419418 128.0725195 109.0772135 121.6306277 127.1035687 110.8292707
 122.4499166 127.5979766 110.8527544 121.9043085 126.1867656 110.8010274
 131.3872873 119.4946440 100.1920662 130.4998728 119.7796090  99.9740857
 131.8026862 119.3340203  99.3447939 134.7387409 119.5192961 103.9075002
 135.5147799 120.0089413 104.1799618 134.0135543 119.9451015 104.3646871
 137.1759968 120.2320580 104.9648942 137.7704459 119.9916316 104.2542250
 137.2486552 119.5127710 105.5922478 119.3957124 134.0754191 105.2792107
 119.2611591 133.3154592 104.7130105 118.9789186 134.7995091 104.8120896
 130.5316087 129.2591114  94.2868682 131.2351937 129.4641117  94.9026338
 129.8078735 129.8267876  94.5517766 131.3613897 125.0100976 100.4070952
 131.3049098 125.4669527  99.5678585 131.9142239 124.2491660 100.2293795
 135.1718703 120.7990707 101.2321072 134.9155637 120.3987343 102.0629280
 134.5471571 121.5134501 101.1071211 139.4831041 123.5386781 103.7392363
 138.9230599 123.6079970 104.5123925 138.8774544 123.3627765 103.0191860
 122.5526249 134.9723508 105.4910550 122.4358634 135.9168940 105.3889240
 121.7318696 134.6697069 105.8796349 132.4402784 129.6973644  96.3367142
 133.2748388 129.2654842  96.1544617 132.2787127 129.5255657  97.2644037
 132.0948676 126.2005757  97.7023482 132.0397480 126.0350028  96.7611926
 131.4694731 126.9081790  97.8585671 116.8841191 121.4373821 111.5284904
 117.5300055 120.9272775 112.0172129 116.6758342 122.1742503 112.1028329
 129.4094583 128.5054669 117.0277044 130.2785743 128.6795321 116.6663679
 128.9301335 129.3249086 116.9052774 125.4044802 115.7013866  97.2808800
 125.3923471 116.6455706  97.4377071 126.2968223 115.5184011  96.9868261
 123.5780764 135.6251770 108.7066478 124.4808010 135.6575380 109.0232973
 123.3518134 134.6952221 108.7212814 125.3334366 134.3782756 105.3676557
 124.3829997 134.3784618 105.2540929 125.6366852 133.6315491 104.8512591
 129.2196921 112.2956643 101.5354737 128.4529317 111.7415129 101.6811419
 129.6307626 112.3678511 102.3968888 121.2238682 118.5841438 115.6259918
 122.0870144 118.2278243 115.8363243 120.6504093 118.2455333 116.3135322
 141.0687059 140.2143295 106.4322319 141.7065469 140.0950042 105.7285659
 140.9507902 141.1624139 106.4910271 137.8776765 140.1670723 106.3683844
 137.5395277 140.0511787 105.4804379 138.7466533 139.7661888 106.3484850
 133.7363581 142.0206199 102.3580735 133.1728446 141.9296136 101.5897023
 133.6215976 141.2006104 102.8383227 138.3596548 141.3205575 112.3270049
 138.3485189 140.9258373 111.4550553 138.5217188 140.5871647 112.9203821
 131.2828013 143.5157391 105.1964955 132.0749305 143.1748215 104.7811255
 131.5224663 143.6252366 106.1167109 133.2418767 142.7766304  98.0682334
 134.0149643 142.2295291  97.9295210 133.5944166 143.6410553  98.2796795
 135.0803809 144.1042686 111.2749233 134.7893675 145.0088317 111.1595900
 135.7160794 144.1459214 111.9893303 136.0060016 141.4819535 107.8650593
 136.6023589 141.2575557 107.1507556 136.0634988 140.7404280 108.4676041
 135.5785045 138.9358970  95.7000784 135.8310565 138.4140491  94.9384247
 134.6409604 138.7725116  95.8027468 140.6228327 137.9394749 103.5075527
 141.4091417 137.5214172 103.1565944 140.8867032 138.8440841 103.6757176
 140.7938405 143.3767599  98.2064184 140.1584238 143.4502225  98.9185089
 140.4635811 143.9661198  97.5283263 146.0236755 137.8769982 104.4108506
 146.7561927 137.3069199 104.6446335 145.2676110 137.4891582 104.8515011
 135.2981333 140.8387076  97.9025159 135.1817592 140.1631979  98.5706243
 135.4083593 140.3519450  97.0857312 137.6412874 140.2997223 101.6071848
 137.2771082 139.7727844 102.3184770 138.4979990 139.9095692 101.4338334
 143.5462175 131.5891556 108.8703114 143.2145500 132.4586967 108.6464329
 142.9507788 131.2727840 109.5497145 137.2818361 135.3287123  96.6033197
 137.4492764 136.1967359  96.9703668 137.0915530 135.4914405  95.6794486
 140.0393695 143.7904102 108.2699027 139.7394418 144.6929141 108.1614834
 139.6944754 143.5236285 109.1220180 133.4906176 140.2417899 104.3035731
 132.5656672 140.1094113 104.5113423 133.7390589 141.0212118 104.8005674
 143.4390838 136.3086642 105.9496464 142.5307716 136.2402050 105.6555225
 143.3878434 136.7858587 106.7778290 137.2607582 137.7844780  97.5879863
 137.1407207 138.2301831  98.4265344 136.5660171 138.1330098  97.0293402
 130.8514987 139.8851172 105.1379520 130.9807368 140.1385651 106.0518932
 130.1712438 140.4778880 104.8184176 137.5131704 137.7276288 113.8931362
 136.7365038 138.2870208 113.8834226 138.1522267 138.2133071 114.4146232
 145.3052485 134.5103080 107.7274338 144.6626865 134.8035614 107.0814133
 144.8007413 134.3956001 108.5327535 142.9592648 138.2566254  98.4160198
 143.8710504 138.4893640  98.2407895 142.4502295 138.8403298  97.8535276
 135.7678076 140.5361741 113.4549329 136.5092761 141.0746785 113.1784152
 135.0615062 141.1628030 113.6120880 137.5964486 137.6163488 109.4255047
 138.4425681 138.0402902 109.5689696 137.5363124 136.9597113 110.1193610
 141.5662231 143.2392072 105.8073779 140.9371093 143.4037786 105.1049847
 141.1787893 143.6533682 106.5784743 140.7463931 135.2767857 111.0836221
 140.5024863 136.0309917 110.5470496 141.0223862 135.6553204 111.9183468
 142.7002394 141.8206469 109.7613486 142.9119289 142.4638229 109.0847867
 142.6532142 140.9868785 109.2935416 140.3028623 134.4324290 106.6650058
 139.4413102 134.7305543 106.9566796 140.3291058 134.6494688 105.7331091
 137.1190193 142.9766480 103.0723864 137.5828538 143.2554183 102.2828487
 136.8546991 142.0749925 102.8896955 134.0114274 142.5237962 106.0103627
 134.5815631 142.9525230 105.3721112 134.6022385 142.2420546 106.7087813
 136.0559079 139.0989633  99.8813429 136.7583122 139.5510676 100.3487356
 135.7239707 138.4573451 100.5093322 134.5039440 137.6901389 114.2564639
 133.8738101 138.3717670 114.4900035 134.3975528 137.5784471 113.3117777
 129.7984413 137.3573185 105.1830563 129.0083467 137.6130714 104.7070673
 130.2895660 138.1721523 105.2882603 131.7499158 137.7217764 102.1414039
 130.9530321 137.8336459 102.6597535 131.5224750 138.0604417 101.2754930
 137.5804826 144.2462468 110.0896554 137.6449258 144.7082875 110.9254726
 136.8715749 143.6159833 110.2178864 128.0822116 137.6103676 107.6145554
 128.3330154 138.4950686 107.8803130 128.6181664 137.4308277 106.8420645
 137.2952843 145.9130575  99.9575534 137.1598518 146.7582111 100.3860382
 137.8362656 146.1149853  99.1941468 133.7820183 131.9922155 116.6189890
 133.3887128 131.4388354 117.2937534 134.5986323 132.3032733 117.0096407
 130.7482241 143.4306013 100.5303460 131.2606761 144.2249263 100.6809024
 131.4004953 142.7332304 100.4637061 132.5577125 146.5471769 102.6126213
 132.7343754 147.4689734 102.4247197 133.3533959 146.2330189 103.0420592
 136.6988144 133.4080034 114.2110146 137.4397857 134.0087187 114.1314609
 136.9306067 132.6657672 113.6528189 131.8429482 138.5936401 112.4888376
 131.7282997 137.6921659 112.7895475 130.9874000 138.8400098 112.1373192
 133.6808441 148.0649943 108.6136555 134.2315866 147.9367007 107.8413549
 132.8419917 148.3644832 108.2631448 140.6445307 129.4361137 108.4874428
 140.3009576 130.3262779 108.4113538 141.0124269 129.2462795 107.6244013
 128.7131157 141.7594667 101.3063030 129.5506379 142.1691676 101.0896738
 128.8909425 140.8194110 101.2763224 140.6095590 139.4269748  96.9946863
 140.0942213 140.1974353  97.2335250 140.3372898 138.7534884  97.6179924
 138.1942701 134.2719449 102.0532101 137.3384297 133.8826299 101.8737740
 138.6069652 134.3511410 101.1931887 139.7241847 131.8065792 106.4523661
 139.2206643 131.7695927 105.6391466 140.0172454 132.7158535 106.5120318
 135.9684733 131.8904522 105.4589843 136.8337730 131.6947331 105.0995732
 136.0362242 131.6614874 106.3859200 140.3981893 137.2996840  98.8206644
 140.0932028 137.6142989  99.6716787 141.3512335 137.3778260  98.8633977
 138.8428325 143.4587064 100.4699598 138.3149686 142.7239823 100.1572836
 138.3415827 144.2361740 100.2239566 143.8221171 141.6536084 105.5866644
 143.1644845 142.3435345 105.6746773 144.6261570 142.0432516 105.9300631
 133.5747052 134.1206730 102.8306210 134.1490804 133.8981911 102.0979403
 134.1618035 134.1895424 103.5834811 142.6326629 140.0080457 103.6370586
 143.1458511 140.6410449 104.1392296 143.2827853 139.4081652 103.2713946
 133.9016639 136.1511191  96.8502095 133.0653952 136.4885877  97.1711370
 133.7621409 136.0160171  95.9129232 135.8769720 130.9947979 101.5581279
 135.2234132 130.6796996 100.9337894 135.8350194 130.3723719 102.2841102
 136.9880925 141.2767274  93.4734571 136.0807986 141.0456527  93.6725720
 137.4851957 140.4804893  93.6608553 139.1107460 137.4829912 105.8828927
 138.1930022 137.7044859 105.7250615 139.5267604 137.5576223 105.0240634
 139.8942508 138.8821328 101.0131607 140.6414327 139.3942725 100.7038729
 140.1634098 138.5605381 101.8736001 138.1669158 141.3779869  97.9958561
 137.2580377 141.0938901  98.0931031 138.1964242 141.7978947  97.1361868
 142.3421345 135.9178444 102.9950396 141.6044102 135.4055830 103.3260639
 142.5948119 135.4778826 102.1833673 142.4432972 128.6954696 103.5892166
 142.7491849 127.8352060 103.3018081 143.1685577 129.2872316 103.3891159
 128.7357329 139.0985383 101.9773763 128.5381728 138.5054743 101.2524830
 128.1803993 138.7937593 102.6949702 136.7154052 138.9908489 104.0968357
 136.7702662 138.0382326 104.0210833 135.9045254 139.1467928 104.5809655
 137.8645246 142.9188612  95.3346640 137.4264676 142.2024471  94.8752277
 138.6055687 143.1464727  94.7731731 134.6546412 137.6085549 101.8558735
 133.8414278 137.9079720 102.2623928 135.1505406 137.2141238 102.5733218
 136.8054990 147.6043306 103.7893000 136.7631169 147.8304152 102.8601532
 137.7217689 147.3706681 103.9378801 140.2520624 138.0727373 110.6873629
 140.6070012 138.2998847 111.5468095 140.8992755 138.4045750 110.0650885
 145.9818361 141.1945809 101.3922958 145.8436259 141.3847405 100.4644148
 145.6254580 141.9565192 101.8491010 134.1460487 135.1803905 107.4719970
 134.7859866 135.0392664 106.7742934 133.3138017 134.8938418 107.0958572
 134.9220791 144.4806335 103.5854963 135.7161389 143.9856655 103.3837538
 134.2112483 143.9524198 103.2222668 131.2303554 138.6249417  99.6614716
 130.3001142 138.5633872  99.8784678 131.3261026 138.1025369  98.8651357
 131.1489103 135.1504230 102.2492957 131.4095921 136.0649563 102.1402118
 131.9706276 134.6828672 102.3989570 132.6214029 136.5641987 109.4191782
 133.2937082 136.3559349 108.7704431 131.7943815 136.3664073 108.9797014
 138.5239601 133.1903928 111.4357443 137.8767516 133.8893877 111.3421919
 139.2940616 133.6240072 111.8033691 138.7003735 141.0284693 109.4954262
 139.6295795 141.1795852 109.3223230 138.2794765 141.1168713 108.6402909
 137.4992067 145.0535357 107.2652800 137.3603152 144.6854141 108.1378738
 136.7106663 145.5682996 107.0936758 139.0497282 144.4316960 104.6541638
 138.7147115 144.3917730 105.5499288 138.5501228 143.7661676 104.1812048
 133.0241526 139.8384590 110.1794219 132.8861324 139.1064828 110.7805758
 133.9346449 139.7493490 109.8978407 141.9856474 141.7772994  94.9278697
 141.3685644 141.0519822  94.8311750 141.5172962 142.5382354  94.5845772
 135.6523827 139.5504549 109.6677899 136.3623445 138.9097741 109.6264517
 135.6093135 139.8017444 110.5904079 134.3652761 136.5369767 111.4873538
 133.8290118 136.0860505 112.1395134 133.7769469 136.6715676 110.7444002
 133.7755019 135.9958418  94.0500002 132.8984486 135.8747219  93.6862248
 134.2512773 135.2044497  93.7978890 125.2957160 140.7835578 104.1441509
 125.9828199 140.4697308 103.5562524 125.1405288 141.6876943 103.8708760
 130.0991882 135.6725775 108.5726533 130.0150070 135.0651444 107.8376942
 129.2774588 136.1634793 108.5736029 140.2715596 134.1579338 103.9396728
 140.7684295 133.4049300 103.6197798 139.5002577 134.1943655 103.3739937
 141.3545376 142.9151025 101.5135151 140.4201655 143.0352488 101.3439855
 141.5322045 142.0123492 101.2495161 136.8550564 136.2996721 103.6668412
 136.4848352 135.7467761 104.3549318 137.3509657 135.6954855 103.1143412
 144.7417928 138.7568345 102.0485185 145.2078380 139.5896336 101.9745488
 145.1925428 138.2913326 102.7530444 134.6839763 146.7594216 110.7623430
 135.3849222 147.3930699 110.9152824 134.2134878 147.1008948 110.0019069
 142.7134590 131.1248932 106.0876086 141.7997670 131.3553158 106.2558293
 143.1427692 131.2087376 106.9390119 142.4841049 139.3138824 108.5875981
 141.8312499 139.5614731 107.9328433 142.8621429 138.5002962 108.2538458
 130.2807481 146.2930571 107.6954533 130.8660918 145.5474259 107.8282437
 130.0832319 146.6034528 108.5791197 133.1346136 149.3281819 102.7116975
 132.4656511 149.8127946 102.2281015 132.9959006 149.5751039 103.6260354
 124.8725136 138.8636171 106.4158976 124.9109235 138.3299762 107.2096094
 124.3665429 138.3371377 105.7969953 132.2515898 133.7100712 109.9121518
 132.3157225 134.5715543 109.4998916 132.1883018 133.0974714 109.1793877
 131.7268171 135.7823844 113.5594553 132.3540209 135.4000922 114.1732077
 130.8696089 135.5638046 113.9250245 128.5033713 137.5900274  99.4912907
 128.7987154 136.6810952  99.4379961 127.6021749 137.5688013  99.1693910
 132.0327960 135.6656270 105.4740456 131.3114546 136.2792238 105.3347929
 132.8221216 136.2014035 105.3957102 134.8354274 133.0010697 111.7481108
 135.3588676 133.2472993 112.5107417 134.6166607 133.8330731 111.3284245
 130.2321555 135.2714371  99.6152233 129.9034261 134.3911750  99.4327338
 130.5860926 135.2162040 100.5028622 133.3463378 135.5587341  99.9827710
 133.6859451 136.0873262  99.2606319 133.7935499 135.8967747 100.7586277
 136.0406819 133.9424392 109.4330778 135.7003639 133.1432205 109.8351458
 135.3345825 134.2426103 108.8607611 136.6923291 131.0273704 107.8858101
 137.5149360 130.5534182 107.7636992 136.9361354 131.8064188 108.3856788
 135.3331525 134.0561963  98.1821003 136.0539888 134.4343215  97.6784720
 134.7096829 134.7750839  98.2855981 139.4762648 134.7607112  99.1179335
 139.6926262 135.6431749  98.8168163 138.9956715 134.3693325  98.3884977
 134.2161869 137.7192825 105.6950080 134.0706450 138.0333128 106.5874361
 133.7387073 138.3377725 105.1420979 136.0758252 134.7095373 105.7430969
 136.0619821 133.8136466 105.4063267 136.7930680 134.7166036 106.3769255
 137.9284383 135.1432713 107.7884097 137.6702161 136.0649784 107.7868427
 137.3969423 134.7463147 108.4784561 128.6907532 140.2598169 108.6337741
 128.1461000 141.0357977 108.7658015 129.5686881 140.6068974 108.4756863
 135.4795148 133.5909753 101.0118540 135.6011059 132.6626399 101.2109427
 135.1897191 133.6048439 100.0996855 138.3486339 131.2764663 104.1485259
 138.3708035 131.3403997 103.1937239 138.7654398 130.4369172 104.3425766
 129.4773553 139.3868065 111.5267898 128.7355290 139.5350701 112.1132528
 129.1566298 139.6476331 110.6634647 129.9230167 147.2733494 103.5578293
 130.7488187 146.9737266 103.1776936 129.5724219 146.5041117 104.0068081
 134.8911700 146.6259962 105.6275966 134.2691710 145.9630667 105.3278194
 135.5616567 146.6521094 104.9449614 128.1238772 145.1919821 104.5167226
 127.2870681 144.7641995 104.3351227 128.0962418 145.3852264 105.4538017
 134.9636228 135.1041750 115.2208472 135.0124383 135.9803873 114.8386242
 135.5058742 134.5619143 114.6480115 134.4525207 145.1763886  99.1034427
 134.6013328 145.8599350  98.4501099 135.2591651 145.1568976  99.6183882
 137.1935516 135.8573123 111.9754831 136.3238826 136.1506689 111.7037419
 137.4294997 136.4413568 112.6962094 145.3194334 140.0404896 110.5264417
 145.7948455 140.2332542 109.7183269 144.3959899 140.0964082 110.2807801
 132.2077840 141.2029063 100.1095496 131.9623882 140.2991393 100.3075706
 132.3773755 141.2046214  99.1674974 139.8974550 132.0752740 109.4920251
 140.4156494 132.8113767 109.1666740 139.5429683 132.3816733 110.3267010
 131.4773488 136.9357421  97.6081657 130.7842733 137.0101776  96.9521693
 131.2325240 136.1717765  98.1303174 140.1487144 128.4953022 105.0121148
 140.4288898 127.8276211 105.6381574 140.9337751 128.6882118 104.4995812
 144.0196003 136.9170656 108.7592723 144.9713426 137.0168754 108.7804947
 143.8499453 136.1248925 109.2690807 142.0410382 134.0026239 108.9452124
 141.4460314 134.2831252 108.2498612 141.7560079 134.4920140 109.7168865
 146.4984080 140.1376776 107.8735023 146.4660401 139.1992777 108.0594706
 147.1084704 140.2160813 107.1400847 138.3367411 139.0072829  93.9162227
 139.2826516 138.8779037  93.9850645 137.9581656 138.2687491  94.3931655
 146.6478569 136.9287819 107.9193306 146.1317618 136.1446276 107.7323235
 147.5318517 136.6006536 108.0839825 144.3089296 130.6728835 103.8789118
 144.1114117 130.3643923 104.7632450 144.9189001 131.3990474 104.0087048
 136.5210328 136.9322805  93.8517112 135.6141784 136.6355918  93.9279825
 136.7986309 136.6352623  92.9851398 127.4388269 138.2529169 104.3016158
 127.1191053 137.3994477 104.0090532 126.8921697 138.4677747 105.0574126
 131.2168176 140.9691610 108.0185665 131.4354186 141.9008718 108.0373699
 131.6293950 140.6099584 108.8040469 138.1372394 131.4759695 100.0061353
 137.3273122 131.1306780 100.3816599 138.8256811 131.1667239 100.5948965
 140.0662942 130.5537742 101.6285650 140.6193981 130.9733195 102.2875673
 140.3033029 129.6273490 101.6708606 135.2909113 133.7909741  93.9929091
 136.1528277 134.1164639  94.2524908 135.4759457 133.0041236  93.4802157
 127.3076529 141.8732080 106.2709280 126.6140000 141.4586033 105.7579234
 128.0549520 141.9152617 105.6742699 143.4441750 132.6638267 101.1364314
 142.8640419 133.3223071 100.7542366 143.1777682 131.8415612 100.7251732
 141.8945316 132.0643325 103.3385634 142.3945094 132.1759859 102.5299953
 142.5380924 131.7604378 103.9786443 129.2213271 141.8050334 104.1475295
 129.1983959 141.9038021 103.1957178 129.5313908 142.6515485 104.4692461
 131.8800649 143.8626489 108.2621909 132.8343903 143.8310431 108.1951841
 131.6813173 143.4017113 109.0772135 132.4700031 142.4327605 110.8292707
 133.2892920 142.9271684 110.8527544 132.7436839 141.5159573 110.8010274
 142.2266628 134.8238357 100.1920662 141.3392483 135.1088008  99.9740857
 142.6420617 134.6632121  99.3447939 145.5781164 134.8484878 103.9075002
 146.3541554 135.3381331 104.1799618 144.8529298 135.2742933 104.3646871
 148.0153722 135.5612498 104.9648942 148.6098213 135.3208234 104.2542250
 148.0880306 134.8419628 105.5922478 130.2350878 149.4046109 105.2792107
 130.1005346 148.6446509 104.7130105 129.8182940 150.1287008 104.8120896
 142.2007651 140.3392893 100.4070952 142.1442853 140.7961445  99.5678585
 142.7535994 139.5783578 100.2293795 146.0112457 136.1282625 101.2321072
 145.7549391 135.7279261 102.0629280 145.3865325 136.8426419 101.1071211
 142.9342431 141.5297675  97.7023482 142.8791234 141.3641946  96.7611926
 142.3088486 142.2373707  97.8585671 127.7234946 136.7665739 111.5284904
 128.3693809 136.2564693 112.0172129 127.5152097 137.5034421 112.1028329
 136.2438556 131.0305784  97.2808800 136.2317226 131.9747623  97.4377071
 137.1361978 130.8475929  96.9868261 140.0590676 127.6248560 101.5354737
 139.2923071 127.0707047 101.6811419 140.4701380 127.6970429 102.3968888
 132.0632437 133.9133356 115.6259918 132.9263898 133.5570161 115.8363243
 131.4897847 133.5747251 116.3135322  54.3537024  -5.4129924  93.1567626
  54.9915434  -5.5323177  92.4530966  54.2357867  -4.4649080  93.2155578
  51.1626731  -5.4602496  93.0929150  50.8245242  -5.5761431  92.2049685
  52.0316499  -5.8611331  93.0730157  47.0213546  -3.6067020  89.0826041
  46.4578411  -3.6977083  88.3142329  46.9065941  -4.4267115  89.5628534
  51.6446514  -4.3067644  99.0515356  51.6335154  -4.7014846  98.1795860
  51.8067153  -5.0401572  99.6449127  44.5677978  -2.1115828  91.9210262
  45.3599270  -2.4525003  91.5056561  44.8074628  -2.0020853  92.8412415
  52.6013105   0.0603948  84.3940506  51.9501085   0.6458028  84.0074520
  53.3957468   0.5910143  84.4535544  46.5268732  -2.8506915  84.7927641
  47.2999608  -3.3977928  84.6540516  46.8794131  -1.9862665  85.0042102
  48.3653775  -1.5230533  97.9994540  48.0743641  -0.6184902  97.8841206
  49.0010759  -1.4814005  98.7138610  49.2909982  -4.1453684  94.5895900
  49.8873554  -4.3697662  93.8752863  49.3484953  -4.8868939  95.1921347
  48.8635010  -6.6914249  82.4246091  49.1160531  -7.2132727  81.6629554
  47.9259569  -6.8548103  82.5272774  53.9078293  -7.6878470  90.2320834
  54.6941382  -8.1059047  89.8811251  54.1716997  -6.7832378  90.4002482
  54.0788370  -2.2505620  84.9309491  53.4434203  -2.1770993  85.6430395
  53.7485777  -1.6612021  84.2528570  59.3086720  -7.7503237  91.1353812
  60.0411892  -8.3204020  91.3691642  58.5526076  -8.1381637  91.5760318
  48.5831299  -4.7886143  84.6270466  48.4667557  -5.4641239  85.2951550
  48.6933559  -5.2753769  83.8102619  50.9262840  -5.3275996  88.3317155
  50.5621047  -5.8545375  89.0430076  51.7829956  -5.7177527  88.1583640
  50.5668327 -10.2986096  83.3278503  50.7342729  -9.4305859  83.6948974
  50.3765496 -10.1358814  82.4039793  53.3243660  -1.8369117  94.9944334
  53.0244383  -0.9344078  94.8860141  52.9794719  -2.1036934  95.8465487
  46.7756141  -5.3855320  91.0281038  45.8506638  -5.5179106  91.2358730
  47.0240555  -4.6061101  91.5250980  56.7240804  -9.3186577  92.6741771
  55.8157681  -9.3871168  92.3800532  56.6728399  -8.8414632  93.5023596
  50.5457548  -7.8428438  84.3125170  50.4257173  -7.3971388  85.1510650
  49.8510136  -7.4943121  83.7538708  44.1364952  -5.7422047  91.8624827
  44.2657334  -5.4887568  92.7764239  43.4562404  -5.1494339  91.5429482
  48.3064440   4.9275203  87.9615301  48.2288469   5.8783028  88.0403782
  47.7026083   4.5821076  88.6190228  50.7981669  -7.8996931 100.6176668
  50.0215003  -7.3403011 100.6079533  51.4372232  -7.4140148 101.1391538
  56.2442614  -7.3706965  85.1405504  57.1560470  -7.1379578  84.9653202
  55.7352261  -6.7869921  84.5780583  49.0528042  -5.0911478 100.1794635
  49.7942726  -4.5526434  99.9029459  48.3465027  -4.4645189 100.3366187
  54.5283381  -2.9482337  98.7766797  54.9366737  -3.3899927  98.0321429
  53.8060643  -3.5229710  99.0300990  50.8814451  -8.0109731  96.1500354
  51.7275647  -7.5870317  96.2935003  50.8213089  -8.6676106  96.8438917
  54.8512196  -2.3881147  92.5319086  54.2221058  -2.2235433  91.8295153
  54.4637858  -1.9739537  93.3030050  58.7301428  -1.4526709  89.8863449
  58.0452466  -1.0727808  89.3360483  58.8145277  -0.8431382  90.6195397
  54.0313897 -10.3505362  97.8081527  53.7874829  -9.5963302  97.2715803
  54.3073827  -9.9720015  98.6428774  55.9852360  -3.8066750  96.4858793
  56.1969255  -3.1634990  95.8093174  55.9382108  -4.6404433  96.0180723
  53.5878588 -11.1948929  93.3895365  52.7263068 -10.8967676  93.6812103
  53.6141023 -10.9778530  92.4576398  50.4040158  -2.6506739  89.7969171
  50.8678503  -2.3719036  89.0073793  50.1396956  -3.5523294  89.6142261
  47.2964239  -3.1035257  92.7348934  47.8665596  -2.6747989  92.0966418
  47.8872351  -3.3852672  93.4333120  49.3409044  -6.5283586  86.6058736
  50.0433087  -6.0762543  87.0732662  49.0089672  -7.1699767  87.2338629
  47.7889405  -7.9371830 100.9809945  47.1588066  -7.2555549 101.2145342
  47.6825493  -8.0488748 100.0363083  57.0998187  -0.9294794  94.6581150
  57.9215631  -1.3314607  94.3763832  57.0960590  -1.0326560  95.6097266
  50.8654791  -1.3810751  96.8141861  50.9299223  -0.9190344  97.6500033
  50.1565715  -2.0113386  96.9424171  65.1904181  -4.5856046  91.0066122
  64.4367889  -5.1548648  90.8510126  65.3251722  -4.6193381  91.9536756
  50.5802809   0.2857356  86.6820841  50.4448483   1.1308892  87.1105689
  51.1212621   0.4876634  85.9186775  44.0332206  -2.1967206  87.2548766
  44.5456727  -1.4023955  87.4054331  44.6854919  -2.8940915  87.1882368
  45.8427091   0.9198551  89.3371519  46.0193719   1.8416515  89.1492503
  46.6383924   0.6056970  89.7665899  52.2071285   0.9080923 100.8121183
  51.7635139   0.1217301 100.4942088  52.8688499   1.0960073 100.1465074
  46.9658406   2.4376724  95.3381862  47.5165831   2.3093788  94.5658856
  46.1269882   2.7371613  94.9876754  54.3052523   1.1883723  98.8402584
  54.2870998   2.0092604  98.3482854  55.2272443   1.0637798  99.0652726
  50.7625577  -1.2972148  99.6826093  51.2953914  -2.0583860  99.4525401
  50.2339658  -1.5898496 100.4250247  41.9981123  -3.8678551  88.0308337
  42.8356345  -3.4581543  87.8142044  42.1759390  -4.8079109  88.0008531
  53.8945555  -6.2003471  83.7192170  53.3792178  -5.4298866  83.9580557
  53.6222863  -6.8738335  84.3425231  51.4792666 -11.3553770  88.7777408
  50.6234262 -11.7446920  88.5983047  51.8919618 -11.2761809  87.9177194
  58.8679829  -3.4471116  85.6545343  58.0909272  -3.7859957  85.2100505
  59.5471310  -3.4418493  84.9800308  53.6831858  -8.3276379  85.5451951
  53.3781994  -8.0130229  86.3962094  54.6362300  -8.2494959  85.5879284
  52.1278290  -2.1686155  87.1944905  51.5999651  -2.9033396  86.8818142
  51.6265793  -1.3911479  86.9484873  57.1071136  -3.9737135  92.3111951
  56.4494810  -3.2837873  92.3992080  57.9111535  -3.5840703  92.6545937
  55.9176595  -5.6192762  90.3615893  56.4308476  -4.9862770  90.8637603
  56.5677819  -6.2191567  89.9959253  50.2730890  -4.3505945  80.1979878
  49.3657952  -4.5816692  80.3971027  50.7701922  -5.1468326  80.3853859
  53.1798969   4.3591562  83.1176564  52.5060668   4.6623259  83.7261522
  53.5664791   5.1620643  82.7682021  52.3957426  -8.1443307  92.6074233
  51.4779987  -7.9228360  92.4495921  52.8117569  -8.0696996  91.7485941
  53.1792473  -6.7451891  87.7376914  53.9264292  -6.2330494  87.4284036
  53.4484063  -7.0667838  88.5981307  51.4519123  -4.2493350  84.7203868
  50.5430343  -4.5334317  84.8176338  51.4814207  -3.8294272  83.8607175
  56.6838391  -0.6386761  88.4895035  56.2300718  -1.4795851  88.5460226
  56.0532358  -0.0025362  88.8269816  55.6271310  -9.7094775  89.7195703
  54.8894067 -10.2217388  90.0505945  55.8798084 -10.1494393  88.9078980
  55.1271330   1.1989736  89.4244854  55.4194305   1.7594793  88.7057219
  55.6369951   1.4918297  90.1798013  50.0004018  -6.6364730  90.8213663
  50.0552627  -7.5890893  90.7456140  49.1895220  -6.4805290  91.3054962
  51.1495211  -2.7084606  82.0591946  50.7114641  -3.4248748  81.5997584
  51.8905652  -2.4808492  81.4977038  47.9396377  -8.0187670  88.5804042
  47.1264243  -7.7193499  88.9869234  48.4355372  -8.4131981  89.2978524
  50.0904955   1.9770087  90.5138307  50.0481134   2.2030933  89.5846839
  51.0067654   1.7433462  90.6624108  53.5370589  -7.5545845  97.4118936
  53.8919977  -7.3274372  98.2713402  54.1842720  -7.2227469  96.7896191
  59.2668326  -4.4327409  88.1168265  59.1286225  -4.2425813  87.1889454
  58.9104545  -3.6708027  88.5736316  59.2937706  -2.3650882  93.1279537
  59.7274212  -2.4575593  93.9762591  60.0069286  -2.3893382  92.4899553
  48.2070756  -1.1466884  90.3100270  49.0011355  -1.6416564  90.1082845
  47.4962448  -1.6749021  89.9467975  53.0265601   1.2351212  94.6612637
  53.0802623   1.8042148  95.4290353  52.1580382   1.4053097  94.2966674
  60.1553255  -2.3227182  95.6612422  60.3489145  -1.4181371  95.9071697
  60.0553873  -2.7819763  96.4951007  51.8089566 -12.4369291  98.1602749
  51.1617481 -11.7379342  98.0667226  52.5790581 -12.0033147  98.5278997
  55.2168364  -2.1720439 101.2353303  55.0653870  -2.4009887 100.3183386
  55.2073043  -1.2149838 101.2484648  51.9853700  -4.5988526  96.2199569
  52.9145760  -4.4477367  96.0468536  51.5644730  -4.5104506  95.3648216
  50.7842032  -0.5737862  93.9898107  50.6453118  -0.9419077  94.8624045
  49.9956628  -0.0590222  93.8182064  51.3790184   4.5271235  85.3323643
  51.5541940   4.0559278  86.1469266  50.6922972   5.1537001  85.5604904
  52.3347247  -1.1956259  91.3786944  51.9997080  -1.2355489  92.2744594
  51.8351193  -1.8611543  90.9057355  46.3091491  -5.7888629  96.9039526
  46.1711289  -6.5208390  97.5051065  47.2196415  -5.8779729  96.6223713
  55.2706439  -3.8500225  81.6524004  54.6535610  -4.5753397  81.5557057
  54.8022927  -3.0890865  81.3091078  48.9373792  -6.0768670  96.3923205
  49.6473410  -6.7175478  96.3509824  48.8943100  -5.8255775  97.3149386
  56.9260571   0.8598684  99.3129784  56.8673117   0.1757904  98.6460367
  57.3280089   1.6017674  98.8610410  45.9451269   7.6760597  92.1063503
  46.1847868   8.3079122  92.7842522  45.1020466   7.3248637  92.3928863
  56.9277978  -1.1761733  97.5443764  56.0404757  -1.5135811  97.6670163
  57.4976529  -1.9078701  97.7812530  50.4579131   3.4839720  94.5105007
  50.3849303   4.2894691  95.0224312  50.0156524   3.6831686  93.6853029
  50.2468911   2.7211490  88.0207829  49.4636433   3.2633170  88.1146053
  50.9461656   3.2385469  88.4202070  53.5565561 -11.4693881  90.6642034
  54.0534260 -12.2223918  90.3443104  52.7852542 -11.4329564  90.0985244
  61.4095318  -5.7653515  92.3060326  61.3985195  -4.8828800  91.9354259
  60.5412698  -6.1181964  92.1114863  52.9177815   3.3826554  96.6663166
  53.6305787   4.0174019  96.5939067  52.4267843   3.4790420  95.8503168
  54.6395342  -2.7122193  88.2380458  53.7051620  -2.5920731  88.0685162
  54.8172010  -3.6149727  87.9740467  50.1400530  -9.3276498  90.3913719
  49.7698317  -9.8805457  91.0794624  50.6359622  -9.9318364  89.8388719
  58.0267893  -6.8704874  88.7730492  58.4928345  -6.0376883  88.6990794
  58.4775394  -7.3359893  89.4775750  47.9689728   1.1320997  97.4868737
  48.6699188   1.7657480  97.6398131  47.4984843   1.4735729  96.7264376
  56.0944124  -0.5261053  85.7716644  56.3703968  -0.6404458  86.6810518
  55.2248623  -0.9243568  85.7328817  55.7691014  -6.3134395  95.3121287
  55.1162464  -6.0658488  94.6573740  56.1471394  -7.1270257  94.9783764
  52.7298188   3.7225298  89.4149457  52.9120583   2.9046954  89.8777210
  53.5531174   3.9392990  88.9774347  53.0640354   2.6493483  86.6764506
  53.5928120   2.1385938  86.0634668  53.3268573   2.3336013  87.5410039
  51.8178587  -5.5714584 101.7987324  51.1419224  -5.6720455 102.4689699
  52.6406221  -5.7275370 102.2623321  43.5657446   0.6657352  94.4199839
  44.1510883  -0.0798960  94.5527744  43.3682285   0.9761309  95.3036503
  46.4196102   3.7008600  89.4362282  45.7506477   4.1854727  88.9526322
  46.2808971   3.9477820  90.3505660  50.5601370   5.7352343  96.0344940
  51.1119678   5.8983965  96.7994025  50.9007564   6.3256781  95.3624965
  55.4112244   0.5613601 101.8893595  55.9552148   1.1743559 101.3948549
  54.8299089   1.1193179 102.4060608  53.6969757   3.6834319  93.0208622
  53.5720897   2.8824059  92.5119568  54.3548849   4.1780512  92.5322592
  55.7604666   1.4843339  94.6488172  54.8135001   1.3648690  94.5766499
  56.1087439   0.5965837  94.7314434  52.7651099   1.2796055  90.8492525
  52.6176062   0.3512762  91.0300095  53.5904593   1.3016146  90.3649600
  56.3685221   2.1024614  91.9357397  57.2931768   1.8967475  91.7981849
  56.2000524   1.8541015  92.8446739  52.7612613 -10.8666107  85.8424642
  52.9776228  -9.9841469  85.5413470  52.2806681 -11.2579894  85.1130284
  47.5011835  -7.9080394  92.4195387  47.3556416  -7.5940091  93.3119668
  47.0237038  -7.2895494  91.8666285  51.2134348 -10.4840506  94.5129404
  50.9552126  -9.5623435  94.5113734  50.6819389 -10.8810071  95.2029868
  56.1580537   2.6210281  87.2919489  56.3317415   2.0556704  86.5393341
  56.6509428   3.4211176  87.1098979  41.9757497  -5.3675050  95.3583048
  41.4310965  -4.5915242  95.4903322  42.8536847  -5.0204245  95.2002169
  62.0119928  -4.6153296  88.9109789  62.4551074  -5.3645971  88.5128912
  61.1346439  -4.6243159  88.5283521  57.1455710   1.9377046  84.3916387
  57.8406614   2.5583738  84.6103702  57.4878860   1.0872397  84.6668765
  59.0447133  -0.6123249  85.9203718  59.5698457  -0.2735976  85.1953038
  58.9569485  -1.5476233  85.7366853  50.7067181   3.3010825  98.0493595
  51.0154308   3.0559972  98.9216294  51.5042663   3.5057463  97.5612465
  50.7287794   5.4548734  90.2798971  50.2892784   4.9625113  90.9731828
  51.4795910   4.9121702  90.0391046  43.2080132   1.6460275  90.2823599
  44.0338152   1.3464047  89.9022243  42.8574184   0.8767898  90.7313388
  48.1761666   0.9986744  92.3521273  47.5541675   0.3357449  92.0523501
  48.8466533   1.0247875  91.6694921  41.4088738  -0.4353398  91.2412533
  40.5720646  -0.8631224  91.0596534  41.3812383  -0.2420955  92.1783324
  58.7341039   0.0209655 101.2254916  57.9436583   0.0033794 100.6859415
  58.4974393   0.5597949 101.9803952  58.8538914  -3.1297879  98.5387644
  58.9036919  -3.2947871  99.4803167  58.7452837  -3.9970620  98.1485525
  47.7375173  -0.4509333  85.8279733  47.8863293   0.2326131  85.1746406
  48.5441616  -0.4704243  86.3429189  56.1442676  -7.1466951  99.8546951
  57.0452539  -7.2860486  99.5630949  56.2190651  -6.9812496 100.7945129
  50.4785482  -9.7700096  98.7000137  49.6088791  -9.4766530  98.4282726
  50.7144962  -9.1859651  99.4207401  60.3557111  -0.7100937  98.7829666
  60.0641919  -0.3470957  99.6193127  59.7429242  -1.4233929  98.6042998
  61.5552793  -3.1448057  91.3032236  62.3899684  -2.7058253  91.4669797
  61.6911922  -3.6209404  90.4840482  58.6044299  -5.5868323  97.2509724
  59.0798421  -5.3940676  96.4428575  57.6809864  -5.5309137  97.0053108
  45.4927806  -4.4244155  86.8340802  45.2473847  -5.3281825  87.0321012
  45.6623720  -4.4227005  85.8920280  51.2370578   2.0438797  83.2991481
  50.6644545   2.6628984  82.8461953  51.8103372   2.5938159  83.8331403
  57.3045968  -8.7102563  95.4838030  58.2563391  -8.6104465  95.5050254
  57.1349418  -9.5024294  95.9936114  55.3260347 -11.6246979  95.6697431
  54.7310280 -11.3441967  94.9743919  55.0410044 -11.1353078  96.4414172
  54.4567838   2.3275947  84.4300063  55.3898511   2.2621509  84.6332939
  54.3691051   3.1632214  83.9714596  57.0855855   1.6441818  81.3904011
  57.0069486   1.3101681  82.2839769  57.9065521   2.1363586  81.3895483
  59.7834046  -5.4896443  94.5980329  59.7510366  -6.4280442  94.7840013
  60.3934669  -5.4112406  93.8646154  51.6217377  -6.6200390  80.6407533
  52.5676481  -6.7494182  80.7095951  51.2431622  -7.3585728  81.1176961
  59.9328534  -8.6985399  94.6438612  59.4167583  -9.4826943  94.4568541
  60.8168483  -9.0266683  94.8085132  65.6010596  -4.4280436  93.7386366
  66.3313984  -4.6895148  94.2994069  64.9917541  -5.1651714  93.7788434
  63.6825893  -6.2872573  94.3360817  62.9559056  -6.4216609  93.7277309
  63.2673180  -5.9795745  95.1417535  51.5056069  -2.5682644 102.1008190
  52.4259079  -2.3904045 102.2948237  51.4705652  -3.5126598 101.9487890
  49.8060294  -8.6950414  80.5762419  48.8991749  -8.9917301  80.6525132
  50.0836275  -8.9920595  79.7096705  44.5018142  -4.6581609  94.7430971
  44.7204151  -3.7264501  94.7619005  44.9143916  -5.0173635  95.5285775
  49.3746007  -9.0848403 104.1333720  49.2742734  -8.1354046 104.0645811
  49.1567549  -9.4130164 103.2609790  40.5926494  -3.7541139  92.9954586
  39.8989966  -4.1687186  92.4824541  41.3399485  -3.7120602  92.3988005
  49.2377277  -5.6551265 102.9498782  48.7544359  -4.8550904 103.1562671
  49.3238216  -5.6443320 101.9966226  42.5063237  -3.8222885  90.8720601
  42.4833925  -3.7235198  89.9202484  42.8163873  -2.9757734  91.1937767
  45.1650615  -1.7646730  94.9867216  46.1193868  -1.7962787  94.9197147
  44.9663138  -2.2256106  95.8017442  45.7549997  -3.1945614  97.5538013
  46.5742886  -2.7001535  97.5772851  46.0286804  -4.1113646  97.5255581
  55.5116593 -10.8034861  86.9165969  54.6242448 -10.5185211  86.6986164
  55.9270582 -10.9641098  86.0693246  58.8631129 -10.7788340  90.6320308
  59.6391519 -10.2891888  90.9044925  58.1379263 -10.3530286  91.0892178
  43.5200843   3.7772890  92.0037414  43.3855311   3.0173291  91.4375412
  43.1032906   4.5013790  91.5366203  54.6559806  -1.0390187  81.0113989
  55.3595656  -0.8340184  81.6271645  53.9322455  -0.4713425  81.2763072
  55.4857617  -5.2880326  87.1316259  55.4292818  -4.8311774  86.2923892
  56.0385959  -6.0489641  86.9539102  59.2962423  -9.4990594  87.9566379
  59.0399357  -9.8993958  88.7874586  58.6715291  -8.7846800  87.8316518
  63.6074760  -6.7594520  90.4637670  63.0474318  -6.6901331  91.2369232
  63.0018264  -6.9353536  89.7437166  46.6769969   4.6742207  92.2155856
  46.5602353   5.6187639  92.1134547  45.8562415   4.3715768  92.6041655
  56.5646504  -0.6007658  83.0612449  57.3992108  -1.0326459  82.8789924
  56.4030847  -0.7725644  83.9889343  56.2192396  -4.0975544  84.4268788
  56.1641200  -4.2631273  83.4857232  55.5938451  -3.3899511  84.5830978
  53.5338303  -1.7926632 103.7522351  54.4029463  -1.6185980 103.3908986
  53.0545055  -0.9732216 103.6298080  47.7024483   5.3270469  95.4311785
  48.6051730   5.3594079  95.7478280  47.4761853   4.3970920  95.4458121
  49.4578085   4.0801455  92.0921863  48.5073716   4.0803317  91.9786236
  49.7610571   3.3334190  91.5757898  65.1930779   9.9161994  93.1567626
  65.8309189   9.7968741  92.4530966  65.0751622  10.8642837  93.2155578
  62.0020485   9.8689422  93.0929150  61.6638997   9.7530486  92.2049685
  62.8710253   9.4680587  93.0730157  57.8607301  11.7224898  89.0826041
  57.2972166  11.6314835  88.3142329  57.7459696  10.9024803  89.5628534
  62.4840268  11.0224273  99.0515356  62.4728909  10.6277072  98.1795860
  62.6460908  10.2890346  99.6449127  55.4071733  13.2176090  91.9210262
  56.1993025  12.8766914  91.5056561  55.6468383  13.3271065  92.8412415
  63.4406860  15.3895866  84.3940506  62.7894839  15.9749946  84.0074520
  64.2351222  15.9202061  84.4535544  57.3662487  12.4785003  84.7927641
  58.1393363  11.9313990  84.6540516  57.7187886  13.3429252  85.0042102
  59.2047529  13.8061385  97.9994540  58.9137395  14.7107016  97.8841206
  59.8404514  13.8477913  98.7138610  60.1303736  11.1838234  94.5895900
  60.7267308  10.9594256  93.8752863  60.1878708  10.4422979  95.1921347
  59.7028765   8.6377669  82.4246091  59.9554285   8.1159190  81.6629554
  58.7653324   8.4743814  82.5272774  64.7472047   7.6413447  90.2320834
  65.5335137   7.2232871  89.8811251  65.0110752   8.5459540  90.4002482
  64.9182125  13.0786298  84.9309491  64.2827958  13.1520924  85.6430395
  64.5879531  13.6679897  84.2528570  70.1480474   7.5788681  91.1353812
  70.8805646   7.0087897  91.3691642  69.3919830   7.1910281  91.5760318
  59.4225053  10.5405775  84.6270466  59.3061311   9.8650678  85.2951550
  59.5327313  10.0538149  83.8102619  61.7656594  10.0015922  88.3317155
  61.4014801   9.4746543  89.0430076  62.6223710   9.6114391  88.1583640
  67.6705895   1.2910255  95.5948421  67.3389220   2.1605666  95.3709636
  67.0751508   0.9746539  96.2742451  61.4062081   5.0305822  83.3278503
  61.5736484   5.8986058  83.6948974  61.2159250   5.1933103  82.4039793
  64.1637414  13.4922801  94.9944334  63.8638137  14.3947839  94.8860141
  63.8188474  13.2254984  95.8465487  57.6149896   9.9436598  91.0281038
  56.6900392   9.8112812  91.2358730  57.8634309  10.7230817  91.5250980
  67.5634558   6.0105341  92.6741771  66.6551435   5.9420749  92.3800532
  67.5122154   6.4877286  93.5023596  61.3851302   7.4863479  84.3125170
  61.2650927   7.9320530  85.1510650  60.6903890   7.8348797  83.7538708
  54.9758707   9.5869871  91.8624827  55.1051088   9.8404350  92.7764239
  54.2956158  10.1797579  91.5429482  59.1458194  20.2567121  87.9615301
  59.0682224  21.2074946  88.0403782  58.5419838  19.9112994  88.6190228
  61.6375424   7.4294986 100.6176668  60.8608758   7.9888907 100.6079533
  62.2765987   7.9151769 101.1391538  69.4296205   4.2121779  94.4519645
  68.7870585   4.5054312  93.8059439  68.9251133   4.0974700  95.2572842
  67.0836368   7.9584952  85.1405504  67.9954224   8.1912339  84.9653202
  66.5746015   8.5421997  84.5780583  59.8921796  10.2380440 100.1794635
  60.6336481  10.7765484  99.9029459  59.1858782  10.8646729 100.3366187
  65.3677136  12.3809580  98.7766797  65.7760492  11.9391991  98.0321429
  64.6454397  11.8062208  99.0300990  61.7208206   7.3182187  96.1500354
  62.5669401   7.7421601  96.2935003  61.6606844   6.6615811  96.8438917
  65.6905950  12.9410771  92.5319086  65.0614813  13.1056485  91.8295153
  65.3031613  13.3552380  93.3030050  69.5695182  13.8765209  89.8863449
  68.8846221  14.2564110  89.3360483  69.6539032  14.4860535  90.6195397
  64.8707651   4.9786555  97.8081527  64.6268583   5.7328616  97.2715803
  65.1467582   5.3571903  98.6428774  66.8246114  11.5225168  96.4858793
  67.0363009  12.1656928  95.8093174  66.7775862  10.6887484  96.0180723
  64.4272343   4.1342988  93.3895365  63.5656822   4.4324242  93.6812103
  64.4534778   4.3513387  92.4576398  61.2433912  12.6785179  89.7969171
  61.7072258  12.9572882  89.0073793  60.9790710  11.7768624  89.6142261
  58.1357993  12.2256661  92.7348934  58.7059351  12.6543929  92.0966418
  58.7266105  11.9439245  93.4333120  60.1802798   8.8008331  86.6058736
  60.8826842   9.2529375  87.0732662  59.8483427   8.1592150  87.2338629
  58.6283160   7.3920088 100.9809945  57.9981821   8.0736369 101.2145342
  58.5219248   7.2803170 100.0363083  53.9228132   7.0591884  91.9075869
  53.1327186   7.3149413  91.4315980  54.4139380   7.8740222  92.0127910
  67.9391942  14.3997123  94.6581150  68.7609386  13.9977310  94.3763832
  67.9354345  14.2965357  95.6097266  55.8742878   7.4236463  88.8659346
  55.0774041   7.5355158  89.3842842  55.6468470   7.7623115  88.0000237
  61.7048545  13.9481166  96.8141861  61.7692978  14.4101574  97.6500033
  60.9959469  13.3178531  96.9424171  52.2065835   7.3122374  94.3390860
  52.4573874   8.1969384  94.6048436  52.7425384   7.1326976  93.5665952
  76.0297935  10.7435872  91.0066122  75.2761643  10.1743270  90.8510126
  76.1645476  10.7098536  91.9536756  61.4196563  15.6149274  86.6820841
  61.2842238  16.4600810  87.1105689  61.9606376  15.8168552  85.9186775
  57.9063903   1.6940854 103.3435196  57.5130848   1.1407052 104.0182841
  58.7230043   2.0051432 103.7341714  54.8725960  13.1324712  87.2548766
  55.3850481  13.9267962  87.4054331  55.5248673  12.4351002  87.1882368
  56.6820845  16.2490468  89.3371519  56.8587473  17.1708433  89.1492503
  57.4777679  15.9348888  89.7665899  60.8231864   3.1098733 100.9355453
  61.5641577   3.7105886 100.8559915  61.0549787   2.3676371 100.3773495
  55.9673202   8.2955100  99.2133683  55.8526717   7.3940357  99.5140781
  55.1117719   8.5418797  98.8618499  63.0465039  16.2372840 100.8121183
  62.6028894  15.4509219 100.4942088  63.7082253  16.4251991 100.1465074
  57.8052161  17.7668642  95.3381862  58.3559586  17.6385705  94.5658856
  56.9663637  18.0663531  94.9876754  65.1446277  16.5175640  98.8402584
  65.1264753  17.3384521  98.3482854  66.0666198  16.3929716  99.0652726
  61.6019332  14.0319770  99.6826093  62.1347668  13.2708058  99.4525401
  61.0733413  13.7393422 100.4250247  64.7689027  -0.8620164  95.2119735
  64.4253296   0.0281478  95.1358845  65.1367989  -1.0518506  94.3489320
  52.8374877  11.4613366  88.0308337  53.6750099  11.8710375  87.8142044
  53.0153145  10.5212808  88.0008531  64.7339309   9.1288447  83.7192170
  64.2185933   9.8993052  83.9580557  64.4616618   8.4553583  84.3425231
  62.3186420   3.9738148  88.7777408  61.4628017   3.5844998  88.5983047
  62.7313372   4.0530109  87.9177194  63.8485567   1.5084491  93.1768968
  63.3450363   1.4714626  92.3636773  64.1416174   2.4177234  93.2365624
  60.0928453   1.5923221  92.1835150  60.9581450   1.3966029  91.8241039
  60.1605962   1.3633573  93.1104506  69.7073583  11.8820802  85.6545343
  68.9303026  11.5431961  85.2100505  70.3865064  11.8873425  84.9800308
  64.5225613   7.0015539  85.5451951  64.2175748   7.3161688  86.3962094
  65.4756055   7.0796959  85.5879284  62.9672044  13.1605762  87.1944905
  62.4393406  12.4258522  86.8818142  62.4659547  13.9380439  86.9484873
  67.9464890  11.3554783  92.3111951  67.2888565  12.0454044  92.3992080
  68.7505290  11.7451215  92.6545937  57.6990772   3.8225429  89.5551516
  58.2734524   3.6000610  88.8224709  58.2861754   3.8914123  90.3080118
  66.7570349   9.7099156  90.3615893  67.2702231  10.3429147  90.8637603
  67.4071573   9.1100351  89.9959253  58.0260359   5.8529890  83.5747402
  57.1897671   6.1904576  83.8956676  57.8865129   5.7178869  82.6374539
  60.0013440   0.6966678  88.2826586  59.3477852   0.3815695  87.6583201
  59.9593914   0.0742418  89.0086409  61.1124645  10.9785973  80.1979878
  60.2051706  10.7475226  80.3971027  61.6095677  10.1823592  80.3853859
  64.0192723  19.6883480  83.1176564  63.3454422  19.9915177  83.7261522
  64.4058545  20.4912560  82.7682021  63.2351180   7.1848611  92.6074233
  62.3173741   7.4063558  92.4495921  63.6511324   7.2594922  91.7485941
  64.0186228   8.5840027  87.7376914  64.7658047   9.0961424  87.4284036
  64.2877817   8.2624080  88.5981307  62.2912878  11.0798568  84.7203868
  61.3824097  10.7957600  84.8176338  62.3207962  11.4997646  83.8607175
  67.5232145  14.6905157  88.4895035  67.0694472  13.8496067  88.5460226
  66.8926112  15.3266555  88.8269816  66.4665065   5.6197143  89.7195703
  65.7287822   5.1074529  90.0505945  66.7191838   5.1797525  88.9078980
  65.9665085  16.5281654  89.4244854  66.2588059  17.0886711  88.7057219
  66.4763705  16.8210215  90.1798013  66.5676692  -1.6026605  90.3137472
  66.8735569  -2.4629242  90.0263387  67.2929297  -1.0108985  90.1136466
  52.8601048   8.8004082  88.7019070  52.6625448   8.2073442  87.9770137
  52.3047712   8.4956292  89.4195009  60.8397772   8.6927188  90.8213663
  60.8946382   7.7401025  90.7456140  60.0288974   8.8486627  91.3054962
  61.9888966  12.6207311  82.0591946  61.5508396  11.9043170  81.5997584
  62.7299407  12.8483426  81.4977038  58.7790132   7.3104248  88.5804042
  57.9657997   7.6098418  88.9869234  59.2749126   6.9159937  89.2978524
  60.9298710  17.3062005  90.5138307  60.8874889  17.5322851  89.5846839
  61.8461409  17.0725379  90.6624108  64.3764344   7.7746072  97.4118936
  64.7313731   8.0017545  98.2713402  65.0236475   8.1064449  96.7896191
  70.1062081  10.8964508  88.1168265  69.9679979  11.0866104  87.1889454
  69.7498299  11.6583891  88.5736316  58.2704207   4.8822603  94.1965277
  58.9103586   4.7411362  93.4988240  57.4381737   4.5957117  93.8203879
  70.1331460  12.9641035  93.1279537  70.5667967  12.8716324  93.9762591
  70.8463041  12.9398536  92.4899553  59.0464511  14.1825034  90.3100270
  59.8405109  13.6875354  90.1082845  58.3356203  13.6542897  89.9467975
  63.8659355  16.5643129  94.6612637  63.9196377  17.1334066  95.4290353
  62.9974136  16.7345014  94.2966674  55.3547274   8.3268116  86.3860022
  54.4244862   8.2652571  86.6029984  55.4504746   7.8044068  85.5896663
  55.2732823   4.8522928  88.9738264  55.5339640   5.7668262  88.8647424
  56.0949995   4.3847371  89.1234877  56.7457748   6.2660686  96.1437088
  57.4180802   6.0578048  95.4949737  55.9187535   6.0682772  95.7042321
  70.9947010  13.0064736  95.6612422  71.1882900  13.9110546  95.9071697
  70.8947628  12.5472155  96.4951007  62.6483320   2.8922626  98.1602749
  62.0011236   3.5912576  98.0667226  63.4184336   3.3258770  98.5278997
  66.0562118  13.1571479 101.2353303  65.9047625  12.9282030 100.3183386
  66.0466798  14.1142080 101.2484648  62.8247455  10.7303391  96.2199569
  63.7539515  10.8814551  96.0468536  62.4038485  10.8187412  95.3648216
  61.6235787  14.7554056  93.9898107  61.4846872  14.3872840  94.8624045
  60.8350383  15.2701695  93.8182064  62.2183939  19.8563152  85.3323643
  62.3935694  19.3851195  86.1469266  61.5316727  20.4828918  85.5604904
  63.1741002  14.1335658  91.3786944  62.8390834  14.0936428  92.2744594
  62.6744947  13.4680374  90.9057355  57.1485246   9.5403289  96.9039526
  57.0105044   8.8083527  97.5051065  58.0590169   9.4512189  96.6223713
  66.1100193  11.4791693  81.6524004  65.4929364  10.7538521  81.5557057
  65.6416682  12.2401053  81.3091078  59.7767546   9.2523248  96.3923205
  60.4867165   8.6116440  96.3509824  59.7336855   9.5036143  97.3149386
  67.7654325  16.1890601  99.3129784  67.7066871  15.5049821  98.6460367
  68.1673843  16.9309591  98.8610410  58.4896480   6.2388466  98.2118845
  57.9533837   5.7879204  98.8640441  57.9013189   6.3734375  97.4689309
  56.7845024  23.0052515  92.1063503  57.0241622  23.6371039  92.7842522
  55.9414220  22.6540555  92.3928863  57.8998739   5.6977117  80.7745308
  57.0228206   5.5765918  80.4107555  58.3756492   4.9063195  80.5224197
  67.7671732  14.1530185  97.5443764  66.8798511  13.8156107  97.6670163
  68.3370283  13.4213216  97.7812530  49.4200879  10.4854277  90.8686815
  50.1071919  10.1716007  90.2807831  49.2649008  11.3895642  90.5954067
  54.2235602   5.3744473  95.2971839  54.1393790   4.7670143  94.5622249
  53.4018308   5.8653492  95.2981336  61.2972886  18.8131637  94.5105007
  61.2243057  19.6186609  95.0224312  60.8550279  19.0123603  93.6853029
  61.0862665  18.0503407  88.0207829  60.3030187  18.5925088  88.1146053
  61.7855411  18.5677387  88.4202070  64.3959315   3.8598037  90.6642034
  64.8928015   3.1067999  90.3443104  63.6246297   3.8962354  90.0985244
  72.2489073   9.5638402  92.3060326  72.2378949  10.4463118  91.9354259
  71.3806452   9.2109953  92.1114863  63.7571569  18.7118471  96.6663166
  64.4699541  19.3465936  96.5939067  63.2661598  18.8082337  95.8503168
  65.4789096  12.6169724  88.2380458  64.5445375  12.7371187  88.0685162
  65.6565765  11.7142191  87.9740467  60.9794284   6.0015420  90.3913719
  60.6092072   5.4486460  91.0794624  61.4753377   5.3973553  89.8388719
  68.8661647   8.4587043  88.7730492  69.3322100   9.2915035  88.6990794
  69.3169148   7.9932025  89.4775750  58.8083483  16.4612915  97.4868737
  59.5092942  17.0949398  97.6398131  58.3378598  16.8027647  96.7264376
  66.9337879  14.8030865  85.7716644  67.2097722  14.6887459  86.6810518
  66.0642377  14.4048350  85.7328817  66.8378310   0.8267630  92.8121393
  65.9241390   1.0571857  92.9803600  67.2671412   0.9106075  93.6635425
  66.6084769   9.0157522  95.3121287  65.9556219   9.2633430  94.6573740
  66.9865149   8.2021661  94.9783764  63.5691943  19.0517216  89.4149457
  63.7514337  18.2338872  89.8777210  64.3924929  19.2684908  88.9774347
  63.9034108  17.9785401  86.6764506  64.4321875  17.4677855  86.0634668
  64.1662328  17.6627931  87.5410039  62.6572342   9.7577333 101.7987324
  61.9812979   9.6571463 102.4689699  63.4799976   9.6016547 102.2623321
  54.4051201  15.9949270  94.4199839  54.9904638  15.2492958  94.5527744
  54.2076039  16.3053227  95.3036503  57.2589856  19.0300517  89.4362282
  56.5900231  19.5146645  88.9526322  57.1202726  19.2769738  90.3505660
  48.9968856   8.5654870  93.1404283  49.0352955   8.0318461  93.9341401
  48.4909148   8.0390076  92.5215260  61.3995125  21.0644261  96.0344940
  61.9513433  21.2275882  96.7994025  61.7401318  21.6548699  95.3624965
  56.3759618   3.4119411  96.6366825  56.4400944   4.2734242  96.2244223
  56.3126738   2.7993412  95.9039183  55.8511890   5.4842543 100.2839859
  56.4783929   5.1019621 100.8977384  54.9939809   5.2656745 100.6495552
  66.2505999  15.8905518 101.8893595  66.7945903  16.5035477 101.3948549
  65.6692844  16.4485097 102.4060608  52.6277433   7.2918972  86.2158214
  52.9230874   6.3829651  86.1625268  51.7265469   7.2706712  85.8939216
  64.5363512  19.0126236  93.0208622  64.4114651  18.2115976  92.5119568
  65.1942603  19.5072430  92.5322592  56.1571680   5.3674969  92.1985763
  55.4358266   5.9810937  92.0593236  56.9464936   5.9032734  92.1202409
  66.5998420  16.8135257  94.6488172  65.6528756  16.6940608  94.5766499
  66.9481193  15.9257755  94.7314434  58.9597994   2.7029395  98.4726414
  59.4832395   2.9491692  99.2352724  58.7410327   3.5349430  98.0529552
  54.3565275   4.9733070  86.3397539  54.0277981   4.0930449  86.1572645
  54.7104645   4.9180739  87.2273928  63.6044854  16.6087973  90.8492525
  63.4569816  15.6804680  91.0300095  64.4298347  16.6308063  90.3649600
  57.4707098   5.2606040  86.7073017  57.8103170   5.7891961  85.9851625
  57.9179218   5.5986446  87.4831583  67.2078975  17.4316531  91.9357397
  68.1325523  17.2259393  91.7981849  67.0394279  17.1832933  92.8446739
  60.1650539   3.6443091  96.1576085  59.8247359   2.8450904  96.5596765
  59.4589545   3.9444801  95.5852918  60.8167011   0.7292403  94.6103408
  61.6393080   0.2552881  94.4882298  61.0605074   1.5082887  95.1102094
  59.4575245   3.7580661  84.9066310  60.1783608   4.1361914  84.4030026
  58.8340549   4.4769538  85.0101288  63.6006368   4.4625810  85.8424642
  63.8169982   5.3450448  85.5413470  63.1200435   4.0712024  85.1130284
  58.3405589   7.4211524  92.4195387  58.1950170   7.7351827  93.3119668
  57.8630793   8.0396424  91.8666285  60.2001972   4.4114072  92.4676276
  60.1863541   3.5155165  92.1308574  60.9174400   4.4184735  93.1014562
  62.0528103   4.8451412  94.5129404  61.7945881   5.7668482  94.5113734
  61.5213143   4.4481846  95.2029868  66.9974292  17.9502199  87.2919489
  67.1711169  17.3848621  86.5393341  67.4903183  18.7503094  87.1098979
  52.8151251   9.9616868  95.3583048  52.2704720  10.7376676  95.4903322
  53.6930601  10.3087672  95.2002169  59.6038868   3.2928452  87.7363846
  59.7254779   2.3645098  87.9354734  59.3140910   3.3067138  86.8242162
  62.4730058   0.9783362  90.8730566  62.4951755   1.0422695  89.9182546
  62.8898118   0.1387871  91.0671072  72.8513683  10.7138622  88.9109789
  73.2944829   9.9645947  88.5128912  71.9740193  10.7048758  88.5283521
  67.9849464  17.2668963  84.3916387  68.6800369  17.8875656  84.6103702
  68.3272614  16.4164315  84.6668765  53.6017273   9.0886764  98.2513205
  52.8599009   9.2369400  98.8377835  53.2810018   9.3495030  97.3879954
  69.8840887  14.7168669  85.9203718  70.4092211  15.0555942  85.1953038
  69.7963240  13.7815684  85.7366853  61.5460936  18.6302743  98.0493595
  61.8548062  18.3851889  98.9216294  62.3436418  18.8349381  97.5612465
  61.5681548  20.7840652  90.2798971  61.1286538  20.2917031  90.9731828
  62.3189665  20.2413620  90.0391046  54.0473887  16.9752193  90.2823599
  54.8731907  16.6755965  89.9022243  53.6967939  16.2059815  90.7313388
  59.0155420  16.3278661  92.3521273  58.3935429  15.6649366  92.0523501
  59.6860287  16.3539793  91.6694921  52.2482492  14.8938519  91.2412533
  51.4114400  14.4660694  91.0596534  52.2206137  15.0870963  92.1783324
  59.0879948   4.8060449 101.9453779  59.1368103   5.6822572 101.5631548
  59.6302462   4.2637842 101.3725422  69.5734793  15.3501573 101.2254916
  68.7830337  15.3325711 100.6859415  69.3368148  15.8889866 101.9803952
  69.6932668  12.1994039  98.5387644  69.7430673  12.0344046  99.4803167
  69.5846592  11.3321298  98.1485525  58.5768927  14.8782585  85.8279733
  58.7257047  15.5618049  85.1746406  59.3835371  14.8587675  86.3429189
  66.9836431   8.1824967  99.8546951  67.8846294   8.0431432  99.5630949
  67.0584405   8.3479422 100.7945129  61.3179236   5.5591822  98.7000137
  60.4482545   5.8525388  98.4282726  61.5538716   6.1432267  99.4207401
  71.1950865  14.6190980  98.7829666  70.9035674  14.9820961  99.6193127
  70.5822996  13.9057989  98.6042998  72.3946548  12.1843860  91.3032236
  73.2293439  12.6233664  91.4669797  72.5305676  11.7082513  90.4840482
  69.4438053   9.7423595  97.2509724  69.9192175   9.9351241  96.4428575
  68.5203619   9.7982781  97.0053108  56.3321560  10.9047762  86.8340802
  56.0867602  10.0010092  87.0321012  56.5017475  10.9064913  85.8920280
  64.0218270   1.7771439  96.2165558  64.5400214   2.5132466  95.8912046
  63.6673403   2.0835432  97.0512317  55.6017208   6.6376120  84.3326964
  54.9086453   6.7120475  83.6767000  55.3568959   5.8736463  84.8548481
  64.2730864  -1.8028279  91.7366454  64.5532618  -2.4705090  92.3626881
  65.0581471  -1.6099183  91.2241118  62.0764333  17.3730715  83.2991481
  61.5038300  17.9920902  82.8461953  62.6497126  17.9230077  83.8331403
  68.1439722   6.6189355  95.4838030  69.0957145   6.7187453  95.5050254
  67.9743173   5.8267624  95.9936114  66.1654102   3.7044938  95.6697431
  65.5704034   3.9849951  94.9743919  65.8803799   4.1938839  96.4414172
  65.2961592  17.6567865  84.4300063  66.2292266  17.5913427  84.6332939
  65.2084805  18.4924132  83.9714596  67.9249609  16.9733735  81.3904011
  67.8463241  16.6393599  82.2839769  68.7459276  17.4655503  81.3895483
  70.6227800   9.8395475  94.5980329  70.5904120   8.9011476  94.7840013
  71.2328424   9.9179512  93.8646154  62.4611131   8.7091528  80.6407533
  63.4070236   8.5797736  80.7095951  62.0825376   7.9706190  81.1176961
  70.7722289   6.6306518  94.6438612  70.2561337   5.8464975  94.4568541
  71.6562237   6.3025235  94.8085132  68.4333016   0.3747534  90.6034425
  68.2357837   0.0662622  91.4877757  69.0432721   1.1009173  90.7332355
  76.4404350  10.9011482  93.7386366  77.1707739  10.6396770  94.2994069
  75.8311296  10.1640204  93.7788434  74.5219647   9.0419344  94.3360817
  73.7952811   8.9075309  93.7277309  74.1066934   9.3496173  95.1417535
  62.3449824  12.7609274 102.1008190  63.2652833  12.9387873 102.2948237
  62.3099407  11.8165319 101.9487890  60.6454048   6.6341504  80.5762419
  59.7385504   6.3374617  80.6525132  60.9230029   6.3371322  79.7096705
  51.5631989   7.9547868  91.0261465  51.2434773   7.1013176  90.7335839
  51.0165417   8.1696446  91.7819432  55.3411896  10.6710309  94.7430971
  55.5597906  11.6027416  94.7619005  55.7537670  10.3118283  95.5285775
  62.2616114   1.1778394  86.7306660  61.4516842   0.8325479  87.1061906
  62.9500531   0.8685938  87.3194271  64.1906662   0.2556441  88.3530956
  64.7437701   0.6751894  89.0120980  64.4276749  -0.6707811  88.3953912
  60.2139761   6.2443514 104.1333720  60.1136488   7.1937871 104.0645811
  59.9961304   5.9161753 103.2609790  59.4152833   3.4928439  80.7174398
  60.2771997   3.8183338  80.9770215  59.6003177   2.7059935  80.2047463
  51.4320249  11.5750779  92.9954586  50.7383720  11.1604732  92.4824541
  52.1793240  11.6171316  92.3988005  67.5685469   2.3656966  87.8609621
  66.9884138   3.0241770  87.4787673  67.3021402   1.5434310  87.4497038
  66.0189036   1.7662024  90.0630941  66.5188814   1.8778558  89.2545260
  66.6624644   1.4623076  90.7031749  60.0771032   9.6740653 102.9498782
  59.5938113  10.4741013 103.1562671  60.1631971   9.6848598 101.9966226
  53.3456991  11.5069033  90.8720601  53.3227679  11.6056720  89.9202484
  53.6557628  12.3534184  91.1937767  56.0044369  13.5645188  94.9867216
  56.9587623  13.5329130  94.9197147  55.8056893  13.1035812  95.8017442
  56.5943751  12.1346304  97.5538013  57.4136640  12.6290383  97.5772851
  56.8680559  11.2178272  97.5255581  66.3510347   4.5257056  86.9165969
  65.4636202   4.8106707  86.6986164  66.7664336   4.3650820  86.0693246
  69.7024884   4.5503577  90.6320308  70.4785274   5.0400030  90.9044925
  68.9773018   4.9761631  91.0892178  72.1397442   5.2631196  91.6894249
  72.7341933   5.0226932  90.9787557  72.2124026   4.5438327  92.3167785
  54.3594598  19.1064807  92.0037414  54.2249066  18.3465208  91.4375412
  53.9426660  19.8305707  91.5366203  65.4953561  14.2901731  81.0113989
  66.1989411  14.4951733  81.6271645  64.7716210  14.8578493  81.2763072
  66.3251371  10.0411592  87.1316259  66.2686573  10.4980144  86.2923892
  66.8779714   9.2802277  86.9539102  70.1356177   5.8301324  87.9566379
  69.8793111   5.4297960  88.7874586  69.5109045   6.5445118  87.8316518
  74.4468515   8.5697397  90.4637670  73.8868073   8.6390587  91.2369232
  73.8412018   8.3938382  89.7437166  57.5163724  20.0034124  92.2155856
  57.3996108  20.9479557  92.1134547  56.6956170  19.7007686  92.6041655
  67.4040258  14.7284260  83.0612449  68.2385862  14.2965459  82.8789924
  67.2424601  14.5566274  83.9889343  67.0586150  11.2316373  84.4268788
  67.0034954  11.0660645  83.4857232  66.4332206  11.9392406  84.5830978
  51.8478665   6.4684438  98.2530211  52.4937529   5.9583392  98.7417436
  51.6395817   7.2053119  98.8273636  64.3732058  13.5365285 103.7522351
  65.2423217  13.7105938 103.3908986  63.8938809  14.3559702 103.6298080
  60.3682276   0.7324482  84.0054107  60.3560946   1.6766322  84.1622378
  61.2605698   0.5494628  83.7113568  58.5418238  20.6562386  95.4311785
  59.4445485  20.6885997  95.7478280  58.3155608  19.7262837  95.4458121
  60.2971840  19.4093373  92.0921863  59.3467471  19.4095234  91.9786236
  60.6004326  18.6626107  91.5757898  64.1834395  -2.6732741  88.2600043
  63.4166791  -3.2274254  88.4056726  64.5945100  -2.6010872  89.1214195
  56.1876156   3.6152055 102.3505225  57.0507618   3.2588860 102.5608549
  55.6141567   3.2765950 103.0380629  76.0324533  25.2453911  93.1567626
  76.6702943  25.1260659  92.4530966  75.9145376  26.1934755  93.2155578
  72.8414240  25.1981339  93.0929150  72.5032751  25.0822404  92.2049685
  73.7104008  24.7972504  93.0730157  68.7001055  27.0516816  89.0826041
  68.1365920  26.9606753  88.3142329  68.5853450  26.2316720  89.5628534
  73.3234023  26.3516191  99.0515356  73.3122663  25.9568989  98.1795860
  73.4854662  25.6182264  99.6449127  66.2465487  28.5468007  91.9210262
  67.0386779  28.2058832  91.5056561  66.4862137  28.6562982  92.8412415
  74.2800614  30.7187783  84.3940506  73.6288594  31.3041864  84.0074520
  75.0744977  31.2493978  84.4535544  68.2056241  27.8076921  84.7927641
  68.9787117  27.2605908  84.6540516  68.5581640  28.6721170  85.0042102
  70.0441284  29.1353303  97.9994540  69.7531150  30.0398934  97.8841206
  70.6798268  29.1769830  98.7138610  70.9697491  26.5130151  94.5895900
  71.5661063  26.2886174  93.8752863  71.0272462  25.7714897  95.1921347
  70.5422519  23.9669587  82.4246091  70.7948040  23.4451108  81.6629554
  69.6047078  23.8035732  82.5272774  75.5865802  22.9705365  90.2320834
  76.3728891  22.5524788  89.8811251  75.8504506  23.8751457  90.4002482
  75.7575879  28.4078215  84.9309491  75.1221712  28.4812842  85.6430395
  75.4273286  28.9971814  84.2528570  80.9874229  22.9080598  91.1353812
  81.7199401  22.3379815  91.3691642  80.2313585  22.5202199  91.5760318
  70.2618808  25.8697693  84.6270466  70.1455066  25.1942596  85.2951550
  70.3721068  25.3830067  83.8102619  72.6050349  25.3307840  88.3317155
  72.2408556  24.8038461  89.0430076  73.4617465  24.9406309  88.1583640
  78.5099649  16.6202172  95.5948421  78.1782974  17.4897583  95.3709636
  77.9145263  16.3038456  96.2742451  72.2455836  20.3597739  83.3278503
  72.4130238  21.2277976  83.6948974  72.0553005  20.5225021  82.4039793
  75.0031169  28.8214718  94.9944334  74.7031892  29.7239757  94.8860141
  74.6582228  28.5546902  95.8465487  68.4543650  25.2728515  91.0281038
  67.5294147  25.1404729  91.2358730  68.7028064  26.0522734  91.5250980
  78.4028313  21.3397259  92.6741771  77.4945190  21.2712667  92.3800532
  78.3515908  21.8169203  93.5023596  72.2245057  22.8155397  84.3125170
  72.1044682  23.2612448  85.1510650  71.5297645  23.1640715  83.7538708
  65.8152461  24.9161789  91.8624827  65.9444843  25.1696268  92.7764239
  65.1349913  25.5089497  91.5429482  69.9851949  35.5859039  87.9615301
  69.9075978  36.5366864  88.0403782  69.3813592  35.2404911  88.6190228
  72.4769178  22.7586904 100.6176668  71.7002512  23.3180824 100.6079533
  73.1159741  23.2443687 101.1391538  80.2689959  19.5413697  94.4519645
  79.6264339  19.8346230  93.8059439  79.7644888  19.4266617  95.2572842
  77.9230123  23.2876870  85.1405504  78.8347979  23.5204257  84.9653202
  77.4139770  23.8713914  84.5780583  70.7315551  25.5672357 100.1794635
  71.4730235  26.1057401  99.9029459  70.0252536  26.1938646 100.3366187
  76.2070890  27.7101498  98.7766797  76.6154246  27.2683908  98.0321429
  75.4848152  27.1354125  99.0300990  72.5601960  22.6474105  96.1500354
  73.4063156  23.0713518  96.2935003  72.5000598  21.9907729  96.8438917
  76.5299705  28.2702689  92.5319086  75.9008567  28.4348403  91.8295153
  76.1425367  28.6844298  93.3030050  80.4088937  29.2057126  89.8863449
  79.7239975  29.5856028  89.3360483  80.4932786  29.8152453  90.6195397
  75.7101406  20.3078473  97.8081527  75.4662338  21.0620534  97.2715803
  75.9861336  20.6863821  98.6428774  77.6639868  26.8517085  96.4858793
  77.8756764  27.4948845  95.8093174  77.6169617  26.0179402  96.0180723
  75.2666097  19.4634906  93.3895365  74.4050576  19.7616160  93.6812103
  75.2928532  19.6805305  92.4576398  72.0827667  28.0077097  89.7969171
  72.5466012  28.2864800  89.0073793  71.8184465  27.1060541  89.6142261
  68.9751748  27.5548578  92.7348934  69.5453105  27.9835847  92.0966418
  69.5659860  27.2731163  93.4333120  71.0196553  24.1300249  86.6058736
  71.7220596  24.5821293  87.0732662  70.6877181  23.4884068  87.2338629
  69.4676914  22.7212006 100.9809945  68.8375575  23.4028287 101.2145342
  69.3613002  22.6095087 100.0363083  64.7621887  22.3883802  91.9075869
  63.9720941  22.6441330  91.4315980  65.2533134  23.2032140  92.0127910
  78.7785696  29.7289041  94.6581150  79.6003140  29.3269228  94.3763832
  78.7748099  29.6257275  95.6097266  66.7136632  22.7528381  88.8659346
  65.9167796  22.8647075  89.3842842  66.4862224  23.0915033  88.0000237
  72.5442300  29.2773084  96.8141861  72.6086732  29.7393491  97.6500033
  71.8353224  28.6470449  96.9424171  63.0459590  22.6414292  94.3390860
  63.2967628  23.5261302  94.6048436  63.5819138  22.4618894  93.5665952
  86.8691689  26.0727789  91.0066122  86.1155398  25.5035187  90.8510126
  87.0039231  26.0390454  91.9536756  72.2590318  30.9441192  86.6820841
  72.1235992  31.7892727  87.1105689  72.8000130  31.1460469  85.9186775
  68.7457657  17.0232772 103.3435196  68.3524603  16.4698970 104.0182841
  69.5623797  17.3343350 103.7341714  65.7119715  28.4616630  87.2548766
  66.2244235  29.2559880  87.4054331  66.3642428  27.7642920  87.1882368
  67.5214600  31.5782386  89.3371519  67.6981228  32.5000351  89.1492503
  68.3171433  31.2640805  89.7665899  71.6625618  18.4390651 100.9355453
  72.4035332  19.0397804 100.8559915  71.8943541  17.6968288 100.3773495
  66.8066956  23.6247018  99.2133683  66.6920471  22.7232275  99.5140781
  65.9511474  23.8710715  98.8618499  73.8858794  31.5664758 100.8121183
  73.4422648  30.7801137 100.4942088  74.5476007  31.7543909 100.1465074
  68.6445915  33.0960560  95.3381862  69.1953340  32.9677623  94.5658856
  67.8057391  33.3955449  94.9876754  75.9840032  31.8467558  98.8402584
  75.9658507  32.6676439  98.3482854  76.9059952  31.7221633  99.0652726
  72.4413086  29.3611688  99.6826093  72.9741423  28.5999976  99.4525401
  71.9127167  29.0685339 100.4250247  75.6082781  14.4671754  95.2119735
  75.2647050  15.3573395  95.1358845  75.9761744  14.2773411  94.3489320
  63.6768632  26.7905284  88.0308337  64.5143854  27.2002292  87.8142044
  63.8546899  25.8504726  88.0008531  75.5733064  24.4580365  83.7192170
  75.0579687  25.2284969  83.9580557  75.3010372  23.7845501  84.3425231
  73.1580175  19.3030065  88.7777408  72.3021771  18.9136916  88.5983047
  73.5707127  19.3822026  87.9177194  74.6879321  16.8376409  93.1768968
  74.1844117  16.8006544  92.3636773  74.9809928  17.7469151  93.2365624
  70.9322207  16.9215138  92.1835150  71.7975204  16.7257947  91.8241039
  70.9999716  16.6925490  93.1104506  80.5467338  27.2112719  85.6545343
  79.7696781  26.8723879  85.2100505  81.2258819  27.2165342  84.9800308
  75.3619367  22.3307457  85.5451951  75.0569503  22.6453606  86.3962094
  76.3149809  22.4088877  85.5879284  73.8065799  28.4897680  87.1944905
  73.2787160  27.7550440  86.8818142  73.3053302  29.2672356  86.9484873
  78.7858645  26.6846701  92.3111951  78.1282319  27.3745962  92.3992080
  79.5899044  27.0743132  92.6545937  68.5384526  19.1517346  89.5551516
  69.1128278  18.9292528  88.8224709  69.1255509  19.2206041  90.3080118
  77.5964104  25.0391073  90.3615893  78.1095985  25.6721065  90.8637603
  78.2465328  24.4392269  89.9959253  68.8654114  21.1821807  83.5747402
  68.0291426  21.5196494  83.8956676  68.7258883  21.0470787  82.6374539
  70.8407194  16.0258595  88.2826586  70.1871607  15.7107612  87.6583201
  70.7987668  15.4034336  89.0086409  71.9518399  26.3077890  80.1979878
  71.0445461  26.0767144  80.3971027  72.4489431  25.5115510  80.3853859
  74.8586478  35.0175398  83.1176564  74.1848177  35.3207094  83.7261522
  75.2452300  35.8204478  82.7682021  74.0744935  22.5140529  92.6074233
  73.1567496  22.7355476  92.4495921  74.4905078  22.5886839  91.7485941
  74.8579982  23.9131944  87.7376914  75.6051801  24.4253342  87.4284036
  75.1271572  23.5915997  88.5981307  73.1306632  26.4090485  84.7203868
  72.2217852  26.1249518  84.8176338  73.1601716  26.8289564  83.8607175
  78.3625900  30.0197075  88.4895035  77.9088227  29.1787985  88.5460226
  77.7319867  30.6558473  88.8269816  77.3058819  20.9489061  89.7195703
  76.5681576  20.4366447  90.0505945  77.5585593  20.5089442  88.9078980
  76.8058839  31.8573571  89.4244854  77.0981813  32.4178628  88.7057219
  77.3157460  32.1502132  90.1798013  77.4070447  13.7265313  90.3137472
  77.7129324  12.8662676  90.0263387  78.1323052  14.3182933  90.1136466
  63.6994803  24.1295999  88.7019070  63.5019203  23.5365360  87.9770137
  63.1441467  23.8248210  89.4195009  71.6791527  24.0219106  90.8213663
  71.7340136  23.0692942  90.7456140  70.8682729  24.1778545  91.3054962
  72.8282720  27.9499229  82.0591946  72.3902150  27.2335088  81.5997584
  73.5693161  28.1775344  81.4977038  69.6183886  22.6396166  88.5804042
  68.8051752  22.9390336  88.9869234  70.1142881  22.2451854  89.2978524
  71.7692464  32.6353922  90.5138307  71.7268643  32.8614769  89.5846839
  72.6855163  32.4017297  90.6624108  75.2158098  23.1037990  97.4118936
  75.5707486  23.3309463  98.2713402  75.8630229  23.4356367  96.7896191
  80.9455835  26.2256426  88.1168265  80.8073734  26.4158022  87.1889454
  80.5892054  26.9875809  88.5736316  69.1097961  20.2114521  94.1965277
  69.7497341  20.0703280  93.4988240  68.2775492  19.9249034  93.8203879
  80.9725215  28.2932953  93.1279537  81.4061721  28.2008242  93.9762591
  81.6856795  28.2690453  92.4899553  69.8858265  29.5116951  90.3100270
  70.6798864  29.0167272  90.1082845  69.1749957  28.9834815  89.9467975
  74.7053110  31.8935047  94.6612637  74.7590132  32.4625983  95.4290353
  73.8367891  32.0636932  94.2966674  66.1941029  23.6560033  86.3860022
  65.2638617  23.5944489  86.6029984  66.2898501  23.1335986  85.5896663
  66.1126578  20.1814846  88.9738264  66.3733395  21.0960179  88.8647424
  66.9343750  19.7139289  89.1234877  67.5851503  21.5952603  96.1437088
  68.2574556  21.3869965  95.4949737  66.7581289  21.3974689  95.7042321
  81.8340764  28.3356654  95.6612422  82.0276654  29.2402464  95.9071697
  81.7341382  27.8764073  96.4951007  73.4877075  18.2214544  98.1602749
  72.8404990  18.9204494  98.0667226  74.2578090  18.6550688  98.5278997
  76.8955873  28.4863396 101.2353303  76.7441379  28.2573948 100.3183386
  76.8860552  29.4433998 101.2484648  73.6641209  26.0595309  96.2199569
  74.5933269  26.2106469  96.0468536  73.2432239  26.1479330  95.3648216
  72.4629541  30.0845973  93.9898107  72.3240627  29.7164758  94.8624045
  71.6744137  30.5993613  93.8182064  73.0577693  35.1855070  85.3323643
  73.2329449  34.7143113  86.1469266  72.3710481  35.8120836  85.5604904
  74.0134756  29.4627576  91.3786944  73.6784589  29.4228346  92.2744594
  73.5138702  28.7972292  90.9057355  67.9879000  24.8695206  96.9039526
  67.8498798  24.1375445  97.5051065  68.8983924  24.7804106  96.6223713
  76.9493948  26.8083611  81.6524004  76.3323119  26.0830439  81.5557057
  76.4810436  27.5692971  81.3091078  70.6161301  24.5815166  96.3923205
  71.3260919  23.9408358  96.3509824  70.5730609  24.8328060  97.3149386
  78.6048080  31.5182519  99.3129784  78.5460626  30.8341739  98.6460367
  79.0067598  32.2601509  98.8610410  69.3290235  21.5680383  98.2118845
  68.7927592  21.1171122  98.8640441  68.7406943  21.7026292  97.4689309
  67.6238778  38.3344433  92.1063503  67.8635377  38.9662957  92.7842522
  66.7807975  37.9832473  92.3928863  68.7392494  21.0269035  80.7745308
  67.8621960  20.9057836  80.4107555  69.2150247  20.2355113  80.5224197
  78.6065487  29.4822103  97.5443764  77.7192266  29.1448025  97.6670163
  79.1764038  28.7505134  97.7812530  60.2594634  25.8146195  90.8686815
  60.9465674  25.5007925  90.2807831  60.1042763  26.7187559  90.5954067
  65.0629356  20.7036391  95.2971839  64.9787545  20.0962061  94.5622249
  64.2412062  21.1945409  95.2981336  72.1366640  34.1423555  94.5105007
  72.0636812  34.9478527  95.0224312  71.6944033  34.3415521  93.6853029
  71.9256420  33.3795325  88.0207829  71.1423942  33.9217005  88.1146053
  72.6249165  33.8969305  88.4202070  75.2353070  19.1889955  90.6642034
  75.7321769  18.4359917  90.3443104  74.4640051  19.2254271  90.0985244
  83.0882827  24.8930320  92.3060326  83.0772704  25.7755036  91.9354259
  82.2200207  24.5401871  92.1114863  74.5965324  34.0410389  96.6663166
  75.3093296  34.6757854  96.5939067  74.1055352  34.1374255  95.8503168
  76.3182851  27.9461642  88.2380458  75.3839129  28.0663104  88.0685162
  76.4959519  27.0434109  87.9740467  71.8188039  21.3307338  90.3913719
  71.4485826  20.7778378  91.0794624  72.3147131  20.7265471  89.8388719
  79.7055402  23.7878961  88.7730492  80.1715854  24.6206953  88.6990794
  80.1562902  23.3223943  89.4775750  69.6477237  31.7904833  97.4868737
  70.3486697  32.4241316  97.6398131  69.1772352  32.1319564  96.7264376
  77.7731633  30.1322782  85.7716644  78.0491477  30.0179377  86.6810518
  76.9036132  29.7340267  85.7328817  77.6772065  16.1559548  92.8121393
  76.7635145  16.3863775  92.9803600  78.1065166  16.2397992  93.6635425
  77.4478523  24.3449440  95.3121287  76.7949973  24.5925348  94.6573740
  77.8258903  23.5313578  94.9783764  74.4085697  34.3809133  89.4149457
  74.5908092  33.5630789  89.8777210  75.2318683  34.5976826  88.9774347
  74.7427863  33.3077318  86.6764506  75.2715629  32.7969773  86.0634668
  75.0056082  32.9919849  87.5410039  73.4966096  25.0869251 101.7987324
  72.8206733  24.9863380 102.4689699  74.3193730  24.9308465 102.2623321
  65.2444955  31.3241188  94.4199839  65.8298392  30.5784876  94.5527744
  65.0469794  31.6345144  95.3036503  68.0983611  34.3592435  89.4362282
  67.4293986  34.8438563  88.9526322  67.9596480  34.6061656  90.3505660
  59.8362610  23.8946788  93.1404283  59.8746710  23.3610379  93.9341401
  59.3302903  23.3681993  92.5215260  72.2388879  36.3936179  96.0344940
  72.7907187  36.5567800  96.7994025  72.5795073  36.9840616  95.3624965
  67.2153372  18.7411328  96.6366825  67.2794699  19.6026159  96.2244223
  67.1520493  18.1285330  95.9039183  66.6905645  20.8134461 100.2839859
  67.3177684  20.4311538 100.8977384  65.8333564  20.5948663 100.6495552
  77.0899753  31.2197436 101.8893595  77.6339657  31.8327394 101.3948549
  76.5086598  31.7777015 102.4060608  63.4671188  22.6210890  86.2158214
  63.7624629  21.7121568  86.1625268  62.5659223  22.5998630  85.8939216
  75.3757266  34.3418154  93.0208622  75.2508406  33.5407894  92.5119568
  76.0336358  34.8364347  92.5322592  66.9965435  20.6966887  92.1985763
  66.2752020  21.3102854  92.0593236  67.7858690  21.2324651  92.1202409
  77.4392175  32.1427174  94.6488172  76.4922510  32.0232525  94.5766499
  77.7874948  31.2549672  94.7314434  69.7991748  18.0321313  98.4726414
  70.3226150  18.2783610  99.2352724  69.5804081  18.8641348  98.0529552
  65.1959029  20.3024988  86.3397539  64.8671735  19.4222367  86.1572645
  65.5498400  20.2472656  87.2273928  74.4438608  31.9379890  90.8492525
  74.2963571  31.0096598  91.0300095  75.2692102  31.9599981  90.3649600
  68.3100852  20.5897958  86.7073017  68.6496925  21.1183879  85.9851625
  68.7572973  20.9278364  87.4831583  78.0472730  32.7608449  91.9357397
  78.9719277  32.5551310  91.7981849  77.8788033  32.5124850  92.8446739
  71.0044293  18.9735008  96.1576085  70.6641114  18.1742821  96.5596765
  70.2983299  19.2736719  95.5852918  71.6560765  16.0584321  94.6103408
  72.4786834  15.5844799  94.4882298  71.8998829  16.8374804  95.1102094
  70.2969000  19.0872579  84.9066310  71.0177362  19.4653832  84.4030026
  69.6734304  19.8061456  85.0101288  74.4400122  19.7917728  85.8424642
  74.6563737  20.6742366  85.5413470  73.9594190  19.4003941  85.1130284
  69.1799344  22.7503441  92.4195387  69.0343924  23.0643744  93.3119668
  68.7024547  23.3688342  91.8666285  71.0395727  19.7405989  92.4676276
  71.0257295  18.8447083  92.1308574  71.7568155  19.7476653  93.1014562
  72.8921857  20.1743329  94.5129404  72.6339635  21.0960400  94.5113734
  72.3606898  19.7773764  95.2029868  77.8368046  33.2794117  87.2919489
  78.0104924  32.7140539  86.5393341  78.3296937  34.0795011  87.1098979
  63.6545006  25.2908786  95.3583048  63.1098474  26.0668594  95.4903322
  64.5324356  25.6379590  95.2002169  70.4432623  18.6220370  87.7363846
  70.5648534  17.6937016  87.9354734  70.1534665  18.6359056  86.8242162
  73.3123813  16.3075280  90.8730566  73.3345510  16.3714613  89.9182546
  73.7291872  15.4679789  91.0671072  83.6907437  26.0430540  88.9109789
  84.1338583  25.2937865  88.5128912  82.8133948  26.0340676  88.5283521
  78.8243219  32.5960881  84.3916387  79.5194123  33.2167574  84.6103702
  79.1666369  31.7456232  84.6668765  64.4411028  24.4178682  98.2513205
  63.6992764  24.5661317  98.8377835  64.1203772  24.6786948  97.3879954
  80.7234642  30.0460587  85.9203718  81.2485966  30.3847859  85.1953038
  80.6356994  29.1107602  85.7366853  72.3854690  33.9594660  98.0493595
  72.6941817  33.7143807  98.9216294  73.1830172  34.1641299  97.5612465
  72.4075302  36.1132570  90.2798971  71.9680293  35.6208949  90.9731828
  73.1583419  35.5705537  90.0391046  64.8867641  32.3044111  90.2823599
  65.7125661  32.0047883  89.9022243  64.5361693  31.5351733  90.7313388
  69.8549175  31.6570579  92.3521273  69.2329184  30.9941284  92.0523501
  70.5254042  31.6831711  91.6694921  63.0876247  30.2230437  91.2412533
  62.2508155  29.7952611  91.0596534  63.0599892  30.4162880  92.1783324
  69.9273702  20.1352367 101.9453779  69.9761858  21.0114490 101.5631548
  70.4696216  19.5929760 101.3725422  80.4128548  30.6793490 101.2254916
  79.6224092  30.6617629 100.6859415  80.1761902  31.2181784 101.9803952
  80.5326423  27.5285957  98.5387644  80.5824428  27.3635964  99.4803167
  80.4240346  26.6613216  98.1485525  69.4162682  30.2074502  85.8279733
  69.5650802  30.8909967  85.1746406  70.2229125  30.1879592  86.3429189
  77.8230185  23.5116885  99.8546951  78.7240048  23.3723349  99.5630949
  77.8978160  23.6771339 100.7945129  72.1572991  20.8883739  98.7000137
  71.2876300  21.1817305  98.4282726  72.3932471  21.4724184  99.4207401
  82.0344620  29.9482898  98.7829666  81.7429428  30.3112879  99.6193127
  81.4216751  29.2349906  98.6042998  83.2340302  27.5135778  91.3032236
  84.0687193  27.9525582  91.4669797  83.3699431  27.0374431  90.4840482
  80.2831808  25.0715513  97.2509724  80.7585930  25.2643159  96.4428575
  79.3597373  25.1274699  97.0053108  67.1715315  26.2339680  86.8340802
  66.9261356  25.3302010  87.0321012  67.3411229  26.2356830  85.8920280
  74.8612024  17.1063356  96.2165558  75.3793968  17.8424383  95.8912046
  74.5067157  17.4127350  97.0512317  66.4410962  21.9668037  84.3326964
  65.7480207  22.0412392  83.6767000  66.1962714  21.2028381  84.8548481
  75.1124619  13.5263639  91.7366454  75.3926372  12.8586828  92.3626881
  75.8975226  13.7192734  91.2241118  72.9158087  32.7022633  83.2991481
  72.3432054  33.3212820  82.8461953  73.4890881  33.2521994  83.8331403
  78.9833477  21.9481273  95.4838030  79.9350900  22.0479370  95.5050254
  78.8136927  21.1559541  95.9936114  77.0047856  19.0336856  95.6697431
  76.4097789  19.3141869  94.9743919  76.7197553  19.5230757  96.4414172
  76.1355347  32.9859783  84.4300063  77.0686020  32.9205345  84.6332939
  76.0478560  33.8216050  83.9714596  78.7643364  32.3025653  81.3904011
  78.6856995  31.9685517  82.2839769  79.5853030  32.7947421  81.3895483
  81.4621555  25.1687392  94.5980329  81.4297875  24.2303393  94.7840013
  82.0722178  25.2471429  93.8646154  73.3004886  24.0383445  80.6407533
  74.2463990  23.9089654  80.7095951  72.9219131  23.2998107  81.1176961
  81.6116043  21.9598436  94.6438612  81.0955092  21.1756893  94.4568541
  82.4955992  21.6317153  94.8085132  79.2726770  15.7039451  90.6034425
  79.0751591  15.3954540  91.4877757  79.8826476  16.4301090  90.7332355
  87.2798105  26.2303399  93.7386366  88.0101493  25.9688687  94.2994069
  86.6705050  25.4932121  93.7788434  85.3613402  24.3711262  94.3360817
  84.6346565  24.2367227  93.7277309  84.9460689  24.6788091  95.1417535
  73.1843578  28.0901192 102.1008190  74.1046588  28.2679791 102.2948237
  73.1493161  27.1457237 101.9487890  71.4847803  21.9633422  80.5762419
  70.5779258  21.6666535  80.6525132  71.7623784  21.6663240  79.7096705
  62.4025743  23.2839785  91.0261465  62.0828527  22.4305093  90.7335839
  61.8559171  23.4988363  91.7819432  66.1805651  26.0002226  94.7430971
  66.3991660  26.9319334  94.7619005  66.5931424  25.6410201  95.5285775
  73.1009868  16.5070312  86.7306660  72.2910597  16.1617397  87.1061906
  73.7894285  16.1977855  87.3194271  75.0300417  15.5848358  88.3530956
  75.5831455  16.0043812  89.0120980  75.2670503  14.6584106  88.3953912
  71.0533516  21.5735432 104.1333720  70.9530243  22.5229789 104.0645811
  70.8355058  21.2453671 103.2609790  70.2546587  18.8220357  80.7174398
  71.1165751  19.1475255  80.9770215  70.4396932  18.0351853  80.2047463
  62.2714003  26.9042697  92.9954586  61.5777475  26.4896650  92.4824541
  63.0186994  26.9463233  92.3988005  78.4079224  17.6948884  87.8609621
  77.8277893  18.3533688  87.4787673  78.1415157  16.8726228  87.4497038
  76.8582790  17.0953941  90.0630941  77.3582569  17.2070476  89.2545260
  77.5018398  16.7914994  90.7031749  70.9164786  25.0032571 102.9498782
  70.4331868  25.8032931 103.1562671  71.0025725  25.0140516 101.9966226
  64.1850746  26.8360951  90.8720601  64.1621434  26.9348638  89.9202484
  64.4951382  27.6826101  91.1937767  66.8438124  28.8937106  94.9867216
  67.7981377  28.8621048  94.9197147  66.6450647  28.4327729  95.8017442
  67.4337506  27.4638222  97.5538013  68.2530395  27.9582300  97.5772851
  67.7074313  26.5470190  97.5255581  77.1904102  19.8548974  86.9165969
  76.3029957  20.1398625  86.6986164  77.6058091  19.6942737  86.0693246
  80.5418638  19.8795495  90.6320308  81.3179028  20.3691947  90.9044925
  79.8166772  20.3053549  91.0892178  82.9791197  20.5923114  91.6894249
  83.5735687  20.3518850  90.9787557  83.0517780  19.8730245  92.3167785
  65.1988352  34.4356725  92.0037414  65.0642820  33.6757126  91.4375412
  64.7820415  35.1597625  91.5366203  76.3347315  29.6193649  81.0113989
  77.0383165  29.8243651  81.6271645  75.6109964  30.1870410  81.2763072
  77.1645126  25.3703510  87.1316259  77.1080327  25.8272061  86.2923892
  77.7173468  24.6094194  86.9539102  80.9749932  21.1593242  87.9566379
  80.7186866  20.7589877  88.7874586  80.3502800  21.8737036  87.8316518
  85.2862269  23.8989315  90.4637670  84.7261827  23.9682504  91.2369232
  84.6805773  23.7230300  89.7437166  68.3557478  35.3326042  92.2155856
  68.2389862  36.2771475  92.1134547  67.5349924  35.0299604  92.6041655
  78.2434013  30.0576178  83.0612449  79.0779617  29.6257376  82.8789924
  78.0818356  29.8858191  83.9889343  77.8979905  26.5608291  84.4268788
  77.8428709  26.3952563  83.4857232  77.2725960  27.2684324  84.5830978
  62.6872420  21.7976355  98.2530211  63.3331283  21.2875309  98.7417436
  62.4789571  22.5345037  98.8273636  75.2125812  28.8657203 103.7522351
  76.0816972  29.0397855 103.3908986  74.7332564  29.6851620 103.6298080
  71.2076030  16.0616400  84.0054107  71.1954700  17.0058240  84.1622378
  72.0999452  15.8786545  83.7113568  69.3811992  35.9854304  95.4311785
  70.2839239  36.0177914  95.7478280  69.1549362  35.0554755  95.4458121
  71.1365594  34.7385290  92.0921863  70.1861225  34.7387152  91.9786236
  71.4398080  33.9918025  91.5757898  75.0228150  12.6559177  88.2600043
  74.2560546  12.1017663  88.4056726  75.4338855  12.7281045  89.1214195
  67.0269911  18.9443973 102.3505225  67.8901372  18.5880777 102.5608549
  66.4535322  18.6057867 103.0380629  86.8718288  40.5745829  93.1567626
  87.5096698  40.4552576  92.4530966  86.7539131  41.5226673  93.2155578
  83.6807994  40.5273257  93.0929150  83.3426506  40.4114322  92.2049685
  84.5497762  40.1264422  93.0730157  79.5394810  42.3808733  89.0826041
  78.9759675  42.2898670  88.3142329  79.4247205  41.5608638  89.5628534
  84.1627777  41.6808109  99.0515356  84.1516418  41.2860907  98.1795860
  84.3248417  40.9474181  99.6449127  77.0859242  43.8759925  91.9210262
  77.8780534  43.5350750  91.5056561  77.3255892  43.9854900  92.8412415
  85.1194369  46.0479701  84.3940506  84.4682348  46.6333782  84.0074520
  85.9138731  46.5785896  84.4535544  79.0449996  43.1368838  84.7927641
  79.8180872  42.5897825  84.6540516  79.3975395  44.0013088  85.0042102
  80.8835038  44.4645221  97.9994540  80.5924904  45.3690851  97.8841206
  81.5192023  44.5061748  98.7138610  81.8091245  41.8422069  94.5895900
  82.4054817  41.6178091  93.8752863  81.8666217  41.1006815  95.1921347
  81.3816273  39.2961504  82.4246091  81.6341794  38.7743026  81.6629554
  80.4440833  39.1327650  82.5272774  86.4259556  38.2997283  90.2320834
  87.2122646  37.8816706  89.8811251  86.6898261  39.2043375  90.4002482
  86.5969634  43.7370133  84.9309491  85.9615467  43.8104760  85.6430395
  86.2667040  44.3263732  84.2528570  91.8267983  38.2372516  91.1353812
  92.5593155  37.6671733  91.3691642  91.0707339  37.8494116  91.5760318
  81.1012562  41.1989610  84.6270466  80.9848820  40.5234514  85.2951550
  81.2114822  40.7121984  83.8102619  83.4444103  40.6599757  88.3317155
  83.0802310  40.1330378  89.0430076  84.3011219  40.2698226  88.1583640
  89.3493404  31.9494090  95.5948421  89.0176729  32.8189501  95.3709636
  88.7539017  31.6330374  96.2742451  83.0849590  35.6889657  83.3278503
  83.2523992  36.5569894  83.6948974  82.8946759  35.8516939  82.4039793
  85.8424923  44.1506636  94.9944334  85.5425646  45.0531675  94.8860141
  85.4975983  43.8838819  95.8465487  79.2937405  40.6020433  91.0281038
  78.3687901  40.4696647  91.2358730  79.5421818  41.3814652  91.5250980
  89.2422067  36.6689176  92.6741771  88.3338944  36.6004585  92.3800532
  89.1909663  37.1461121  93.5023596  83.0638811  38.1447315  84.3125170
  82.9438436  38.5904365  85.1510650  82.3691399  38.4932632  83.7538708
  76.6546216  40.2453706  91.8624827  76.7838597  40.4988185  92.7764239
  75.9743667  40.8381414  91.5429482  83.3162933  38.0878822 100.6176668
  82.5396267  38.6472742 100.6079533  83.9553496  38.5735605 101.1391538
  91.1083714  34.8705615  94.4519645  90.4658094  35.1638148  93.8059439
  90.6038642  34.7558535  95.2572842  88.7623877  38.6168788  85.1405504
  89.6741733  38.8496175  84.9653202  88.2533524  39.2005832  84.5780583
  81.5709305  40.8964275 100.1794635  82.3123990  41.4349319  99.9029459
  80.8646291  41.5230564 100.3366187  87.0464645  43.0393416  98.7766797
  87.4548001  42.5975826  98.0321429  86.3241906  42.4646043  99.0300990
  83.3995715  37.9766022  96.1500354  84.2456910  38.4005436  96.2935003
  83.3394353  37.3199647  96.8438917  87.3693459  43.5994606  92.5319086
  86.7402322  43.7640320  91.8295153  86.9819122  44.0136216  93.3030050
  91.2482691  44.5349044  89.8863449  90.5633730  44.9147945  89.3360483
  91.3326541  45.1444371  90.6195397  86.5495160  35.6370391  97.8081527
  86.3056092  36.3912451  97.2715803  86.8255091  36.0155738  98.6428774
  88.5033623  42.1809003  96.4858793  88.7150518  42.8240763  95.8093174
  88.4563371  41.3471320  96.0180723  86.1059852  34.7926824  93.3895365
  85.2444331  35.0908077  93.6812103  86.1322287  35.0097223  92.4576398
  82.9221421  43.3369014  89.7969171  83.3859767  43.6156717  89.0073793
  82.6578219  42.4352459  89.6142261  79.8145502  42.8840496  92.7348934
  80.3846859  43.3127764  92.0966418  80.4053614  42.6023081  93.4333120
  81.8590307  39.4592167  86.6058736  82.5614351  39.9113210  87.0732662
  81.5270936  38.8175986  87.2338629  80.3070669  38.0503923 100.9809945
  79.6769330  38.7320204 101.2145342  80.2006757  37.9387005 100.0363083
  75.6015641  37.7175719  91.9075869  74.8114695  37.9733248  91.4315980
  76.0926889  38.5324057  92.0127910  89.6179451  45.0580959  94.6581150
  90.4396895  44.6561146  94.3763832  89.6141854  44.9549193  95.6097266
  77.5530387  38.0820299  88.8659346  76.7561550  38.1938993  89.3842842
  77.3255979  38.4206951  88.0000237  83.3836054  44.6065002  96.8141861
  83.4480487  45.0685409  97.6500033  82.6746978  43.9762367  96.9424171
  73.8853344  37.9706210  94.3390860  74.1361383  38.8553220  94.6048436
  74.4212893  37.7910811  93.5665952  97.7085444  41.4019707  91.0066122
  96.9549152  40.8327105  90.8510126  97.8432985  41.3682372  91.9536756
  83.0984072  46.2733109  86.6820841  82.9629747  47.1184645  87.1105689
  83.6393885  46.4752387  85.9186775  79.5851412  32.3524689 103.3435196
  79.1918357  31.7990888 104.0182841  80.4017552  32.6635268 103.7341714
  76.5513469  43.7908547  87.2548766  77.0637990  44.5851798  87.4054331
  77.2036182  43.0934838  87.1882368  78.3608354  46.9074304  89.3371519
  78.5374982  47.8292268  89.1492503  79.1565188  46.5932723  89.7665899
  82.5019373  33.7682568 100.9355453  83.2429086  34.3689721 100.8559915
  82.7337295  33.0260206 100.3773495  77.6460711  38.9538936  99.2133683
  77.5314226  38.0524193  99.5140781  76.7905228  39.2002632  98.8618499
  84.7252548  46.8956676 100.8121183  84.2816403  46.1093054 100.4942088
  85.3869762  47.0835826 100.1465074  79.4839670  48.4252477  95.3381862
  80.0347095  48.2969541  94.5658856  78.6451145  48.7247366  94.9876754
  86.8233786  47.1759476  98.8402584  86.8052262  47.9968357  98.3482854
  87.7453707  47.0513551  99.0652726  83.2806841  44.6903605  99.6826093
  83.8135177  43.9291893  99.4525401  82.7520922  44.3977257 100.4250247
  86.4476536  29.7963671  95.2119735  86.1040805  30.6865313  95.1358845
  86.8155498  29.6065329  94.3489320  74.5162386  42.1197202  88.0308337
  75.3537608  42.5294210  87.8142044  74.6940654  41.1796644  88.0008531
  86.4126818  39.7872282  83.7192170  85.8973442  40.5576887  83.9580557
  86.1404127  39.1137418  84.3425231  83.9973929  34.6321983  88.7777408
  83.1415526  34.2428834  88.5983047  84.4100881  34.7113944  87.9177194
  85.5273076  32.1668326  93.1768968  85.0237872  32.1298462  92.3636773
  85.8203683  33.0761069  93.2365624  81.7715962  32.2507056  92.1835150
  82.6368959  32.0549865  91.8241039  81.8393471  32.0217408  93.1104506
  91.3861092  42.5404637  85.6545343  90.6090535  42.2015796  85.2100505
  92.0652573  42.5457260  84.9800308  86.2013121  37.6599374  85.5451951
  85.8963257  37.9745524  86.3962094  87.1543564  37.7380794  85.5879284
  84.6459553  43.8189598  87.1944905  84.1180915  43.0842357  86.8818142
  84.1447056  44.5964274  86.9484873  89.6252399  42.0138618  92.3111951
  88.9676074  42.7037880  92.3992080  90.4292799  42.4035050  92.6545937
  79.3778281  34.4809264  89.5551516  79.9522033  34.2584446  88.8224709
  79.9649263  34.5497959  90.3080118  88.4357858  40.3682991  90.3615893
  88.9489740  41.0012983  90.8637603  89.0859082  39.7684186  89.9959253
  79.7047868  36.5113725  83.5747402  78.8685180  36.8488412  83.8956676
  79.5652638  36.3762705  82.6374539  81.6800949  31.3550513  88.2826586
  81.0265361  31.0399530  87.6583201  81.6381423  30.7326253  89.0086409
  82.7912154  41.6369808  80.1979878  81.8839215  41.4059061  80.3971027
  83.2883185  40.8407427  80.3853859  85.6980232  50.3467315  83.1176564
  85.0241931  50.6499012  83.7261522  86.0846054  51.1496396  82.7682021
  84.9138689  37.8432446  92.6074233  83.9961250  38.0647393  92.4495921
  85.3298833  37.9178757  91.7485941  85.6973737  39.2423862  87.7376914
  86.4445556  39.7545259  87.4284036  85.9665326  38.9207915  88.5981307
  83.9700387  41.7382403  84.7203868  83.0611606  41.4541436  84.8176338
  83.9995471  42.1581481  83.8607175  89.2019654  45.3488992  88.4895035
  88.7481981  44.5079902  88.5460226  88.5713621  45.9850391  88.8269816
  88.1452574  36.2780978  89.7195703  87.4075331  35.7658365  90.0505945
  88.3979347  35.8381360  88.9078980  87.6452594  47.1865489  89.4244854
  87.9375568  47.7470546  88.7057219  88.1551214  47.4794050  90.1798013
  88.2464201  29.0557230  90.3137472  88.5523078  28.1954594  90.0263387
  88.9716806  29.6474851  90.1136466  74.5388557  39.4587917  88.7019070
  74.3412957  38.8657278  87.9770137  73.9835221  39.1540127  89.4195009
  82.5185281  39.3511023  90.8213663  82.5733891  38.3984860  90.7456140
  81.7076483  39.5070463  91.3054962  83.6676475  43.2791147  82.0591946
  83.2295905  42.5627005  81.5997584  84.4086916  43.5067261  81.4977038
  80.4577641  37.9688083  88.5804042  79.6445506  38.2682254  88.9869234
  80.9536635  37.5743772  89.2978524  82.6086219  47.9645840  90.5138307
  82.5662398  48.1906686  89.5846839  83.5248918  47.7309215  90.6624108
  86.0551853  38.4329908  97.4118936  86.4101240  38.6601381  98.2713402
  86.7023984  38.7648284  96.7896191  91.7849590  41.5548344  88.1168265
  91.6467488  41.7449940  87.1889454  91.4285808  42.3167726  88.5736316
  79.9491716  35.5406439  94.1965277  80.5891095  35.3995198  93.4988240
  79.1169246  35.2540952  93.8203879  91.8118969  43.6224871  93.1279537
  92.2455476  43.5300160  93.9762591  92.5250550  43.5982371  92.4899553
  80.7252020  44.8408869  90.3100270  81.5192618  44.3459189  90.1082845
  80.0143712  44.3126732  89.9467975  85.5446864  47.2226965  94.6612637
  85.5983886  47.7917901  95.4290353  84.6761645  47.3928850  94.2966674
  77.0334783  38.9851951  86.3860022  76.1032371  38.9236406  86.6029984
  77.1292255  38.4627904  85.5896663  76.9520332  35.5106764  88.9738264
  77.2127149  36.4252097  88.8647424  77.7737504  35.0431206  89.1234877
  78.4245257  36.9244521  96.1437088  79.0968311  36.7161883  95.4949737
  77.5975044  36.7266607  95.7042321  92.6734519  43.6648571  95.6612422
  92.8670409  44.5694382  95.9071697  92.5735137  43.2055990  96.4951007
  84.3270829  33.5506462  98.1602749  83.6798744  34.2496411  98.0667226
  85.0971845  33.9842606  98.5278997  87.7349627  43.8155314 101.2353303
  87.5835134  43.5865866 100.3183386  87.7254307  44.7725915 101.2484648
  84.5034964  41.3887227  96.2199569  85.4327024  41.5398386  96.0468536
  84.0825994  41.4771248  95.3648216  83.3023296  45.4137891  93.9898107
  83.1634381  45.0456676  94.8624045  82.5137892  45.9285531  93.8182064
  83.8971448  50.5146988  85.3323643  84.0723203  50.0435031  86.1469266
  83.2104236  51.1412754  85.5604904  84.8528511  44.7919494  91.3786944
  84.5178343  44.7520264  92.2744594  84.3532456  44.1264210  90.9057355
  78.8272755  40.1987124  96.9039526  78.6892553  39.4667363  97.5051065
  79.7377678  40.1096024  96.6223713  87.7887702  42.1375528  81.6524004
  87.1716873  41.4122356  81.5557057  87.3204191  42.8984888  81.3091078
  81.4555055  39.9107083  96.3923205  82.1654674  39.2700275  96.3509824
  81.4124364  40.1619978  97.3149386  89.4441834  46.8474437  99.3129784
  89.3854380  46.1633657  98.6460367  89.8461352  47.5893427  98.8610410
  80.1683989  36.8972301  98.2118845  79.6321346  36.4463040  98.8640441
  79.5800698  37.0318210  97.4689309  79.5786248  36.3560952  80.7745308
  78.7015715  36.2349753  80.4107555  80.0544001  35.5647031  80.5224197
  89.4459241  44.8114020  97.5443764  88.5586020  44.4739942  97.6670163
  90.0157792  44.0797052  97.7812530  71.0988388  41.1438112  90.8686815
  71.7859428  40.8299842  90.2807831  70.9436517  42.0479477  90.5954067
  75.9023111  36.0328309  95.2971839  75.8181299  35.4253978  94.5622249
  75.0805817  36.5237327  95.2981336  82.9760395  49.4715473  94.5105007
  82.9030566  50.2770444  95.0224312  82.5337788  49.6707439  93.6853029
  82.7650174  48.7087243  88.0207829  81.9817696  49.2508923  88.1146053
  83.4642919  49.2261222  88.4202070  86.0746824  34.5181872  90.6642034
  86.5715524  33.7651835  90.3443104  85.3033806  34.5546189  90.0985244
  93.9276582  40.2222238  92.3060326  93.9166458  41.1046953  91.9354259
  93.0593961  39.8693789  92.1114863  85.4359078  49.3702307  96.6663166
  86.1487050  50.0049772  96.5939067  84.9449107  49.4666173  95.8503168
  87.1576605  43.2753560  88.2380458  86.2232884  43.3955022  88.0685162
  87.3353274  42.3726026  87.9740467  82.6581793  36.6599255  90.3913719
  82.2879581  36.1070296  91.0794624  83.1540886  36.0557389  89.8388719
  90.5449156  39.1170879  88.7730492  91.0109609  39.9498870  88.6990794
  90.9956657  38.6515860  89.4775750  80.4870992  47.1196750  97.4868737
  81.1880451  47.7533233  97.6398131  80.0166107  47.4611482  96.7264376
  88.6125388  45.4614700  85.7716644  88.8885231  45.3471295  86.6810518
  87.7429886  45.0632185  85.7328817  88.5165819  31.4851466  92.8121393
  87.6028899  31.7155693  92.9803600  88.9458921  31.5689910  93.6635425
  88.2872278  39.6741358  95.3121287  87.6343728  39.9217265  94.6573740
  88.6652658  38.8605496  94.9783764  85.2479452  49.7101051  89.4149457
  85.4301846  48.8922707  89.8777210  86.0712438  49.9268743  88.9774347
  85.5821617  48.6369236  86.6764506  86.1109384  48.1261691  86.0634668
  85.8449837  48.3211766  87.5410039  84.3359851  40.4161169 101.7987324
  83.6600488  40.3155298 102.4689699  85.1587485  40.2600383 102.2623321
  70.6756365  39.2238706  93.1404283  70.7140464  38.6902296  93.9341401
  70.1696657  38.6973911  92.5215260  83.0782634  51.7228096  96.0344940
  83.6300942  51.8859718  96.7994025  83.4188827  52.3132534  95.3624965
  78.0547127  34.0703246  96.6366825  78.1188453  34.9318077  96.2244223
  77.9914247  33.4577248  95.9039183  77.5299399  36.1426379 100.2839859
  78.1571438  35.7603456 100.8977384  76.6727318  35.9240581 100.6495552
  87.9293508  46.5489354 101.8893595  88.4733412  47.1619312 101.3948549
  87.3480353  47.1068932 102.4060608  74.3064942  37.9502808  86.2158214
  74.6018383  37.0413486  86.1625268  73.4052978  37.9290547  85.8939216
  86.2151021  49.6710072  93.0208622  86.0902160  48.8699812  92.5119568
  86.8730112  50.1656265  92.5322592  77.8359189  36.0258804  92.1985763
  77.1145775  36.6394772  92.0593236  78.6252445  36.5616569  92.1202409
  88.2785929  47.4719092  94.6488172  87.3316265  47.3524443  94.5766499
  88.6268702  46.5841590  94.7314434  80.6385503  33.3613231  98.4726414
  81.1619904  33.6075527  99.2352724  80.4197836  34.1933266  98.0529552
  76.0352784  35.6316905  86.3397539  75.7065490  34.7514284  86.1572645
  76.3892154  35.5764574  87.2273928  85.2832363  47.2671808  90.8492525
  85.1357325  46.3388516  91.0300095  86.1085856  47.2891899  90.3649600
  79.1494607  35.9189875  86.7073017  79.4890679  36.4475796  85.9851625
  79.5966727  36.2570281  87.4831583  88.8866484  48.0900367  91.9357397
  89.8113032  47.8843228  91.7981849  88.7181788  47.8416768  92.8446739
  81.8438048  34.3026926  96.1576085  81.5034868  33.5034739  96.5596765
  81.1377054  34.6028637  95.5852918  82.4954520  31.3876238  94.6103408
  83.3180589  30.9136717  94.4882298  82.7392583  32.1666722  95.1102094
  81.1362754  34.4164497  84.9066310  81.8571117  34.7945750  84.4030026
  80.5128058  35.1353374  85.0101288  85.2793877  35.1209646  85.8424642
  85.4957491  36.0034284  85.5413470  84.7987944  34.7295859  85.1130284
  80.0193098  38.0795359  92.4195387  79.8737679  38.3935662  93.3119668
  79.5418302  38.6980259  91.8666285  81.8789481  35.0697907  92.4676276
  81.8651050  34.1739000  92.1308574  82.5961909  35.0768571  93.1014562
  83.7315612  35.5035247  94.5129404  83.4733390  36.4252318  94.5113734
  83.2000652  35.1065682  95.2029868  88.6761801  48.6086034  87.2919489
  88.8498678  48.0432457  86.5393341  89.1690692  49.4086929  87.1098979
  74.4938760  40.6200703  95.3583048  73.9492229  41.3960511  95.4903322
  75.3718110  40.9671508  95.2002169  81.2826377  33.9512287  87.7363846
  81.4042288  33.0228933  87.9354734  80.9928419  33.9650973  86.8242162
  84.1517567  31.6367198  90.8730566  84.1739264  31.7006531  89.9182546
  84.5685626  30.7971706  91.0671072  94.5301192  41.3722457  88.9109789
  94.9732338  40.6229782  88.5128912  93.6527702  41.3632594  88.5283521
  89.6636973  47.9252799  84.3916387  90.3587878  48.5459491  84.6103702
  90.0060123  47.0748150  84.6668765  75.2804782  39.7470600  98.2513205
  74.5386518  39.8953235  98.8377835  74.9597527  40.0078865  97.3879954
  91.5628396  45.3752504  85.9203718  92.0879720  45.7139777  85.1953038
  91.4750749  44.4399520  85.7366853  83.2248445  49.2886578  98.0493595
  83.5335571  49.0435725  98.9216294  84.0223927  49.4933216  97.5612465
  75.7261396  47.6336028  90.2823599  76.5519416  47.3339800  89.9022243
  75.3755448  46.8643651  90.7313388  80.6942929  46.9862497  92.3521273
  80.0722938  46.3233202  92.0523501  81.3647796  47.0123628  91.6694921
  73.9270001  45.5522355  91.2412533  73.0901909  45.1244529  91.0596534
  73.8993646  45.7454798  92.1783324  80.7667457  35.4644285 101.9453779
  80.8155612  36.3406407 101.5631548  81.3089971  34.9221678 101.3725422
  91.2522302  46.0085408 101.2254916  90.4617846  45.9909547 100.6859415
  91.0155657  46.5473702 101.9803952  91.3720177  42.8577874  98.5387644
  91.4218182  42.6927882  99.4803167  91.2634101  41.9905133  98.1485525
  80.2556436  45.5366420  85.8279733  80.4044556  46.2201884  85.1746406
  81.0622880  45.5171510  86.3429189  88.6623940  38.8408802  99.8546951
  89.5633802  38.7015267  99.5630949  88.7371914  39.0063257 100.7945129
  82.9966745  36.2175657  98.7000137  82.1270054  36.5109223  98.4282726
  83.2326225  36.8016102  99.4207401  92.8738374  45.2774816  98.7829666
  92.5823182  45.6404796  99.6193127  92.2610505  44.5641824  98.6042998
  94.0734056  42.8427696  91.3032236  94.9080948  43.2817500  91.4669797
  94.2093185  42.3666349  90.4840482  91.1225562  40.4007430  97.2509724
  91.5979684  40.5935077  96.4428575  90.1991128  40.4566616  97.0053108
  78.0109069  41.5631598  86.8340802  77.7655111  40.6593928  87.0321012
  78.1804984  41.5648748  85.8920280  85.7005779  32.4355274  96.2165558
  86.2187723  33.1716301  95.8912046  85.3460912  32.7419267  97.0512317
  77.2804717  37.2959955  84.3326964  76.5873961  37.3704310  83.6767000
  77.0356468  36.5320299  84.8548481  85.9518373  28.8555556  91.7366454
  86.2320127  28.1878746  92.3626881  86.7368980  29.0484652  91.2241118
  83.7551842  48.0314550  83.2991481  83.1825809  48.6504738  82.8461953
  84.3284635  48.5813912  83.8331403  89.8227231  37.2773190  95.4838030
  90.7744654  37.3771288  95.5050254  89.6530682  36.4851459  95.9936114
  87.8441611  34.3628774  95.6697431  87.2491543  34.6433786  94.9743919
  87.5591308  34.8522675  96.4414172  86.9749101  48.3151701  84.4300063
  87.9079775  48.2497262  84.6332939  86.8872314  49.1507967  83.9714596
  89.6037118  47.6317571  81.3904011  89.5250750  47.2977434  82.2839769
  90.4246785  48.1239339  81.3895483  92.3015309  40.4979310  94.5980329
  92.2691629  39.5595311  94.7840013  92.9115933  40.5763347  93.8646154
  84.1398640  39.3675363  80.6407533  85.0857745  39.2381571  80.7095951
  83.7612885  38.6290025  81.1176961  92.4509798  37.2890354  94.6438612
  91.9348846  36.5048810  94.4568541  93.3349746  36.9609070  94.8085132
  90.1120525  31.0331369  90.6034425  89.9145346  30.7246457  91.4877757
  90.7220230  31.7593008  90.7332355  98.1191859  41.5595317  93.7386366
  98.8495248  41.2980605  94.2994069  97.5098805  40.8224039  93.7788434
  96.2007156  39.7003180  94.3360817  95.4740320  39.5659145  93.7277309
  95.7854443  40.0080008  95.1417535  84.0237333  43.4193109 102.1008190
  84.9440342  43.5971708 102.2948237  83.9886916  42.4749155 101.9487890
  82.3241557  37.2925340  80.5762419  81.4173013  36.9958452  80.6525132
  82.6017538  36.9955158  79.7096705  73.2419498  38.6131703  91.0261465
  72.9222282  37.7597011  90.7335839  72.6952926  38.8280281  91.7819432
  77.0199405  41.3294144  94.7430971  77.2385415  42.2611252  94.7619005
  77.4325179  40.9702118  95.5285775  83.9403623  31.8362229  86.7306660
  83.1304351  31.4909314  87.1061906  84.6288040  31.5269773  87.3194271
  85.8694171  30.9140276  88.3530956  86.4225210  31.3335729  89.0120980
  86.1064258  29.9876024  88.3953912  81.8927270  36.9027350 104.1333720
  81.7923997  37.8521707 104.0645811  81.6748813  36.5745589 103.2609790
  81.0940342  34.1512275  80.7174398  81.9559506  34.4767173  80.9770215
  81.2790686  33.3643771  80.2047463  73.1107758  42.2334614  92.9954586
  72.4171229  41.8188567  92.4824541  73.8580749  42.2755151  92.3988005
  89.2472978  33.0240801  87.8609621  88.6671647  33.6825605  87.4787673
  88.9808911  32.2018146  87.4497038  87.6976545  32.4245859  90.0630941
  88.1976323  32.5362393  89.2545260  88.3412153  32.1206912  90.7031749
  81.7558541  40.3324489 102.9498782  81.2725622  41.1324849 103.1562671
  81.8419480  40.3432433 101.9966226  75.0244500  42.1652868  90.8720601
  75.0015188  42.2640555  89.9202484  75.3345137  43.0118019  91.1937767
  77.6831878  44.2229023  94.9867216  78.6375132  44.1912966  94.9197147
  77.4844402  43.7619647  95.8017442  78.2731260  42.7930139  97.5538013
  79.0924149  43.2874218  97.5772851  78.5468068  41.8762107  97.5255581
  88.0297856  35.1840892  86.9165969  87.1423711  35.4690542  86.6986164
  88.4451845  35.0234655  86.0693246  91.3812392  35.2087413  90.6320308
  92.1572783  35.6983865  90.9044925  90.6560527  35.6345467  91.0892178
  93.8184951  35.9215032  91.6894249  94.4129442  35.6810768  90.9787557
  93.8911535  35.2022162  92.3167785  87.1741070  44.9485566  81.0113989
  87.8776920  45.1535569  81.6271645  86.4503719  45.5162328  81.2763072
  88.0038880  40.6995428  87.1316259  87.9474081  41.1563979  86.2923892
  88.5567223  39.9386112  86.9539102  91.8143686  36.4885159  87.9566379
  91.5580620  36.0881795  88.7874586  91.1896554  37.2028953  87.8316518
  96.1256024  39.2281233  90.4637670  95.5655582  39.2974422  91.2369232
  95.5199527  39.0522217  89.7437166  89.0827767  45.3868095  83.0612449
  89.9173371  44.9549294  82.8789924  88.9212110  45.2150109  83.9889343
  88.7373659  41.8900209  84.4268788  88.6822463  41.7244480  83.4857232
  88.1119715  42.5976242  84.5830978  73.5266174  37.1268273  98.2530211
  74.1725038  36.6167227  98.7417436  73.3183325  37.8636955  98.8273636
  86.0519567  44.1949121 103.7522351  86.9210726  44.3689773 103.3908986
  85.5726318  45.0143537 103.6298080  82.0469785  31.3908318  84.0054107
  82.0348455  32.3350158  84.1622378  82.9393207  31.2078463  83.7113568
  80.2205747  51.3146222  95.4311785  81.1232994  51.3469832  95.7478280
  79.9943117  50.3846673  95.4458121  81.9759349  50.0677208  92.0921863
  81.0254980  50.0679070  91.9786236  82.2791835  49.3209943  91.5757898
  85.8621904  27.9851094  88.2600043  85.0954300  27.4309581  88.4056726
  86.2732609  28.0572963  89.1214195  77.8663665  34.2735890 102.3505225
  78.7295127  33.9172695 102.5608549  77.2929076  33.9349785 103.0380629
  97.7112042  55.9037747  93.1567626  98.3490452  55.7844494  92.4530966
  97.5932885  56.8518591  93.2155578  94.5201749  55.8565175  93.0929150
  94.1820260  55.7406239  92.2049685  95.3891517  55.4556340  93.0730157
  95.0021532  57.0100026  99.0515356  94.9910172  56.6152825  98.1795860
  95.1642171  56.2766099  99.6449127  87.9252996  59.2051843  91.9210262
  88.7174288  58.8642667  91.5056561  88.1649646  59.3146818  92.8412415
  91.7228793  59.7937138  97.9994540  91.4318659  60.6982769  97.8841206
  92.3585777  59.8353666  98.7138610  92.6485000  57.1713987  94.5895900
  93.2448572  56.9470009  93.8752863  92.7059971  56.4298732  95.1921347
  97.2653311  53.6289200  90.2320834  98.0516400  53.2108624  89.8811251
  97.5292015  54.5335293  90.4002482  97.4363388  59.0662051  84.9309491
  96.8009221  59.1396677  85.6430395  97.1060795  59.6555650  84.2528570
 102.6661738  53.5664434  91.1353812 103.3986910  52.9963650  91.3691642
 101.9101094  53.1786034  91.5760318 100.1887158  47.2786008  95.5948421
  99.8570483  48.1481419  95.3709636  99.5932772  46.9622292  96.2742451
  93.9243345  51.0181575  83.3278503  94.0917747  51.8861811  83.6948974
  93.7340514  51.1808857  82.4039793  96.6818678  59.4798554  94.9944334
  96.3819401  60.3823593  94.8860141  96.3369737  59.2130737  95.8465487
  90.1331159  55.9312351  91.0281038  89.2081656  55.7988565  91.2358730
  90.3815572  56.7106570  91.5250980 100.0815822  51.9981094  92.6741771
  99.1732699  51.9296502  92.3800532 100.0303417  52.4753039  93.5023596
  87.4939970  55.5745624  91.8624827  87.6232351  55.8280103  92.7764239
  86.8137422  56.1673332  91.5429482  94.1556687  53.4170739 100.6176668
  93.3790021  53.9764660 100.6079533  94.7947250  53.9027522 101.1391538
 101.9477468  50.1997532  94.4519645 101.3051848  50.4930065  93.8059439
 101.4432397  50.0850453  95.2572842  99.6017632  53.9460705  85.1405504
 100.5135488  54.1788092  84.9653202  99.0927279  54.5297750  84.5780583
  92.4103060  56.2256193 100.1794635  93.1517744  56.7641237  99.9029459
  91.7040045  56.8522482 100.3366187  97.8858399  58.3685333  98.7766797
  98.2941755  57.9267744  98.0321429  97.1635661  57.7937961  99.0300990
  94.2389469  53.3057940  96.1500354  95.0850665  53.7297354  96.2935003
  94.1788107  52.6491564  96.8438917  98.2087214  58.9286524  92.5319086
  97.5796076  59.0932238  91.8295153  97.8212876  59.3428133  93.3030050
 102.0876446  59.8640962  89.8863449 101.4027484  60.2439863  89.3360483
 102.1720295  60.4736288  90.6195397  97.3888915  50.9662308  97.8081527
  97.1449847  51.7204369  97.2715803  97.6648845  51.3447656  98.6428774
  99.3427377  57.5100921  96.4858793  99.5544273  58.1532681  95.8093174
  99.2957126  56.6763237  96.0180723  96.9453606  50.1218741  93.3895365
  96.0838085  50.4199995  93.6812103  96.9716041  50.3389140  92.4576398
  93.7615176  58.6660932  89.7969171  94.2253521  58.9448635  89.0073793
  93.4971974  57.7644377  89.6142261  90.6539257  58.2132414  92.7348934
  91.2240614  58.6419682  92.0966418  91.2447369  57.9314998  93.4333120
  91.1464423  53.3795841 100.9809945  90.5163084  54.0612122 101.2145342
  91.0400511  53.2678923 100.0363083  86.4409396  53.0467637  91.9075869
  85.6508450  53.3025166  91.4315980  86.9320643  53.8615975  92.0127910
 100.4573205  60.3872876  94.6581150 101.2790649  59.9853064  94.3763832
 100.4535608  60.2841110  95.6097266  88.3924141  53.4112216  88.8659346
  87.5955305  53.5230911  89.3842842  88.1649733  53.7498869  88.0000237
  94.2229809  59.9356920  96.8141861  94.2874241  60.3977327  97.6500033
  93.5140733  59.3054284  96.9424171  84.7247099  53.2998128  94.3390860
  84.9755137  54.1845137  94.6048436  85.2606647  53.1202729  93.5665952
 108.5479198  56.7311625  91.0066122 107.7942907  56.1619023  90.8510126
 108.6826740  56.6974289  91.9536756  90.4245166  47.6816607 103.3435196
  90.0312112  47.1282805 104.0182841  91.2411306  47.9927185 103.7341714
  89.2002109  62.2366221  89.3371519  89.3768737  63.1584186  89.1492503
  89.9958942  61.9224641  89.7665899  93.3413127  49.0974486 100.9355453
  94.0822841  49.6981639 100.8559915  93.5731050  48.3552124 100.3773495
  88.4854465  54.2830853  99.2133683  88.3707980  53.3816110  99.5140781
  87.6298983  54.5294550  98.8618499  95.5646303  62.2248594 100.8121183
  95.1210157  61.4384972 100.4942088  96.2263516  62.4127744 100.1465074
  90.3233424  63.7544395  95.3381862  90.8740849  63.6261458  94.5658856
  89.4844900  64.0539284  94.9876754  97.6627541  62.5051393  98.8402584
  97.6446016  63.3260274  98.3482854  98.5847461  62.3805469  99.0652726
  94.1200595  60.0195523  99.6826093  94.6528932  59.2583811  99.4525401
  93.5914676  59.7269175 100.4250247  97.2870290  45.1255589  95.2119735
  96.9434559  46.0157231  95.1358845  97.6549253  44.9357247  94.3489320
  97.2520573  55.1164200  83.7192170  96.7367196  55.8868805  83.9580557
  96.9797881  54.4429336  84.3425231  94.8367684  49.9613901  88.7777408
  93.9809280  49.5720751  88.5983047  95.2494636  50.0405862  87.9177194
  96.3666830  47.4960244  93.1768968  95.8631626  47.4590379  92.3636773
  96.6597437  48.4052987  93.2365624  92.6109716  47.5798974  92.1835150
  93.4762713  47.3841782  91.8241039  92.6787225  47.3509326  93.1104506
 102.2254847  57.8696555  85.6545343 101.4484290  57.5307714  85.2100505
 102.9046328  57.8749178  84.9800308  97.0406876  52.9891292  85.5451951
  96.7357012  53.3037441  86.3962094  97.9937318  53.0672712  85.5879284
  95.4853308  59.1481515  87.1944905  94.9574669  58.4134275  86.8818142
  94.9840811  59.9256192  86.9484873 100.4646154  57.3430536  92.3111951
  99.8069828  58.0329797  92.3992080 101.2686553  57.7326968  92.6545937
  90.2172035  49.8101182  89.5551516  90.7915787  49.5876363  88.8224709
  90.8043018  49.8789876  90.3080118  99.2751613  55.6974909  90.3615893
  99.7883494  56.3304900  90.8637603  99.9252837  55.0976104  89.9959253
  92.5194703  46.6842431  88.2826586  91.8659115  46.3691448  87.6583201
  92.4775177  46.0618171  89.0086409  95.7532444  53.1724364  92.6074233
  94.8355005  53.3939311  92.4495921  96.1692587  53.2470675  91.7485941
  96.5367491  54.5715780  87.7376914  97.2839310  55.0837177  87.4284036
  96.8059081  54.2499833  88.5981307 100.0413409  60.6780910  88.4895035
  99.5875736  59.8371820  88.5460226  99.4107376  61.3142308  88.8269816
  98.9846328  51.6072896  89.7195703  98.2469085  51.0950282  90.0505945
  99.2373102  51.1673278  88.9078980  98.4846348  62.5157407  89.4244854
  98.7769322  63.0762464  88.7057219  98.9944969  62.8085968  90.1798013
  99.0857956  44.3849148  90.3137472  99.3916833  43.5246512  90.0263387
  99.8110561  44.9766768  90.1136466  85.3782312  54.7879835  88.7019070
  85.1806712  54.1949195  87.9770137  84.8228976  54.4832045  89.4195009
  93.3579035  54.6802941  90.8213663  93.4127645  53.7276778  90.7456140
  92.5470238  54.8362380  91.3054962  93.4479973  63.2937758  90.5138307
  93.4056152  63.5198604  89.5846839  94.3642672  63.0601132  90.6624108
  96.8945607  53.7621825  97.4118936  97.2494995  53.9893299  98.2713402
  97.5417738  54.0940202  96.7896191 102.6243344  56.8840261  88.1168265
 102.4861243  57.0741857  87.1889454 102.2679563  57.6459644  88.5736316
  90.7885470  50.8698356  94.1965277  91.4284849  50.7287116  93.4988240
  89.9563001  50.5832870  93.8203879 102.6512724  58.9516788  93.1279537
 103.0849230  58.8592077  93.9762591 103.3644304  58.9274289  92.4899553
  91.5645774  60.1700787  90.3100270  92.3586373  59.6751107  90.1082845
  90.8537466  59.6418650  89.9467975  96.3840619  62.5518882  94.6612637
  96.4377641  63.1209819  95.4290353  95.5155400  62.7220767  94.2966674
  87.7914087  50.8398681  88.9738264  88.0520904  51.7544015  88.8647424
  88.6131259  50.3723124  89.1234877  89.2639012  52.2536439  96.1437088
  89.9362065  52.0453801  95.4949737  88.4368798  52.0558525  95.7042321
 103.5128273  58.9940489  95.6612422 103.7064163  59.8986299  95.9071697
 103.4128891  58.5347908  96.4951007  95.1664584  48.8798379  98.1602749
  94.5192499  49.5788329  98.0667226  95.9365599  49.3134523  98.5278997
  98.5743382  59.1447232 101.2353303  98.4228888  58.9157783 100.3183386
  98.5648061  60.1017833 101.2484648  95.3428718  56.7179144  96.2199569
  96.2720778  56.8690304  96.0468536  94.9219748  56.8063165  95.3648216
  94.1417050  60.7429809  93.9898107  94.0028136  60.3748593  94.8624045
  93.3531646  61.2577448  93.8182064  95.6922265  60.1211412  91.3786944
  95.3572098  60.0812181  92.2744594  95.1926211  59.4556127  90.9057355
  89.6666509  55.5279042  96.9039526  89.5286307  54.7959280  97.5051065
  90.5771433  55.4387942  96.6223713  92.2948810  55.2399001  96.3923205
  93.0048428  54.5992193  96.3509824  92.2518118  55.4911896  97.3149386
 100.2835589  62.1766354  99.3129784 100.2248135  61.4925574  98.6460367
 100.6855107  62.9185344  98.8610410  91.0077744  52.2264219  98.2118845
  90.4715101  51.7754957  98.8640441  90.4194452  52.3610128  97.4689309
  89.3026287  68.9928268  92.1063503  89.5422886  69.6246792  92.7842522
  88.4595484  68.6416308  92.3928863  90.4180003  51.6852870  80.7745308
  89.5409469  51.5641671  80.4107555  90.8937756  50.8938948  80.5224197
 100.2852996  60.1405938  97.5443764  99.3979775  59.8031860  97.6670163
 100.8551547  59.4088969  97.7812530  86.7416865  51.3620226  95.2971839
  86.6575054  50.7545896  94.5622249  85.9199571  51.8529245  95.2981336
  93.8154149  64.8007390  94.5105007  93.7424321  65.6062362  95.0224312
  93.3731542  64.9999356  93.6853029  96.9140579  49.8473790  90.6642034
  97.4109278  49.0943752  90.3443104  96.1427560  49.8838107  90.0985244
 104.7670336  55.5514156  92.3060326 104.7560213  56.4338871  91.9354259
 103.8987716  55.1985706  92.1114863  96.2752833  64.6994225  96.6663166
  96.9880805  65.3341689  96.5939067  95.7842861  64.7958091  95.8503168
  97.9970360  58.6045477  88.2380458  97.0626638  58.7246940  88.0685162
  98.1747028  57.7017944  87.9740467  93.4975548  51.9891173  90.3913719
  93.1273335  51.4362213  91.0794624  93.9934640  51.3849306  89.8388719
 101.3842911  54.4462796  88.7730492 101.8503363  55.2790788  88.6990794
 101.8350411  53.9807778  89.4775750  91.3264746  62.4488668  97.4868737
  92.0274206  63.0825151  97.6398131  90.8559861  62.7903400  96.7264376
  99.4519142  60.7906618  85.7716644  99.7278986  60.6763212  86.6810518
  98.5823641  60.3924103  85.7328817  99.3559574  46.8143383  92.8121393
  98.4422654  47.0447610  92.9803600  99.7852675  46.8981828  93.6635425
  99.1266032  55.0033275  95.3121287  98.4737482  55.2509183  94.6573740
  99.5046412  54.1897414  94.9783764  96.0873206  65.0392969  89.4149457
  96.2695601  64.2214625  89.8777210  96.9106192  65.2560661  88.9774347
  95.1753605  55.7453086 101.7987324  94.4994242  55.6447216 102.4689699
  95.9981239  55.5892300 102.2623321  86.9232464  61.9825023  94.4199839
  87.5085901  61.2368711  94.5527744  86.7257303  62.2928980  95.3036503
  89.7771120  65.0176270  89.4362282  89.1081495  65.5022398  88.9526322
  89.6383989  65.2645491  90.3505660  81.5150119  54.5530623  93.1404283
  81.5534219  54.0194214  93.9341401  81.0090412  54.0265829  92.5215260
  93.9176388  67.0520014  96.0344940  94.4694696  67.2151635  96.7994025
  94.2582582  67.6424452  95.3624965  88.8940881  49.3995164  96.6366825
  88.9582208  50.2609995  96.2244223  88.8308002  48.7869165  95.9039183
  88.3693154  51.4718296 100.2839859  88.9965193  51.0895374 100.8977384
  87.5121073  51.2532498 100.6495552  98.7687262  61.8781271 101.8893595
  99.3127166  62.4911230 101.3948549  98.1874107  62.4360850 102.4060608
  85.1458697  53.2794725  86.2158214  85.4412138  52.3705404  86.1625268
  84.2446732  53.2582465  85.8939216  97.0544775  65.0001989  93.0208622
  96.9295915  64.1991729  92.5119568  97.7123866  65.4948183  92.5322592
  88.6752944  51.3550722  92.1985763  87.9539529  51.9686690  92.0593236
  89.4646199  51.8908487  92.1202409  99.1179684  62.8011010  94.6488172
  98.1710019  62.6816361  94.5766499  99.4662457  61.9133508  94.7314434
  91.4779257  48.6905148  98.4726414  92.0013659  48.9367445  99.2352724
  91.2591590  49.5225183  98.0529552  86.8746538  50.9608823  86.3397539
  86.5459244  50.0806202  86.1572645  87.2285909  50.9056492  87.2273928
  96.1226117  62.5963726  90.8492525  95.9751079  61.6680433  91.0300095
  96.9479611  62.6183816  90.3649600  89.9888361  51.2481793  86.7073017
  90.3284434  51.7767714  85.9851625  90.4360482  51.5862199  87.4831583
  99.7260239  63.4192285  91.9357397 100.6506786  63.2135146  91.7981849
  99.5575542  63.1708686  92.8446739  92.6831802  49.6318844  96.1576085
  92.3428623  48.8326657  96.5596765  91.9770808  49.9320554  95.5852918
  93.3348274  46.7168156  94.6103408  94.1574343  46.2428634  94.4882298
  93.5786338  47.4958640  95.1102094  91.9756508  49.7456414  84.9066310
  92.6964871  50.1237667  84.4030026  91.3521813  50.4645291  85.0101288
  96.1187631  50.4501563  85.8424642  96.3351246  51.3326201  85.5413470
  95.6381699  50.0587777  85.1130284  90.8586853  53.4087277  92.4195387
  90.7131433  53.7227580  93.3119668  90.3812056  54.0272177  91.8666285
  92.7183236  50.3989825  92.4676276  92.7044804  49.5030918  92.1308574
  93.4355664  50.4060488  93.1014562  94.5709366  50.8327165  94.5129404
  94.3127144  51.7544235  94.5113734  94.0394407  50.4357599  95.2029868
  85.3332515  55.9492621  95.3583048  84.7885983  56.7252429  95.4903322
  86.2111865  56.2963426  95.2002169  92.1220132  49.2804205  87.7363846
  92.2436043  48.3520851  87.9354734  91.8322174  49.2942891  86.8242162
  94.9911322  46.9659115  90.8730566  95.0133019  47.0298448  89.9182546
  95.4079381  46.1263624  91.0671072 105.3694946  56.7014375  88.9109789
 105.8126092  55.9521700  88.5128912 104.4921457  56.6924511  88.5283521
 100.5030728  63.2544716  84.3916387 101.1981632  63.8751409  84.6103702
 100.8453878  62.4040068  84.6668765  86.1198537  55.0762517  98.2513205
  85.3780273  55.2245153  98.8377835  85.7991281  55.3370783  97.3879954
 102.4022151  60.7044422  85.9203718 102.9273475  61.0431695  85.1953038
 102.3144503  59.7691437  85.7366853  94.0642199  64.6178496  98.0493595
  94.3729326  64.3727642  98.9216294  94.8617681  64.8225134  97.5612465
  94.0862811  66.7716405  90.2798971  93.6467802  66.2792784  90.9731828
  94.8370928  66.2289373  90.0391046  91.5336684  62.3154414  92.3521273
  90.9116693  61.6525119  92.0523501  92.2041551  62.3415546  91.6694921
  84.7663756  60.8814272  91.2412533  83.9295664  60.4536447  91.0596534
  84.7387401  61.0746716  92.1783324  91.6061211  50.7936202 101.9453779
  91.6549367  51.6698325 101.5631548  92.1483725  50.2513595 101.3725422
 102.0916057  61.3377326 101.2254916 101.3011600  61.3201464 100.6859415
 101.8549411  61.8765619 101.9803952 102.2113932  58.1869792  98.5387644
 102.2611937  58.0219799  99.4803167 102.1027855  57.3197051  98.1485525
  99.5017694  54.1700720  99.8546951 100.4027557  54.0307185  99.5630949
  99.5765669  54.3355175 100.7945129  93.8360500  51.5467575  98.7000137
  92.9663809  51.8401141  98.4282726  94.0719980  52.1308020  99.4207401
 103.7132129  60.6066733  98.7829666 103.4216937  60.9696714  99.6193127
 103.1004260  59.8933742  98.6042998 104.9127811  58.1719613  91.3032236
 105.7474702  58.6109417  91.4669797 105.0486940  57.6958266  90.4840482
 101.9619317  55.7299348  97.2509724 102.4373439  55.9226994  96.4428575
 101.0384882  55.7858534  97.0053108  96.5399533  47.7647192  96.2165558
  97.0581477  48.5008219  95.8912046  96.1854666  48.0711185  97.0512317
  96.7912128  44.1847474  91.7366454  97.0713881  43.5170663  92.3626881
  97.5762734  44.3776570  91.2241118 100.6620986  52.6065108  95.4838030
 101.6138409  52.7063206  95.5050254 100.4924436  51.8143377  95.9936114
  98.6835365  49.6920691  95.6697431  98.0885297  49.9725704  94.9743919
  98.3985062  50.1814592  96.4414172  97.8142856  63.6443618  84.4300063
  98.7473529  63.5789180  84.6332939  97.7266069  64.4799885  83.9714596
 100.4430873  62.9609489  81.3904011 100.3644504  62.6269352  82.2839769
 101.2640539  63.4531256  81.3895483 103.1409064  55.8271228  94.5980329
 103.1085384  54.8887229  94.7840013 103.7509687  55.9055265  93.8646154
 103.2903552  52.6182271  94.6438612 102.7742601  51.8340728  94.4568541
 104.1743501  52.2900988  94.8085132 100.9514279  46.3623287  90.6034425
 100.7539100  46.0538375  91.4877757 101.5613985  47.0884926  90.7332355
 108.9585614  56.8887235  93.7386366 109.6889002  56.6272523  94.2994069
 108.3492559  56.1515957  93.7788434 107.0400911  55.0295097  94.3360817
 106.3134074  54.8951062  93.7277309 106.6248198  55.3371926  95.1417535
  94.8631087  58.7485027 102.1008190  95.7834097  58.9263626 102.2948237
  94.8280670  57.8041072 101.9487890  93.1635312  52.6217257  80.5762419
  92.2566767  52.3250370  80.6525132  93.4411293  52.3247075  79.7096705
  84.0813252  53.9423621  91.0261465  83.7616036  53.0888929  90.7335839
  83.5346680  54.1572199  91.7819432  87.8593160  56.6586062  94.7430971
  88.0779169  57.5903169  94.7619005  88.2718933  56.2994036  95.5285775
  94.7797377  47.1654147  86.7306660  93.9698106  46.8201232  87.1061906
  95.4681794  46.8561691  87.3194271  96.7087926  46.2432194  88.3530956
  97.2618964  46.6627647  89.0120980  96.9458012  45.3167942  88.3953912
  92.7321025  52.2319267 104.1333720  92.6317752  53.1813624 104.0645811
  92.5142567  51.9037506 103.2609790  91.9334096  49.4804192  80.7174398
  92.7953260  49.8059091  80.9770215  92.1184440  48.6935688  80.2047463
  83.9501512  57.5626532  92.9954586  83.2564984  57.1480485  92.4824541
  84.6974503  57.6047069  92.3988005 100.0866733  48.3532719  87.8609621
  99.5065402  49.0117523  87.4787673  99.8202665  47.5310063  87.4497038
  98.5370299  47.7537777  90.0630941  99.0370078  47.8654311  89.2545260
  99.1805907  47.4498829  90.7031749  92.5952295  55.6616406 102.9498782
  92.1119377  56.4616766 103.1562671  92.6813234  55.6724351 101.9966226
  85.8638255  57.4944786  90.8720601  85.8408943  57.5932473  89.9202484
  86.1738891  58.3409937  91.1937767  88.5225633  59.5520941  94.9867216
  89.4768886  59.5204883  94.9197147  88.3238156  59.0911565  95.8017442
  89.1125015  58.1222057  97.5538013  89.9317904  58.6166136  97.5772851
  89.3861822  57.2054025  97.5255581  98.8691611  50.5132809  86.9165969
  97.9817466  50.7982460  86.6986164  99.2845600  50.3526573  86.0693246
 102.2206147  50.5379330  90.6320308 102.9966537  51.0275783  90.9044925
 101.4954281  50.9637384  91.0892178 104.6578706  51.2506949  91.6894249
 105.2523196  51.0102685  90.9787557 104.7305289  50.5314080  92.3167785
  86.8775861  65.0940560  92.0037414  86.7430329  64.3340961  91.4375412
  86.4607924  65.8181460  91.5366203  98.8432635  56.0287345  87.1316259
  98.7867836  56.4855897  86.2923892  99.3960977  55.2678030  86.9539102
 102.6537440  51.8177077  87.9566379 102.3974375  51.4173713  88.7874586
 102.0290309  52.5320871  87.8316518 106.9649778  54.5573150  90.4637670
 106.4049336  54.6266340  91.2369232 106.3593282  54.3814135  89.7437166
  90.0344987  65.9909877  92.2155856  89.9177371  66.9355310  92.1134547
  89.2137433  65.6883439  92.6041655  99.9221522  60.7160013  83.0612449
 100.7567126  60.2841212  82.8789924  99.7605865  60.5442027  83.9889343
  99.5767414  57.2192126  84.4268788  99.5216218  57.0536398  83.4857232
  98.9513469  57.9268159  84.5830978  84.3659929  52.4560191  98.2530211
  85.0118792  51.9459145  98.7417436  84.1577080  53.1928872  98.8273636
  96.8913321  59.5241038 103.7522351  97.7604481  59.6981691 103.3908986
  96.4120073  60.3435455 103.6298080  92.8863539  46.7200235  84.0054107
  92.8742209  47.6642075  84.1622378  93.7786961  46.5370381  83.7113568
  91.0599501  66.6438139  95.4311785  91.9626748  66.6761750  95.7478280
  90.8336871  65.7138590  95.4458121  92.8153103  65.3969126  92.0921863
  91.8648734  65.3970987  91.9786236  93.1185589  64.6501860  91.5757898
  96.7015659  43.3143012  88.2600043  95.9348055  42.7601499  88.4056726
  97.1126364  43.3864881  89.1214195  88.7057420  49.6027808 102.3505225
  89.5688881  49.2464613 102.5608549  88.1322831  49.2641703 103.0380629
 108.5505797  71.2329664  93.1567626 109.1884207  71.1136412  92.4530966
 108.4326640  72.1810508  93.2155578 105.3595503  71.1857092  93.0929150
 105.0214015  71.0698157  92.2049685 106.2285271  70.7848257  93.0730157
 105.8415286  72.3391944  99.0515356 105.8303927  71.9444742  98.1795860
 106.0035926  71.6058017  99.6449127 102.5622547  75.1229056  97.9994540
 102.2712413  76.0274687  97.8841206 103.1979532  75.1645583  98.7138610
 103.4878754  72.5005904  94.5895900 104.0842326  72.2761927  93.8752863
 103.5453726  71.7590650  95.1921347 108.1047065  68.9581118  90.2320834
 108.8910155  68.5400541  89.8811251 108.3685770  69.8627210  90.4002482
 113.5055492  68.8956351  91.1353812 114.2380664  68.3255568  91.3691642
 112.7494848  68.5077952  91.5760318 105.1231612  71.3183593  88.3317155
 104.7589819  70.7914214  89.0430076 105.9798728  70.9282062  88.1583640
 111.0280913  62.6077925  95.5948421 110.6964238  63.4773336  95.3709636
 110.4326526  62.2914209  96.2742451 104.7637099  66.3473492  83.3278503
 104.9311501  67.2153729  83.6948974 104.5734268  66.5100774  82.4039793
 107.5212432  74.8090471  94.9944334 107.2213155  75.7115510  94.8860141
 107.1763492  74.5422655  95.8465487 100.9724914  71.2604268  91.0281038
 100.0475410  71.1280482  91.2358730 101.2209327  72.0398487  91.5250980
 110.9209576  67.3273012  92.6741771 110.0126453  67.2588420  92.3800532
 110.8697172  67.8044957  93.5023596  98.3333725  70.9037542  91.8624827
  98.4626106  71.1572021  92.7764239  97.6531176  71.4965250  91.5429482
 104.9950442  68.7462657 100.6176668 104.2183776  69.3056577 100.6079533
 105.6341005  69.2319440 101.1391538 112.7871222  65.5289450  94.4519645
 112.1445603  65.8221983  93.8059439 112.2826151  65.4142370  95.2572842
 110.4411386  69.2752623  85.1405504 111.3529242  69.5080010  84.9653202
 109.9321033  69.8589667  84.5780583 103.2496814  71.5548111 100.1794635
 103.9911499  72.0933154  99.9029459 102.5433800  72.1814399 100.3366187
 108.7252154  73.6977251  98.7766797 109.1335510  73.2559662  98.0321429
 108.0029415  73.1229879  99.0300990 105.0783224  68.6349858  96.1500354
 105.9244419  69.0589271  96.2935003 105.0181862  67.9783482  96.8438917
 109.0480968  74.2578442  92.5319086 108.4189831  74.4224156  91.8295153
 108.6606631  74.6720051  93.3030050 112.9270200  75.1932879  89.8863449
 112.2421239  75.5731781  89.3360483 113.0114050  75.8028206  90.6195397
 108.2282669  66.2954226  97.8081527 107.9843601  67.0496287  97.2715803
 108.5042600  66.6739574  98.6428774 110.1821132  72.8392838  96.4858793
 110.3938027  73.4824598  95.8093174 110.1350880  72.0055155  96.0180723
 107.7847361  65.4510659  93.3895365 106.9231840  65.7491913  93.6812103
 107.8109796  65.6681058  92.4576398 103.5377816  70.1176002  86.6058736
 104.2401860  70.5697046  87.0732662 103.2058445  69.4759821  87.2338629
 101.9858178  68.7087759 100.9809945 101.3556838  69.3904040 101.2145342
 101.8794266  68.5970840 100.0363083  97.2803150  68.3759555  91.9075869
  96.4902204  68.6317083  91.4315980  97.7714398  69.1907893  92.0127910
 111.2966960  75.7164794  94.6581150 112.1184404  75.3144981  94.3763832
 111.2929363  75.6133028  95.6097266  99.2317896  68.7404134  88.8659346
  98.4349059  68.8522828  89.3842842  99.0043488  69.0790786  88.0000237
 105.0623563  75.2648837  96.8141861 105.1267996  75.7269244  97.6500033
 104.3534487  74.6346202  96.9424171  95.5640853  68.6290045  94.3390860
  95.8148892  69.5137055  94.6048436  96.1000402  68.4494647  93.5665952
 119.3872953  72.0603542  91.0066122 118.6336661  71.4910940  90.8510126
 119.5220494  72.0266207  91.9536756 101.2638921  63.0108525 103.3435196
 100.8705866  62.4574723 104.0182841 102.0805061  63.3219103 103.7341714
 104.1806882  64.4266404 100.9355453 104.9216595  65.0273557 100.8559915
 104.4124804  63.6844041 100.3773495  99.3248220  69.6122771  99.2133683
  99.2101735  68.7108028  99.5140781  98.4692737  69.8586468  98.8618499
 106.4040057  77.5540511 100.8121183 105.9603912  76.7676890 100.4942088
 107.0657271  77.7419662 100.1465074 101.1627179  79.0836313  95.3381862
 101.7134604  78.9553376  94.5658856 100.3238654  79.3831202  94.9876754
 108.5021295  77.8343311  98.8402584 108.4839771  78.6552192  98.3482854
 109.4241216  77.7097386  99.0652726 104.9594350  75.3487441  99.6826093
 105.4922686  74.5875729  99.4525401 104.4308431  75.0561092 100.4250247
 108.1264045  60.4547507  95.2119735 107.7828314  61.3449148  95.1358845
 108.4943007  60.2649164  94.3489320 105.6761438  65.2905818  88.7777408
 104.8203035  64.9012669  88.5983047 106.0888390  65.3697779  87.9177194
 107.2060585  62.8252162  93.1768968 106.7025381  62.7882297  92.3636773
 107.4991192  63.7344904  93.2365624 103.4503471  62.9090891  92.1835150
 104.3156468  62.7133700  91.8241039 103.5180980  62.6801243  93.1104506
 107.8800630  68.3183210  85.5451951 107.5750766  68.6329359  86.3962094
 108.8331073  68.3964630  85.5879284 111.3039908  72.6722454  92.3111951
 110.6463583  73.3621715  92.3992080 112.1080308  73.0618886  92.6545937
 101.0565790  65.1393099  89.5551516 101.6309542  64.9168281  88.8224709
 101.6436772  65.2081794  90.3080118 110.1145367  71.0266826  90.3615893
 110.6277249  71.6596818  90.8637603 110.7646591  70.4268022  89.9959253
 101.3835377  67.1697560  83.5747402 100.5472689  67.5072247  83.8956676
 101.2440147  67.0346540  82.6374539 103.3588458  62.0134348  88.2826586
 102.7052870  61.6983365  87.6583201 103.3168932  61.3910089  89.0086409
 106.5926198  68.5016282  92.6074233 105.6748759  68.7231229  92.4495921
 107.0086342  68.5762592  91.7485941 107.3761246  69.9007697  87.7376914
 108.1233065  70.4129095  87.4284036 107.6452835  69.5791750  88.5981307
 109.8240083  66.9364814  89.7195703 109.0862840  66.4242200  90.0505945
 110.0766856  66.4965195  88.9078980 109.3240103  77.8449324  89.4244854
 109.6163077  78.4054382  88.7057219 109.8338723  78.1377885  90.1798013
 109.9251710  59.7141066  90.3137472 110.2310587  58.8538429  90.0263387
 110.6504315  60.3058686  90.1136466  96.2176066  70.1171752  88.7019070
  96.0200466  69.5241113  87.9770137  95.6622730  69.8123963  89.4195009
 104.1972790  70.0094859  90.8213663 104.2521400  69.0568695  90.7456140
 103.3863992  70.1654298  91.3054962 102.1365150  68.6271919  88.5804042
 101.3233015  68.9266089  88.9869234 102.6324144  68.2327607  89.2978524
 107.7339362  69.0913743  97.4118936 108.0888749  69.3185216  98.2713402
 108.3811493  69.4232120  96.7896191 113.4637099  72.2132179  88.1168265
 113.3254997  72.4033775  87.1889454 113.1073317  72.9751562  88.5736316
 101.6279225  66.1990274  94.1965277 102.2678604  66.0579033  93.4988240
 100.7956755  65.9124787  93.8203879 113.4906478  74.2808706  93.1279537
 113.9242985  74.1883995  93.9762591 114.2038059  74.2566206  92.4899553
 107.2234373  77.8810800  94.6612637 107.2771395  78.4501736  95.4290353
 106.3549154  78.0512685  94.2966674  98.7122292  69.6435786  86.3860022
  97.7819880  69.5820242  86.6029984  98.8079764  69.1211739  85.5896663
  98.6307841  66.1690599  88.9738264  98.8914658  67.0835932  88.8647424
  99.4525013  65.7015042  89.1234877 100.1032766  67.5828356  96.1437088
 100.7755820  67.3745718  95.4949737  99.2762553  67.3850442  95.7042321
 114.3522028  74.3232407  95.6612422 114.5457918  75.2278217  95.9071697
 114.2522646  73.8639826  96.4951007 106.0058338  64.2090297  98.1602749
 105.3586253  64.9080247  98.0667226 106.7759354  64.6426441  98.5278997
 109.4137136  74.4739149 101.2353303 109.2622643  74.2449701 100.3183386
 109.4041816  75.4309751 101.2484648 106.1822473  72.0471062  96.2199569
 107.1114533  72.1982222  96.0468536 105.7613503  72.1355083  95.3648216
 100.5060264  70.8570959  96.9039526 100.3680062  70.1251198  97.5051065
 101.4165187  70.7679859  96.6223713 103.1342564  70.5690919  96.3923205
 103.8442183  69.9284111  96.3509824 103.0911872  70.8203813  97.3149386
 111.1229343  77.5058272  99.3129784 111.0641889  76.8217492  98.6460367
 111.5248861  78.2477262  98.8610410 101.8471498  67.5556136  98.2118845
 101.3108855  67.1046875  98.8640441 101.2588207  67.6902045  97.4689309
 111.1246750  75.4697856  97.5443764 110.2373529  75.1323778  97.6670163
 111.6945301  74.7380887  97.7812530  92.7775897  71.8021948  90.8686815
  93.4646937  71.4883678  90.2807831  92.6224026  72.7063312  90.5954067
  97.5810620  66.6912144  95.2971839  97.4968808  66.0837814  94.5622249
  96.7593326  67.1821162  95.2981336 104.6547904  80.1299308  94.5105007
 104.5818075  80.9354280  95.0224312 104.2125297  80.3291274  93.6853029
 107.7534333  65.1765708  90.6642034 108.2503033  64.4235670  90.3443104
 106.9821315  65.2130024  90.0985244 115.6064091  70.8806073  92.3060326
 115.5953967  71.7630789  91.9354259 114.7381470  70.5277624  92.1114863
 107.1146587  80.0286142  96.6663166 107.8274559  80.6633607  96.5939067
 106.6236616  80.1250008  95.8503168 108.8364114  73.9337395  88.2380458
 107.9020393  74.0538857  88.0685162 109.0140783  73.0309862  87.9740467
 104.3369302  67.3183091  90.3913719 103.9667090  66.7654131  91.0794624
 104.8328395  66.7141224  89.8388719 112.2236665  69.7754714  88.7730492
 112.6897118  70.6082706  88.6990794 112.6744166  69.3099696  89.4775750
 102.1658501  77.7780586  97.4868737 102.8667960  78.4117069  97.6398131
 101.6953616  78.1195317  96.7264376 110.1953328  62.1435301  92.8121393
 109.2816408  62.3739528  92.9803600 110.6246430  62.2273745  93.6635425
 109.9659787  70.3325193  95.3121287 109.3131237  70.5801101  94.6573740
 110.3440167  69.5189331  94.9783764 106.9266961  80.3684886  89.4149457
 107.1089355  79.5506542  89.8777210 107.7499947  80.5852579  88.9774347
 106.0147360  71.0745004 101.7987324 105.3387997  70.9739134 102.4689699
 106.8374994  70.9184218 102.2623321  92.3543874  69.8822541  93.1404283
  92.3927973  69.3486132  93.9341401  91.8484166  69.3557746  92.5215260
 104.7570143  82.3811932  96.0344940 105.3088451  82.5443553  96.7994025
 105.0976336  82.9716369  95.3624965  99.7334636  64.7287081  96.6366825
  99.7975962  65.5901912  96.2244223  99.6701756  64.1161083  95.9039183
  99.2086908  66.8010214 100.2839859  99.8358947  66.4187291 100.8977384
  98.3514827  66.5824416 100.6495552 109.6081017  77.2073189 101.8893595
 110.1520921  77.8203147 101.3948549 109.0267862  77.7652768 102.4060608
 107.8938530  80.3293907  93.0208622 107.7689669  79.5283647  92.5119568
 108.5517621  80.8240101  92.5322592  99.5146698  66.6842640  92.1985763
  98.7933284  67.2978607  92.0593236 100.3039954  67.2200404  92.1202409
 109.9573438  78.1302927  94.6488172 109.0103774  78.0108278  94.5766499
 110.3056211  77.2425425  94.7314434 102.3173012  64.0197066  98.4726414
 102.8407413  64.2659363  99.2352724 102.0985345  64.8517101  98.0529552
  97.7140293  66.2900741  86.3397539  97.3852999  65.4098120  86.1572645
  98.0679663  66.2348409  87.2273928 100.8282116  66.5773711  86.7073017
 101.1678188  67.1059632  85.9851625 101.2754236  66.9154117  87.4831583
 110.5653993  78.7484202  91.9357397 111.4900541  78.5427064  91.7981849
 110.3969297  78.5000603  92.8446739 103.5225557  64.9610761  96.1576085
 103.1822377  64.1618574  96.5596765 102.8164563  65.2612472  95.5852918
 104.1742028  62.0460074  94.6103408 104.9968098  61.5720552  94.4882298
 104.4180092  62.8250557  95.1102094 102.8150263  65.0748332  84.9066310
 103.5358625  65.4529585  84.4030026 102.1915567  65.7937209  85.0101288
 106.9581386  65.7793481  85.8424642 107.1745000  66.6618119  85.5413470
 106.4775453  65.3879695  85.1130284 101.6980607  68.7379194  92.4195387
 101.5525188  69.0519497  93.3119668 101.2205811  69.3564095  91.8666285
 103.5576990  65.7281742  92.4676276 103.5438559  64.8322836  92.1308574
 104.2749418  65.7352406  93.1014562 105.4103121  66.1619083  94.5129404
 105.1520899  67.0836153  94.5113734 104.8788161  65.7649517  95.2029868
  96.1726269  71.2784539  95.3583048  95.6279737  72.0544347  95.4903322
  97.0505619  71.6255343  95.2002169 102.9613886  64.6096123  87.7363846
 103.0829797  63.6812769  87.9354734 102.6715928  64.6234809  86.8242162
 105.8305076  62.2951033  90.8730566 105.8526773  62.3590366  89.9182546
 106.2473135  61.4555542  91.0671072 116.2088701  72.0306293  88.9109789
 116.6519847  71.2813618  88.5128912 115.3315211  72.0216429  88.5283521
  96.9592291  70.4054435  98.2513205  96.2174027  70.5537070  98.8377835
  96.6385036  70.6662701  97.3879954 104.9035954  79.9470413  98.0493595
 105.2123080  79.7019560  98.9216294 105.7011436  80.1517052  97.5612465
 102.4454966  66.1228120 101.9453779 102.4943121  66.9990243 101.5631548
 102.9877480  65.5805513 101.3725422 112.9309811  76.6669243 101.2254916
 112.1405355  76.6493382 100.6859415 112.6943166  77.2057537 101.9803952
 113.0507686  73.5161710  98.5387644 113.1005691  73.3511717  99.4803167
 112.9421610  72.6488969  98.1485525 110.3411449  69.4992638  99.8546951
 111.2421311  69.3599102  99.5630949 110.4159423  69.6647092 100.7945129
 104.6754254  66.8759492  98.7000137 103.8057563  67.1693058  98.4282726
 104.9113734  67.4599937  99.4207401 114.5525883  75.9358651  98.7829666
 114.2610691  76.2988632  99.6193127 113.9398014  75.2225659  98.6042998
 115.7521565  73.5011531  91.3032236 116.5868457  73.9401335  91.4669797
 115.8880694  73.0250184  90.4840482 112.8013071  71.0591266  97.2509724
 113.2767193  71.2518912  96.4428575 111.8778637  71.1150452  97.0053108
 107.3793288  63.0939109  96.2165558 107.8975232  63.8300136  95.8912046
 107.0248421  63.4003103  97.0512317  98.9592226  67.9543790  84.3326964
  98.2661470  68.0288145  83.6767000  98.7143977  67.1904134  84.8548481
 107.6305882  59.5139392  91.7366454 107.9107636  58.8462581  92.3626881
 108.4156489  59.7068487  91.2241118 111.5014740  67.9357026  95.4838030
 112.4532163  68.0355123  95.5050254 111.3318191  67.1435294  95.9936114
 109.5229120  65.0212609  95.6697431 108.9279052  65.3017622  94.9743919
 109.2378817  65.5106510  96.4414172 113.9802818  71.1563146  94.5980329
 113.9479138  70.2179146  94.7840013 114.5903442  71.2347182  93.8646154
 114.1297307  67.9474189  94.6438612 113.6136355  67.1632646  94.4568541
 115.0137255  67.6192906  94.8085132 111.7908034  61.6915205  90.6034425
 111.5932855  61.3830293  91.4877757 112.4007739  62.4176843  90.7332355
 119.7979368  72.2179152  93.7386366 120.5282757  71.9564440  94.2994069
 119.1886314  71.4807874  93.7788434 117.8794665  70.3587015  94.3360817
 117.1527829  70.2242980  93.7277309 117.4641952  70.6663844  95.1417535
 105.7024842  74.0776945 102.1008190 106.6227851  74.2555544 102.2948237
 105.6674425  73.1332990 101.9487890  98.6986914  71.9877979  94.7430971
  98.9172924  72.9195087  94.7619005  99.1112688  71.6285954  95.5285775
 105.6191132  62.4946065  86.7306660 104.8091860  62.1493150  87.1061906
 106.3075549  62.1853608  87.3194271 107.5481680  61.5724111  88.3530956
 108.1012719  61.9919565  89.0120980 107.7851767  60.6459860  88.3953912
 103.5714779  67.5611185 104.1333720 103.4711506  68.5105542 104.0645811
 103.3536321  67.2329424 103.2609790  94.7895267  72.8918450  92.9954586
  94.0958738  72.4772403  92.4824541  95.5368258  72.9338986  92.3988005
 110.9260487  63.6824637  87.8609621 110.3459156  64.3409441  87.4787673
 110.6596420  62.8601981  87.4497038 109.3764054  63.0829694  90.0630941
 109.8763832  63.1946229  89.2545260 110.0199662  62.7790747  90.7031749
 103.4346050  70.9908324 102.9498782 102.9513131  71.7908684 103.1562671
 103.5206989  71.0016269 101.9966226  99.3619387  74.8812859  94.9867216
 100.3162641  74.8496801  94.9197147  99.1631911  74.4203482  95.8017442
  99.9518769  73.4513975  97.5538013 100.7711658  73.9458053  97.5772851
 100.2255577  72.5345943  97.5255581 109.7085365  65.8424727  86.9165969
 108.8211220  66.1274378  86.6986164 110.1239354  65.6818490  86.0693246
 113.0599901  65.8671248  90.6320308 113.8360292  66.3567700  90.9044925
 112.3348036  66.2929302  91.0892178 115.4972460  66.5798867  91.6894249
 116.0916951  66.3394603  90.9787557 115.5699044  65.8605998  92.3167785
 109.6826389  71.3579263  87.1316259 109.6261590  71.8147814  86.2923892
 110.2354732  70.5969947  86.9539102 113.4931195  67.1468995  87.9566379
 113.2368129  66.7465630  88.7874586 112.8684063  67.8612789  87.8316518
 117.8043533  69.8865068  90.4637670 117.2443091  69.9558257  91.2369232
 117.1987036  69.7106053  89.7437166 107.7307076  74.8532956 103.7522351
 108.5998235  75.0273608 103.3908986 107.2513827  75.6727373 103.6298080
 103.7257294  62.0492153  84.0054107 103.7135964  62.9933993  84.1622378
 104.6180716  61.8662299  83.7113568 101.8993256  81.9730057  95.4311785
 102.8020502  82.0053667  95.7478280 101.6730626  81.0430508  95.4458121
 107.5409413  58.6434930  88.2600043 106.7741809  58.0893416  88.4056726
 107.9520118  58.7156799  89.1214195  99.5451174  64.9319726 102.3505225
 100.4082636  64.5756530 102.5608549  98.9716585  64.5933620 103.0380629
 116.6809041  87.6683862  99.0515356 116.6697681  87.2736660  98.1795860
 116.8429680  86.9349934  99.6449127 113.4016302  90.4520974  97.9994540
 113.1106168  91.3566604  97.8841206 114.0373286  90.4937501  98.7138610
 118.3606187  90.1382389  94.9944334 118.0606910  91.0407428  94.8860141
 118.0157246  89.8714572  95.8465487 115.8344196  84.0754575 100.6176668
 115.0577530  84.6348495 100.6079533 116.4734759  84.5611358 101.1391538
 114.0890569  86.8840028 100.1794635 114.8305253  87.4225072  99.9029459
 113.3827554  87.5106317 100.3366187 119.5645908  89.0269169  98.7766797
 119.9729264  88.5851579  98.0321429 118.8423170  88.4521796  99.0300990
 115.9176978  83.9641775  96.1500354 116.7638174  84.3881189  96.2935003
 115.8575616  83.3075400  96.8438917 119.0676424  81.6246144  97.8081527
 118.8237356  82.3788204  97.2715803 119.3436354  82.0031491  98.6428774
 121.0214886  88.1684756  96.4858793 121.2331782  88.8116516  95.8093174
 120.9744635  87.3347073  96.0180723 112.8251932  84.0379676 100.9809945
 112.1950593  84.7195957 101.2145342 112.7188020  83.9262758 100.0363083
 122.1360714  91.0456712  94.6581150 122.9578158  90.6436899  94.3763832
 122.1323117  90.9424946  95.6097266 115.9017318  90.5940755  96.8141861
 115.9661750  91.0561162  97.6500033 115.1928242  89.9638120  96.9424171
 106.4034608  83.9581963  94.3390860 106.6542646  84.8428973  94.6048436
 106.9394156  83.7786564  93.5665952 112.1032675  78.3400442 103.3435196
 111.7099621  77.7866641 104.0182841 112.9198815  78.6511021 103.7341714
 115.0200636  79.7558321 100.9355453 115.7610349  80.3565474 100.8559915
 115.2518559  79.0135959 100.3773495 110.1641974  84.9414689  99.2133683
 110.0495489  84.0399946  99.5140781 109.3086492  85.1878385  98.8618499
 117.2433812  92.8832429 100.8121183 116.7997666  92.0968807 100.4942088
 117.9051025  93.0711579 100.1465074 119.3415050  93.1635229  98.8402584
 119.3233525  93.9844110  98.3482854 120.2634970  93.0389304  99.0652726
 115.7988104  90.6779358  99.6826093 116.3316441  89.9167646  99.4525401
 115.2702185  90.3853010 100.4250247 118.9657799  75.7839424  95.2119735
 118.6222068  76.6741066  95.1358845 119.3336762  75.5941082  94.3489320
 114.2897225  78.2382809  92.1835150 115.1550222  78.0425618  91.8241039
 114.3574734  78.0093161  93.1104506 118.2161496  96.3343068  83.1176564
 117.5423195  96.6374765  83.7261522 118.6027318  97.1372149  82.7682021
 120.7645465  75.0432983  90.3137472 121.0704342  74.1830347  90.0263387
 121.4898070  75.6350604  90.1136466 118.5733116  84.4205661  97.4118936
 118.9282504  84.6477134  98.2713402 119.2205247  84.7524038  96.7896191
 112.4672979  81.5282192  94.1965277 113.1072358  81.3870951  93.4988240
 111.6350510  81.2416705  93.8203879 124.3300233  89.6100624  93.1279537
 124.7636739  89.5175913  93.9762591 125.0431813  89.5858124  92.4899553
 118.0628128  93.2102718  94.6612637 118.1165150  93.7793654  95.4290353
 117.1942909  93.3804603  94.2966674 110.9426521  82.9120274  96.1437088
 111.6149574  82.7037636  95.4949737 110.1156307  82.7142360  95.7042321
 125.1915782  89.6524324  95.6612422 125.3851672  90.5570135  95.9071697
 125.0916400  89.1931743  96.4951007 116.8452093  79.5382215  98.1602749
 116.1980008  80.2372165  98.0667226 117.6153108  79.9718359  98.5278997
 120.2530891  89.8031067 101.2353303 120.1016397  89.5741619 100.3183386
 120.2435570  90.7601668 101.2484648 117.0216227  87.3762980  96.2199569
 117.9508287  87.5274139  96.0468536 116.6007257  87.4647001  95.3648216
 115.8204559  91.4013644  93.9898107 115.6815645  91.0332429  94.8624045
 115.0319155  91.9161284  93.8182064 111.3454018  86.1862877  96.9039526
 111.2073816  85.4543116  97.5051065 112.2558942  86.0971777  96.6223713
 113.9736319  85.8982836  96.3923205 114.6835937  85.2576028  96.3509824
 113.9305627  86.1495731  97.3149386 121.9623097  92.8350190  99.3129784
 121.9035644  92.1509410  98.6460367 122.3642616  93.5769180  98.8610410
 112.6865253  82.8848054  98.2118845 112.1502610  82.4338793  98.8640441
 112.0981961  83.0193963  97.4689309 121.9640505  90.7989774  97.5443764
 121.0767284  90.4615695  97.6670163 122.5339056  90.0672805  97.7812530
 108.4204374  82.0204062  95.2971839 108.3362563  81.4129731  94.5622249
 107.5987080  82.5113080  95.2981336 116.8541114  86.4036922 101.7987324
 116.1781751  86.3031051 102.4689699 117.6768748  86.2476136 102.2623321
 110.5728390  80.0578999  96.6366825 110.6369717  80.9193830  96.2244223
 110.5095511  79.4453001  95.9039183 110.0480663  82.1302132 100.2839859
 110.6752702  81.7479209 100.8977384 109.1908582  81.9116334 100.6495552
 120.4474771  92.5365107 101.8893595 120.9914675  93.1495065 101.3948549
 119.8661616  93.0944685 102.4060608 120.7967193  93.4594845  94.6488172
 119.8497528  93.3400196  94.5766499 121.1449966  92.5717343  94.7314434
 113.1566766  79.3488984  98.4726414 113.6801168  79.5951280  99.2352724
 112.9379099  80.1809019  98.0529552 114.3619311  80.2902679  96.1576085
 114.0216132  79.4910492  96.5596765 113.6558317  80.5904390  95.5852918
 115.0135783  77.3751991  94.6103408 115.8361852  76.9012470  94.4882298
 115.2573847  78.1542475  95.1102094 114.3970745  81.0573660  92.4676276
 114.3832313  80.1614753  92.1308574 115.1143173  81.0644324  93.1014562
 116.2496875  81.4911000  94.5129404 115.9914653  82.4128071  94.5113734
 115.7181916  81.0941435  95.2029868 107.7986046  85.7346353  98.2513205
 107.0567782  85.8828988  98.8377835 107.4778790  85.9954618  97.3879954
 113.2848720  81.4520038 101.9453779 113.3336876  82.3282160 101.5631548
 113.8271234  80.9097431 101.3725422 123.7703566  91.9961161 101.2254916
 122.9799109  91.9785300 100.6859415 123.5336920  92.5349455 101.9803952
 123.8901441  88.8453627  98.5387644 123.9399446  88.6803635  99.4803167
 123.7815364  87.9780886  98.1485525 121.1805203  84.8284555  99.8546951
 122.0815066  84.6891020  99.5630949 121.2553178  84.9939010 100.7945129
 115.5148009  82.2051410  98.7000137 114.6451318  82.4984976  98.4282726
 115.7507489  82.7891855  99.4207401 125.3919638  91.2650569  98.7829666
 125.1004446  91.6280549  99.6193127 124.7791769  90.5517577  98.6042998
 126.5915320  88.8303449  91.3032236 127.4262211  89.2693253  91.4669797
 126.7274449  88.3542102  90.4840482 123.6406826  86.3883183  97.2509724
 124.1160947  86.5810830  96.4428575 122.7172391  86.4442369  97.0053108
 118.2187042  78.4231027  96.2165558 118.7368986  79.1592054  95.8912046
 117.8642175  78.7295020  97.0512317 118.4699637  74.8431310  91.7366454
 118.7501390  74.1754499  92.3626881 119.2550243  75.0360405  91.2241118
 116.2733105  94.0190303  83.2991481 115.7007072  94.6380491  82.8461953
 116.8465899  94.5689665  83.8331403 122.1218381  93.6193324  81.3904011
 122.0432013  93.2853187  82.2839769 122.9428048  94.1115092  81.3895483
 124.8196573  86.4855063  94.5980329 124.7872893  85.5471064  94.7840013
 125.4297196  86.5639100  93.8646154 124.9691061  83.2766107  94.6438612
 124.4530110  82.4924563  94.4568541 125.8531010  82.9484823  94.8085132
 122.6301788  77.0207122  90.6034425 122.4326609  76.7122210  91.4877757
 123.2401494  77.7468761  90.7332355 130.6373123  87.5471070  93.7386366
 131.3676511  87.2856358  94.2994069 130.0280068  86.8099792  93.7788434
 128.7188420  85.6878933  94.3360817 127.9921583  85.5534898  93.7277309
 128.3035707  85.9955761  95.1417535 116.5418596  89.4068862 102.1008190
 117.4621606  89.5847461 102.2948237 116.5068179  88.4624908 101.9487890
 114.4108534  82.8903103 104.1333720 114.3105261  83.8397460 104.0645811
 114.1930076  82.5621342 103.2609790 114.2739804  86.3200242 102.9498782
 113.7906886  87.1200602 103.1562671 114.3600743  86.3308186 101.9966226
 110.7912524  88.7805892  97.5538013 111.6105413  89.2749971  97.5772851
 111.0649331  87.8637860  97.5255581 123.8993656  81.1963166  90.6320308
 124.6754046  81.6859618  90.9044925 123.1741790  81.6221220  91.0892178
 106.0447438  83.1144026  98.2530211 106.6906301  82.6042980  98.7417436
 105.8364589  83.8512708  98.8273636 118.5700830  90.1824874 103.7522351
 119.4391990  90.3565526 103.3908986 118.0907582  91.0019290 103.6298080
 110.3844929  80.2611643 102.3505225 111.2476390  79.9048448 102.5608549
 109.8110340  79.9225538 103.0380629 130.2293306 101.8913500  93.1567626
 130.8671716 101.7720247  92.4530966 130.1114149 102.8394344  93.2155578
 127.0383012 101.8440928  93.0929150 126.7001524 101.7281992  92.2049685
 127.9072780 101.4432093  93.0730157 127.5202795 102.9975779  99.0515356
 127.5091436 102.6028578  98.1795860 127.6823435 102.2641852  99.6449127
 124.2410056 105.7812891  97.9994540 123.9499922 106.6858522  97.8841206
 124.8767041 105.8229419  98.7138610 124.7391291 100.6129175  82.4246091
 124.9916812 100.0910696  81.6629554 123.8015851 100.4495321  82.5272774
 129.7834574  99.6164953  90.2320834 130.5697663  99.1984377  89.8811251
 130.0473279 100.5211046  90.4002482 135.1843001  99.5540187  91.1353812
 135.9168173  98.9839403  91.3691642 134.4282357  99.1661787  91.5760318
 126.8019121 101.9767428  88.3317155 126.4377328 101.4498049  89.0430076
 127.6586237 101.5865897  88.1583640 132.7068422  93.2661761  95.5948421
 132.3751747  94.1357172  95.3709636 132.1114035  92.9498045  96.2742451
 126.4424608  97.0057328  83.3278503 126.6099010  97.8737564  83.6948974
 126.2521777  97.1684610  82.4039793 129.1999941 105.4674307  94.9944334
 128.9000664 106.3699346  94.8860141 128.8551001 105.2006490  95.8465487
 132.5997085  97.9856847  92.6741771 131.6913962  97.9172255  92.3800532
 132.5484681  98.4628792  93.5023596 126.4213829  99.4614985  84.3125170
 126.3013454  99.9072036  85.1510650 125.7266417  99.8100303  83.7538708
 126.6737951  99.4046493 100.6176668 125.8971285  99.9640413 100.6079533
 127.3128514  99.8903275 101.1391538 134.4658731  96.1873285  94.4519645
 133.8233112  96.4805818  93.8059439 133.9613660  96.0726206  95.2572842
 132.1198895  99.9336459  85.1405504 133.0316751 100.1663845  84.9653202
 131.6108542 100.5173503  84.5780583 124.9284323 102.2131946 100.1794635
 125.6699008 102.7516990  99.9029459 124.2221309 102.8398235 100.3366187
 130.4039663 104.3561086  98.7766797 130.8123019 103.9143497  98.0321429
 129.6816924 103.7813714  99.0300990 126.7570733  99.2933693  96.1500354
 127.6031928  99.7173107  96.2935003 126.6969371  98.6367317  96.8438917
 130.7268477 104.9162277  92.5319086 130.0977340 105.0807991  91.8295153
 130.3394140 105.3303887  93.3030050 134.6057709 105.8516715  89.8863449
 133.9208747 106.2315616  89.3360483 134.6901559 106.4612041  90.6195397
 129.9070178  96.9538061  97.8081527 129.6631110  97.7080122  97.2715803
 130.1830109  97.3323409  98.6428774 131.8608641 103.4976674  96.4858793
 132.0725536 104.1408434  95.8093174 131.8138389 102.6638990  96.0180723
 129.4634870  96.1094494  93.3895365 128.6019349  96.4075748  93.6812103
 129.4897305  96.3264893  92.4576398 123.6645687  99.3671594 100.9809945
 123.0344347 100.0487875 101.2145342 123.5581775  99.2554676 100.0363083
 118.9590659  99.0343390  91.9075869 118.1689713  99.2900919  91.4315980
 119.4501907  99.8491728  92.0127910 132.9754469 106.3748629  94.6581150
 133.7971913 105.9728817  94.3763832 132.9716872 106.2716863  95.6097266
 126.7411072 105.9232673  96.8141861 126.8055505 106.3853080  97.6500033
 126.0321996 105.2930037  96.9424171 141.0660462 102.7187378  91.0066122
 140.3124170 102.1494776  90.8510126 141.2008003 102.6850042  91.9536756
 122.9426430  93.6692360 103.3435196 122.5493375  93.1158558 104.0182841
 123.7592570  93.9802938 103.7341714 125.8594391  95.0850239 100.9355453
 126.6004104  95.6857392 100.8559915 126.0912313  94.3427877 100.3773495
 121.0035729 100.2706606  99.2133683 120.8889244  99.3691863  99.5140781
 120.1480246 100.5170303  98.8618499 128.0827566 108.2124347 100.8121183
 127.6391421 107.4260725 100.4942088 128.7444780 108.4003497 100.1465074
 130.1808804 108.4927146  98.8402584 130.1627280 109.3136028  98.3482854
 131.1028724 108.3681222  99.0652726 126.6381859 106.0071276  99.6826093
 127.1710195 105.2459564  99.4525401 126.1095940 105.7144928 100.4250247
 129.8051554  91.1131342  95.2119735 129.4615823  92.0032984  95.1358845
 130.1730516  90.9233000  94.3489320 129.7701836 101.1039953  83.7192170
 129.2548460 101.8744558  83.9580557 129.4979145 100.4305089  84.3425231
 127.3548947  95.9489654  88.7777408 126.4990544  95.5596504  88.5983047
 127.7675899  96.0281615  87.9177194 128.8848094  93.4835997  93.1768968
 128.3812890  93.4466132  92.3636773 129.1778701  94.3928740  93.2365624
 125.1290980  93.5674727  92.1835150 125.9943977  93.3717535  91.8241039
 125.1968489  93.3385079  93.1104506 134.7436110 103.8572308  85.6545343
 133.9665553 103.5183467  85.2100505 135.4227591 103.8624931  84.9800308
 129.5588139  98.9767045  85.5451951 129.2538275  99.2913194  86.3962094
 130.5118582  99.0548465  85.5879284 132.9827417 103.3306289  92.3111951
 132.3251092 104.0205550  92.3992080 133.7867817 103.7202721  92.6545937
 131.7932876 101.6850662  90.3615893 132.3064758 102.3180653  90.8637603
 132.4434100 101.0851857  89.9959253 123.0622886  97.8281396  83.5747402
 122.2260198  98.1656082  83.8956676 122.9227656  97.6930376  82.6374539
 125.0375967  92.6718184  88.2826586 124.3840379  92.3567201  87.6583201
 124.9956441  92.0493924  89.0086409 126.1487171 102.9537479  80.1979878
 125.2414233 102.7226732  80.3971027 126.6458203 102.1575098  80.3853859
 128.2713707  99.1600117  92.6074233 127.3536268  99.3815064  92.4495921
 128.6873851  99.2346428  91.7485941 129.0548755 100.5591533  87.7376914
 129.8020574 101.0712930  87.4284036 129.3240344 100.2375586  88.5981307
 131.5027592  97.5948649  89.7195703 130.7650349  97.0826035  90.0505945
 131.7554365  97.1549031  88.9078980 125.8760299 100.6678694  90.8213663
 125.9308909  99.7152531  90.7456140 125.0651501 100.8238133  91.3054962
 129.4126871  99.7497578  97.4118936 129.7676258  99.9769052  98.2713402
 130.0599002 100.0815955  96.7896191 135.1424607 102.8716014  88.1168265
 135.0042506 103.0617610  87.1889454 134.7860826 103.6335397  88.5736316
 123.3066734  96.8574109  94.1965277 123.9466113  96.7162869  93.4988240
 122.4744264  96.5708623  93.8203879 135.1693987 104.9392541  93.1279537
 135.6030494 104.8467830  93.9762591 135.8825568 104.9150042  92.4899553
 128.9021882 108.5394635  94.6612637 128.9558904 109.1085572  95.4290353
 128.0336663 108.7096520  94.2966674 121.7820275  98.2412192  96.1437088
 122.4543329  98.0329554  95.4949737 120.9550062  98.0434278  95.7042321
 136.0309537 104.9816242  95.6612422 136.2245427 105.8862052  95.9071697
 135.9310155 104.5223661  96.4951007 127.6845847  94.8674133  98.1602749
 127.0373762  95.5664082  98.0667226 128.4546863  95.3010276  98.5278997
 131.0924645 105.1322985 101.2353303 130.9410152 104.9033536 100.3183386
 131.0829325 106.0893586 101.2484648 127.8609982 102.7054897  96.2199569
 128.7902042 102.8566057  96.0468536 127.4401012 102.7938918  95.3648216
 122.1847773 101.5154795  96.9039526 122.0467571 100.7835033  97.5051065
 123.0952696 101.4263695  96.6223713 131.1462720 103.4543199  81.6524004
 130.5291891 102.7290027  81.5557057 130.6779209 104.2152559  81.3091078
 124.8130073 101.2274754  96.3923205 125.5229692 100.5867946  96.3509824
 124.7699381 101.4787649  97.3149386 132.8016852 108.1642107  99.3129784
 132.7429398 107.4801327  98.6460367 133.2036370 108.9061097  98.8610410
 123.5259007  98.2139972  98.2118845 122.9896364  97.7630710  98.8640441
 122.9375716  98.3485881  97.4689309 121.8207551 114.9804021  92.1063503
 122.0604149 115.6122545  92.7842522 120.9776747 114.6292061  92.3928863
 122.9361266  97.6728623  80.7745308 122.0590733  97.5517424  80.4107555
 123.4119019  96.8814701  80.5224197 132.8034259 106.1281691  97.5443764
 131.9161038 105.7907613  97.6670163 133.3732810 105.3964722  97.7812530
 126.3335413 110.7883144  94.5105007 126.2605584 111.5938115  95.0224312
 125.8912806 110.9875109  93.6853029 129.4321842  95.8349543  90.6642034
 129.9290542  95.0819505  90.3443104 128.6608824  95.8713860  90.0985244
 137.2851600 101.5389909  92.3060326 137.2741476 102.4214624  91.9354259
 136.4168979 101.1861459  92.1114863 128.7934096 110.6869978  96.6663166
 129.5062068 111.3217442  96.5939067 128.3024125 110.7833844  95.8503168
 130.5151623 104.5921230  88.2380458 129.5807902 104.7122693  88.0685162
 130.6928292 103.6893697  87.9740467 133.9024174 100.4338550  88.7730492
 134.3684627 101.2666541  88.6990794 134.3531675  99.9683531  89.4775750
 123.8446010 108.4364421  97.4868737 124.5455469 109.0700904  97.6398131
 123.3741125 108.7779153  96.7264376 131.8740837  92.8019137  92.8121393
 130.9603917  93.0323363  92.9803600 132.3033939  92.8857581  93.6635425
 131.6447296 100.9909028  95.3121287 130.9918746 101.2384936  94.6573740
 132.0227676 100.1773167  94.9783764 127.6934869 101.7328840 101.7987324
 127.0175506 101.6322969 102.4689699 128.5162503 101.5768053 102.2623321
 126.4357652 113.0395767  96.0344940 126.9875960 113.2027388  96.7994025
 126.7763845 113.6300205  95.3624965 121.4122145  95.3870917  96.6366825
 121.4763471  96.2485748  96.2244223 121.3489265  94.7744918  95.9039183
 120.8874417  97.4594049 100.2839859 121.5146456  97.0771127 100.8977384
 120.0302336  97.2408251 100.6495552 131.2868526 107.8657024 101.8893595
 131.8308430 108.4786983 101.3948549 130.7055371 108.4236603 102.4060608
 129.5726039 110.9877743  93.0208622 129.4477178 110.1867482  92.5119568
 130.2305130 111.4823936  92.5322592 131.6360947 108.7886763  94.6488172
 130.6891283 108.6692114  94.5766499 131.9843720 107.9009261  94.7314434
 123.9960521  94.6780902  98.4726414 124.5194922  94.9243198  99.2352724
 123.7772854  95.5100936  98.0529552 132.2441502 109.4068038  91.9357397
 133.1688050 109.2010899  91.7981849 132.0756806 109.1584439  92.8446739
 125.2013066  95.6194597  96.1576085 124.8609886  94.8202410  96.5596765
 124.4952072  95.9196307  95.5852918 125.8529537  92.7043909  94.6103408
 126.6755607  92.2304387  94.4882298 126.0967601  93.4834393  95.1102094
 124.4937772  95.7332167  84.9066310 125.2146134  96.1113420  84.4030026
 123.8703076  96.4521044  85.0101288 128.6368895  96.4377316  85.8424642
 128.8532509  97.3201954  85.5413470 128.1562962  96.0463530  85.1130284
 123.3768116  99.3963030  92.4195387 123.2312697  99.7103333  93.3119668
 122.8993320 100.0147930  91.8666285 125.2364499  96.3865578  92.4676276
 125.2226068  95.4906671  92.1308574 125.9536927  96.3936241  93.1014562
 127.0890630  96.8202918  94.5129404 126.8308408  97.7419989  94.5113734
 126.5575670  96.4233352  95.2029868 127.5092585  92.9534868  90.8730566
 127.5314282  93.0174201  89.9182546 127.9260644  92.1139377  91.0671072
 137.8876210 102.6890128  88.9109789 138.3307356 101.9397453  88.5128912
 137.0102720 102.6800264  88.5283521 134.9203414 106.6920175  85.9203718
 135.4454738 107.0307448  85.1953038 134.8325767 105.7567190  85.7366853
 126.5823463 110.6054249  98.0493595 126.8910589 110.3603395  98.9216294
 127.3798945 110.8100887  97.5612465 124.1242475  96.7811955 101.9453779
 124.1730630  97.6574078 101.5631548 124.6664989  96.2389348 101.3725422
 134.6097320 107.3253079 101.2254916 133.8192864 107.3077217 100.6859415
 134.3730675 107.8641372 101.9803952 134.7295195 104.1745545  98.5387644
 134.7793200 104.0095552  99.4803167 134.6209119 103.3072804  98.1485525
 132.0198958 100.1576473  99.8546951 132.9208820 100.0182938  99.5630949
 132.0946932 100.3230928 100.7945129 126.3541763  97.5343328  98.7000137
 125.4845072  97.8276894  98.4282726 126.5901243  98.1183773  99.4207401
 136.2313392 106.5942486  98.7829666 135.9398200 106.9572467  99.6193127
 135.6185523 105.8809495  98.6042998 137.4309074 104.1595366  91.3032236
 138.2655966 104.5985170  91.4669797 137.5668203 103.6834019  90.4840482
 134.4800580 101.7175101  97.2509724 134.9554702 101.9102747  96.4428575
 133.5566146 101.7734287  97.0053108 129.0580797  93.7522945  96.2165558
 129.5762741  94.4883972  95.8912046 128.7035930  94.0586938  97.0512317
 120.6379735  98.6127626  84.3326964 119.9448979  98.6871981  83.6767000
 120.3931486  97.8487969  84.8548481 133.1802249  98.5940861  95.4838030
 134.1319672  98.6938959  95.5050254 133.0105700  97.8019130  95.9936114
 131.2016629  95.6796444  95.6697431 130.6066561  95.9601457  94.9743919
 130.9166326  96.1690345  96.4414172 135.6590327 101.8146981  94.5980329
 135.6266647 100.8762982  94.7840013 136.2690951 101.8931018  93.8646154
 127.4973658 100.6843034  80.6407533 128.4432763 100.5549242  80.7095951
 127.1187903  99.9457696  81.1176961 135.8084816  98.6058024  94.6438612
 135.2923864  97.8216481  94.4568541 136.6924764  98.2776741  94.8085132
 141.4766877 102.8762988  93.7386366 142.2070265 102.6148276  94.2994069
 140.8673822 102.1391710  93.7788434 139.5582174 101.0170850  94.3360817
 138.8315338 100.8826815  93.7277309 139.1429461 101.3247679  95.1417535
 127.3812351 104.7360780 102.1008190 128.3015360 104.9139379 102.2948237
 127.3461934 103.7916825 101.9487890 125.6816575  98.6093010  80.5762419
 124.7748031  98.3126123  80.6525132 125.9592556  98.3122828  79.7096705
 127.2978641  93.1529900  86.7306660 126.4879369  92.8076985  87.1061906
 127.9863058  92.8437444  87.3194271 125.2502288  98.2195020 104.1333720
 125.1499015  99.1689377 104.0645811 125.0323830  97.8913259 103.2609790
 125.1133558 101.6492159 102.9498782 124.6300640 102.4492519 103.1562671
 125.1994498 101.6600104 101.9966226 131.3872874  96.5008562  86.9165969
 130.4998729  96.7858213  86.6986164 131.8026863  96.3402326  86.0693246
 134.7387410  96.5255083  90.6320308 135.5147801  97.0151536  90.9044925
 134.0135545  96.9513137  91.0892178 137.1759969  97.2382702  91.6894249
 137.7704460  96.9978438  90.9787557 137.2486553  96.5189833  92.3167785
 130.5316088 106.2653237  81.0113989 131.2351938 106.4703239  81.6271645
 129.8078737 106.8329999  81.2763072 131.3613898 102.0163098  87.1316259
 131.3049099 102.4731650  86.2923892 131.9142241 101.2553783  86.9539102
 135.1718704  97.8052830  87.9566379 134.9155638  97.4049466  88.7874586
 134.5471572  98.5196624  87.8316518 139.4831042 100.5448903  90.4637670
 138.9230600 100.6142093  91.2369232 138.8774545 100.3689888  89.7437166
 132.0948677 103.2067879  84.4268788 132.0397481 103.0412151  83.4857232
 131.4694733 103.9143912  84.5830978 129.4094585 105.5116791 103.7522351
 130.2785744 105.6857444 103.3908986 128.9301336 106.3311208 103.6298080
 123.5780765 112.6313892  95.4311785 124.4808011 112.6637503  95.7478280
 123.3518135 111.7014343  95.4458121 121.2238683  95.5903561 102.3505225
 122.0870145  95.2340366 102.5608549 120.6504094  95.2517456 103.0380629
 141.0687060 117.2205417  93.1567626 141.7065470 117.1012165  92.4530966
 140.9507903 118.1686261  93.2155578 137.8776767 117.1732845  93.0929150
 137.5395278 117.0573910  92.2049685 138.7466535 116.7724010  93.0730157
 133.7363582 119.0268322  89.0826041 133.1728447 118.9358259  88.3142329
 133.6215977 118.2068226  89.5628534 138.3596550 118.3267697  99.0515356
 138.3485190 117.9320495  98.1795860 138.5217189 117.5933770  99.6449127
 131.2828014 120.5219513  91.9210262 132.0749306 120.1810338  91.5056561
 131.5224664 120.6314488  92.8412415 139.3163141 122.6939289  84.3940506
 138.6651121 123.2793370  84.0074520 140.1107504 123.2245484  84.4535544
 133.2418768 119.7828427  84.7927641 134.0149644 119.2357414  84.6540516
 133.5944167 120.6472676  85.0042102 135.0803811 121.1104809  97.9994540
 134.7893677 122.0150440  97.8841206 135.7160795 121.1521337  98.7138610
 136.0060018 118.4881657  94.5895900 136.6023590 118.2637680  93.8752863
 136.0634989 117.7466403  95.1921347 135.5785046 115.9421093  82.4246091
 135.8310567 115.4202614  81.6629554 134.6409605 115.7787238  82.5272774
 140.6228329 114.9456871  90.2320834 141.4091418 114.5276294  89.8811251
 140.8867033 115.8502963  90.4002482 140.7938406 120.3829721  84.9309491
 140.1584239 120.4564348  85.6430395 140.4635813 120.9723320  84.2528570
 146.0236756 114.8832104  91.1353812 146.7561928 114.3131321  91.3691642
 145.2676112 114.4953705  91.5760318 135.2981335 117.8449199  84.6270466
 135.1817593 117.1694102  85.2951550 135.4083595 117.3581573  83.8102619
 137.6412876 117.3059346  88.3317155 137.2771083 116.7789967  89.0430076
 138.4979992 116.9157815  88.1583640 143.5462176 108.5953678  95.5948421
 143.2145501 109.4649089  95.3709636 142.9507790 108.2789962  96.2742451
 137.2818363 112.3349246  83.3278503 137.4492765 113.2029482  83.6948974
 137.0915532 112.4976527  82.4039793 140.0393696 120.7966224  94.9944334
 139.7394419 121.6991263  94.8860141 139.6944755 120.5298408  95.8465487
 133.4906177 117.2480021  91.0281038 132.5656674 117.1156235  91.2358730
 133.7390590 118.0274240  91.5250980 143.4390840 113.3148765  92.6741771
 142.5307717 113.2464173  92.3800532 143.3878435 113.7920710  93.5023596
 137.2607583 114.7906903  84.3125170 137.1407209 115.2363954  85.1510650
 136.5660172 115.1392221  83.7538708 130.8514988 116.8913295  91.8624827
 130.9807369 117.1447774  92.7764239 130.1712440 117.4841003  91.5429482
 135.0214476 127.5610545  87.9615301 134.9438505 128.5118370  88.0403782
 134.4176119 127.2156417  88.6190228 137.5131705 114.7338410 100.6176668
 136.7365039 115.2932330 100.6079533 138.1522268 115.2195193 101.1391538
 145.3052486 111.5165203  94.4519645 144.6626866 111.8097736  93.8059439
 144.8007414 111.4018123  95.2572842 142.9592650 115.2628376  85.1405504
 143.8710506 115.4955763  84.9653202 142.4502297 115.8465420  84.5780583
 135.7678078 117.5423864 100.1794635 136.5092762 118.0808908  99.9029459
 135.0615063 118.1690152 100.3366187 141.2433417 119.6853004  98.7766797
 141.6516773 119.2435415  98.0321429 140.5210679 119.1105632  99.0300990
 137.5964487 114.6225611  96.1500354 138.4425683 115.0465024  96.2935003
 137.5363125 113.9659235  96.8438917 141.5662232 120.2454195  92.5319086
 140.9371094 120.4099909  91.8295153 141.1787894 120.6595804  93.3030050
 145.4451464 121.1808632  89.8863449 144.7602502 121.5607534  89.3360483
 145.5295313 121.7903959  90.6195397 140.7463933 112.2829979  97.8081527
 140.5024865 113.0372040  97.2715803 141.0223863 112.6615327  98.6428774
 142.7002395 118.8268592  96.4858793 142.9119291 119.4700351  95.8093174
 142.6532144 117.9930908  96.0180723 140.3028624 111.4386412  93.3895365
 139.4413103 111.7367666  93.6812103 140.3291059 111.6556811  92.4576398
 137.1190194 119.9828603  89.7969171 137.5828539 120.2616306  89.0073793
 136.8546992 119.0812047  89.6142261 134.0114275 119.5300084  92.7348934
 134.5815632 119.9587353  92.0966418 134.6022387 119.2482669  93.4333120
 136.0559080 116.1051755  86.6058736 136.7583123 116.5572799  87.0732662
 135.7239708 115.4635574  87.2338629 134.5039441 114.6963512 100.9809945
 133.8738102 115.3779793 101.2145342 134.3975529 114.5846593 100.0363083
 129.7984414 114.3635308  91.9075869 129.0083468 114.6192836  91.4315980
 130.2895661 115.1783646  92.0127910 143.8148223 121.7040547  94.6581150
 144.6365667 121.3020734  94.3763832 143.8110626 121.6008781  95.6097266
 131.7499159 114.7279887  88.8659346 130.9530322 114.8398581  89.3842842
 131.5224751 115.0666539  88.0000237 137.5804827 121.2524590  96.8141861
 137.6449259 121.7144997  97.6500033 136.8715751 120.6221955  96.9424171
 128.0822117 114.6165798  94.3390860 128.3330155 115.5012808  94.6048436
 128.6181665 114.4370400  93.5665952 151.9054216 118.0479295  91.0066122
 151.1517925 117.4786693  90.8510126 152.0401758 118.0141960  91.9536756
 137.2952844 122.9192698  86.6820841 137.1598519 123.7644233  87.1105689
 137.8362657 123.1211975  85.9186775 133.7820184 108.9984278 103.3435196
 133.3887130 108.4450476 104.0182841 134.5986324 109.3094856 103.7341714
 130.7482242 120.4368136  87.2548766 131.2606762 121.2311386  87.4054331
 131.4004955 119.7394426  87.1882368 132.5577127 123.5533892  89.3371519
 132.7343755 124.4751857  89.1492503 133.3533960 123.2392311  89.7665899
 136.6988145 110.4142157 100.9355453 137.4397858 111.0149310 100.8559915
 136.9306068 109.6719794 100.3773495 131.8429483 115.5998524  99.2133683
 131.7282998 114.6983781  99.5140781 130.9874001 115.8462221  98.8618499
 138.9221321 123.5416264 100.8121183 138.4785175 122.7552643 100.4942088
 139.5838534 123.7295415 100.1465074 133.6808442 125.0712066  95.3381862
 134.2315867 124.9429129  94.5658856 132.8419918 125.3706955  94.9876754
 141.0202559 123.8219064  98.8402584 141.0021034 124.6427945  98.3482854
 141.9422479 123.6973139  99.0652726 137.4775613 121.3363194  99.6826093
 138.0103950 120.5751482  99.4525401 136.9489694 121.0436845 100.4250247
 140.6445308 106.4423260  95.2119735 140.3009577 107.3324901  95.1358845
 141.0124271 106.2524917  94.3489320 128.7131159 118.7656790  88.0308337
 129.5506381 119.1753798  87.8142044 128.8909426 117.8256232  88.0008531
 140.6095591 116.4331871  83.7192170 140.0942214 117.2036475  83.9580557
 140.3372899 115.7597007  84.3425231 138.1942702 111.2781571  88.7777408
 137.3384298 110.8888422  88.5983047 138.6069654 111.3573532  87.9177194
 139.7241848 108.8127915  93.1768968 139.2206644 108.7758050  92.3636773
 140.0172455 109.7220657  93.2365624 135.9684734 108.8966644  92.1835150
 136.8337731 108.7009453  91.8241039 136.0362243 108.6676996  93.1104506
 145.5829865 119.1864225  85.6545343 144.8059308 118.8475385  85.2100505
 146.2621346 119.1916849  84.9800308 140.3981894 114.3058963  85.5451951
 140.0932030 114.6205112  86.3962094 141.3512336 114.3840383  85.5879284
 138.8428326 120.4649186  87.1944905 138.3149687 119.7301946  86.8818142
 138.3415829 121.2423862  86.9484873 143.8221172 118.6598207  92.3111951
 143.1644846 119.3497468  92.3992080 144.6261571 119.0494639  92.6545937
 133.5747053 111.1268852  89.5551516 134.1490805 110.9044034  88.8224709
 134.1618036 111.1957547  90.3080118 142.6326631 117.0142579  90.3615893
 143.1458512 117.6472571  90.8637603 143.2827854 116.4143775  89.9959253
 135.8769721 108.0010101  88.2826586 135.2234133 107.6859118  87.6583201
 135.8350195 107.3785842  89.0086409 136.9880926 118.2829396  80.1979878
 136.0807988 118.0518650  80.3971027 137.4851958 117.4867016  80.3853859
 139.8949005 126.9926904  83.1176564 139.2210704 127.2958600  83.7261522
 140.2814827 127.7955984  82.7682021 139.1107461 114.4892035  92.6074233
 138.1930023 114.7106982  92.4495921 139.5267605 114.5638345  91.7485941
 139.8942509 115.8883451  87.7376914 140.6414328 116.4004848  87.4284036
 140.1634099 115.5667503  88.5981307 138.1669159 118.3841991  84.7203868
 137.2580379 118.1001024  84.8176338 138.1964243 118.8041070  83.8607175
 143.3988427 121.9948581  88.4895035 142.9450754 121.1539491  88.5460226
 142.7682394 122.6309979  88.8269816 142.3421346 112.9240567  89.7195703
 141.6044103 112.4117953  90.0505945 142.5948120 112.4840948  88.9078980
 141.8421366 123.8325077  89.4244854 142.1344340 124.3930135  88.7057219
 142.3519987 124.1253638  90.1798013 142.4432974 105.7016819  90.3137472
 142.7491851 104.8414182  90.0263387 143.1685579 106.2934439  90.1136466
 128.7357330 116.1047505  88.7019070 128.5381730 115.5116866  87.9770137
 128.1803994 115.7999716  89.4195009 136.7154053 115.9970612  90.8213663
 136.7702663 115.0444448  90.7456140 135.9045255 116.1530051  91.3054962
 137.8645247 119.9250735  82.0591946 137.4264677 119.2086594  81.5997584
 138.6055688 120.1526850  81.4977038 134.6546413 114.6147672  88.5804042
 133.8414279 114.9141842  88.9869234 135.1505408 114.2203360  89.2978524
 136.8054991 124.6105429  90.5138307 136.7631170 124.8366275  89.5846839
 137.7217690 124.3768803  90.6624108 140.2520625 115.0789496  97.4118936
 140.6070013 115.3060969  98.2713402 140.8992756 115.4107873  96.7896191
 145.9818362 118.2007932  88.1168265 145.8436261 118.3909528  87.1889454
 145.6254581 118.9627315  88.5736316 134.1460488 112.1866027  94.1965277
 134.7859867 112.0454786  93.4988240 133.3138019 111.9000541  93.8203879
 146.0087742 120.2684459  93.1279537 146.4424248 120.1759748  93.9762591
 146.7219322 120.2441959  92.4899553 134.9220792 121.4868458  90.3100270
 135.7161391 120.9918778  90.1082845 134.2112484 120.9586321  89.9467975
 139.7415636 123.8686553  94.6612637 139.7952659 124.4377489  95.4290353
 138.8730418 124.0388438  94.2966674 131.2303555 115.6311539  86.3860022
 130.3001144 115.5695995  86.6029984 131.3261027 115.1087492  85.5896663
 132.6214030 113.5704109  96.1437088 133.2937083 113.3621471  95.4949737
 131.7943816 113.3726195  95.7042321 146.8703291 120.3108160  95.6612422
 147.0639181 121.2153970  95.9071697 146.7703909 119.8515579  96.4951007
 138.5239602 110.1966050  98.1602749 137.8767517 110.8956000  98.0667226
 139.2940617 110.6302194  98.5278997 141.9318400 120.4614902 101.2353303
 141.7803906 120.2325454 100.3183386 141.9223079 121.4185504 101.2484648
 138.7003736 118.0346815  96.2199569 139.6295796 118.1857975  96.0468536
 138.2794766 118.1230836  95.3648216 137.4992068 122.0597480  93.9898107
 137.3603154 121.6916264  94.8624045 136.7106664 122.5745119  93.8182064
 138.0940220 127.1606576  85.3323643 138.2691976 126.6894619  86.1469266
 137.4073008 127.7872342  85.5604904 139.0497283 121.4379082  91.3786944
 138.7147116 121.3979852  92.2744594 138.5501229 120.7723798  90.9057355
 133.0241527 116.8446712  96.9039526 132.8861325 116.1126951  97.5051065
 133.9346451 116.7555612  96.6223713 141.9856475 118.7835117  81.6524004
 141.3685645 118.0581945  81.5557057 141.5172963 119.5444477  81.3091078
 135.6523828 116.5566672  96.3923205 136.3623446 115.9159864  96.3509824
 135.6093136 116.8079566  97.3149386 143.6410606 123.4934025  99.3129784
 143.5823153 122.8093245  98.6460367 144.0430125 124.2353015  98.8610410
 134.3652762 113.5431889  98.2118845 133.8290119 113.0922628  98.8640441
 133.7769470 113.6777798  97.4689309 132.6601305 130.3095939  92.1063503
 132.8997904 130.9414463  92.7842522 131.8170502 129.9583979  92.3928863
 133.7755021 113.0020541  80.7745308 132.8984487 112.8809342  80.4107555
 134.2512774 112.2106619  80.5224197 143.6428014 121.4573609  97.5443764
 142.7554793 121.1199531  97.6670163 144.2126565 120.7256640  97.7812530
 125.2957161 117.7897701  90.8686815 125.9828201 117.4759431  90.2807831
 125.1405290 118.6939065  90.5954067 130.0991883 112.6787897  95.2971839
 130.0150072 112.0713567  94.5622249 129.2774589 113.1696915  95.2981336
 137.1729167 126.1175061  94.5105007 137.0999339 126.9230033  95.0224312
 136.7306560 126.3167027  93.6853029 136.9618947 125.3546831  88.0207829
 136.1786469 125.8968511  88.1146053 137.6611692 125.8720811  88.4202070
 140.2715597 111.1641461  90.6642034 140.7684296 110.4111423  90.3443104
 139.5002578 111.2005777  90.0985244 148.1245354 116.8681826  92.3060326
 148.1135231 117.7506542  91.9354259 147.2562734 116.5153377  92.1114863
 139.6327851 126.0161895  96.6663166 140.3455823 126.6509360  96.5939067
 139.1417879 126.1125761  95.8503168 141.3545378 119.9213148  88.2380458
 140.4201656 120.0414610  88.0685162 141.5322046 119.0185615  87.9740467
 136.8550566 113.3058844  90.3913719 136.4848353 112.7529884  91.0794624
 137.3509658 112.7016977  89.8388719 144.7417929 115.7630467  88.7730492
 145.2078381 116.5958459  88.6990794 145.1925429 115.2975449  89.4775750
 134.6839764 123.7656339  97.4868737 135.3849224 124.3992822  97.6398131
 134.2134879 124.1071070  96.7264376 142.8094160 122.1074288  85.7716644
 143.0854004 121.9930883  86.6810518 141.9398659 121.7091773  85.7328817
 142.7134592 108.1311054  92.8121393 141.7997671 108.3615281  92.9803600
 143.1427693 108.2149498  93.6635425 142.4841050 116.3200946  95.3121287
 141.8312500 116.5676854  94.6573740 142.8621430 115.5065084  94.9783764
 139.4448224 126.3560639  89.4149457 139.6270619 125.5382295  89.8777210
 140.2681210 126.5728332  88.9774347 139.7790390 125.2828824  86.6764506
 140.3078156 124.7721279  86.0634668 140.0418609 124.9671355  87.5410039
 138.5328623 117.0620757 101.7987324 137.8569260 116.9614887 102.4689699
 139.3556257 116.9059971 102.2623321 130.2807482 123.2992694  94.4199839
 130.8660919 122.5536382  94.5527744 130.0832321 123.6096650  95.3036503
 133.1346137 126.3343941  89.4362282 132.4656513 126.8190069  88.9526322
 132.9959007 126.5813162  90.3505660 124.8725137 115.8698294  93.1404283
 124.9109237 115.3361885  93.9341401 124.3665430 115.3433499  92.5215260
 137.2751406 128.3687685  96.0344940 137.8269714 128.5319306  96.7994025
 137.6157600 128.9592122  95.3624965 132.2515899 110.7162834  96.6366825
 132.3157226 111.5777665  96.2244223 132.1883020 110.1036836  95.9039183
 131.7268172 112.7885967 100.2839859 132.3540211 112.4063044 100.8977384
 130.8696091 112.5700169 100.6495552 142.1262280 123.1948942 101.8893595
 142.6702184 123.8078900 101.3948549 141.5449125 123.7528521 102.4060608
 128.5033715 114.5962396  86.2158214 128.7987156 113.6873075  86.1625268
 127.6021750 114.5750136  85.8939216 140.4119793 126.3169660  93.0208622
 140.2870933 125.5159400  92.5119568 141.0698884 126.8115854  92.5322592
 132.0327962 112.6718393  92.1985763 131.3114547 113.2854360  92.0593236
 132.8221217 113.2076158  92.1202409 142.4754702 124.1178680  94.6488172
 141.5285037 123.9984031  94.5766499 142.8237475 123.2301178  94.7314434
 134.8354275 110.0072819  98.4726414 135.3588677 110.2535116  99.2352724
 134.6166608 110.8392854  98.0529552 139.4801135 123.9131396  90.8492525
 139.3326097 122.9848104  91.0300095 140.3054629 123.9351487  90.3649600
 143.0835257 124.7359955  91.9357397 144.0081804 124.5302817  91.7981849
 142.9150560 124.4876356  92.8446739 136.0406820 110.9486514  96.1576085
 135.7003640 110.1494327  96.5596765 135.3345826 111.2488225  95.5852918
 136.6923292 108.0335827  94.6103408 137.5149361 107.5596305  94.4882298
 136.9361355 108.8126310  95.1102094 139.4762649 111.7669234  85.8424642
 139.6926264 112.6493872  85.5413470 138.9956716 111.3755448  85.1130284
 134.2161871 114.7254947  92.4195387 134.0706451 115.0395250  93.3119668
 133.7387074 115.3439848  91.8666285 136.0758254 111.7157495  92.4676276
 136.0619822 110.8198589  92.1308574 136.7930682 111.7228159  93.1014562
 137.9284384 112.1494836  94.5129404 137.6702162 113.0711906  94.5113734
 137.3969425 111.7525270  95.2029868 142.8730573 125.2545623  87.2919489
 143.0467451 124.6892045  86.5393341 143.3659464 126.0546518  87.1098979
 128.6907533 117.2660292  95.3583048 128.1461001 118.0420100  95.4903322
 129.5686883 117.6131096  95.2002169 135.4795150 110.5971876  87.7363846
 135.6011061 109.6688522  87.9354734 135.1897192 110.6110562  86.8242162
 138.3486340 108.2826786  90.8730566 138.3708037 108.3466119  89.9182546
 138.7654399 107.4431295  91.0671072 148.7269964 118.0182046  88.9109789
 149.1701110 117.2689371  88.5128912 147.8496475 118.0092182  88.5283521
 143.8605746 124.5712387  84.3916387 144.5556650 125.1919080  84.6103702
 144.2028896 123.7207738  84.6668765 129.4773555 116.3930188  98.2513205
 128.7355291 116.5412823  98.8377835 129.1566299 116.6538454  97.3879954
 145.7597169 122.0212093  85.9203718 146.2848493 122.3599365  85.1953038
 145.6719521 121.0859108  85.7366853 137.4217217 125.9346166  98.0493595
 137.7304344 125.6895313  98.9216294 138.2192699 126.1392805  97.5612465
 137.4437829 128.0884076  90.2798971 137.0042820 127.5960455  90.9731828
 138.1945946 127.5457044  90.0391046 129.9230168 124.2795617  90.2823599
 130.7488188 123.9799389  89.9022243 129.5724220 123.5103239  90.7313388
 134.8911702 123.6322085  92.3521273 134.2691711 122.9692790  92.0523501
 135.5616568 123.6583217  91.6694921 128.1238773 122.1981943  91.2412533
 127.2870682 121.7704118  91.0596534 128.0962419 122.3914387  92.1783324
 134.9636229 112.1103873 101.9453779 135.0124385 112.9865996 101.5631548
 135.5058743 111.5681266 101.3725422 145.4491075 122.6544996 101.2254916
 144.6586618 122.6369135 100.6859415 145.2124429 123.1933290 101.9803952
 145.5688950 119.5037463  98.5387644 145.6186955 119.3387470  99.4803167
 145.4602873 118.6364722  98.1485525 134.4525208 122.1826008  85.8279733
 134.6013329 122.8661473  85.1746406 135.2591652 122.1631098  86.3429189
 142.8592712 115.4868391  99.8546951 143.7602575 115.3474855  99.5630949
 142.9340687 115.6522845 100.7945129 137.1935518 112.8635245  98.7000137
 136.3238827 113.1568811  98.4282726 137.4294998 113.4475690  99.4207401
 147.0707147 121.9234404  98.7829666 146.7791955 122.2864385  99.6193127
 146.4579278 121.2101412  98.6042998 148.2702829 119.4887284  91.3032236
 149.1049720 119.9277088  91.4669797 148.4061958 119.0125937  90.4840482
 145.3194335 117.0467019  97.2509724 145.7948456 117.2394665  96.4428575
 144.3959900 117.1026205  97.0053108 132.2077841 118.2091186  86.8340802
 131.9623883 117.3053516  87.0321012 132.3773756 118.2108336  85.8920280
 139.8974551 109.0814862  96.2165558 140.4156495 109.8175889  95.8912046
 139.5429684 109.3878856  97.0512317 140.1487146 105.5015145  91.7366454
 140.4288899 104.8338334  92.3626881 140.9337752 105.6944240  91.2241118
 137.9520614 124.6774139  83.2991481 137.3794581 125.2964326  82.8461953
 138.5253408 125.2273500  83.8331403 144.0196004 113.9232779  95.4838030
 144.9713427 114.0230877  95.5050254 143.8499454 113.1311047  95.9936114
 142.0410383 111.0088362  95.6697431 141.4460315 111.2893375  94.9743919
 141.7560080 111.4982263  96.4414172 141.1717874 124.9611289  84.4300063
 142.1048547 124.8956851  84.6332939 141.0841087 125.7967556  83.9714596
 143.8005890 124.2777159  81.3904011 143.7219522 123.9437023  82.2839769
 144.6215557 124.7698927  81.3895483 146.4984082 117.1438899  94.5980329
 146.4660402 116.2054899  94.7840013 147.1084705 117.2222935  93.8646154
 138.3367413 116.0134952  80.6407533 139.2826517 115.8841160  80.7095951
 137.9581657 115.2749613  81.1176961 146.6478570 113.9349942  94.6438612
 146.1317619 113.1508399  94.4568541 147.5318519 113.6068659  94.8085132
 144.3089297 107.6790958  90.6034425 144.1114118 107.3706046  91.4877757
 144.9189003 108.4052596  90.7332355 152.3160632 118.2054905  93.7386366
 153.0464020 117.9440194  94.2994069 151.7067577 117.4683627  93.7788434
 150.3975929 116.3462768  94.3360817 149.6709092 116.2118733  93.7277309
 149.9823216 116.6539597  95.1417535 138.2206105 120.0652698 102.1008190
 139.1409115 120.2431297 102.2948237 138.1855688 119.1208743 101.9487890
 136.5210330 113.9384928  80.5762419 135.6141785 113.6418041  80.6525132
 136.7986311 113.6414746  79.7096705 127.4388270 115.2591291  91.0261465
 127.1191054 114.4056600  90.7335839 126.8921698 115.4739869  91.7819432
 131.2168178 117.9753732  94.7430971 131.4354187 118.9070840  94.7619005
 131.6293951 117.6161707  95.5285775 138.1372395 108.4821818  86.7306660
 137.3273124 108.1368903  87.1061906 138.8256812 108.1729361  87.3194271
 140.0662944 107.5599864  88.3530956 140.6193982 107.9795318  89.0120980
 140.3033030 106.6335613  88.3953912 136.0896043 113.5486938 104.1333720
 135.9892770 114.4981295 104.0645811 135.8717585 113.2205177 103.2609790
 135.2909114 110.7971863  80.7174398 136.1528278 111.1226761  80.9770215
 135.4759458 110.0103359  80.2047463 127.3076530 118.8794203  92.9954586
 126.6140001 118.4648156  92.4824541 128.0549521 118.9214739  92.3988005
 143.4441751 109.6700390  87.8609621 142.8640420 110.3285194  87.4787673
 143.1777683 108.8477734  87.4497038 141.8945317 109.0705447  90.0630941
 142.3945096 109.1821982  89.2545260 142.5380925 108.7666500  90.7031749
 135.9527313 116.9784077 102.9498782 135.4694395 117.7784437 103.1562671
 136.0388252 116.9892022 101.9966226 129.2213273 118.8112457  90.8720601
 129.1983961 118.9100144  89.9202484 129.5313909 119.6577607  91.1937767
 131.8800650 120.8688612  94.9867216 132.8343904 120.8372554  94.9197147
 131.6813174 120.4079235  95.8017442 132.4700033 119.4389728  97.5538013
 133.2892922 119.9333806  97.5772851 132.7436840 118.5221696  97.5255581
 142.2266629 111.8300480  86.9165969 141.3392484 112.1150131  86.6986164
 142.6420618 111.6694243  86.0693246 145.5781165 111.8547001  90.6320308
 146.3541555 112.3443453  90.9044925 144.8529299 112.2805055  91.0892178
 148.0153724 112.5674620  91.6894249 148.6098214 112.3270356  90.9787557
 148.0880307 111.8481751  92.3167785 130.2350879 126.4108231  92.0037414
 130.1005347 125.6508632  91.4375412 129.8182942 127.1349131  91.5366203
 141.3709842 121.5945155  81.0113989 142.0745692 121.7995157  81.6271645
 140.6472491 122.1621917  81.2763072 142.2007653 117.3455016  87.1316259
 142.1442854 117.8023567  86.2923892 142.7535995 116.5845700  86.9539102
 146.0112458 113.1344748  87.9566379 145.7549393 112.7341383  88.7874586
 145.3865326 113.8488542  87.8316518 150.3224796 115.8740821  90.4637670
 149.7624354 115.9434010  91.2369232 149.7168300 115.6981806  89.7437166
 133.3920005 127.3077548  92.2155856 133.2752389 128.2522981  92.1134547
 132.5712451 127.0051110  92.6041655 143.2796540 122.0327684  83.0612449
 144.1142144 121.6008882  82.8789924 143.1180883 121.8609698  83.9889343
 142.9342432 118.5359797  84.4268788 142.8791236 118.3704069  83.4857232
 142.3088487 119.2435830  84.5830978 127.7234947 113.7727862  98.2530211
 128.3693810 113.2626815  98.7417436 127.5152098 114.5096543  98.8273636
 140.2488339 120.8408709 103.7522351 141.1179499 121.0149361 103.3908986
 139.7695091 121.6603126 103.6298080 136.2438557 108.0367906  84.0054107
 136.2317227 108.9809746  84.1622378 137.1361979 107.8538052  83.7113568
 134.4174519 127.9605810  95.4311785 135.3201766 127.9929420  95.7478280
 134.1911889 127.0306261  95.4458121 136.1728121 126.7136797  92.0921863
 135.2223752 126.7138658  91.9786236 136.4760607 125.9669531  91.5757898
 140.0590677 104.6310683  88.2600043 139.2923073 104.0769169  88.4056726
 140.4701382 104.7032552  89.1214195 132.0632438 110.9195479 102.3505225
 132.9263899 110.5632283 102.5608549 131.4897848 110.5809373 103.0380629
 151.9080815 132.5497335  93.1567626 152.5459225 132.4304082  92.4530966
 151.7901658 133.4978179  93.2155578 148.7170521 132.5024763  93.0929150
 148.3789033 132.3865828  92.2049685 149.5860289 132.1015928  93.0730157
 144.5757337 134.3560239  89.0826041 144.0122202 134.2650176  88.3142329
 144.4609732 133.5360144  89.5628534 149.1990304 133.6559615  99.0515356
 149.1878945 133.2612413  98.1795860 149.3610944 132.9225687  99.6449127
 142.1221769 135.8511431  91.9210262 142.9143061 135.5102256  91.5056561
 142.3618419 135.9606406  92.8412415 144.0812523 135.1120344  84.7927641
 144.8543399 134.5649331  84.6540516 144.4337921 135.9764594  85.0042102
 145.9197565 136.4396727  97.9994540 145.6287431 137.3442357  97.8841206
 146.5554550 136.4813254  98.7138610 146.8453772 133.8173575  94.5895900
 147.4417344 133.5929598  93.8752863 146.9028744 133.0758321  95.1921347
 146.4178800 131.2713010  82.4246091 146.6704321 130.7494532  81.6629554
 145.4803360 131.1079156  82.5272774 151.4622083 130.2748789  90.2320834
 152.2485172 129.8568212  89.8811251 151.7260788 131.1794881  90.4002482
 151.6332161 135.7121639  84.9309491 150.9977994 135.7856266  85.6430395
 151.3029567 136.3015238  84.2528570 146.1375089 133.1741116  84.6270466
 146.0211347 132.4986020  85.2951550 146.2477349 132.6873490  83.8102619
 148.4806630 132.6351263  88.3317155 148.1164837 132.1081884  89.0430076
 149.3373746 132.2449733  88.1583640 154.3855931 123.9245596  95.5948421
 154.0539256 124.7941007  95.3709636 153.7901544 123.6081880  96.2742451
 148.1212117 127.6641163  83.3278503 148.2886519 128.5321400  83.6948974
 147.9309286 127.8268445  82.4039793 150.8787450 136.1258142  94.9944334
 150.5788173 137.0283181  94.8860141 150.5338510 135.8590325  95.8465487
 144.3299932 132.5771939  91.0281038 143.4050428 132.4448153  91.2358730
 144.5784345 133.3566158  91.5250980 154.2784594 128.6440682  92.6741771
 153.3701471 128.5756091  92.3800532 154.2272190 129.1212627  93.5023596
 148.1001338 130.1198821  84.3125170 147.9800963 130.5655871  85.1510650
 147.4053926 130.4684138  83.7538708 141.6908743 132.2205212  91.8624827
 141.8201124 132.4739691  92.7764239 141.0106194 132.8132920  91.5429482
 148.3525460 130.0630328 100.6176668 147.5758794 130.6224248 100.6079533
 148.9916023 130.5487111 101.1391538 156.1446240 126.8457121  94.4519645
 155.5020621 127.1389654  93.8059439 155.6401169 126.7310041  95.2572842
 153.7986404 130.5920294  85.1405504 154.7104260 130.8247681  84.9653202
 153.2896051 131.1757338  84.5780583 146.6071832 132.8715781 100.1794635
 147.3486517 133.4100825  99.9029459 145.9008818 133.4982070 100.3366187
 152.0827172 135.0144922  98.7766797 152.4910528 134.5727332  98.0321429
 151.3604433 134.4397549  99.0300990 148.4358242 129.9517528  96.1500354
 149.2819437 130.3756942  96.2935003 148.3756879 129.2951153  96.8438917
 152.4055986 135.5746112  92.5319086 151.7764849 135.7391826  91.8295153
 152.0181648 135.9887722  93.3030050 151.5857687 127.6121897  97.8081527
 151.3418619 128.3663957  97.2715803 151.8617618 127.9907244  98.6428774
 153.5396150 134.1560509  96.4858793 153.7513045 134.7992269  95.8093174
 153.4925898 133.3222826  96.0180723 151.1422379 126.7678330  93.3895365
 150.2806858 127.0659583  93.6812103 151.1684814 126.9848729  92.4576398
 147.9583948 135.3120520  89.7969171 148.4222294 135.5908223  89.0073793
 147.6940746 134.4103965  89.6142261 144.8508029 134.8592002  92.7348934
 145.4209386 135.2879270  92.0966418 145.4416141 134.5774587  93.4333120
 146.8952834 131.4343673  86.6058736 147.5976878 131.8864716  87.0732662
 146.5633463 130.7927492  87.2338629 145.3433196 130.0255429 100.9809945
 144.7131856 130.7071710 101.2145342 145.2369284 129.9138511 100.0363083
 140.6378168 129.6927225  91.9075869 139.8477222 129.9484754  91.4315980
 141.1289416 130.5075563  92.0127910 142.5892914 130.0571805  88.8659346
 141.7924077 130.1690499  89.3842842 142.3618506 130.3958457  88.0000237
 148.4198581 136.5816508  96.8141861 148.4843014 137.0436915  97.6500033
 147.7109505 135.9513873  96.9424171 138.9215871 129.9457716  94.3390860
 139.1723910 130.8304726  94.6048436 139.4575420 129.7662317  93.5665952
 148.1346599 138.2484615  86.6820841 147.9992274 139.0936151  87.1105689
 148.6756411 138.4503893  85.9186775 144.6213939 124.3276195 103.3435196
 144.2280884 123.7742394 104.0182841 145.4380079 124.6386774 103.7341714
 141.5875996 135.7660053  87.2548766 142.1000517 136.5603304  87.4054331
 142.2398709 135.0686344  87.1882368 143.3970881 138.8825810  89.3371519
 143.5737509 139.8043774  89.1492503 144.1927715 138.5684229  89.7665899
 147.5381900 125.7434074 100.9355453 148.2791613 126.3441227 100.8559915
 147.7699822 125.0011712 100.3773495 142.6823238 130.9290442  99.2133683
 142.5676753 130.0275699  99.5140781 141.8267755 131.1754138  98.8618499
 144.5202197 140.4003983  95.3381862 145.0709622 140.2721047  94.5658856
 143.6813672 140.6998873  94.9876754 148.3169368 136.6655111  99.6826093
 148.8497704 135.9043400  99.4525401 147.7883449 136.3728763 100.4250247
 151.4839063 121.7715177  95.2119735 151.1403332 122.6616819  95.1358845
 151.8518025 121.5816835  94.3489320 139.5524913 134.0948708  88.0308337
 140.3900135 134.5045716  87.8142044 139.7303181 133.1548150  88.0008531
 151.4489345 131.7623788  83.7192170 150.9335969 132.5328393  83.9580557
 151.1766654 131.0888925  84.3425231 149.0336456 126.6073489  88.7777408
 148.1778053 126.2180340  88.5983047 149.4463408 126.6865450  87.9177194
 150.5635603 124.1419832  93.1768968 150.0600399 124.1049968  92.3636773
 150.8566210 125.0512575  93.2365624 146.8078489 124.2258562  92.1835150
 147.6731486 124.0301371  91.8241039 146.8755998 123.9968914  93.1104506
 151.2375648 129.6350880  85.5451951 150.9325784 129.9497030  86.3962094
 152.1906091 129.7132300  85.5879284 149.6822080 135.7941104  87.1944905
 149.1543442 135.0593863  86.8818142 149.1809583 136.5715780  86.9484873
 154.6614926 133.9890124  92.3111951 154.0038601 134.6789386  92.3992080
 155.4655326 134.3786556  92.6545937 144.4140808 126.4560770  89.5551516
 144.9884560 126.2335952  88.8224709 145.0011790 126.5249465  90.3080118
 153.4720385 132.3434497  90.3615893 153.9852267 132.9764489  90.8637603
 154.1221609 131.7435692  89.9959253 144.7410395 128.4865231  83.5747402
 143.9047707 128.8239918  83.8956676 144.6015165 128.3514211  82.6374539
 146.7163476 123.3302019  88.2826586 146.0627888 123.0151036  87.6583201
 146.6743950 122.7077759  89.0086409 147.8274680 133.6121314  80.1979878
 146.9201742 133.3810568  80.3971027 148.3245712 132.8158933  80.3853859
 149.9501216 129.8183953  92.6074233 149.0323777 130.0398900  92.4495921
 150.3661360 129.8930263  91.7485941 150.7336264 131.2175368  87.7376914
 151.4808083 131.7296765  87.4284036 151.0027853 130.8959421  88.5981307
 149.0062914 133.7133909  84.7203868 148.0974133 133.4292942  84.8176338
 149.0357998 134.1332987  83.8607175 153.1815101 128.2532484  89.7195703
 152.4437858 127.7409871  90.0505945 153.4341874 127.8132866  88.9078980
 153.2826728 121.0308736  90.3137472 153.5885605 120.1706100  90.0263387
 154.0079333 121.6226357  90.1136466 139.5751084 131.4339423  88.7019070
 139.3775484 130.8408784  87.9770137 139.0197748 131.1291633  89.4195009
 147.5547808 131.3262530  90.8213663 147.6096418 130.3736366  90.7456140
 146.7439010 131.4821969  91.3054962 148.7039002 135.2542653  82.0591946
 148.2658432 134.5378512  81.5997584 149.4449443 135.4818767  81.4977038
 145.4940168 129.9439589  88.5804042 144.6808033 130.2433760  88.9869234
 145.9899162 129.5495278  89.2978524 147.6448746 139.9397346  90.5138307
 147.6024925 140.1658193  89.5846839 148.5611445 139.7060721  90.6624108
 151.0914380 130.4081414  97.4118936 151.4463767 130.6352887  98.2713402
 151.7386511 130.7399791  96.7896191 144.9854243 127.5157945  94.1965277
 145.6253622 127.3746704  93.4988240 144.1531773 127.2292458  93.8203879
 145.7614547 136.8160375  90.3100270 146.5555145 136.3210695  90.1082845
 145.0506239 136.2878238  89.9467975 142.0697310 130.9603457  86.3860022
 141.1394898 130.8987912  86.6029984 142.1654782 130.4379410  85.5896663
 141.9882859 127.4858270  88.9738264 142.2489676 128.4003603  88.8647424
 142.8100031 127.0182712  89.1234877 143.4607784 128.8996027  96.1437088
 144.1330838 128.6913389  95.4949737 142.6337571 128.7018113  95.7042321
 149.3633356 125.5257968  98.1602749 148.7161271 126.2247918  98.0667226
 150.1334372 125.9594112  98.5278997 152.7712154 135.7906820 101.2353303
 152.6197661 135.5617372 100.3183386 152.7616834 136.7477421 101.2484648
 149.5397491 133.3638733  96.2199569 150.4689551 133.5149892  96.0468536
 149.1188521 133.4522754  95.3648216 148.3385823 137.3889397  93.9898107
 148.1996908 137.0208182  94.8624045 147.5500419 137.9037037  93.8182064
 149.8891038 136.7671000  91.3786944 149.5540870 136.7271770  92.2744594
 149.3894983 136.1015716  90.9057355 143.8635282 132.1738630  96.9039526
 143.7255080 131.4418869  97.5051065 144.7740205 132.0847530  96.6223713
 152.8250229 134.1127034  81.6524004 152.2079400 133.3873862  81.5557057
 152.3566718 134.8736395  81.3091078 146.4917582 131.8858589  96.3923205
 147.2017201 131.2451781  96.3509824 146.4486890 132.1371484  97.3149386
 145.2046516 128.8723807  98.2118845 144.6683873 128.4214546  98.8640441
 144.6163225 129.0069716  97.4689309 144.6148775 128.3312459  80.7745308
 143.7378242 128.2101259  80.4107555 145.0906528 127.5398537  80.5224197
 136.1350915 133.1189618  90.8686815 136.8221955 132.8051348  90.2807831
 135.9799044 134.0230983  90.5954067 140.9385637 128.0079815  95.2971839
 140.8543826 127.4005484  94.5622249 140.1168344 128.4988833  95.2981336
 151.1109351 126.4933378  90.6642034 151.6078051 125.7403341  90.3443104
 150.3396333 126.5297695  90.0985244 152.1939132 135.2505066  88.2380458
 151.2595411 135.3706528  88.0685162 152.3715801 134.3477532  87.9740467
 147.6944320 128.6350761  90.3913719 147.3242108 128.0821802  91.0794624
 148.1903413 128.0308895  89.8388719 155.5811683 131.0922385  88.7730492
 156.0472136 131.9250376  88.6990794 156.0319184 130.6267366  89.4775750
 145.5233519 139.0948256  97.4868737 146.2242978 139.7284739  97.6398131
 145.0528634 139.4362988  96.7264376 153.5528346 123.4602972  92.8121393
 152.6391426 123.6907199  92.9803600 153.9821448 123.5441416  93.6635425
 153.3234805 131.6492864  95.3121287 152.6706255 131.8968771  94.6573740
 153.7015185 130.8357002  94.9783764 149.3722378 132.3912675 101.7987324
 148.6963015 132.2906804 102.4689699 150.1950012 132.2351889 102.2623321
 141.1201237 138.6284611  94.4199839 141.7054674 137.8828299  94.5527744
 140.9226075 138.9388568  95.3036503 143.9739892 141.6635859  89.4362282
 143.3050267 142.1481986  88.9526322 143.8352762 141.9105079  90.3505660
 135.7118891 131.1990212  93.1404283 135.7502991 130.6653802  93.9341401
 135.2059184 130.6725417  92.5215260 143.0909654 126.0454752  96.6366825
 143.1550980 126.9069583  96.2244223 143.0276774 125.4328754  95.9039183
 142.5661926 128.1177885 100.2839859 143.1933965 127.7354962 100.8977384
 141.7089845 127.8992087 100.6495552 139.3427469 129.9254314  86.2158214
 139.6380910 129.0164992  86.1625268 138.4415505 129.9042053  85.8939216
 142.8721716 128.0010310  92.1985763 142.1508302 128.6146278  92.0593236
 143.6614972 128.5368075  92.1202409 145.6748030 125.3364737  98.4726414
 146.1982431 125.5827033  99.2352724 145.4560363 126.1684772  98.0529552
 141.0715311 127.6068411  86.3397539 140.7428017 126.7265790  86.1572645
 141.4254681 127.5516080  87.2273928 144.1857134 127.8941381  86.7073017
 144.5253206 128.4227302  85.9851625 144.6329254 128.2321787  87.4831583
 146.8800575 126.2778432  96.1576085 146.5397395 125.4786245  96.5596765
 146.1739581 126.5780143  95.5852918 147.5317046 123.3627744  94.6103408
 148.3543116 122.8888223  94.4882298 147.7755110 124.1418228  95.1102094
 146.1725281 126.3916003  84.9066310 146.8933643 126.7697256  84.4030026
 145.5490585 127.1104880  85.0101288 150.3156404 127.0961152  85.8424642
 150.5320018 127.9785790  85.5413470 149.8350471 126.7047365  85.1130284
 145.0555625 130.0546865  92.4195387 144.9100206 130.3687168  93.3119668
 144.5780829 130.6731765  91.8666285 146.9152008 127.0449413  92.4676276
 146.9013577 126.1490506  92.1308574 147.6324436 127.0520077  93.1014562
 148.7678139 127.4786753  94.5129404 148.5095917 128.4003824  94.5113734
 148.2363179 127.0817188  95.2029868 139.5301287 132.5952209  95.3583048
 138.9854755 133.3712017  95.4903322 140.4080637 132.9423014  95.2002169
 146.3188904 125.9263793  87.7363846 146.4404815 124.9980439  87.9354734
 146.0290946 125.9402479  86.8242162 149.1880094 123.6118704  90.8730566
 149.2101791 123.6758037  89.9182546 149.6048153 122.7723212  91.0671072
 140.3167309 131.7222106  98.2513205 139.5749045 131.8704741  98.8377835
 139.9960054 131.9830371  97.3879954 140.7623923 139.6087534  90.2823599
 141.5881943 139.3091306  89.9022243 140.4117975 138.8395157  90.7313388
 145.7305456 138.9614003  92.3521273 145.1085465 138.2984708  92.0523501
 146.4010323 138.9875135  91.6694921 138.9632528 137.5273861  91.2412533
 138.1264436 137.0996035  91.0596534 138.9356173 137.7206304  92.1783324
 145.8029984 127.4395791 101.9453779 145.8518139 128.3157913 101.5631548
 146.3452498 126.8973184 101.3725422 145.2918963 137.5117926  85.8279733
 145.4407083 138.1953390  85.1746406 146.0985406 137.4923016  86.3429189
 153.6986467 130.8160308  99.8546951 154.5996329 130.6766773  99.5630949
 153.7734441 130.9814763 100.7945129 148.0329272 128.1927163  98.7000137
 147.1632581 128.4860729  98.4282726 148.2688752 128.7767608  99.4207401
 156.1588089 132.3758936  97.2509724 156.6342211 132.5686583  96.4428575
 155.2353655 132.4318122  97.0053108 143.0471596 133.5383104  86.8340802
 142.8017638 132.6345434  87.0321012 143.2167511 133.5400254  85.8920280
 150.7368306 124.4106780  96.2165558 151.2550250 125.1467807  95.8912046
 150.3823439 124.7170773  97.0512317 142.3167243 129.2711461  84.3326964
 141.6236488 129.3455816  83.6767000 142.0718995 128.5071805  84.8548481
 150.9880900 120.8307063  91.7366454 151.2682654 120.1630252  92.3626881
 151.7731507 121.0236158  91.2241118 154.8589758 129.2524697  95.4838030
 155.8107181 129.3522794  95.5050254 154.6893209 128.4602965  95.9936114
 152.8804138 126.3380280  95.6697431 152.2854070 126.6185292  94.9743919
 152.5953835 126.8274181  96.4414172 149.1761167 131.3426869  80.6407533
 150.1220272 131.2133077  80.7095951 148.7975412 130.6041531  81.1176961
 155.1483052 123.0082875  90.6034425 154.9507873 122.6997963  91.4877757
 155.7582757 123.7344514  90.7332355 149.0599860 135.3944615 102.1008190
 149.9802869 135.5723214 102.2948237 149.0249443 134.4500661 101.9487890
 147.3604084 129.2676846  80.5762419 146.4535540 128.9709958  80.6525132
 147.6380065 128.9706664  79.7096705 138.2782025 130.5883209  91.0261465
 137.9584809 129.7348517  90.7335839 137.7315453 130.8031787  91.7819432
 142.0561932 133.3045650  94.7430971 142.2747942 134.2362758  94.7619005
 142.4687706 132.9453624  95.5285775 148.9766150 123.8113735  86.7306660
 148.1666878 123.4660820  87.1061906 149.6650567 123.5021279  87.3194271
 150.9056698 122.8891782  88.3530956 151.4587737 123.3087236  89.0120980
 151.1426785 121.9627530  88.3953912 146.9289797 128.8778856 104.1333720
 146.8286524 129.8273213 104.0645811 146.7111339 128.5497095 103.2609790
 146.1302869 126.1263781  80.7174398 146.9922033 126.4518679  80.9770215
 146.3153213 125.3395277  80.2047463 138.1470285 134.2086120  92.9954586
 137.4533756 133.7940073  92.4824541 138.8943276 134.2506657  92.3988005
 154.2835505 124.9992307  87.8609621 153.7034174 125.6577111  87.4787673
 154.0171438 124.1769652  87.4497038 152.7339072 124.3997365  90.0630941
 153.2338850 124.5113899  89.2545260 153.3774680 124.0958418  90.7031749
 146.7921067 132.3075995 102.9498782 146.3088149 133.1076355 103.1562671
 146.8782007 132.3183939 101.9966226 140.0607027 134.1404374  90.8720601
 140.0377715 134.2392062  89.9202484 140.3707664 134.9869525  91.1937767
 142.7194405 136.1980529  94.9867216 143.6737658 136.1664472  94.9197147
 142.5206929 135.7371153  95.8017442 143.3093787 134.7681645  97.5538013
 144.1286676 135.2625724  97.5772851 143.5830595 133.8513613  97.5255581
 153.0660383 127.1592398  86.9165969 152.1786238 127.4442048  86.6986164
 153.4814372 126.9986161  86.0693246 141.0744634 141.7400149  92.0037414
 140.9399102 140.9800550  91.4375412 140.6576696 142.4641049  91.5366203
 153.0401407 132.6746934  87.1316259 152.9836608 133.1315485  86.2923892
 153.5929749 131.9137618  86.9539102 153.7736186 133.8651715  84.4268788
 153.7184990 133.6995986  83.4857232 153.1482242 134.5727748  84.5830978
 138.5628701 129.1019779  98.2530211 139.2087565 128.5918733  98.7417436
 138.3545852 129.8388461  98.8273636 151.0882094 136.1700627 103.7522351
 151.9573253 136.3441279 103.3908986 150.6088845 136.9895044 103.6298080
 147.0832312 123.3659824  84.0054107 147.0710982 124.3101664  84.1622378
 147.9755734 123.1829969  83.7113568 150.8984431 119.9602600  88.2600043
 150.1316827 119.4061087  88.4056726 151.3095136 120.0324469  89.1214195
 142.9026192 126.2487396 102.3505225 143.7657654 125.8924201 102.5608549
 142.3291603 125.9101291 103.0380629  55.4071734  -9.7761788  78.6455568
  56.1993026 -10.1170963  78.2301868  55.6468384  -9.6666813  79.5657722
  63.4406861  -7.6042012  71.1185813  62.7894841  -7.0187931  70.7319827
  64.2351224  -7.0735817  71.1780850  57.3662488 -10.5152874  71.5172947
  58.1393364 -11.0623887  71.3785823  57.7187887  -9.6508625  71.7287409
  59.2047531  -9.1876492  84.7239847  58.9137396  -8.2830861  84.6086513
  59.8404515  -9.1459965  85.4383916  59.1458195  -2.7370756  74.6860608
  59.0682225  -1.7862931  74.7649089  58.5419839  -3.0824884  75.3435534
  61.7048547  -9.0456711  83.5387167  61.7692979  -8.5836304  84.3745339
  60.9959471  -9.6759346  83.6669477  61.4196564  -7.3788603  73.4066148
  61.2842239  -6.5337068  73.8350996  61.9606377  -7.1769326  72.6432081
  54.8725962  -9.8613165  73.9794073  55.3850482  -9.0669915  74.1299637
  55.5248675 -10.5586875  73.9127674  56.6820846  -6.7447409  76.0616826
  56.8587475  -5.8229444  75.8737810  57.4777680  -7.0588990  76.4911206
  63.0465041  -6.7565037  87.5366490  62.6028895  -7.5428658  87.2187394
  63.7082254  -6.5685886  86.8710381  57.8052162  -5.2269235  82.0627168
  58.3559587  -5.3552172  81.2904162  56.9663638  -4.9274346  81.7122061
  65.1446279  -6.4762237  85.5647891  65.1264754  -5.6553356  85.0728160
  66.0666199  -6.6008162  85.7898032  52.8374878 -11.5324511  74.7553643
  53.6750100 -11.1227503  74.5387351  53.0153146 -12.4725069  74.7253837
  64.0192725  -3.3054398  69.8421871  63.3454423  -3.0022701  70.4506828
  64.4058547  -2.5025317  69.4927328  65.9665086  -6.4656224  76.1490160
  66.2588060  -5.9051167  75.4302526  66.4763706  -6.1727663  76.9043319
  60.9298711  -5.6875873  77.2383613  60.8874890  -5.4615026  76.3092145
  61.8461410  -5.9212498  77.3869415  59.0464512  -8.8112844  77.0345576
  59.8405110  -9.3062523  76.8328151  58.3356204  -9.3394980  76.6713282
  63.8659356  -6.4294748  81.3857944  63.9196379  -5.8603812  82.1535660
  62.9974138  -6.2592863  81.0211981  61.6235788  -8.2383822  80.7143413
  61.4846874  -8.6065037  81.5869351  60.8350384  -7.7236182  80.5427371
  62.2183940  -3.1374725  72.0568950  62.3935696  -3.6086682  72.8714572
  61.5316728  -2.5108959  72.2850211  67.7654326  -6.8047276  86.0375091
  67.7066872  -7.4888056  85.3705674  68.1673845  -6.0628286  85.5855717
  56.7845025   0.0114638  78.8308810  57.0241623   0.6433162  79.5087829
  55.9414222  -0.3397322  79.1174169  61.2972887  -4.1806240  81.2350314
  61.2243058  -3.3751268  81.7469619  60.8550280  -3.9814274  80.4098335
  61.0862667  -4.9434470  74.7453135  60.3030188  -4.4012790  74.8391360
  61.7855412  -4.4260490  75.1447377  63.7571570  -4.2819406  83.3908473
  64.4699543  -3.6471941  83.3184374  63.2661599  -4.1855540  82.5748474
  58.8083484  -6.5324962  84.2114043  59.5092944  -5.8988479  84.3643438
  58.3378599  -6.1910231  83.4509683  63.5691944  -3.9420662  76.1394764
  63.7514338  -4.7599006  76.6022516  64.3924930  -3.7252970  75.7019654
  63.9034109  -5.0152477  73.4009813  64.4321876  -5.5260022  72.7879975
  64.1662329  -5.3309946  74.2655346  54.4051202  -6.9988607  81.1445146
  54.9904639  -7.7444919  81.2773050  54.2076041  -6.6884651  82.0281810
  57.2589857  -3.9637360  76.1607588  56.5900233  -3.4791232  75.6771629
  57.1202727  -3.7168140  77.0750967  61.3995126  -1.9293616  82.7590247
  61.9513434  -1.7661995  83.5239332  61.7401319  -1.3389179  82.0870272
  66.2506000  -7.1032359  88.6138901  66.7945904  -6.4902401  88.1193856
  65.6692845  -6.5452781  89.1305914  64.5363513  -3.9811641  79.7453929
  64.4114653  -4.7821901  79.2364875  65.1942604  -3.4865448  79.2567899
  66.5998422  -6.1802621  81.3733479  65.6528757  -6.2997270  81.3011806
  66.9481195  -7.0680123  81.4559741  63.6044855  -6.3849905  77.5737831
  63.4569817  -7.3133197  77.7545401  64.4298348  -6.3629814  77.0894907
  67.2078977  -5.5621346  78.6602704  68.1325524  -5.7678485  78.5227155
  67.0394280  -5.8104945  79.5692046  66.9974293  -5.0435678  74.0164796
  67.1711170  -5.6089256  73.2638648  67.4903184  -4.2434784  73.8344285
  67.9849465  -5.7268914  71.1161694  68.6800370  -5.1062221  71.3349008
  68.3272616  -6.5773563  71.3914072  61.5460937  -4.3635135  84.7738901
  61.8548064  -4.6085988  85.6461601  62.3436419  -4.1588496  84.2857771
  61.5681549  -2.2097225  77.0044278  61.1286540  -2.7020847  77.6977134
  62.3189666  -2.7524258  76.7636353  54.0473888  -6.0185684  77.0068906
  54.8731908  -6.3181913  76.6267549  53.6967940  -6.7878062  77.4558695
  59.0155421  -6.6659216  79.0766579  58.3935431  -7.3288511  78.7768807
  59.6860288  -6.6398084  78.3940227  52.2482493  -8.0999358  77.9657839
  51.4114402  -8.5277184  77.7841841  52.2206139  -7.9066915  78.9028631
  58.5768928  -8.1155293  72.5525040  58.7257049  -7.4319828  71.8991713
  59.3835372  -8.1350203  73.0674496  62.0764334  -5.6207162  70.0236787
  61.5038301  -5.0016975  69.5707259  62.6497128  -5.0707801  70.5576709
  65.2961594  -5.3370012  71.1545370  66.2292267  -5.4024451  71.3578245
  65.2084806  -4.5013745  70.6959902  67.9249610  -6.0204142  68.1149317
  67.8463242  -6.3544278  69.0085075  68.7459277  -5.5282374  68.1140790
  51.4320250 -11.4187098  79.7199893  50.7383721 -11.8333146  79.2069848
  52.1793241 -11.3766562  79.1233312  53.3456992 -11.4868845  77.5965908
  53.3227681 -11.3881157  76.6447791  53.6557629 -10.6403694  77.9183074
  56.0044370  -9.4292690  81.7112522  56.9587624  -9.4608747  81.6442454
  55.8056894  -9.8902066  82.5262748  54.3594599  -3.8873070  78.7282720
  54.2249067  -4.6472669  78.1620718  53.9426661  -3.1632170  78.2611509
  57.5163725  -2.9903753  78.9401163  57.3996109  -2.0458321  78.8379853
  56.6956171  -3.2930191  79.3286962  58.5418239  -2.3375491  82.1557091
  59.4445486  -2.3051881  82.4723586  58.3155609  -3.2675040  82.1703427
  60.2971841  -3.5844505  78.8167170  59.3467472  -3.5842643  78.7031542
  60.6004327  -4.3311770  78.3003205  76.0324535   2.2516034  79.8812932
  76.6702945   2.1322781  79.1776272  75.9145377   3.1996878  79.9400885
  72.8414241   2.2043462  79.8174457  72.5032752   2.0884527  78.9294992
  73.7104009   1.8034627  79.7975463  68.7001057   4.0578938  75.8071348
  68.1365922   3.9668875  75.0387636  68.5853452   3.2378843  76.2873841
  73.3234024   3.3578314  85.7760663  73.3122665   2.9631112  84.9041166
  73.4854663   2.6244386  86.3694434  66.2465488   5.5530130  78.6455568
  67.0386780   5.2120955  78.2301868  66.4862139   5.6625105  79.5657722
  74.2800615   7.7249906  71.1185813  73.6288595   8.3103986  70.7319827
  75.0744978   8.2556101  71.1780850  68.2056242   4.8139043  71.5172947
  68.9787118   4.2668030  71.3785823  68.5581641   5.6783292  71.7287409
  70.0441285   6.1415425  84.7239847  69.7531151   7.0461056  84.6086513
  70.6798269   6.1831953  85.4383916  70.9697492   3.5192274  81.3141206
  71.5661064   3.2948296  80.5998169  71.0272463   2.7777019  81.9166654
  70.5422520   0.9731709  69.1491397  70.7948041   0.4513231  68.3874860
  69.6047079   0.8097855  69.2518081  75.5865803  -0.0232512  76.9566140
  76.3728892  -0.4413089  76.6056557  75.8504507   0.8813580  77.1247789
  75.7575880   5.4140338  71.6554797  75.1221713   5.4874964  72.3675702
  75.4273287   6.0033937  70.9773876  80.9874230  -0.0857279  77.8599119
  81.7199402  -0.6558062  78.0936948  80.2313586  -0.4735679  78.3005625
  70.2618809   2.8759815  71.3515772  70.1455067   2.2004719  72.0196856
  70.3721069   2.3892189  70.5347925  72.6050350   2.3369962  75.0562461
  72.2408557   1.8100583  75.7675383  73.4617466   1.9468431  74.8828947
  72.2455837  -2.6340138  70.0523810  72.4130239  -1.7659902  70.4194281
  72.0553006  -2.4712856  69.1285099  75.0031170   5.8276841  81.7189640
  74.7031893   6.7301880  81.6105447  74.6582230   5.5609024  82.5710793
  68.4543652   2.2790638  77.7526345  67.5294148   2.1466852  77.9604036
  68.7028065   3.0584857  78.2496287  78.4028314  -1.6540619  79.3987078
  77.4945191  -1.7225210  79.1045839  78.3515910  -1.1768674  80.2268903
  72.2245058  -0.1782480  71.0370477  72.1044683   0.2674570  71.8755957
  71.5297646   0.1702837  70.4784015  65.8152463   1.9223911  78.5870134
  65.9444844   2.1758390  79.5009545  65.1349914   2.5151619  78.2674789
  69.9851950  12.5921161  74.6860608  69.9075980  13.5428986  74.7649089
  69.3813593  12.2467034  75.3435534  72.4769180  -0.2350973  87.3421975
  71.7002514   0.3242947  87.3324839  73.1159743   0.2505810  87.8636845
  77.9230124   0.2938993  71.8650811  78.8347980   0.5266379  71.6898508
  77.4139771   0.8776037  71.3025889  70.7315552   2.5734480  86.9039942
  71.4730236   3.1119524  86.6274765  70.0252537   3.2000769  87.0611494
  76.2070892   4.7163621  85.5012103  76.6154248   4.2746031  84.7566736
  75.4848153   4.1416248  85.7546296  72.5601962  -0.3463773  82.8745660
  73.4063157   0.0775641  83.0180309  72.5000599  -1.0030148  83.5684223
  76.5299706   5.2764811  79.2564392  75.9008569   5.4410525  78.5540460
  76.1425368   5.6906421  80.0275356  80.4088938   6.2119249  76.6108756
  79.7239976   6.5918150  76.0605789  80.4932787   6.8214576  77.3440704
  75.7101407  -2.6859404  84.5326834  75.4662339  -1.9317344  83.9961110
  75.9861337  -2.3074057  85.3674081  77.6639870   3.8579208  83.2104100
  77.8756765   4.5010968  82.5338481  77.6169618   3.0241525  82.7426030
  75.2666099  -3.5302971  80.1140672  74.4050578  -3.2321718  80.4057409
  75.2928533  -3.3132572  79.1821704  72.0827668   5.0139219  76.5214477
  72.5466014   5.2926922  75.7319100  71.8184466   4.1122664  76.3387568
  68.9751749   4.5610701  79.4594241  69.5453106   4.9897969  78.8211725
  69.5659861   4.2793286  80.1578426  71.0196554   1.1362372  73.3304042
  71.7220598   1.5883415  73.7977969  70.6877183   0.4946190  73.9583936
  69.4676916  -0.2725872  87.7055252  68.8375576   0.4090409  87.9390649
  69.3613004  -0.3842790  86.7608390  64.7621888  -0.6054076  78.6321176
  63.9720942  -0.3496547  78.1561287  65.2533136   0.2094262  78.7373217
  78.7785698   6.7351163  81.3826457  79.6003141   6.3331351  81.1009138
  78.7748101   6.6319398  82.3342573  66.7136634  -0.2409496  75.5904653
  65.9167797  -0.1290802  76.1088148  66.4862226   0.0977156  74.7245543
  72.5442301   6.2835207  83.5387167  72.6086734   6.7455614  84.3745339
  71.8353225   5.6532572  83.6669477  63.0459591  -0.3523585  81.0636167
  63.2967630   0.5323425  81.3293743  63.5819140  -0.5318984  80.2911259
  86.8691691   3.0789912  77.7311428  86.1155399   2.5097310  77.5755433
  87.0039232   3.0452576  78.6782063  72.2590319   7.9503314  73.4066148
  72.1235994   8.7954850  73.8350996  72.8000131   8.1522592  72.6432081
  68.7457658  -5.9705106  90.0680503  68.3524604  -6.5238907  90.7428147
  69.5623799  -5.6594527  90.4587020  65.7119716   5.4678752  73.9794073
  66.2244237   6.2622003  74.1299637  66.3642429   4.7705043  73.9127674
  67.5214601   8.5844509  76.0616826  67.6981229   9.5062473  75.8737810
  68.3171434   8.2702928  76.4911206  71.6625619  -4.5547227  87.6600759
  72.4035333  -3.9540074  87.5805222  71.8943542  -5.2969589  87.1018802
  66.8066957   0.6309140  85.9378989  66.6920473  -0.2705602  86.2386088
  65.9511475   0.8772837  85.5863806  73.8858795   8.5726881  87.5366490
  73.4422649   7.7863259  87.2187394  74.5476009   8.7606031  86.8710381
  68.6445916  10.1022682  82.0627168  69.1953341   9.9739746  81.2904162
  67.8057392  10.4017571  81.7122061  75.9840033   8.8529681  85.5647891
  75.9658509   9.6738562  85.0728160  76.9059953   8.7283756  85.7898032
  72.4413087   6.3673810  86.4071399  72.9741424   5.6062098  86.1770707
  71.9127168   6.0747462  87.1495554  63.6768633   3.7967407  74.7553643
  64.5143855   4.2064415  74.5387351  63.8546901   2.8566849  74.7253837
  75.5733065   1.4642487  70.4437476  75.0579689   2.2347092  70.6825864
  75.3010374   0.7907623  71.0670538  73.1580176  -3.6907812  75.5022715
  72.3021772  -4.0800962  75.3228353  73.5707128  -3.6115851  74.6422500
  70.9322209  -6.0722739  78.9080456  71.7975205  -6.2679930  78.5486346
  70.9999718  -6.3012387  79.8349813  80.5467339   4.2174842  72.3790650
  79.7696782   3.8786001  71.9345812  81.2258820   4.2227465  71.7045615
  75.3619368  -0.6630421  72.2697257  75.0569504  -0.3484271  73.1207401
  76.3149810  -0.5849001  72.3124590  73.8065800   5.4959803  73.9190211
  73.2787162   4.7612562  73.6063449  73.3053303   6.2734479  73.6730180
  78.7858646   3.6908823  79.0357258  78.1282321   4.3808085  79.1237386
  79.5899045   4.0805255  79.3791244  68.5384528  -3.8420531  76.2796823
  69.1128280  -4.0645350  75.5470016  69.1255510  -3.7731837  77.0325424
  77.5964105   2.0453196  77.0861199  78.1095987   2.6783188  77.5882909
  78.2465329   1.4454391  76.7204559  68.8654115  -1.8116070  70.2992708
  68.0291427  -1.4741383  70.6201983  68.7258884  -1.9467090  69.3619845
  71.9518400   3.3140013  66.9225184  71.0445462   3.0829266  67.1216333
  72.4489432   2.5177632  67.1099166  74.8586479  12.0237520  69.8421871
  74.1848178  12.3269217  70.4506828  75.2452301  12.8266600  69.4927328
  74.0744936  -0.4797349  79.3319540  73.1567497  -0.2582402  79.1741228
  74.4905079  -0.4051038  78.4731247  74.8579984   0.9194067  74.4622220
  75.6051802   1.4315464  74.1529342  75.1271573   0.5978120  75.3226614
  73.1306634   3.4152608  71.4449175  72.2217853   3.1311641  71.5421644
  73.1601718   3.8351686  70.5852481  78.3625901   7.0259197  75.2140342
  77.9088228   6.1850107  75.2705533  77.7319868   7.6620596  75.5515122
  77.3058821  -2.0448817  76.4441010  76.5681577  -2.5571430  76.7751252
  77.5585594  -2.4848435  75.6324286  76.8058840   8.8635694  76.1490160
  77.0981815   9.4240751  75.4302526  77.3157461   9.1564255  76.9043319
  63.6994804   1.1358122  75.4264377  63.5019204   0.5427483  74.7015443
  63.1441468   0.8310332  76.1440316  71.6791528   1.0281228  77.5458970
  71.7340138   0.0755065  77.4701446  70.8682730   1.1840667  78.0300268
  72.8282722   4.9561351  68.7837253  72.3902151   4.2397210  68.3242890
  73.5693162   5.1837466  68.2222345  69.6183888  -0.3541712  75.3049349
  68.8051753  -0.0547541  75.7114541  70.1142882  -0.7486023  76.0223831
  71.7692466   9.6416045  77.2383613  71.7268644   9.8676891  76.3092145
  72.6855164   9.4079420  77.3869415  75.2158099   0.1100113  84.1364243
  75.5707487   0.3371586  84.9958708  75.8630231   0.4418489  83.5141498
  80.9455836   3.2318548  74.8413572  80.8073735   3.4220144  73.9134761
  80.5892055   3.9937931  75.2981623  69.1097962  -2.7823356  80.9210584
  69.7497342  -2.9234597  80.2233547  68.2775493  -3.0688843  80.5449186
  80.9725216   5.2995076  79.8524843  81.4061723   5.2070365  80.7007897
  81.6856797   5.2752576  79.2144859  69.8858266   6.5179074  77.0345576
  70.6798865   6.0229394  76.8328151  69.1749959   5.9896937  76.6713282
  74.7053111   8.8997170  81.3857944  74.7590133   9.4688106  82.1535660
  73.8367892   9.0699055  81.0211981  66.1941030   0.6622156  73.1105329
  65.2638618   0.6006611  73.3275291  66.2898502   0.1398109  72.3141970
  66.1126579  -2.8123031  75.6983571  66.3733396  -1.8977698  75.5892731
  66.9343751  -3.2798589  75.8480183  67.5851504  -1.3985274  82.8682395
  68.2574558  -1.6067912  82.2195044  66.7581291  -1.5963188  82.4287627
  81.8340765   5.3418776  82.3857729  82.0276656   6.2464587  82.6317004
  81.7341384   4.8826195  83.2196314  73.4877076  -4.7723333  84.8848056
  72.8404991  -4.0733384  84.7912532  74.2578092  -4.3387189  85.2524304
  76.8955874   5.4925519  87.9598609  76.7441381   5.2636071  87.0428693
  76.8860554   6.4496120  87.9729954  73.6641211   3.0657432  82.9444876
  74.5933271   3.2168591  82.7713843  73.2432241   3.1541452  82.0893522
  72.4629542   7.0908096  80.7143413  72.3240628   6.7226880  81.5869351
  71.6744139   7.6055735  80.5427371  73.0577694  12.1917193  72.0568950
  73.2329450  11.7205236  72.8714572  72.3710482  12.8182959  72.2850211
  74.0134757   6.4689699  78.1032251  73.6784590   6.4290469  78.9989901
  73.5138703   5.8034415  77.6302661  67.9879001   1.8757329  83.6284832
  67.8498799   1.1437568  84.2296371  68.8983925   1.7866229  83.3469020
  76.9493949   3.8145733  68.3769311  76.3323120   3.0892561  68.2802363
  76.4810438   4.5755093  68.0336385  70.6161302   1.5877288  83.1168512
  71.3260921   0.9470480  83.0755130  70.5730610   1.8390183  84.0394693
  78.6048081   8.5244641  86.0375091  78.5460627   7.8403862  85.3705674
  79.0067599   9.2663631  85.5855717  69.3290236  -1.4257494  84.9364151
  68.7927593  -1.8766756  85.5885748  68.7406945  -1.2911585  84.1934616
  67.6238780  15.3406555  78.8308810  67.8635378  15.9725079  79.5087829
  66.7807976  14.9894595  79.1174169  68.7392495  -1.9668843  67.4990615
  67.8621961  -2.0880042  67.1352862  69.2150248  -2.7582764  67.2469504
  78.6065488   6.4884225  84.2689071  77.7192267   6.1510147  84.3915470
  79.1764039   5.7567257  84.5057836  60.2594635   2.8208317  77.5932122
  60.9465675   2.5070047  77.0053137  60.1042764   3.7249682  77.3199374
  65.0629357  -2.2901486  82.0217146  64.9787546  -2.8975817  81.2867556
  64.2412064  -1.7992468  82.0226642  72.1366641  11.1485678  81.2350314
  72.0636813  11.9540649  81.7469619  71.6944035  11.3477644  80.4098335
  71.9256421  10.3857448  74.7453135  71.1423943  10.9279128  74.8391360
  72.6249166  10.9031427  75.1447377  75.2353071  -3.8047923  77.3887341
  75.7321771  -4.5577960  77.0688411  74.4640053  -3.7683606  76.8230550
  83.0882829   1.8992443  79.0305632  83.0772705   2.7817158  78.6599565
  82.2200208   1.5463994  78.8360169  74.5965325  11.0472512  83.3908473
  75.3093297  11.6819977  83.3184374  74.1055354  11.1436378  82.5748474
  76.3182852   4.9523764  74.9625764  75.3839131   5.0725227  74.7930469
  76.4959520   4.0496231  74.6985774  71.8188040  -1.6630540  77.1159025
  71.4485827  -2.2159499  77.8039931  72.3147132  -2.2672406  76.5634026
  79.7055403   0.7941084  75.4975798  80.1715855   1.6269075  75.4236101
  80.1562904   0.3286065  76.2021057  69.6477239   8.7966955  84.2114043
  70.3486698   9.4303438  84.3643438  69.1772354   9.1381687  83.4509683
  77.7731634   7.1384905  72.4961950  78.0491478   7.0241500  73.4055825
  76.9036133   6.7402390  72.4574124  77.4478524   1.3511563  82.0366594
  76.7949975   1.5987470  81.3819047  77.8258904   0.5375701  81.7029071
  74.4085698  11.3871256  76.1394764  74.5908093  10.5692912  76.6022516
  75.2318684  11.6038948  75.7019654  74.7427864  10.3139441  73.4009813
  75.2715630   9.8031896  72.7879975  75.0056083   9.9981971  74.2655346
  73.4966098   2.0931374  88.5232631  72.8206735   1.9925503  89.1935006
  74.3193731   1.9370587  88.9868628  65.2444957   8.3303310  81.1445146
  65.8298393   7.5846998  81.2773050  65.0469795   8.6407267  82.0281810
  68.0983612  11.3654558  76.1607588  67.4293987  11.8500685  75.6771629
  67.9596481  11.6123778  77.0750967  59.8362611   0.9008910  79.8649589
  59.8746711   0.3672501  80.6586707  59.3302904   0.3744116  79.2460566
  72.2388880  13.3998301  82.7590247  72.7907188  13.5629923  83.5239332
  72.5795074  13.9902739  82.0870272  67.2153374  -4.2526549  83.3612132
  67.2794700  -3.3911718  82.9489529  67.1520494  -4.8652547  82.6284490
  66.6905646  -2.1803416  87.0085166  67.3177685  -2.5626339  87.6222690
  65.8333565  -2.3989215  87.3740858  77.0899755   8.2259559  88.6138901
  77.6339659   8.8389517  88.1193856  76.5086600   8.7839137  89.1305914
  63.4671189  -0.3726987  72.9403521  63.7624630  -1.2816309  72.8870574
  62.5659225  -0.3939248  72.6184523  75.3757268  11.3480277  79.7453929
  75.2508407  10.5470017  79.2364875  76.0336359  11.8426470  79.2567899
  66.9965436  -2.2970991  78.9231069  66.2752022  -1.6835023  78.7838543
  67.7858692  -1.7613226  78.8447715  77.4392176   9.1489297  81.3733479
  76.4922512   9.0294648  81.3011806  77.7874949   8.2611795  81.4559741
  69.7991749  -4.9616564  85.1971721  70.3226151  -4.7154268  85.9598030
  69.5804083  -4.1296529  84.7774858  65.1959030  -2.6912890  73.0642846
  64.8671737  -3.5715511  72.8817952  65.5498401  -2.7465221  73.9519235
  74.4438609   8.9442013  77.5737831  74.2963572   8.0158720  77.7545401
  75.2692103   8.9662104  77.0894907  68.3100854  -2.4039920  73.4318323
  68.6496926  -1.8753999  72.7096932  68.7572974  -2.0659514  74.2076890
  78.0472731   9.7670572  78.6602704  78.9719279   9.5613433  78.5227155
  77.8788035   9.5186973  79.5692046  71.0044294  -4.0202869  82.8821392
  70.6641115  -4.8195056  83.2842071  70.2983301  -3.7201158  82.3098225
  70.2969001  -3.9065298  71.6311616  71.0177363  -3.5284046  71.1275333
  69.6734305  -3.1876421  71.7346594  74.4400124  -3.2020149  72.5669949
  74.6563738  -2.3195511  72.2658777  73.9594191  -3.5933936  71.8375591
  69.1799345  -0.2434436  79.1440693  69.0343926   0.0705867  80.0364975
  68.7024549   0.3750464  78.5911592  71.0395728  -3.2531888  79.1921583
  71.0257297  -4.1490795  78.8553881  71.7568156  -3.2461224  79.8259869
  72.8921859  -2.8194548  81.2374710  72.6339636  -1.8977477  81.2359041
  72.3606899  -3.2164113  81.9275174  77.8368047  10.2856239  74.0164796
  78.0104925   9.7202662  73.2638648  78.3296939  11.0857134  73.8344285
  63.6545007   2.2970908  82.0828354  63.1098475   3.0730716  82.2148629
  64.5324357   2.6441713  81.9247476  70.4432624  -4.3717508  74.4609153
  70.5648535  -5.3000862  74.6600040  70.1534666  -4.3578822  73.5487468
  83.6907439   3.0492662  75.6355095  84.1338585   2.2999987  75.2374219
  82.8133949   3.0402799  75.2528827  78.8243220   9.6023004  71.1161694
  79.5194125  10.2229696  71.3349008  79.1666370   8.7518355  71.3914072
  64.4411029   1.4240805  84.9758511  63.6992765   1.5723440  85.5623142
  64.1203773   1.6849070  84.1125261  80.7234643   7.0522709  72.6449025
  81.2485967   7.3909982  71.9198345  80.6356996   6.1169724  72.4612159
  72.3854692  10.9656783  84.7738901  72.6941818  10.7205930  85.6461601
  73.1830174  11.1703421  84.2857771  72.4075304  13.1194692  77.0044278
  71.9680294  12.6271071  77.6977134  73.1583421  12.5767660  76.7636353
  64.8867643   9.3106233  77.0068906  65.7125663   9.0110005  76.6267549
  64.5361695   8.5413856  77.4558695  69.8549176   8.6632702  79.0766579
  69.2329185   8.0003407  78.7768807  70.5254043   8.6893833  78.3940227
  63.0876248   7.2292560  77.9657839  62.2508156   6.8014734  77.7841841
  63.0599893   7.4225003  78.9028631  69.9273703  -2.8585510  88.6699085
  69.9761859  -1.9823388  88.2876855  70.4696218  -3.4008117  88.0970729
  80.4128549   7.6855613  87.9500223  79.6224093   7.6679752  87.4104722
  80.1761904   8.2243906  88.7049259  80.5326424   4.5348079  85.2632951
  80.5824429   4.3698087  86.2048474  80.4240347   3.6675338  84.8730832
  69.4162683   7.2136625  72.5525040  69.5650803   7.8972089  71.8991713
  70.2229126   7.1941715  73.0674496  77.8230187   0.5179007  86.5792258
  78.7240049   0.3785472  86.2876256  77.8978161   0.6833462  87.5190435
  72.1572992  -2.1054138  85.4245444  71.2876301  -1.8120572  85.1528033
  72.3932472  -1.5213693  86.1452708  82.0344621   6.9545021  85.5074973
  81.7429429   7.3175001  86.3438434  81.4216752   6.2412029  85.3288305
  83.2340303   4.5197900  78.0277543  84.0687195   4.9587705  78.1915103
  83.3699432   4.0436554  77.2085789  80.2831809   2.0777635  83.9755031
  80.7585931   2.2705282  83.1673882  79.3597375   2.1336821  83.7298414
  67.1715316   3.2401802  73.5586109  66.9261358   2.3364132  73.7566319
  67.3411230   3.2418953  72.6165587  66.4410963  -1.0269840  71.0572270
  65.7480208  -0.9525485  70.4012306  66.1962715  -1.7909496  71.5793787
  72.9158088   9.7084755  70.0236787  72.3432055  10.3274942  69.5707259
  73.4890882  10.2584117  70.5576709  78.9833478  -1.0456605  82.2083336
  79.9350901  -0.9458507  82.2295560  78.8136929  -1.8378336  82.7181421
  77.0047858  -3.9601021  82.3942737  76.4097790  -3.6796009  81.6989226
  76.7197554  -3.4707120  83.1659478  76.1355348   9.9921905  71.1545370
  77.0686021   9.9267467  71.3578245  76.0478561  10.8278172  70.6959902
  78.7643365   9.3087776  68.1149317  78.6856996   8.9747639  69.0085075
  79.5853032   9.8009544  68.1140790  81.4621556   2.1749515  81.3225636
  81.4297876   1.2365516  81.5085320  82.0722180   2.2533552  80.5891461
  73.3004887   1.0445568  67.3652840  74.2463992   0.9151776  67.4341258
  72.9219132   0.3060230  67.8422268  81.6116044  -1.0339441  81.3683919
  81.0955093  -1.8180985  81.1813848  82.4955993  -1.3620725  81.5330439
  87.2798106   3.2365522  80.4631673  88.0101494   2.9750810  81.0239376
  86.6705051   2.4994244  80.5033741  85.3613403   1.3773385  81.0606124
  84.6346567   1.2429349  80.4522615  84.9460690   1.6850213  81.8662842
  73.1843579   5.0963314  88.8253497  74.1046589   5.2741913  89.0193543
  73.1493162   4.1519360  88.6733196  71.4847804  -1.0304456  67.3007725
  70.5779259  -1.3271343  67.3770439  71.7623785  -1.3274637  66.4342011
  62.4025744   0.2901908  77.7506772  62.0828529  -0.5632784  77.4581146
  61.8559173   0.5050486  78.5064739  66.1805652   3.0064349  81.4676278
  66.3991662   3.9381457  81.4864312  66.5931426   2.6472323  82.2531082
  71.0533517  -1.4202445  90.8579027  70.9530244  -0.4708088  90.7891118
  70.8355059  -1.7484206  89.9855097  70.2546589  -4.1717520  67.4419704
  71.1165753  -3.8462622  67.7015522  70.4396933  -4.9586024  66.9292770
  62.2714004   3.9104819  79.7199893  61.5777476   3.4958772  79.2069848
  63.0186995   3.9525356  79.1233312  70.9164787   2.0094693  89.6744089
  70.4331869   2.8095054  89.8807978  71.0025726   2.0202638  88.7211533
  64.1850747   3.8423073  77.5965908  64.1621435   3.9410760  76.6447791
  64.4951383   4.6888224  77.9183074  66.8438125   5.8999228  81.7112522
  67.7981378   5.8683170  81.6442454  66.6450648   5.4389852  82.5262748
  67.4337507   4.4700344  84.2783320  68.2530396   4.9644423  84.3018157
  67.7074315   3.5532312  84.2500888  77.1904103  -3.1388903  73.6411276
  76.3029958  -2.8539253  73.4231470  77.6058092  -3.2995140  72.7938552
  80.5418639  -3.1142383  77.3565615  81.3179029  -2.6245930  77.6290232
  79.8166773  -2.6884328  77.8137484  65.1988354  11.4418848  78.7282720
  65.0642821  10.6819249  78.1620718  64.7820416  12.1659747  78.2611509
  76.3347317   6.6255771  67.7359296  77.0383167   6.8305774  68.3516951
  75.6109965   7.1932533  68.0008379  77.1645127   2.3765632  73.8561566
  77.1080328   2.8334184  73.0169198  77.7173469   1.6156317  73.6784409
  80.9749933  -1.8344636  74.6811685  80.7186867  -2.2348000  75.5119893
  80.3502801  -1.1200842  74.5561824  85.2862271   0.9051438  77.1882977
  84.7261829   0.9744627  77.9614539  84.6805774   0.7292422  76.4682473
  68.3557479  12.3388165  78.9401163  68.2389864  13.2833597  78.8379853
  67.5349926  12.0361726  79.3286962  78.2434014   7.0638300  69.7857756
  79.0779618   6.6319499  69.6035230  78.0818357   6.8920314  70.7134650
  77.8979906   3.5670414  71.1514095  77.8428710   3.4014685  70.2102539
  77.2725961   4.2746447  71.3076285  62.6872421  -1.1961522  84.9775517
  63.3331285  -1.7062568  85.4662742  62.4789572  -0.4592840  85.5518942
  75.2125813   5.8719326  90.4767658  76.0816973   6.0459978  90.1154293
  74.7332565   6.6913742  90.3543387  69.3811994  12.9916427  82.1557091
  70.2839240  13.0240037  82.4723586  69.1549364  12.0616877  82.1703427
  71.1365596  11.7447413  78.8167170  70.1861227  11.7449275  78.7031542
  71.4398082  10.9980148  78.3003205  67.0269912  -4.0493905  89.0750531
  67.8901374  -4.4057100  89.2853856  66.4535323  -4.3880010  89.7625936
  86.8718289  17.5807951  79.8812932  87.5096699  17.4614699  79.1776272
  86.7539132  18.5288795  79.9400885  83.6807995  17.5335380  79.8174457
  83.3426507  17.4176444  78.9294992  84.5497764  17.1326545  79.7975463
  79.5394811  19.3870856  75.8071348  78.9759676  19.2960793  75.0387636
  79.4247206  18.5670760  76.2873841  84.1627778  18.6870231  85.7760663
  84.1516419  18.2923030  84.9041166  84.3248418  17.9536304  86.3694434
  77.0859243  20.8822048  78.6455568  77.8780535  20.5412872  78.2301868
  77.3255893  20.9917023  79.5657722  85.1194370  23.0541824  71.1185813
  84.4682350  23.6395904  70.7319827  85.9138733  23.5848019  71.1780850
  79.0449997  20.1430961  71.5172947  79.8180873  19.5959948  71.3785823
  79.3975396  21.0075210  71.7287409  80.8835039  21.4707343  84.7239847
  80.5924905  22.3752974  84.6086513  81.5192024  21.5123871  85.4383916
  81.8091246  18.8484192  81.3141206  82.4054819  18.6240214  80.5998169
  81.8666218  18.1068937  81.9166654  81.3816275  16.3023627  69.1491397
  81.6341795  15.7805148  68.3874860  80.4440834  16.1389772  69.2518081
  86.4259558  15.3059405  76.9566140  87.2122647  14.8878828  76.6056557
  86.6898262  16.2105498  77.1247789  86.5969635  20.7432256  71.6554797
  85.9615468  20.8166882  72.3675702  86.2667041  21.3325854  70.9773876
  91.8267985  15.2434639  77.8599119  92.5593157  14.6733855  78.0936948
  91.0707340  14.8556239  78.3005625  81.1012563  18.2051733  71.3515772
  80.9848822  17.5296636  72.0196856  81.2114823  17.7184107  70.5347925
  83.4444104  17.6661880  75.0562461  83.0802312  17.1392501  75.7675383
  84.3011220  17.2760349  74.8828947  89.3493405   8.9556213  82.3193728
  89.0176730   9.8251624  82.0954943  88.7539018   8.6392497  82.9987758
  83.0849591  12.6951780  70.0523810  83.2523994  13.5632016  70.4194281
  82.8946760  12.8579061  69.1285099  85.8424925  21.1568759  81.7189640
  85.5425648  22.0593797  81.6105447  85.4975984  20.8900942  82.5710793
  79.2937406  17.6082555  77.7526345  78.3687903  17.4758770  77.9604036
  79.5421819  18.3876775  78.2496287  89.2422068  13.6751299  79.3987078
  88.3338946  13.6066707  79.1045839  89.1909664  14.1523244  80.2268903
  83.0638812  15.1509437  71.0370477  82.9438437  15.5966488  71.8755957
  82.3691401  15.4994755  70.4784015  76.6546217  17.2515829  78.5870134
  76.7838598  17.5050308  79.5009545  75.9743668  17.8443537  78.2674789
  80.8245704  27.9213079  74.6860608  80.7469734  28.8720904  74.7649089
  80.2207348  27.5758951  75.3435534  83.3162934  15.0940944  87.3421975
  82.5396268  15.6534865  87.3324839  83.9553497  15.5797727  87.8636845
  91.1083715  11.8767737  81.1764952  90.4658095  12.1700270  80.5304746
  90.6038643  11.7620658  81.9818148  88.7623878  15.6230910  71.8650811
  89.6741735  15.8558297  71.6898508  88.2533525  16.2067955  71.3025889
  81.5709306  17.9026398  86.9039942  82.3123991  18.4411442  86.6274765
  80.8646292  18.5292687  87.0611494  87.0464646  20.0455538  85.5012103
  87.4548002  19.6037949  84.7566736  86.3241908  19.4708166  85.7546296
  83.3995716  14.9828145  82.8745660  84.2456911  15.4067559  83.0180309
  83.3394354  14.3261769  83.5684223  87.3693461  20.6056729  79.2564392
  86.7402323  20.7702443  78.5540460  86.9819123  21.0198338  80.0275356
  91.2482693  21.5411167  76.6108756  90.5633731  21.9210068  76.0605789
  91.3326542  22.1506493  77.3440704  86.5495161  12.6432513  84.5326834
  86.3056093  13.3974574  83.9961110  86.8255092  13.0217861  85.3674081
  88.5033624  19.1871126  83.2104100  88.7150519  19.8302886  82.5338481
  88.4563372  18.3533442  82.7426030  86.1059853  11.7988946  80.1140672
  85.2444332  12.0970200  80.4057409  86.1322288  12.0159345  79.1821704
  82.9221423  20.3431137  76.5214477  83.3859768  20.6218840  75.7319100
  82.6578221  19.4414582  76.3387568  79.8145504  19.8902618  79.4594241
  80.3846861  20.3189887  78.8211725  80.4053616  19.6085203  80.1578426
  81.8590309  16.4654289  73.3304042  82.5614352  16.9175333  73.7977969
  81.5270937  15.8238108  73.9583936  80.3070670  15.0566046  87.7055252
  79.6769331  15.7382327  87.9390649  80.2006758  14.9449128  86.7608390
  75.6015643  14.7237842  78.6321176  74.8114697  14.9795371  78.1561287
  76.0926890  15.5386180  78.7373217  89.6179452  22.0643081  81.3826457
  90.4396896  21.6623268  81.1009138  89.6141855  21.9611315  82.3342573
  77.5530388  15.0882421  75.5904653  76.7561551  15.2001115  76.1088148
  77.3255980  15.4269073  74.7245543  83.3836056  21.6127124  83.5387167
  83.4480488  22.0747532  84.3745339  82.6746980  20.9824489  83.6669477
  73.8853346  14.9768332  81.0636167  74.1361384  15.8615342  81.3293743
  74.4212894  14.7972934  80.2911259  97.7085445  18.4081830  77.7311428
  96.9549154  17.8389228  77.5755433  97.8432986  18.3744494  78.6782063
  83.0984073  23.2795232  73.4066148  82.9629748  24.1246768  73.8350996
  83.6393886  23.4814510  72.6432081  79.5851413   9.3586812  90.0680503
  79.1918358   8.8053010  90.7428147  80.4017553   9.6697390  90.4587020
  76.5513471  20.7970670  73.9794073  77.0637991  21.5913920  74.1299637
  77.2036184  20.0996960  73.9127674  78.3608355  23.9136426  76.0616826
  78.5374984  24.8354391  75.8737810  79.1565189  23.5994845  76.4911206
  82.5019374  10.7744691  87.6600759  83.2429087  11.3751844  87.5805222
  82.7337297  10.0322329  87.1018802  77.6460712  15.9601058  85.9378989
  77.5314227  15.0586315  86.2386088  76.7905230  16.2064755  85.5863806
  84.7252550  23.9018798  87.5366490  84.2816404  23.1155177  87.2187394
  85.3869763  24.0897949  86.8710381  79.4839671  25.4314600  82.0627168
  80.0347096  25.3031663  81.2904162  78.6451147  25.7309489  81.7122061
  86.8233788  24.1821598  85.5647891  86.8052263  25.0030479  85.0728160
  87.7453708  24.0575674  85.7898032  83.2806842  21.6965728  86.4071399
  83.8135179  20.9354016  86.1770707  82.7520923  21.4039380  87.1495554
  86.4476537   6.8025794  81.9365041  86.1040806   7.6927435  81.8604152
  86.8155499   6.6127451  81.0734626  74.5162387  19.1259324  74.7553643
  75.3537609  19.5356333  74.5387351  74.6940655  18.1858766  74.7253837
  86.4126820  16.7934405  70.4437476  85.8973443  17.5639010  70.6825864
  86.1404128  16.1199541  71.0670538  83.9973931  11.6384106  75.5022715
  83.1415527  11.2490956  75.3228353  84.4100882  11.7176067  74.6422500
  85.5273077   9.1730449  79.9014274  85.0237873   9.1360584  79.0882080
  85.8203684  10.0823192  79.9610931  81.7715963   9.2569179  78.9080456
  82.6368960   9.0611987  78.5486346  81.8393472   9.0279530  79.8349813
  91.3861094  19.5466760  72.3790650  90.6090536  19.2077919  71.9345812
  92.0652575  19.5519383  71.7045615  86.2013123  14.6661497  72.2697257
  85.8963258  14.9807646  73.1207401  87.1543565  14.7442917  72.3124590
  84.6459555  20.8251720  73.9190211  84.1180916  20.0904480  73.6063449
  84.1447057  21.6026397  73.6730180  89.6252401  19.0200741  79.0357258
  88.9676075  19.7100002  79.1237386  90.4292800  19.4097173  79.3791244
  79.3778282  11.4871387  76.2796823  79.9522034  11.2646568  75.5470016
  79.9649265  11.5560081  77.0325424  88.4357859  17.3745114  77.0861199
  88.9489741  18.0075105  77.5882909  89.0859083  16.7746309  76.7204559
  79.7047869  13.5175848  70.2992708  78.8685182  13.8550534  70.6201983
  79.5652639  13.3824827  69.3619845  81.6800950   8.3612636  75.0071892
  81.0265362   8.0461653  74.3828507  81.6381424   7.7388376  75.7331715
  82.7912155  18.6431931  66.9225184  81.8839217  18.4121184  67.1216333
  83.2883187  17.8469550  67.1099166  85.6980234  27.3529438  69.8421871
  85.0241932  27.6561135  70.4506828  86.0846056  28.1558518  69.4927328
  84.9138690  14.8494569  79.3319540  83.9961252  15.0709516  79.1741228
  85.3298834  14.9240880  78.4731247  85.6973738  16.2485985  74.4622220
  86.4445557  16.7607382  74.1529342  85.9665328  15.9270037  75.3226614
  83.9700388  18.7444525  71.4449175  83.0611607  18.4603558  71.5421644
  83.9995472  19.1643604  70.5852481  89.2019656  22.3551115  75.2140342
  88.7481983  21.5142025  75.2705533  88.5713622  22.9912513  75.5515122
  88.1452575  13.2843101  76.4441010  87.4075332  12.7720487  76.7751252
  88.3979349  12.8443483  75.6324286  87.6452595  24.1927612  76.1490160
  87.9375569  24.7532669  75.4302526  88.1551215  24.4856173  76.9043319
  88.2464203   6.0619353  77.0382779  88.5523079   5.2016716  76.7508694
  88.9716807   6.6536973  76.8381773  74.5388559  16.4650040  75.4264377
  74.3412958  15.8719400  74.7015443  73.9835223  16.1602250  76.1440316
  82.5185282  16.3573146  77.5458970  82.5733892  15.4046982  77.4701446
  81.7076484  16.5132585  78.0300268  83.6676476  20.2853269  68.7837253
  83.2295906  19.5689128  68.3242890  84.4086917  20.5129384  68.2222345
  80.4577642  14.9750206  75.3049349  79.6445508  15.2744376  75.7114541
  80.9536636  14.5805895  76.0223831  82.6086220  24.9707963  77.2383613
  82.5662399  25.1968809  76.3092145  83.5248919  24.7371337  77.3869415
  86.0551854  15.4392030  84.1364243  86.4101242  15.6663503  84.9958708
  86.7023985  15.7710407  83.5141498  91.7849591  18.5610466  74.8413572
  91.6467489  18.7512062  73.9134761  91.4285810  19.3229849  75.2981623
  79.9491717  12.5468561  80.9210584  80.5891096  12.4057320  80.2233547
  79.1169247  12.2603075  80.5449186  91.8118970  20.6286993  79.8524843
  92.2455477  20.5362282  80.7007897  92.5250551  20.6044494  79.2144859
  80.7252021  21.8470992  77.0345576  81.5192619  21.3521312  76.8328151
  80.0143713  21.3188855  76.6713282  85.5446865  24.2289087  81.3857944
  85.5983888  24.7980024  82.1535660  84.6761647  24.3990972  81.0211981
  77.0334784  15.9914073  73.1105329  76.1032372  15.9298529  73.3275291
  77.1292256  15.4690026  72.3141970  76.9520333  12.5168886  75.6983571
  77.2127151  13.4314220  75.5892731  77.7737506  12.0493329  75.8480183
  78.4245259  13.9306643  82.8682395  79.0968312  13.7224006  82.2195044
  77.5975045  13.7328729  82.4287627  92.6734520  20.6710694  82.3857729
  92.8670410  21.5756504  82.6317004  92.5735138  20.2118113  83.2196314
  84.3270831  10.5568584  84.8848056  83.6798746  11.2558534  84.7912532
  85.0971846  10.9904728  85.2524304  87.7349629  20.8217437  87.9598609
  87.5835135  20.5927988  87.0428693  87.7254308  21.7788038  87.9729954
  84.5034965  18.3949349  82.9444876  85.4327025  18.5460509  82.7713843
  84.0825995  18.4833370  82.0893522  83.3023297  22.4200014  80.7143413
  83.1634383  22.0518798  81.5869351  82.5137893  22.9347653  80.5427371
  83.8971449  27.5209110  72.0568950  84.0723204  27.0497153  72.8714572
  83.2104237  28.1474876  72.2850211  84.8528512  21.7981616  78.1032251
  84.5178345  21.7582386  78.9989901  84.3532458  21.1326332  77.6302661
  78.8272756  17.2049246  83.6284832  78.6892554  16.4729485  84.2296371
  79.7377679  17.1158147  83.3469020  87.7887704  19.1437651  68.3769311
  87.1716874  18.4184479  68.2802363  87.3204192  19.9047011  68.0336385
  81.4555057  16.9169206  83.1168512  82.1654675  16.2762398  83.0755130
  81.4124365  17.1682101  84.0394693  89.4441835  23.8536559  86.0375091
  89.3854381  23.1695779  85.3705674  89.8461354  24.5955549  85.5855717
  80.1683991  13.9034424  84.9364151  79.6321348  13.4525162  85.5885748
  79.5800699  14.0380333  84.1934616  78.4632534  30.6698473  78.8308810
  78.7029132  31.3016997  79.5087829  77.6201731  30.3186513  79.1174169
  79.5786250  13.3623075  67.4990615  78.7015716  13.2411876  67.1352862
  80.0544003  12.5709153  67.2469504  89.4459243  21.8176143  84.2689071
  88.5586021  21.4802065  84.3915470  90.0157794  21.0859174  84.5057836
  71.0988390  18.1500235  77.5932122  71.7859430  17.8361965  77.0053137
  70.9436518  19.0541599  77.3199374  75.9023112  13.0390431  82.0217146
  75.8181301  12.4316101  81.2867556  75.0805818  13.5299450  82.0226642
  82.9760396  26.4777595  81.2350314  82.9030567  27.2832567  81.7469619
  82.5337789  26.6769561  80.4098335  82.7650176  25.7149365  74.7453135
  81.9817697  26.2571046  74.8391360  83.4642921  26.2323345  75.1447377
  86.0746826  11.5243995  77.3887341  86.5715525  10.7713957  77.0688411
  85.3033807  11.5608312  76.8230550  93.9276583  17.2284360  79.0305632
  93.9166459  18.1109076  78.6599565  93.0593963  16.8755911  78.8360169
  85.4359079  26.3764429  83.3908473  86.1487052  27.0111894  83.3184374
  84.9449108  26.4728295  82.5748474  87.1576606  20.2815682  74.9625764
  86.2232885  20.4017145  74.7930469  87.3353275  19.3788149  74.6985774
  82.6581794  13.6661378  77.1159025  82.2879582  13.1132418  77.8039931
  83.1540887  13.0619511  76.5634026  90.5449158  16.1233001  75.4975798
  91.0109610  16.9560993  75.4236101  90.9956658  15.6577983  76.2021057
  80.4870993  24.1258873  84.2114043  81.1880452  24.7595356  84.3643438
  80.0166108  24.4673604  83.4509683  88.6125389  22.4676823  72.4961950
  88.8885233  22.3533417  73.4055825  87.7429888  22.0694308  72.4574124
  88.5165820   8.4913588  79.5366700  87.6028900   8.7217815  79.7048907
  88.9458922   8.5752032  80.3880732  88.2872279  16.6803480  82.0366594
  87.6343729  16.9279388  81.3819047  88.6652659  15.8667619  81.7029071
  85.2479453  26.7163174  76.1394764  85.4301847  25.8984829  76.6022516
  86.0712439  26.9330866  75.7019654  85.5821618  25.6431359  73.4009813
  86.1109385  25.1323813  72.7879975  85.8449838  25.3273889  74.2655346
  84.3359852  17.4223291  88.5232631  83.6600489  17.3217421  89.1935006
  85.1587486  17.2662505  88.9868628  76.0838711  23.6595228  81.1445146
  76.6692148  22.9138916  81.2773050  75.8863550  23.9699185  82.0281810
  78.9377366  26.6946475  76.1607588  78.2687742  27.1792603  75.6771629
  78.7990236  26.9415696  77.0750967  70.6756366  16.2300828  79.8649589
  70.7140465  15.6964419  80.6586707  70.1696659  15.7036034  79.2460566
  83.0782635  28.7290219  82.7590247  83.6300943  28.8921840  83.5239332
  83.4188828  29.3194657  82.0870272  78.0547128  11.0765369  83.3612132
  78.1188455  11.9380200  82.9489529  77.9914248  10.4639370  82.6284490
  77.5299401  13.1488501  87.0085166  78.1571439  12.7665579  87.6222690
  76.6727319  12.9302703  87.3740858  87.9293509  23.5551476  88.6138901
  88.4733413  24.1681435  88.1193856  87.3480354  24.1131055  89.1305914
  74.3064943  14.9564930  72.9403521  74.6018384  14.0475609  72.8870574
  73.4052979  14.9352670  72.6184523  86.2151022  26.6772194  79.7453929
  86.0902162  25.8761934  79.2364875  86.8730113  27.1718388  79.2567899
  77.8359190  13.0320927  78.9231069  77.1145776  13.6456895  78.7838543
  78.6252446  13.5678692  78.8447715  88.2785931  24.4781214  81.3733479
  87.3316266  24.3586566  81.3011806  88.6268704  23.5903713  81.4559741
  80.6385504  10.3675353  85.1971721  81.1619906  10.6137650  85.9598030
  80.4197837  11.1995388  84.7774858  76.0352785  12.6379028  73.0642846
  75.7065491  11.7576407  72.8817952  76.3892156  12.5826697  73.9519235
  85.2832364  24.2733931  77.5737831  85.1357326  23.3450638  77.7545401
  86.1085857  24.2954021  77.0894907  79.1494608  12.9251998  73.4318323
  79.4890681  13.4537919  72.7096932  79.5966729  13.2632404  74.2076890
  88.8866486  25.0962489  78.6602704  89.8113033  24.8905351  78.5227155
  88.7181789  24.8478891  79.5692046  81.8438049  11.3089049  82.8821392
  81.5034869  10.5096862  83.2842071  81.1377055  11.6090759  82.3098225
  82.4954521   8.3938361  81.3348715  83.3180590   7.9198839  81.2127605
  82.7392584   9.1728845  81.8347401  81.1362755  11.4226619  71.6311616
  81.8571118  11.8007872  71.1275333  80.5128059  12.1415496  71.7346594
  85.2793878  12.1271768  72.5669949  85.4957493  13.0096406  72.2658777
  84.7987945  11.7357982  71.8375591  80.0193100  15.0857482  79.1440693
  79.8737680  15.3997785  80.0364975  79.5418303  15.7042382  78.5911592
  81.8789482  12.0760030  79.1921583  81.8651051  11.1801123  78.8553881
  82.5961911  12.0830693  79.8259869  83.7315613  12.5097370  81.2374710
  83.4733391  13.4314440  81.2359041  83.2000654  12.1127804  81.9275174
  88.6761802  25.6148157  74.0164796  88.8498679  25.0494579  73.2638648
  89.1690693  26.4149052  73.8344285  74.4938762  17.6262826  82.0828354
  73.9492230  18.4022634  82.2148629  75.3718112  17.9733630  81.9247476
  81.2826378  10.9574410  74.4609153  81.4042290  10.0291056  74.6600040
  80.9928421  10.9713096  73.5487468  84.1517569   8.6429320  77.5975873
  84.1739266   8.7068653  76.6427852  84.5685628   7.8033829  77.7916379
  94.5301193  18.3784580  75.6355095  94.9732339  17.6291905  75.2374219
  93.6527703  18.3694716  75.2528827  89.6636974  24.9314921  71.1161694
  90.3587879  25.5521614  71.3349008  90.0060125  24.0810273  71.3914072
  75.2804784  16.7532722  84.9758511  74.5386520  16.9015358  85.5623142
  74.9597528  17.0140988  84.1125261  91.5628397  22.3814627  72.6449025
  92.0879722  22.7201900  71.9198345  91.4750750  21.4461642  72.4612159
  83.2248446  26.2948700  84.7738901  83.5335573  26.0497847  85.6461601
  84.0223928  26.4995339  84.2857771  83.2469058  28.4486610  77.0044278
  82.8074049  27.9562989  77.6977134  83.9977175  27.9059578  76.7636353
  75.7261397  24.6398151  77.0068906  76.5519417  24.3401923  76.6267549
  75.3755449  23.8705773  77.4558695  80.6942930  23.9924619  79.0766579
  80.0722940  23.3295324  78.7768807  81.3647797  24.0185751  78.3940227
  73.9270002  22.5584477  77.9657839  73.0901911  22.1306652  77.7841841
  73.8993648  22.7516921  78.9028631  80.7667458  12.4706407  88.6699085
  80.8155613  13.3468530  88.2876855  81.3089972  11.9283800  88.0970729
  91.2522304  23.0147530  87.9500223  90.4617847  22.9971669  87.4104722
  91.0155658  23.5535824  88.7049259  91.3720179  19.8639997  85.2632951
  91.4218184  19.6990004  86.2048474  91.2634102  18.9967256  84.8730832
  80.2556437  22.5428543  72.5525040  80.4044558  23.2264007  71.8991713
  81.0622881  22.5233633  73.0674496  88.6623941  15.8470925  86.5792258
  89.5633804  15.7077390  86.2876256  88.7371916  16.0125380  87.5190435
  82.9966746  13.2237780  85.4245444  82.1270056  13.5171346  85.1528033
  83.2326227  13.8078225  86.1452708  92.8738375  22.2836938  85.5074973
  92.5823184  22.6466919  86.3438434  92.2610507  21.5703947  85.3288305
  94.0734058  19.8489818  78.0277543  94.9080949  20.2879622  78.1915103
  94.2093187  19.3728471  77.2085789  91.1225564  17.4069553  83.9755031
  91.5979685  17.5997199  83.1673882  90.1991129  17.4628739  83.7298414
  78.0109070  18.5693720  73.5586109  77.7655112  17.6656050  73.7566319
  78.1804985  18.5710871  72.6165587  85.7005780   9.4417397  82.9410865
  86.2187724  10.1778423  82.6157353  85.3460913   9.7481390  83.7757624
  77.2804718  14.3022078  71.0572270  76.5873963  14.3766433  70.4012306
  77.0356470  13.5382421  71.5793787  85.9518374   5.8617679  78.4611761
  86.2320128   5.1940868  79.0872188  86.7368981   6.0546775  77.9486425
  83.7551843  25.0376673  70.0236787  83.1825810  25.6566860  69.5707259
  84.3284637  25.5876035  70.5576709  89.8227233  14.2835313  82.2083336
  90.7744656  14.3833411  82.2295560  89.6530683  13.4913582  82.7181421
  87.8441612  11.3690896  82.3942737  87.2491544  11.6495909  81.6989226
  87.5591309  11.8584797  83.1659478  86.9749103  25.3213823  71.1545370
  87.9079776  25.2559385  71.3578245  86.8872315  26.1570090  70.6959902
  89.6037119  24.6379693  68.1149317  89.5250751  24.3039557  69.0085075
  90.4246786  25.1301461  68.1140790  92.3015310  17.5041433  81.3225636
  92.2691631  16.5657433  81.5085320  92.9115934  17.5825469  80.5891461
  84.1398641  16.3737486  67.3652840  85.0857746  16.2443694  67.4341258
  83.7612886  15.6352148  67.8422268  92.4509799  14.2952476  81.3683919
  91.9348848  13.5110933  81.1813848  93.3349747  13.9671193  81.5330439
  90.1120526   8.0393492  77.3279732  89.9145347   7.7308580  78.2123064
  90.7220231   8.7655131  77.4577662  98.1191860  18.5657440  80.4631673
  98.8495249  18.3042728  81.0239376  97.5098806  17.8286162  80.5033741
  96.2007157  16.7065302  81.0606124  95.4740321  16.5721267  80.4522615
  95.7854444  17.0142131  81.8662842  84.0237334  20.4255232  88.8253497
  84.9440343  20.6033831  89.0193543  83.9886917  19.4811277  88.6733196
  82.3241558  14.2987462  67.3007725  81.4173014  14.0020575  67.3770439
  82.6017539  14.0017280  66.4342011  73.2419499  15.6193826  77.7506772
  72.9222283  14.7659134  77.4581146  72.6952927  15.8342404  78.5064739
  77.0199406  18.3356267  81.4676278  77.2385416  19.2673374  81.4864312
  77.4325180  17.9764241  82.2531082  83.9403624   8.8424352  73.4551966
  83.1304353   8.4971437  73.8307213  84.6288041   8.5331896  74.0439578
  85.8694172   7.9202399  75.0776263  86.4225211   8.3397852  75.7366286
  86.1064259   6.9938147  75.1199219  81.8927272  13.9089472  90.8579027
  81.7923999  14.8583829  90.7891118  81.6748814  13.5807711  89.9855097
  81.0940343  11.1574397  67.4419704  81.9559507  11.4829296  67.7015522
  81.2790687  10.3705893  66.9292770  73.1107759  19.2396737  79.7199893
  72.4171230  18.8250690  79.2069848  73.8580750  19.2817274  79.1233312
  89.2472980  10.0302924  74.5854927  88.6671649  10.6887728  74.2032980
  88.9808912   9.2080268  74.1742345  87.6976546   9.4307982  76.7876248
  88.1976324   9.5424516  75.9790567  88.3412154   9.1269034  77.4277056
  81.7558542  17.3386611  89.6744089  81.2725623  18.1386971  89.8807978
  81.8419481  17.3494556  88.7211533  75.0244501  19.1714991  77.5965908
  75.0015190  19.2702678  76.6447791  75.3345138  20.0180142  77.9183074
  77.6831879  21.2291146  81.7112522  78.6375133  21.1975088  81.6442454
  77.4844403  20.7681770  82.5262748  78.2731261  19.7992262  84.2783320
  79.0924150  20.2936341  84.3018157  78.5468069  18.8824230  84.2500888
  88.0297858  12.1903014  73.6411276  87.1423713  12.4752665  73.4231470
  88.4451847  12.0296778  72.7938552  91.3812394  12.2149535  77.3565615
  92.1572784  12.7045988  77.6290232  90.6560528  12.6407589  77.8137484
  93.8184952  12.9277154  78.4139555  94.4129443  12.6872890  77.7032864
  93.8911536  12.2084285  79.0413092  76.0382108  26.7710765  78.7282720
  75.9036576  26.0111166  78.1620718  75.6214170  27.4951665  78.2611509
  87.1741071  21.9547689  67.7359296  87.8776921  22.1597691  68.3516951
  86.4503720  22.5224451  68.0008379  88.0038881  17.7057550  73.8561566
  87.9474083  18.1626102  73.0169198  88.5567224  16.9448235  73.6784409
  91.8143687  13.4947282  74.6811685  91.5580621  13.0943918  75.5119893
  91.1896555  14.2091076  74.5561824  96.1256025  16.2343355  77.1882977
  95.5655583  16.3036545  77.9614539  95.5199528  16.0584340  76.4682473
  79.1951234  27.6680082  78.9401163  79.0783618  28.6125515  78.8379853
  78.3743680  27.3653644  79.3286962  89.0827768  22.3930218  69.7857756
  89.9173372  21.9611417  69.6035230  88.9212111  22.2212232  70.7134650
  88.7373661  18.8962331  71.1514095  88.6822464  18.7306603  70.2102539
  88.1119716  19.6038364  71.3076285  73.5266176  14.1330396  84.9775517
  74.1725039  13.6229350  85.4662742  73.3183327  14.8699077  85.5518942
  86.0519568  21.2011243  90.4767658  86.9210727  21.3751896  90.1154293
  85.5726319  22.0205660  90.3543387  82.0469786   8.3970440  70.7299413
  82.0348456   9.3412280  70.8867684  82.9393208   8.2140586  70.4358875
  80.2205748  28.3208344  82.1557091  81.1232995  28.3531954  82.4723586
  79.9943118  27.3908795  82.1703427  81.9759350  27.0739331  78.8167170
  81.0254981  27.0741192  78.7031542  82.2791836  26.3272065  78.3003205
  85.8621906   4.9913217  74.9845350  85.0954301   4.4371704  75.1302032
  86.2732611   5.0635086  75.8459502  77.8663667  11.2798013  89.0750531
  78.7295128  10.9234818  89.2853856  77.2929077  10.9411908  89.7625936
  97.7112044  32.9099869  79.8812932  98.3490454  32.7906617  79.1776272
  97.5932886  33.8580713  79.9400885  94.5201750  32.8627297  79.8174457
  94.1820261  32.7468362  78.9294992  95.3891518  32.4618462  79.7975463
  90.3788566  34.7162774  75.8071348  89.8153431  34.6252711  75.0387636
  90.2640961  33.8962678  76.2873841  95.0021533  34.0162149  85.7760663
  94.9910174  33.6214947  84.9041166  95.1642172  33.2828222  86.3694434
  87.9252997  36.2113965  78.6455568  88.7174289  35.8704790  78.2301868
  88.1649648  36.3208940  79.5657722  95.9588124  38.3833741  71.1185813
  95.3076104  38.9687822  70.7319827  96.7532487  38.9139936  71.1780850
  89.8843751  35.4722879  71.5172947  90.6574627  34.9251866  71.3785823
  90.2369150  36.3367128  71.7287409  91.7228794  36.7999261  84.7239847
  91.4318660  37.7044892  84.6086513  92.3585778  36.8415788  85.4383916
  92.6485001  34.1776109  81.3141206  93.2448573  33.9532132  80.5998169
  92.7059972  33.4360855  81.9166654  92.2210029  31.6315545  69.1491397
  92.4735550  31.1097066  68.3874860  91.2834588  31.4681690  69.2518081
  97.2653312  30.6351323  76.9566140  98.0516401  30.2170746  76.6056557
  97.5292016  31.5397415  77.1247789  97.4363389  36.0724173  71.6554797
  96.8009222  36.1458800  72.3675702  97.1060796  36.6617772  70.9773876
 102.6661739  30.5726556  77.8599119 103.3986911  30.0025773  78.0936948
 101.9101095  30.1848157  78.3005625  91.9406318  33.5343651  71.3515772
  91.8242576  32.8588554  72.0196856  92.0508578  33.0476025  70.5347925
  94.2837859  32.9953798  75.0562461  93.9196066  32.4684419  75.7675383
  95.1404975  32.6052267  74.8828947 100.1887160  24.2848130  82.3193728
  99.8570484  25.1543541  82.0954943  99.5932773  23.9684414  82.9987758
  93.9243346  28.0243697  70.0523810  94.0917748  28.8923934  70.4194281
  93.7340515  28.1870979  69.1285099  96.6818679  36.4860676  81.7189640
  96.3819402  37.3885715  81.6105447  96.3369739  36.2192860  82.5710793
  90.1331161  32.9374473  77.7526345  89.2081657  32.8050687  77.9604036
  90.3815574  33.7168692  78.2496287 100.0815823  29.0043217  79.3987078
  99.1732700  28.9358625  79.1045839 100.0303419  29.4815161  80.2268903
  93.9032567  30.4801355  71.0370477  93.7832192  30.9258406  71.8755957
  93.2085155  30.8286673  70.4784015  87.4939972  32.5807747  78.5870134
  87.6232353  32.8342226  79.5009545  86.8137423  33.1735455  78.2674789
  91.6639459  43.2504997  74.6860608  91.5863489  44.2012822  74.7649089
  91.0601102  42.9050869  75.3435534  94.1556689  30.4232862  87.3421975
  93.3790023  30.9826782  87.3324839  94.7947252  30.9089645  87.8636845
 101.9477469  27.2059655  81.1764952 101.3051849  27.4992188  80.5304746
 101.4432398  27.0912575  81.9818148  99.6017633  30.9522828  71.8650811
 100.5135489  31.1850215  71.6898508  99.0927280  31.5359872  71.3025889
  92.4103061  33.2318315  86.9039942  93.1517745  33.7703359  86.6274765
  91.7040046  33.8584604  87.0611494  97.8858401  35.3747456  85.5012103
  98.2941757  34.9329866  84.7566736  97.1635662  34.8000083  85.7546296
  94.2389471  30.3120063  82.8745660  95.0850666  30.7359476  83.0180309
  94.1788108  29.6553687  83.5684223  98.2087215  35.9348647  79.2564392
  97.5796078  36.0994361  78.5540460  97.8212877  36.3490256  80.0275356
 102.0876447  36.8703084  76.6108756 101.4027485  37.2501986  76.0605789
 102.1720296  37.4798411  77.3440704  97.3888916  27.9724431  84.5326834
  97.1449848  28.7266492  83.9961110  97.6648846  28.3509779  85.3674081
  99.3427379  34.5163043  83.2104100  99.5544274  35.1594803  82.5338481
  99.2957127  33.6825360  82.7426030  96.9453608  27.1280864  80.1140672
  96.0838087  27.4262118  80.4057409  96.9716042  27.3451263  79.1821704
  93.7615177  35.6723055  76.5214477  94.2253523  35.9510758  75.7319100
  93.4971975  34.7706499  76.3387568  90.6539258  35.2194536  79.4594241
  91.2240615  35.6481805  78.8211725  91.2447370  34.9377121  80.1578426
  92.6984063  31.7946207  73.3304042  93.4008106  32.2467251  73.7977969
  92.3664692  31.1530026  73.9583936  91.1464425  30.3857964  87.7055252
  90.5163085  31.0674244  87.9390649  91.0400513  30.2741045  86.7608390
  86.4409397  30.0529760  78.6321176  85.6508451  30.3087288  78.1561287
  86.9320644  30.8678098  78.7373217 100.4573207  37.3934999  81.3826457
 101.2790650  36.9915186  81.1009138 100.4535610  37.2903233  82.3342573
  88.3924142  30.4174339  75.5904653  87.5955306  30.5293033  76.1088148
  88.1649735  30.7560991  74.7245543  94.2229810  36.9419042  83.5387167
  94.2874243  37.4039449  84.3745339  93.5140734  36.3116407  83.6669477
  84.7247100  30.3060250  81.0636167  84.9755139  31.1907260  81.3293743
  85.2606648  30.1264852  80.2911259 108.5479200  33.7373747  77.7311428
 107.7942908  33.1681145  77.5755433 108.6826741  33.7036412  78.6782063
  93.9377828  38.6087150  73.4066148  93.8023503  39.4538685  73.8350996
  94.4787640  38.8106427  72.6432081  90.4245167  24.6878729  90.0680503
  90.0312113  24.1344928  90.7428147  91.2411308  24.9989308  90.4587020
  87.3907225  36.1262588  73.9794073  87.9031746  36.9205838  74.1299637
  88.0429938  35.4288878  73.9127674  89.2002110  39.2428344  76.0616826
  89.3768738  40.1646309  75.8737810  89.9958943  38.9286763  76.4911206
  93.3413128  26.1036609  87.6600759  94.0822842  26.7043762  87.5805222
  93.5731051  25.3614246  87.1018802  88.4854466  31.2892976  85.9378989
  88.3707982  30.3878233  86.2386088  87.6298984  31.5356673  85.5863806
  95.5646304  39.2310716  87.5366490  95.1210158  38.4447095  87.2187394
  96.2263518  39.4189867  86.8710381  90.3233425  40.7606518  82.0627168
  90.8740850  40.6323581  81.2904162  89.4844901  41.0601407  81.7122061
  97.6627542  39.5113516  85.5647891  97.6446018  40.3322397  85.0728160
  98.5847462  39.3867591  85.7898032  94.1200596  37.0257646  86.4071399
  94.6528933  36.2645934  86.1770707  93.5914677  36.7331297  87.1495554
  97.2870291  22.1317711  81.9365041  96.9434561  23.0219353  81.8604152
  97.6549254  21.9419369  81.0734626  85.3556142  34.4551242  74.7553643
  86.1931364  34.8648250  74.5387351  85.5334410  33.5150684  74.7253837
  97.2520574  32.1226323  70.4437476  96.7367197  32.8930927  70.6825864
  96.9797883  31.4491459  71.0670538  94.8367685  26.9676023  75.5022715
  93.9809281  26.5782874  75.3228353  95.2494637  27.0467984  74.6422500
  96.3666832  24.5022367  79.9014274  95.8631627  24.4652502  79.0882080
  96.6597439  25.4115109  79.9610931  92.6109718  24.5861096  78.9080456
  93.4762714  24.3903905  78.5486346  92.6787227  24.3571448  79.8349813
 102.2254848  34.8758677  72.3790650 101.4484291  34.5369837  71.9345812
 102.9046329  34.8811300  71.7045615  97.0406877  29.9953415  72.2697257
  96.7357013  30.3099564  73.1207401  97.9937319  30.0734835  72.3124590
  95.4853309  36.1543638  73.9190211  94.9574671  35.4196398  73.6063449
  94.9840812  36.9318314  73.6730180 100.4646155  34.3492659  79.0357258
  99.8069830  35.0391920  79.1237386 101.2686554  34.7389090  79.3791244
  90.2172037  26.8163304  76.2796823  90.7915789  26.5938486  75.5470016
  90.8043019  26.8851999  77.0325424  99.2751614  32.7037031  77.0861199
  99.7883496  33.3367023  77.5882909  99.9252838  32.1038227  76.7204559
  90.5441624  28.8467765  70.2992708  89.7078936  29.1842452  70.6201983
  90.4046393  28.7116745  69.3619845  92.5194704  23.6904553  75.0071892
  91.8659117  23.3753570  74.3828507  92.4775179  23.0680294  75.7331715
  93.6305909  33.9723848  66.9225184  92.7232971  33.7413102  67.1216333
  94.1276941  33.1761468  67.1099166  96.5373988  42.6821355  69.8421871
  95.8635687  42.9853052  70.4506828  96.9239810  43.4850436  69.4927328
  95.7532445  30.1786487  79.3319540  94.8355006  30.4001434  79.1741228
  96.1692588  30.2532797  78.4731247  96.5367493  31.5777902  74.4622220
  97.2839311  32.0899300  74.1529342  96.8059082  31.2561955  75.3226614
  94.8094143  34.0736443  71.4449175  93.9005362  33.7895476  71.5421644
  94.8389227  34.4935522  70.5852481 100.0413410  37.6843033  75.2140342
  99.5875737  36.8433943  75.2705533  99.4107377  38.3204431  75.5515122
  98.9846330  28.6135019  76.4441010  98.2469086  28.1012405  76.7751252
  99.2373103  28.1735400  75.6324286  98.4846349  39.5219529  76.1490160
  98.7769324  40.0824586  75.4302526  98.9944970  39.8148090  76.9043319
  99.0857957  21.3911271  77.0382779  99.3916834  20.5308634  76.7508694
  99.8110562  21.9828891  76.8381773  85.3782313  31.7941957  75.4264377
  85.1806713  31.2011318  74.7015443  84.8228977  31.4894167  76.1440316
  93.3579037  31.6865064  77.5458970  93.4127647  30.7338900  77.4701446
  92.5470239  31.8424503  78.0300268  94.5070231  35.6145187  68.7837253
  94.0689660  34.8981046  68.3242890  95.2480671  35.8421302  68.2222345
  91.2971397  30.3042123  75.3049349  90.4839262  30.6036294  75.7114541
  91.7930391  29.9097812  76.0223831  93.4479975  40.2999880  77.2383613
  93.4056153  40.5260727  76.3092145  94.3642673  40.0663255  77.3869415
  96.8945608  30.7683948  84.1364243  97.2494996  30.9955421  84.9958708
  97.5417740  31.1002325  83.5141498 102.6243345  33.8902384  74.8413572
 102.4861244  34.0803980  73.9134761 102.2679564  34.6521767  75.2981623
  90.7885471  27.8760479  80.9210584  91.4284851  27.7349238  80.2233547
  89.9563002  27.5894992  80.5449186 102.6512725  35.9578911  79.8524843
 103.0849232  35.8654200  80.7007897 103.3644306  35.9336411  79.2144859
  91.5645775  37.1762909  77.0345576  92.3586374  36.6813230  76.8328151
  90.8537468  36.6480773  76.6713282  96.3840620  39.5581005  81.3857944
  96.4377642  40.1271941  82.1535660  95.5155401  39.7282890  81.0211981
  87.8728539  31.3205991  73.1105329  86.9426127  31.2590447  73.3275291
  87.9686011  30.7981944  72.3141970  87.7914088  27.8460804  75.6983571
  88.0520905  28.7606137  75.5892731  88.6131260  27.3785247  75.8480183
  89.2639013  29.2598561  82.8682395  89.9362067  29.0515923  82.2195044
  88.4368800  29.0620647  82.4287627 103.5128274  36.0002612  82.3857729
 103.7064165  36.9048422  82.6317004 103.4128893  35.5410031  83.2196314
  95.1664585  25.8860502  84.8848056  94.5192500  26.5850452  84.7912532
  95.9365601  26.3196646  85.2524304  98.5743383  36.1509354  87.9598609
  98.4228890  35.9219906  87.0428693  98.5648063  37.1079956  87.9729954
  95.3428720  33.7241267  82.9444876  96.2720780  33.8752427  82.7713843
  94.9219750  33.8125288  82.0893522  94.1417051  37.7491931  80.7143413
  94.0028137  37.3810716  81.5869351  93.3531648  38.2639571  80.5427371
  94.7365203  42.8501028  72.0568950  94.9116959  42.3789071  72.8714572
  94.0497991  43.4766794  72.2850211  95.6922266  37.1273534  78.1032251
  95.3572099  37.0874304  78.9989901  95.1926212  36.4618250  77.6302661
  89.6666510  32.5341164  83.6284832  89.5286308  31.8021403  84.2296371
  90.5771434  32.4450064  83.3469020  98.6281458  34.4729568  68.3769311
  98.0110629  33.7476397  68.2802363  98.1597947  35.2338929  68.0336385
  92.2948811  32.2461123  83.1168512  93.0048430  31.6054316  83.0755130
  92.2518119  32.4974018  84.0394693 100.2835590  39.1828477  86.0375091
 100.2248136  38.4987697  85.3705674 100.6855108  39.9247467  85.5855717
  91.0077745  29.2326341  84.9364151  90.4715102  28.7817080  85.5885748
  90.4194454  29.3672250  84.1934616  89.3026289  45.9990391  78.8308810
  89.5422887  46.6308915  79.5087829  88.4595485  45.6478431  79.1174169
  90.4180004  28.6914993  67.4990615  89.5409470  28.5703794  67.1352862
  90.8937757  27.9001071  67.2469504 100.2852997  37.1468061  84.2689071
  99.3979776  36.8093983  84.3915470 100.8551548  36.4151092  84.5057836
  81.9382144  33.4792152  77.5932122  82.6253184  33.1653883  77.0053137
  81.7830273  34.3833517  77.3199374  86.7416866  28.3682349  82.0217146
  86.6575055  27.7608019  81.2867556  85.9199573  28.8591367  82.0226642
  93.8154150  41.8069513  81.2350314  93.7424322  42.6124485  81.7469619
  93.3731544  42.0061479  80.4098335  93.6043930  41.0441283  74.7453135
  92.8211452  41.5862963  74.8391360  94.3036675  41.5615263  75.1447377
  96.9140580  26.8535913  77.3887341  97.4109280  26.1005875  77.0688411
  96.1427562  26.8900229  76.8230550 104.7670338  32.5576278  79.0305632
 104.7560214  33.4400994  78.6599565 103.8987717  32.2047829  78.8360169
  96.2752834  41.7056347  83.3908473  96.9880806  42.3403812  83.3184374
  95.7842863  41.8020213  82.5748474  97.9970361  35.6107600  74.9625764
  97.0626640  35.7309062  74.7930469  98.1747029  34.7080067  74.6985774
  93.4975549  28.9953296  77.1159025  93.1273336  28.4424336  77.8039931
  93.9934641  28.3911429  76.5634026 101.3842912  31.4524919  75.4975798
 101.8503364  32.2852911  75.4236101 101.8350413  30.9869901  76.2021057
  91.3264747  39.4550791  84.2114043  92.0274207  40.0887274  84.3643438
  90.8559862  39.7965522  83.4509683  99.4519143  37.7968740  72.4961950
  99.7278987  37.6825335  73.4055825  98.5823642  37.3986225  72.4574124
  99.3559575  23.8205506  79.5366700  98.4422655  24.0509733  79.7048907
  99.7852676  23.9043950  80.3880732  99.1266033  32.0095398  82.0366594
  98.4737484  32.2571305  81.3819047  99.5046413  31.1959536  81.7029071
  96.0873207  42.0455091  76.1394764  96.2695602  41.2276747  76.6022516
  96.9106193  42.2622783  75.7019654  96.4215373  40.9723276  73.4009813
  96.9503139  40.4615731  72.7879975  96.6843592  40.6565807  74.2655346
  95.1753606  32.7515209  88.5232631  94.4994244  32.6509338  89.1935006
  95.9981240  32.5954423  88.9868628  86.9232466  38.9887146  81.1445146
  87.5085902  38.2430834  81.2773050  86.7257304  39.2991102  82.0281810
  89.7771121  42.0238393  76.1607588  89.1081496  42.5084521  75.6771629
  89.6383990  42.2707613  77.0750967  81.5150120  31.5592746  79.8649589
  81.5534220  31.0256337  80.6586707  81.0090413  31.0327951  79.2460566
  93.9176389  44.0582137  82.7590247  94.4694697  44.2213758  83.5239332
  94.2582583  44.6486574  82.0870272  88.8940883  26.4057286  83.3612132
  88.9582209  27.2672117  82.9489529  88.8308003  25.7931288  82.6284490
  88.3693155  28.4780419  87.0085166  88.9965194  28.0957496  87.6222690
  87.5121074  28.2594621  87.3740858  98.7687264  38.8843394  88.6138901
  99.3127168  39.4973352  88.1193856  98.1874109  39.4422972  89.1305914
  85.1458698  30.2856848  72.9403521  85.4412139  29.3767526  72.8870574
  84.2446734  30.2644587  72.6184523  97.0544777  42.0064112  79.7453929
  96.9295916  41.2053852  79.2364875  97.7123868  42.5010305  79.2567899
  88.6752945  28.3612845  78.9231069  87.9539531  28.9748812  78.7838543
  89.4646201  28.8970609  78.8447715  99.1179685  39.8073132  81.3733479
  98.1710021  39.6878483  81.3011806  99.4662458  38.9195630  81.4559741
  91.4779258  25.6967271  85.1971721  92.0013660  25.9429568  85.9598030
  91.2591592  26.5287306  84.7774858  86.8746539  27.9670946  73.0642846
  86.5459246  27.0868325  72.8817952  87.2285910  27.9118614  73.9519235
  96.1226118  39.6025848  77.5737831  95.9751081  38.6742556  77.7545401
  96.9479612  39.6245939  77.0894907  89.9888363  28.2543915  73.4318323
  90.3284435  28.7829837  72.7096932  90.4360483  28.5924322  74.2076890
  99.7260240  40.4254407  78.6602704 100.6506788  40.2197268  78.5227155
  99.5575544  40.1770808  79.5692046  92.6831803  26.6380966  82.8821392
  92.3428624  25.8388779  83.2842071  91.9770810  26.9382677  82.3098225
  93.3348275  23.7230279  81.3348715  94.1574345  23.2490757  81.2127605
  93.5786339  24.5020762  81.8347401  91.9756510  26.7518537  71.6311616
  92.6964872  27.1299790  71.1275333  91.3521814  27.4707414  71.7346594
  96.1187633  27.4563686  72.5669949  96.3351247  28.3388324  72.2658777
  95.6381700  27.0649899  71.8375591  90.8586854  30.4149399  79.1440693
  90.7131435  30.7289702  80.0364975  90.3812058  31.0334300  78.5911592
  92.7183237  27.4051947  79.1921583  92.7044806  26.5093041  78.8553881
  93.4355665  27.4122611  79.8259869  94.5709368  27.8389287  81.2374710
  94.3127145  28.7606358  81.2359041  94.0394408  27.4419722  81.9275174
  99.5155556  40.9440075  74.0164796  99.6892434  40.3786497  73.2638648
 100.0084448  41.7440969  73.8344285  85.3332516  32.9554744  82.0828354
  84.7885984  33.7314552  82.2148629  86.2111866  33.3025548  81.9247476
  92.1220133  26.2866328  74.4609153  92.2436044  25.3582974  74.6600040
  91.8322175  26.3005013  73.5487468  94.9911323  23.9721238  77.5975873
  95.0133020  24.0360571  76.6427852  95.4079382  23.1325747  77.7916379
 105.3694948  33.7076498  75.6355095 105.8126094  32.9583823  75.2374219
 104.4921458  33.6986634  75.2528827 100.5030729  40.2606839  71.1161694
 101.1981633  40.8813532  71.3349008 100.8453879  39.4102190  71.3914072
  86.1198538  32.0824640  84.9758511  85.3780274  32.2307275  85.5623142
  85.7991282  32.3432906  84.1125261 102.4022152  37.7106544  72.6449025
 102.9273476  38.0493817  71.9198345 102.3144505  36.7753560  72.4612159
  94.0642201  41.6240618  84.7738901  94.3729327  41.3789765  85.6461601
  94.8617683  41.8287257  84.2857771  94.0862813  43.7778528  77.0044278
  93.6467803  43.2854906  77.6977134  94.8370930  43.2351495  76.7636353
  86.5655152  39.9690069  77.0068906  87.3913172  39.6693840  76.6267549
  86.2149204  39.1997691  77.4558695  91.5336685  39.3216537  79.0766579
  90.9116694  38.6587242  78.7768807  92.2041552  39.3477669  78.3940227
  84.7663757  37.8876395  77.9657839  83.9295665  37.4598569  77.7841841
  84.7387402  38.0808838  78.9028631  91.6061212  27.7998325  88.6699085
  91.6549368  28.6760448  88.2876855  92.1483727  27.2575718  88.0970729
 102.0916058  38.3439448  87.9500223 101.3011602  38.3263587  87.4104722
 101.8549413  38.8827742  88.7049259 102.2113933  35.1931915  85.2632951
 102.2611938  35.0281922  86.2048474 102.1027856  34.3259174  84.8730832
  91.0950192  37.8720460  72.5525040  91.2438312  38.5555925  71.8991713
  91.9016635  37.8525550  73.0674496  99.5017695  31.1762843  86.5792258
 100.4027558  31.0369307  86.2876256  99.5765670  31.3417297  87.5190435
  93.8360501  28.5529697  85.4245444  92.9663810  28.8463263  85.1528033
  94.0719981  29.1370142  86.1452708 103.7132130  37.6128856  85.5074973
 103.4216938  37.9758837  86.3438434 103.1004261  36.8995864  85.3288305
 104.9127812  35.1781736  78.0277543 105.7474704  35.6171540  78.1915103
 105.0486941  34.7020389  77.2085789 101.9619318  32.7361471  83.9755031
 102.4373440  32.9289117  83.1673882 101.0384884  32.7920656  83.7298414
  88.8502825  33.8985638  73.5586109  88.6048867  32.9947968  73.7566319
  89.0198739  33.9002788  72.6165587  96.5399535  24.7709314  82.9410865
  97.0581479  25.5070341  82.6157353  96.1854667  25.0773308  83.7757624
  88.1198472  29.6313995  71.0572270  87.4267717  29.7058350  70.4012306
  87.8750224  28.8674339  71.5793787  96.7912129  21.1909597  78.4611761
  97.0713883  20.5232786  79.0872188  97.5762736  21.3838692  77.9486425
  94.5945597  40.3668591  70.0236787  94.0219564  40.9858778  69.5707259
  95.1678391  40.9167952  70.5576709 100.6620987  29.6127231  82.2083336
 101.6138410  29.7125328  82.2295560 100.4924438  28.8205499  82.7181421
  98.6835367  26.6982814  82.3942737  98.0885299  26.9787827  81.6989226
  98.3985063  27.1876715  83.1659478  97.8142857  40.6505741  71.1545370
  98.7473530  40.5851302  71.3578245  97.7266070  41.4862008  70.6959902
 100.4430874  39.9671611  68.1149317 100.3644505  39.6331475  69.0085075
 101.2640541  40.4593379  68.1140790 103.1409065  32.8333350  81.3225636
 103.1085385  31.8949351  81.5085320 103.7509689  32.9117387  80.5891461
  94.9792396  31.7029403  67.3652840  95.9251501  31.5735612  67.4341258
  94.6006641  30.9644065  67.8422268 103.2903553  29.6244394  81.3683919
 102.7742602  28.8402850  81.1813848 104.1743502  29.2963110  81.5330439
 100.9514280  23.3685409  77.3279732 100.7539101  23.0600498  78.2123064
 101.5613986  24.0947048  77.4577662 108.9585615  33.8949357  80.4631673
 109.6889003  33.6334645  81.0239376 108.3492560  33.1578079  80.5033741
 107.0400912  32.0357220  81.0606124 106.3134076  31.9013185  80.4522615
 106.6248199  32.3434048  81.8662842  94.8631088  35.7547150  88.8253497
  95.7834098  35.9325749  89.0193543  94.8280671  34.8103195  88.6733196
  93.1635313  29.6279380  67.3007725  92.2566768  29.3312493  67.3770439
  93.4411294  29.3309198  66.4342011  84.0813253  30.9485743  77.7506772
  83.7616038  30.0951051  77.4581146  83.5346682  31.1634321  78.5064739
  87.8593161  33.6648184  81.4676278  88.0779171  34.5965292  81.4864312
  88.2718935  33.3056159  82.2531082  94.7797379  24.1716270  73.4551966
  93.9698107  23.8263354  73.8307213  95.4681796  23.8623813  74.0439578
  96.7087927  23.2494316  75.0776263  97.2618966  23.6689770  75.7366286
  96.9458013  22.3230064  75.1199219  92.7321026  29.2381390  90.8579027
  92.6317753  30.1875747  90.7891118  92.5142568  28.9099629  89.9855097
  91.9334098  26.4866315  67.4419704  92.7953262  26.8121213  67.7015522
  92.1184442  25.6997811  66.9292770  83.9501513  34.5688655  79.7199893
  83.2564985  34.1542607  79.2069848  84.6974504  34.6109191  79.1233312
 100.0866734  25.3594841  74.5854927  99.5065403  26.0179645  74.2032980
  99.8202667  24.5372186  74.1742345  98.5370300  24.7599899  76.7876248
  99.0370079  24.8716434  75.9790567  99.1805908  24.4560952  77.4277056
  92.5952296  32.6678529  89.6744089  92.1119378  33.4678889  89.8807978
  92.6813235  32.6786474  88.7211533  85.8638256  34.5006908  77.5965908
  85.8408944  34.5994596  76.6447791  86.1738892  35.3472059  77.9183074
  88.5225634  36.5583063  81.7112522  89.4768887  36.5267006  81.6442454
  88.3238157  36.0973687  82.5262748  89.1125016  35.1284180  84.2783320
  89.9317905  35.6228258  84.3018157  89.3861824  34.2116148  84.2500888
  98.8691612  27.5194932  73.6411276  97.9817467  27.8044582  73.4231470
  99.2845601  27.3588695  72.7938552 102.2206148  27.5441453  77.3565615
 102.9966538  28.0337905  77.6290232 101.4954282  27.9699507  77.8137484
 104.6578707  28.2569072  78.4139555 105.2523198  28.0164808  77.7032864
 104.7305291  27.5376203  79.0413092  86.8775863  42.1002683  78.7282720
  86.7430330  41.3403084  78.1620718  86.4607925  42.8243583  78.2611509
  98.0134826  37.2839607  67.7359296  98.7170676  37.4889609  68.3516951
  97.2897474  37.8516368  68.0008379  98.8432636  33.0349468  73.8561566
  98.7867837  33.4918019  73.0169198  99.3960978  32.2740152  73.6784409
 102.6537442  28.8239200  74.6811685 102.3974376  28.4235835  75.5119893
 102.0290310  29.5382994  74.5561824 106.9649780  31.5635273  77.1882977
 106.4049338  31.6328462  77.9614539 106.3593283  31.3876258  76.4682473
  90.0344988  42.9972000  78.9401163  89.9177373  43.9417432  78.8379853
  89.2137435  42.6945562  79.3286962  99.9221523  37.7222136  69.7857756
 100.7567127  37.2903334  69.6035230  99.7605866  37.5504149  70.7134650
  99.5767415  34.2254249  71.1514095  99.5216219  34.0598520  70.2102539
  98.9513470  34.9330282  71.3076285  84.3659930  29.4622313  84.9775517
  85.0118794  28.9521267  85.4662742  84.1577081  30.1990995  85.5518942
  96.8913322  36.5303161  90.4767658  97.7604482  36.7043813  90.1154293
  96.4120074  37.3497578  90.3543387  92.8863541  23.7262358  70.7299413
  92.8742210  24.6704198  70.8867684  93.7786962  23.5432503  70.4358875
  91.0599503  43.6500262  82.1557091  91.9626749  43.6823872  82.4723586
  90.8336873  42.7200713  82.1703427  92.8153105  42.4031248  78.8167170
  91.8648736  42.4033110  78.7031542  93.1185591  41.6563983  78.3003205
  96.7015660  20.3205135  74.9845350  95.9348056  19.7663621  75.1302032
  97.1126365  20.3927003  75.8459502  88.7057421  26.6089930  89.0750531
  89.5688883  26.2526735  89.2853856  88.1322832  26.2703825  89.7625936
 108.5505798  48.2391787  79.8812932 109.1884208  48.1198534  79.1776272
 108.4326641  49.1872631  79.9400885 105.3595504  48.1919215  79.8174457
 105.0214016  48.0760280  78.9294992 106.2285273  47.7910380  79.7975463
 101.2182320  50.0454691  75.8071348 100.6547185  49.9544628  75.0387636
 101.1034715  49.2254596  76.2873841 105.8415287  49.3454067  85.7760663
 105.8303928  48.9506865  84.9041166 106.0035927  48.6120139  86.3694434
  98.7646752  51.5405883  78.6455568  99.5568044  51.1996708  78.2301868
  99.0043402  51.6500858  79.5657722 106.7981879  53.7125659  71.1185813
 106.1469859  54.2979739  70.7319827 107.5926242  54.2431854  71.1780850
 100.7237506  50.8014796  71.5172947 101.4968382  50.2543783  71.3785823
 101.0762905  51.6659046  71.7287409 102.5622548  52.1291178  84.7239847
 102.2712414  53.0336809  84.6086513 103.1979533  52.1707706  85.4383916
 103.4878755  49.5068027  81.3141206 104.0842328  49.2824049  80.5998169
 103.5453727  48.7652772  81.9166654 103.0603784  46.9607462  69.1491397
 103.3129304  46.4388984  68.3874860 102.1228343  46.7973608  69.2518081
 108.1047067  45.9643241  76.9566140 108.8910156  45.5462664  76.6056557
 108.3685771  46.8689333  77.1247789 108.2757144  51.4016091  71.6554797
 107.6402977  51.4750718  72.3675702 107.9454550  51.9909690  70.9773876
 113.5055494  45.9018474  77.8599119 114.2380666  45.3317691  78.0936948
 112.7494849  45.5140074  78.3005625 102.7800072  48.8635568  71.3515772
 102.6636331  48.1880472  72.0196856 102.8902332  48.3767942  70.5347925
 105.1231613  48.3245715  75.0562461 104.7589821  47.7976336  75.7675383
 105.9798729  47.9344184  74.8828947 111.0280914  39.6140048  82.3193728
 110.6964239  40.4835459  82.0954943 110.4326527  39.2976332  82.9987758
 104.7637100  43.3535615  70.0523810 104.9311503  44.2215851  70.4194281
 104.5734269  43.5162897  69.1285099 107.5212434  51.8152594  81.7189640
 107.2213157  52.7177633  81.6105447 107.1763493  51.5484777  82.5710793
 100.9724915  48.2666391  77.7526345 100.0475412  48.1342605  77.9604036
 101.2209328  49.0460610  78.2496287 110.9209577  44.3335134  79.3987078
 110.0126455  44.2650543  79.1045839 110.8697173  44.8107079  80.2268903
 104.7426321  45.8093273  71.0370477 104.6225946  46.2550323  71.8755957
 104.0478910  46.1578590  70.4784015  98.3333726  47.9099664  78.5870134
  98.4626107  48.1634143  79.5009545  97.6531177  48.5027372  78.2674789
 102.5033213  58.5796914  74.6860608 102.4257243  59.5304739  74.7649089
 101.8994857  58.2342787  75.3435534 104.9950443  45.7524780  87.3421975
 104.2183777  46.3118700  87.3324839 105.6341006  46.2381563  87.8636845
 112.7871224  42.5351573  81.1764952 112.1445604  42.8284106  80.5304746
 112.2826152  42.4204493  81.9818148 110.4411387  46.2814746  71.8650811
 111.3529244  46.5142133  71.6898508 109.9321034  46.8651790  71.3025889
 103.2496815  48.5610233  86.9039942 103.9911500  49.0995277  86.6274765
 102.5433801  49.1876522  87.0611494 108.7252155  50.7039374  85.5012103
 109.1335511  50.2621784  84.7566736 108.0029417  50.1292001  85.7546296
 105.0783225  45.6411980  82.8745660 105.9244420  46.0651394  83.0180309
 105.0181863  44.9845605  83.5684223 109.0480970  51.2640564  79.2564392
 108.4189832  51.4286278  78.5540460 108.6606632  51.6782174  80.0275356
 112.9270202  52.1995002  76.6108756 112.2421240  52.5793903  76.0605789
 113.0114051  52.8090329  77.3440704 108.2282670  43.3016349  84.5326834
 107.9843602  44.0558409  83.9961110 108.5042601  43.6801696  85.3674081
 110.1821133  49.8454961  83.2104100 110.3938028  50.4886721  82.5338481
 110.1350881  49.0117278  82.7426030 107.7847362  42.4572782  80.1140672
 106.9231841  42.7554035  80.4057409 107.8109797  42.6743181  79.1821704
 104.6008932  51.0014972  76.5214477 105.0647277  51.2802675  75.7319100
 104.3365730  50.0998417  76.3387568 101.4933013  50.5486454  79.4594241
 102.0634370  50.9773722  78.8211725 102.0841124  50.2669039  80.1578426
 103.5377818  47.1238125  73.3304042 104.2401861  47.5759168  73.7977969
 103.2058446  46.4821944  73.9583936 101.9858179  45.7149881  87.7055252
 101.3556840  46.3966162  87.9390649 101.8794267  45.6032963  86.7608390
  97.2803152  45.3821677  78.6321176  96.4902206  45.6379206  78.1561287
  97.7714399  46.1970015  78.7373217 111.2966961  52.7226917  81.3826457
 112.1184405  52.3207104  81.1009138 111.2929364  52.6195151  82.3342573
  99.2317897  45.7466257  75.5904653  98.4349060  45.8584951  76.1088148
  99.0043489  46.0852909  74.7245543 105.0623565  52.2710960  83.5387167
 105.1267997  52.7331367  84.3745339 104.3534488  51.6408325  83.6669477
  95.5640855  45.6352168  81.0636167  95.8148893  46.5199178  81.3293743
  96.1000403  45.4556769  80.2911259 119.3872954  49.0665665  77.7311428
 118.6336663  48.4973063  77.5755433 119.5220495  49.0328329  78.6782063
 104.7771582  53.9379067  73.4066148 104.6417257  54.7830603  73.8350996
 105.3181395  54.1398345  72.6432081 101.2638922  40.0170647  90.0680503
 100.8705867  39.4636846  90.7428147 102.0805062  40.3281226  90.4587020
  98.2300980  51.4554505  73.9794073  98.7425500  52.2497756  74.1299637
  98.8823692  50.7580796  73.9127674 100.0395864  54.5720262  76.0616826
 100.2162493  55.4938226  75.8737810 100.8352698  54.2578681  76.4911206
 104.1806883  41.4328526  87.6600759 104.9216596  42.0335679  87.5805222
 104.4124806  40.6906164  87.1018802  99.3248221  46.6184893  85.9378989
  99.2101736  45.7170151  86.2386088  98.4692739  46.8648590  85.5863806
 106.4040059  54.5602634  87.5366490 105.9603913  53.7739012  87.2187394
 107.0657272  54.7481784  86.8710381 101.1627180  56.0898435  82.0627168
 101.7134605  55.9615499  81.2904162 100.3238656  56.3893324  81.7122061
 108.5021297  54.8405434  85.5647891 108.4839772  55.6614315  85.0728160
 109.4241217  54.7159509  85.7898032 104.9594351  52.3549563  86.4071399
 105.4922688  51.5937851  86.1770707 104.4308432  52.0623215  87.1495554
 108.1264046  37.4609629  81.9365041 107.7828315  38.3511271  81.8604152
 108.4943008  37.2711287  81.0734626  96.1949896  49.7843160  74.7553643
  97.0325118  50.1940168  74.5387351  96.3728164  48.8442602  74.7253837
 108.0914329  47.4518240  70.4437476 107.5760952  48.2222845  70.6825864
 107.8191637  46.7783376  71.0670538 105.6761440  42.2967941  75.5022715
 104.8203036  41.9074791  75.3228353 106.0888391  42.3759902  74.6422500
 107.2060586  39.8314284  79.9014274 106.7025382  39.7944419  79.0882080
 107.4991193  40.7407027  79.9610931 103.4503472  39.9153014  78.9080456
 104.3156469  39.7195823  78.5486346 103.5180981  39.6863366  79.8349813
 113.0648603  50.2050595  72.3790650 112.2878045  49.8661754  71.9345812
 113.7440084  50.2103218  71.7045615 107.8800632  45.3245332  72.2697257
 107.5750767  45.6391482  73.1207401 108.8331074  45.4026752  72.3124590
 106.3247064  51.4835556  73.9190211 105.7968425  50.7488315  73.6063449
 105.8234566  52.2610232  73.6730180 111.3039910  49.6784576  79.0357258
 110.6463584  50.3683838  79.1237386 112.1080309  50.0681008  79.3791244
 101.0565791  42.1455222  76.2796823 101.6309543  41.9230403  75.5470016
 101.6436774  42.2143916  77.0325424 110.1145368  48.0328949  77.0861199
 110.6277250  48.6658941  77.5882909 110.7646592  47.4330144  76.7204559
 101.3835378  44.1759683  70.2992708 100.5472691  44.5134370  70.6201983
 101.2440148  44.0408663  69.3619845 103.3588459  39.0196471  75.0071892
 102.7052871  38.7045488  74.3828507 103.3168933  38.3972211  75.7331715
 104.4699664  49.3015766  66.9225184 103.5626725  49.0705019  67.1216333
 104.9670696  48.5053385  67.1099166 107.3767743  58.0113273  69.8421871
 106.7029441  58.3144970  70.4506828 107.7633565  58.8142353  69.4927328
 106.5926199  45.5078404  79.3319540 105.6748761  45.7293351  79.1741228
 107.0086343  45.5824715  78.4731247 107.3761247  46.9069820  74.4622220
 108.1233066  47.4191217  74.1529342 107.6452837  46.5853873  75.3226614
 105.6487897  49.4028361  71.4449175 104.7399116  49.1187394  71.5421644
 105.6782981  49.8227439  70.5852481 110.8807165  53.0134950  75.2140342
 110.4269492  52.1725860  75.2705533 110.2501131  53.6496349  75.5515122
 109.8240084  43.9426936  76.4441010 109.0862841  43.4304323  76.7751252
 110.0766858  43.5027318  75.6324286 109.3240104  54.8511447  76.1490160
 109.6163078  55.4116504  75.4302526 109.8338724  55.1440008  76.9043319
 109.9251711  36.7203188  77.0382779 110.2310588  35.8600552  76.7508694
 110.6504316  37.3120809  76.8381773  96.2176068  47.1233875  75.4264377
  96.0200467  46.5303236  74.7015443  95.6622732  46.8186085  76.1440316
 104.1972791  47.0156981  77.5458970 104.2521401  46.0630818  77.4701446
 103.3863993  47.1716421  78.0300268 105.3463985  50.9437104  68.7837253
 104.9083415  50.2272963  68.3242890 106.0874426  51.1713219  68.2222345
 102.1365151  45.6334041  75.3049349 101.3233017  45.9328212  75.7114541
 102.6324145  45.2389730  76.0223831 104.2873729  55.6291798  77.2383613
 104.2449908  55.8552644  76.3092145 105.2036428  55.3955173  77.3869415
 107.7339363  46.0975866  84.1364243 108.0888751  46.3247339  84.9958708
 108.3811494  46.4294242  83.5141498 113.4637100  49.2194302  74.8413572
 113.3254998  49.4095898  73.9134761 113.1073319  49.9813684  75.2981623
 101.6279226  43.2052397  80.9210584 102.2678605  43.0641156  80.2233547
 100.7956756  42.9186910  80.5449186 113.4906479  51.2870829  79.8524843
 113.9242986  51.1946118  80.7007897 114.2038060  51.2628329  79.2144859
 102.4039530  52.5054827  77.0345576 103.1980128  52.0105147  76.8328151
 101.6931222  51.9772690  76.6713282 107.2234374  54.8872923  81.3857944
 107.2771397  55.4563859  82.1535660 106.3549156  55.0574808  81.0211981
  98.7122293  46.6497909  73.1105329  97.7819881  46.5882364  73.3275291
  98.8079765  46.1273862  72.3141970  98.6307842  43.1752722  75.6983571
  98.8914660  44.0898055  75.5892731  99.4525015  42.7077164  75.8480183
 100.1032768  44.5890479  82.8682395 100.7755821  44.3807841  82.2195044
  99.2762554  44.3912565  82.4287627 114.3522029  51.3294529  82.3857729
 114.5457919  52.2340340  82.6317004 114.2522647  50.8701948  83.2196314
 106.0058340  41.2152420  84.8848056 105.3586255  41.9142369  84.7912532
 106.7759355  41.6488564  85.2524304 109.4137138  51.4801272  87.9598609
 109.2622644  51.2511824  87.0428693 109.4041817  52.4371873  87.9729954
 106.1822474  49.0533185  82.9444876 107.1114534  49.2044344  82.7713843
 105.7613504  49.1417205  82.0893522 104.9810806  53.0783849  80.7143413
 104.8421892  52.7102633  81.5869351 104.1925402  53.5931489  80.5427371
 105.5758958  58.1792946  72.0568950 105.7510713  57.7080989  72.8714572
 104.8891746  58.8058712  72.2850211 106.5316021  52.4565452  78.1032251
 106.1965854  52.4166222  78.9989901 106.0319967  51.7910168  77.6302661
 100.5060265  47.8633082  83.6284832 100.3680063  47.1313321  84.2296371
 101.4165188  47.7741982  83.3469020 109.4675213  49.8021486  68.3769311
 108.8504383  49.0768314  68.2802363 108.9991701  50.5630846  68.0336385
 103.1342566  47.5753041  83.1168512 103.8442184  46.9346233  83.0755130
 103.0911874  47.8265936  84.0394693 111.1229344  54.5120394  86.0375091
 111.0641890  53.8279615  85.3705674 111.5248863  55.2539384  85.5855717
 101.8471500  44.5618259  84.9364151 101.3108857  44.1108997  85.5885748
 101.2588208  44.6964168  84.1934616 101.2573759  44.0206910  67.4990615
 100.3803225  43.8995711  67.1352862 101.7331512  43.2292989  67.2469504
 111.1246752  52.4759978  84.2689071 110.2373530  52.1385900  84.3915470
 111.6945303  51.7443010  84.5057836  92.7775899  48.8084070  77.5932122
  93.4646938  48.4945800  77.0053137  92.6224027  49.7125435  77.3199374
  97.5810621  43.6974267  82.0217146  97.4968810  43.0899936  81.2867556
  96.7593327  44.1883285  82.0226642 104.6547905  57.1361431  81.2350314
 104.5818076  57.9416402  81.7469619 104.2125298  57.3353397  80.4098335
 104.4437685  56.3733201  74.7453135 103.6605206  56.9154881  74.8391360
 105.1430430  56.8907180  75.1447377 107.7534335  42.1827830  77.3887341
 108.2503034  41.4297793  77.0688411 106.9821316  42.2192147  76.8230550
 115.6064092  47.8868196  79.0305632 115.5953968  48.7692911  78.6599565
 114.7381472  47.5339747  78.8360169 107.1146588  57.0348265  83.3908473
 107.8274561  57.6695730  83.3184374 106.6236617  57.1312131  82.5748474
 108.8364115  50.9399517  74.9625764 107.9020394  51.0600980  74.7930469
 109.0140784  50.0371984  74.6985774 104.3369303  44.3245213  77.1159025
 103.9667091  43.7716254  77.8039931 104.8328396  43.7203347  76.5634026
 112.2236667  46.7816837  75.4975798 112.6897119  47.6144828  75.4236101
 112.6744167  46.3161818  76.2021057 102.1658502  54.7842708  84.2114043
 102.8667961  55.4179191  84.3643438 101.6953617  55.1257440  83.4509683
 110.2912898  53.1260658  72.4961950 110.5672742  53.0117253  73.4055825
 109.4217397  52.7278143  72.4574124 110.1953329  39.1497424  79.5366700
 109.2816409  39.3801651  79.7048907 110.6246431  39.2335868  80.3880732
 109.9659788  47.3387316  82.0366594 109.3131238  47.5863223  81.3819047
 110.3440168  46.5251454  81.7029071 106.9266962  57.3747009  76.1394764
 107.1089356  56.5568665  76.6022516 107.7499948  57.5914701  75.7019654
 107.2609127  56.3015194  73.4009813 107.7896894  55.7907649  72.7879975
 107.5237347  55.9857724  74.2655346 106.0147361  48.0807127  88.5232631
 105.3387998  47.9801256  89.1935006 106.8374995  47.9246341  88.9868628
  97.7626220  54.3179063  81.1445146  98.3479657  53.5722751  81.2773050
  97.5651059  54.6283020  82.0281810 100.6164875  57.3530311  76.1607588
  99.9475251  57.8376438  75.6771629 100.4777745  57.5999531  77.0750967
  92.3543875  46.8884664  79.8649589  92.3927974  46.3548254  80.6586707
  91.8484168  46.3619869  79.2460566 104.7570144  59.3874054  82.7590247
 105.3088452  59.5505676  83.5239332 105.0976337  59.9778492  82.0870272
  99.7334637  41.7349204  83.3612132  99.7975964  42.5964035  82.9489529
  99.6701757  41.1223206  82.6284490  99.2086910  43.8072337  87.0085166
  99.8358948  43.4249414  87.6222690  98.3514828  43.5886539  87.3740858
 109.6081018  54.2135312  88.6138901 110.1520922  54.8265270  88.1193856
 109.0267863  54.7714890  89.1305914  95.9852452  45.6148766  72.9403521
  96.2805893  44.7059444  72.8870574  95.0840488  45.5936505  72.6184523
 107.8938531  57.3356030  79.7453929 107.7689671  56.5345770  79.2364875
 108.5517622  57.8302223  79.2567899  99.5146699  43.6904762  78.9231069
  98.7933285  44.3040730  78.7838543 100.3039955  44.2262527  78.8447715
 109.9573440  55.1365050  81.3733479 109.0103775  55.0170401  81.3011806
 110.3056213  54.2487548  81.4559741 102.3173013  41.0259189  85.1971721
 102.8407415  41.2721485  85.9598030 102.0985346  41.8579224  84.7774858
  97.7140294  43.2962863  73.0642846  97.3853000  42.4160242  72.8817952
  98.0679665  43.2410532  73.9519235 106.9619873  54.9317766  77.5737831
 106.8144835  54.0034473  77.7545401 107.7873366  54.9537857  77.0894907
 100.8282117  43.5835833  73.4318323 101.1678190  44.1121754  72.7096932
 101.2754238  43.9216239  74.2076890 110.5653995  55.7546325  78.6602704
 111.4900542  55.5489186  78.5227155 110.3969298  55.5062726  79.5692046
 103.5225558  41.9672884  82.8821392 103.1822378  41.1680697  83.2842071
 102.8164564  42.2674595  82.3098225 104.1742030  39.0522196  81.3348715
 104.9968099  38.5782674  81.2127605 104.4180093  39.8312680  81.8347401
 102.8150264  42.0810455  71.6311616 103.5358627  42.4591708  71.1275333
 102.1915568  42.7999332  71.7346594 106.9581387  42.7855604  72.5669949
 107.1745002  43.6680242  72.2658777 106.4775454  42.3941817  71.8375591
 101.6980609  45.7441317  79.1440693 101.5525189  46.0581620  80.0364975
 101.2205812  46.3626217  78.5911592 103.5576991  42.7343865  79.1921583
 103.5438560  41.8384958  78.8553881 104.2749420  42.7414529  79.8259869
 105.4103122  43.1681205  81.2374710 105.1520900  44.0898276  81.2359041
 104.8788162  42.7711640  81.9275174 110.3549311  56.2731992  74.0164796
 110.5286188  55.7078415  73.2638648 110.8478202  57.0732887  73.8344285
  96.1726271  48.2846661  82.0828354  95.6279739  49.0606469  82.2148629
  97.0505621  48.6317466  81.9247476 102.9613887  41.6158245  74.4609153
 103.0829799  40.6874891  74.6600040 102.6715930  41.6296931  73.5487468
 105.8305078  39.3013156  77.5975873 105.8526775  39.3652489  76.6427852
 106.2473137  38.4617664  77.7916379 116.2088702  49.0368415  75.6355095
 116.6519848  48.2875740  75.2374219 115.3315212  49.0278552  75.2528827
 111.3424483  55.5898757  71.1161694 112.0375388  56.2105449  71.3349008
 111.6847633  54.7394108  71.3914072  96.9592293  47.4116558  84.9758511
  96.2174029  47.5599193  85.5623142  96.6385037  47.6724823  84.1125261
 113.2415906  53.0398462  72.6449025 113.7667231  53.3785735  71.9198345
 113.1538259  52.1045477  72.4612159 104.9035955  56.9532536  84.7738901
 105.2123082  56.7081683  85.6461601 105.7011437  57.1579174  84.2857771
 104.9256567  59.1070445  77.0044278 104.4861558  58.6146824  77.6977134
 105.6764684  58.5643413  76.7636353  97.4048906  55.2981986  77.0068906
  98.2306926  54.9985758  76.6267549  97.0542958  54.5289609  77.4558695
 102.3730439  54.6508455  79.0766579 101.7510449  53.9879160  78.7768807
 103.0435306  54.6769586  78.3940227  95.6057511  53.2168313  77.9657839
  94.7689420  52.7890487  77.7841841  95.5781157  53.4100756  78.9028631
 102.4454967  43.1290243  88.6699085 102.4943122  44.0052365  88.2876855
 102.9877481  42.5867636  88.0970729 112.9309813  53.6731366  87.9500223
 112.1405356  53.6555505  87.4104722 112.6943167  54.2119660  88.7049259
 113.0507688  50.5223832  85.2632951 113.1005693  50.3573840  86.2048474
 112.9421611  49.6551091  84.8730832 101.9343946  53.2012378  72.5525040
 102.0832067  53.8847842  71.8991713 102.7410390  53.1817468  73.0674496
 110.3411450  46.5054760  86.5792258 111.2421313  46.3661225  86.2876256
 110.4159424  46.6709215  87.5190435 104.6754255  43.8821615  85.4245444
 103.8057565  44.1755181  85.1528033 104.9113736  44.4662060  86.1452708
 114.5525884  52.9420774  85.5074973 114.2610693  53.3050754  86.3438434
 113.9398016  52.2287782  85.3288305 115.7521567  50.5073653  78.0277543
 116.5868458  50.9463458  78.1915103 115.8880696  50.0312307  77.2085789
 112.8013073  48.0653388  83.9755031 113.2767194  48.2581035  83.1673882
 111.8778638  48.1212574  83.7298414  99.6896579  49.2277556  73.5586109
  99.4442621  48.3239886  73.7566319  99.8592494  49.2294706  72.6165587
 107.3793289  40.1001232  82.9410865 107.8975233  40.8362259  82.6157353
 107.0248422  40.4065225  83.7757624  98.9592227  44.9605913  71.0572270
  98.2661472  45.0350268  70.4012306  98.7143979  44.1966257  71.5793787
 107.6305883  36.5201514  78.4611761 107.9107637  35.8524703  79.0872188
 108.4156490  36.7130610  77.9486425 105.4339352  55.6960508  70.0236787
 104.8613319  56.3150695  69.5707259 106.0072145  56.2459870  70.5576709
 111.5014742  44.9419148  82.2083336 112.4532165  45.0417246  82.2295560
 111.3318192  44.1497417  82.7181421 109.5229121  42.0274732  82.3942737
 108.9279053  42.3079744  81.6989226 109.2378818  42.5168633  83.1659478
 108.6536612  55.9797658  71.1545370 109.5867285  55.9143220  71.3578245
 108.5659824  56.8153925  70.6959902 111.2824628  55.2963529  68.1149317
 111.2038260  54.9623392  69.0085075 112.1034295  55.7885297  68.1140790
 113.9802819  48.1625268  81.3225636 113.9479140  47.2241269  81.5085320
 114.5903443  48.2409305  80.5891461 105.8186150  47.0321321  67.3652840
 106.7645255  46.9027529  67.4341258 105.4400395  46.2935983  67.8422268
 114.1297308  44.9536312  81.3683919 113.6136357  44.1694768  81.1813848
 115.0137256  44.6255028  81.5330439 111.7908035  38.6977327  77.3279732
 111.5932856  38.3892415  78.2123064 112.4007740  39.4238966  77.4577662
 119.7979369  49.2241275  80.4631673 120.5282758  48.9626563  81.0239376
 119.1886315  48.4869997  80.5033741 117.8794666  47.3649138  81.0606124
 117.1527830  47.2305102  80.4522615 117.4641953  47.6725966  81.8662842
 105.7024843  51.0839067  88.8253497 106.6227852  51.2617666  89.0193543
 105.6674426  50.1395113  88.6733196 104.0029067  44.9571297  67.3007725
 103.0960523  44.6604410  67.3770439 104.2805048  44.6601116  66.4342011
  94.9207008  46.2777661  77.7506772  94.6009792  45.4242969  77.4581146
  94.3740436  46.4926239  78.5064739  98.6986915  48.9940102  81.4676278
  98.9172925  49.9257210  81.4864312  99.1112689  48.6348076  82.2531082
 105.6191133  39.5008187  73.4551966 104.8091862  39.1555272  73.8307213
 106.3075550  39.1915731  74.0439578 107.5481681  38.5786234  75.0776263
 108.1012720  38.9981687  75.7366286 107.7851768  37.6521982  75.1199219
 103.5714781  44.5673308  90.8579027 103.4711508  45.5167665  90.7891118
 103.3536323  44.2391547  89.9855097 102.7727852  41.8158233  67.4419704
 103.6347016  42.1413131  67.7015522 102.9578196  41.0289729  66.9292770
  94.7895268  49.8980572  79.7199893  94.0958739  49.4834525  79.2069848
  95.5368259  49.9401109  79.1233312 110.9260489  40.6886759  74.5854927
 110.3459158  41.3471563  74.2032980 110.6596421  39.8664104  74.1742345
 109.3764055  40.0891817  76.7876248 109.8763833  40.2008351  75.9790567
 110.0199663  39.7852870  77.4277056 103.4346051  47.9970446  89.6744089
 102.9513132  48.7970807  89.8807978 103.5206990  48.0078391  88.7211533
  96.7032010  49.8298826  77.5965908  96.6802698  49.9286513  76.6447791
  97.0132647  50.6763977  77.9183074  99.3619388  51.8874981  81.7112522
 100.3162642  51.8558924  81.6442454  99.1631912  51.4265605  82.5262748
  99.9518770  50.4576097  84.2783320 100.7711659  50.9520176  84.3018157
 100.2255578  49.5408065  84.2500888 109.7085367  42.8486850  73.6411276
 108.8211222  43.1336500  73.4231470 110.1239356  42.6880613  72.7938552
 113.0599903  42.8733371  77.3565615 113.8360293  43.3629823  77.6290232
 112.3348037  43.2991425  77.8137484 115.4972461  43.5860990  78.4139555
 116.0916952  43.3456726  77.7032864 115.5699045  42.8668120  79.0413092
 108.8528580  52.6131524  67.7359296 109.5564430  52.8181527  68.3516951
 108.1291229  53.1808286  68.0008379 109.6826390  48.3641385  73.8561566
 109.6261592  48.8209937  73.0169198 110.2354733  47.6032070  73.6784409
 113.4931196  44.1531117  74.6811685 113.2368130  43.7527753  75.5119893
 112.8684064  44.8674911  74.5561824 117.8043534  46.8927191  77.1882977
 117.2443092  46.9620380  77.9614539 117.1987037  46.7168175  76.4682473
 100.8738743  58.3263918  78.9401163 100.7571127  59.2709350  78.8379853
 100.0531189  58.0237479  79.3286962 110.7615277  53.0514053  69.7857756
 111.5960881  52.6195252  69.6035230 110.5999620  52.8796067  70.7134650
 110.4161170  49.5546167  71.1514095 110.3609973  49.3890438  70.2102539
 109.7907225  50.2622200  71.3076285  95.2053685  44.7914231  84.9775517
  95.8512548  44.2813185  85.4662742  94.9970836  45.5282913  85.5518942
 107.7307077  51.8595079  90.4767658 108.5998236  52.0335731  90.1154293
 107.2513828  52.6789495  90.3543387 103.7257295  39.0554276  70.7299413
 103.7135965  39.9996116  70.8867684 104.6180717  38.8724421  70.4358875
 101.8993257  58.9792180  82.1557091 102.8020504  59.0115790  82.4723586
 101.6730627  58.0492631  82.1703427 103.6546859  57.7323166  78.8167170
 102.7042490  57.7325028  78.7031542 103.9579345  56.9855901  78.3003205
 107.5409415  35.6497052  74.9845350 106.7741810  35.0955539  75.1302032
 107.9520120  35.7218921  75.8459502  99.5451176  41.9381848  89.0750531
 100.4082637  41.5818653  89.2853856  98.9716586  41.5995743  89.7625936
 116.1989259  63.5211133  79.8174457 115.8607770  63.4052197  78.9294992
 117.0679027  63.1202298  79.7975463 116.6809042  64.6745984  85.7760663
 116.6697683  64.2798783  84.9041166 116.8429681  63.9412057  86.3694434
 113.4016303  67.4583096  84.7239847 113.1106169  68.3628727  84.6086513
 114.0373287  67.4999624  85.4383916 114.3272510  64.8359945  81.3141206
 114.9236082  64.6115967  80.5998169 114.3847481  64.0944690  81.9166654
 113.8997538  62.2899380  69.1491397 114.1523059  61.7680901  68.3874860
 112.9622097  62.1265525  69.2518081 118.9440821  61.2935158  76.9566140
 119.7303910  60.8754582  76.6056557 119.2079525  62.1981251  77.1247789
 113.6193827  64.1927486  71.3515772 113.5030085  63.5172389  72.0196856
 113.7296087  63.7059860  70.5347925 115.9625368  63.6537633  75.0562461
 115.5983575  63.1268254  75.7675383 116.8192484  63.2636102  74.8828947
 121.8674668  54.9431966  82.3193728 121.5357993  55.8127377  82.0954943
 121.2720282  54.6268250  82.9987758 115.6030855  58.6827533  70.0523810
 115.7705257  59.5507769  70.4194281 115.4128024  58.8454814  69.1285099
 118.3606188  67.1444512  81.7189640 118.0606911  68.0469550  81.6105447
 118.0157248  66.8776695  82.5710793 121.7603332  59.6627052  79.3987078
 120.8520209  59.5942460  79.1045839 121.7090928  60.1398997  80.2268903
 115.5820076  61.1385190  71.0370477 115.4619701  61.5842241  71.8755957
 114.8872664  61.4870508  70.4784015 115.8344198  61.0816697  87.3421975
 115.0577532  61.6410618  87.3324839 116.4734761  61.5673480  87.8636845
 123.6264978  57.8643490  81.1764952 122.9839358  58.1576023  80.5304746
 123.1219907  57.7496411  81.9818148 114.0890570  63.8902151  86.9039942
 114.8305254  64.4287195  86.6274765 113.3827555  64.5168440  87.0611494
 119.5645910  66.0331291  85.5012103 119.9729266  65.5913702  84.7566736
 118.8423171  65.4583919  85.7546296 115.9176980  60.9703898  82.8745660
 116.7638175  61.3943312  83.0180309 115.8575617  60.3137522  83.5684223
 119.0676425  58.6308266  84.5326834 118.8237357  59.3850327  83.9961110
 119.3436355  59.0093614  85.3674081 121.0214888  65.1746879  83.2104100
 121.2331783  65.8178639  82.5338481 120.9744636  64.3409195  82.7426030
 118.6241117  57.7864699  80.1140672 117.7625596  58.0845953  80.4057409
 118.6503551  58.0035098  79.1821704 114.3771572  62.4530042  73.3304042
 115.0795615  62.9051086  73.7977969 114.0452201  61.8113861  73.9583936
 112.8251934  61.0441799  87.7055252 112.1950594  61.7258080  87.9390649
 112.7188022  60.9324881  86.7608390 108.1196906  60.7113595  78.6321176
 107.3295960  60.9671124  78.1561287 108.6108153  61.5261933  78.7373217
 110.0711651  61.0758174  75.5904653 109.2742815  61.1876869  76.1088148
 109.8437244  61.4144826  74.7245543 106.4034609  60.9644085  81.0636167
 106.6542647  61.8491095  81.3293743 106.9394157  60.7848687  80.2911259
 112.1032676  55.3462565  90.0680503 111.7099622  54.7928763  90.7428147
 112.9198817  55.6573143  90.4587020 115.0200637  56.7620444  87.6600759
 115.7610351  57.3627597  87.5805222 115.2518560  56.0198082  87.1018802
 110.1641975  61.9476811  85.9378989 110.0495491  61.0462068  86.2386088
 109.3086493  62.1940508  85.5863806 117.2433813  69.8894551  87.5366490
 116.7997667  69.1030930  87.2187394 117.9051027  70.0773702  86.8710381
 119.3415051  70.1697351  85.5647891 119.3233527  70.9906232  85.0728160
 120.2634971  70.0451427  85.7898032 115.7988105  67.6841481  86.4071399
 116.3316442  66.9229769  86.1770707 115.2702186  67.3915133  87.1495554
 118.9657800  52.7901547  81.9365041 118.6222070  53.6803189  81.8604152
 119.3336763  52.6003204  81.0734626 116.5155194  57.6259859  75.5022715
 115.6596790  57.2366709  75.3228353 116.9282146  57.7051820  74.6422500
 118.0454341  55.1606202  79.9014274 117.5419136  55.1236337  79.0882080
 118.3384948  56.0698945  79.9610931 114.2897227  55.2444932  78.9080456
 115.1550223  55.0487740  78.5486346 114.3574736  55.0155283  79.8349813
 118.7194386  60.6537250  72.2697257 118.4144522  60.9683399  73.1207401
 119.6724828  60.7318670  72.3124590 111.8959546  57.4747140  76.2796823
 112.4703298  57.2522321  75.5470016 112.4830528  57.5435834  77.0325424
 112.2229133  59.5051601  70.2992708 111.3866445  59.8426287  70.6201983
 112.0833902  59.3700580  69.3619845 114.1982213  54.3488389  75.0071892
 113.5446626  54.0337406  74.3828507 114.1562688  53.7264129  75.7331715
 115.3093418  64.6307684  66.9225184 114.4020480  64.3996937  67.1216333
 115.8064450  63.8345303  67.1099166 117.4319954  60.8370322  79.3319540
 116.5142515  61.0585269  79.1741228 117.8480097  60.9116633  78.4731247
 118.2155002  62.2361738  74.4622220 118.9626820  62.7483135  74.1529342
 118.4846591  61.9145790  75.3226614 120.7645466  52.0495106  77.0382779
 121.0704343  51.1892469  76.7508694 121.4898071  52.6412726  76.8381773
 107.0569822  62.4525793  75.4264377 106.8594222  61.8595153  74.7015443
 106.5016486  62.1478003  76.1440316 115.0366546  62.3448899  77.5458970
 115.0915156  61.3922735  77.4701446 114.2257748  62.5008338  78.0300268
 116.1857739  66.2729022  68.7837253 115.7477169  65.5564881  68.3242890
 116.9268180  66.5005137  68.2222345 112.9758906  60.9625959  75.3049349
 112.1626771  61.2620129  75.7114541 113.4717900  60.5681648  76.0223831
 118.5733117  61.4267783  84.1364243 118.9282505  61.6539256  84.9958708
 119.2205249  61.7586160  83.5141498 112.4672980  58.5344314  80.9210584
 113.1072360  58.3933073  80.2233547 111.6350511  58.2478828  80.5449186
 109.5516048  61.9789827  73.1105329 108.6213636  61.9174282  73.3275291
 109.6473520  61.4565779  72.3141970 109.4701597  58.5044639  75.6983571
 109.7308414  59.4189973  75.5892731 110.2918769  58.0369082  75.8480183
 110.9426522  59.9182397  82.8682395 111.6149576  59.7099759  82.2195044
 110.1156309  59.7204483  82.4287627 116.8452094  56.5444337  84.8848056
 116.1980009  57.2434287  84.7912532 117.6153110  56.9780481  85.2524304
 120.2530892  66.8093190  87.9598609 120.1016399  66.5803741  87.0428693
 120.2435572  67.7663791  87.9729954 117.0216229  64.3825102  82.9444876
 117.9508289  64.5336262  82.7713843 116.6007259  64.4709123  82.0893522
 111.3454019  63.1924999  83.6284832 111.2073817  62.4605238  84.2296371
 112.2558943  63.1033900  83.3469020 120.3068967  65.1313404  68.3769311
 119.6898138  64.4060232  68.2802363 119.8385456  65.8922764  68.0336385
 113.9736320  62.9044959  83.1168512 114.6835939  62.2638151  83.0755130
 113.9305628  63.1557854  84.0394693 121.9623099  69.8412312  86.0375091
 121.9035645  69.1571532  85.3705674 122.3642617  70.5831302  85.5855717
 112.6865254  59.8910177  84.9364151 112.1502611  59.4400915  85.5885748
 112.0981963  60.0256086  84.1934616 112.0967513  59.3498828  67.4990615
 111.2196979  59.2287629  67.1352862 112.5725266  58.5584906  67.2469504
 121.9640506  67.8051896  84.2689071 121.0767285  67.4677818  84.3915470
 122.5339057  67.0734927  84.5057836 108.4204375  59.0266184  82.0217146
 108.3362564  58.4191854  81.2867556 107.5987082  59.5175203  82.0226642
 118.5928089  57.5119748  77.3887341 119.0896789  56.7589710  77.0688411
 117.8215071  57.5484065  76.8230550 115.1763058  59.6537131  77.1159025
 114.8060845  59.1008171  77.8039931 115.6722150  59.0495264  76.5634026
 121.0347084  54.4789341  79.5366700 120.1210164  54.7093568  79.7048907
 121.4640185  54.5627785  80.3880732 116.8541115  63.4099044  88.5232631
 116.1781752  63.3093174  89.1935006 117.6768749  63.2538258  88.9868628
 103.1937629  62.2176581  79.8649589 103.2321729  61.6840172  80.6586707
 102.6877922  61.6911787  79.2460566 110.5728392  57.0641122  83.3612132
 110.6369718  57.9255953  82.9489529 110.5095512  56.4515123  82.6284490
 110.0480664  59.1364254  87.0085166 110.6752703  58.7541332  87.6222690
 109.1908583  58.9178456  87.3740858 120.4474773  69.5427229  88.6138901
 120.9914677  70.1557188  88.1193856 119.8661618  70.1006808  89.1305914
 106.8246207  60.9440683  72.9403521 107.1199648  60.0351362  72.8870574
 105.9234243  60.9228423  72.6184523 110.3540454  59.0196680  78.9231069
 109.6327040  59.6332648  78.7838543 111.1433710  59.5554445  78.8447715
 113.1566767  56.3551106  85.1971721 113.6801169  56.6013403  85.9598030
 112.9379101  57.1871141  84.7774858 108.5534048  58.6254781  73.0642846
 108.2246755  57.7452160  72.8817952 108.9073419  58.5702450  73.9519235
 111.6675872  58.9127751  73.4318323 112.0071944  59.4413672  72.7096932
 112.1147992  59.2508157  74.2076890 114.3619312  57.2964802  82.8821392
 114.0216133  56.4972615  83.2842071 113.6558319  57.5966512  82.3098225
 115.0135784  54.3814114  81.3348715 115.8361854  53.9074592  81.2127605
 115.2573848  55.1604598  81.8347401 113.6544019  57.4102372  71.6311616
 114.3752381  57.7883625  71.1275333 113.0309323  58.1291249  71.7346594
 117.7975142  58.1147521  72.5669949 118.0138756  58.9972159  72.2658777
 117.3169209  57.7233735  71.8375591 112.5374363  61.0733235  79.1440693
 112.3918944  61.3873538  80.0364975 112.0599567  61.6918135  78.5911592
 114.3970746  58.0635783  79.1921583 114.3832315  57.1676876  78.8553881
 115.1143174  58.0706446  79.8259869 116.2496877  58.4973123  81.2374710
 115.9914654  59.4190193  81.2359041 115.7181917  58.1003557  81.9275174
 107.0120025  63.6138579  82.0828354 106.4673493  64.3898387  82.2148629
 107.8899375  63.9609383  81.9247476 113.8007642  56.9450163  74.4609153
 113.9223553  56.0166809  74.6600040 113.5109684  56.9588849  73.5487468
 116.6698832  54.6305073  77.5975873 116.6920529  54.6944406  76.6427852
 117.0866891  53.7909582  77.7916379 107.7986047  62.7408475  84.9758511
 107.0567783  62.8891111  85.5623142 107.4778791  63.0016741  84.1125261
 113.2848721  58.4582160  88.6699085 113.3336877  59.3344283  88.2876855
 113.8271236  57.9159553  88.0970729 123.7703567  69.0023283  87.9500223
 122.9799111  68.9847422  87.4104722 123.5336922  69.5411577  88.7049259
 123.8901442  65.8515750  85.2632951 123.9399447  65.6865757  86.2048474
 123.7815365  64.9843009  84.8730832 121.1805204  61.8346678  86.5792258
 122.0815067  61.6953143  86.2876256 121.2553179  62.0001133  87.5190435
 115.5148010  59.2113533  85.4245444 114.6451319  59.5047099  85.1528033
 115.7507490  59.7953978  86.1452708 125.3919639  68.2712691  85.5074973
 125.1004447  68.6342672  86.3438434 124.7791770  67.5579700  85.3288305
 118.2187044  55.4293150  82.9410865 118.7368988  56.1654176  82.6157353
 117.8642176  55.7357143  83.7757624 109.7985981  60.2897831  71.0572270
 109.1055226  60.3642186  70.4012306 109.5537733  59.5258174  71.5793787
 118.4699638  51.8493432  78.4611761 118.7501392  51.1816621  79.0872188
 119.2550245  52.0422528  77.9486425 120.3622876  57.3566649  82.3942737
 119.7672808  57.6371662  81.6989226 120.0772572  57.8460550  83.1659478
 122.1218383  70.6255446  68.1149317 122.0432014  70.2915310  69.0085075
 122.9428050  71.1177214  68.1140790 116.6579905  62.3613239  67.3652840
 117.6039010  62.2319447  67.4341258 116.2794150  61.6227901  67.8422268
 124.9691062  60.2828229  81.3683919 124.4530111  59.4986686  81.1813848
 125.8531011  59.9546946  81.5330439 122.6301789  54.0269245  77.3279732
 122.4326610  53.7184333  78.2123064 123.2401495  54.7530884  77.4577662
 130.6373124  64.5533193  80.4631673 131.3676512  64.2918481  81.0239376
 130.0280069  63.8161915  80.5033741 128.7188421  62.6941055  81.0606124
 127.9921584  62.5597020  80.4522615 128.3035708  63.0017884  81.8662842
 116.5418597  66.4130985  88.8253497 117.4621607  66.5909584  89.0193543
 116.5068180  65.4687030  88.6733196 114.8422822  60.2863215  67.3007725
 113.9354277  59.9896328  67.3770439 115.1198803  59.9893033  66.4342011
 105.7600762  61.6069579  77.7506772 105.4403547  60.7534887  77.4581146
 105.2134191  61.8218157  78.5064739 109.5380670  64.3232020  81.4676278
 109.7566680  65.2549127  81.4864312 109.9506444  63.9639994  82.2531082
 116.4584888  54.8300105  73.4551966 115.6485616  54.4847190  73.8307213
 117.1469305  54.5207649  74.0439578 118.3875436  53.9078152  75.0776263
 118.9406475  54.3273605  75.7366286 118.6245522  52.9813900  75.1199219
 114.4108535  59.8965225  90.8579027 114.3105262  60.8459582  90.7891118
 114.1930077  59.5683464  89.9855097 113.6121607  57.1450150  67.4419704
 114.4740771  57.4705049  67.7015522 113.7971951  56.3581646  66.9292770
 120.2157809  55.4183735  76.7876248 120.7157588  55.5300269  75.9790567
 120.8593417  55.1144787  77.4277056 114.2739805  63.3262364  89.6744089
 113.7906887  64.1262724  89.8807978 114.3600744  63.3370309  88.7211533
 110.7912525  65.7868015  84.2783320 111.6105414  66.2812094  84.3018157
 111.0649333  64.8699983  84.2500888 119.6922335  67.9423442  67.7359296
 120.3958185  68.1473444  68.3516951 118.9684983  68.5100204  68.0008379
 121.6009032  68.3805971  69.7857756 122.4354636  67.9487170  69.6035230
 121.4393375  68.2087985  70.7134650 106.0447439  60.1206149  84.9775517
 106.6906303  59.6105103  85.4662742 105.8364590  60.8574830  85.5518942
 118.5700831  67.1886996  90.4767658 119.4391991  67.3627649  90.1154293
 118.0907583  68.0081413  90.3543387 114.5651050  54.3846193  70.7299413
 114.5529719  55.3288033  70.8867684 115.4574471  54.2016339  70.4358875
 118.3803169  50.9788970  74.9845350 117.6135565  50.4247457  75.1302032
 118.7913874  51.0510839  75.8459502 110.3844930  57.2673766  89.0750531
 111.2476392  56.9110571  89.2853856 109.8110341  56.9287661  89.7625936
 141.0660463  79.7249500  77.7311428 140.3124172  79.1556898  77.5755433
 141.2008004  79.6912165  78.6782063 122.9426431  70.6754482  90.0680503
 122.5493376  70.1220681  90.7428147 123.7592571  70.9865061  90.4587020
 129.0555252  88.6697108  69.8421871 128.3816950  88.9728805  70.4506828
 129.4421074  89.4726189  69.4927328 122.9361267  74.6790746  67.4990615
 122.0590734  74.5579547  67.1352862 123.4119021  73.8876824  67.2469504
 137.2851601  78.5452031  79.0305632 137.2741477  79.4276747  78.6599565
 136.4168980  78.1923582  78.8360169 137.8876211  79.6952251  75.6355095
 138.3307357  78.9459576  75.2374219 137.0102721  79.6862387  75.2528827
 133.0211992  86.2482592  71.1161694 133.7162897  86.8689285  71.3349008
 133.3635142  85.3977943  71.3914072 137.4309076  81.1657489  78.0277543
 138.2655967  81.6047293  78.1915103 137.5668205  80.6896142  77.2085789
 133.1802251  75.6002984  82.2083336 134.1319674  75.7001081  82.2295560
 133.0105701  74.8081252  82.7181421 132.9612137  85.9547364  68.1149317
 132.8825769  85.6207228  69.0085075 133.7821804  86.4469132  68.1140790
 135.8084817  75.6120147  81.3683919 135.2923866  74.8278604  81.1813848
 136.6924765  75.2838864  81.5330439 141.4766878  79.8825110  80.4631673
 142.2070267  79.6210398  81.0239376 140.8673824  79.1453832  80.5033741
 139.5582175  78.0232973  81.0606124 138.8315339  77.8888938  80.4522615
 139.1429462  78.3309801  81.8662842 125.6816576  75.6155133  67.3007725
 124.7748032  75.3188246  67.3770439 125.9592557  75.3184951  66.4342011
 125.2502290  75.2257143  90.8579027 125.1499017  76.1751500  90.7891118
 125.0323832  74.8975382  89.9855097 124.4515361  72.4742068  67.4419704
 125.3134525  72.7996966  67.7015522 124.6365705  71.6873564  66.9292770
 130.5316089  83.2715360  67.7359296 131.2351939  83.4765362  68.3516951
 129.8078738  83.8392121  68.0008379 135.1718705  74.8114953  74.6811685
 134.9155639  74.4111588  75.5119893 134.5471573  75.5258747  74.5561824
 139.4831043  77.5511026  77.1882977 138.9230601  77.6204215  77.9614539
 138.8774546  77.3752011  76.4682473 132.4402786  83.7097889  69.7857756
 133.2748390  83.2779087  69.6035230 132.2787129  83.5379902  70.7134650
 121.2238685  72.5965684  89.0750531 122.0870146  72.2402488  89.2853856
 120.6504095  72.2579578  89.7625936 141.0687062  94.2267540  79.8812932
 141.7065471  94.1074287  79.1776272 140.9507904  95.1748384  79.9400885
 137.8776768  94.1794968  79.8174457 137.5395279  94.0636033  78.9294992
 138.7466536  93.7786133  79.7975463 133.7363583  96.0330444  75.8071348
 133.1728449  95.9420381  75.0387636 133.6215979  95.2130349  76.2873841
 138.3596551  95.3329820  85.7760663 138.3485192  94.9382618  84.9041166
 138.5217190  94.5995892  86.3694434 131.2828015  97.5281636  78.6455568
 132.0749307  97.1872461  78.2301868 131.5224666  97.6376611  79.5657722
 139.3163142  99.7001412  71.1185813 138.6651122 100.2855492  70.7319827
 140.1107505 100.2307607  71.1780850 133.2418769  96.7890549  71.5172947
 134.0149645  96.2419536  71.3785823 133.5944168  97.6534799  71.7287409
 135.0803812  98.1166931  84.7239847 134.7893678  99.0212562  84.6086513
 135.7160796  98.1583459  85.4383916 136.0060019  95.4943780  81.3141206
 136.6023591  95.2699802  80.5998169 136.0634990  94.7528525  81.9166654
 135.5785047  92.9483215  69.1491397 135.8310568  92.4264737  68.3874860
 134.6409606  92.7849361  69.2518081 140.6228330  91.9518994  76.9566140
 141.4091419  91.5338417  76.6056557 140.8867034  92.8565086  77.1247789
 140.7938407  97.3891844  71.6554797 140.1584240  97.4626471  72.3675702
 140.4635814  97.9785443  70.9773876 146.0236757  91.8894227  77.8599119
 146.7561929  91.3193444  78.0936948 145.2676113  91.5015827  78.3005625
 135.2981336  94.8511321  71.3515772 135.1817594  94.1756225  72.0196856
 135.4083596  94.3643695  70.5347925 137.6412877  94.3121468  75.0562461
 137.2771084  93.7852089  75.7675383 138.4979993  93.9219937  74.8828947
 143.5462177  85.6015801  82.3193728 143.2145502  86.4711212  82.0954943
 142.9507791  85.2852085  82.9987758 137.2818364  89.3411368  70.0523810
 137.4492766  90.2091605  70.4194281 137.0915533  89.5038650  69.1285099
 140.0393697  97.8028347  81.7189640 139.7394420  98.7053386  81.6105447
 139.6944757  97.5360530  82.5710793 133.4906178  94.2542144  77.7526345
 132.5656675  94.1218358  77.9604036 133.7390592  95.0336363  78.2496287
 143.4390841  90.3210887  79.3987078 142.5307718  90.2526296  79.1045839
 143.3878437  90.7982832  80.2268903 137.2607585  91.7969026  71.0370477
 137.1407210  92.2426076  71.8755957 136.5660173  92.1454343  70.4784015
 135.0214477 104.5672667  74.6860608 134.9438507 105.5180492  74.7649089
 134.4176120 104.2218540  75.3435534 137.5131707  91.7400533  87.3421975
 136.7365041  92.2994453  87.3324839 138.1522270  92.2257316  87.8636845
 145.3052487  88.5227326  81.1764952 144.6626867  88.8159859  80.5304746
 144.8007416  88.4080246  81.9818148 142.9592651  92.2690499  71.8650811
 143.8710507  92.5017886  71.6898508 142.4502298  92.8527543  71.3025889
 135.7678079  94.5485986  86.9039942 136.5092763  95.0871030  86.6274765
 135.0615064  95.1752275  87.0611494 141.2433419  96.6915127  85.5012103
 141.6516775  96.2497537  84.7566736 140.5210680  96.1167754  85.7546296
 137.5964489  91.6287733  82.8745660 138.4425684  92.0527147  83.0180309
 137.5363126  90.9721358  83.5684223 141.5662233  97.2516317  79.2564392
 140.9371096  97.4162031  78.5540460 141.1787895  97.6657927  80.0275356
 145.4451465  98.1870755  76.6108756 144.7602503  98.5669656  76.0605789
 145.5295314  98.7966082  77.3440704 140.7463934  89.2892102  84.5326834
 140.5024866  90.0434162  83.9961110 141.0223864  89.6677449  85.3674081
 142.7002397  95.8330714  83.2104100 142.9119292  96.4762474  82.5338481
 142.6532145  94.9993031  82.7426030 140.3028626  88.4448535  80.1140672
 139.4413105  88.7429788  80.4057409 140.3291060  88.6618934  79.1821704
 137.1190195  96.9890725  76.5214477 137.5828541  97.2678428  75.7319100
 136.8546993  96.0874170  76.3387568 134.0114276  96.5362207  79.4594241
 134.5815633  96.9649475  78.8211725 134.6022388  96.2544792  80.1578426
 136.0559081  93.1113878  73.3304042 136.7583124  93.5634921  73.7977969
 135.7239710  92.4697697  73.9583936 143.8148225  98.7102670  81.3826457
 144.6365668  98.3082857  81.1009138 143.8110627  98.6070904  82.3342573
 131.7499160  91.7342010  75.5904653 130.9530324  91.8460704  76.1088148
 131.5224753  92.0728662  74.7245543 137.5804828  98.2586713  83.5387167
 137.6449261  98.7207120  84.3745339 136.8715752  97.6284078  83.6669477
 151.9054218  95.0541418  77.7311428 151.1517926  94.4848816  77.5755433
 152.0401759  95.0204083  78.6782063 137.2952846  99.9254820  73.4066148
 137.1598521 100.7706356  73.8350996 137.8362658 100.1274098  72.6432081
 133.7820185  86.0046400  90.0680503 133.3887131  85.4512599  90.7428147
 134.5986326  86.3156979  90.4587020 130.7482243  97.4430258  73.9794073
 131.2606764  98.2373509  74.1299637 131.4004956  96.7456549  73.9127674
 132.5577128 100.5596015  76.0616826 132.7343756 101.4813979  75.8737810
 133.3533961 100.2454434  76.4911206 138.9221322 100.5478387  87.5366490
 138.4785176  99.7614765  87.2187394 139.5838536 100.7357537  86.8710381
 133.6808443 102.0774188  82.0627168 134.2315868 101.9491252  81.2904162
 132.8419919 102.3769077  81.7122061 141.0202560 100.8281187  85.5647891
 141.0021036 101.6490068  85.0728160 141.9422480 100.7035262  85.7898032
 137.4775614  98.3425316  86.4071399 138.0103951  97.5813604  86.1770707
 136.9489695  98.0498968  87.1495554 140.6445309  83.4485382  81.9365041
 140.3009579  84.3387024  81.8604152 141.0124272  83.2587040  81.0734626
 128.7131160  95.7718913  74.7553643 129.5506382  96.1815921  74.5387351
 128.8909428  94.8318355  74.7253837 140.6095592  93.4393993  70.4437476
 140.0942215  94.2098598  70.6825864 140.3372900  92.7659129  71.0670538
 138.1942703  88.2843694  75.5022715 137.3384299  87.8950544  75.3228353
 138.6069655  88.3635655  74.6422500 139.7241850  85.8190037  79.9014274
 139.2206645  85.7820173  79.0882080 140.0172457  86.7282780  79.9610931
 145.5829866  96.1926348  72.3790650 144.8059309  95.8537507  71.9345812
 146.2621347  96.1978971  71.7045615 140.3981895  91.3121085  72.2697257
 140.0932031  91.6267235  73.1207401 141.3512337  91.3902505  72.3124590
 138.8428327  97.4711309  73.9190211 138.3149689  96.7364068  73.6063449
 138.3415830  98.2485985  73.6730180 143.8221173  95.6660329  79.0357258
 143.1644847  96.3559591  79.1237386 144.6261572  96.0556761  79.3791244
 142.6326632  94.0204702  77.0861199 143.1458514  94.6534694  77.5882909
 143.2827856  93.4205897  76.7204559 133.9016642  90.1635436  70.2992708
 133.0653954  90.5010123  70.6201983 133.7621411  90.0284416  69.3619845
 135.8769722  85.0072224  75.0071892 135.2234135  84.6921241  74.3828507
 135.8350197  84.3847964  75.7331715 136.9880927  95.2891519  66.9225184
 136.0807989  95.0580772  67.1216333 137.4851959  94.4929138  67.1099166
 139.8949006 103.9989026  69.8421871 139.2210705 104.3020723  70.4506828
 140.2814828 104.8018107  69.4927328 139.1107463  91.4954157  79.3319540
 138.1930024  91.7169104  79.1741228 139.5267606  91.5700468  78.4731247
 139.8942510  92.8945573  74.4622220 140.6414329  93.4066970  74.1529342
 140.1634100  92.5729626  75.3226614 138.1669161  95.3904114  71.4449175
 137.2580380  95.1063147  71.5421644 138.1964244  95.8103192  70.5852481
 143.3988428  99.0010703  75.2140342 142.9450755  98.1601613  75.2705533
 142.7682395  99.6372102  75.5515122 142.3421348  89.9302689  76.4441010
 141.6044104  89.4180076  76.7751252 142.5948121  89.4903071  75.6324286
 141.8421367 100.8387200  76.1490160 142.1344342 101.3992257  75.4302526
 142.3519988 101.1315761  76.9043319 142.4432975  82.7078941  77.0382779
 142.7491852  81.8476305  76.7508694 143.1685580  83.2996562  76.8381773
 136.7154055  93.0032734  77.5458970 136.7702664  92.0506571  77.4701446
 135.9045257  93.1592174  78.0300268 137.8645248  96.9312858  68.7837253
 137.4264678  96.2148716  68.3242890 138.6055689  97.1588972  68.2222345
 134.6546415  91.6209794  75.3049349 133.8414280  91.9203965  75.7114541
 135.1505409  91.2265483  76.0223831 136.8054993 101.6167551  77.2383613
 136.7631171 101.8428397  76.3092145 137.7217691 101.3830926  77.3869415
 140.2520626  92.0851619  84.1364243 140.6070014  92.3123092  84.9958708
 140.8992758  92.4169995  83.5141498 145.9818363  95.2070055  74.8413572
 145.8436262  95.3971651  73.9134761 145.6254582  95.9689437  75.2981623
 146.0087743  97.2746582  79.8524843 146.4424250  97.1821871  80.7007897
 146.7219324  97.2504082  79.2144859 134.9220793  98.4930580  77.0345576
 135.7161392  97.9980900  76.8328151 134.2112486  97.9648443  76.6713282
 139.7415638 100.8748676  81.3857944 139.7952660 101.4439612  82.1535660
 138.8730419 101.0450561  81.0211981 131.2303557  92.6373662  73.1105329
 130.3001145  92.5758117  73.3275291 131.3261029  92.1149615  72.3141970
 131.1489106  89.1628475  75.6983571 131.4095923  90.0773808  75.5892731
 131.9706278  88.6952917  75.8480183 146.8703292  97.3170282  82.3857729
 147.0639182  98.2216093  82.6317004 146.7703911  96.8577701  83.2196314
 141.9318401  97.4677025  87.9598609 141.7803907  97.2387577  87.0428693
 141.9223081  98.4247626  87.9729954 138.7003737  95.0408938  82.9444876
 139.6295797  95.1920097  82.7713843 138.2794768  95.1292958  82.0893522
 137.4992069  99.0659602  80.7143413 137.3603155  98.6978387  81.5869351
 136.7106666  99.5807242  80.5427371 138.0940221 104.1668699  72.0568950
 138.2691977 103.6956742  72.8714572 137.4073009 104.7934465  72.2850211
 139.0497284  98.4441205  78.1032251 138.7147117  98.4041975  78.9989901
 138.5501230  97.7785921  77.6302661 141.9856476  95.7897239  68.3769311
 141.3685647  95.0644067  68.2802363 141.5172965  96.5506599  68.0336385
 135.6523829  93.5628794  83.1168512 136.3623448  92.9221986  83.0755130
 135.6093137  93.8141689  84.0394693 143.6410608 100.4996148  86.0375091
 143.5823154  99.8155368  85.3705674 144.0430126 101.2415138  85.5855717
 132.6601307 107.3158061  78.8308810 132.8997905 107.9476586  79.5087829
 131.8170503 106.9646101  79.1174169 133.7755022  90.0082663  67.4990615
 132.8984488  89.8871464  67.1352862 134.2512775  89.2168742  67.2469504
 143.6428015  98.4635731  84.2689071 142.7554794  98.1261653  84.3915470
 144.2126566  97.7318763  84.5057836 137.1729168 103.1237184  81.2350314
 137.0999340 103.9292155  81.7469619 136.7306562 103.3229150  80.4098335
 136.9618948 102.3608954  74.7453135 136.1786470 102.9030634  74.8391360
 137.6611693 102.8782933  75.1447377 140.2715598  88.1703583  77.3887341
 140.7684298  87.4173546  77.0688411 139.5002580  88.2067900  76.8230550
 148.1245356  93.8743949  79.0305632 148.1135232  94.7568664  78.6599565
 147.2562735  93.5215500  78.8360169 139.6327852 103.0224018  83.3908473
 140.3455824 103.6571483  83.3184374 139.1417881 103.1187884  82.5748474
 141.3545379  96.9275271  74.9625764 140.4201658  97.0476733  74.7930469
 141.5322047  96.0247737  74.6985774 136.8550567  90.3120966  77.1159025
 136.4848354  89.7592007  77.8039931 137.3509659  89.7079100  76.5634026
 144.7417930  92.7692590  75.4975798 145.2078382  93.6020581  75.4236101
 145.1925431  92.3037571  76.2021057 134.6839765 100.7718461  84.2114043
 135.3849225 101.4054944  84.3643438 134.2134880 101.1133193  83.4509683
 142.8094161  99.1136411  72.4961950 143.0854005  98.9993006  73.4055825
 141.9398660  98.7153896  72.4574124 142.7134593  85.1373177  79.5366700
 141.7997673  85.3677404  79.7048907 143.1427694  85.2211621  80.3880732
 142.4841051  93.3263069  82.0366594 141.8312502  93.5738976  81.3819047
 142.8621431  92.5127207  81.7029071 139.4448225 103.3622762  76.1394764
 139.6270620 102.5444418  76.6022516 140.2681211 103.5790454  75.7019654
 139.7790391 102.2890947  73.4009813 140.3078157 101.7783402  72.7879975
 140.0418610 101.9733477  74.2655346 138.5328624  94.0682880  88.5232631
 137.8569261  93.9677009  89.1935006 139.3556258  93.9122094  88.9868628
 130.2807484 100.3054816  81.1445146 130.8660920  99.5598504  81.2773050
 130.0832322 100.6158773  82.0281810 133.1346139 103.3406064  76.1607588
 132.4656514 103.8252191  75.6771629 132.9959008 103.5875284  77.0750967
 137.2751407 105.3749807  82.7590247 137.8269715 105.5381429  83.5239332
 137.6157601 105.9654245  82.0870272 142.1262282 100.2011065  88.6138901
 142.6702186 100.8141023  88.1193856 141.5449126 100.7590643  89.1305914
 128.5033716  91.6024519  72.9403521 128.7987157  90.6935197  72.8870574
 127.6021752  91.5812258  72.6184523 140.4119795 103.3231783  79.7453929
 140.2870934 102.5221523  79.2364875 141.0698886 103.8177976  79.2567899
 142.4754703 101.1240803  81.3733479 141.5285039 101.0046154  81.3011806
 142.8237476 100.2363301  81.4559741 130.2321557  89.2838616  73.0642846
 129.9034264  88.4035995  72.8817952 130.5860928  89.2286285  73.9519235
 139.4801136 100.9193519  77.5737831 139.3326099  99.9910226  77.7545401
 140.3054630 100.9413610  77.0894907 133.3463381  89.5711586  73.4318323
 133.6859453  90.0997507  72.7096932 133.7935501  89.9091992  74.2076890
 143.0835258 101.7422078  78.6602704 144.0081806 101.5364939  78.5227155
 142.9150562 101.4938479  79.5692046 135.3331528  88.0686208  71.6311616
 136.0539890  88.4467461  71.1275333 134.7096832  88.7875085  71.7346594
 139.4762651  88.7731357  72.5669949 139.6926265  89.6555995  72.2658777
 138.9956718  88.3817570  71.8375591 134.2161872  91.7317070  79.1440693
 134.0706453  92.0457373  80.0364975 133.7387076  92.3501970  78.5911592
 142.8730574 102.2607745  74.0164796 143.0467452 101.6954168  73.2638648
 143.3659466 103.0608640  73.8344285 128.6907534  94.2722414  82.0828354
 128.1461002  95.0482222  82.2148629 129.5686884  94.6193219  81.9247476
 135.4795151  87.6033998  74.4609153 135.6011062  86.6750644  74.6600040
 135.1897193  87.6172684  73.5487468 138.3486341  85.2888909  77.5975873
 138.3708038  85.3528242  76.6427852 138.7654400  84.4493417  77.7916379
 148.7269966  95.0244168  75.6355095 149.1701112  94.2751493  75.2374219
 147.8496476  95.0154305  75.2528827 143.8605747 101.5774510  71.1161694
 144.5556651 102.1981202  71.3349008 144.2028897 100.7269861  71.3914072
 145.7597170  99.0274215  72.6449025 146.2848494  99.3661488  71.9198345
 145.6719523  98.0921231  72.4612159 137.4217219 102.9408289  84.7738901
 137.7304345 102.6957436  85.6461601 138.2192701 103.1454927  84.2857771
 137.4437831 105.0946198  77.0044278 137.0042821 104.6022577  77.6977134
 138.1945948 104.5519166  76.7636353 129.9230170 101.2857739  77.0068906
 130.7488190 100.9861511  76.6267549 129.5724222 100.5165362  77.4558695
 134.8911703 100.6384208  79.0766579 134.2691712  99.9754913  78.7768807
 135.5616570 100.6645339  78.3940227 128.1238775  99.2044066  77.9657839
 127.2870683  98.7766240  77.7841841 128.0962420  99.3976509  78.9028631
 145.4491076  99.6607119  87.9500223 144.6586620  99.6431258  87.4104722
 145.2124431 100.1995413  88.7049259 145.5688951  96.5099585  85.2632951
 145.6186956  96.3449593  86.2048474 145.4602874  95.6426844  84.8730832
 134.4525210  99.1888131  72.5525040 134.6013330  99.8723595  71.8991713
 135.2591653  99.1693221  73.0674496 142.8592713  92.4930513  86.5792258
 143.7602576  92.3536978  86.2876256 142.9340688  92.6584968  87.5190435
 147.0707148  98.9296527  85.5074973 146.7791956  99.2926507  86.3438434
 146.4579279  98.2163535  85.3288305 148.2702830  96.4949407  78.0277543
 149.1049722  96.9339211  78.1915103 148.4061959  96.0188060  77.2085789
 145.3194336  94.0529141  83.9755031 145.7948458  94.2456788  83.1673882
 144.3959902  94.1088327  83.7298414 132.2077843  95.2153309  73.5586109
 131.9623885  94.3115639  73.7566319 132.3773757  95.2170459  72.6165587
 131.4773490  90.9481666  71.0572270 130.7842735  91.0226021  70.4012306
 131.2325242  90.1842010  71.5793787 140.1487147  82.5077267  78.4611761
 140.4288901  81.8400457  79.0872188 140.9337754  82.7006363  77.9486425
 137.9520615 101.6836261  70.0236787 137.3794582 102.3026448  69.5707259
 138.5253409 102.2335623  70.5576709 144.0196005  90.9294901  82.2083336
 144.9713428  91.0292999  82.2295560 143.8499456  90.1373170  82.7181421
 142.0410385  88.0150485  82.3942737 141.4460317  88.2955497  81.6989226
 141.7560081  88.5044386  83.1659478 141.1717875 101.9673411  71.1545370
 142.1048548 101.9018973  71.3578245 141.0841088 102.8029678  70.6959902
 143.8005892 101.2839282  68.1149317 143.7219523 100.9499145  69.0085075
 144.6215559 101.7761050  68.1140790 146.4984083  94.1501021  81.3225636
 146.4660403  93.2117022  81.5085320 147.1084707  94.2285058  80.5891461
 138.3367414  93.0197074  67.3652840 139.2826519  92.8903282  67.4341258
 137.9581659  92.2811736  67.8422268 146.6478571  90.9412065  81.3683919
 146.1317620  90.1570521  81.1813848 147.5318520  90.6130781  81.5330439
 144.3089298  84.6853080  77.3279732 144.1114119  84.3768168  78.2123064
 144.9189004  85.4114719  77.4577662 152.3160633  95.2117028  80.4631673
 153.0464021  94.9502316  81.0239376 151.7067578  94.4745750  80.5033741
 150.3975930  93.3524891  81.0606124 149.6709093  93.2180855  80.4522615
 149.9823217  93.6601719  81.8662842 138.2206106  97.0714820  88.8253497
 139.1409116  97.2493419  89.0193543 138.1855689  96.1270866  88.6733196
 136.5210331  90.9447050  67.3007725 135.6141786  90.6480163  67.3770439
 136.7986312  90.6476869  66.4342011 131.2168179  94.9815855  81.4676278
 131.4354189  95.9132963  81.4864312 131.6293953  94.6223829  82.2531082
 138.1372397  85.4883940  73.4551966 137.3273125  85.1431025  73.8307213
 138.8256814  85.1791484  74.0439578 140.0662945  84.5661987  75.0776263
 140.6193984  84.9857440  75.7366286 140.3033031  83.6397735  75.1199219
 136.0896044  90.5549061  90.8579027 135.9892771  91.5043418  90.7891118
 135.8717586  90.2267300  89.9855097 135.2909116  87.8033986  67.4419704
 136.1528280  88.1288884  67.7015522 135.4759460  87.0165482  66.9292770
 143.4441752  86.6762512  74.5854927 142.8640421  87.3347316  74.2032980
 143.1777685  85.8539857  74.1742345 141.8945318  86.0767570  76.7876248
 142.3945097  86.1884104  75.9790567 142.5380926  85.7728623  77.4277056
 135.9527314  93.9846200  89.6744089 135.4694396  94.7846560  89.8807978
 136.0388253  93.9954144  88.7211533 131.8800652  97.8750734  81.7112522
 132.8343905  97.8434677  81.6442454 131.6813175  97.4141358  82.5262748
 132.4700034  96.4451850  84.2783320 133.2892923  96.9395929  84.3018157
 132.7436842  95.5283818  84.2500888 142.2266630  88.8362603  73.6411276
 141.3392485  89.1212253  73.4231470 142.6420619  88.6756366  72.7938552
 145.5781166  88.8609124  77.3565615 146.3541556  89.3505576  77.6290232
 144.8529300  89.2867178  77.8137484 148.0153725  89.5736743  78.4139555
 148.6098216  89.3332479  77.7032864 148.0880309  88.8543873  79.0413092
 130.2350881 103.4170354  78.7282720 130.1005348 102.6570755  78.1620718
 129.8182943 104.1411254  78.2611509 141.3709844  98.6007277  67.7359296
 142.0745694  98.8057280  68.3516951 140.6472492  99.1684039  68.0008379
 142.2007654  94.3517138  73.8561566 142.1442855  94.8085690  73.0169198
 142.7535996  93.5907823  73.6784409 146.0112460  90.1406870  74.6811685
 145.7549394  89.7403506  75.5119893 145.3865328  90.8550664  74.5561824
 150.3224798  92.8802944  77.1882977 149.7624356  92.9496133  77.9614539
 149.7168301  92.7043928  76.4682473 133.3920006 104.3139671  78.9401163
 133.2752391 105.2585103  78.8379853 132.5712453 104.0113232  79.3286962
 143.2796541  99.0389806  69.7857756 144.1142145  98.6071005  69.6035230
 143.1180884  98.8671820  70.7134650 142.9342433  95.5421920  71.1514095
 142.8791237  95.3766191  70.2102539 142.3088488  96.2497953  71.3076285
 140.2488340  97.8470832  90.4767658 141.1179500  98.0211484  90.1154293
 139.7695092  98.6665248  90.3543387 136.2438559  85.0430029  70.7299413
 136.2317228  85.9871869  70.8867684 137.1361980  84.8600174  70.4358875
 134.4174521 104.9667933  82.1557091 135.3201767 104.9991543  82.4723586
 134.1911891 104.0368384  82.1703427 136.1728123 103.7198919  78.8167170
 135.2223754 103.7200781  78.7031542 136.4760609 102.9731654  78.3003205
 140.0590678  81.6372805  74.9845350 139.2923074  81.0831292  75.1302032
 140.4701383  81.7094674  75.8459502 151.9080816 109.5559458  79.8812932
 152.5459226 109.4366205  79.1776272 151.7901659 110.5040301  79.9400885
 148.7170522 109.5086886  79.8174457 148.3789034 109.3927950  78.9294992
 149.5860290 109.1078051  79.7975463 144.5757338 111.3622362  75.8071348
 144.0122203 111.2712299  75.0387636 144.4609733 110.5422267  76.2873841
 149.1990305 110.6621737  85.7760663 149.1878946 110.2674536  84.9041166
 149.3610945 109.9287810  86.3694434 142.1221770 112.8573554  78.6455568
 142.9143062 112.5164378  78.2301868 142.3618420 112.9668529  79.5657722
 150.1556897 115.0293330  71.1185813 149.5044876 115.6147410  70.7319827
 150.9501260 115.5599525  71.1780850 144.0812524 112.1182467  71.5172947
 144.8543400 111.5711454  71.3785823 144.4337923 112.9826716  71.7287409
 145.9197566 113.4458849  84.7239847 145.6287432 114.3504480  84.6086513
 146.5554551 113.4875377  85.4383916 146.8453773 110.8235698  81.3141206
 147.4417346 110.5991720  80.5998169 146.9028745 110.0820443  81.9166654
 146.4178802 108.2775133  69.1491397 146.6704322 107.7556654  68.3874860
 145.4803361 108.1141278  69.2518081 151.4622084 107.2810911  76.9566140
 152.2485174 106.8630335  76.6056557 151.7260789 108.1857004  77.1247789
 151.6332162 112.7183762  71.6554797 150.9977995 112.7918388  72.3675702
 151.3029568 113.3077361  70.9773876 146.1375090 110.1803239  71.3515772
 146.0211349 109.5048142  72.0196856 146.2477350 109.6935613  70.5347925
 148.4806631 109.6413386  75.0562461 148.1164839 109.1144007  75.7675383
 149.3373747 109.2511855  74.8828947 154.3855932 100.9307719  82.3193728
 154.0539257 101.8003130  82.0954943 153.7901545 100.6144003  82.9987758
 148.1212118 104.6703286  70.0523810 148.2886521 105.5383522  70.4194281
 147.9309287 104.8330567  69.1285099 150.8787452 113.1320265  81.7189640
 150.5788175 114.0345303  81.6105447 150.5338511 112.8652448  82.5710793
 144.3299933 109.5834062  77.7526345 143.4050429 109.4510276  77.9604036
 144.5784346 110.3628281  78.2496287 154.2784595 105.6502805  79.3987078
 153.3701473 105.5818213  79.1045839 154.2272191 106.1274750  80.2268903
 148.1001339 107.1260943  71.0370477 147.9800964 107.5717994  71.8755957
 147.4053928 107.4746261  70.4784015 141.6908744 109.2267335  78.5870134
 141.8201125 109.4801814  79.5009545 141.0106195 109.8195043  78.2674789
 145.8608231 119.8964585  74.6860608 145.7832261 120.8472410  74.7649089
 145.2569875 119.5510458  75.3435534 148.3525461 107.0692450  87.3421975
 147.5758795 107.6286371  87.3324839 148.9916024 107.5549233  87.8636845
 156.1446242 103.8519243  81.1764952 155.5020622 104.1451776  80.5304746
 155.6401170 103.7372164  81.9818148 153.7986405 107.5982416  71.8650811
 154.7104261 107.8309803  71.6898508 153.2896052 108.1819461  71.3025889
 146.6071833 109.8777904  86.9039942 147.3486518 110.4162948  86.6274765
 145.9008819 110.5044193  87.0611494 152.0827173 112.0207044  85.5012103
 152.4910529 111.5789455  84.7566736 151.3604435 111.4459672  85.7546296
 148.4358243 106.9579651  82.8745660 149.2819438 107.3819065  83.0180309
 148.3756881 106.3013275  83.5684223 152.4055988 112.5808235  79.2564392
 151.7764850 112.7453949  78.5540460 152.0181650 112.9949844  80.0275356
 156.2845220 113.5162673  76.6108756 155.5996258 113.8961574  76.0605789
 156.3689069 114.1257999  77.3440704 151.5857688 104.6184019  84.5326834
 151.3418620 105.3726080  83.9961110 151.8617619 104.9969367  85.3674081
 153.5396151 111.1622632  83.2104100 153.7513046 111.8054392  82.5338481
 153.4925899 110.3284948  82.7426030 151.1422380 103.7740452  80.1140672
 150.2806859 104.0721706  80.4057409 151.1684815 103.9910851  79.1821704
 147.9583950 112.3182643  76.5214477 148.4222295 112.5970346  75.7319100
 147.6940748 111.4166088  76.3387568 144.8508031 111.8654125  79.4594241
 145.4209388 112.2941393  78.8211725 145.4416142 111.5836709  80.1578426
 146.8952836 108.4405795  73.3304042 147.5976879 108.8926839  73.7977969
 146.5633464 107.7989614  73.9583936 145.3433197 107.0317552  87.7055252
 144.7131858 107.7133833  87.9390649 145.2369285 106.9200634  86.7608390
 140.6378170 106.6989348  78.6321176 139.8477224 106.9546877  78.1561287
 141.1289417 107.5137686  78.7373217 154.6541979 114.0394587  81.3826457
 155.4759423 113.6374774  81.1009138 154.6504382 113.9362821  82.3342573
 142.5892915 107.0633927  75.5904653 141.7924078 107.1752622  76.1088148
 142.3618507 107.4020579  74.7245543 148.4198583 113.5878631  83.5387167
 148.4843015 114.0499038  84.3745339 147.7109506 112.9575995  83.6669477
 138.9215873 106.9519838  81.0636167 139.1723911 107.8366848  81.3293743
 139.4575421 106.7724440  80.2911259 148.1346600 115.2546738  73.4066148
 147.9992275 116.0998274  73.8350996 148.6756413 115.4566016  72.6432081
 144.6213940 101.3338318  90.0680503 144.2280885 100.7804516  90.7428147
 145.4380080 101.6448896  90.4587020 141.5875998 112.7722176  73.9794073
 142.1000518 113.5665426  74.1299637 142.2398710 112.0748466  73.9127674
 143.3970882 115.8887932  76.0616826 143.5737511 116.8105897  75.8737810
 144.1927716 115.5746352  76.4911206 147.5381901 102.7496197  87.6600759
 148.2791614 103.3503350  87.5805222 147.7699824 102.0073835  87.1018802
 142.6823239 107.9352564  85.9378989 142.5676754 107.0337821  86.2386088
 141.8267757 108.1816261  85.5863806 149.7615077 115.8770305  87.5366490
 149.3178931 115.0906683  87.2187394 150.4232290 116.0649455  86.8710381
 144.5202198 117.4066106  82.0627168 145.0709623 117.2783169  81.2904162
 143.6813674 117.7060995  81.7122061 151.8596315 116.1573104  85.5647891
 151.8414790 116.9781985  85.0728160 152.7816235 116.0327180  85.7898032
 148.3169369 113.6717234  86.4071399 148.8497706 112.9105522  86.1770707
 147.7883450 113.3790886  87.1495554 151.4839064  98.7777300  81.9365041
 151.1403333  99.6678942  81.8604152 151.8518026  98.5878958  81.0734626
 139.5524914 111.1010830  74.7553643 140.3900136 111.5107839  74.5387351
 139.7303182 110.1610272  74.7253837 151.4489347 108.7685911  70.4437476
 150.9335970 109.5390516  70.6825864 151.1766655 108.0951047  71.0670538
 149.0336458 103.6135612  75.5022715 148.1778054 103.2242462  75.3228353
 149.4463409 103.6927573  74.6422500 150.5635604 101.1481955  79.9014274
 150.0600400 101.1112090  79.0882080 150.8566211 102.0574698  79.9610931
 146.8078490 101.2320685  78.9080456 147.6731487 101.0363493  78.5486346
 146.8755999 101.0031037  79.8349813 151.2375650 106.6413003  72.2697257
 150.9325785 106.9559152  73.1207401 152.1906092 106.7194423  72.3124590
 149.6822082 112.8003226  73.9190211 149.1543443 112.0655986  73.6063449
 149.1809584 113.5777903  73.6730180 154.6614928 110.9952247  79.0357258
 154.0038602 111.6851508  79.1237386 155.4655327 111.3848679  79.3791244
 144.4140809 103.4622893  76.2796823 144.9884561 103.2398074  75.5470016
 145.0011792 103.5311587  77.0325424 153.4720386 109.3496620  77.0861199
 153.9852268 109.9826611  77.5882909 154.1221610 108.7497815  76.7204559
 144.7410396 105.4927354  70.2992708 143.9047709 105.8302040  70.6201983
 144.6015166 105.3576333  69.3619845 146.7163477 100.3364142  75.0071892
 146.0627889 100.0213159  74.3828507 146.6743951  99.7139882  75.7331715
 147.8274682 110.6183437  66.9225184 146.9201743 110.3872690  67.1216333
 148.3245714 109.8221056  67.1099166 150.7342761 119.3280944  69.8421871
 150.0604459 119.6312641  70.4506828 151.1208583 120.1310024  69.4927328
 149.9501217 106.8246075  79.3319540 149.0323779 107.0461022  79.1741228
 150.3661361 106.8992386  78.4731247 150.7336265 108.2237491  74.4622220
 151.4808084 108.7358888  74.1529342 151.0027855 107.9021544  75.3226614
 149.0062915 110.7196032  71.4449175 148.0974134 110.4355064  71.5421644
 149.0357999 111.1395110  70.5852481 154.2382183 114.3302621  75.2140342
 153.7844510 113.4893531  75.2705533 153.6076149 114.9664019  75.5515122
 153.1815102 105.2594607  76.4441010 152.4437859 104.7471993  76.7751252
 153.4341876 104.8194989  75.6324286 152.6815122 116.1679118  76.1490160
 152.9738096 116.7284175  75.4302526 153.1913742 116.4607679  76.9043319
 153.2826729  98.0370859  77.0382779 153.5885606  97.1768222  76.7508694
 154.0079334  98.6288479  76.8381773 139.5751086 108.4401546  75.4264377
 139.3775485 107.8470906  74.7015443 139.0197750 108.1353756  76.1440316
 147.5547809 108.3324652  77.5458970 147.6096419 107.3798489  77.4701446
 146.7439011 108.4884091  78.0300268 148.7039003 112.2604775  68.7837253
 148.2658433 111.5440634  68.3242890 149.4449444 112.4880890  68.2222345
 145.4940169 106.9501712  75.3049349 144.6808035 107.2495882  75.7114541
 145.9899163 106.5557401  76.0223831 147.6448747 116.9459469  77.2383613
 147.6024926 117.1720315  76.3092145 148.5611446 116.7122843  77.3869415
 151.0914381 107.4143536  84.1364243 151.4463769 107.6415009  84.9958708
 151.7386512 107.7461913  83.5141498 144.9854244 104.5220067  80.9210584
 145.6253623 104.3808826  80.2233547 144.1531774 104.2354581  80.5449186
 145.7614548 113.8222498  77.0345576 146.5555146 113.3272818  76.8328151
 145.0506240 113.2940361  76.6713282 150.5809392 116.2040593  81.3857944
 150.6346415 116.7731530  82.1535660 149.7124174 116.3742478  81.0211981
 142.0697311 107.9665580  73.1105329 141.1394899 107.9050035  73.3275291
 142.1654783 107.4441532  72.3141970 141.9882860 104.4920392  75.6983571
 142.2489678 105.4065726  75.5892731 142.8100033 104.0244835  75.8480183
 143.4607786 105.9058150  82.8682395 144.1330839 105.6975512  82.2195044
 142.6337572 105.7080236  82.4287627 149.3633358 102.5320090  84.8848056
 148.7161273 103.2310040  84.7912532 150.1334373 102.9656234  85.2524304
 152.7712156 112.7968943  87.9598609 152.6197662 112.5679494  87.0428693
 152.7616835 113.7539544  87.9729954 149.5397492 110.3700855  82.9444876
 150.4689552 110.5212015  82.7713843 149.1188522 110.4584876  82.0893522
 148.3385824 114.3951520  80.7143413 148.1996909 114.0270304  81.5869351
 147.5500420 114.9099159  80.5427371 148.9333976 119.4960616  72.0568950
 149.1085731 119.0248659  72.8714572 148.2466764 120.1226382  72.2850211
 149.8891039 113.7733122  78.1032251 149.5540872 113.7333892  78.9989901
 149.3894985 113.1077838  77.6302661 143.8635283 109.1800753  83.6284832
 143.7255081 108.4480991  84.2296371 144.7740206 109.0909653  83.3469020
 152.8250231 111.1189157  68.3769311 152.2079401 110.3935985  68.2802363
 152.3566719 111.8798517  68.0336385 146.4917584 108.8920712  83.1168512
 147.2017202 108.2513904  83.0755130 146.4486892 109.1433607  84.0394693
 154.4804362 115.8288065  86.0375091 154.4216908 115.1447285  85.3705674
 154.8823881 116.5707055  85.5855717 145.2046518 105.8785930  84.9364151
 144.6683875 105.4276668  85.5885748 144.6163226 106.0131839  84.1934616
 143.4995061 122.6449979  78.8308810 143.7391659 123.2768503  79.5087829
 142.6564258 122.2938019  79.1174169 144.6148776 105.3374581  67.4990615
 143.7378243 105.2163382  67.1352862 145.0906530 104.5460659  67.2469504
 154.4821770 113.7927649  84.2689071 153.5948548 113.4553571  84.3915470
 155.0520321 113.0610680  84.5057836 136.1350917 110.1251741  77.5932122
 136.8221956 109.8113471  77.0053137 135.9799045 111.0293106  77.3199374
 140.9385639 105.0141937  82.0217146 140.8543827 104.4067607  81.2867556
 140.1168345 105.5050956  82.0226642 148.0122923 118.4529101  81.2350314
 147.9393094 119.2584073  81.7469619 147.5700316 118.6521067  80.4098335
 147.8012703 117.6900872  74.7453135 147.0180224 118.2322552  74.8391360
 148.5005448 118.2074851  75.1447377 151.1109353 103.4995501  77.3887341
 151.6078052 102.7465463  77.0688411 150.3396334 103.5359818  76.8230550
 150.4721606 118.3515936  83.3908473 151.1849579 118.9863400  83.3184374
 149.9811635 118.4479801  82.5748474 152.1939133 112.2567188  74.9625764
 151.2595412 112.3768651  74.7930469 152.3715802 111.3539655  74.6985774
 147.6944321 105.6412884  77.1159025 147.3242109 105.0883924  77.8039931
 148.1903414 105.0371017  76.5634026 155.5811685 108.0984507  75.4975798
 156.0472137 108.9312499  75.4236101 156.0319185 107.6329489  76.2021057
 145.5233520 116.1010379  84.2114043 146.2242979 116.7346862  84.3643438
 145.0528635 116.4425111  83.4509683 153.6487916 114.4428329  72.4961950
 153.9247760 114.3284923  73.4055825 152.7792415 114.0445814  72.4574124
 153.5528347 100.4665094  79.5366700 152.6391427 100.6969321  79.7048907
 153.9821449 100.5503539  80.3880732 153.3234806 108.6554986  82.0366594
 152.6706256 108.9030894  81.3819047 153.7015186 107.8419125  81.7029071
 150.2841980 118.6914680  76.1394764 150.4664374 117.8736336  76.6022516
 151.1074966 118.9082372  75.7019654 150.6184145 117.6182865  73.4009813
 151.1471912 117.1075319  72.7879975 150.8812365 117.3025395  74.2655346
 149.3722379 109.3974797  88.5232631 148.6963016 109.2968927  89.1935006
 150.1950013 109.2414011  88.9868628 141.1201238 115.6346734  81.1445146
 141.7054675 114.8890422  81.2773050 140.9226076 115.9450691  82.0281810
 143.9739893 118.6697981  76.1607588 143.3050268 119.1544109  75.6771629
 143.8352763 118.9167202  77.0750967 135.7118893 108.2052334  79.8649589
 135.7502992 107.6715925  80.6586707 135.2059186 107.6787540  79.2460566
 148.1145162 120.7041725  82.7590247 148.6663470 120.8673346  83.5239332
 148.4551355 121.2946163  82.0870272 143.0909655 103.0516875  83.3612132
 143.1550982 103.9131706  82.9489529 143.0276775 102.4390876  82.6284490
 142.5661928 105.1240007  87.0085166 143.1933966 104.7417085  87.6222690
 141.7089846 104.9054209  87.3740858 152.9656036 115.5302982  88.6138901
 153.5095940 116.1432941  88.1193856 152.3842881 116.0882561  89.1305914
 139.3427470 106.9316436  72.9403521 139.6380911 106.0227115  72.8870574
 138.4415506 106.9104176  72.6184523 151.2513549 118.6523700  79.7453929
 151.1264689 117.8513440  79.2364875 151.9092640 119.1469894  79.2567899
 142.8721717 105.0072433  78.9231069 142.1508303 105.6208401  78.7838543
 143.6614973 105.5430198  78.8447715 153.3148457 116.4532721  81.3733479
 152.3678793 116.3338072  81.3011806 153.6631231 115.5655219  81.4559741
 145.6748031 102.3426859  85.1971721 146.1982433 102.5889156  85.9598030
 145.4560364 103.1746894  84.7774858 141.0715312 104.6130534  73.0642846
 140.7428018 103.7327913  72.8817952 141.4254683 104.5578203  73.9519235
 150.3194891 116.2485437  77.5737831 150.1719853 115.3202144  77.7545401
 151.1448384 116.2705527  77.0894907 144.1857135 104.9003504  73.4318323
 144.5253208 105.4289425  72.7096932 144.6329256 105.2383910  74.2076890
 153.9229013 117.0713995  78.6602704 154.8475560 116.8656857  78.5227155
 153.7544316 116.8230397  79.5692046 146.8800576 103.2840555  82.8821392
 146.5397396 102.4848368  83.2842071 146.1739582 103.5842265  82.3098225
 147.5317048 100.3689867  81.3348715 148.3543117  99.8950345  81.2127605
 147.7755111 101.1480351  81.8347401 146.1725282 103.3978125  71.6311616
 146.8933645 103.7759378  71.1275333 145.5490586 104.1167002  71.7346594
 150.3156405 104.1023274  72.5669949 150.5320019 104.9847912  72.2658777
 149.8350472 103.7109488  71.8375591 145.0555626 107.0608988  79.1440693
 144.9100207 107.3749291  80.0364975 144.5780830 107.6793888  78.5911592
 146.9152009 104.0511536  79.1921583 146.9013578 103.1552629  78.8553881
 147.6324437 104.0582199  79.8259869 148.7678140 104.4848876  81.2374710
 148.5095918 105.4065946  81.2359041 148.2363180 104.0879310  81.9275174
 153.7124329 117.5899663  74.0164796 153.8861206 117.0246085  73.2638648
 154.2053220 118.3900558  73.8344285 139.5301289 109.6014332  82.0828354
 138.9854757 110.3774140  82.2148629 140.4080638 109.9485136  81.9247476
 146.3188905 102.9325916  74.4609153 146.4404816 102.0042562  74.6600040
 146.0290948 102.9464602  73.5487468 149.1880096 100.6180826  77.5975873
 149.2101792 100.6820159  76.6427852 149.6048155  99.7785335  77.7916379
 154.6999501 116.9066427  71.1161694 155.3950406 117.5273120  71.3349008
 155.0422651 116.0561779  71.3914072 140.3167310 108.7284228  84.9758511
 139.5749047 108.8766864  85.5623142 139.9960055 108.9892494  84.1125261
 148.2610973 118.2700207  84.7738901 148.5698100 118.0249353  85.6461601
 149.0586455 118.4746845  84.2857771 148.2831585 120.4238116  77.0044278
 147.8436575 119.9314495  77.6977134 149.0339702 119.8811084  76.7636353
 140.7623924 116.6149657  77.0068906 141.5881944 116.3153429  76.6267549
 140.4117976 115.8457279  77.4558695 145.7305457 115.9676125  79.0766579
 145.1085467 115.3046830  78.7768807 146.4010324 115.9937257  78.3940227
 138.9632529 114.5335983  77.9657839 138.1264438 114.1058158  77.7841841
 138.9356175 114.7268427  78.9028631 145.8029985 104.4457913  88.6699085
 145.8518140 105.3220036  88.2876855 146.3452499 103.9035306  88.0970729
 156.2884831 114.9899037  87.9500223 155.4980374 114.9723175  87.4104722
 156.0518185 115.5287330  88.7049259 156.4082706 111.8391503  85.2632951
 156.4580710 111.6741510  86.2048474 156.2996629 110.9718762  84.8730832
 145.2918964 114.5180049  72.5525040 145.4407085 115.2015513  71.8991713
 146.0985408 114.4985139  73.0674496 153.6986468 107.8222431  86.5792258
 154.5996331 107.6828896  86.2876256 153.7734442 107.9876886  87.5190435
 148.0329273 105.1989286  85.4245444 147.1632583 105.4922852  85.1528033
 148.2688754 105.7829731  86.1452708 156.1588091 109.3821059  83.9755031
 156.6342212 109.5748705  83.1673882 155.2353656 109.4380245  83.7298414
 143.0471597 110.5445226  73.5586109 142.8017639 109.6407556  73.7566319
 143.2167512 110.5462377  72.6165587 150.7368307 101.4168903  82.9410865
 151.2550251 102.1529930  82.6157353 150.3823440 101.7232896  83.7757624
 142.3167245 106.2773584  71.0572270 141.6236490 106.3517939  70.4012306
 142.0718997 105.5133927  71.5793787 150.9880901  97.8369185  78.4611761
 151.2682655  97.1692374  79.0872188 151.7731508  98.0298281  77.9486425
 148.7914370 117.0128179  70.0236787 148.2188337 117.6318366  69.5707259
 149.3647163 117.5627541  70.5576709 154.8589760 106.2586819  82.2083336
 155.8107183 106.3584917  82.2295560 154.6893210 105.4665088  82.7181421
 152.8804139 103.3442402  82.3942737 152.2854071 103.6247415  81.6989226
 152.5953836 103.8336303  83.1659478 152.0111630 117.2965329  71.1545370
 152.9442303 117.2310891  71.3578245 151.9234842 118.1321596  70.6959902
 154.6399646 116.6131200  68.1149317 154.5613278 116.2791063  69.0085075
 155.4609313 117.1052967  68.1140790 149.1761168 108.3488992  67.3652840
 150.1220273 108.2195200  67.4341258 148.7975413 107.6103654  67.8422268
 155.1483053 100.0144998  77.3279732 154.9507874  99.7060086  78.2123064
 155.7582758 100.7406637  77.4577662 149.0599861 112.4006738  88.8253497
 149.9802870 112.5785337  89.0193543 149.0249444 111.4562783  88.6733196
 147.3604085 106.2738968  67.3007725 146.4535541 105.9772081  67.3770439
 147.6380066 105.9768786  66.4342011 138.2782026 107.5945332  77.7506772
 137.9584810 106.7410640  77.4581146 137.7315454 107.8093910  78.5064739
 142.0561933 110.3107773  81.4676278 142.2747943 111.2424880  81.4864312
 142.4687707 109.9515747  82.2531082 148.9766151 100.8175858  73.4551966
 148.1666879 100.4722943  73.8307213 149.6650568 100.5083402  74.0439578
 150.9056699  99.8953905  75.0776263 151.4587738 100.3149358  75.7366286
 151.1426786  98.9689653  75.1199219 146.9289799 105.8840978  90.8579027
 146.8286526 106.8335335  90.7891118 146.7111341 105.5559217  89.9855097
 146.1302870 103.1325903  67.4419704 146.9922034 103.4580802  67.7015522
 146.3153214 102.3457399  66.9292770 138.1470286 111.2148243  79.7199893
 137.4533757 110.8002196  79.2069848 138.8943277 111.2568780  79.1233312
 154.2835507 102.0054430  74.5854927 153.7034176 102.6639234  74.2032980
 154.0171439 101.1831774  74.1742345 152.7339073 101.4059488  76.7876248
 153.2338851 101.5176022  75.9790567 153.3774681 101.1020540  77.4277056
 146.7921069 109.3138117  89.6744089 146.3088150 110.1138477  89.8807978
 146.8782008 109.3246062  88.7211533 140.0607028 111.1466497  77.5965908
 140.0377716 111.2454184  76.6447791 140.3707665 111.9931648  77.9183074
 142.7194406 113.2042652  81.7112522 143.6737660 113.1726594  81.6442454
 142.5206930 112.7433276  82.5262748 143.3093788 111.7743768  84.2783320
 144.1286677 112.2687847  84.3018157 143.5830596 110.8575736  84.2500888
 153.0660385 104.1654520  73.6411276 152.1786240 104.4504171  73.4231470
 153.4814374 104.0048284  72.7938552 141.0744635 118.7462271  78.7282720
 140.9399103 117.9862672  78.1620718 140.6576697 119.4703171  78.2611509
 152.2103598 113.9299195  67.7359296 152.9139448 114.1349197  68.3516951
 151.4866247 114.4975957  68.0008379 153.0401408 109.6809056  73.8561566
 152.9836610 110.1377608  73.0169198 153.5929751 108.9199741  73.6784409
 144.2313761 119.6431588  78.9401163 144.1146145 120.5877021  78.8379853
 143.4106207 119.3405150  79.3286962 154.1190295 114.3681724  69.7857756
 154.9535899 113.9362923  69.6035230 153.9574638 114.1963738  70.7134650
 153.7736188 110.8713837  71.1514095 153.7184991 110.7058109  70.2102539
 153.1482243 111.5789870  71.3076285 138.5628703 106.1081902  84.9775517
 139.2087566 105.5980856  85.4662742 138.3545854 106.8450583  85.5518942
 151.0882095 113.1762749  90.4767658 151.9573254 113.3503402  90.1154293
 150.6088846 113.9957166  90.3543387 147.0832313 100.3721946  70.7299413
 147.0710983 101.3163786  70.8867684 147.9755735 100.1892092  70.4358875
 145.2568275 120.2959850  82.1557091 146.1595522 120.3283461  82.4723586
 145.0305645 119.3660301  82.1703427 147.0121877 119.0490837  78.8167170
 146.0617508 119.0492698  78.7031542 147.3154363 118.3023571  78.3003205
 150.8984433  96.9664723  74.9845350 150.1316828  96.4123210  75.1302032
 151.3095137  97.0386592  75.8459502 142.9026194 103.2549519  89.0750531
 143.7657655 102.8986324  89.2853856 142.3291604 102.9163414  89.7625936
 155.4151092 126.6914280  75.8071348 154.8515958 126.6004217  75.0387636
 155.3003488 125.8714184  76.2873841 152.9615524 128.1865471  78.6455568
 153.7536816 127.8456296  78.2301868 153.2012175 128.2960446  79.5657722
 154.9206278 127.4474385  71.5172947 155.6937154 126.9003372  71.3785823
 155.2731677 128.3118634  71.7287409 155.1693687 124.9125979  77.7526345
 154.2444184 124.7802193  77.9604036 155.4178101 125.6920198  78.2496287
 152.5302499 124.5559253  78.5870134 152.6594880 124.8093732  79.5009545
 151.8499950 125.1486961  78.2674789 155.6901785 127.1946042  79.4594241
 156.2603142 127.6233311  78.8211725 156.2809897 126.9128627  80.1578426
 156.1826952 122.3609470  87.7055252 155.5525612 123.0425751  87.9390649
 156.0763040 122.2492551  86.7608390 151.4771924 122.0281266  78.6321176
 150.6870978 122.2838794  78.1561287 151.9683171 122.8429604  78.7373217
 153.4286669 122.3925845  75.5904653 152.6317833 122.5044539  76.1088148
 153.2012262 122.7312497  74.7245543 149.7609627 122.2811756  81.0636167
 150.0117665 123.1658766  81.3293743 150.2969175 122.1016358  80.2911259
 155.4607694 116.6630236  90.0680503 155.0674640 116.1096434  90.7428147
 156.2773835 116.9740814  90.4587020 152.4269752 128.1014094  73.9794073
 152.9394273 128.8957344  74.1299637 153.0792465 127.4040384  73.9127674
 154.2364637 131.2179850  76.0616826 154.4131265 132.1397815  75.8737810
 155.0321470 130.9038269  76.4911206 153.5216993 123.2644482  85.9378989
 153.4070508 122.3629739  86.2386088 152.6661511 123.5108179  85.5863806
 155.3595952 132.7358024  82.0627168 155.9103377 132.6075087  81.2904162
 154.5207428 133.0352913  81.7122061 150.3918669 126.4302748  74.7553643
 151.2293891 126.8399756  74.5387351 150.5696937 125.4902190  74.7253837
 155.2534564 118.7914810  76.2796823 155.8278316 118.5689992  75.5470016
 155.8405546 118.8603505  77.0325424 155.5804151 120.8219271  70.2992708
 154.7441463 121.1593958  70.6201983 155.4408920 120.6868251  69.3619845
 150.4144840 123.7693463  75.4264377 150.2169240 123.1762824  74.7015443
 149.8591504 123.4645674  76.1440316 155.8247998 119.8511985  80.9210584
 156.4647378 119.7100744  80.2233547 154.9925529 119.5646498  80.5449186
 152.9091066 123.2957497  73.1105329 151.9788654 123.2341953  73.3275291
 153.0048538 122.7733450  72.3141970 152.8276615 119.8212310  75.6983571
 153.0883432 120.7357643  75.5892731 153.6493787 119.3536753  75.8480183
 154.3001540 121.2350067  82.8682395 154.9724594 121.0267429  82.2195044
 153.4731327 121.0372153  82.4287627 154.7029037 124.5092670  83.6284832
 154.5648835 123.7772909  84.2296371 155.6133961 124.4201570  83.3469020
 156.0440272 121.2077847  84.9364151 155.5077629 120.7568586  85.5885748
 155.4556980 121.3423756  84.1934616 155.4542531 120.6666499  67.4990615
 154.5771997 120.5455300  67.1352862 155.9300284 119.8752577  67.2469504
 146.9744671 125.4543659  77.5932122 147.6615711 125.1405389  77.0053137
 146.8192800 126.3585023  77.3199374 151.7779393 120.3433855  82.0217146
 151.6937582 119.7359525  81.2867556 150.9562100 120.8342873  82.0226642
 151.9594992 130.9638652  81.1445146 152.5448429 130.2182340  81.2773050
 151.7619831 131.2742608  82.0281810 154.8133648 133.9989899  76.1607588
 154.1444023 134.4836027  75.6771629 154.6746517 134.2459120  77.0750967
 146.5512647 123.5344252  79.8649589 146.5896747 123.0007843  80.6586707
 146.0452940 123.0079457  79.2460566 153.9303410 118.3808792  83.3612132
 153.9944736 119.2423623  82.9489529 153.8670530 117.7682794  82.6284490
 153.4055682 120.4531925  87.0085166 154.0327721 120.0709002  87.6222690
 152.5483601 120.2346127  87.3740858 150.1821225 122.2608354  72.9403521
 150.4774666 121.3519032  72.8870574 149.2809261 122.2396094  72.6184523
 153.7115472 120.3364351  78.9231069 152.9902058 120.9500318  78.7838543
 154.5008728 120.8722115  78.8447715 151.9109066 119.9422452  73.0642846
 151.5821773 119.0619831  72.8817952 152.2648437 119.8870120  73.9519235
 155.0250890 120.2295422  73.4318323 155.3646962 120.7581343  72.7096932
 155.4723010 120.5675828  74.2076890 155.8949381 122.3900905  79.1440693
 155.7493962 122.7041208  80.0364975 155.4174585 123.0085806  78.5911592
 150.3695043 124.9306250  82.0828354 149.8248511 125.7066058  82.2148629
 151.2474393 125.2777054  81.9247476 151.1561065 124.0576146  84.9758511
 150.4142801 124.2058781  85.5623142 150.8353809 124.3184412  84.1125261
 151.6017679 131.9441575  77.0068906 152.4275699 131.6445347  76.6267549
 151.2511731 131.1749197  77.4558695 149.8026284 129.8627901  77.9657839
 148.9658192 129.4350076  77.7841841 149.7749929 130.0560344  78.9028631
 153.8865352 125.8737144  73.5586109 153.6411394 124.9699474  73.7566319
 154.0561266 125.8754294  72.6165587 153.1560999 121.6065501  71.0572270
 152.4630244 121.6809856  70.4012306 152.9112751 120.8425845  71.5793787
 149.1175780 122.9237249  77.7506772 148.7978565 122.0702557  77.4581146
 148.5709208 123.1385827  78.5064739 152.8955688 125.6399690  81.4676278
 153.1141698 126.5716798  81.4864312 153.3081462 125.2807665  82.2531082
 148.9864040 126.5440161  79.7199893 148.2927512 126.1294114  79.2069848
 149.7337031 126.5860697  79.1233312 150.9000783 126.4758415  77.5965908
 150.8771471 126.5746102  76.6447791 151.2101419 127.3223565  77.9183074
 153.5588161 128.5334570  81.7112522 154.5131414 128.5018512  81.6442454
 153.3600684 128.0725193  82.5262748 154.1487543 127.1035686  84.2783320
 154.9680432 127.5979764  84.3018157 154.4224351 126.1867654  84.2500888
 151.9138389 134.0754189  78.7282720 151.7792857 133.3154590  78.1620718
 151.4970452 134.7995089  78.2611509 149.4022457 121.4373819  84.9775517
 150.0481321 120.9272773  85.4662742 149.1939608 122.1742501  85.5518942
 153.7419948 118.5841437  89.0750531 154.6051410 118.2278241  89.2853856
 153.1685359 118.2455331  89.7625936  67.6238781  -7.6531322  65.5554117
  67.8635379  -7.0212798  66.2333135  66.7807977  -8.0043282  65.8419476
  77.0859244  -2.1115830  65.3700875  77.8780536  -2.4525005  64.9547174
  77.3255894  -2.0020855  66.2903028  85.1194371   0.0603946  57.8431120
  84.4682351   0.6458027  57.4565133  85.9138734   0.5910141  57.9026157
  79.0449998  -2.8506917  58.2418254  79.8180874  -3.3977929  58.1031130
  79.3975397  -1.9862667  58.4532715  80.8835041  -1.5230534  71.4485153
  80.5924907  -0.6184903  71.3331820  81.5192025  -1.4814007  72.1629223
  80.8245706   4.9275202  61.4105915  80.7469735   5.8783027  61.4894395
  80.2207349   4.5821074  62.0680841  83.3836057  -1.3810753  70.2632474
  83.4480489  -0.9190346  71.0990646  82.6746981  -2.0113388  70.3914784
  83.0984075   0.2857355  60.1311454  82.9629749   1.1308890  60.5596302
  83.6393887   0.4876632  59.3677388  76.5513472  -2.1967207  60.7039379
  77.0637993  -1.4023957  60.8544944  77.2036185  -2.8940917  60.6372981
  78.3608357   0.9198549  62.7862133  78.5374985   1.8416514  62.5983116
  79.1565190   0.6056968  63.2156512  84.7252551   0.9080921  74.2611796
  84.2816405   0.1217300  73.9432701  85.3869765   1.0960072  73.5955687
  79.4839672   2.4376723  68.7872475  80.0347097   2.3093786  68.0149469
  78.6451148   2.7371612  68.4367368  86.8233789   1.1883721  72.2893198
  86.8052264   2.0092602  71.7973467  87.7453709   1.0637796  72.5143339
  74.5162389  -3.8678553  61.4798950  75.3537611  -3.4581545  61.2632658
  74.6940656  -4.8079111  61.4499144  85.6980235   4.3591560  56.5667177
  85.0241934   4.6623257  57.1752135  86.0846057   5.1620641  56.2172634
  87.6452596   1.1989734  62.8735467  87.9375571   1.7594791  62.1547833
  88.1551217   1.4918295  63.6288626  82.6086221   1.9770085  63.9628920
  82.5662400   2.2030932  63.0337452  83.5248920   1.7433460  64.1114721
  80.7252022  -1.1466886  63.7590883  81.5192621  -1.6416566  63.5573458
  80.0143714  -1.6749023  63.3958588  85.5446867   1.2351210  68.1103250
  85.5983889   1.8042146  68.8780966  84.6761648   1.4053095  67.7457288
  83.3023298  -0.5737864  67.4388720  83.1634384  -0.9419079  68.3114658
  82.5137894  -0.0590224  67.2672678  83.8971450   4.5271233  58.7814256
  84.0723206   4.0559276  59.5959879  83.2104238   5.1536999  59.0095517
  89.4441837   0.8598682  72.7620398  89.3854383   0.1757902  72.0950981
  89.8461355   1.6017672  72.3101024  78.4632535   7.6760596  65.5554117
  78.7029134   8.3079120  66.2333135  77.6201732   7.3248636  65.8419476
  71.0988391  -4.8437643  64.3177429  71.7859431  -5.1575913  63.7298444
  70.9436520  -3.9396278  64.0444680  82.9760397   3.4839718  67.9595621
  82.9030569   4.2894690  68.4714925  82.5337790   3.6831684  67.1343642
  82.7650177   2.7211488  61.4698442  81.9817699   3.2633168  61.5636667
  83.4642922   3.2385468  61.8692683  85.4359081   3.3826552  70.1153779
  86.1487053   4.0174017  70.0429681  84.9449109   3.4790418  69.2993781
  80.4870994   1.1320996  70.9359350  81.1880454   1.7657478  71.0888744
  80.0166109   1.4735727  70.1754989  85.2479454   3.7225296  62.8640071
  85.4301849   2.9046952  63.3267823  86.0712440   3.9392988  62.4264961
  85.5821620   2.6493481  60.1255119  86.1109386   2.1385936  59.5125281
  85.8449839   2.3336011  60.9900652  76.0838712   0.6657351  67.8690453
  76.6692149  -0.0798962  68.0018357  75.8863551   0.9761307  68.7527117
  78.9377368   3.7008598  62.8852895  78.2687743   4.1854726  62.4016935
  78.7990237   3.9477818  63.7996274  83.0782636   5.7352341  69.4835554
  83.6300944   5.8983963  70.2484639  83.4188830   6.3256779  68.8115578
  87.9293510   0.5613599  75.3384208  88.4733414   1.1743557  74.8439163
  87.3480355   1.1193177  75.8551221  86.2151023   3.6834317  66.4699236
  86.0902163   2.8824057  65.9610181  86.8730115   4.1780510  65.9813206
  88.2785932   1.4843337  68.0978786  87.3316267   1.3648688  68.0257112
  88.6268705   0.5965835  68.1805047  85.2832365   1.2796053  64.2983138
  85.1357328   0.3512761  64.4790708  86.1085859   1.3016144  63.8140213
  88.8866487   2.1024612  65.3848011  89.8113034   1.8967473  65.2472462
  88.7181790   1.8541013  66.2937352  88.6761803   2.6210279  60.7410102
  88.8498681   2.0556702  59.9883955  89.1690694   3.4211174  60.5589592
  89.6636976   1.9377044  57.8407000  90.3587880   2.5583737  58.0594315
  90.0060126   1.0872395  58.1159378  83.2248447   3.3010823  71.4984208
  83.5335574   3.0559970  72.3706907  84.0223929   3.5057462  71.0103078
  83.2469060   5.4548733  63.7289584  82.8074050   4.9625111  64.4222441
  83.9977176   4.9121700  63.4881660  75.7261398   1.6460274  63.7314212
  76.5519418   1.3464045  63.3512856  75.3755450   0.8767896  64.1804001
  80.6942932   0.9986742  65.8011886  80.0722941   0.3357447  65.5014114
  81.3647799   1.0247874  65.1185534  73.9270004  -0.4353400  64.6903146
  73.0901912  -0.8631226  64.5087147  73.8993649  -0.2420957  65.6273937
  80.2556439  -0.4509335  59.2770347  80.4044559   0.2326130  58.6237019
  81.0622882  -0.4704245  59.7919802  83.7551844   2.0438796  56.7482094
  83.1825811   2.6628983  56.2952566  84.3284638   2.5938157  57.2822016
  86.9749104   2.3275946  57.8790676  87.9079777   2.2621507  58.0823552
  86.8872317   3.1632213  57.4205209  89.6037121   1.6441816  54.8394624
  89.5250752   1.3101680  55.7330382  90.4246787   2.1363584  54.8386096
  73.1107760  -3.7541140  66.4445200  72.4171232  -4.1687188  65.9315154
  73.8580751  -3.7120604  65.8478619  75.0244503  -3.8222887  64.3211215
  75.0015191  -3.7235199  63.3693098  75.3345139  -2.9757736  64.6428381
  77.6831881  -1.7646732  68.4357829  78.6375134  -1.7962789  68.3687761
  77.4844404  -2.2256108  69.2508055  76.0382109   3.7772888  65.4528027
  75.9036577   3.0173289  64.8866025  75.6214172   4.5013788  64.9856816
  79.1951235   4.6742205  65.6646470  79.0783619   5.6187637  65.5625160
  78.3743681   4.3715766  66.0532269  80.2205749   5.3270467  68.8802398
  81.1232996   5.3594077  69.1968893  79.9943119   4.3970918  68.8948734
  81.9759351   4.0801453  65.5412477  81.0254982   4.0803315  65.4276849
  82.2791837   3.3334188  65.0248511  97.7112045   9.9161992  66.6058239
  98.3490455   9.7968739  65.9021579  97.5932888  10.8642836  66.6646191
  94.5201751   9.8689420  66.5419764  94.1820263   9.7530485  65.6540299
  95.3891519   9.4680585  66.5220770  90.3788567  11.7224896  62.5316655
  89.8153432  11.6314833  61.7632942  90.2640962  10.9024801  63.0119147
  95.0021534  11.0224272  72.5005969  94.9910175  10.6277070  71.6286473
  95.1642174  10.2890344  73.0939741  87.9252999  13.2176088  65.3700875
  88.7174291  12.8766913  64.9547174  88.1649649  13.3271063  66.2903028
  95.9588126  15.3895864  57.8431120  95.3076105  15.9749944  57.4565133
  96.7532488  15.9202059  57.9026157  89.8843753  12.4785001  58.2418254
  90.6574629  11.9313988  58.1031130  90.2369152  13.3429250  58.4532715
  91.7228795  13.8061383  71.4485153  91.4318661  14.7107014  71.3331820
  92.3585780  13.8477911  72.1629223  92.6485002  11.1838232  68.0386513
  93.2448574  10.9594254  67.3243476  92.7059974  10.4422977  68.6411961
  92.2210030   8.6377667  55.8736704  92.4735551   8.1159189  55.1120167
  91.2834590   8.4743813  55.9763387  97.2653313   7.6413446  63.6811447
  98.0516403   7.2232869  63.3301864  97.5292018   8.5459538  63.8493095
  97.4363391  13.0786296  58.3800104  96.8009224  13.1520922  59.0921009
  97.1060797  13.6679895  57.7019183 102.6661740   7.5788679  64.5844426
 103.3986912   7.0087896  64.8182255 101.9101096   7.1910279  65.0250931
  91.9406319  10.5405773  58.0761079  91.8242577   9.8650677  58.7442163
  92.0508579  10.0538147  57.2593232  94.2837860  10.0015920  61.7807768
  93.9196067   9.4746541  62.4920689  95.1404976   9.6114389  61.6074253
  93.9243347   5.0305820  56.7769117  94.0917749   5.8986056  57.1439588
  93.7340516   5.1933102  55.8530406  96.6818680  13.4922799  68.4434947
  96.3819403  14.3947838  68.3350754  96.3369740  13.2254982  69.2956100
  90.1331162   9.9436596  64.4771651  89.2081658   9.8112810  64.6849343
  90.3815575  10.7230815  64.9741594 100.0815824   6.0105339  66.1232384
  99.1732701   5.9420748  65.8291145 100.0303420   6.4877284  66.9514210
  93.9032568   7.4863477  57.7615783  93.7832193   7.9320528  58.6001264
  93.2085156   7.8348795  57.2029322  87.4939973   9.5869869  65.3115440
  87.6232354   9.8404348  66.2254852  86.8137424  10.1797577  64.9920095
  91.6639460  20.2567119  61.4105915  91.5863490  21.2074944  61.4894395
  91.0601104  19.9112992  62.0680841  94.1556690   7.4294985  74.0667282
  93.3790024   7.9888905  74.0570146  94.7947253   7.9151768  74.5882152
  99.6017634   7.9584951  58.5896117 100.5135490   8.1912337  58.4143815
  99.0927281   8.5421995  58.0271196  92.4103062  10.2380438  73.6285249
  93.1517747  10.7765482  73.3520072  91.7040048  10.8646727  73.7856800
  97.8858402  12.3809579  72.2257410  98.2941758  11.9391989  71.4812042
  97.1635663  11.8062206  72.4791603  94.2389472   7.3182185  69.5990967
  95.0850667   7.7421599  69.7425616  94.1788110   6.6615810  70.2929530
  98.2087216  12.9410769  65.9809699  97.5796079  13.1056483  65.2785767
  97.8212879  13.3552379  66.7520663 102.0876448  13.8765207  63.3354063
 101.4027487  14.2564108  62.7851096 102.1720298  14.4860534  64.0686010
  97.3888917   4.9786554  71.2572141  97.1449849   5.7328614  70.7206416
  97.6648848   5.3571901  72.0919388  99.3427380  11.5225166  69.9349406
  99.5544275  12.1656926  69.2583787  99.2957128  10.6887483  69.4671336
  96.9453609   4.1342987  66.8385978  96.0838088   4.4324240  67.1302716
  96.9716044   4.3513386  65.9067011  93.7615178  12.6785177  63.2459784
  94.2253524  12.9572880  62.4564406  93.4971976  11.7768622  63.0632875
  90.6539259  12.2256659  66.1839547  91.2240616  12.6543927  65.5457032
  91.2447371  11.9439243  66.8823733  92.6984064   8.8008330  60.0549349
  93.4008108   9.2529373  60.5223275  92.3664693   8.1592148  60.6829242
  91.1464426   7.3920086  74.4300558  90.5163087   8.0736367  74.6635955
  91.0400514   7.2803168  73.4853697  86.4409398   7.0591882  65.3566483
  85.6508452   7.3149411  64.8806593  86.9320646   7.8740220  65.4618523
 100.4573208  14.3997121  68.1071764 101.2790652  13.9977309  67.8254445
 100.4535611  14.2965356  69.0587879  88.3924144   7.4236461  62.3149959
  87.5955307   7.5355156  62.8333455  88.1649736   7.7623114  61.4490850
  94.2229811  13.9481165  70.2632474  94.2874244  14.4101572  71.0990646
  93.5140735  13.3178530  70.3914784  84.7247101   7.3122373  67.7881473
  84.9755140   8.1969383  68.0539049  85.2606650   7.1326974  67.0156565
 108.5479201  10.7435870  64.4556735 107.7942909  10.1743268  64.3000739
 108.6826742  10.7098534  65.4027370  93.9377829  15.6149272  60.1311454
  93.8023504  16.4600808  60.5596302  94.4787642  15.8168550  59.3677388
  90.4245169   1.6940852  76.7925810  90.0312114   1.1407051  77.4673454
  91.2411309   2.0051431  77.1832327  87.3907226  13.1324710  60.7039379
  87.9031747  13.9267960  60.8544944  88.0429939  12.4351001  60.6372981
  89.2002111  16.2490467  62.7862133  89.3768739  17.1708431  62.5983116
  89.9958945  15.9348886  63.2156512  93.3413130   3.1098731  74.3846066
  94.0822843   3.7105884  74.3050529  93.5731052   2.3676369  73.8264109
  88.4854468   8.2955098  72.6624296  88.3707983   7.3940356  72.9631395
  87.6298985   8.5418795  72.3109112  95.5646305  16.2372839  74.2611796
  95.1210160  15.4509217  73.9432701  96.2263519  16.4251989  73.5955687
  90.3233427  17.7668640  68.7872475  90.8740852  17.6385704  68.0149469
  89.4844902  18.0663529  68.4367368  97.6627543  16.5175639  72.2893198
  97.6446019  17.3384520  71.7973467  98.5847464  16.3929714  72.5143339
  94.1200598  14.0319768  73.1316706  94.6528934  13.2708056  72.9016014
  93.5914679  13.7393420  73.8740861  85.3556143  11.4613365  61.4798950
  86.1931365  11.8710373  61.2632658  85.5334411  10.5212807  61.4499144
  97.2520575   9.1288445  57.1682783  96.7367199   9.8993050  57.4071170
  96.9797884   8.4553581  57.7915844  94.8367686   3.9738146  62.2268021
  93.9809283   3.5844996  62.0473660  95.2494638   4.0530107  61.3667807
  92.6109719   1.5923219  65.6325763  93.4762716   1.3966028  65.2731652
  92.6787228   1.3633571  66.5595120 102.2254849  11.8820800  59.1035956
 101.4484292  11.5431959  58.6591118 102.9046330  11.8873423  58.4290921
  97.0406878   7.0015537  58.9942564  96.7357014   7.3161686  59.8452707
  97.9937321   7.0796957  59.0369897  95.4853310  13.1605761  60.6435518
  94.9574672  12.4258520  60.3308756  94.9840813  13.9380437  60.3975486
 100.4646156  11.3554781  65.7602564  99.8069831  12.0454042  65.8482693
 101.2686556  11.7451213  66.1036551  90.2172038   3.8225427  63.0042130
  90.7915790   3.6000608  62.2715323  90.8043020   3.8914121  63.7570731
  99.2751615   9.7099154  63.8106506  99.7883497  10.3429146  64.3128216
  99.9252839   9.1100349  63.4449866  90.5441625   5.8529888  57.0238015
  89.7078937   6.1904574  57.3447290  90.4046395   5.7178868  56.0865152
  93.6305911  10.9785971  53.6470491  92.7232972  10.7475224  53.8461640
  94.1276943  10.1823590  53.8344473  96.5373989  19.6883478  56.5667177
  95.8635688  19.9915175  57.1752135  96.9239811  20.4912558  56.2172634
  95.7532446   7.1848609  66.0564847  94.8355007   7.4063556  65.8986535
  96.1692590   7.2594920  65.1976554  96.5367494   8.5840025  61.1867527
  97.2839313   9.0961422  60.8774649  96.8059083   8.2624078  62.0471920
  94.8094144  11.0798566  58.1694481  93.9005363  10.7957599  58.2666951
  94.8389228  11.4997644  57.3097788 100.0413411  14.6905155  61.9385649
  99.5875738  13.8496065  61.9950839  99.4107378  15.3266554  62.2760429
  98.9846331   5.6197141  63.1686316  98.2469088   5.1074527  63.4996559
  99.2373104   5.1797523  62.3569593  98.4846351  16.5281652  62.8735467
  98.7769325  17.0886709  62.1547833  98.9944971  16.8210213  63.6288626
  85.3782314   8.8004080  62.1509683  85.1806714   8.2073441  61.4260750
  84.8228978   8.4956290  62.8685622  93.3579038   8.6927186  64.2704277
  93.4127648   7.7401023  64.1946753  92.5470240   8.8486625  64.7545575
  94.5070232  12.6207309  55.5082560  94.0689662  11.9043168  55.0488197
  95.2480673  12.8483424  54.9467651  91.2971398   7.3104246  62.0294655
  90.4839263   7.6098417  62.4359848  91.7930392   6.9159935  62.7469138
  93.4479976  17.3062003  63.9628920  93.4056155  17.5322849  63.0337452
  94.3642675  17.0725378  64.1114721  96.8945610   7.7746071  70.8609549
  97.2494997   8.0017544  71.7204015  97.5417741   8.1064447  70.2386805
 102.6243347  10.8964506  61.5658878 102.4861245  11.0866102  60.6380068
 102.2679565  11.6583889  62.0226929  90.7885473   4.8822602  67.6455890
  91.4284852   4.7411361  66.9478854  89.9563003   4.5957115  67.2694492
 102.6512726  12.9641033  66.5770150 103.0849233  12.8716323  67.4253204
 103.3644307  12.9398534  65.9390166  91.5645777  14.1825032  63.7590883
  92.3586375  13.6875352  63.5573458  90.8537469  13.6542895  63.3958588
  96.3840621  16.5643128  68.1103250  96.4377643  17.1334064  68.8780966
  95.5155402  16.7345013  67.7457288  87.8728540   8.3268114  59.8350636
  86.9426128   8.2652569  60.0520598  87.9686012   7.8044067  59.0387277
  87.7914089   4.8522927  62.4228877  88.0520906   5.7668260  62.3138038
  88.6131261   4.3847369  62.5725490  89.2639014   6.2660684  69.5927702
  89.9362068   6.0578046  68.9440351  88.4368801   6.0682770  69.1532934
 103.5128276  13.0064734  69.1103035 103.7064166  13.9110545  69.3562310
 103.4128894  12.5472153  69.9441620  95.1664586   2.8922625  71.6093363
  94.5192501   3.5912574  71.5157839  95.9365602   3.3258769  71.9769611
  98.5743384  13.1571477  74.6843916  98.4228891  12.9282029  73.7674000
  98.5648064  14.1142078  74.6975261  95.3428721  10.7303390  69.6690182
  96.2720781  10.8814549  69.4959150  94.9219751  10.8187410  68.8138829
  94.1417053  14.7554054  67.4388720  94.0028138  14.3872838  68.3114658
  93.3531649  15.2701693  67.2672678  94.7365205  19.8563150  58.7814256
  94.9116960  19.3851194  59.5959879  94.0497993  20.4828917  59.0095517
  95.6922268  14.1335657  64.8277558  95.3572100  14.0936427  65.7235208
  95.1926213  13.4680373  64.3547968  89.6666512   9.5403287  70.3530139
  89.5286310   8.8083526  70.9541678  90.5771435   9.4512187  70.0714327
  98.6281459  11.4791691  55.1014617  98.0110630  10.7538519  55.0047670
  98.1597948  12.2401051  54.7581692  92.2948812   9.2523246  69.8413819
  93.0048431   8.6116438  69.8000437  92.2518121   9.5036141  70.7639999
 100.2835591  16.1890599  72.7620398 100.2248137  15.5049820  72.0950981
 100.6855109  16.9309589  72.3101024  91.0077746   6.2388464  71.6609458
  90.4715103   5.7879202  72.3131054  90.4194455   6.3734373  70.9179922
  89.3026290  23.0052513  65.5554117  89.5422888  23.6371037  66.2333135
  88.4595486  22.6540553  65.8419476  90.4180005   5.6977115  54.2235922
  89.5409472   5.5765916  53.8598168  90.8937758   4.9063194  53.9714810
 100.2852998  14.1530183  70.9934377  99.3979777  13.8156105  71.1160776
 100.8551549  13.4213215  71.2303143  81.9382145  10.4854275  64.3177429
  82.6253185  10.1716005  63.7298444  81.7830274  11.3895640  64.0444680
  86.7416868   5.3744472  68.7462452  86.6575056   4.7670141  68.0112862
  85.9199574   5.8653490  68.7471949  93.8154152  18.8131636  67.9595621
  93.7424323  19.6186607  68.4714925  93.3731545  19.0123602  67.1343642
  93.6043931  18.0503406  61.4698442  92.8211453  18.5925086  61.5636667
  94.3036676  18.5677385  61.8692683  96.9140581   3.8598035  64.1132648
  97.4109281   3.1067998  63.7933718  96.1427563   3.8962352  63.5475857
 104.7670339   9.5638401  65.7550939 104.7560215  10.4463116  65.3844872
 103.8987718   9.2109952  65.5605476  96.2752835  18.7118470  70.1153779
  96.9880807  19.3465935  70.0429681  95.7842864  18.8082336  69.2993781
  97.9970362  12.6169722  61.6871071  97.0626641  12.7371185  61.5175775
  98.1747031  11.7142189  61.4231081  93.4975550   6.0015418  63.8404332
  93.1273338   5.4486459  64.5285238  93.9934643   5.3973552  63.2879332
 101.3842913   8.4587042  62.2221105 101.8503366   9.2915033  62.1481408
 101.8350414   7.9932023  62.9266364  91.3264749  16.4612913  70.9359350
  92.0274208  17.0949396  71.0888744  90.8559864  16.8027645  70.1754989
  99.4519145  14.8030863  59.2207257  99.7278988  14.6887458  60.1301131
  98.5823643  14.4048348  59.1819430  99.1266035   9.0157521  68.7611900
  98.4737485   9.2633428  68.1064353  99.5046415   8.2021659  68.4274378
  96.0873209  19.0517214  62.8640071  96.2695603  18.2338870  63.3267823
  96.9106195  19.2684906  62.4264961  96.4215374  17.9785399  60.1255119
  96.9503141  17.4677854  59.5125281  96.6843594  17.6627929  60.9900652
  95.1753608   9.7577332  75.2477938  94.4994245   9.6571461  75.9180313
  95.9981242   9.6016545  75.7113935  86.9232467  15.9949268  67.8690453
  87.5085904  15.2492956  68.0018357  86.7257305  16.3053225  68.7527117
  89.7771122  19.0300516  62.8852895  89.1081497  19.5146643  62.4016935
  89.6383992  19.2769736  63.7996274  81.5150122   8.5654868  66.5894896
  81.5534221   8.0318459  67.3832014  81.0090414   8.0390074  65.9705873
  93.9176391  21.0644259  69.4835554  94.4694699  21.2275881  70.2484639
  94.2582584  21.6548697  68.8115578  88.8940884   3.4119409  70.0857438
  88.9582210   4.2734240  69.6734836  88.8308004   2.7993411  69.3529797
  88.3693156   5.4842541  73.7330472  88.9965195   5.1019619  74.3467997
  87.5121075   5.2656743  74.0986165  98.7687265  15.8905517  75.3384208
  99.3127169  16.5035475  74.8439163  98.1874110  16.4485095  75.8551221
  85.1458699   7.2918971  59.6648827  85.4412140   6.3829649  59.6115881
  84.2446735   7.2706710  59.3429830  97.0544778  19.0126235  66.4699236
  96.9295917  18.2115975  65.9610181  97.7123869  19.5072428  65.9813206
  88.6752946   5.3674967  65.6476376  87.9539532   5.9810935  65.5083849
  89.4646202   5.9032732  65.5693022  99.1179686  16.8135255  68.0978786
  98.1710022  16.6940606  68.0257112  99.4662459  15.9257753  68.1805047
  91.4779260   2.7029394  71.9217028  92.0013661   2.9491690  72.6843337
  91.2591593   3.5349428  71.5020165  86.8746541   4.9733068  59.7888152
  86.5459247   4.0930447  59.6063258  87.2285911   4.9180737  60.6764542
  96.1226120  16.6087971  64.2983138  95.9751082  15.6804678  64.4790708
  96.9479613  16.6308062  63.8140213  89.9888364   5.2606038  60.1563630
  90.3284436   5.7891959  59.4342238  90.4360484   5.5986444  60.9322197
  99.7260241  17.4316530  65.3848011 100.6506789  17.2259391  65.2472462
  99.5575545  17.1832931  66.2937352  92.6831805   3.6443089  69.6066698
  92.3428625   2.8450902  70.0087378  91.9770811   3.9444800  69.0343531
  91.9756511   3.7580660  58.3556923  92.6964874   4.1361912  57.8520640
  91.3521815   4.4769536  58.4591901  96.1187634   4.4625809  59.2915255
  96.3351248   5.3450446  58.9904083  95.6381701   4.0712022  58.5620897
  90.8586855   7.4211522  65.8686000  90.7131436   7.7351825  66.7610281
  90.3812059   8.0396422  65.3156898  92.7183238   4.4114070  65.9166889
  92.7044807   3.5155163  65.5799187  93.4355666   4.4184734  66.5505175
  94.5709369   4.8451410  67.9620017  94.3127147   5.7668481  67.9604347
  94.0394409   4.4481845  68.6520481  99.5155558  17.9502197  60.7410102
  99.6892435  17.3848620  59.9883955 100.0084449  18.7503092  60.5589592
  85.3332517   9.9616866  68.8073661  84.7885986  10.7376674  68.9393935
  86.2111867  10.3087671  68.6492782  92.1220134   3.2928450  61.1854460
  92.2436045   2.3645096  61.3845347  91.8322176   3.3067136  60.2732775
 105.3694949  10.7138620  62.3600402 105.8126095   9.9645945  61.9619525
 104.4921459  10.7048756  61.9774134 100.5030730  17.2668962  57.8407000
 101.1981635  17.8875654  58.0594315 100.8453880  16.4164313  58.1159378
  86.1198539   9.0886763  71.7003818  85.3780275   9.2369398  72.2868448
  85.7991284   9.3495028  70.8370567 102.4022153  14.7168667  59.3694331
 102.9273477  15.0555940  58.6443651 102.3144506  13.7815682  59.1857466
  94.0642202  18.6302741  71.4984208  94.3729328  18.3851888  72.3706907
  94.8617684  18.8349379  71.0103078  94.0862814  20.7840650  63.7289584
  93.6467804  20.2917029  64.4222441  94.8370931  20.2413618  63.4881660
  86.5655153  16.9752191  63.7314212  87.3913173  16.6755963  63.3512856
  86.2149205  16.2059814  64.1804001  91.5336686  16.3278659  65.8011886
  90.9116695  15.6649364  65.5014114  92.2041553  16.3539791  65.1185534
  84.7663758  14.8938518  64.6903146  83.9295666  14.4660692  64.5087147
  84.7387403  15.0870961  65.6273937  91.6061214   4.8060447  75.3944392
  91.6549369   5.6822570  75.0122162  92.1483728   4.2637841  74.8216035
 102.0916059  15.3501571  74.6745529 101.3011603  15.3325710  74.1350029
 101.8549414  15.8889864  75.4294566 102.2113934  12.1994037  71.9878258
 102.2611939  12.0344045  72.9293781 102.1027858  11.3321296  71.5976139
  91.0950193  14.8782583  59.2770347  91.2438313  15.5618047  58.6237019
  91.9016637  14.8587673  59.7919802  99.5017697   8.1824965  73.3037564
 100.4027560   8.0431430  73.0121562  99.5765671   8.3479420  74.2435742
  93.8360502   5.5591820  72.1490751  92.9663811   5.8525386  71.8773339
  94.0719982   6.1432265  72.8698014 103.7132131  14.6190979  72.2320279
 103.4216939  14.9820959  73.0683740 103.1004262  13.9057987  72.0533611
 104.9127814  12.1843858  64.7522849 105.7474705  12.6233662  64.9160410
 105.0486942  11.7082512  63.9331095 101.9619319   9.7423593  70.7000337
 102.4373441   9.9351240  69.8919189 101.0384885   9.7982779  70.4543721
  88.8502826  10.9047760  60.2831416  88.6048868  10.0010090  60.4811626
  89.0198741  10.9064911  59.3410894  88.1198474   6.6376118  57.7817577
  87.4267719   6.7120473  57.1257613  87.8750225   5.8736462  58.3039094
  94.5945599  17.3730713  56.7482094  94.0219566  17.9920900  56.2952566
  95.1678392  17.9230075  57.2822016 100.6620988   6.6189353  68.9328643
 101.6138411   6.7187451  68.9540867 100.4924439   5.8267622  69.4426727
  98.6835368   3.7044937  69.1188044  98.0885300   3.9849949  68.4234532
  98.3985065   4.1938837  69.8904785  97.8142858  17.6567863  57.8790676
  98.7473532  17.5913425  58.0823552  97.7266071  18.4924130  57.4205209
 100.4430875  16.9733734  54.8394624 100.3644507  16.6393597  55.7330382
 101.2640542  17.4655502  54.8386096 103.1409066   9.8395473  68.0470943
 103.1085386   8.9011474  68.2330626 103.7509690   9.9179510  67.3136767
  94.9792397   8.7091526  54.0898147  95.9251502   8.5797734  54.1586565
  94.6006642   7.9706188  54.5667575 103.2903555   6.6306516  68.0929226
 102.7742603   5.8464973  67.9059155 104.1743503   6.3025233  68.2575745
 108.9585616  10.9011480  67.1876979 109.6889005  10.6396768  67.7484683
 108.3492562  10.1640202  67.2279047 107.0400913   9.0419342  67.7851430
 106.3134077   8.9075307  67.1767922 106.6248200   9.3496171  68.5908149
  94.8631090  12.7609272  75.5498804  95.7834099  12.9387871  75.7438850
  94.8280673  11.8165317  75.3978503  93.1635314   6.6341502  54.0253032
  92.2566770   6.3374615  54.1015745  93.4411295   6.3371320  53.1587318
  84.0813255   7.9547866  64.4752078  83.7616039   7.1013174  64.1826452
  83.5346683   8.1696444  65.2310045  87.8593162  10.6710307  68.1921585
  88.0779172  11.6027415  68.2109618  88.2718936  10.3118281  68.9776389
  92.7321027   6.2443513  77.5824334  92.6317754   7.1937870  77.5136425
  92.5142570   5.9161751  76.7100404  91.9334099   3.4928438  54.1665011
  92.7953263   3.8183336  54.4260828  92.1184443   2.7059934  53.6538077
  83.9501515  11.5750777  66.4445200  83.2564986  11.1604730  65.9315154
  84.6974506  11.6171314  65.8478619  92.5952298   9.6740651  76.3989395
  92.1119379  10.4741012  76.6053284  92.6813237   9.6848596  75.4456839
  85.8638257  11.5069031  64.3211215  85.8408945  11.6056718  63.3693098
  86.1738894  12.3534182  64.6428381  88.5225635  13.5645186  68.4357829
  89.4768889  13.5329128  68.3687761  88.3238159  13.1035810  69.2508055
  89.1125017  12.1346302  71.0028627  89.9317906  12.6290381  71.0263464
  89.3861825  11.2178270  70.9746194  98.8691613   4.5257054  60.3656582
  97.9817468   4.8106705  60.1476777  99.2845602   4.3650818  59.5183859
 102.2206149   4.5503575  64.0810921 102.9966540   5.0400028  64.3535538
 101.4954284   4.9761630  64.5382791  86.8775864  19.1064806  65.4528027
  86.7430332  18.3465206  64.8866025  86.4607926  19.8305705  64.9856816
  98.0134827  14.2901729  54.4604602  98.7170677  14.4951732  55.0762258
  97.2897476  14.8578491  54.7253686  98.8432637  10.0411590  60.5806872
  98.7867838  10.4980142  59.7414505  99.3960980   9.2802275  60.4029715
 102.6537443   5.8301322  61.4056992 102.3974377   5.4297958  62.2365200
 102.0290311   6.5445116  61.2807131 106.9649781   8.5697395  63.9128283
 106.4049339   8.6390585  64.6859845 106.3593284   8.3938380  63.1927780
  90.0344990  20.0034123  65.6646470  89.9177374  20.9479555  65.5625160
  89.2137436  19.7007684  66.0532269  99.9221524  14.7284258  56.5103062
 100.7567128  14.2965457  56.3280537  99.7605867  14.5566272  57.4379957
  99.5767416  11.2316372  57.8759402  99.5216220  11.0660643  56.9347846
  98.9513472  11.9392405  58.0321591  84.3659931   6.4684436  71.7020824
  85.0118795   5.9583390  72.1908049  84.1577083   7.2053118  72.2764249
  96.8913324  13.5365283  77.2012964  97.7604483  13.7105936  76.8399599
  96.4120075  14.3559700  77.0788694  91.0599504  20.6562384  68.8802398
  91.9626751  20.6885995  69.1968893  90.8336874  19.7262835  68.8948734
  92.8153106  19.4093371  65.5412477  91.8648737  19.4095233  65.4276849
  93.1185592  18.6626106  65.0248511  88.7057422   3.6152053  75.7995838
  89.5688884   3.2588858  76.0099163  88.1322833   3.2765948  76.4871242
 108.5505799  25.2453909  66.6058239 109.1884209  25.1260657  65.9021579
 108.4326642  26.1934753  66.6646191 105.3595506  25.1981338  66.5419764
 105.0214017  25.0822402  65.6540299 106.2285274  24.7972503  66.5220770
 101.2182321  27.0516814  62.5316655 100.6547186  26.9606751  61.7632942
 101.1034716  26.2316718  63.0119147 105.8415289  26.3516189  72.5005969
 105.8303929  25.9568988  71.6286473 106.0035928  25.6182262  73.0939741
  98.7646753  28.5468006  65.3700875  99.5568045  28.2058830  64.9547174
  99.0043403  28.6562981  66.2903028 106.7981880  30.7187782  57.8431120
 106.1469860  31.3041862  57.4565133 107.5926243  31.2493977  57.9026157
 100.7237507  27.8076919  58.2418254 101.4968383  27.2605906  58.1031130
 101.0762906  28.6721168  58.4532715 102.5622550  29.1353301  71.4485153
 102.2712416  30.0398932  71.3331820 103.1979534  29.1769829  72.1629223
 103.4878757  26.5130150  68.0386513 104.0842329  26.2886172  67.3243476
 103.5453728  25.7714895  68.6411961 103.0603785  23.9669585  55.8736704
 103.3129306  23.4451106  55.1120167 102.1228344  23.8035730  55.9763387
 108.1047068  22.9705363  63.6811447 108.8910157  22.5524786  63.3301864
 108.3685772  23.8751455  63.8493095 108.2757145  28.4078214  58.3800104
 107.6402978  28.4812840  59.0921009 107.9454552  28.9971812  57.7019183
 113.5055495  22.9080596  64.5844426 114.2380667  22.3379813  64.8182255
 112.7494851  22.5202197  65.0250931 102.7800074  25.8697691  58.0761079
 102.6636332  25.1942594  58.7442163 102.8902334  25.3830065  57.2593232
 105.1231615  25.3307838  61.7807768 104.7589822  24.8038459  62.4920689
 105.9798731  24.9406307  61.6074253 111.0280915  16.6202171  69.0439034
 110.6964240  17.4897582  68.8200249 110.4326529  16.3038455  69.7233065
 104.7637102  20.3597738  56.7769117 104.9311504  21.2277974  57.1439588
 104.5734271  20.5225019  55.8530406 107.5212435  28.8214717  68.4434947
 107.2213158  29.7239755  68.3350754 107.1763494  28.5546900  69.2956100
 100.9724916  25.2728513  64.4771651 100.0475413  25.1404728  64.6849343
 101.2209329  26.0522733  64.9741594 110.9209579  21.3397257  66.1232384
 110.0126456  21.2712665  65.8291145 110.8697174  21.8169202  66.9514210
 104.7426323  22.8155395  57.7615783 104.6225948  23.2612446  58.6001264
 104.0478911  23.1640713  57.2029322  98.3333727  24.9161787  65.3115440
  98.4626108  25.1696266  66.2254852  97.6531179  25.5089495  64.9920095
 102.5033215  35.5859037  61.4105915 102.4257244  36.5366862  61.4894395
 101.8994858  35.2404909  62.0680841 104.9950444  22.7586902  74.0667282
 104.2183778  23.3180822  74.0570146 105.6341007  23.2443685  74.5882152
 112.7871225  19.5413695  67.9010258 112.1445605  19.8346228  67.2550053
 112.2826154  19.4266615  68.7063455 110.4411389  23.2876868  58.5896117
 111.3529245  23.5204255  58.4143815 109.9321036  23.8713913  58.0271196
 103.2496817  25.5672356  73.6285249 103.9911501  26.1057400  73.3520072
 102.5433802  26.1938644  73.7856800 108.7252156  27.7101496  72.2257410
 109.1335512  27.2683907  71.4812042 108.0029418  27.1354124  72.4791603
 105.0783226  22.6474103  69.5990967 105.9244422  23.0713517  69.7425616
 105.0181864  21.9907727  70.2929530 109.0480971  28.2702687  65.9809699
 108.4189833  28.4348401  65.2785767 108.6606633  28.6844296  66.7520663
 112.9270203  29.2057125  63.3354063 112.2421241  29.5856026  62.7851096
 113.0114052  29.8152451  64.0686010 108.2282672  20.3078471  71.2572141
 107.9843604  21.0620532  70.7206416 108.5042602  20.6863819  72.0919388
 110.1821134  26.8517084  69.9349406 110.3938030  27.4948844  69.2583787
 110.1350883  26.0179400  69.4671336 107.7847363  19.4634904  66.8385978
 106.9231842  19.7616158  67.1302716 107.8109798  19.6805303  65.9067011
 104.6008933  28.0077095  63.2459784 105.0647278  28.2864798  62.4564406
 104.3365731  27.1060539  63.0632875 101.4933014  27.5548576  66.1839547
 102.0634371  27.9835845  65.5457032 102.0841126  27.2731161  66.8823733
 103.5377819  24.1300247  60.0549349 104.2401862  24.5821291  60.5223275
 103.2058447  23.4884066  60.6829242 101.9858180  22.7212004  74.4300558
 101.3556841  23.4028285  74.6635955 101.8794268  22.6095085  73.4853697
  97.2803153  22.3883800  65.3566483  96.4902207  22.6441328  64.8806593
  97.7714400  23.2032138  65.4618523 111.2966962  29.7289039  68.1071764
 112.1184406  29.3269226  67.8254445 111.2929365  29.6257273  69.0587879
  99.2317898  22.7528379  62.3149959  98.4349062  22.8647073  62.8333455
  99.0043490  23.0915031  61.4490850 105.0623566  29.2773082  70.2632474
 105.1267998  29.7393490  71.0990646 104.3534490  28.6470447  70.3914784
  95.5640856  22.6414290  67.7881473  95.8148894  23.5261300  68.0539049
  96.1000404  22.4618892  67.0156565 119.3872955  26.0727788  64.4556735
 118.6336664  25.5035186  64.3000739 119.5220497  26.0390452  65.4027370
 104.7771584  30.9441190  60.1311454 104.6417258  31.7892726  60.5596302
 105.3181396  31.1460468  59.3677388 101.2638923  17.0232770  76.7925810
 100.8705869  16.4698968  77.4673454 102.0805063  17.3343348  77.1832327
  98.2300981  28.4616628  60.7039379  98.7425501  29.2559878  60.8544944
  98.8823694  27.7642918  60.6372981 100.0395866  31.5782384  62.7862133
 100.2162494  32.5000349  62.5983116 100.8352699  31.2640803  63.2156512
 104.1806884  18.4390649  74.3846066 104.9216598  19.0397802  74.3050529
 104.4124807  17.6968287  73.8264109  99.3248222  23.6247016  72.6624296
  99.2101737  22.7232273  72.9631395  98.4692740  23.8710713  72.3109112
 106.4040060  31.5664756  74.2611796 105.9603914  30.7801135  73.9432701
 107.0657273  31.7543907  73.5955687 101.1627181  33.0960558  68.7872475
 101.7134606  32.9677621  68.0149469 100.3238657  33.3955447  68.4367368
 108.5021298  31.8467556  72.2893198 108.4839773  32.6676437  71.7973467
 109.4241218  31.7221632  72.5143339 104.9594352  29.3611686  73.1316706
 105.4922689  28.5999974  72.9016014 104.4308433  29.0685338  73.8740861
 108.1264047  14.4671752  68.6610348 107.7828316  15.3573393  68.5849458
 108.4943010  14.2773409  67.7979933  96.1949898  26.7905282  61.4798950
  97.0325120  27.2002291  61.2632658  96.3728165  25.8504724  61.4499144
 108.0914330  24.4580363  57.1682783 107.5760953  25.2284968  57.4071170
 107.8191638  23.7845499  57.7915844 105.6761441  19.3030064  62.2268021
 104.8203037  18.9136914  62.0473660 106.0888393  19.3822024  61.3667807
 107.2060587  16.8376407  66.6259581 106.7025383  16.8006542  65.8127386
 107.4991194  17.7469150  66.6856238 103.4503473  16.9215137  65.6325763
 104.3156470  16.7257945  65.2731652 103.5180982  16.6925488  66.5595120
 113.0648604  27.2112718  59.1035956 112.2878047  26.8723877  58.6591118
 113.7440085  27.2165341  58.4290921 107.8800633  22.3307455  58.9942564
 107.5750769  22.6453604  59.8452707 108.8331075  22.4088875  59.0369897
 106.3247065  28.4897678  60.6435518 105.7968426  27.7550438  60.3308756
 105.8234568  29.2672355  60.3975486 111.3039911  26.6846699  65.7602564
 110.6463585  27.3745960  65.8482693 112.1080310  27.0743131  66.1036551
 101.0565792  19.1517345  63.0042130 101.6309544  18.9292526  62.2715323
 101.6436775  19.2206039  63.7570731 110.1145370  25.0391071  63.8106506
 110.6277251  25.6721063  64.3128216 110.7646594  24.4392267  63.4449866
 101.3835380  21.1821806  57.0238015 100.5472692  21.5196492  57.3447290
 101.2440149  21.0470785  56.0865152 103.3588460  16.0258593  61.7317199
 102.7052872  15.7107611  61.1073814 103.3168934  15.4034334  62.4577022
 104.4699665  26.3077889  53.6470491 103.5626727  26.0767142  53.8461640
 104.9670697  25.5115508  53.8344473 107.3767744  35.0175396  56.5667177
 106.7029443  35.3207092  57.1752135 107.7633566  35.8204476  56.2172634
 106.5926201  22.5140527  66.0564847 105.6748762  22.7355474  65.8986535
 107.0086344  22.5886837  65.1976554 107.3761248  23.9131943  61.1867527
 108.1233067  24.4253340  60.8774649 107.6452838  23.5915995  62.0471920
 105.6487898  26.4090483  58.1694481 104.7399118  26.1249516  58.2666951
 105.6782982  26.8289562  57.3097788 110.8807166  30.0197073  61.9385649
 110.4269493  29.1787983  61.9950839 110.2501133  30.6558471  62.2760429
 109.8240085  20.9489059  63.1686316 109.0862842  20.4366445  63.4996559
 110.0766859  20.5089441  62.3569593 109.3240105  31.8573570  62.8735467
 109.6163079  32.4178627  62.1547833 109.8338726  32.1502131  63.6288626
 109.9251713  13.7265311  63.7628085 110.2310590  12.8662674  63.4754001
 110.6504318  14.3182931  63.5627079  96.2176069  24.1295998  62.1509683
  96.0200469  23.5365358  61.4260750  95.6622733  23.8248208  62.8685622
 104.1972792  24.0219104  64.2704277 104.2521402  23.0692940  64.1946753
 103.3863995  24.1778543  64.7545575 105.3463986  27.9499227  55.5082560
 104.9083416  27.2335086  55.0488197 106.0874427  28.1775342  54.9467651
 102.1365152  22.6396164  62.0294655 101.3233018  22.9390334  62.4359848
 102.6324147  22.2451853  62.7469138 104.2873730  32.6353921  63.9628920
 104.2449909  32.8614767  63.0337452 105.2036429  32.4017295  64.1114721
 107.7339364  23.1037988  70.8609549 108.0888752  23.3309461  71.7204015
 108.3811495  23.4356365  70.2386805 113.4637101  26.2256424  61.5658878
 113.3255000  26.4158020  60.6380068 113.1073320  26.9875807  62.0226929
 101.6279227  20.2114519  67.6455890 102.2678606  20.0703278  66.9478854
 100.7956758  19.9249033  67.2694492 113.4906481  28.2932951  66.5770150
 113.9242987  28.2008240  67.4253204 114.2038061  28.2690452  65.9390166
 102.4039531  29.5116950  63.7590883 103.1980130  29.0167270  63.5573458
 101.6931223  28.9834813  63.3958588 107.2234376  31.8935045  68.1103250
 107.2771398  32.4625982  68.8780966 106.3549157  32.0636930  67.7457288
  98.7122295  23.6560031  59.8350636  97.7819883  23.5944487  60.0520598
  98.8079767  23.1335984  59.0387277  98.6307844  20.1814844  62.4228877
  98.8914661  21.0960178  62.3138038  99.4525016  19.7139287  62.5725490
 100.1032769  21.5952601  69.5927702 100.7755822  21.3869964  68.9440351
  99.2762555  21.3974687  69.1532934 114.3522030  28.3356652  69.1103035
 114.5457920  29.2402462  69.3562310 114.2522648  27.8764071  69.9441620
 106.0058341  18.2214542  71.6093363 105.3586256  18.9204492  71.5157839
 106.7759356  18.6550686  71.9769611 109.4137139  28.4863395  74.6843916
 109.2622645  28.2573946  73.7674000 109.4041818  29.4433996  74.6975261
 106.1822475  26.0595307  69.6690182 107.1114535  26.2106467  69.4959150
 105.7613505  26.1479328  68.8138829 104.9810807  30.0845972  67.4388720
 104.8421893  29.7164756  68.3114658 104.1925403  30.5993611  67.2672678
 105.5758959  35.1855068  58.7814256 105.7510715  34.7143111  59.5959879
 104.8891747  35.8120834  59.0095517 106.5316022  29.4627574  64.8277558
 106.1965855  29.4228344  65.7235208 106.0319968  28.7972290  64.3547968
 100.5060266  24.8695204  70.3530139 100.3680064  24.1375443  70.9541678
 101.4165190  24.7804105  70.0714327 109.4675214  26.8083609  55.1014617
 108.8504385  26.0830437  55.0047670 108.9991702  27.5692969  54.7581692
 103.1342567  24.5815164  69.8413819 103.8442185  23.9408356  69.8000437
 103.0911875  24.8328059  70.7639999 111.1229346  31.5182517  72.7620398
 111.0641892  30.8341737  72.0950981 111.5248864  32.2601507  72.3101024
 101.8471501  21.5680382  71.6609458 101.3108858  21.1171120  72.3131054
 101.2588209  21.7026290  70.9179922 100.1420044  38.3344431  65.5554117
 100.3816643  38.9662955  66.2333135  99.2989241  37.9832471  65.8419476
 101.2573760  21.0269033  54.2235922 100.3803226  20.9057834  53.8598168
 101.7331513  20.2355111  53.9714810 111.1246753  29.4822101  70.9934377
 110.2373532  29.1448023  71.1160776 111.6945304  28.7505132  71.2303143
  92.7775900  25.8146193  64.3177429  93.4646940  25.5007923  63.7298444
  92.6224029  26.7187557  64.0444680  97.5810622  20.7036389  68.7462452
  97.4968811  20.0962059  68.0112862  96.7593328  21.1945408  68.7471949
 104.6547906  34.1423553  67.9595621 104.5818078  34.9478525  68.4714925
 104.2125299  34.3415519  67.1343642 104.4437686  33.3795323  61.4698442
 103.6605208  33.9217004  61.5636667 105.1430431  33.8969303  61.8692683
 107.7534336  19.1889953  64.1132648 108.2503035  18.4359915  63.7933718
 106.9821317  19.2254270  63.5475857 115.6064093  24.8930318  65.7550939
 115.5953970  25.7755034  65.3844872 114.7381473  24.5401869  65.5605476
 107.1146590  34.0410387  70.1153779 107.8274562  34.6757852  70.0429681
 106.6236618  34.1374253  69.2993781 108.8364117  27.9461640  61.6871071
 107.9020395  28.0663103  61.5175775 109.0140785  27.0434107  61.4231081
 104.3369305  21.3307336  63.8404332 103.9667092  20.7778376  64.5285238
 104.8328397  20.7265469  63.2879332 112.2236668  23.7878959  62.2221105
 112.6897120  24.6206951  62.1481408 112.6744168  23.3223941  62.9266364
 102.1658503  31.7904831  70.9359350 102.8667963  32.4241314  71.0888744
 101.6953618  32.1319562  70.1754989 110.2912899  30.1322781  59.2207257
 110.5672743  30.0179375  60.1301131 109.4217398  29.7340266  59.1819430
 110.1953331  16.1559546  66.2612006 109.2816411  16.3863773  66.4294213
 110.6246432  16.2397990  67.1126039 109.9659789  24.3449438  68.7611900
 109.3131239  24.5925346  68.1064353 110.3440169  23.5313577  68.4274378
 106.9266963  34.3809131  62.8640071 107.1089358  33.5630787  63.3267823
 107.7499949  34.5976824  62.4264961 107.2609129  33.3077317  60.1255119
 107.7896895  32.7969771  59.5125281 107.5237348  32.9919847  60.9900652
 106.0147362  25.0869249  75.2477938 105.3387999  24.9863379  75.9180313
 106.8374996  24.9308463  75.7113935  97.7626221  31.3241186  67.8690453
  98.3479658  30.5784874  68.0018357  97.5651060  31.6345143  68.7527117
 100.6164877  34.3592433  62.8852895  99.9475252  34.8438561  62.4016935
 100.4777746  34.6061654  63.7996274  92.3543876  23.8946786  66.5894896
  92.3927976  23.3610377  67.3832014  91.8484169  23.3681992  65.9705873
 104.7570145  36.3936177  69.4835554 105.3088453  36.5567798  70.2484639
 105.0976339  36.9840615  68.8115578  99.7334638  18.7411327  70.0857438
  99.7975965  19.6026158  69.6734836  99.6701759  18.1285328  69.3529797
  99.2086911  20.8134459  73.7330472  99.8358950  20.4311536  74.3467997
  98.3514830  20.5948661  74.0986165 109.6081019  31.2197434  75.3384208
 110.1520923  31.8327393  74.8439163 109.0267864  31.7777013  75.8551221
  95.9852454  22.6210888  59.6648827  96.2805895  21.7121567  59.6115881
  95.0840489  22.5998628  59.3429830 107.8938532  34.3418152  66.4699236
 107.7689672  33.5407892  65.9610181 108.5517624  34.8364346  65.9813206
  99.5146701  20.6966885  65.6476376  98.7933286  21.3102853  65.5083849
 100.3039956  21.2324650  65.5693022 109.9573441  32.1427172  68.0978786
 109.0103776  32.0232524  68.0257112 110.3056214  31.2549670  68.1805047
 102.3173014  18.0321311  71.9217028 102.8407416  18.2783608  72.6843337
 102.0985347  18.8641346  71.5020165  97.7140295  20.3024986  59.7888152
  97.3853001  19.4222365  59.6063258  98.0679666  20.2472655  60.6764542
 106.9619874  31.9379889  64.2983138 106.8144837  31.0096596  64.4790708
 107.7873368  31.9599979  63.8140213 100.8282118  20.5897956  60.1563630
 101.1678191  21.1183877  59.4342238 101.2754239  20.9278362  60.9322197
 110.5653996  32.7608447  65.3848011 111.4900543  32.5551309  65.2472462
 110.3969299  32.5124849  66.2937352 103.5225559  18.9735006  69.6066698
 103.1822380  18.1742820  70.0087378 102.8164565  19.2736717  69.0343531
 104.1742031  16.0584319  68.0594021 104.9968100  15.5844797  67.9372912
 104.4180095  16.8374803  68.5592707 102.8150266  19.0872577  58.3556923
 103.5358628  19.4653830  57.8520640 102.1915570  19.8061454  58.4591901
 106.9581388  19.7917726  59.2915255 107.1745003  20.6742364  58.9904083
 106.4775456  19.4003940  58.5620897 101.6980610  22.7503440  65.8686000
 101.5525190  23.0643743  66.7610281 101.2205813  23.3688340  65.3156898
 103.5576993  19.7405988  65.9166889 103.5438561  18.8447081  65.5799187
 104.2749421  19.7476651  66.5505175 105.4103123  20.1743328  67.9620017
 105.1520901  21.0960398  67.9604347 104.8788164  19.7773762  68.6520481
 110.3549312  33.2794115  60.7410102 110.5286190  32.7140537  59.9883955
 110.8478203  34.0795010  60.5589592  96.1726272  25.2908784  68.8073661
  95.6279740  26.0668592  68.9393935  97.0505622  25.6379588  68.6492782
 102.9613889  18.6220368  61.1854460 103.0829800  17.6937014  61.3845347
 102.6715931  18.6359054  60.2732775 105.8305079  16.3075278  64.3221179
 105.8526776  16.3714611  63.3673159 106.2473138  15.4679787  64.5161686
 116.2088703  26.0430538  62.3600402 116.6519849  25.2937863  61.9619525
 115.3315214  26.0340674  61.9774134 111.3424485  32.5960879  57.8407000
 112.0375389  33.2167572  58.0594315 111.6847635  31.7456230  58.1159378
  96.9592294  24.4178680  71.7003818  96.2174030  24.5661316  72.2868448
  96.6385038  24.6786946  70.8370567 113.2415908  30.0460585  59.3694331
 113.7667232  30.3847858  58.6443651 113.1538260  29.1107600  59.1857466
 104.9035956  33.9594658  71.4984208 105.2123083  33.7143805  72.3706907
 105.7011438  34.1641297  71.0103078 104.9256568  36.1132568  63.7289584
 104.4861559  35.6208947  64.4222441 105.6764685  35.5705536  63.4881660
  97.4048907  32.3044109  63.7314212  98.2306927  32.0047881  63.3512856
  97.0542959  31.5351731  64.1804001 102.3730441  31.6570577  65.8011886
 101.7510450  30.9941282  65.5014114 103.0435308  31.6831709  65.1185534
  95.6057513  30.2230435  64.6903146  94.7689421  29.7952610  64.5087147
  95.5781158  30.4162879  65.6273937 102.4454968  20.1352365  75.3944392
 102.4943124  21.0114488  75.0122162 102.9877482  19.5929758  74.8216035
 112.9309814  30.6793488  74.6745529 112.1405358  30.6617627  74.1350029
 112.6943168  31.2181782  75.4294566 113.0507689  27.5285955  71.9878258
 113.1005694  27.3635962  72.9293781 112.9421612  26.6613214  71.5976139
 101.9343948  30.2074500  59.2770347 102.0832068  30.8909965  58.6237019
 102.7410391  30.1879591  59.7919802 110.3411451  23.5116883  73.3037564
 111.2421314  23.3723348  73.0121562 110.4159426  23.6771338  74.2435742
 104.6754257  20.8883738  72.1490751 103.8057566  21.1817304  71.8773339
 104.9113737  21.4724183  72.8698014 114.5525886  29.9482896  72.2320279
 114.2610694  30.3112877  73.0683740 113.9398017  29.2349905  72.0533611
 115.7521568  27.5135776  64.7522849 116.5868459  27.9525580  64.9160410
 115.8880697  27.0374429  63.9331095 112.8013074  25.0715511  70.7000337
 113.2767196  25.2643157  69.8919189 111.8778639  25.1274697  70.4543721
  99.6896581  26.2339678  60.2831416  99.4442622  25.3302008  60.4811626
  99.8592495  26.2356829  59.3410894 107.3793290  17.1063354  69.6656171
 107.8975234  17.8424381  69.3402660 107.0248423  17.4127348  70.5002930
  98.9592228  21.9668036  57.7817577  98.2661473  22.0412391  57.1257613
  98.7143980  21.2028379  58.3039094 107.6305885  13.5263637  65.1857068
 107.9107638  12.8586826  65.8117494 108.4156491  13.7192733  64.6731732
 105.4339353  32.7022631  56.7482094 104.8613320  33.3212818  56.2952566
 106.0072147  33.2521993  57.2822016 111.5014743  21.9481271  68.9328643
 112.4532166  22.0479369  68.9540867 111.3318193  21.1559540  69.4426727
 109.5229122  19.0336854  69.1188044 108.9279054  19.3141867  68.4234532
 109.2378819  19.5230755  69.8904785 108.6536613  32.9859781  57.8790676
 109.5867286  32.9205343  58.0823552 108.5659826  33.8216048  57.4205209
 111.2824630  32.3025651  54.8394624 111.2038261  31.9685515  55.7330382
 112.1034296  32.7947419  54.8386096 113.9802821  25.1687391  68.0470943
 113.9479141  24.2303391  68.2330626 114.5903444  25.2471427  67.3136767
 105.8186152  24.0383444  54.0898147 106.7645256  23.9089652  54.1586565
 105.4400397  23.2998106  54.5667575 114.1297309  21.9598434  68.0929226
 113.6136358  21.1756891  67.9059155 115.0137258  21.6317151  68.2575745
 111.7908036  15.7039450  64.0525038 111.5932857  15.3954538  64.9368370
 112.4007742  16.4301089  64.1822968 119.7979371  26.2303398  67.1876979
 120.5282759  25.9688686  67.7484683 119.1886316  25.4932119  67.2279047
 117.8794668  24.3711260  67.7851430 117.1527831  24.2367225  67.1767922
 117.4641955  24.6788089  68.5908149 105.7024844  28.0901190  75.5498804
 106.6227854  28.2679789  75.7438850 105.6674427  27.1457235  75.3978503
 104.0029069  21.9633420  54.0253032 103.0960524  21.6666533  54.1015745
 104.2805050  21.6663238  53.1587318  94.9207009  23.2839783  64.4752078
  94.6009793  22.4305092  64.1826452  94.3740437  23.4988362  65.2310045
  98.6986917  26.0002224  68.1921585  98.9172926  26.9319332  68.2109618
  99.1112690  25.6410199  68.9776389 105.6191134  16.5070310  60.1797273
 104.8091863  16.1617395  60.5552519 106.3075551  16.1977854  60.7684885
 107.5481683  15.5848357  61.8021570 108.1012721  16.0043810  62.4611593
 107.7851769  14.6584105  61.8444526 103.5714782  21.5735430  77.5824334
 103.4711509  22.5229787  77.5136425 103.3536324  21.2453669  76.7100404
 102.7727853  18.8220355  54.1665011 103.6347017  19.1475254  54.4260828
 102.9578198  18.0351851  53.6538077  94.7895269  26.9042695  66.4445200
  94.0958741  26.4896648  65.9315154  95.5368260  26.9463231  65.8478619
 110.9260490  17.6948882  61.3100234 110.3459159  18.3533686  60.9278286
 110.6596423  16.8726226  60.8987651 109.3764056  17.0953939  63.5121554
 109.8763835  17.2070474  62.7035873 110.0199664  16.7914992  64.1522363
 103.4346052  25.0032569  76.3989395 102.9513134  25.8032929  76.6053284
 103.5206991  25.0140514  75.4456839  96.7032012  26.8360949  64.3211215
  96.6802700  26.9348636  63.3693098  97.0132648  27.6826100  64.6428381
  99.3619390  28.8937104  68.4357829 100.3162643  28.8621046  68.3687761
  99.1631913  28.4327728  69.2508055  99.9518772  27.4638220  71.0028627
 100.7711661  27.9582298  71.0263464 100.2255579  26.5470188  70.9746194
 109.7085368  19.8548972  60.3656582 108.8211223  20.1398623  60.1476777
 110.1239357  19.6942735  59.5183859 113.0599904  19.8795493  64.0810921
 113.8360294  20.3691946  64.3535538 112.3348038  20.3053547  64.5382791
 115.4972463  20.5923112  65.1384862 116.0916953  20.3518848  64.4278170
 115.5699046  19.8730243  65.7658398  97.7169618  34.4356723  65.4528027
  97.5824086  33.6757124  64.8866025  97.3001681  35.1597623  64.9856816
 108.8528581  29.6193647  54.4604602 109.5564431  29.8243649  55.0762258
 108.1291230  30.1870409  54.7253686 109.6826392  25.3703508  60.5806872
 109.6261593  25.8272059  59.7414505 110.2354734  24.6094193  60.4029715
 113.4931198  21.1593240  61.4056992 113.2368132  20.7589876  62.2365200
 112.8684066  21.8737034  61.2807131 117.8043535  23.8989313  63.9128283
 117.2443093  23.9682502  64.6859845 117.1987039  23.7230298  63.1927780
 100.8738744  35.3326040  65.6646470 100.7571128  36.2771473  65.5625160
 100.0531190  35.0299602  66.0532269 110.7615279  30.0576176  56.5103062
 111.5960883  29.6257374  56.3280537 110.5999622  29.8858190  57.4379957
 110.4161171  26.5608289  57.8759402 110.3609975  26.3952561  56.9347846
 109.7907226  27.2684322  58.0321591  95.2053686  21.7976354  71.7020824
  95.8512549  21.2875308  72.1908049  94.9970837  22.5345035  72.2764249
 107.7307078  28.8657201  77.2012964 108.5998238  29.0397853  76.8399599
 107.2513830  29.6851618  77.0788694 103.7257296  16.0616398  57.4544720
 103.7135966  17.0058238  57.6112991 104.6180718  15.8786544  57.1604181
 101.8993258  35.9854302  68.8802398 102.8020505  36.0177912  69.1968893
 101.6730628  35.0554753  68.8948734 103.6546860  34.7385289  65.5412477
 102.7042491  34.7387150  65.4276849 103.9579346  33.9918023  65.0248511
 107.5409416  12.6559175  61.7090657 106.7741812  12.1017662  61.8547339
 107.9520121  12.7281044  62.5704808  99.5451177  18.9443971  75.7995838
 100.4082638  18.5880776  76.0099163  98.9716588  18.6057866  76.4871242
 119.3899554  40.5745827  66.6058239 120.0277964  40.4552574  65.9021579
 119.2720397  41.5226671  66.6646191 116.1989260  40.5273255  66.5419764
 115.8607772  40.4114320  65.6540299 117.0679028  40.1264420  66.5220770
 112.0576076  42.3808732  62.5316655 111.4940941  42.2898669  61.7632942
 111.9428471  41.5608636  63.0119147 116.6809043  41.6808107  72.5005969
 116.6697684  41.2860905  71.6286473 116.8429683  40.9474180  73.0939741
 109.6040508  43.8759923  65.3700875 110.3961800  43.5350748  64.9547174
 109.8437158  43.9854898  66.2903028 117.6375635  46.0479699  57.8431120
 116.9863614  46.6333780  57.4565133 118.4319997  46.5785894  57.9026157
 111.5631262  43.1368836  58.2418254 112.3362138  42.5897824  58.1031130
 111.9156661  44.0013086  58.4532715 113.4016304  44.4645219  71.4485153
 113.1106170  45.3690850  71.3331820 114.0373289  44.5061746  72.1629223
 114.3272511  41.8422067  68.0386513 114.9236083  41.6178090  67.3243476
 114.3847483  41.1006813  68.6411961 113.8997539  39.2961503  55.8736704
 114.1523060  38.7743024  55.1120167 112.9622099  39.1327648  55.9763387
 118.9440822  38.2997281  63.6811447 119.7303912  37.8816704  63.3301864
 119.2079527  39.2043373  63.8493095 119.1150900  43.7370131  58.3800104
 118.4796733  43.8104758  59.0921009 118.7848306  44.3263730  57.7019183
 124.3449249  38.2372514  64.5844426 125.0774421  37.6671731  64.8182255
 123.5888605  37.8494115  65.0250931 113.6193828  41.1989609  58.0761079
 113.5030086  40.5234512  58.7442163 113.7296088  40.7121982  57.2593232
 115.9625369  40.6599756  61.7807768 115.5983576  40.1330377  62.4920689
 116.8192485  40.2698225  61.6074253 121.8674670  31.9494088  69.0439034
 121.5357995  32.8189499  68.8200249 121.2720283  31.6330372  69.7233065
 115.6030856  35.6889655  56.7769117 115.7705258  36.5569892  57.1439588
 115.4128025  35.8516937  55.8530406 118.3606189  44.1506634  68.4434947
 118.0606912  45.0531673  68.3350754 118.0157249  43.8838817  69.2956100
 111.8118671  40.6020431  64.4771651 110.8869167  40.4696645  64.6849343
 112.0603084  41.3814650  64.9741594 121.7603333  36.6689174  66.1232384
 120.8520210  36.6004583  65.8291145 121.7090929  37.1461119  66.9514210
 115.5820077  38.1447313  57.7615783 115.4619702  38.5904364  58.6001264
 114.8872665  38.4932631  57.2029322 109.1727482  40.2453705  65.3115440
 109.3019863  40.4988184  66.2254852 108.4924933  40.8381413  64.9920095
 113.3426969  50.9150955  61.4105915 113.2650999  51.8658780  61.4894395
 112.7388613  50.5696827  62.0680841 115.8344199  38.0878820  74.0667282
 115.0577533  38.6472740  74.0570146 116.4734762  38.5735603  74.5882152
 123.6264979  34.8705613  67.9010258 122.9839360  35.1638146  67.2550053
 123.1219908  34.7558533  68.7063455 121.2805143  38.6168786  58.5896117
 122.1922999  38.8496173  58.4143815 120.7714790  39.2005830  58.0271196
 114.0890571  40.8964273  73.6285249 114.8305256  41.4349317  73.3520072
 113.3827557  41.5230562  73.7856800 119.5645911  43.0393414  72.2257410
 119.9729267  42.5975824  71.4812042 118.8423172  42.4646041  72.4791603
 115.9176981  37.9766021  69.5990967 116.7638176  38.4005434  69.7425616
 115.8575619  37.3199645  70.2929530 119.8874725  43.5994604  65.9809699
 119.2583588  43.7640319  65.2785767 119.5000388  44.0136214  66.7520663
 123.7663957  44.5349042  63.3354063 123.0814996  44.9147944  62.7851096
 123.8507807  45.1444369  64.0686010 119.0676426  35.6370389  71.2572141
 118.8237358  36.3912450  70.7206416 119.3436357  36.0155737  72.0919388
 121.0214889  42.1809001  69.9349406 121.2331784  42.8240761  69.2583787
 120.9744637  41.3471318  69.4671336 118.6241118  34.7926822  66.8385978
 117.7625597  35.0908076  67.1302716 118.6503553  35.0097221  65.9067011
 115.4402687  43.3369013  63.2459784 115.9041033  43.6156716  62.4564406
 115.1759485  42.4352457  63.0632875 112.3326768  42.8840494  66.1839547
 112.9028125  43.3127762  65.5457032 112.9234880  42.6023079  66.8823733
 114.3771573  39.4592165  60.0549349 115.0795617  39.9113209  60.5223275
 114.0452202  38.8175984  60.6829242 112.8251935  38.0503922  74.4300558
 112.1950596  38.7320202  74.6635955 112.7188023  37.9387003  73.4853697
 108.1196907  37.7175718  65.3566483 107.3295961  37.9733246  64.8806593
 108.6108155  38.5324055  65.4618523 122.1360717  45.0580957  68.1071764
 122.9578161  44.6561144  67.8254445 122.1323120  44.9549191  69.0587879
 110.0711653  38.0820297  62.3149959 109.2742816  38.1938991  62.8333455
 109.8437245  38.4206949  61.4490850 115.9017320  44.6065000  70.2632474
 115.9661753  45.0685407  71.0990646 115.1928244  43.9762365  70.3914784
 106.4034610  37.9706208  67.7881473 106.6542649  38.8553218  68.0539049
 106.9394159  37.7910810  67.0156565 130.2266710  41.4019705  64.4556735
 129.4730418  40.8327103  64.3000739 130.3614251  41.3682370  65.4027370
 115.6165338  46.2733108  60.1311454 115.4811013  47.1184643  60.5596302
 116.1575151  46.4752385  59.3677388 112.1032678  32.3524687  76.7925810
 111.7099623  31.7990886  77.4673454 112.9198818  32.6635266  77.1832327
 109.0694735  43.7908546  60.7039379 109.5819256  44.5851796  60.8544944
 109.7217448  43.0934836  60.6372981 110.8789620  46.9074302  62.7862133
 111.0556248  47.8292267  62.5983116 111.6746454  46.5932721  63.2156512
 115.0200639  33.7682567  74.3846066 115.7610352  34.3689720  74.3050529
 115.2518561  33.0260204  73.8264109 110.1641977  38.9538934  72.6624296
 110.0495492  38.0524191  72.9631395 109.3086494  39.2002631  72.3109112
 117.2433814  46.8956674  74.2611796 116.7997669  46.1093053  73.9432701
 117.9051028  47.0835825  73.5955687 112.0020936  48.4252476  68.7872475
 112.5528361  48.2969539  68.0149469 111.1632411  48.7247365  68.4367368
 119.3415052  47.1759474  72.2893198 119.3233528  47.9968355  71.7973467
 120.2634973  47.0513549  72.5143339 115.7988107  44.6903603  73.1316706
 116.3316443  43.9291892  72.9016014 115.2702188  44.3977255  73.8740861
 118.9657802  29.7963669  68.6610348 118.6222071  30.6865311  68.5849458
 119.3336764  29.6065327  67.7979933 107.0343652  42.1197200  61.4798950
 107.8718874  42.5294208  61.2632658 107.2121920  41.1796642  61.4499144
 118.9308084  39.7872281  57.1682783 118.4154708  40.5576885  57.4071170
 118.6585393  39.1137417  57.7915844 116.5155195  34.6321981  62.2268021
 115.6596792  34.2428832  62.0473660 116.9282147  34.7113942  61.3667807
 118.0454342  32.1668325  66.6259581 117.5419138  32.1298460  65.8127386
 118.3384949  33.0761067  66.6856238 114.2897228  32.2507054  65.6325763
 115.1550225  32.0549863  65.2731652 114.3574737  32.0217406  66.5595120
 123.9042358  42.5404635  59.1035956 123.1271801  42.2015795  58.6591118
 124.5833839  42.5457258  58.4290921 118.7194387  37.6599373  58.9942564
 118.4144523  37.9745522  59.8452707 119.6724830  37.7380793  59.0369897
 117.1640819  43.8189596  60.6435518 116.6362181  43.0842356  60.3308756
 116.6628322  44.5964272  60.3975486 122.1433665  42.0138616  65.7602564
 121.4857340  42.7037878  65.8482693 122.9474065  42.4035048  66.1036551
 111.8959547  34.4809262  63.0042130 112.4703299  34.2584444  62.2715323
 112.4830529  34.5497957  63.7570731 120.9539124  40.3682989  63.8106506
 121.4671006  41.0012981  64.3128216 121.6040348  39.7684185  63.4449866
 112.2229134  36.5113723  57.0238015 111.3866446  36.8488410  57.3447290
 112.0833904  36.3762703  56.0865152 114.1982215  31.3550511  61.7317199
 113.5446627  31.0399528  61.1073814 114.1562689  30.7326252  62.4577022
 115.3093419  41.6369806  53.6470491 114.4020481  41.4059060  53.8461640
 115.8064451  40.8407425  53.8344473 118.2161498  50.3467313  56.5667177
 117.5423197  50.6499010  57.1752135 118.6027320  51.1496394  56.2172634
 117.4319955  37.8432445  66.0564847 116.5142516  38.0647392  65.8986535
 117.8480099  37.9178755  65.1976554 118.2155003  39.2423860  61.1867527
 118.9626822  39.7545258  60.8774649 118.4846592  38.9207913  62.0471920
 116.4881653  41.7382401  58.1694481 115.5792872  41.4541434  58.2666951
 116.5176737  42.1581480  57.3097788 121.7200920  45.3488991  61.9385649
 121.2663247  44.5079900  61.9950839 121.0894887  45.9850389  62.2760429
 120.6633840  36.2780977  63.1686316 119.9256597  35.7658363  63.4996559
 120.9160613  35.8381358  62.3569593 120.1633860  47.1865487  62.8735467
 120.4556834  47.7470544  62.1547833 120.6732480  47.4794048  63.6288626
 120.7645467  29.0557229  63.7628085 121.0704344  28.1954592  63.4754001
 121.4898072  29.6474849  63.5627079 107.0569823  39.4587915  62.1509683
 106.8594223  38.8657276  61.4260750 106.5016487  39.1540125  62.8685622
 115.0366547  39.3511022  64.2704277 115.0915157  38.3984858  64.1946753
 114.2257749  39.5070461  64.7545575 116.1857741  43.2791145  55.5082560
 115.7477171  42.5627004  55.0488197 116.9268182  43.5067260  54.9467651
 112.9758907  37.9688081  62.0294655 112.1626772  38.2682252  62.4359848
 113.4717901  37.5743770  62.7469138 115.1267485  47.9645838  63.9628920
 115.0843664  48.1906685  63.0337452 116.0430184  47.7309213  64.1114721
 118.5733119  38.4329906  70.8609549 118.9282506  38.6601379  71.7204015
 119.2205250  38.7648283  70.2386805 124.3030856  41.5548342  61.5658878
 124.1648754  41.7449938  60.6380068 123.9467074  42.3167725  62.0226929
 112.4672982  35.5406437  67.6455890 113.1072361  35.3995196  66.9478854
 111.6350512  35.2540950  67.2694492 124.3300235  43.6224869  66.5770150
 124.7636742  43.5300158  67.4253204 125.0431816  43.5982369  65.9390166
 113.2433286  44.8408867  63.7590883 114.0373884  44.3459188  63.5573458
 112.5324978  44.3126731  63.3958588 118.0628130  47.2226963  68.1103250
 118.1165152  47.7917899  68.8780966 117.1942911  47.3928848  67.7457288
 109.5516049  38.9851949  59.8350636 108.6213637  38.9236405  60.0520598
 109.6473521  38.4627902  59.0387277 109.4701598  35.5106762  62.4228877
 109.7308415  36.4252095  62.3138038 110.2918770  35.0431205  62.5725490
 110.9426523  36.9244519  69.5927702 111.6149577  36.7161881  68.9440351
 110.1156310  36.7266605  69.1532934 125.1915785  43.6648569  69.1103035
 125.3851675  44.5694380  69.3562310 125.0916403  43.2055989  69.9441620
 116.8452095  33.5506460  71.6093363 116.1980010  34.2496410  71.5157839
 117.6153111  33.9842604  71.9769611 120.2530893  43.8155312  74.6843916
 120.1016400  43.5865864  73.7674000 120.2435573  44.7725914  74.6975261
 117.0216230  41.3887225  69.6690182 117.9508290  41.5398385  69.4959150
 116.6007260  41.4771246  68.8138829 115.8204562  45.4137889  67.4388720
 115.6815647  45.0456674  68.3114658 115.0319158  45.9285529  67.2672678
 116.4152714  50.5146986  58.7814256 116.5904469  50.0435029  59.5959879
 115.7285502  51.1412752  59.0095517 117.3709777  44.7919492  64.8277558
 117.0359609  44.7520262  65.7235208 116.8713722  44.1264208  64.3547968
 111.3454021  40.1987122  70.3530139 111.2073819  39.4667361  70.9541678
 112.2558944  40.1096022  70.0714327 120.3068968  42.1375526  55.1014617
 119.6898139  41.4122355  55.0047670 119.8385457  42.8984887  54.7581692
 113.9736321  39.9107081  69.8413819 114.6835940  39.2700274  69.8000437
 113.9305629  40.1619976  70.7639999 121.9623100  46.8474435  72.7620398
 121.9035646  46.1633655  72.0950981 122.3642618  47.5893425  72.3101024
 112.6865255  36.8972299  71.6609458 112.1502612  36.4463038  72.3131054
 112.0981964  37.0318208  70.9179922 110.9813799  53.6636349  65.5554117
 111.2210397  54.2954873  66.2333135 110.1382995  53.3124389  65.8419476
 112.0967514  36.3560951  54.2235922 111.2196981  36.2349751  53.8598168
 112.5725267  35.5647029  53.9714810 121.9640507  44.8114019  70.9934377
 121.0767286  44.4739940  71.1160776 122.5339058  44.0797050  71.2303143
 103.6169654  41.1438110  64.3177429 104.3040694  40.8299840  63.7298444
 103.4617783  42.0479475  64.0444680 108.4204377  36.0328307  68.7462452
 108.3362565  35.4253977  68.0112862 107.5987083  36.5237325  68.7471949
 115.4941661  49.4715471  67.9595621 115.4211832  50.2770443  68.4714925
 115.0519054  49.6707437  67.1343642 115.2831440  48.7087241  61.4698442
 114.4998962  49.2508921  61.5636667 115.9824185  49.2261221  61.8692683
 118.5928090  34.5181871  64.1132648 119.0896790  33.7651833  63.7933718
 117.8215072  34.5546187  63.5475857 126.4457848  40.2222236  65.7550939
 126.4347724  41.1046951  65.3844872 125.5775227  39.8693787  65.5605476
 117.9540344  49.3702305  70.1153779 118.6668316  50.0049770  70.0429681
 117.4630373  49.4666171  69.2993781 119.6757871  43.2753558  61.6871071
 118.7414150  43.3955020  61.5175775 119.8534540  42.3726025  61.4231081
 115.1763059  36.6599254  63.8404332 114.8060847  36.1070294  64.5285238
 115.6722152  36.0557387  63.2879332 123.0630422  39.1170877  62.2221105
 123.5290875  39.9498869  62.1481408 123.5137923  38.6515859  62.9266364
 113.0052258  47.1196749  70.9359350 113.7061717  47.7533232  71.0888744
 112.5347373  47.4611480  70.1754989 121.1306654  45.4614698  59.2207257
 121.4066497  45.3471293  60.1301131 120.2611152  45.0632183  59.1819430
 121.0347085  31.4851464  66.2612006 120.1210165  31.7155691  66.4294213
 121.4640187  31.5689908  67.1126039 120.8053544  39.6741356  68.7611900
 120.1524994  39.9217263  68.1064353 121.1833924  38.8605494  68.4274378
 117.7660718  49.7101049  62.8640071 117.9483112  48.8922705  63.3267823
 118.5893704  49.9268741  62.4264961 118.1002883  48.6369234  60.1255119
 118.6290649  48.1261689  59.5125281 118.3631103  48.3211765  60.9900652
 116.8541117  40.4161167  75.2477938 116.1781754  40.3155296  75.9180313
 117.6768751  40.2600381  75.7113935 108.6019976  46.6533104  67.8690453
 109.1873413  45.9076791  68.0018357 108.4044814  46.9637060  68.7527117
 111.4558631  49.6884351  62.8852895 110.7869006  50.1730479  62.4016935
 111.3171501  49.9353571  63.7996274 103.1937631  39.2238704  66.5894896
 103.2321730  38.6902294  67.3832014 102.6877923  38.6973909  65.9705873
 115.5963900  51.7228095  69.4835554 116.1482208  51.8859716  70.2484639
 115.9370093  52.3132532  68.8115578 110.5728393  34.0703244  70.0857438
 110.6369719  34.9318075  69.6734836 110.5095513  33.4577246  69.3529797
 110.0480665  36.1426377  73.7330472 110.6752704  35.7603454  74.3467997
 109.1908584  35.9240579  74.0986165 120.4474774  46.5489352  75.3384208
 120.9914678  47.1619310  74.8439163 119.8661619  47.1068930  75.8551221
 106.8246208  37.9502806  59.6648827 107.1199649  37.0413484  59.6115881
 105.9234244  37.9290545  59.3429830 118.7332287  49.6710070  66.4699236
 118.6083426  48.8699810  65.9610181 119.3911378  50.1656263  65.9813206
 110.3540455  36.0258803  65.6476376 109.6327041  36.6394770  65.5083849
 111.1433711  36.5616567  65.5693022 120.7967195  47.4719090  68.0978786
 119.8497531  47.3524441  68.0257112 121.1449968  46.5841588  68.1805047
 113.1566769  33.3613229  71.9217028 113.6801170  33.6075526  72.6843337
 112.9379102  34.1933264  71.5020165 108.5534050  35.6316904  59.7888152
 108.2246756  34.7514283  59.6063258 108.9073420  35.5764572  60.6764542
 117.8013629  47.2671806  64.2983138 117.6538591  46.3388514  64.4790708
 118.6267122  47.2891897  63.8140213 111.6675873  35.9189873  60.1563630
 112.0071945  36.4475795  59.4342238 112.1147993  36.2570280  60.9322197
 121.4047750  48.0900365  65.3848011 122.3294298  47.8843226  65.2472462
 121.2363054  47.8416766  66.2937352 114.3619314  34.3026924  69.6066698
 114.0216134  33.5034737  70.0087378 113.6558320  34.6028635  69.0343531
 115.0135785  31.3876237  68.0594021 115.8361855  30.9136715  67.9372912
 115.2573849  32.1666720  68.5592707 113.6544020  34.4164495  58.3556923
 114.3752382  34.7945748  57.8520640 113.0309324  35.1353372  58.4591901
 117.7975143  35.1209644  59.2915255 118.0138757  36.0034282  58.9904083
 117.3169210  34.7295857  58.5620897 112.5374364  38.0795357  65.8686000
 112.3918945  38.3935660  66.7610281 112.0599568  38.6980258  65.3156898
 114.3970747  35.0697905  65.9166889 114.3832316  34.1738998  65.5799187
 115.1143175  35.0768569  66.5505175 116.2496878  35.5035245  67.9620017
 115.9914656  36.4252316  67.9604347 115.7181918  35.1065680  68.6520481
 121.1943067  48.6086033  60.7410102 121.3679944  48.0432455  59.9883955
 121.6871958  49.4086927  60.5589592 107.0120026  40.6200702  68.8073661
 106.4673494  41.3960510  68.9393935 107.8899376  40.9671506  68.6492782
 113.8007643  33.9512285  61.1854460 113.9223554  33.0228932  61.3845347
 113.5109685  33.9650971  60.2732775 116.6698833  31.6367196  64.3221179
 116.6920530  31.7006529  63.3673159 117.0866892  30.7971705  64.5161686
 127.0482458  41.3722455  62.3600402 127.4913604  40.6229781  61.9619525
 126.1708968  41.3632592  61.9774134 122.1818239  47.9252797  57.8407000
 122.8769144  48.5459490  58.0594315 122.5241389  47.0748148  58.1159378
 107.7986048  39.7470598  71.7003818 107.0567784  39.8953233  72.2868448
 107.4778793  40.0078863  70.8370567 124.0809662  45.3752502  59.3694331
 124.6060986  45.7139775  58.6443651 123.9932015  44.4399518  59.1857466
 115.7429711  49.2886576  71.4984208 116.0516837  49.0435723  72.3706907
 116.5405193  49.4933215  71.0103078 115.7650323  51.4424486  63.7289584
 115.3255313  50.9500864  64.4222441 116.5158440  50.8997453  63.4881660
 108.2442662  47.6336027  63.7314212 109.0700682  47.3339798  63.3512856
 107.8936714  46.8643649  64.1804001 113.2124195  46.9862495  65.8011886
 112.5904204  46.3233200  65.5014114 113.8829062  47.0123627  65.1185534
 106.4451267  45.5522353  64.6903146 105.6083175  45.1244527  64.5087147
 106.4174912  45.7454796  65.6273937 113.2848723  35.4644283  75.3944392
 113.3336878  36.3406406  75.0122162 113.8271237  34.9221676  74.8216035
 123.7703568  46.0085406  74.6745529 122.9799112  45.9909545  74.1350029
 123.5336923  46.5473700  75.4294566 123.8901443  42.8577872  71.9878258
 123.9399448  42.6927880  72.9293781 123.7815367  41.9905131  71.5976139
 112.7737702  45.5366418  59.2770347 112.9225822  46.2201883  58.6237019
 113.5804145  45.5171508  59.7919802 121.1805206  38.8408800  73.3037564
 122.0815068  38.7015265  73.0121562 121.2553180  39.0063255  74.2435742
 115.5148011  36.2175655  72.1490751 114.6451320  36.5109221  71.8773339
 115.7507491  36.8016100  72.8698014 125.3919640  45.2774814  72.2320279
 125.1004448  45.6404795  73.0683740 124.7791771  44.5641822  72.0533611
 126.5915322  42.8427694  64.7522849 127.4262214  43.2817498  64.9160410
 126.7274451  42.3666347  63.9331095 123.6406828  40.4007429  70.7000337
 124.1160950  40.5935075  69.8919189 122.7172394  40.4566614  70.4543721
 110.5290335  41.5631596  60.2831416 110.2836377  40.6593926  60.4811626
 110.6986250  41.5648746  59.3410894 118.2187045  32.4355272  69.6656171
 118.7368989  33.1716299  69.3402660 117.8642178  32.7419265  70.5002930
 109.7985983  37.2959953  57.7817577 109.1055227  37.3704308  57.1257613
 109.5537734  36.5320297  58.3039094 118.4699639  28.8555555  65.1857068
 118.7501393  28.1878744  65.8117494 119.2550246  29.0484650  64.6731732
 116.2733108  48.0314549  56.7482094 115.7007075  48.6504736  56.2952566
 116.8465901  48.5813910  57.2822016 122.3408497  37.2773189  68.9328643
 123.2925920  37.3771286  68.9540867 122.1711948  36.4851457  69.4426727
 120.3622877  34.3628772  69.1188044 119.7672809  34.6433785  68.4234532
 120.0772574  34.8522673  69.8904785 119.4930367  48.3151699  57.8790676
 120.4261040  48.2497260  58.0823552 119.4053580  49.1507966  57.4205209
 122.1218384  47.6317569  54.8394624 122.0432016  47.2977433  55.7330382
 122.9428051  48.1239337  54.8386096 124.8196575  40.4979308  68.0470943
 124.7872895  39.5595309  68.2330626 125.4297199  40.5763345  67.3136767
 116.6579906  39.3675361  54.0898147 117.6039011  39.2381569  54.1586565
 116.2794151  38.6290023  54.5667575 124.9691064  37.2890352  68.0929226
 124.4530112  36.5048808  67.9059155 125.8531012  36.9609068  68.2575745
 122.6301791  31.0331367  64.0525038 122.4326612  30.7246456  64.9368370
 123.2401496  31.7593006  64.1822968 130.6373125  41.5595315  67.1876979
 131.3676514  41.2980603  67.7484683 130.0280071  40.8224037  67.2279047
 128.7188422  39.7003178  67.7851430 127.9921586  39.5659143  67.1767922
 128.3035709  40.0080006  68.5908149 116.5418599  43.4193107  75.5498804
 117.4621608  43.5971706  75.7438850 116.5068182  42.4749153  75.3978503
 114.8422823  37.2925338  54.0253032 113.9354279  36.9958450  54.1015745
 115.1198804  36.9955156  53.1587318 105.7600764  38.6131701  64.4752078
 105.4403548  37.7597009  64.1826452 105.2134192  38.8280279  65.2310045
 109.5380671  41.3294142  68.1921585 109.7566681  42.2611250  68.2109618
 109.9506445  40.9702117  68.9776389 116.4584889  31.8362227  60.1797273
 115.6485617  31.4909312  60.5552519 117.1469306  31.5269771  60.7684885
 118.3875437  30.9140274  61.8021570 118.9406476  31.3335728  62.4611593
 118.6245524  29.9876022  61.8444526 114.4108536  36.9027348  77.5824334
 114.3105263  37.8521705  77.5136425 114.1930079  36.5745587  76.7100404
 113.6121608  34.1512273  54.1665011 114.4740772  34.4767171  54.4260828
 113.7971952  33.3643769  53.6538077 105.6289024  42.2334613  66.4445200
 104.9352495  41.8188565  65.9315154 106.3762015  42.2755149  65.8478619
 121.7654244  33.0240799  61.3100234 121.1852913  33.6825603  60.9278286
 121.4990177  32.2018144  60.8987651 120.2157811  32.4245857  63.5121554
 120.7157589  32.5362392  62.7035873 120.8593419  32.1206910  64.1522363
 114.2739807  40.3324487  76.3989395 113.7906888  41.1324847  76.6053284
 114.3600746  40.3432432  75.4456839 107.5425766  42.1652866  64.3211215
 107.5196454  42.2640554  63.3693098 107.8526403  43.0118017  64.6428381
 110.2013144  44.2229021  68.4357829 111.1556398  44.1912964  68.3687761
 110.0025668  43.7619645  69.2508055 110.7912526  42.7930137  71.0028627
 111.6105415  43.2874216  71.0263464 111.0649334  41.8762106  70.9746194
 120.5479122  35.1840890  60.3656582 119.6604977  35.4690540  60.1476777
 120.9633111  35.0234653  59.5183859 123.8993658  35.2087411  64.0810921
 124.6754049  35.6983863  64.3535538 123.1741793  35.6345465  64.5382791
 126.3366217  35.9215030  65.1384862 126.9310708  35.6810766  64.4278170
 126.4092801  35.2022161  65.7658398 108.5563373  49.7648641  65.4528027
 108.4217841  49.0049042  64.8866025 108.1395435  50.4889541  64.9856816
 119.6922336  44.9485564  54.4604602 120.3958186  45.1535567  55.0762258
 118.9684985  45.5162326  54.7253686 120.5220146  40.6995426  60.5806872
 120.4655347  41.1563977  59.7414505 121.0748489  39.9386110  60.4029715
 124.3324952  36.4885158  61.4056992 124.0761886  36.0881793  62.2365200
 123.7077820  37.2028952  61.2807131 128.6437290  39.2281231  63.9128283
 128.0836848  39.2974420  64.6859845 128.0380793  39.0522215  63.1927780
 111.7132499  50.6617958  65.6646470 111.5964883  51.6063390  65.5625160
 110.8924945  50.3591520  66.0532269 121.6009033  45.3868094  56.5103062
 122.4354637  44.9549292  56.3280537 121.4393376  45.2150107  57.4379957
 121.2554925  41.8900207  57.8759402 121.2003729  41.7244478  56.9347846
 120.6300981  42.5976240  58.0321591 106.0447440  37.1268271  71.7020824
 106.6906304  36.6167225  72.1908049 105.8364591  37.8636953  72.2764249
 118.5700833  44.1949119  77.2012964 119.4391992  44.3689771  76.8399599
 118.0907584  45.0143536  77.0788694 114.5651051  31.3908316  57.4544720
 114.5529721  32.3350156  57.6112991 115.4574473  31.2078461  57.1604181
 112.7387013  51.3146220  68.8802398 113.6414259  51.3469830  69.1968893
 112.5124383  50.3846671  68.8948734 114.4940615  50.0677206  65.5412477
 113.5436246  50.0679068  65.4276849 114.7973101  49.3209941  65.0248511
 118.3803170  27.9851093  61.7090657 117.6135566  27.4309579  61.8547339
 118.7913875  28.0572961  62.5704808 110.3844931  34.2735888  75.7995838
 111.2476393  33.9172693  76.0099163 109.8110342  33.9349783  76.4871242
 130.2293308  55.9037745  66.6058239 130.8671718  55.7844492  65.9021579
 130.1114151  56.8518589  66.6646191 127.0383015  55.8565173  66.5419764
 126.7001526  55.7406238  65.6540299 127.9072783  55.4556338  66.5220770
 122.8969830  57.7100649  62.5316655 122.3334695  57.6190586  61.7632942
 122.7822225  56.8900554  63.0119147 120.4434262  59.2051841  65.3700875
 121.2355554  58.8642666  64.9547174 120.6830912  59.3146816  66.2903028
 128.4769389  61.3771617  57.8431120 127.8257369  61.9625697  57.4565133
 129.2713752  61.9077812  57.9026157 122.4025016  58.4660754  58.2418254
 123.1755892  57.9189741  58.1031130 122.7550415  59.3305003  58.4532715
 124.7391294  54.6253420  55.8736704 124.9916815  54.1034942  55.1120167
 123.8015853  54.4619566  55.9763387 129.7834577  53.6289199  63.6811447
 130.5697666  53.2108622  63.3301864 130.0473281  54.5335291  63.8493095
 129.9544654  59.0662049  58.3800104 129.3190487  59.1396675  59.0921009
 129.6242061  59.6555648  57.7019183 135.1843004  53.5664432  64.5844426
 135.9168176  52.9963649  64.8182255 134.4282360  53.1786032  65.0250931
 124.4587583  56.5281526  58.0761079 124.3423841  55.8526430  58.7442163
 124.5689843  56.0413900  57.2593232 126.8019124  55.9891673  61.7807768
 126.4377331  55.4622294  62.4920689 127.6586240  55.5990142  61.6074253
 132.7068424  47.2786006  69.0439034 132.3751749  48.1481417  68.8200249
 132.1114038  46.9622290  69.7233065 126.4424611  51.0181573  56.7769117
 126.6099013  51.8861809  57.1439588 126.2521780  51.1808855  55.8530406
 129.1999944  59.4798552  68.4434947 128.9000667  60.3823591  68.3350754
 128.8551003  59.2130735  69.2956100 122.6512425  55.9312349  64.4771651
 121.7262922  55.7988563  64.6849343 122.8996838  56.7106568  64.9741594
 132.5997088  51.9981092  66.1232384 131.6913965  51.9296501  65.8291145
 132.5484683  52.4753037  66.9514210 126.4213831  53.4739231  57.7615783
 126.3013457  53.9196281  58.6001264 125.7266420  53.8224548  57.2029322
 120.0121236  55.5745622  65.3115440 120.1413617  55.8280101  66.2254852
 119.3318688  56.1673330  64.9920095 124.1820724  66.2442872  61.4105915
 124.1044753  67.1950697  61.4894395 123.5782367  65.8988745  62.0680841
 126.6737953  53.4170738  74.0667282 125.8971287  53.9764658  74.0570146
 127.3128516  53.9027521  74.5882152 134.4658734  50.1997531  67.9010258
 133.8233114  50.4930064  67.2550053 133.9613663  50.0850451  68.7063455
 132.1198898  53.9460704  58.5896117 133.0316754  54.1788090  58.4143815
 131.6108545  54.5297748  58.0271196 126.7570735  53.3057938  69.5990967
 127.6031931  53.7297352  69.7425616 126.6969373  52.6491563  70.2929530
 130.7268480  58.9286522  65.9809699 130.0977342  59.0932236  65.2785767
 130.3394142  59.3428132  66.7520663 134.6057712  59.8640960  63.3354063
 133.9208750  60.2439861  62.7851096 134.6901561  60.4736287  64.0686010
 129.9070181  50.9662307  71.2572141 129.6631113  51.7204367  70.7206416
 130.1830111  51.3447654  72.0919388 131.8608643  57.5100919  69.9349406
 132.0725539  58.1532679  69.2583787 131.8138392  56.6763236  69.4671336
 129.4634872  50.1218740  66.8385978 128.6019351  50.4199993  67.1302716
 129.4897307  50.3389139  65.9067011 126.2796442  58.6660930  63.2459784
 126.7434787  58.9448633  62.4564406 126.0153240  57.7644375  63.0632875
 125.2165328  54.7884083  60.0549349 125.9189371  55.2405126  60.5223275
 124.8845956  54.1467901  60.6829242 123.6645689  53.3795839  74.4300558
 123.0344350  54.0612120  74.6635955 123.5581777  53.2678921  73.4853697
 118.9590662  53.0467635  65.3566483 118.1689716  53.3025164  64.8806593
 119.4501909  53.8615973  65.4618523 132.9754471  60.3872874  68.1071764
 133.7971915  59.9853062  67.8254445 132.9716874  60.2841109  69.0587879
 120.9105407  53.4112215  62.3149959 120.1136570  53.5230909  62.8333455
 120.6830999  53.7498867  61.4490850 117.2428365  53.2998126  67.7881473
 117.4936403  54.1845136  68.0539049 117.7787913  53.1202727  67.0156565
 141.0660464  56.7311623  64.4556735 140.3124173  56.1619021  64.3000739
 141.2008006  56.6974287  65.4027370 126.4559092  61.6025025  60.1311454
 126.3204767  62.4476561  60.5596302 126.9968905  61.8044303  59.3677388
 122.9426432  47.6816605  76.7925810 122.5493378  47.1282804  77.4673454
 123.7592572  47.9927184  77.1832327 119.9088490  59.1200463  60.7039379
 120.4213010  59.9143714  60.8544944 120.5611203  58.4226754  60.6372981
 121.7183375  62.2366220  62.7862133 121.8950003  63.1584184  62.5983116
 122.5140208  61.9224639  63.2156512 125.8594393  49.0974484  74.3846066
 126.6004106  49.6981637  74.3050529 126.0912316  48.3552122  73.8264109
 121.0035731  54.2830851  72.6624296 120.8889246  53.3816109  72.9631395
 120.1480249  54.5294548  72.3109112 129.8051556  45.1255587  68.6610348
 129.4615825  46.0157229  68.5849458 130.1730519  44.9357245  67.7979933
 117.8737407  57.4489118  61.4798950 118.7112629  57.8586126  61.2632658
 118.0515674  56.5088560  61.4499144 129.7701839  55.1164198  57.1682783
 129.2548462  55.8868803  57.4071170 129.4979147  54.4429334  57.7915844
 127.3548950  49.9613899  62.2268021 126.4990546  49.5720749  62.0473660
 127.7675902  50.0405860  61.3667807 128.8848096  47.4960242  66.6259581
 128.3812892  47.4590377  65.8127386 129.1778703  48.4052985  66.6856238
 125.1290982  47.5798972  65.6325763 125.9943979  47.3841781  65.2731652
 125.1968491  47.3509324  66.5595120 134.7436113  57.8696553  59.1035956
 133.9665556  57.5307712  58.6591118 135.4227594  57.8749176  58.4290921
 129.5588142  52.9891290  58.9942564 129.2538278  53.3037440  59.8452707
 130.5118584  53.0672710  59.0369897 128.0034574  59.1481514  60.6435518
 127.4755935  58.4134273  60.3308756 127.5022077  59.9256190  60.3975486
 132.9827420  57.3430534  65.7602564 132.3251094  58.0329796  65.8482693
 133.7867819  57.7326966  66.1036551 122.7353301  49.8101180  63.0042130
 123.3097053  49.5876361  62.2715323 123.3224284  49.8789874  63.7570731
 131.7932879  55.6974907  63.8106506 132.3064760  56.3304899  64.3128216
 132.4434103  55.0976102  63.4449866 123.0622889  51.8405641  57.0238015
 122.2260201  52.1780327  57.3447290 122.9227658  51.7054621  56.0865152
 125.0375969  46.6842429  61.7317199 124.3840381  46.3691446  61.1073814
 124.9956443  46.0618169  62.4577022 126.1487174  56.9661724  53.6470491
 125.2414236  56.7350977  53.8461640 126.6458206  56.1699343  53.8344473
 129.0555253  65.6759231  56.5667177 128.3816952  65.9790928  57.1752135
 129.4421075  66.4788311  56.2172634 128.2713709  53.1724362  66.0564847
 127.3536271  53.3939309  65.8986535 128.6873853  53.2470673  65.1976554
 129.0548757  54.5715778  61.1867527 129.8020576  55.0837175  60.8774649
 129.3240347  54.2499831  62.0471920 127.3275407  57.0674319  58.1694481
 126.4186627  56.7833352  58.2666951 127.3570491  57.4873397  57.3097788
 132.5594675  60.6780908  61.9385649 132.1057002  59.8371818  61.9950839
 131.9288642  61.3142307  62.2760429 131.5027594  51.6072894  63.1686316
 130.7650351  51.0950281  63.4996559 131.7554368  51.1673276  62.3569593
 131.0027614  62.5157405  62.8735467 131.2950588  63.0762462  62.1547833
 131.5126235  62.8085966  63.6288626 131.6039222  44.3849146  63.7628085
 131.9098099  43.5246510  63.4754001 132.3291827  44.9766766  63.5627079
 117.8963578  54.7879833  62.1509683 117.6987978  54.1949194  61.4260750
 117.3410242  54.4832043  62.8685622 125.8760301  54.6802939  64.2704277
 125.9308911  53.7276776  64.1946753 125.0651503  54.8362378  64.7545575
 127.0251495  58.6083062  55.5082560 126.5870925  57.8918921  55.0488197
 127.7661936  58.8359177  54.9467651 123.8152661  53.2979999  62.0294655
 123.0020527  53.5974170  62.4359848 124.3111656  52.9035688  62.7469138
 125.9661239  63.2937756  63.9628920 125.9237418  63.5198602  63.0337452
 126.8823938  63.0601131  64.1114721 129.4126873  53.7621824  70.8609549
 129.7676261  53.9893297  71.7204015 130.0599004  54.0940200  70.2386805
 135.1424610  56.8840259  61.5658878 135.0042509  57.0741855  60.6380068
 134.7860829  57.6459642  62.0226929 123.3066736  50.8698355  67.6455890
 123.9466115  50.7287114  66.9478854 122.4744267  50.5832868  67.2694492
 135.1693990  58.9516786  66.5770150 135.6030496  58.8592076  67.4253204
 135.8825570  58.9274287  65.9390166 124.0827040  60.1700785  63.7590883
 124.8767639  59.6751105  63.5573458 123.3718732  59.6418648  63.3958588
 120.3909804  54.3143867  59.8350636 119.4607392  54.2528322  60.0520598
 120.4867276  53.7919820  59.0387277 120.3095353  50.8398680  62.4228877
 120.5702170  51.7544013  62.3138038 121.1312525  50.3723122  62.5725490
 121.7820278  52.2536437  69.5927702 122.4543331  52.0453799  68.9440351
 120.9550064  52.0558523  69.1532934 136.0309539  58.9940487  69.1103035
 136.2245429  59.8986298  69.3562310 135.9310157  58.5347906  69.9441620
 127.6845850  48.8798378  71.6093363 127.0373765  49.5788327  71.5157839
 128.4546865  49.3134522  71.9769611 126.6598316  60.7429807  67.4388720
 126.5209402  60.3748591  68.3114658 125.8712912  61.2577446  67.2672678
 127.2546468  65.8438904  58.7814256 127.4298224  65.3726947  59.5959879
 126.5679256  66.4704670  59.0095517 128.2103531  60.1211410  64.8277558
 127.8753364  60.0812180  65.7235208 127.7107477  59.4556126  64.3547968
 131.1462723  57.4667444  55.1014617 130.5291893  56.7414272  55.0047670
 130.6779211  58.2276804  54.7581692 132.8016855  62.1766352  72.7620398
 132.7429401  61.4925573  72.0950981 133.2036373  62.9185342  72.3101024
 123.5259010  52.2264217  71.6609458 122.9896367  51.7754955  72.3131054
 122.9375718  52.3610126  70.9179922 121.8207553  68.9928266  65.5554117
 122.0604152  69.6246790  66.2333135 120.9776750  68.6416306  65.8419476
 122.9361269  51.6852868  54.2235922 122.0590735  51.5641669  53.8598168
 123.4119022  50.8938947  53.9714810 132.8034262  60.1405936  70.9934377
 131.9161041  59.8031858  71.1160776 133.3732813  59.4088968  71.2303143
 114.4563409  56.4730028  64.3177429 115.1434449  56.1591758  63.7298444
 114.3011538  57.3771393  64.0444680 119.2598131  51.3620225  68.7462452
 119.1756320  50.7545894  68.0112862 118.4380837  51.8529243  68.7471949
 126.1225195  64.0379159  61.4698442 125.3392717  64.5800839  61.5636667
 126.8217940  64.5553138  61.8692683 129.4321845  49.8473788  64.1132648
 129.9290544  49.0943751  63.7933718 128.6608826  49.8838105  63.5475857
 137.2851602  55.5514154  65.7550939 137.2741479  56.4338869  65.3844872
 136.4168982  55.1985705  65.5605476 130.5151626  58.6045475  61.6871071
 129.5807904  58.7246938  61.5175775 130.6928294  57.7017942  61.4231081
 126.0156814  51.9891171  63.8404332 125.6454601  51.4362212  64.5285238
 126.5115906  51.3849305  63.2879332 133.9024177  54.4462795  62.2221105
 134.3684629  55.2790786  62.1481408 134.3531677  53.9807776  62.9266364
 131.9700408  60.7906616  59.2207257 132.2460252  60.6763211  60.1301131
 131.1004907  60.3924101  59.1819430 131.8740840  46.8143382  66.2612006
 130.9603919  47.0447609  66.4294213 132.3033941  46.8981826  67.1126039
 131.6447298  55.0033274  68.7611900 130.9918748  55.2509181  68.1064353
 132.0227678  54.1897412  68.4274378 128.6054472  65.0392967  62.8640071
 128.7876867  64.2214623  63.3267823 129.4287458  65.2560659  62.4264961
 128.9396638  63.9661152  60.1255119 129.4684404  63.4553607  59.5125281
 129.2024857  63.6503682  60.9900652 119.4413730  61.9825021  67.8690453
 120.0267167  61.2368709  68.0018357 119.2438569  62.2928978  68.7527117
 122.2952385  65.0176269  62.8852895 121.6262761  65.5022396  62.4016935
 122.1565255  65.2645489  63.7996274 114.0331385  54.5530621  66.5894896
 114.0715485  54.0194212  67.3832014 113.5271678  54.0265827  65.9705873
 121.4122147  49.3995162  70.0857438 121.4763474  50.2609993  69.6734836
 121.3489268  48.7869164  69.3529797 120.8874420  51.4718295  73.7330472
 121.5146459  51.0895372  74.3467997 120.0302339  51.2532496  74.0986165
 117.6639963  53.2794724  59.6648827 117.9593404  52.3705402  59.6115881
 116.7627998  53.2582463  59.3429830 129.5726041  65.0001988  66.4699236
 129.4477181  64.1991728  65.9610181 130.2305132  65.4948181  65.9813206
 121.1934210  51.3550720  65.6476376 120.4720795  51.9686688  65.5083849
 121.9827465  51.8908485  65.5693022 131.6360950  62.8011008  68.0978786
 130.6891285  62.6816359  68.0257112 131.9843723  61.9133506  68.1805047
 123.9960523  48.6905147  71.9217028 124.5194925  48.9367443  72.6843337
 123.7772856  49.5225182  71.5020165 119.3927804  50.9608821  59.7888152
 119.0640510  50.0806200  59.6063258 119.7467175  50.9056490  60.6764542
 128.6407383  62.5963724  64.2983138 128.4932345  61.6680431  64.4790708
 129.4660877  62.6183815  63.8140213 122.5069627  51.2481791  60.1563630
 122.8465700  51.7767712  59.4342238 122.9541748  51.5862197  60.9322197
 125.2013068  49.6318842  69.6066698 124.8609889  48.8326655  70.0087378
 124.4952074  49.9320553  69.0343531 125.8529540  46.7168154  68.0594021
 126.6755609  46.2428632  67.9372912 126.0967604  47.4958638  68.5592707
 124.4937774  49.7456413  58.3556923 125.2146137  50.1237665  57.8520640
 123.8703079  50.4645289  58.4591901 128.6368897  50.4501562  59.2915255
 128.8532512  51.3326200  58.9904083 128.1562965  50.0587775  58.5620897
 123.3768119  53.4087275  65.8686000 123.2312699  53.7227578  66.7610281
 122.8993322  54.0272175  65.3156898 125.2364502  50.3989823  65.9166889
 125.2226070  49.5030916  65.5799187 125.9536930  50.4060487  66.5505175
 127.0890632  50.8327163  67.9620017 126.8308410  51.7544234  67.9604347
 126.5575673  50.4357598  68.6520481 132.0336821  63.9377950  60.7410102
 132.2073699  63.3724373  59.9883955 132.5265712  64.7378845  60.5589592
 117.8513781  55.9492619  68.8073661 117.3067249  56.7252427  68.9393935
 118.7293131  56.2963424  68.6492782 124.6401398  49.2804203  61.1854460
 124.7617309  48.3520849  61.3845347 124.3503440  49.2942889  60.2732775
 127.5092588  46.9659114  64.3221179 127.5314285  47.0298447  63.3673159
 127.9260647  46.1263622  64.5161686 137.8876212  56.7014373  62.3600402
 138.3307358  55.9521698  61.9619525 137.0102723  56.6924509  61.9774134
 133.0211994  63.2544715  57.8407000 133.7162898  63.8751407  58.0594315
 133.3635144  62.4040066  58.1159378 118.6379803  55.0762516  71.7003818
 117.8961539  55.2245151  72.2868448 118.3172547  55.3370781  70.8370567
 134.9203417  60.7044420  59.3694331 135.4454741  61.0431693  58.6443651
 134.8325769  59.7691435  59.1857466 126.6044077  66.7716403  63.7289584
 126.1649068  66.2792782  64.4222441 127.3552194  66.2289371  63.4881660
 119.0836416  62.9627944  63.7314212 119.9094436  62.6631716  63.3512856
 118.7330468  62.1935567  64.1804001 124.0517950  62.3154412  65.8011886
 123.4297959  61.6525118  65.5014114 124.7222817  62.3415544  65.1185534
 117.2845021  60.8814271  64.6903146 116.4476930  60.4536445  64.5087147
 117.2568667  61.0746714  65.6273937 124.1242477  50.7936201  75.3944392
 124.1730633  51.6698323  75.0122162 124.6664991  50.2513594  74.8216035
 134.6097323  61.3377324  74.6745529 133.8192866  61.3201463  74.1350029
 134.3730677  61.8765617  75.4294566 134.7295198  58.1869790  71.9878258
 134.7793203  58.0219798  72.9293781 134.6209121  57.3197049  71.5976139
 123.6131457  60.8658336  59.2770347 123.7619577  61.5493800  58.6237019
 124.4197900  60.8463426  59.7919802 132.0198960  54.1700718  73.3037564
 132.9208823  54.0307183  73.0121562 132.0946935  54.3355173  74.2435742
 126.3541766  51.5467573  72.1490751 125.4845075  51.8401139  71.8773339
 126.5901246  52.1308018  72.8698014 136.2313395  60.6066732  72.2320279
 135.9398203  60.9696712  73.0683740 135.6185526  59.8933740  72.0533611
 137.4309077  58.1719611  64.7522849 138.2655968  58.6109415  64.9160410
 137.5668206  57.6958265  63.9331095 134.4800583  55.7299346  70.7000337
 134.9554704  55.9226993  69.8919189 133.5566148  55.7858532  70.4543721
 121.3684089  56.8923513  60.2831416 121.1230131  55.9885843  60.4811626
 121.5380004  56.8940664  59.3410894 129.0580799  47.7647190  69.6656171
 129.5762743  48.5008217  69.3402660 128.7035932  48.0711183  70.5002930
 120.6379737  52.6251871  57.7817577 119.9448982  52.6996226  57.1257613
 120.3931489  51.8612215  58.3039094 129.3093394  44.1847472  65.1857068
 129.5895147  43.5170661  65.8117494 130.0944000  44.3776568  64.6731732
 127.1126862  63.3606466  56.7482094 126.5400829  63.9796653  56.2952566
 127.6859656  63.9105828  57.2822016 133.1802252  52.6065106  68.9328643
 134.1319675  52.7063204  68.9540867 133.0105702  51.8143375  69.4426727
 131.2016631  49.6920690  69.1188044 130.6066563  49.9725702  68.4234532
 130.9166328  50.1814591  69.8904785 130.3324122  63.6443616  57.8790676
 131.2654795  63.5789178  58.0823552 130.2447335  64.4799883  57.4205209
 132.9612139  62.9609487  54.8394624 132.8825770  62.6269350  55.7330382
 133.7821805  63.4531255  54.8386096 135.6590330  55.8271226  68.0470943
 135.6266650  54.8887227  68.2330626 136.2690953  55.9055263  67.3136767
 127.4973661  54.6967279  54.0898147 128.4432765  54.5673487  54.1586565
 127.1187905  53.9581941  54.5667575 135.8084818  52.6182269  68.0929226
 135.2923867  51.8340726  67.9059155 136.6924767  52.2900986  68.2575745
 133.4695545  46.3623285  64.0525038 133.2720366  46.0538373  64.9368370
 134.0795251  47.0884924  64.1822968 141.4766880  56.8887233  67.1876979
 142.2070268  56.6272521  67.7484683 140.8673825  56.1515955  67.2279047
 139.5582177  55.0295095  67.7851430 138.8315340  54.8951060  67.1767922
 139.1429464  55.3371924  68.5908149 125.6816578  52.6217255  54.0253032
 124.7748033  52.3250368  54.1015745 125.9592559  52.3247073  53.1587318
 116.5994518  53.9423619  64.4752078 116.2797302  53.0888927  64.1826452
 116.0527946  54.1572197  65.2310045 120.3774426  56.6586060  68.1921585
 120.5960435  57.5903168  68.2109618 120.7900199  56.2994034  68.9776389
 127.2978643  47.1654145  60.1797273 126.4879372  46.8201230  60.5552519
 127.9863060  46.8561689  60.7684885 129.2269192  46.2432192  61.8021570
 129.7800230  46.6627645  62.4611593 129.4639278  45.3167940  61.8444526
 125.2502291  52.2319266  77.5824334 125.1499018  53.1813623  77.5136425
 125.0323833  51.9037504  76.7100404 124.4515362  49.4804191  54.1665011
 125.3134526  49.8059089  54.4260828 124.6365706  48.6935687  53.6538077
 116.4682778  57.5626530  66.4445200 115.7746250  57.1480483  65.9315154
 117.2155769  57.6047067  65.8478619 132.6047999  48.3532717  61.3100234
 132.0246668  49.0117521  60.9278286 132.3383931  47.5310062  60.8987651
 131.0551565  47.7537775  63.5121554 131.5551344  47.8654309  62.7035873
 131.6987173  47.4498828  64.1522363 125.1133561  55.6616404  76.3989395
 124.6300643  56.4616765  76.6053284 125.1994500  55.6724349  75.4456839
 118.3819521  57.4944784  64.3211215 118.3590209  57.5932471  63.3693098
 118.6920157  58.3409935  64.6428381 131.3872877  50.5132807  60.3656582
 130.4998732  50.7982458  60.1476777 131.8026866  50.3526571  59.5183859
 134.7387413  50.5379328  64.0810921 135.5147803  51.0275781  64.3535538
 134.0135547  50.9637383  64.5382791 137.1759972  51.2506948  65.1384862
 137.7704462  51.0102684  64.4278170 137.2486555  50.5314078  65.7658398
 119.3957127  65.0940559  65.4528027 119.2611595  64.3340959  64.8866025
 118.9789190  65.8181458  64.9856816 130.5316090  60.2777482  54.4604602
 131.2351940  60.4827485  55.0762258 129.8078739  60.8454244  54.7253686
 131.3613901  56.0287343  60.5806872 131.3049102  56.4855895  59.7414505
 131.9142243  55.2678028  60.4029715 135.1718706  51.8177075  61.4056992
 134.9155641  51.4173711  62.2365200 134.5471575  52.5320869  61.2807131
 139.4831044  54.5573149  63.9128283 138.9230602  54.6266338  64.6859845
 138.8774548  54.3814133  63.1927780 122.5526253  65.9909876  65.6646470
 122.4358637  66.9355308  65.5625160 121.7318699  65.6883437  66.0532269
 132.4402788  60.7160011  56.5103062 133.2748392  60.2841210  56.3280537
 132.2787131  60.5442025  57.4379957 132.0948680  57.2192125  57.8759402
 132.0397484  57.0536396  56.9347846 131.4694735  57.9268158  58.0321591
 116.8841195  52.4560189  71.7020824 117.5300058  51.9459143  72.1908049
 116.6758346  53.1928871  72.2764249 125.4044805  46.7200234  57.4544720
 125.3923475  47.6642074  57.6112991 126.2968227  46.5370379  57.1604181
 123.5780767  66.6438138  68.8802398 124.4808014  66.6761748  69.1968893
 123.3518137  65.7138588  68.8948734 125.3334369  65.3969124  65.5412477
 124.3830000  65.3970986  65.4276849 125.6366855  64.6501859  65.0248511
 129.2196925  43.3143010  61.7090657 128.4529321  42.7601497  61.8547339
 129.6307630  43.3864879  62.5704808 121.2238686  49.6027806  75.7995838
 122.0870147  49.2464611  76.0099163 120.6504097  49.2641701  76.4871242
 141.0687063  71.2329662  66.6058239 141.7065473  71.1136410  65.9021579
 140.9507906  72.1810506  66.6646191 137.8776769  71.1857091  66.5419764
 137.5395281  71.0698155  65.6540299 138.7466537  70.7848256  66.5220770
 133.7363585  73.0392567  62.5316655 133.1728450  72.9482504  61.7632942
 133.6215980  72.2192471  63.0119147 138.3596552  72.3391942  72.5005969
 138.3485193  71.9444741  71.6286473 138.5217192  71.6058015  73.0939741
 131.2828017  74.5343759  65.3700875 132.0749309  74.1934583  64.9547174
 131.5224667  74.6438734  66.2903028 139.3163143  76.7063535  57.8431120
 138.6651123  77.2917615  57.4565133 140.1107506  77.2369730  57.9026157
 133.2418771  73.7952672  58.2418254 134.0149647  73.2481659  58.1031130
 133.5944170  74.6596921  58.4532715 135.0803813  75.1229054  71.4485153
 134.7893679  76.0274685  71.3331820 135.7160798  75.1645582  72.1629223
 136.0060020  72.5005903  68.0386513 136.6023592  72.2761925  67.3243476
 136.0634992  71.7590648  68.6411961 135.5785048  69.9545338  55.8736704
 135.8310569  69.4326859  55.1120167 134.6409608  69.7911483  55.9763387
 140.6228331  68.9581116  63.6811447 141.4091420  68.5400539  63.3301864
 140.8867036  69.8627208  63.8493095 140.7938409  74.3953967  58.3800104
 140.1584242  74.4688593  59.0921009 140.4635815  74.9847565  57.7019183
 146.0236758  68.8956350  64.5844426 146.7561930  68.3255566  64.8182255
 145.2676114  68.5077950  65.0250931 135.2981337  71.8573444  58.0761079
 135.1817595  71.1818347  58.7442163 135.4083597  71.3705818  57.2593232
 137.6412878  71.3183591  61.7807768 137.2771085  70.7914212  62.4920689
 138.4979994  70.9282060  61.6074253 143.5462179  62.6077924  69.0439034
 143.2145504  63.4773335  68.8200249 142.9507792  62.2914208  69.7233065
 137.2818365  66.3473491  56.7769117 137.4492767  67.2153727  57.1439588
 137.0915534  66.5100772  55.8530406 140.0393698  74.8090470  68.4434947
 139.7394421  75.7115508  68.3350754 139.6944758  74.5422653  69.2956100
 133.4906180  71.2604266  64.4771651 132.5656676  71.1280481  64.6849343
 133.7390593  72.0398486  64.9741594 143.4390842  67.3273010  66.1232384
 142.5307719  67.2588418  65.8291145 143.3878438  67.8044955  66.9514210
 137.2607586  68.8031148  57.7615783 137.1407211  69.2488199  58.6001264
 136.5660174  69.1516466  57.2029322 130.8514991  70.9037540  65.3115440
 130.9807372  71.1572019  66.2254852 130.1712442  71.4965248  64.9920095
 135.0214478  81.5734790  61.4105915 134.9438508  82.5242615  61.4894395
 134.4176122  81.2280662  62.0680841 137.5131708  68.7462655  74.0667282
 136.7365042  69.3056576  74.0570146 138.1522271  69.2319438  74.5882152
 145.3052488  65.5289448  67.9010258 144.6626869  65.8221981  67.2550053
 144.8007417  65.4142369  68.7063455 142.9592652  69.2752621  58.5896117
 143.8710508  69.5080008  58.4143815 142.4502299  69.8589666  58.0271196
 135.7678080  71.5548109  73.6285249 136.5092765  72.0933153  73.3520072
 135.0615066  72.1814397  73.7856800 141.2433420  73.6977249  72.2257410
 141.6516776  73.2559660  71.4812042 140.5210681  73.1229877  72.4791603
 137.5964490  68.6349856  69.5990967 138.4425685  69.0589270  69.7425616
 137.5363128  67.9783480  70.2929530 141.5662234  74.2578440  65.9809699
 140.9371097  74.4224154  65.2785767 141.1787897  74.6720049  66.7520663
 145.4451466  75.1932878  63.3354063 144.7602504  75.5731779  62.7851096
 145.5295316  75.8028204  64.0686010 140.7463935  66.2954224  71.2572141
 140.5024867  67.0496285  70.7206416 141.0223866  66.6739572  72.0919388
 142.7002398  72.8392837  69.9349406 142.9119293  73.4824597  69.2583787
 142.6532146  72.0055153  69.4671336 140.3028627  65.4510657  66.8385978
 139.4413106  65.7491911  67.1302716 140.3291062  65.6681056  65.9067011
 137.1190196  73.9952848  63.2459784 137.5828542  74.2740551  62.4564406
 136.8546994  73.0936292  63.0632875 134.0114277  73.5424329  66.1839547
 134.5815634  73.9711598  65.5457032 134.6022389  73.2606914  66.8823733
 136.0559082  70.1176000  60.0549349 136.7583126  70.5697044  60.5223275
 135.7239711  69.4759819  60.6829242 134.5039444  68.7087757  74.4300558
 133.8738104  69.3904038  74.6635955 134.3975532  68.5970839  73.4853697
 129.7984416  68.3759553  65.3566483 129.0083470  68.6317081  64.8806593
 130.2895664  69.1907891  65.4618523 143.8148226  75.7164792  68.1071764
 144.6365670  75.3144979  67.8254445 143.8110629  75.6133026  69.0587879
 131.7499162  68.7404132  62.3149959 130.9530325  68.8522826  62.8333455
 131.5224754  69.0790784  61.4490850 137.5804829  75.2648835  70.2632474
 137.6449262  75.7269243  71.0990646 136.8715753  74.6346200  70.3914784
 128.0822119  68.6290043  67.7881473 128.3330158  69.5137053  68.0539049
 128.6181668  68.4494645  67.0156565 151.9054219  72.0603541  64.4556735
 151.1517927  71.4910939  64.3000739 152.0401760  72.0266205  65.4027370
 137.2952847  76.9316943  60.1311454 137.1598522  77.7768479  60.5596302
 137.8362659  77.1336221  59.3677388 133.7820187  63.0108523  76.7925810
 133.3887132  62.4574721  77.4673454 134.5986327  63.3219101  77.1832327
 130.7482244  74.4492381  60.7039379 131.2606765  75.2435631  60.8544944
 131.4004957  73.7518671  60.6372981 132.5577129  77.5658137  62.7862133
 132.7343757  78.4876102  62.5983116 133.3533963  77.2516556  63.2156512
 136.6988148  64.4266402  74.3846066 137.4397861  65.0273555  74.3050529
 136.9306070  63.6844040  73.8264109 138.9221323  77.5540509  74.2611796
 138.4785178  76.7676888  73.9432701 139.5838537  77.7419660  73.5955687
 133.6808445  79.0836311  68.7872475 134.2315870  78.9553374  68.0149469
 132.8419920  79.3831200  68.4367368 141.0202561  77.8343309  72.2893198
 141.0021037  78.6552190  71.7973467 141.9422481  77.7097385  72.5143339
 140.6445311  60.4547505  68.6610348 140.3009580  61.3449146  68.5849458
 141.0124273  60.2649162  67.7979933 128.7131161  72.7781035  61.4798950
 129.5506383  73.1878044  61.2632658 128.8909429  71.8380477  61.4499144
 140.6095593  70.4456116  57.1682783 140.0942217  71.2160721  57.4071170
 140.3372902  69.7721252  57.7915844 138.1942704  65.2905817  62.2268021
 137.3384301  64.9012667  62.0473660 138.6069656  65.3697777  61.3667807
 139.7241851  62.8252160  66.6259581 139.2206647  62.7882295  65.8127386
 140.0172458  63.7344903  66.6856238 135.9684737  62.9090890  65.6325763
 136.8337734  62.7133698  65.2731652 136.0362246  62.6801241  66.5595120
 145.5829867  73.1988471  59.1035956 144.8059310  72.8599630  58.6591118
 146.2621348  73.2041094  58.4290921 140.3981896  68.3183208  58.9942564
 140.0932032  68.6329357  59.8452707 141.3512339  68.3964628  59.0369897
 138.8428328  74.4773431  60.6435518 138.3149690  73.7426191  60.3308756
 138.3415831  75.2548108  60.3975486 143.8221174  72.6722452  65.7602564
 143.1644849  73.3621713  65.8482693 144.6261574  73.0618884  66.1036551
 133.5747056  65.1393098  63.0042130 134.1490808  64.9168279  62.2715323
 134.1618038  65.2081792  63.7570731 142.6326633  71.0266824  63.8106506
 143.1458515  71.6596816  64.3128216 143.2827857  70.4268020  63.4449866
 133.9016643  67.1697559  57.0238015 133.0653955  67.5072245  57.3447290
 133.7621413  67.0346538  56.0865152 135.8769724  62.0134346  61.7317199
 135.2234136  61.6983364  61.1073814 135.8350198  61.3910087  62.4577022
 136.9880928  72.2953642  53.6470491 136.0807990  72.0642895  53.8461640
 137.4851960  71.4991261  53.8344473 139.8949007  81.0051149  56.5667177
 139.2210706  81.3082846  57.1752135 140.2814829  81.8080229  56.2172634
 139.1107464  68.5016280  66.0564847 138.1930025  68.7231227  65.8986535
 139.5267608  68.5762591  65.1976554 139.8942512  69.9007696  61.1867527
 140.6414331  70.4129093  60.8774649 140.1634101  69.5791748  62.0471920
 138.1669162  72.3966236  58.1694481 137.2580381  72.1125269  58.2666951
 138.1964246  72.8165315  57.3097788 143.3988429  76.0072826  61.9385649
 142.9450756  75.1663736  61.9950839 142.7682396  76.6434224  62.2760429
 142.3421349  66.9364812  63.1686316 141.6044106  66.4242198  63.4996559
 142.5948122  66.4965194  62.3569593 141.8421369  77.8449323  62.8735467
 142.1344343  78.4054380  62.1547833 142.3519989  78.1377884  63.6288626
 142.4432976  59.7141064  63.7628085 142.7491853  58.8538427  63.4754001
 143.1685581  60.3058684  63.5627079 128.7357332  70.1171751  62.1509683
 128.5381732  69.5241111  61.4260750 128.1803996  69.8123961  62.8685622
 136.7154056  70.0094857  64.2704277 136.7702666  69.0568693  64.1946753
 135.9045258  70.1654296  64.7545575 137.8645250  73.9374980  55.5082560
 137.4264680  73.2210839  55.0488197 138.6055691  74.1651095  54.9467651
 134.6546416  68.6271917  62.0294655 133.8414281  68.9266087  62.4359848
 135.1505410  68.2327606  62.7469138 136.8054994  78.6229674  63.9628920
 136.7631173  78.8490520  63.0337452 137.7217693  78.3893048  64.1114721
 140.2520628  69.0913741  70.8609549 140.6070015  69.3185214  71.7204015
 140.8992759  69.4232118  70.2386805 145.9818365  72.2132177  61.5658878
 145.8436263  72.4033773  60.6380068 145.6254583  72.9751560  62.0226929
 134.1460491  66.1990272  67.6455890 134.7859870  66.0579031  66.9478854
 133.3138021  65.9124786  67.2694492 146.0087744  74.2808704  66.5770150
 146.4424251  74.1883993  67.4253204 146.7219325  74.2566205  65.9390166
 134.9220795  75.4992703  63.7590883 135.7161393  75.0043023  63.5573458
 134.2112487  74.9710566  63.3958588 139.7415639  77.8810798  68.1103250
 139.7952661  78.4501735  68.8780966 138.8730420  78.0512683  67.7457288
 131.2303558  69.6435784  59.8350636 130.3001146  69.5820240  60.0520598
 131.3261030  69.1211737  59.0387277 131.1489107  66.1690597  62.4228877
 131.4095924  67.0835931  62.3138038 131.9706279  65.7015040  62.5725490
 132.6214032  67.5828354  69.5927702 133.2937086  67.3745717  68.9440351
 131.7943819  67.3850440  69.1532934 146.8703294  74.3232405  69.1103035
 147.0639184  75.2278215  69.3562310 146.7703912  73.8639824  69.9441620
 138.5239604  64.2090295  71.6093363 137.8767519  64.9080245  71.5157839
 139.2940620  64.6426439  71.9769611 141.9318402  74.4739148  74.6843916
 141.7803909  74.2449699  73.7674000 141.9223082  75.4309749  74.6975261
 138.7003739  72.0471060  69.6690182 139.6295799  72.1982220  69.4959150
 138.2794769  72.1355081  68.8138829 137.4992071  76.0721725  67.4388720
 137.3603156  75.7040509  68.3114658 136.7106667  76.5869364  67.2672678
 138.0940223  81.1730821  58.7814256 138.2691978  80.7018864  59.5959879
 137.4073011  81.7996587  59.0095517 139.0497286  75.4503327  64.8277558
 138.7147118  75.4104097  65.7235208 138.5501231  74.7848043  64.3547968
 141.9856477  72.7959362  55.1014617 141.3685648  72.0706190  55.0047670
 141.5172966  73.5568722  54.7581692 135.6523830  70.5690917  69.8413819
 136.3623449  69.9284109  69.8000437 135.6093138  70.8203812  70.7639999
 143.6410609  77.5058270  72.7620398 143.5823155  76.8217490  72.0950981
 144.0430127  78.2477260  72.3101024 134.3652764  67.5556135  71.6609458
 133.8290121  67.1046873  72.3131054 133.7769473  67.6902043  70.9179922
 132.6601308  84.3220184  65.5554117 132.8997906  84.9538708  66.2333135
 131.8170504  83.9708224  65.8419476 133.7755023  67.0144786  54.2235922
 132.8984490  66.8933587  53.8598168 134.2512776  66.2230864  53.9714810
 143.6428016  75.4697854  70.9934377 142.7554795  75.1323776  71.1160776
 144.2126567  74.7380885  71.2303143 125.2957163  71.8021946  64.3177429
 125.9828203  71.4883676  63.7298444 125.1405292  72.7063310  64.0444680
 137.1729170  80.1299306  67.9595621 137.0999341  80.9354278  68.4714925
 136.7306563  80.3291272  67.1343642 136.9618949  79.3671076  61.4698442
 136.1786471  79.9092757  61.5636667 137.6611694  79.8845056  61.8692683
 140.2715599  65.1765706  64.1132648 140.7684299  64.4235668  63.7933718
 139.5002581  65.2130023  63.5475857 148.1245357  70.8806071  65.7550939
 148.1135233  71.7630787  65.3844872 147.2562736  70.5277622  65.5605476
 139.6327853  80.0286140  70.1153779 140.3455825  80.6633605  70.0429681
 139.1417882  80.1250006  69.2993781 141.3545380  73.9337393  61.6871071
 140.4201659  74.0538856  61.5175775 141.5322049  73.0309860  61.4231081
 136.8550568  67.3183089  63.8404332 136.4848356  66.7654129  64.5285238
 137.3509661  66.7141222  63.2879332 144.7417931  69.7754712  62.2221105
 145.2078384  70.6082704  62.1481408 145.1925432  69.3099694  62.9266364
 134.6839767  77.7780584  70.9359350 135.3849226  78.4117067  71.0888744
 134.2134882  78.1195315  70.1754989 142.8094163  76.1198534  59.2207257
 143.0854006  76.0055128  60.1301131 141.9398661  75.7216019  59.1819430
 142.7134594  62.1435299  66.2612006 141.7997674  62.3739526  66.4294213
 143.1427696  62.2273743  67.1126039 142.4841053  70.3325191  68.7611900
 141.8312503  70.5801099  68.1064353 142.8621433  69.5189330  68.4274378
 139.4448227  80.3684885  62.8640071 139.6270621  79.5506540  63.3267823
 140.2681213  80.5852577  62.4264961 139.7790392  79.2953070  60.1255119
 140.3078158  78.7845524  59.5125281 140.0418612  78.9795600  60.9900652
 138.5328626  71.0745002  75.2477938 137.8569263  70.9739132  75.9180313
 139.3556260  70.9184216  75.7113935 133.1346140  80.3468186  62.8852895
 132.4656515  80.8314314  62.4016935 132.9959010  80.5937407  63.7996274
 124.8725140  69.8822539  66.5894896 124.9109239  69.3486130  67.3832014
 124.3665432  69.3557745  65.9705873 137.2751409  82.3811930  69.4835554
 137.8269717  82.5443551  70.2484639 137.6157602  82.9716368  68.8115578
 142.1262283  77.2073187  75.3384208 142.6702187  77.8203146  74.8439163
 141.5449128  77.7652766  75.8551221 128.5033717  68.6086641  59.6648827
 128.7987158  67.6997320  59.6115881 127.6021753  68.5874381  59.3429830
 140.4119796  80.3293905  66.4699236 140.2870935  79.5283645  65.9610181
 141.0698887  80.8240099  65.9813206 132.0327964  66.6842638  65.6476376
 131.3114550  67.2978606  65.5083849 132.8221220  67.2200403  65.5693022
 142.4754704  78.1302925  68.0978786 141.5285040  78.0108277  68.0257112
 142.8237477  77.2425424  68.1805047 134.8354278  64.0197064  71.9217028
 135.3588679  64.2659361  72.6843337 134.6166611  64.8517099  71.5020165
 130.2321559  66.2900739  59.7888152 129.9034265  65.4098118  59.6063258
 130.5860929  66.2348408  60.6764542 139.4801138  77.9255642  64.2983138
 139.3326100  76.9972349  64.4790708 140.3054631  77.9475732  63.8140213
 133.3463382  66.5773709  60.1563630 133.6859454  67.1059630  59.4342238
 133.7935502  66.9154115  60.9322197 143.0835259  78.7484200  65.3848011
 144.0081807  78.5427062  65.2472462 142.9150563  78.5000602  66.2937352
 136.0406823  64.9610759  69.6066698 135.7003643  64.1618573  70.0087378
 135.3345829  65.2612470  69.0343531 136.6923294  62.0460072  68.0594021
 137.5149364  61.5720550  67.9372912 136.9361358  62.8250556  68.5592707
 135.3331529  65.0748330  58.3556923 136.0539891  65.4529583  57.8520640
 134.7096833  65.7937207  58.4591901 139.4762652  65.7793479  59.2915255
 139.6926266  66.6618117  58.9904083 138.9956719  65.3879693  58.5620897
 134.2161873  68.7379193  65.8686000 134.0706454  69.0519496  66.7610281
 133.7387077  69.3564093  65.3156898 136.0758256  65.7281741  65.9166889
 136.0619825  64.8322834  65.5799187 136.7930684  65.7352404  66.5505175
 137.9284387  66.1619081  67.9620017 137.6702165  67.0836151  67.9604347
 137.3969427  65.7649515  68.6520481 142.8730576  79.2669868  60.7410102
 143.0467453  78.7016290  59.9883955 143.3659467  80.0670763  60.5589592
 135.4795152  64.6096121  61.1854460 135.6011063  63.6812767  61.3845347
 135.1897194  64.6234807  60.2732775 138.3486342  62.2951031  64.3221179
 138.3708039  62.3590364  63.3673159 138.7654401  61.4555540  64.5161686
 148.7269967  72.0306291  62.3600402 149.1701113  71.2813616  61.9619525
 147.8496477  72.0216427  61.9774134 143.8605748  78.5836632  57.8407000
 144.5556653  79.2043325  58.0594315 144.2028898  77.7331983  58.1159378
 145.7597171  76.0336338  59.3694331 146.2848495  76.3723611  58.6443651
 145.6719524  75.0983353  59.1857466 137.4217220  79.9470411  71.4984208
 137.7304346  79.7019558  72.3706907 138.2192702  80.1517050  71.0103078
 137.4437832  82.1008321  63.7289584 137.0042822  81.6084700  64.4222441
 138.1945949  81.5581289  63.4881660 129.9230171  78.2919862  63.7314212
 130.7488191  77.9923634  63.3512856 129.5724223  77.5227484  64.1804001
 134.8911704  77.6446330  65.8011886 134.2691713  76.9817035  65.5014114
 135.5616571  77.6707462  65.1185534 134.9636232  66.1228118  75.3944392
 135.0124387  66.9990241  75.0122162 135.5058746  65.5805511  74.8216035
 145.4491077  76.6669241  74.6745529 144.6586621  76.6493380  74.1350029
 145.2124432  77.2057535  75.4294566 145.5688952  73.5161708  71.9878258
 145.6186957  73.3511715  72.9293781 145.4602876  72.6488967  71.5976139
 134.4525211  76.1950254  59.2770347 134.6013331  76.8785718  58.6237019
 135.2591654  76.1755344  59.7919802 142.8592715  69.4992636  73.3037564
 143.7602577  69.3599101  73.0121562 142.9340689  69.6647091  74.2435742
 137.1935520  66.8759491  72.1490751 136.3238829  67.1693057  71.8773339
 137.4295000  67.4599936  72.8698014 147.0707149  75.9358649  72.2320279
 146.7791957  76.2988630  73.0683740 146.4579280  75.2225658  72.0533611
 148.2702831  73.5011529  64.7522849 149.1049723  73.9401333  64.9160410
 148.4061960  73.0250182  63.9331095 145.3194337  71.0591264  70.7000337
 145.7948459  71.2518910  69.8919189 144.3959903  71.1150450  70.4543721
 132.2077844  72.2215431  60.2831416 131.9623886  71.3177761  60.4811626
 132.3773759  72.2232582  59.3410894 139.8974554  63.0939108  69.6656171
 140.4156498  63.8300134  69.3402660 139.5429687  63.4003101  70.5002930
 131.4773492  67.9543789  57.7817577 130.7842736  68.0288144  57.1257613
 131.2325243  67.1904132  58.3039094 140.1487148  59.5139390  65.1857068
 140.4288902  58.8462579  65.8117494 140.9337755  59.7068486  64.6731732
 137.9520617  78.6898384  56.7482094 137.3794584  79.3088571  56.2952566
 138.5253410  79.2397746  57.2822016 144.0196006  67.9357024  68.9328643
 144.9713429  68.0355122  68.9540867 143.8499457  67.1435293  69.4426727
 142.0410386  65.0212607  69.1188044 141.4460318  65.3017620  68.4234532
 141.7560083  65.5106508  69.8904785 141.1717876  78.9735534  57.8790676
 142.1048549  78.9081096  58.0823552 141.0841089  79.8091801  57.4205209
 143.8005893  78.2901404  54.8394624 143.7219525  77.9561268  55.7330382
 144.6215560  78.7823172  54.8386096 146.4984084  71.1563144  68.0470943
 146.4660404  70.2179144  68.2330626 147.1084708  71.2347180  67.3136767
 138.3367415  70.0259197  54.0898147 139.2826520  69.8965405  54.1586565
 137.9581660  69.2873859  54.5667575 146.6478573  67.9474187  68.0929226
 146.1317621  67.1632644  67.9059155 147.5318521  67.6192904  68.2575745
 144.3089300  61.6915203  64.0525038 144.1114121  61.3830291  64.9368370
 144.9189005  62.4176842  64.1822968 152.3160634  72.2179151  67.1876979
 153.0464022  71.9564439  67.7484683 151.7067580  71.4807873  67.2279047
 150.3975931  70.3587013  67.7851430 149.6709095  70.2242978  67.1767922
 149.9823218  70.6663842  68.5908149 138.2206108  74.0776943  75.5498804
 139.1409117  74.2555542  75.7438850 138.1855691  73.1332988  75.3978503
 136.5210332  67.9509173  54.0253032 135.6141788  67.6542286  54.1015745
 136.7986313  67.6538991  53.1587318 127.4388273  69.2715537  64.4752078
 127.1191057  68.4180845  64.1826452 126.8921701  69.4864115  65.2310045
 138.1372398  62.4946063  60.1797273 137.3273126  62.1493148  60.5552519
 138.8256815  62.1853607  60.7684885 140.0662946  61.5724110  61.8021570
 140.6193985  61.9919563  62.4611593 140.3033033  60.6459858  61.8444526
 136.0896045  67.5611183  77.5824334 135.9892772  68.5105540  77.5136425
 135.8717587  67.2329422  76.7100404 135.2909117  64.8096108  54.1665011
 136.1528281  65.1351007  54.4260828 135.4759461  64.0227604  53.6538077
 127.3076533  72.8918448  66.4445200 126.6140004  72.4772401  65.9315154
 128.0549524  72.9338985  65.8478619 143.4441753  63.6824635  61.3100234
 142.8640422  64.3409439  60.9278286 143.1777686  62.8601979  60.8987651
 141.8945320  63.0829692  63.5121554 142.3945098  63.1946227  62.7035873
 142.5380928  62.7790745  64.1522363 135.9527315  70.9908322  76.3989395
 135.4694397  71.7908682  76.6053284 136.0388255  71.0016267  75.4456839
 129.2213275  72.8236702  64.3211215 129.1983963  72.9224389  63.3693098
 129.5313912  73.6701853  64.6428381 131.8800653  74.8812857  68.4357829
 132.8343907  74.8496799  68.3687761 131.6813177  74.4203481  69.2508055
 142.2266631  65.8424725  60.3656582 141.3392486  66.1274376  60.1476777
 142.6420620  65.6818489  59.5183859 145.5781167  65.8671246  64.0810921
 146.3541558  66.3567699  64.3535538 144.8529302  66.2929300  64.5382791
 148.0153726  66.5798865  65.1384862 148.6098217  66.3394601  64.4278170
 148.0880310  65.8605996  65.7658398 141.3709845  75.6069400  54.4604602
 142.0745695  75.8119402  55.0762258 140.6472494  76.1746162  54.7253686
 142.2007655  71.3579261  60.5806872 142.1442856  71.8147813  59.7414505
 142.7535998  70.5969946  60.4029715 146.0112461  67.1468993  61.4056992
 145.7549395  66.7465629  62.2365200 145.3865329  67.8612787  61.2807131
 150.3224799  69.8865066  63.9128283 149.7624357  69.9558256  64.6859845
 149.7168302  69.7106051  63.1927780 133.3920008  81.3201793  65.6646470
 133.2752392  82.2647226  65.5625160 132.5712454  81.0175355  66.0532269
 143.2796542  76.0451929  56.5103062 144.1142146  75.6133128  56.3280537
 143.1180885  75.8733943  57.4379957 142.9342434  72.5484042  57.8759402
 142.8791238  72.3828314  56.9347846 142.3088490  73.2560075  58.0321591
 140.2488342  74.8532954  77.2012964 141.1179501  75.0273606  76.8399599
 139.7695093  75.6727371  77.0788694 136.2438560  62.0492151  57.4544720
 136.2317230  62.9933991  57.6112991 137.1361982  61.8662297  57.1604181
 134.4174522  81.9730055  68.8802398 135.3201768  82.0053665  69.1968893
 134.1911892  81.0430506  68.8948734 136.1728124  80.7261042  65.5412477
 135.2223755  80.7262903  65.4276849 136.4760610  79.9793776  65.0248511
 140.0590679  58.6434928  61.7090657 139.2923075  58.0893415  61.8547339
 140.4701384  58.7156797  62.5704808 151.9080817  86.5621580  66.6058239
 152.5459227  86.4428327  65.9021579 151.7901660  87.5102424  66.6646191
 148.7170524  86.5149008  66.5419764 148.3789035  86.3990073  65.6540299
 149.5860292  86.1140173  66.5220770 144.5757339  88.3684485  62.5316655
 144.0122204  88.2774422  61.7632942 144.4609734  87.5484389  63.0119147
 149.1990307  87.6683860  72.5005969 149.1878947  87.2736658  71.6286473
 149.3610946  86.9349933  73.0939741 142.1221771  89.8635676  65.3700875
 142.9143063  89.5226501  64.9547174 142.3618421  89.9730651  66.2903028
 150.1556898  92.0355452  57.8431120 149.5044878  92.6209533  57.4565133
 150.9501261  92.5661647  57.9026157 144.0812525  89.1244590  58.2418254
 144.8543401  88.5773577  58.1031130 144.4337924  89.9888839  58.4532715
 145.9197568  90.4520972  71.4485153 145.6287434  91.3566603  71.3331820
 146.5554552  90.4937499  72.1629223 146.8453775  87.8297820  68.0386513
 147.4417347  87.6053843  67.3243476 146.9028746  87.0882566  68.6411961
 146.4178803  85.2837256  55.8736704 146.6704324  84.7618777  55.1120167
 145.4803362  85.1203401  55.9763387 151.4622086  84.2873034  63.6811447
 152.2485175  83.8692457  63.3301864 151.7260790  85.1919126  63.8493095
 151.6332163  89.7245884  58.3800104 150.9977996  89.7980511  59.0921009
 151.3029570  90.3139483  57.7019183 146.1375092  87.1865362  58.0761079
 146.0211350  86.5110265  58.7442163 146.2477352  86.6997736  57.2593232
 148.4806633  86.6475509  61.7807768 148.1164840  86.1206130  62.4920689
 149.3373749  86.2573978  61.6074253 154.3855933  77.9369841  69.0439034
 154.0539258  78.8065252  68.8200249 153.7901547  77.6206125  69.7233065
 148.1212120  81.6765408  56.7769117 148.2886522  82.5445645  57.1439588
 147.9309289  81.8392690  55.8530406 150.8787453  90.1382387  68.4434947
 150.5788176  91.0407426  68.3350754 150.5338512  89.8714570  69.2956100
 144.3299934  86.5896184  64.4771651 143.4050431  86.4572398  64.6849343
 144.5784347  87.3690403  64.9741594 154.2784597  82.6564927  66.1232384
 153.3701474  82.5880336  65.8291145 154.2272192  83.1336872  66.9514210
 148.1001340  84.1323066  57.7615783 147.9800966  84.5780117  58.6001264
 147.4053929  84.4808384  57.2029322 141.6908745  86.2329458  65.3115440
 141.8201126  86.4863937  66.2254852 141.0106197  86.8257166  64.9920095
 145.8608233  96.9026708  61.4105915 145.7832262  97.8534533  61.4894395
 145.2569876  96.5572580  62.0680841 148.3525462  84.0754573  74.0667282
 147.5758796  84.6348493  74.0570146 148.9916025  84.5611356  74.5882152
 156.1446243  80.8581366  67.9010258 155.5020623  81.1513899  67.2550053
 155.6401171  80.7434286  68.7063455 153.7986407  84.6044539  58.5896117
 154.7104263  84.8371926  58.4143815 153.2896054  85.1881583  58.0271196
 146.6071835  86.8840026  73.6285249 147.3486519  87.4225070  73.3520072
 145.9008820  87.5106315  73.7856800 152.0827174  89.0269167  72.2257410
 152.4910530  88.5851577  71.4812042 151.3604436  88.4521794  72.4791603
 148.4358244  83.9641774  69.5990967 149.2819440  84.3881187  69.7425616
 148.3756882  83.3075398  70.2929530 152.4055989  89.5870358  65.9809699
 151.7764851  89.7516072  65.2785767 152.0181651  90.0011967  66.7520663
 156.2845221  90.5224795  63.3354063 155.5996259  90.9023697  62.7851096
 156.3689070  91.1320122  64.0686010 151.5857690  81.6246142  71.2572141
 151.3418622  82.3788203  70.7206416 151.8617620  82.0031490  72.0919388
 153.5396152  88.1684754  69.9349406 153.7513048  88.8116514  69.2583787
 153.4925901  87.3347071  69.4671336 151.1422381  80.7802575  66.8385978
 150.2806860  81.0783829  67.1302716 151.1684816  80.9972974  65.9067011
 147.9583951  89.3244766  63.2459784 148.4222296  89.6032469  62.4564406
 147.6940749  88.4228210  63.0632875 144.8508032  88.8716247  66.1839547
 145.4209389  89.3003516  65.5457032 145.4416144  88.5898832  66.8823733
 146.8952837  85.4467918  60.0549349 147.5976880  85.8988962  60.5223275
 146.5633465  84.8051737  60.6829242 145.3433198  84.0379675  74.4300558
 144.7131859  84.7195955  74.6635955 145.2369286  83.9262756  73.4853697
 140.6378171  83.7051471  65.3566483 139.8477225  83.9608999  64.8806593
 141.1289418  84.5199808  65.4618523 154.6541980  91.0456710  68.1071764
 155.4759424  90.6436897  67.8254445 154.6504383  90.9424944  69.0587879
 142.5892916  84.0696050  62.3149959 141.7924079  84.1814744  62.8333455
 142.3618508  84.4082702  61.4490850 148.4198584  90.5940753  70.2632474
 148.4843016  91.0561160  71.0990646 147.7109508  89.9638118  70.3914784
 138.9215874  83.9581961  67.7881473 139.1723912  84.8428971  68.0539049
 139.4575422  83.7786563  67.0156565 148.1346601  92.2608861  60.1311454
 147.9992276  93.1060396  60.5596302 148.6756414  92.4628138  59.3677388
 144.6213941  78.3400440  76.7925810 144.2280887  77.7866639  77.4673454
 145.4380081  78.6511019  77.1832327 141.5875999  89.7784299  60.7039379
 142.1000519  90.5727549  60.8544944 142.2398712  89.0810589  60.6372981
 143.3970884  92.8950055  62.7862133 143.5737512  93.8168020  62.5983116
 144.1927717  92.5808474  63.2156512 147.5381902  79.7558320  74.3846066
 148.2791615  80.3565473  74.3050529 147.7699825  79.0135957  73.8264109
 142.6823240  84.9414687  72.6624296 142.5676755  84.0399944  72.9631395
 141.8267758  85.1878384  72.3109112 149.7615078  92.8832427  74.2611796
 149.3178932  92.0968806  73.9432701 150.4232291  93.0711578  73.5955687
 144.5202199  94.4128229  68.7872475 145.0709624  94.2845292  68.0149469
 143.6813675  94.7123118  68.4367368 151.8596316  93.1635227  72.2893198
 151.8414791  93.9844108  71.7973467 152.7816236  93.0389302  72.5143339
 148.3169370  90.6779357  73.1316706 148.8497707  89.9167645  72.9016014
 147.7883451  90.3853008  73.8740861 151.4839065  75.7839422  68.6610348
 151.1403334  76.6741064  68.5849458 151.8518028  75.5941080  67.7979933
 139.5524916  88.1072953  61.4798950 140.3900138  88.5169961  61.2632658
 139.7303183  87.1672395  61.4499144 151.4489348  85.7748034  57.1682783
 150.9335971  86.5452638  57.4071170 151.1766656  85.1013170  57.7915844
 149.0336459  80.6197734  62.2268021 148.1778055  80.2304585  62.0473660
 149.4463411  80.6989695  61.3667807 150.5635605  78.1544078  66.6259581
 150.0600401  78.1174213  65.8127386 150.8566212  79.0636820  66.6856238
 146.8078491  78.2382807  65.6325763 147.6731488  78.0425616  65.2731652
 146.8756000  78.0093159  66.5595120 151.2375651  83.6475126  58.9942564
 150.9325787  83.9621275  59.8452707 152.1906093  83.7256546  59.0369897
 149.6822083  89.8065349  60.6435518 149.1543444  89.0718109  60.3308756
 149.1809586  90.5840025  60.3975486 154.6614929  88.0014369  65.7602564
 154.0038603  88.6913631  65.8482693 155.4655328  88.3910801  66.1036551
 144.4140810  80.4685015  63.0042130 144.9884562  80.2460197  62.2715323
 145.0011793  80.5373710  63.7570731 153.4720388  86.3558742  63.8106506
 153.9852269  86.9888734  64.3128216 154.1221611  85.7559938  63.4449866
 144.7410398  82.4989476  57.0238015 143.9047710  82.8364163  57.3447290
 144.6015167  82.3638456  56.0865152 146.7163478  77.3426264  61.7317199
 146.0627890  77.0275281  61.1073814 146.6743952  76.7202005  62.4577022
 147.8274683  87.6245559  53.6470491 146.9201745  87.3934813  53.8461640
 148.3245715  86.8283179  53.8344473 150.7342762  96.3343066  56.5667177
 150.0604461  96.6374763  57.1752135 151.1208584  97.1372147  56.2172634
 149.9501218  83.8308198  66.0564847 149.0323780  84.0523145  65.8986535
 150.3661362  83.9054508  65.1976554 150.7336266  85.2299613  61.1867527
 151.4808085  85.7421011  60.8774649 151.0027856  84.9083666  62.0471920
 149.0062916  87.7258154  58.1694481 148.0974136  87.4417187  58.2666951
 149.0358000  88.1457233  57.3097788 154.2382184  91.3364744  61.9385649
 153.7844511  90.4955654  61.9950839 153.6076151  91.9726142  62.2760429
 153.1815103  82.2656730  63.1686316 152.4437860  81.7534116  63.4996559
 153.4341877  81.8257111  62.3569593 152.6815123  93.1741240  62.8735467
 152.9738097  93.7346297  62.1547833 153.1913744  93.4669801  63.6288626
 153.2826731  75.0432982  63.7628085 153.5885608  74.1830345  63.4754001
 154.0079336  75.6350602  63.5627079 139.5751087  85.4463668  62.1509683
 139.3775487  84.8533029  61.4260750 139.0197751  85.1415878  62.8685622
 147.5547810  85.3386775  64.2704277 147.6096420  84.3860611  64.1946753
 146.7439012  85.4946214  64.7545575 148.7039004  89.2666898  55.5082560
 148.2658434  88.5502757  55.0488197 149.4449445  89.4943013  54.9467651
 145.4940170  83.9563834  62.0294655 144.6808036  84.2558005  62.4359848
 145.9899165  83.5619523  62.7469138 147.6448748  93.9521591  63.9628920
 147.6024927  94.1782438  63.0337452 148.5611447  93.7184966  64.1114721
 151.0914382  84.4205659  70.8609549 151.4463770  84.6477132  71.7204015
 151.7386513  84.7524036  70.2386805 144.9854245  81.5282190  67.6455890
 145.6253624  81.3870949  66.9478854 144.1531776  81.2416703  67.2694492
 145.7614549  90.8284620  63.7590883 146.5555148  90.3334941  63.5573458
 145.0506241  90.3002484  63.3958588 150.5809394  93.2102716  68.1103250
 150.6346416  93.7793652  68.8780966 149.7124175  93.3804601  67.7457288
 142.0697312  84.9727702  59.8350636 141.1394901  84.9112158  60.0520598
 142.1654784  84.4503655  59.0387277 141.9882862  81.4982515  62.4228877
 142.2489679  82.4127848  62.3138038 142.8100034  81.0306958  62.5725490
 143.4607787  82.9120272  69.5927702 144.1330840  82.7037634  68.9440351
 142.6337573  82.7142358  69.1532934 149.3633359  79.5382213  71.6093363
 148.7161274  80.2372163  71.5157839 150.1334374  79.9718357  71.9769611
 152.7712157  89.8031065  74.6843916 152.6197663  89.5741617  73.7674000
 152.7616836  90.7601667  74.6975261 149.5397493  87.3762978  69.6690182
 150.4689553  87.5274138  69.4959150 149.1188523  87.4646999  68.8138829
 148.3385825  91.4013642  67.4388720 148.1996911  91.0332427  68.3114658
 147.5500421  91.9161282  67.2672678 148.9333977  96.5022739  58.7814256
 149.1085733  96.0310782  59.5959879 148.2466765  97.1288505  59.0095517
 149.8891040  90.7795245  64.8277558 149.5540873  90.7396015  65.7235208
 149.3894986  90.1139961  64.3547968 143.8635284  86.1862875  70.3530139
 143.7255082  85.4543114  70.9541678 144.7740208  86.0971775  70.0714327
 152.8250232  88.1251279  55.1014617 152.2079402  87.3998108  55.0047670
 152.3566720  88.8860640  54.7581692 146.4917585  85.8982834  69.8413819
 147.2017203  85.2576027  69.8000437 146.4486893  86.1495729  70.7639999
 154.4804363  92.8350188  72.7620398 154.4216910  92.1509408  72.0950981
 154.8823882  93.5769178  72.3101024 145.2046519  82.8848052  71.6609458
 144.6683876  82.4338791  72.3131054 144.6163227  83.0193961  70.9179922
 143.4995062  99.6512102  65.5554117 143.7391661 100.2830626  66.2333135
 142.6564259  99.3000142  65.8419476 144.6148778  82.3436704  54.2235922
 143.7378244  82.2225505  53.8598168 145.0906531  81.5522782  53.9714810
 154.4821771  90.7989772  70.9934377 153.5948550  90.4615694  71.1160776
 155.0520322  90.0672803  71.2303143 136.1350918  87.1313863  64.3177429
 136.8221958  86.8175594  63.7298444 135.9799047  88.0355228  64.0444680
 140.9385640  82.0204060  68.7462452 140.8543829  81.4129730  68.0112862
 140.1168346  82.5113078  68.7471949 148.0122924  95.4591224  67.9595621
 147.9393096  96.2646196  68.4714925 147.5700317  95.6583190  67.1343642
 147.8012704  94.6962994  61.4698442 147.0180226  95.2384674  61.5636667
 148.5005449  95.2136974  61.8692683 151.1109354  80.5057624  64.1132648
 151.6078053  79.7527586  63.7933718 150.3396335  80.5421940  63.5475857
 150.4721608  95.3578058  70.1153779 151.1849580  95.9925523  70.0429681
 149.9811636  95.4541924  69.2993781 152.1939135  89.2629311  61.6871071
 151.2595413  89.3830773  61.5175775 152.3715803  88.3601778  61.4231081
 147.6944323  82.6475007  63.8404332 147.3242110  82.0946047  64.5285238
 148.1903415  82.0433140  63.2879332 155.5811686  85.1046630  62.2221105
 156.0472138  85.9374622  62.1481408 156.0319186  84.6391612  62.9266364
 145.5233521  93.1072502  70.9359350 146.2242981  93.7408985  71.0888744
 145.0528636  93.4487233  70.1754989 153.6487917  91.4490451  59.2207257
 153.9247761  91.3347046  60.1301131 152.7792416  91.0507936  59.1819430
 153.5528349  77.4727217  66.2612006 152.6391428  77.7031444  66.4294213
 153.9821450  77.5565661  67.1126039 153.3234807  85.6617109  68.7611900
 152.6706257  85.9093016  68.1064353 153.7015187  84.8481247  68.4274378
 150.2841981  95.6976802  62.8640071 150.4664376  94.8798458  63.3267823
 151.1074967  95.9144494  62.4264961 150.6184147  94.6244987  60.1255119
 151.1471913  94.1137442  59.5125281 150.8812366  94.3087518  60.9900652
 149.3722380  86.4036920  75.2477938 148.6963017  86.3031049  75.9180313
 150.1950014  86.2476134  75.7113935 141.1201239  92.6408857  67.8690453
 141.7054676  91.8952545  68.0018357 140.9226078  92.9512813  68.7527117
 143.9739894  95.6760104  62.8852895 143.3050270  96.1606232  62.4016935
 143.8352764  95.9229324  63.7996274 135.7118894  85.2114457  66.5894896
 135.7502994  84.6778048  67.3832014 135.2059187  84.6849662  65.9705873
 148.1145163  97.7103848  69.4835554 148.6663471  97.8735469  70.2484639
 148.4551357  98.3008285  68.8115578 143.0909656  80.0578997  70.0857438
 143.1550983  80.9193828  69.6734836 143.0276777  79.4452999  69.3529797
 142.5661929  82.1302130  73.7330472 143.1933968  81.7479207  74.3467997
 141.7089848  81.9116332  74.0986165 152.9656037  92.5365105  75.3384208
 153.5095941  93.1495063  74.8439163 152.3842882  93.0944683  75.8551221
 139.3427472  83.9378559  59.6648827 139.6380913  83.0289237  59.6115881
 138.4415507  83.9166298  59.3429830 151.2513550  95.6585823  66.4699236
 151.1264690  94.8575563  65.9610181 151.9092641  96.1532016  65.9813206
 142.8721719  82.0134556  65.6476376 142.1508304  82.6270523  65.5083849
 143.6614974  82.5492320  65.5693022 153.3148459  93.4594843  68.0978786
 152.3678794  93.3400194  68.0257112 153.6631232  92.5717341  68.1805047
 145.6748032  79.3488982  71.9217028 146.1982434  79.5951279  72.6843337
 145.4560365  80.1809017  71.5020165 141.0715313  81.6192657  59.7888152
 140.7428019  80.7390036  59.6063258 141.4254684  81.5640325  60.6764542
 150.3194892  93.2547559  64.2983138 150.1719854  92.3264267  64.4790708
 151.1448386  93.2767650  63.8140213 144.1857136  81.9065626  60.1563630
 144.5253209  82.4351548  59.4342238 144.6329257  82.2446033  60.9322197
 153.9229014  94.0776118  65.3848011 154.8475561  93.8718979  65.2472462
 153.7544317  93.8292519  66.2937352 146.8800577  80.2902677  69.6066698
 146.5397398  79.4910490  70.0087378 146.1739583  80.5904388  69.0343531
 147.5317049  77.3751990  68.0594021 148.3543118  76.9012468  67.9372912
 147.7755112  78.1542473  68.5592707 146.1725283  80.4040248  58.3556923
 146.8933646  80.7821501  57.8520640 145.5490588  81.1229125  58.4591901
 150.3156406  81.1085397  59.2915255 150.5320021  81.9910035  58.9904083
 149.8350473  80.7171610  58.5620897 145.0555628  84.0671110  65.8686000
 144.9100208  84.3811413  66.7610281 144.5780831  84.6856011  65.3156898
 146.9152011  81.0573658  65.9166889 146.9013579  80.1614752  65.5799187
 147.6324439  81.0644322  66.5505175 148.7678141  81.4910998  67.9620017
 148.5095919  82.4128069  67.9604347 148.2363182  81.0941433  68.6520481
 153.7124330  94.5961786  60.7410102 153.8861208  94.0308208  59.9883955
 154.2053221  95.3962680  60.5589592 139.5301290  86.6076455  68.8073661
 138.9854758  87.3836263  68.9393935 140.4080640  86.9547259  68.6492782
 146.3188907  79.9388038  61.1854460 146.4404818  79.0104685  61.3845347
 146.0290949  79.9526724  60.2732775 149.1880097  77.6242949  64.3221179
 149.2101794  77.6882282  63.3673159 149.6048156  76.7847458  64.5161686
 154.6999503  93.9128550  57.8407000 155.3950407  94.5335243  58.0594315
 155.0422653  93.0623901  58.1159378 140.3167312  85.7346351  71.7003818
 139.5749048  85.8828986  72.2868448 139.9960056  85.9954617  70.8370567
 148.2610974  95.2762329  71.4984208 148.5698101  95.0311476  72.3706907
 149.0586456  95.4808968  71.0103078 148.2831586  97.4300239  63.7289584
 147.8436577  96.9376617  64.4222441 149.0339703  96.8873206  63.4881660
 140.7623925  93.6211780  63.7314212 141.5881945  93.3215551  63.3512856
 140.4117977  92.8519402  64.1804001 145.7305459  92.9738248  65.8011886
 145.1085468  92.3108953  65.5014114 146.4010325  92.9999380  65.1185534
 138.9632530  91.5398106  64.6903146 138.1264439  91.1120280  64.5087147
 138.9356176  91.7330549  65.6273937 145.8029986  81.4520036  75.3944392
 145.8518142  82.3282159  75.0122162 146.3452500  80.9097429  74.8216035
 156.2884832  91.9961159  74.6745529 155.4980375  91.9785298  74.1350029
 156.0518186  92.5349453  75.4294566 156.4082707  88.8453625  71.9878258
 156.4580712  88.6803633  72.9293781 156.2996630  87.9780885  71.5976139
 145.2918965  91.5242171  59.2770347 145.4407086  92.2077636  58.6237019
 146.0985409  91.5047261  59.7919802 153.6986469  84.8284554  73.3037564
 154.5996332  84.6891018  73.0121562 153.7734444  84.9939008  74.2435742
 148.0329275  82.2051408  72.1490751 147.1632584  82.4984974  71.8773339
 148.2688755  82.7891853  72.8698014 156.1588092  86.3883182  70.7000337
 156.6342213  86.5810828  69.8919189 155.2353657  86.4442367  70.4543721
 143.0471598  87.5507349  60.2831416 142.8017640  86.6469679  60.4811626
 143.2167513  87.5524499  59.3410894 150.7368308  78.4231025  69.6656171
 151.2550252  79.1592052  69.3402660 150.3823441  78.7295018  70.5002930
 142.3167246  83.2835706  57.7817577 141.6236491  83.3580061  57.1257613
 142.0718998  82.5196050  58.3039094 150.9880903  74.8431308  65.1857068
 151.2682656  74.1754497  65.8117494 151.7731509  75.0360403  64.6731732
 148.7914371  94.0190302  56.7482094 148.2188338  94.6380489  56.2952566
 149.3647165  94.5689663  57.2822016 154.8589761  83.2648942  68.9328643
 155.8107184  83.3647039  68.9540867 154.6893211  82.4727210  69.4426727
 152.8804140  80.3504525  69.1188044 152.2854072  80.6309538  68.4234532
 152.5953837  80.8398426  69.8904785 152.0111631  94.3027452  57.8790676
 152.9442304  94.2373013  58.0823552 151.9234844  95.1383719  57.4205209
 154.6399647  93.6193322  54.8394624 154.5613279  93.2853186  55.7330382
 155.4609314  94.1115090  54.8386096 149.1761170  85.3551114  54.0898147
 150.1220274  85.2257322  54.1586565 148.7975414  84.6165776  54.5667575
 155.1483054  77.0207120  64.0525038 154.9507875  76.7122209  64.9368370
 155.7582760  77.7468759  64.1822968 149.0599862  89.4068861  75.5498804
 149.9802872  89.5847460  75.7438850 149.0249445  88.4624906  75.3978503
 147.3604087  83.2801091  54.0253032 146.4535542  82.9834203  54.1015745
 147.6380068  82.9830909  53.1587318 138.2782027  84.6007454  64.4752078
 137.9584811  83.7472762  64.1826452 137.7315455  84.8156032  65.2310045
 142.0561935  87.3169895  68.1921585 142.2747944  88.2487003  68.2109618
 142.4687708  86.9577870  68.9776389 148.9766152  77.8237980  60.1797273
 148.1666881  77.4785065  60.5552519 149.6650569  77.5145524  60.7684885
 150.9056701  76.9016027  61.8021570 151.4587739  77.3211481  62.4611593
 151.1426787  75.9751775  61.8444526 146.9289800  82.8903101  77.5824334
 146.8286527  83.8397458  77.5136425 146.7111342  82.5621340  76.7100404
 146.1302871  80.1388026  54.1665011 146.9922035  80.4642924  54.4260828
 146.3153215  79.3519522  53.6538077 138.1470287  88.2210366  66.4445200
 137.4533758  87.8064318  65.9315154 138.8943278  88.2630902  65.8478619
 154.2835508  79.0116552  61.3100234 153.7034177  79.6701356  60.9278286
 154.0171440  78.1893897  60.8987651 152.7339074  78.4121610  63.5121554
 153.2338853  78.5238145  62.7035873 153.3774682  78.1082663  64.1522363
 146.7921070  86.3200240  76.3989395 146.3088152  87.1200600  76.6053284
 146.8782009  86.3308185  75.4456839 140.0607030  88.1528619  64.3211215
 140.0377718  88.2516307  63.3693098 140.3707666  88.9993770  64.6428381
 142.7194407  90.2104774  68.4357829 143.6737661  90.1788717  68.3687761
 142.5206931  89.7495398  69.2508055 143.3093790  88.7805891  71.0028627
 144.1286679  89.2749969  71.0263464 143.5830597  87.8637859  70.9746194
 153.0660386  81.1716643  60.3656582 152.1786241  81.4566293  60.1476777
 153.4814375  81.0110406  59.5183859 141.0744636  95.7524394  65.4528027
 140.9399104  94.9924795  64.8866025 140.6576699  96.4765294  64.9856816
 152.2103599  90.9361317  54.4604602 152.9139449  91.1411320  55.0762258
 151.4866248  91.5038079  54.7253686 153.0401410  86.6871179  60.5806872
 152.9836611  87.1439730  59.7414505 153.5929752  85.9261863  60.4029715
 144.2313762  96.6493711  65.6646470 144.1146146  97.5939143  65.5625160
 143.4106208  96.3467273  66.0532269 154.1190297  91.3743847  56.5103062
 154.9535901  90.9425045  56.3280537 153.9574640  91.2025860  57.4379957
 153.7736189  87.8775960  57.8759402 153.7184993  87.7120231  56.9347846
 153.1482244  88.5851993  58.0321591 138.5628704  83.1144024  71.7020824
 139.2087567  82.6042978  72.1908049 138.3545855  83.8512706  72.2764249
 151.0882096  90.1824872  77.2012964 151.9573256  90.3565524  76.8399599
 150.6088848  91.0019289  77.0788694 147.0832314  77.3784069  57.4544720
 147.0710984  78.3225909  57.6112991 147.9755736  77.1954214  57.1604181
 145.2568276  97.3021973  68.8802398 146.1595523  97.3345583  69.1968893
 145.0305646  96.3722424  68.8948734 147.0121878  96.0552959  65.5412477
 146.0617509  96.0554821  65.4276849 147.3154364  95.3085694  65.0248511
 150.8984434  73.9726846  61.7090657 150.1316830  73.4185332  61.8547339
 151.3095139  74.0448714  62.5704808 142.9026195  80.2611641  75.7995838
 143.7657656  79.9048446  76.0099163 142.3291605  79.9225536  76.4871242
 155.4151094 103.6976402  62.5316655 154.8515959 103.6066339  61.7632942
 155.3003489 102.8776307  63.0119147 152.9615526 105.1927594  65.3700875
 153.7536818 104.8518419  64.9547174 153.2012176 105.3022569  66.2903028
 154.9206280 104.4536507  58.2418254 155.6937156 103.9065494  58.1031130
 155.2731678 105.3180757  58.4532715 155.1693689 101.9188102  64.4771651
 154.2444185 101.7864316  64.6849343 155.4178102 102.6982321  64.9741594
 152.5302500 101.5621375  65.3115440 152.6594881 101.8155854  66.2254852
 151.8499951 102.1549083  64.9920095 155.6901786 104.2008165  66.1839547
 156.2603143 104.6295433  65.5457032 156.2809898 103.9190750  66.8823733
 156.1826953  99.3671592  74.4300558 155.5525613 100.0487873  74.6635955
 156.0763041  99.2554674  73.4853697 151.4771925  99.0343388  65.3566483
 150.6870979  99.2900917  64.8806593 151.9683173  99.8491726  65.4618523
 153.4286671  99.3987968  62.3149959 152.6317834  99.5106662  62.8333455
 153.2012263  99.7374620  61.4490850 149.7609628  99.2873879  67.7881473
 150.0117667 100.1720889  68.0539049 150.2969177  99.1078480  67.0156565
 155.4607696  93.6692358  76.7925810 155.0674641  93.1158557  77.4673454
 156.2773836  93.9802937  77.1832327 152.4269753 105.1076216  60.7039379
 152.9394274 105.9019467  60.8544944 153.0792466 104.4102507  60.6372981
 154.2364638 108.2241973  62.7862133 154.4131266 109.1459937  62.5983116
 155.0321472 107.9100392  63.2156512 153.5216995 100.2706604  72.6624296
 153.4070510  99.3691862  72.9631395 152.6661512 100.5170301  72.3109112
 155.3595954 109.7420146  68.7872475 155.9103379 109.6137210  68.0149469
 154.5207429 110.0415035  68.4367368 150.3918670 103.4364871  61.4798950
 151.2293892 103.8461879  61.2632658 150.5696938 102.4964313  61.4499144
 155.2534565  95.7976933  63.0042130 155.8278317  95.5752114  62.2715323
 155.8405547  95.8665627  63.7570731 155.5804152  97.8281394  57.0238015
 154.7441464  98.1656081  57.3447290 155.4408922  97.6930374  56.0865152
 150.4144841 100.7755586  62.1509683 150.2169241 100.1824947  61.4260750
 149.8591505 100.4707796  62.8685622 155.8248000  96.8574108  67.6455890
 156.4647379  96.7162867  66.9478854 154.9925530  96.5708621  67.2694492
 152.9091067 100.3019620  59.8350636 151.9788655 100.2404075  60.0520598
 153.0048539  99.7795573  59.0387277 152.8276616  96.8274433  62.4228877
 153.0883433  97.7419766  62.3138038 153.6493788  96.3598875  62.5725490
 154.3001541  98.2412190  69.5927702 154.9724595  98.0329552  68.9440351
 153.4731328  98.0434276  69.1532934 154.7029039 101.5154793  70.3530139
 154.5648837 100.7835032  70.9541678 155.6133962 101.4263693  70.0714327
 156.0440273  98.2139970  71.6609458 155.5077630  97.7630708  72.3131054
 155.4556982  98.3485879  70.9179922 154.3388817 114.9804019  65.5554117
 154.5785415 115.6122543  66.2333135 153.4958013 114.6292059  65.8419476
 155.4542532  97.6728621  54.2235922 154.5771999  97.5517422  53.8598168
 155.9300285  96.8814700  53.9714810 146.9744672 102.4605781  64.3177429
 147.6615712 102.1467511  63.7298444 146.8192801 103.3647146  64.0444680
 151.7779395  97.3495978  68.7462452 151.6937583  96.7421647  68.0112862
 150.9562101  97.8404996  68.7471949 151.9594994 107.9700774  67.8690453
 152.5448431 107.2244462  68.0018357 151.7619832 108.2804731  68.7527117
 154.8133649 111.0052022  62.8852895 154.1444024 111.4898149  62.4016935
 154.6746519 111.2521242  63.7996274 146.5512648 100.5406375  66.5894896
 146.5896748 100.0069965  67.3832014 146.0452941 100.0141580  65.9705873
 153.9303411  95.3870915  70.0857438 153.9944737  96.2485746  69.6734836
 153.8670531  94.7744917  69.3529797 153.4055683  97.4594048  73.7330472
 154.0327722  97.0771125  74.3467997 152.5483602  97.2408249  74.0986165
 150.1821226  99.2670477  59.6648827 150.4774667  98.3581155  59.6115881
 149.2809262  99.2458216  59.3429830 153.7115473  97.3426473  65.6476376
 152.9902059  97.9562441  65.5083849 154.5008729  97.8784238  65.5693022
 151.9109068  96.9484574  59.7888152 151.5821774  96.0681953  59.6063258
 152.2648438  96.8932243  60.6764542 155.0250891  97.2357544  60.1563630
 155.3646963  97.7643465  59.4342238 155.4723011  97.5737950  60.9322197
 155.8949382  99.3963028  65.8686000 155.7493963  99.7103331  66.7610281
 155.4174586 100.0147928  65.3156898 150.3695044 101.9368372  68.8073661
 149.8248512 102.7128180  68.9393935 151.2474394 102.2839177  68.6492782
 151.1561066 101.0638269  71.7003818 150.4142802 101.2120904  72.2868448
 150.8353811 101.3246534  70.8370567 151.6017680 108.9503697  63.7314212
 152.4275700 108.6507469  63.3512856 151.2511732 108.1811320  64.1804001
 149.8026285 106.8690024  64.6903146 148.9658193 106.4412198  64.5087147
 149.7749930 107.0622467  65.6273937 153.8865353 102.8799266  60.2831416
 153.6411395 101.9761596  60.4811626 154.0561268 102.8816417  59.3410894
 153.1561001  98.6127624  57.7817577 152.4630245  98.6871979  57.1257613
 152.9112752  97.8487968  58.3039094 149.1175782  99.9299372  64.4752078
 148.7978566  99.0764680  64.1826452 148.5709210 100.1447950  65.2310045
 152.8955689 102.6461813  68.1921585 153.1141699 103.5778921  68.2109618
 153.3081463 102.2869787  68.9776389 148.9864042 103.5502283  66.4445200
 148.2927513 103.1356236  65.9315154 149.7337033 103.5922820  65.8478619
 150.9000784 103.4820537  64.3211215 150.8771472 103.5808224  63.3693098
 151.2101421 104.3285688  64.6428381 153.5588162 105.5396692  68.4357829
 154.5131416 105.5080634  68.3687761 153.3600686 105.0787316  69.2508055
 154.1487544 104.1097808  71.0028627 154.9680433 104.6041887  71.0263464
 154.4224352 103.1929776  70.9746194 151.9138391 111.0816312  65.4528027
 151.7792859 110.3216713  64.8866025 151.4970453 111.8057212  64.9856816
 155.0707517 111.9785629  65.6646470 154.9539901 112.9231061  65.5625160
 154.2499963 111.6759190  66.0532269 149.4022458  98.4435942  71.7020824
 150.0481322  97.9334896  72.1908049 149.1939609  99.1804624  72.2764249
 153.7419949  95.5903559  75.7995838 154.6051411  95.2340364  76.0099163
 153.1685360  95.2517454  76.4871242  89.3026291   0.0114636  52.2799423
  89.5422889   0.6433160  52.9578442  88.4595488  -0.3397324  52.5664783
  98.7646754   5.5530128  52.0946182  99.5568046   5.2120953  51.6792481
  99.0043405   5.6625103  53.0148335 106.7981881   7.7249904  44.5676426
 106.1469861   8.3103985  44.1810440 107.5926244   8.2556099  44.6271464
 100.7237508   4.8139041  44.9663561 101.4968384   4.2668028  44.8276436
 101.0762907   5.6783291  45.1778022 102.5622551   6.1415424  58.1730460
 102.2712417   7.0461055  58.0577126 103.1979535   6.1831951  58.8874529
 102.5033216  12.5921160  48.1351221 102.4257246  13.5428985  48.2139702
 101.8994859  12.2467032  48.7926148 105.0623567   6.2835205  56.9877781
 105.1268000   6.7455612  57.8235952 104.3534491   5.6532570  57.1160090
 104.7771585   7.9503312  46.8556761 104.6417260   8.7954848  47.2841609
 105.3181397   8.1522590  46.0922695  98.2300982   5.4678751  47.4284686
  98.7425503   6.2622001  47.5790251  98.8823695   4.7705041  47.3618288
 100.0395867   8.5844507  49.5107439 100.2162495   9.5062471  49.3228423
 100.8352700   8.2702926  49.9401819 106.4040061   8.5726879  60.9857103
 105.9603915   7.7863258  60.6678008 107.0657275   8.7606029  60.3200994
 101.1627182  10.1022681  55.5117782 101.7134607   9.9739744  54.7394775
 100.3238658  10.4017570  55.1612674 108.5021299   8.8529679  59.0138504
 108.4839775   9.6738560  58.5218773 109.4241219   8.7283754  59.2388645
  96.1949899   3.7967405  48.2044257  97.0325121   4.2064413  47.9877964
  96.3728167   2.8566847  48.1744450 107.3767745  12.0237518  43.2912484
 106.7029444  12.3269215  43.8997442 107.7633567  12.8266599  42.9417941
 109.3240106   8.8635692  49.5980774 109.6163081   9.4240749  48.8793139
 109.8338727   9.1564253  50.3533933 104.2873732   9.6416043  50.6874227
 104.2449910   9.8676890  49.7582759 105.2036430   9.4079418  50.8360028
 102.4039532   6.5179072  50.4836189 103.1980131   6.0229392  50.2818764
 101.6931225   5.9896935  50.1203895 107.2234377   8.8997168  54.8348557
 107.2771399   9.4688104  55.6026273 106.3549158   9.0699053  54.4702594
 104.9810808   7.0908094  54.1634027 104.8421894   6.7226879  55.0359965
 104.1925405   7.6055734  53.9917984 105.5758960  12.1917191  45.5059563
 105.7510716  11.7205234  46.3205186 104.8891748  12.8182957  45.7340824
 111.1229347   8.5244640  59.4865704 111.0641893   7.8403860  58.8196287
 111.5248865   9.2663630  59.0346330 100.1420046  15.3406554  52.2799423
 100.3816644  15.9725078  52.9578442  99.2989242  14.9894594  52.5664783
  92.7775901   2.8208315  51.0422735  93.4646941   2.5070045  50.4543751
  92.6224030   3.7249680  50.7689987 104.6547907  11.1485676  54.6840927
 104.5818079  11.9540647  55.1960232 104.2125301  11.3477642  53.8588949
 104.4437687  10.3857446  48.1943749 103.6605209  10.9279126  48.2881973
 105.1430432  10.9031426  48.5937990 107.1146591  11.0472510  56.8399086
 107.8274563  11.6819975  56.7674987 106.6236620  11.1436376  56.0239088
 102.1658505   8.7966953  57.6604657 102.8667964   9.4303436  57.8134051
 101.6953619   9.1381685  56.9000296 106.9266964  11.3871254  49.5885377
 107.1089359  10.5692910  50.0513130 107.7499950  11.6038946  49.1510267
 107.2609130  10.3139439  46.8500426 107.7896896   9.8031894  46.2370588
 107.5237349   9.9981969  47.7145959  97.7626223   8.3303309  54.5935759
  98.3479659   7.5846996  54.7263664  97.5651061   8.6407265  55.4772423
 100.6164878  11.3654556  49.6098202  99.9475253  11.8500684  49.1262242
 100.4777747  11.6123776  50.5241580 104.7570146  13.3998299  56.2080860
 105.3088454  13.5629921  56.9729945 105.0976340  13.9902737  55.5360885
 109.6081021   8.2259557  62.0629515 110.1520925   8.8389515  61.5684469
 109.0267866   8.7839135  62.5796528 107.8938534  11.3480275  53.1944542
 107.7689673  10.5470015  52.6855488 108.5517625  11.8426468  52.7058512
 109.9573442   9.1489295  54.8224092 109.0103778   9.0294646  54.7502419
 110.3056215   8.2611793  54.9050354 106.9619875   8.9442011  51.0228445
 106.8144838   8.0158719  51.2036015 107.7873369   8.9662102  50.5385520
 110.5653997   9.7670570  52.1093317 111.4900545   9.5613431  51.9717769
 110.3969301   9.5186971  53.0182659 110.3549313  10.2856237  47.4655409
 110.5286191   9.7202660  46.7129261 110.8478205  11.0857132  47.2834899
 111.3424486   9.6023002  44.5652307 112.0375390  10.2229695  44.7839622
 111.6847636   8.7518353  44.8404685 104.9035958  10.9656781  58.2229514
 105.2123084  10.7205928  59.0952214 105.7011440  11.1703419  57.7348385
 104.9256570  13.1194691  50.4534891 104.4861560  12.6271069  51.1467748
 105.6764687  12.5767658  50.2126966  97.4048909   9.3106231  50.4559519
  98.2306929   9.0110003  50.0758163  97.0542961   8.5413854  50.9049308
 102.3730442   8.6632700  52.5257193 101.7510451   8.0003405  52.2259421
 103.0435309   8.6893832  51.8430840  95.6057514   7.2292558  51.4148453
  94.7689422   6.8014732  51.2332454  95.5781159   7.4225001  52.3519244
 101.9343949   7.2136623  46.0015653 102.0832069   7.8972087  45.3482326
 102.7410392   7.1941713  46.5165109 105.4339354   9.7084754  43.4727401
 104.8613321  10.3274941  43.0197873 106.0072148  10.2584115  44.0067323
 108.6536614   9.9921904  44.6035983 109.5867287   9.9267465  44.8068858
 108.5659827  10.8278170  44.1450516 111.2824631   9.3087774  41.5639931
 111.2038262   8.9747638  42.4575688 112.1034298   9.8009542  41.5631403
  94.7895270   3.9104818  53.1690506  94.0958742   3.4958770  52.6560461
  95.5368261   3.9525354  52.5723925  96.7032013   3.8423071  51.0456521
  96.6802701   3.9410759  50.0938404  97.0132649   4.6888222  51.3673687
  99.3619391   5.8999226  55.1603136 100.3162644   5.8683169  55.0933067
  99.1631914   5.4389850  55.9753362  97.7169620  11.4418846  52.1773334
  97.5824087  10.6819247  51.6111332  97.3001682  12.1659746  51.7102122
 100.8738745  12.3388163  52.3891776 100.7571130  13.2833595  52.2870466
 100.0531192  12.0361724  52.7777575 101.8993260  12.9916425  55.6047705
 102.8020506  13.0240035  55.9214200 101.6730630  12.0616876  55.6194040
 103.6546862  11.7447411  52.2657783 102.7042493  11.7449273  52.1522156
 103.9579348  10.9980146  51.7493818 119.3899555  17.5807950  53.3303546
 120.0277965  17.4614697  52.6266886 119.2720398  18.5288794  53.3891498
 116.1989261  17.5335378  53.2665070 115.8607773  17.4176443  52.3785605
 117.0679030  17.1326543  53.2466076 112.0576077  19.3870854  49.2561961
 111.4940942  19.2960791  48.4878249 111.9428472  18.5670759  49.7364454
 116.6809044  18.6870230  59.2251276 116.6697685  18.2923028  58.3531780
 116.8429684  17.9536302  59.8185047 109.6040509  20.8822046  52.0946182
 110.3961801  20.5412870  51.6792481 109.8437159  20.9917021  53.0148335
 117.6375636  23.0541822  44.5676426 116.9863616  23.6395902  44.1810440
 118.4319999  23.5848017  44.6271464 111.5631263  20.1430959  44.9663561
 112.3362139  19.5959946  44.8276436 111.9156662  21.0075208  45.1778022
 113.4016305  21.4707341  58.1730460 113.1106171  22.3752972  58.0577126
 114.0373290  21.5123869  58.8874529 114.3272512  18.8484190  54.7631820
 114.9236085  18.6240212  54.0488782 114.3847484  18.1068935  55.3657267
 113.8997541  16.3023625  42.5982010 114.1523061  15.7805146  41.8365473
 112.9622100  16.1389771  42.7008694 118.9440824  15.3059404  50.4056754
 119.7303913  14.8878827  50.0547171 119.2079528  16.2105496  50.5738402
 119.1150901  20.7432254  45.1045411 118.4796734  20.8166880  45.8166315
 118.7848307  21.3325853  44.4264490 124.3449251  15.2434637  51.3089732
 125.0774423  14.6733854  51.5427562 123.5888606  14.8556237  51.7496238
 113.6193829  18.2051731  44.8006385 113.5030088  17.5296635  45.4687470
 113.7296089  17.7184105  43.9838538 115.9625370  17.6661878  48.5053075
 115.5983578  17.1392499  49.2165996 116.8192486  17.2760347  48.3319560
 115.6030857  12.6951778  43.5014423 115.7705260  13.5632014  43.8684894
 115.4128026  12.8579060  42.5775712 118.3606191  21.1568757  55.1680254
 118.0606914  22.0593796  55.0596061 118.0157250  20.8900940  56.0201406
 111.8118672  17.6082554  51.2016958 110.8869169  17.4758768  51.4094650
 112.0603085  18.3876773  51.6986900 121.7603334  13.6751297  52.8477691
 120.8520212  13.6066705  52.5536452 121.7090930  14.1523242  53.6759516
 115.5820078  15.1509435  44.4861090 115.4619703  15.5966486  45.3246570
 114.8872667  15.4994753  43.9274628 109.1727483  17.2515827  52.0360747
 109.3019864  17.5050306  52.9500159 108.4924934  17.8443535  51.7165402
 113.3426970  27.9213077  48.1351221 113.2651000  28.8720902  48.2139702
 112.7388614  27.5758950  48.7926148 115.8344200  15.0940943  60.7912588
 115.0577534  15.6534863  60.7815453 116.4734763  15.5797726  61.3127458
 121.2805144  15.6230909  45.3141424 122.1923001  15.8558295  45.1389122
 120.7714791  16.2067953  44.7516503 114.0890572  17.9026396  60.3530555
 114.8305257  18.4411440  60.0765379 113.3827558  18.5292685  60.5102107
 119.5645912  20.0455536  58.9502717 119.9729268  19.6037947  58.2057349
 118.8423174  19.4708164  59.2036910 115.9176982  14.9828143  56.3236274
 116.7638177  15.4067557  56.4670923 115.8575620  14.3261768  57.0174837
 119.8874727  20.6056727  52.7055006 119.2583589  20.7702441  52.0031073
 119.5000389  21.0198337  53.4765970 123.7663959  21.5411165  50.0599369
 123.0814997  21.9210066  49.5096403 123.8507808  22.1506492  50.7931317
 119.0676427  12.6432512  57.9817447 118.8237359  13.3974572  57.4451723
 119.3436358  13.0217859  58.8164694 121.0214890  19.1871124  56.6594713
 121.2331785  19.8302884  55.9829094 120.9744638  18.3533441  56.1916643
 118.6241119  11.7988945  53.5631285 117.7625598  12.0970198  53.8548023
 118.6503554  12.0159343  52.6312318 115.4402689  20.3431135  49.9705091
 115.9041034  20.6218838  49.1809713 115.1759487  19.4414580  49.7878181
 112.3326770  19.8902617  52.9084854 112.9028127  20.3189885  52.2702338
 112.9234882  19.6085201  53.6069040 114.3771575  16.4654288  46.7794656
 115.0795618  16.9175331  47.2468582 114.0452203  15.8238106  47.4074549
 112.8251936  15.0566044  61.1545865 112.1950597  15.7382325  61.3881262
 112.7188024  14.9449126  60.2099003 108.1196909  14.7237840  52.0811789
 107.3295963  14.9795369  51.6051900 108.6108156  15.5386178  52.1863830
 122.1360718  22.0643079  54.8317070 122.9578162  21.6623267  54.5499752
 122.1323121  21.9611314  55.7833186 110.0711654  15.0882419  49.0395266
 109.2742817  15.2001114  49.5578762 109.8437246  15.4269072  48.1736157
 115.9017322  21.6127123  56.9877781 115.9661754  22.0747530  57.8235952
 115.1928245  20.9824488  57.1160090 106.4034612  14.9768331  54.5126780
 106.6542650  15.8615341  54.7784356 106.9394160  14.7972932  53.7401872
 130.2266711  18.4081828  51.1802042 129.4730420  17.8389226  51.0246046
 130.3614252  18.3744492  52.1272676 115.6165339  23.2795230  46.8556761
 115.4811014  24.1246766  47.2841609 116.1575152  23.4814508  46.0922695
 112.1032679   9.3586810  63.5171116 111.7099624   8.8053009  64.1918760
 112.9198819   9.6697388  63.9077634 109.0694737  20.7970668  47.4284686
 109.5819257  21.5913918  47.5790251 109.7217449  20.0996959  47.3618288
 110.8789621  23.9136424  49.5107439 111.0556250  24.8354389  49.3228423
 111.6746455  23.5994844  49.9401819 115.0200640  10.7744689  61.1091373
 115.7610353  11.3751842  61.0295835 115.2518563  10.0322327  60.5509415
 110.1641978  15.9601056  59.3869602 110.0495493  15.0586314  59.6876701
 109.3086496  16.2064753  59.0354419 117.2433816  23.9018797  60.9857103
 116.7997670  23.1155175  60.6678008 117.9051029  24.0897947  60.3200994
 112.0020937  25.4314598  55.5117782 112.5528362  25.3031662  54.7394775
 111.1632413  25.7309487  55.1612674 119.3415054  24.1821597  59.0138504
 119.3233529  25.0030478  58.5218773 120.2634974  24.0575672  59.2388645
 115.7988108  21.6965726  59.8562013 116.3316445  20.9354014  59.6261321
 115.2702189  21.4039378  60.5986167 107.0343653  19.1259322  48.2044257
 107.8718875  19.5356331  47.9877964 107.2121921  18.1858765  48.1744450
 118.9308086  16.7934403  43.8928090 118.4154709  17.5639008  44.1316477
 118.6585394  16.1199539  44.5161151 116.5155197  11.6384104  48.9513328
 115.6596793  11.2490954  48.7718967 116.9282148  11.7176065  48.0913113
 114.2897229   9.2569177  52.3571069 115.1550226   9.0611986  51.9976959
 114.3574738   9.0279529  53.2840426 123.9042360  19.5466758  45.8281263
 123.1271802  19.2077917  45.3836425 124.5833841  19.5519381  45.1536228
 118.7194389  14.6661495  45.7187871 118.4144524  14.9807644  46.5698014
 119.6724831  14.7442915  45.7615204 117.1640821  20.8251719  47.3680825
 116.6362182  20.0904478  47.0554062 116.6628323  21.6026395  47.1220793
 122.1433667  19.0200739  52.4847871 121.4857341  19.7100000  52.5728000
 122.9474066  19.4097171  52.8281857 111.8959548  11.4871385  49.7287436
 112.4703300  11.2646566  48.9960629 112.4830531  11.5560079  50.4816038
 120.9539125  17.3745112  50.5351813 121.4671007  18.0075104  51.0373522
 121.6040349  16.7746307  50.1695173 112.2229135  13.5175846  43.7483321
 111.3866448  13.8550532  44.0692596 112.0833905  13.3824826  42.8110458
 115.3093421  18.6431929  40.3715798 114.4020482  18.4121182  40.5706947
 115.8064453  17.8469548  40.5589779 118.2161500  27.3529436  43.2912484
 117.5423198  27.6561133  43.8997442 118.6027322  28.1558516  42.9417941
 117.4319956  14.8494567  52.7810153 116.5142518  15.0709514  52.6231841
 117.8480100  14.9240878  51.9221861 118.2155004  16.2485983  47.9112834
 118.9626823  16.7607380  47.6019956 118.4846594  15.9270036  48.7717227
 116.4881654  18.7444524  44.8939788 115.5792873  18.4603557  44.9912258
 116.5176738  19.1643602  44.0343095 121.7200922  22.3551113  48.6630955
 121.2663249  21.5142023  48.7196146 121.0894888  22.9912512  49.0005736
 120.6633841  13.2843099  49.8931623 119.9256598  12.7720485  50.2241865
 120.9160615  12.8443481  49.0814900 120.1633861  24.1927610  49.5980774
 120.4556835  24.7532667  48.8793139 120.6732481  24.4856171  50.3533933
 107.0569825  16.4650038  48.8754990 106.8594224  15.8719399  48.1506057
 106.5016489  16.1602248  49.5930929 115.0366548  16.3573144  50.9949583
 115.0915158  15.4046981  50.9192060 114.2257750  16.5132583  51.4790882
 116.1857742  20.2853267  42.2327866 115.7477172  19.5689126  41.7733504
 116.9268183  20.5129382  41.6712958 112.9758908  14.9750204  48.7539962
 112.1626774  15.2744375  49.1605154 113.4717902  14.5805893  49.4714444
 115.1267486  24.9707961  50.6874227 115.0843665  25.1968807  49.7582759
 116.0430185  24.7371336  50.8360028 118.5733120  15.4392029  57.5854856
 118.9282508  15.6663502  58.4449322 119.2205251  15.7710405  56.9632111
 124.3030857  18.5610464  48.2904185 124.1648755  18.7512060  47.3625374
 123.9467076  19.3229847  48.7472236 112.4672983  12.5468560  54.3701197
 113.1072362  12.4057319  53.6724160 111.6350513  12.2603073  53.9939799
 124.3300236  20.6286991  53.3015456 124.7636743  20.5362281  54.1498511
 125.0431817  20.6044492  52.6635472 113.2433287  21.8470990  50.4836189
 114.0373885  21.3521310  50.2818764 112.5324979  21.3188853  50.1203895
 118.0628131  24.2289086  54.8348557 118.1165154  24.7980022  55.6026273
 117.1942913  24.3990971  54.4702594 109.5516050  15.9914072  46.5595942
 108.6213638  15.9298527  46.7765904 109.6473522  15.4690024  45.7632583
 109.4701599  12.5168885  49.1474184 109.7308417  13.4314218  49.0383344
 110.2918772  12.0493327  49.2970797 110.9426525  13.9306642  56.3173008
 111.6149578  13.7224004  55.6685657 110.1156311  13.7328728  55.8778241
 125.1915786  20.6710692  55.8348342 125.3851676  21.5756503  56.0807617
 125.0916404  20.2118111  56.6686927 116.8452097  10.5568583  58.3338669
 116.1980012  11.2558532  58.2403146 117.6153112  10.9904727  58.7014917
 120.2530895  20.8217435  61.4089222 120.1016401  20.5927986  60.4919306
 120.2435574  21.7788036  61.4220567 117.0216231  18.3949348  56.3935489
 117.9508291  18.5460507  56.2204456 116.6007261  18.4833368  55.5384135
 115.8204563  22.4200012  54.1634027 115.6815649  22.0518796  55.0359965
 115.0319159  22.9347651  53.9917984 116.4152715  27.5209108  45.5059563
 116.5904470  27.0497152  46.3205186 115.7285503  28.1474875  45.7340824
 117.3709778  21.7981615  51.5522864 117.0359611  21.7582385  52.4480514
 116.8713724  21.1326331  51.0793275 111.3454022  17.2049245  57.0775445
 111.2073820  16.4729484  57.6786985 112.2558945  17.1158145  56.7959633
 120.3068970  19.1437649  41.8259924 119.6898140  18.4184477  41.7292977
 119.8385458  19.9047009  41.4826998 113.9736323  16.9169204  56.5659125
 114.6835941  16.2762396  56.5245744 113.9305631  17.1682099  57.4885306
 121.9623101  23.8536557  59.4865704 121.9035647  23.1695777  58.8196287
 122.3642620  24.5955547  59.0346330 112.6865257  13.9034422  58.3854765
 112.1502614  13.4525160  59.0376361 112.0981965  14.0380331  57.6425229
 110.9813800  30.6698471  52.2799423 111.2210398  31.3016995  52.9578442
 110.1382997  30.3186511  52.5664783 112.0967516  13.3623073  40.9481228
 111.2196982  13.2411874  40.5843475 112.5725269  12.5709152  40.6960117
 121.9640509  21.8176141  57.7179684 121.0767287  21.4802063  57.8406083
 122.5339060  21.0859173  57.9548449 103.6169656  18.1500233  51.0422735
 104.3040695  17.8361963  50.4543751 103.4617784  19.0541598  50.7689987
 108.4204378  13.0390430  55.4707759 108.3362567  12.4316099  54.7358169
 107.5987084  13.5299448  55.4717255 115.4941662  26.4777594  54.6840927
 115.4211833  27.2832565  55.1960232 115.0519055  26.6769559  53.8588949
 115.2831442  25.7149364  48.1943749 114.4998963  26.2571044  48.2881973
 115.9824187  26.2323343  48.5937990 118.5928092  11.5243993  50.8377954
 119.0896791  10.7713955  50.5179024 117.8215073  11.5608310  50.2721163
 126.4457849  17.2284359  52.4796246 126.4347725  18.1109074  52.1090179
 125.5775229  16.8755909  52.2850783 117.9540345  26.3764428  56.8399086
 118.6668318  27.0111892  56.7674987 117.4630374  26.4728294  56.0239088
 119.6757872  20.2815680  48.4116378 118.7414151  20.4017143  48.2421082
 119.8534541  19.3788147  48.1476387 115.1763060  13.6661376  50.5649639
 114.8060848  13.1132417  51.2530544 115.6722153  13.0619510  50.0124639
 123.0630424  16.1233000  48.9466412 123.5290876  16.9560991  48.8726714
 123.5137924  15.6577981  49.6511670 113.0052259  24.1258871  57.6604657
 113.7061718  24.7595354  57.8134051 112.5347374  24.4673603  56.9000296
 121.1306655  22.4676821  45.9452564 121.4066499  22.3533416  46.8546438
 120.2611154  22.0694306  45.9064737 120.8053545  16.6803479  55.4857207
 120.1524995  16.9279386  54.8309660 121.1833925  15.8667617  55.1519684
 117.7660719  26.7163172  49.5885377 117.9483113  25.8984828  50.0513130
 118.5893705  26.9330864  49.1510267 118.1002884  25.6431357  46.8500426
 118.6290651  25.1323811  46.2370588 118.3631104  25.3273887  47.7145959
 116.8541118  17.4223290  61.9723244 116.1781755  17.3217419  62.6425619
 117.6768752  17.2662503  62.4359241 108.6019977  23.6595226  54.5935759
 109.1873414  22.9138914  54.7263664 108.4044816  23.9699183  55.4772423
 111.4558632  26.6946474  49.6098202 110.7869008  27.1792601  49.1262242
 111.3171502  26.9415694  50.5241580 103.1937632  16.2300826  53.3140203
 103.2321731  15.6964417  54.1077321 102.6877925  15.7036032  52.6951180
 115.5963901  28.7290217  56.2080860 116.1482209  28.8921839  56.9729945
 115.9370094  29.3194655  55.5360885 110.5728394  11.0765367  56.8102745
 110.6369721  11.9380198  56.3980143 110.5095514  10.4639369  56.0775103
 110.0480667  13.1488499  60.4575779 110.6752705  12.7665577  61.0713303
 109.1908585  12.9302701  60.8231472 120.4474775  23.5551475  62.0629515
 120.9914679  24.1681433  61.5684469 119.8661620  24.1131053  62.5796528
 106.8246209  14.9564929  46.3894134 107.1199650  14.0475607  46.3361188
 105.9234245  14.9352668  46.0675136 118.7332288  26.6772193  53.1944542
 118.6083428  25.8761932  52.6855488 119.3911379  27.1718386  52.7058512
 110.3540456  13.0320925  52.3721683 109.6327042  13.6456893  52.2329156
 111.1433712  13.5678690  52.2938328 120.7967197  24.4781213  54.8224092
 119.8497532  24.3586564  54.7502419 121.1449970  23.5903711  54.9050354
 113.1566770  10.3675352  58.6462334 113.6801172  10.6137648  59.4088644
 112.9379103  11.1995386  58.2265472 108.5534051  12.6379026  46.5133459
 108.2246757  11.7576405  46.3308565 108.9073422  12.5826695  47.4009848
 117.8013630  24.2733929  51.0228445 117.6538592  23.3450636  51.2036015
 118.6267123  24.2954020  50.5385520 111.6675874  12.9251996  46.8808937
 112.0071947  13.4537917  46.1587545 112.1147995  13.2632402  47.6567503
 121.4047752  25.0962488  52.1093317 122.3294299  24.8905349  51.9717769
 121.2363055  24.8478889  53.0182659 114.3619315  11.3089047  56.3312005
 114.0216135  10.5096860  56.7332685 113.6558321  11.6090758  55.7588838
 113.6544021  11.4226618  45.0802230 114.3752384  11.8007870  44.5765946
 113.0309325  12.1415494  45.1837207 117.7975144  12.1271767  46.0160562
 118.0138759  13.0096404  45.7149390 117.3169211  11.7357980  45.2866204
 112.5374366  15.0857480  52.5931306 112.3918946  15.3997783  53.4855588
 112.0599569  15.7042380  52.0402205 114.3970748  12.0760028  52.6412196
 114.3832317  11.1801121  52.3044494 115.1143177  12.0830692  53.2750482
 116.2496879  12.5097368  54.6865323 115.9914657  13.4314439  54.6849654
 115.7181919  12.1127803  55.3765788 121.1943068  25.6148155  47.4655409
 121.3679945  25.0494578  46.7129261 121.6871959  26.4149050  47.2834899
 107.0120028  17.6262824  55.5318968 106.4673496  18.4022632  55.6639242
 107.8899378  17.9733629  55.3738089 113.8007644  10.9574408  47.9099766
 113.9223556  10.0291054  48.1090654 113.5109687  10.9713094  46.9978082
 127.0482459  18.3784578  49.0845709 127.4913605  17.6291903  48.6864832
 126.1708969  18.3694714  48.7019441 122.1818240  24.9314920  44.5652307
 122.8769145  25.5521612  44.7839622 122.5241391  24.0810271  44.8404685
 107.7986050  16.7532720  58.4249124 107.0567786  16.9015356  59.0113755
 107.4778794  17.0140986  57.5615874 124.0809663  22.3814625  46.0939638
 124.6060988  22.7201898  45.3688958 123.9932016  21.4461640  45.9102772
 115.7429712  26.2948699  58.2229514 116.0516839  26.0497845  59.0952214
 116.5405194  26.4995337  57.7348385 115.7650324  28.4486608  50.4534891
 115.3255315  27.9562987  51.1467748 116.5158441  27.9059576  50.2126966
 108.2442663  24.6398149  50.4559519 109.0700683  24.3401921  50.0758163
 107.8936715  23.8705772  50.9049308 113.2124196  23.9924617  52.5257193
 112.5904206  23.3295322  52.2259421 113.8829063  24.0185749  51.8430840
 106.4451268  22.5584476  51.4148453 105.6083177  22.1306650  51.2332454
 106.4174914  22.7516919  52.3519244 113.2848724  12.4706405  62.1189699
 113.3336879  13.3468528  61.7367468 113.8271238  11.9283798  61.5461342
 123.7703570  23.0147529  61.3990836 122.9799113  22.9971668  60.8595335
 123.5336924  23.5535822  62.1539872 123.8901445  19.8639995  58.7123564
 123.9399450  19.6990002  59.6539087 123.7815368  18.9967254  58.3221445
 112.7737703  22.5428541  46.0015653 112.9225824  23.2264005  45.3482326
 113.5804147  22.5233631  46.5165109 121.1805207  15.8470923  60.0282871
 122.0815070  15.7077388  59.7366869 121.2553181  16.0125378  60.9681049
 115.5148012  13.2237778  58.8736057 114.6451322  13.5171344  58.6018646
 115.7507493  13.8078223  59.5943321 125.3919641  22.2836937  58.9565586
 125.1004450  22.6466917  59.7929047 124.7791773  21.5703945  58.7778918
 126.5915324  19.8489816  51.4768156 127.4262215  20.2879620  51.6405716
 126.7274453  19.3728470  50.6576402 123.6406830  17.4069551  57.4245644
 124.1160951  17.5997198  56.6164495 122.7172395  17.4628737  57.1789028
 110.5290336  18.5693718  47.0076722 110.2836378  17.6656048  47.2056932
 110.6986251  18.5710869  46.0656200 109.7985984  14.3022076  44.5062884
 109.1055229  14.3766431  43.8502920 109.5537736  13.5382420  45.0284401
 116.2733109  25.0376671  43.4727401 115.7007076  25.6566858  43.0197873
 116.8465902  25.5876033  44.0067323 122.3408499  14.2835311  55.6573949
 123.2925922  14.3833409  55.6786174 122.1711949  13.4913580  56.1672034
 120.3622878  11.3690894  55.8433350 119.7672810  11.6495907  55.1479839
 120.0772575  11.8584795  56.6150092 119.4930369  25.3213821  44.6035983
 120.4261042  25.2559383  44.8068858 119.4053581  26.1570088  44.1450516
 122.1218385  24.6379692  41.5639931 122.0432017  24.3039555  42.4575688
 122.9428052  25.1301460  41.5631403 124.8196576  17.5041431  54.7716249
 124.7872897  16.5657432  54.9575933 125.4297200  17.5825468  54.0382074
 116.6579907  16.3737484  40.8143453 117.6039012  16.2443692  40.8831871
 116.2794152  15.6352146  41.2912881 124.9691065  14.2952474  54.8174532
 124.4530114  13.5110931  54.6304461 125.8531013  13.9671191  54.9821052
 130.6373126  18.5657438  53.9122286 131.3676515  18.3042726  54.4729989
 130.0280072  17.8286160  53.9524354 128.7188423  16.7065300  54.5096737
 127.9921587  16.5721265  53.9013229 128.3035710  17.0142129  55.3153455
 116.5418600  20.4255230  62.2744110 117.4621609  20.6033829  62.4684157
 116.5068183  19.4811275  62.1223809 114.8422824  14.2987460  40.7498338
 113.9354280  14.0020573  40.8261052 115.1198805  14.0017278  39.8832625
 105.7600765  15.6193824  51.1997385 105.4403549  14.7659132  50.9071759
 105.2134193  15.8342402  51.9555352 109.5380672  18.3356265  54.9166891
 109.7566682  19.2673373  54.9354925 109.9506446  17.9764239  55.7021695
 114.4108538  13.9089470  64.3069640 114.3105265  14.8583827  64.2381731
 114.1930080  13.5807709  63.4345710 113.6121609  11.1574396  40.8910318
 114.4740773  11.4829294  41.1506135 113.7971953  10.3705891  40.3783383
 105.6289025  19.2396735  53.1690506 104.9352496  18.8250688  52.6560461
 106.3762016  19.2817272  52.5723925 114.2739808  17.3386609  63.1234702
 113.7906889  18.1386969  63.3298591 114.3600747  17.3494554  62.1702146
 107.5425767  19.1714989  51.0456521 107.5196455  19.2702676  50.0938404
 107.8526404  20.0180140  51.3673687 110.2013145  21.2291144  55.1603136
 111.1556399  21.1975086  55.0933067 110.0025669  20.7681768  55.9753362
 110.7912527  19.7992260  57.7273933 111.6105416  20.2936339  57.7508771
 111.0649335  18.8824228  57.6991501 120.5479124  12.1903012  47.0901889
 119.6604979  12.4752663  46.8722084 120.9633113  12.0296776  46.2429166
 123.8993660  12.2149533  50.8056228 124.6754050  12.7045986  51.0780845
 123.1741794  12.6407588  51.2628098 108.5563374  26.7710764  52.1773334
 108.4217842  26.0111164  51.6111332 108.1395436  27.4951663  51.7102122
 119.6922337  21.9547687  41.1849909 120.3958187  22.1597690  41.8007564
 118.9684986  22.5224449  41.4498992 120.5220147  17.7057548  47.3052179
 120.4655349  18.1626100  46.4659811 121.0748490  16.9448233  47.1275022
 124.3324953  13.4947280  48.1302299 124.0761887  13.0943916  48.9610506
 123.7077821  14.2091074  48.0052438 128.6437291  16.2343353  50.6373590
 128.0836849  16.3036543  51.4105152 128.0380794  16.0584338  49.9173086
 111.7132500  27.6680081  52.3891776 111.5964884  28.6125513  52.2870466
 110.8924946  27.3653642  52.7777575 121.6009034  22.3930216  43.2348369
 122.4354638  21.9611415  43.0525844 121.4393377  22.2212230  44.1625263
 121.2554927  18.8962330  44.6004708 121.2003730  18.7306601  43.6593152
 120.6300982  19.6038362  44.7566898 106.0447442  14.1330394  58.4266130
 106.6906305  13.6229348  58.9153356 105.8364593  14.8699076  59.0009556
 118.5700834  21.2011241  63.9258271 119.4391993  21.3751894  63.5644906
 118.0907585  22.0205658  63.8034000 112.7387014  28.3208342  55.6047705
 113.6414261  28.3531953  55.9214200 112.5124384  27.3908793  55.6194040
 114.4940616  27.0739329  52.2657783 113.5436247  27.0741191  52.1522156
 114.7973102  26.3272064  51.7493818 110.3844933  11.2798011  62.5241145
 111.2476394  10.9234816  62.7344469 109.8110343  10.9411906  63.2116549
 130.2293310  32.9099867  53.3303546 130.8671720  32.7906615  52.6266886
 130.1114152  33.8580711  53.3891498 127.0383016  32.8627295  53.2665070
 126.7001527  32.7468360  52.3785605 127.9072784  32.4618461  53.2466076
 122.8969832  34.7162772  49.2561961 122.3334697  34.6252709  48.4878249
 122.7822227  33.8962676  49.7364454 127.5202799  34.0162147  59.2251276
 127.5091440  33.6214945  58.3531780 127.6823438  33.2828220  59.8185047
 120.4434263  36.2113963  52.0946182 121.2355555  35.8704788  51.6792481
 120.6830914  36.3208939  53.0148335 128.4769390  38.3833740  44.5676426
 127.8257370  38.9687820  44.1810440 129.2713753  38.9139935  44.6271464
 122.4025017  35.4722877  44.9663561 123.1755893  34.9251864  44.8276436
 122.7550416  36.3367126  45.1778022 124.2410060  36.7999259  58.1730460
 123.9499926  37.7044890  58.0577126 124.8767044  36.8415787  58.8874529
 125.1666267  34.1776108  54.7631820 125.7629839  33.9532130  54.0488782
 125.2241238  33.4360853  55.3657267 124.7391295  31.6315543  42.5982010
 124.9916816  31.1097064  41.8365473 123.8015854  31.4681688  42.7008694
 129.7834578  30.6351321  50.4056754 130.5697667  30.2170744  50.0547171
 130.0473282  31.5397413  50.5738402 129.9544655  36.0724172  45.1045411
 129.3190488  36.1458798  45.8166315 129.6242062  36.6617770  44.4264490
 135.1843005  30.5726554  51.3089732 135.9168177  30.0025771  51.5427562
 134.4282361  30.1848155  51.7496238 124.4587584  33.5343649  44.8006385
 124.3423842  32.8588552  45.4687470 124.5689844  33.0476023  43.9838538
 126.8019125  32.9953796  48.5053075 126.4377332  32.4684417  49.2165996
 127.6586241  32.6052265  48.3319560 132.7068426  24.2848129  55.7684341
 132.3751750  25.1543540  55.5445556 132.1114039  23.9684413  56.4478371
 126.4424612  28.0243696  43.5014423 126.6099014  28.8923932  43.8684894
 126.2521781  28.1870977  42.5775712 129.1999945  36.4860675  55.1680254
 128.9000668  37.3885713  55.0596061 128.8551005  36.2192858  56.0201406
 122.6512427  32.9374471  51.2016958 121.7262923  32.8050685  51.4094650
 122.8996840  33.7168691  51.6986900 132.5997089  29.0043215  52.8477691
 131.6913966  28.9358623  52.5536452 132.5484685  29.4815160  53.6759516
 126.4213833  30.4801353  44.4861090 126.3013458  30.9258404  45.3246570
 125.7266421  30.8286671  43.9274628 120.0121238  32.5807745  52.0360747
 120.1413619  32.8342224  52.9500159 119.3318689  33.1735453  51.7165402
 124.1820725  43.2504995  48.1351221 124.1044755  44.2012820  48.2139702
 123.5782368  42.9050867  48.7926148 126.6737955  30.4232860  60.7912588
 125.8971289  30.9826780  60.7815453 127.3128518  30.9089643  61.3127458
 134.4658735  27.2059653  54.6255565 133.8233115  27.4992186  53.9795359
 133.9613664  27.0912573  55.4308761 132.1198899  30.9522826  45.3141424
 133.0316755  31.1850213  45.1389122 131.6108546  31.5359871  44.7516503
 124.9284327  33.2318314  60.3530555 125.6699011  33.7703358  60.0765379
 124.2221312  33.8584602  60.5102107 130.4039667  35.3747454  58.9502717
 130.8123023  34.9329865  58.2057349 129.6816928  34.8000082  59.2036910
 126.7570737  30.3120061  56.3236274 127.6031932  30.7359474  56.4670923
 126.6969374  29.6553685  57.0174837 130.7268481  35.9348645  52.7055006
 130.0977344  36.0994359  52.0031073 130.3394143  36.3490254  53.4765970
 134.6057713  36.8703083  50.0599369 133.9208751  37.2501984  49.5096403
 134.6901562  37.4798409  50.7931317 129.9070182  27.9724429  57.9817447
 129.6631114  28.7266490  57.4451723 130.1830112  28.3509777  58.8164694
 131.8608645  34.5163042  56.6594713 132.0725540  35.1594802  55.9829094
 131.8138393  33.6825358  56.1916643 129.4634874  27.1280862  53.5631285
 128.6019353  27.4262116  53.8548023 129.4897308  27.3451261  52.6312318
 126.2796443  35.6723053  49.9705091 126.7434789  35.9510756  49.1809713
 126.0153241  34.7706497  49.7878181 123.1720524  35.2194534  52.9084854
 123.7421881  35.6481803  52.2702338 123.7628636  34.9377119  53.6069040
 125.2165329  31.7946205  46.7794656 125.9189372  32.2467249  47.2468582
 124.8845958  31.1530024  47.4074549 123.6645691  30.3857962  61.1545865
 123.0344351  31.0674243  61.3881262 123.5581779  30.2741043  60.2099003
 118.9590663  30.0529758  52.0811789 118.1689717  30.3087286  51.6051900
 119.4501910  30.8678096  52.1863830 132.9754473  37.3934997  54.8317070
 133.7971916  36.9915184  54.5499752 132.9716876  37.2903231  55.7833186
 120.9105408  30.4174337  49.0395266 120.1136572  30.5293031  49.5578762
 120.6831001  30.7560989  48.1736157 126.7411076  36.9419040  56.9877781
 126.8055509  37.4039448  57.8235952 126.0322000  36.3116405  57.1160090
 117.2428366  30.3060248  54.5126780 117.4936404  31.1907258  54.7784356
 117.7787914  30.1264850  53.7401872 141.0660466  33.7373746  51.1802042
 140.3124174  33.1681144  51.0246046 141.2008007  33.7036410  52.1272676
 126.4559094  38.6087148  46.8556761 126.3204769  39.4538684  47.2841609
 126.9968906  38.8106425  46.0922695 122.9426433  24.6878728  63.5171116
 122.5493379  24.1344926  64.1918760 123.7592574  24.9989306  63.9077634
 119.9088491  36.1262586  47.4284686 120.4213012  36.9205836  47.5790251
 120.5611204  35.4288876  47.3618288 121.7183376  39.2428342  49.5107439
 121.8950004  40.1646307  49.3228423 122.5140209  38.9286761  49.9401819
 125.8594394  26.1036607  61.1091373 126.6004108  26.7043760  61.0295835
 126.0912317  25.3614245  60.5509415 121.0035732  31.2892974  59.3869602
 120.8889248  30.3878231  59.6876701 120.1480250  31.5356671  59.0354419
 128.0827570  39.2310714  60.9857103 127.6391424  38.4447093  60.6678008
 128.7444784  39.4189865  60.3200994 122.8414691  40.7606516  55.5117782
 123.3922116  40.6323579  54.7394775 122.0026167  41.0601405  55.1612674
 130.1808808  39.5113514  59.0138504 130.1627284  40.3322395  58.5218773
 131.1028728  39.3867589  59.2388645 126.6381862  37.0257644  59.8562013
 127.1710199  36.2645932  59.6261321 126.1095943  36.7331296  60.5986167
 129.8051557  22.1317710  55.3855654 129.4615827  23.0219351  55.3094765
 130.1730520  21.9419367  54.5225239 117.8737408  34.4551240  48.2044257
 118.7112630  34.8648249  47.9877964 118.0515676  33.5150682  48.1744450
 129.7701840  32.1226321  43.8928090 129.2548463  32.8930925  44.1316477
 129.4979148  31.4491457  44.5161151 127.3548951  26.9676022  48.9513328
 126.4990547  26.5782872  48.7718967 127.7675903  27.0467982  48.0913113
 128.8848098  24.5022365  53.3504888 128.3812893  24.4652500  52.5372693
 129.1778705  25.4115108  53.4101544 125.1290984  24.5861095  52.3571069
 125.9943980  24.3903903  51.9976959 125.1968493  24.3571446  53.2840426
 134.7436114  34.8758675  45.8281263 133.9665557  34.5369835  45.3836425
 135.4227595  34.8811299  45.1536228 129.5588143  29.9953413  45.7187871
 129.2538279  30.3099562  46.5698014 130.5118585  30.0734833  45.7615204
 128.0034575  36.1543636  47.3680825 127.4755937  35.4196396  47.0554062
 127.5022078  36.9318313  47.1220793 132.9827421  34.3492657  52.4847871
 132.3251096  35.0391918  52.5728000 133.7867820  34.7389089  52.8281857
 122.7353303  26.8163303  49.7287436 123.3097055  26.5938484  48.9960629
 123.3224285  26.8851997  50.4816038 131.7932880  32.7037029  50.5351813
 132.3064762  33.3367021  51.0373522 132.4434104  32.1038225  50.1695173
 123.0622890  28.8467764  43.7483321 122.2260202  29.1842450  44.0692596
 122.9227659  28.7116743  42.8110458 125.0375970  23.6904551  48.4562506
 124.3840383  23.3753569  47.8319120 124.9956445  23.0680292  49.1822329
 126.1487175  33.9723846  40.3715798 125.2414237  33.7413100  40.5706947
 126.6458207  33.1761466  40.5589779 129.0555254  42.6821354  43.2912484
 128.3816953  42.9853050  43.8997442 129.4421076  43.4850434  42.9417941
 128.2713711  30.1786485  52.7810153 127.3536272  30.4001432  52.6231841
 128.6873854  30.2532795  51.9221861 129.0548759  31.5777901  47.9112834
 129.8020577  32.0899298  47.6019956 129.3240348  31.2561953  48.7717227
 127.3275409  34.0736441  44.8939788 126.4186628  33.7895474  44.9912258
 127.3570492  34.4935520  44.0343095 132.5594676  37.6843031  48.6630955
 132.1057003  36.8433941  48.7196146 131.9288643  38.3204429  49.0005736
 131.5027596  28.6135017  49.8931623 130.7650352  28.1012403  50.2241865
 131.7554369  28.1735399  49.0814900 131.0027615  39.5219528  49.5980774
 131.2950590  40.0824585  48.8793139 131.5126236  39.8148089  50.3533933
 131.6039223  21.3911269  50.4873392 131.9098100  20.5308632  50.1999307
 132.3291828  21.9828889  50.2872386 117.8963579  31.7941955  48.8754990
 117.6987979  31.2011316  48.1506057 117.3410243  31.4894166  49.5930929
 125.8760303  31.6865062  50.9949583 125.9308913  30.7338898  50.9192060
 125.0651505  31.8424501  51.4790882 127.0251496  35.6145185  42.2327866
 126.5870926  34.8981044  41.7733504 127.7661937  35.8421300  41.6712958
 123.8152663  30.3042122  48.7539962 123.0020528  30.6036292  49.1605154
 124.3111657  29.9097810  49.4714444 125.9661241  40.2999879  50.6874227
 125.9237419  40.5260725  49.7582759 126.8823939  40.0663253  50.8360028
 129.4126874  30.7683946  57.5854856 129.7676262  30.9955419  58.4449322
 130.0599006  31.1002323  56.9632111 135.1424611  33.8902382  48.2904185
 135.0042510  34.0803978  47.3625374 134.7860830  34.6521765  48.7472236
 123.3066737  27.8760477  54.3701197 123.9466117  27.7349236  53.6724160
 122.4744268  27.5894991  53.9939799 135.1693991  35.9578909  53.3015456
 135.6030498  35.8654198  54.1498511 135.8825572  35.9336410  52.6635472
 124.0827041  37.1762908  50.4836189 124.8767640  36.6813228  50.2818764
 123.3718734  36.6480771  50.1203895 128.9021886  39.5581003  54.8348557
 128.9558908  40.1271940  55.6026273 128.0336667  39.7282888  54.4702594
 120.3909805  31.3205989  46.5595942 119.4607393  31.2590445  46.7765904
 120.4867277  30.7981942  45.7632583 120.3095354  27.8460802  49.1474184
 120.5702171  28.7606135  49.0383344 121.1312526  27.3785245  49.2970797
 121.7820279  29.2598559  56.3173008 122.4543333  29.0515922  55.6685657
 120.9550066  29.0620645  55.8778241 136.0309540  36.0002610  55.8348342
 136.2245431  36.9048420  56.0807617 135.9310159  35.5410029  56.6686927
 127.6845851  25.8860500  58.3338669 127.0373766  26.5850450  58.2403146
 128.4546867  26.3196644  58.7014917 131.0924649  36.1509352  61.4089222
 130.9410156  35.9219904  60.4919306 131.0829329  37.1079954  61.4220567
 127.8609986  33.7241265  56.3935489 128.7902046  33.8752425  56.2204456
 127.4401016  33.8125286  55.5384135 126.6598317  37.7491930  54.1634027
 126.5209403  37.3810714  55.0359965 125.8712914  38.2639569  53.9917984
 127.2546469  42.8501026  45.5059563 127.4298225  42.3789069  46.3205186
 126.5679257  43.4766792  45.7340824 128.2103532  37.1273532  51.5522864
 127.8753365  37.0874302  52.4480514 127.7107478  36.4618248  51.0793275
 122.1847776  32.5341162  57.0775445 122.0467574  31.8021401  57.6786985
 123.0952700  32.4450062  56.7959633 131.1462724  34.4729567  41.8259924
 130.5291895  33.7476395  41.7292977 130.6779213  35.2338927  41.4826998
 124.8130077  32.2461122  56.5659125 125.5229696  31.6054314  56.5245744
 124.7699385  32.4974017  57.4885306 132.8016856  39.1828475  59.4865704
 132.7429402  38.4987695  58.8196287 133.2036374  39.9247465  59.0346330
 123.5259011  29.2326340  58.3854765 122.9896368  28.7817078  59.0376361
 122.9375720  29.3672248  57.6425229 121.8207555  45.9990389  52.2799423
 122.0604153  46.6308913  52.9578442 120.9776751  45.6478429  52.5664783
 122.9361270  28.6914991  40.9481228 122.0590736  28.5703792  40.5843475
 123.4119023  27.9001069  40.6960117 132.8034263  37.1468059  57.7179684
 131.9161042  36.8093981  57.8406083 133.3732814  36.4151090  57.9548449
 114.4563410  33.4792151  51.0422735 115.1434450  33.1653881  50.4543751
 114.3011539  34.3833515  50.7689987 119.2598132  28.3682347  55.4707759
 119.1756321  27.7608017  54.7358169 118.4380839  28.8591366  55.4717255
 126.3335416  41.8069511  54.6840927 126.2605588  42.6124483  55.1960232
 125.8912810  42.0061477  53.8588949 126.1225196  41.0441281  48.1943749
 125.3392718  41.5862962  48.2881973 126.8217941  41.5615261  48.5937990
 129.4321846  26.8535911  50.8377954 129.9290546  26.1005873  50.5179024
 128.6608828  26.8900227  50.2721163 137.2851604  32.5576276  52.4796246
 137.2741480  33.4400992  52.1090179 136.4168983  32.2047827  52.2850783
 128.7934100  41.7056345  56.8399086 129.5062072  42.3403810  56.7674987
 128.3024129  41.8020211  56.0239088 130.5151627  35.6107598  48.4116378
 129.5807906  35.7309060  48.2421082 130.6928295  34.7080065  48.1476387
 126.0156815  28.9953294  50.5649639 125.6454602  28.4424334  51.2530544
 126.5115907  28.3911427  50.0124639 133.9024178  31.4524917  48.9466412
 134.3684630  32.2852909  48.8726714 134.3531679  30.9869899  49.6511670
 123.8446013  39.4550789  57.6604657 124.5455473  40.0887272  57.8134051
 123.3741128  39.7965520  56.9000296 131.9700409  37.7968739  45.9452564
 132.2460253  37.6825333  46.8546438 131.1004908  37.3986223  45.9064737
 131.8740841  23.8205504  52.9857313 130.9603921  24.0509731  53.1539520
 132.3033942  23.9043948  53.8371345 131.6447299  32.0095396  55.4857207
 130.9918750  32.2571304  54.8309660 132.0227679  31.1959534  55.1519684
 128.6054473  42.0455089  49.5885377 128.7876868  41.2276745  50.0513130
 129.4287459  42.2622782  49.1510267 128.9396639  40.9723275  46.8500426
 129.4684405  40.4615729  46.2370588 129.2024858  40.6565805  47.7145959
 127.6934872  32.7515207  61.9723244 127.0175509  32.6509337  62.6425619
 128.5162506  32.5954421  62.4359241 119.4413732  38.9887144  54.5935759
 120.0267168  38.2430832  54.7263664 119.2438570  39.2991101  55.4772423
 122.2952387  42.0238391  49.6098202 121.6262762  42.5084519  49.1262242
 122.1565256  42.2707612  50.5241580 114.0331386  31.5592744  53.3140203
 114.0715486  31.0256335  54.1077321 113.5271679  31.0327950  52.6951180
 126.4357655  44.0582135  56.2080860 126.9875963  44.2213756  56.9729945
 126.7763849  44.6486573  55.5360885 121.4122149  26.4057285  56.8102745
 121.4763475  27.2672115  56.3980143 121.3489269  25.7931286  56.0775103
 120.8874421  28.4780417  60.4575779 121.5146460  28.0957494  61.0713303
 120.0302340  28.2594619  60.8231472 131.2868530  38.8843392  62.0629515
 131.8308434  39.4973351  61.5684469 130.7055375  39.4422971  62.5796528
 117.6639964  30.2856846  46.3894134 117.9593405  29.3767525  46.3361188
 116.7628000  30.2644586  46.0675136 129.5726043  42.0064110  53.1944542
 129.4477182  41.2053850  52.6855488 130.2305134  42.5010304  52.7058512
 121.1934211  28.3612843  52.3721683 120.4720797  28.9748811  52.2329156
 121.9827467  28.8970608  52.2938328 131.6360951  39.8073130  54.8224092
 130.6891287  39.6878482  54.7502419 131.9843724  38.9195628  54.9050354
 123.9960524  25.6967269  58.6462334 124.5194926  25.9429566  59.4088644
 123.7772858  26.5287304  58.2265472 119.3927805  27.9670944  46.5133459
 119.0640512  27.0868323  46.3308565 119.7467176  27.9118613  47.4009848
 128.6407384  39.6025847  51.0228445 128.4932347  38.6742554  51.2036015
 129.4660878  39.6245937  50.5385520 122.5069629  28.2543914  46.8808937
 122.8465701  28.7829835  46.1587545 122.9541749  28.5924320  47.6567503
 132.2441506  40.4254405  52.1093317 133.1688054  40.2197267  51.9717769
 132.0756810  40.1770806  53.0182659 125.2013069  26.6380964  56.3312005
 124.8609890  25.8388777  56.7332685 124.4952076  26.9382675  55.7588838
 125.8529541  23.7230277  54.7839328 126.6755611  23.2490755  54.6618218
 126.0967605  24.5020761  55.2838014 124.4937776  26.7518535  45.0802230
 125.2146138  27.1299788  44.5765946 123.8703080  27.4707412  45.1837207
 128.6368899  27.4563684  46.0160562 128.8532513  28.3388322  45.7149390
 128.1562966  27.0649898  45.2866204 123.3768120  30.4149397  52.5931306
 123.2312701  30.7289701  53.4855588 122.8993324  31.0334298  52.0402205
 125.2364503  27.4051945  52.6412196 125.2226072  26.5093039  52.3044494
 125.9536931  27.4122609  53.2750482 127.0890634  27.8389286  54.6865323
 126.8308411  28.7606356  54.6849654 126.5575674  27.4419720  55.3765788
 132.0336822  40.9440073  47.4655409 132.2073700  40.3786495  46.7129261
 132.5265714  41.7440968  47.2834899 117.8513782  32.9554742  55.5318968
 117.3067250  33.7314550  55.6639242 118.7293132  33.3025546  55.3738089
 124.6401399  26.2866326  47.9099766 124.7617310  25.3582972  48.1090654
 124.3503441  26.3005012  46.9978082 127.5092589  23.9721236  51.0466486
 127.5314286  24.0360569  50.0918466 127.9260648  23.1325745  51.2406992
 137.8876214  33.7076496  49.0845709 138.3307360  32.9583821  48.6864832
 137.0102724  33.6986632  48.7019441 133.0211995  40.2606837  44.5652307
 133.7162899  40.8813530  44.7839622 133.3635145  39.4102188  44.8404685
 118.6379804  32.0824638  58.4249124 117.8961540  32.2307273  59.0113755
 118.3172548  32.3432904  57.5615874 134.9203418  37.7106543  46.0939638
 135.4454742  38.0493815  45.3688958 134.8325771  36.7753558  45.9102772
 126.5823467  41.6240616  58.2229514 126.8910593  41.3789763  59.0952214
 127.3798949  41.8287255  57.7348385 126.6044079  43.7778526  50.4534891
 126.1649069  43.2854905  51.1467748 127.3552196  43.2351494  50.2126966
 119.0836418  39.9690067  50.4559519 119.9094438  39.6693839  50.0758163
 118.7330470  39.1997689  50.9049308 124.0517951  39.3216535  52.5257193
 123.4297960  38.6587240  52.2259421 124.7222818  39.3477667  51.8430840
 117.2845023  37.8876393  51.4148453 116.4476931  37.4598568  51.2332454
 117.2568668  38.0808837  52.3519244 124.1242478  27.7998323  62.1189699
 124.1730634  28.6760446  61.7367468 124.6664993  27.2575716  61.5461342
 134.6097324  38.3439446  61.3990836 133.8192868  38.3263585  60.8595335
 134.3730679  38.8827740  62.1539872 134.7295199  35.1931913  58.7123564
 134.7793204  35.0281920  59.6539087 134.6209122  34.3259172  58.3221445
 123.6131458  37.8720458  46.0015653 123.7619578  38.5555923  45.3482326
 124.4197901  37.8525548  46.5165109 132.0198961  31.1762841  60.0282871
 132.9208824  31.0369306  59.7366869 132.0946936  31.3417296  60.9681049
 126.3541767  28.5529696  58.8736057 125.4845076  28.8463262  58.6018646
 126.5901247  29.1370141  59.5943321 136.2313396  37.6128854  58.9565586
 135.9398204  37.9758835  59.7929047 135.6185527  36.8995863  58.7778918
 137.4309078  35.1781734  51.4768156 138.2655970  35.6171538  51.6405716
 137.5668207  34.7020387  50.6576402 134.4800584  32.7361469  57.4245644
 134.9554706  32.9289115  56.6164495 133.5566150  32.7920655  57.1789028
 121.3684091  33.8985636  47.0076722 121.1230133  32.9947966  47.2056932
 121.5380005  33.9002787  46.0656200 129.0580801  24.7709312  56.3901478
 129.5762745  25.5070339  56.0647966 128.7035933  25.0773306  57.2248237
 120.6379738  29.6313994  44.5062884 119.9448983  29.7058349  43.8502920
 120.3931490  28.8674337  45.0284401 129.3093395  21.1909595  51.9102374
 129.5895149  20.5232784  52.5362801 130.0944002  21.3838691  51.3977038
 127.1126863  40.3668589  43.4727401 126.5400830  40.9858776  43.0197873
 127.6859657  40.9167951  44.0067323 133.1802253  29.6127229  55.6573949
 134.1319676  29.7125327  55.6786174 133.0105704  28.8205498  56.1672034
 131.2016633  26.6982812  55.8433350 130.6066565  26.9787825  55.1479839
 130.9166329  27.1876713  56.6150092 130.3324123  40.6505739  44.6035983
 131.2654796  40.5851301  44.8068858 130.2447336  41.4862006  44.1450516
 132.9612140  39.9671609  41.5639931 132.8825771  39.6331473  42.4575688
 133.7821807  40.4593377  41.5631403 135.6590331  32.8333349  54.7716249
 135.6266651  31.8949349  54.9575933 136.2690955  32.9117385  54.0382074
 127.4973662  31.7029402  40.8143453 128.4432767  31.5735610  40.8831871
 127.1187907  30.9644064  41.2912881 135.8084819  29.6244392  54.8174532
 135.2923868  28.8402849  54.6304461 136.6924768  29.2963109  54.9821052
 133.4695546  23.3685408  50.7770345 133.2720367  23.0600496  51.6613677
 134.0795252  24.0947047  50.9068275 141.4766881  33.8949355  53.9122286
 142.2070269  33.6334644  54.4729989 140.8673826  33.1578077  53.9524354
 139.5582178  32.0357218  54.5096737 138.8315341  31.9013183  53.9013229
 139.1429465  32.3434047  55.3153455 127.3812354  35.7547148  62.2744110
 128.3015364  35.9325747  62.4684157 127.3461937  34.8103193  62.1223809
 125.6816579  29.6279378  40.7498338 124.7748034  29.3312491  40.8261052
 125.9592560  29.3309196  39.8832625 116.5994519  30.9485741  51.1997385
 116.2797304  30.0951050  50.9071759 116.0527948  31.1634320  51.9555352
 120.3774427  33.6648182  54.9166891 120.5960437  34.5965290  54.9354925
 120.7900201  33.3056157  55.7021695 127.2978645  24.1716268  46.9042580
 126.4879373  23.8263353  47.2797826 127.9863062  23.8623811  47.4930191
 129.2269193  23.2494315  48.5266876 129.7800232  23.6689768  49.1856899
 129.4639279  22.3230063  48.5689832 125.2502292  29.2381388  64.3069640
 125.1499019  30.1875745  64.2381731 125.0323834  28.9099627  63.4345710
 124.4515364  26.4866313  40.8910318 125.3134528  26.8121212  41.1506135
 124.6365708  25.6997809  40.3783383 116.4682779  34.5688653  53.1690506
 115.7746251  34.1542606  52.6560461 117.2155770  34.6109189  52.5723925
 132.6048000  25.3594840  48.0345541 132.0246669  26.0179644  47.6523593
 132.3383933  24.5372184  47.6232958 131.0551566  24.7599897  50.2366861
 131.5551345  24.8716432  49.4281180 131.6987174  24.4560950  50.8767669
 125.1133562  32.6678527  63.1234702 124.6300644  33.4678887  63.3298591
 125.1994501  32.6786472  62.1702146 118.3819522  34.5006907  51.0456521
 118.3590210  34.5994594  50.0938404 118.6920158  35.3472057  51.3673687
 121.0406900  36.5583062  55.1603136 121.9950153  36.5267004  55.0933067
 120.8419423  36.0973685  55.9753362 121.6306282  35.1284178  57.7273933
 122.4499171  35.6228256  57.7508771 121.9043090  34.2116146  57.6991501
 131.3872878  27.5194930  47.0901889 130.4998733  27.8044581  46.8722084
 131.8026867  27.3588693  46.2429166 134.7387414  27.5441451  50.8056228
 135.5147804  28.0337904  51.0780845 134.0135548  27.9699505  51.2628098
 137.1759973  28.2569070  51.8630169 137.7704464  28.0164806  51.1523477
 137.2486557  27.5376201  52.4903705 119.3957129  42.1002681  52.1773334
 119.2611596  41.3403082  51.6111332 118.9789191  42.8243581  51.7102122
 130.5316092  37.2839605  41.1849909 131.2351942  37.4889607  41.8007564
 129.8078740  37.8516367  41.4498992 131.3613902  33.0349466  47.3052179
 131.3049103  33.4918017  46.4659811 131.9142244  32.2740151  47.1275022
 135.1718708  28.8239198  48.1302299 134.9155642  28.4235834  48.9610506
 134.5471576  29.5382992  48.0052438 139.4831046  31.5635271  50.6373590
 138.9230604  31.6328460  51.4105152 138.8774549  31.3876256  49.9173086
 122.5526254  42.9971998  52.3891776 122.4358639  43.9417431  52.2870466
 121.7318701  42.6945560  52.7777575 132.4402789  37.7222134  43.2348369
 133.2748393  37.2903332  43.0525844 132.2787132  37.5504148  44.1625263
 132.0948681  34.2254247  44.6004708 132.0397485  34.0598519  43.6593152
 131.4694736  34.9330280  44.7566898 116.8841196  29.4622312  58.4266130
 117.5300060  28.9521266  58.9153356 116.6758347  30.1990993  59.0009556
 129.4094588  36.5303159  63.9258271 130.2785748  36.7043811  63.5644906
 128.9301340  37.3497576  63.8034000 125.4044807  23.7262356  44.1790027
 125.3923476  24.6704196  44.3358297 126.2968228  23.5432502  43.8849488
 123.5780769  43.6500260  55.6047705 124.4808015  43.6823870  55.9214200
 123.3518139  42.7200711  55.6194040 125.3334371  42.4031247  52.2657783
 124.3830002  42.4033108  52.1522156 125.6366857  41.6563981  51.7493818
 129.2196926  20.3205133  48.4335963 128.4529322  19.7663620  48.5792646
 129.6307631  20.3927002  49.2950115 121.2238687  26.6089929  62.5241145
 122.0870149  26.2526734  62.7344469 120.6504098  26.2703824  63.2116549
 141.0687064  48.2391785  53.3303546 141.7065474  48.1198532  52.6266886
 140.9507907  49.1872629  53.3891498 137.8776770  48.1919213  53.2665070
 137.5395282  48.0760278  52.3785605 138.7466539  47.7910378  53.2466076
 133.7363586  50.0454690  49.2561961 133.1728451  49.9544627  48.4878249
 133.6215981  49.2254594  49.7364454 138.3596553  49.3454065  59.2251276
 138.3485194  48.9506863  58.3531780 138.5217193  48.6120138  59.8185047
 131.2828018  51.5405881  52.0946182 132.0749310  51.1996706  51.6792481
 131.5224668  51.6500856  53.0148335 139.3163145  53.7125657  44.5676426
 138.6651124  54.2979738  44.1810440 140.1107508  54.2431852  44.6271464
 133.2418772  50.8014794  44.9663561 134.0149648  50.2543782  44.8276436
 133.5944171  51.6659044  45.1778022 135.0803814  52.1291177  58.1730460
 134.7893680  53.0336808  58.0577126 135.7160799  52.1707704  58.8874529
 136.0060021  49.5068025  54.7631820 136.6023594  49.2824048  54.0488782
 136.0634993  48.7652771  55.3657267 135.5785050  46.9607461  42.5982010
 135.8310570  46.4388982  41.8365473 134.6409609  46.7973606  42.7008694
 140.6228333  45.9643239  50.4056754 141.4091422  45.5462662  50.0547171
 140.8867037  46.8689331  50.5738402 140.7938410  51.4016089  45.1045411
 140.1584243  51.4750716  45.8166315 140.4635816  51.9909688  44.4264490
 146.0236760  45.9018472  51.3089732 146.7561932  45.3317689  51.5427562
 145.2676115  45.5140073  51.7496238 135.2981338  48.8635567  44.8006385
 135.1817597  48.1880470  45.4687470 135.4083598  48.3767940  43.9838538
 137.6412879  48.3245714  48.5053075 137.2771087  47.7976335  49.2165996
 138.4979995  47.9344183  48.3319560 143.5462180  39.6140046  55.7684341
 143.2145505  40.4835457  55.5445556 142.9507793  39.2976330  56.4478371
 137.2818366  43.3535613  43.5014423 137.4492769  44.2215850  43.8684894
 137.0915535  43.5162895  42.5775712 140.0393700  51.8152592  55.1680254
 139.7394423  52.7177631  55.0596061 139.6944759  51.5484775  56.0201406
 133.4906181  48.2666389  51.2016958 132.5656677  48.1342603  51.4094650
 133.7390594  49.0460608  51.6986900 143.4390843  44.3335132  52.8477691
 142.5307721  44.2650541  52.5536452 143.3878439  44.8107077  53.6759516
 137.2607587  45.8093271  44.4861090 137.1407212  46.2550322  45.3246570
 136.5660176  46.1578588  43.9274628 130.8514992  47.9099663  52.0360747
 130.9807373  48.1634142  52.9500159 130.1712443  48.5027371  51.7165402
 135.0214479  58.5796913  48.1351221 134.9438509  59.5304738  48.2139702
 134.4176123  58.2342785  48.7926148 137.5131709  45.7524778  60.7912588
 136.7365043  46.3118698  60.7815453 138.1522272  46.2381561  61.3127458
 145.3052490  42.5351571  54.6255565 144.6626870  42.8284104  53.9795359
 144.8007418  42.4204491  55.4308761 142.9592653  46.2814744  45.3141424
 143.8710509  46.5142131  45.1389122 142.4502300  46.8651788  44.7516503
 135.7678081  48.5610231  60.3530555 136.5092766  49.0995275  60.0765379
 135.0615067  49.1876520  60.5102107 141.2433421  50.7039372  58.9502717
 141.6516777  50.2621782  58.2057349 140.5210683  50.1291999  59.2036910
 137.5964491  45.6411979  56.3236274 138.4425686  46.0651392  56.4670923
 137.5363129  44.9845603  57.0174837 141.5662236  51.2640562  52.7055006
 140.9371098  51.4286277  52.0031073 141.1787898  51.6782172  53.4765970
 145.4451468  52.1995000  50.0599369 144.7602506  52.5793902  49.5096403
 145.5295317  52.8090327  50.7931317 140.7463936  43.3016347  57.9817447
 140.5024868  44.0558407  57.4451723 141.0223867  43.6801695  58.8164694
 142.7002399  49.8454959  56.6594713 142.9119294  50.4886719  55.9829094
 142.6532147  49.0117276  56.1916643 140.3028628  42.4572780  53.5631285
 139.4413107  42.7554034  53.8548023 140.3291063  42.6743179  52.6312318
 137.1190198  51.0014971  49.9705091 137.5828543  51.2802674  49.1809713
 136.8546996  50.0998415  49.7878181 134.0114279  50.5486452  52.9084854
 134.5815636  50.9773720  52.2702338 134.6022390  50.2669037  53.6069040
 136.0559084  47.1238123  46.7794656 136.7583127  47.5759167  47.2468582
 135.7239712  46.4821942  47.4074549 134.5039445  45.7149880  61.1545865
 133.8738106  46.3966160  61.3881262 134.3975533  45.6032961  60.2099003
 129.7984418  45.3821676  52.0811789 129.0083472  45.6379204  51.6051900
 130.2895665  46.1970013  52.1863830 143.8148227  52.7226915  54.8317070
 144.6365671  52.3207102  54.5499752 143.8110630  52.6195149  55.7833186
 131.7499163  45.7466255  49.0395266 130.9530326  45.8584949  49.5578762
 131.5224755  46.0852907  48.1736157 137.5804831  52.2710958  56.9877781
 137.6449263  52.7331365  57.8235952 136.8715754  51.6408323  57.1160090
 128.0822121  45.6352166  54.5126780 128.3330159  46.5199176  54.7784356
 128.6181669  45.4556768  53.7401872 151.9054220  49.0665663  51.1802042
 151.1517929  48.4973061  51.0246046 152.0401761  49.0328328  52.1272676
 137.2952848  53.9379066  46.8556761 137.1598523  54.7830601  47.2841609
 137.8362661  54.1398343  46.0922695 133.7820188  40.0170645  63.5171116
 133.3887133  39.4636844  64.1918760 134.5986328  40.3281224  63.9077634
 130.7482246  51.4554504  47.4284686 131.2606766  52.2497754  47.5790251
 131.4004958  50.7580794  47.3618288 132.5577130  54.5720260  49.5107439
 132.7343759  55.4938225  49.3228423 133.3533964  54.2578679  49.9401819
 136.6988149  41.4328524  61.1091373 137.4397862  42.0335678  61.0295835
 136.9306072  40.6906162  60.5509415 131.8429487  46.6184892  59.3869602
 131.7283002  45.7170149  59.6876701 130.9874005  46.8648588  59.0354419
 138.9221325  54.5602632  60.9857103 138.4785179  53.7739011  60.6678008
 139.5838538  54.7481783  60.3200994 133.6808446  56.0898434  55.5117782
 134.2315871  55.9615497  54.7394775 132.8419922  56.3893323  55.1612674
 141.0202563  54.8405432  59.0138504 141.0021038  55.6614313  58.5218773
 141.9422483  54.7159507  59.2388645 137.4775617  52.3549561  59.8562013
 138.0103954  51.5937850  59.6261321 136.9489698  52.0623213  60.5986167
 140.6445312  37.4609627  55.3855654 140.3009581  38.3511269  55.3094765
 141.0124274  37.2711285  54.5225239 128.7131162  49.7843158  48.2044257
 129.5506384  50.1940166  47.9877964 128.8909430  48.8442600  48.1744450
 140.6095595  47.4518238  43.8928090 140.0942218  48.2222843  44.1316477
 140.3372903  46.7783375  44.5161151 138.1942706  42.2967939  48.9513328
 137.3384302  41.9074790  48.7718967 138.6069657  42.3759900  48.0913113
 139.7241852  39.8314283  53.3504888 139.2206648  39.7944418  52.5372693
 140.0172459  40.7407025  53.4101544 135.9684738  39.9153012  52.3571069
 136.8337735  39.7195821  51.9976959 136.0362247  39.6863364  53.2840426
 145.5829869  50.2050593  45.8281263 144.8059311  49.8661753  45.3836425
 146.2621350  50.2103216  45.1536228 140.3981898  45.3245331  45.7187871
 140.0932033  45.6391480  46.5698014 141.3512340  45.4026750  45.7615204
 138.8428330  51.4835554  47.3680825 138.3149691  50.7488313  47.0554062
 138.3415832  52.2610230  47.1220793 143.8221176  49.6784574  52.4847871
 143.1644850  50.3683836  52.5728000 144.6261575  50.0681006  52.8281857
 133.5747057  42.1455220  49.7287436 134.1490809  41.9230402  48.9960629
 134.1618040  42.2143915  50.4816038 142.6326634  48.0328947  50.5351813
 143.1458516  48.6658939  51.0373522 143.2827858  47.4330143  50.1695173
 133.9016644  44.1759681  43.7483321 133.0653957  44.5134368  44.0692596
 133.7621414  44.0408661  42.8110458 135.8769725  39.0196469  48.4562506
 135.2234137  38.7045486  47.8319120 135.8350199  38.3972210  49.1822329
 136.9880930  49.3015764  40.3715798 136.0807991  49.0705018  40.5706947
 137.4851962  48.5053383  40.5589779 139.8949009  58.0113271  43.2912484
 139.2210707  58.3144968  43.8997442 140.2814831  58.8142352  42.9417941
 139.1107465  45.5078403  52.7810153 138.1930027  45.7293350  52.6231841
 139.5267609  45.5824713  51.9221861 139.8942513  46.9069818  47.9112834
 140.6414332  47.4191216  47.6019956 140.1634103  46.5853871  48.7717227
 138.1669163  49.4028359  44.8939788 137.2580382  49.1187392  44.9912258
 138.1964247  49.8227438  44.0343095 143.3988431  53.0134949  48.6630955
 142.9450758  52.1725858  48.7196146 142.7682397  53.6496347  49.0005736
 142.3421350  43.9426935  49.8931623 141.6044107  43.4304321  50.2241865
 142.5948124  43.5027316  49.0814900 141.8421370  54.8511445  49.5980774
 142.1344344  55.4116502  48.8793139 142.3519990  55.1440006  50.3533933
 142.4432977  36.7203187  50.4873392 142.7491854  35.8600550  50.1999307
 143.1685582  37.3120807  50.2872386 128.7357334  47.1233873  48.8754990
 128.5381733  46.5303234  48.1506057 128.1803998  46.8186083  49.5930929
 136.7154057  47.0156980  50.9949583 136.7702667  46.0630816  50.9192060
 135.9045259  47.1716419  51.4790882 137.8645251  50.9437103  42.2327866
 137.4264681  50.2272962  41.7733504 138.6055692  51.1713218  41.6712958
 134.6546417  45.6334039  48.7539962 133.8414283  45.9328210  49.1605154
 135.1505411  45.2389728  49.4714444 136.8054995  55.6291796  50.6874227
 136.7631174  55.8552643  49.7582759 137.7217694  55.3955171  50.8360028
 140.2520629  46.0975864  57.5854856 140.6070017  46.3247337  58.4449322
 140.8992760  46.4294241  56.9632111 145.9818366  49.2194300  48.2904185
 145.8436264  49.4095896  47.3625374 145.6254585  49.9813683  48.7472236
 134.1460492  43.2052395  54.3701197 134.7859871  43.0641154  53.6724160
 133.3138022  42.9186908  53.9939799 146.0087745  51.2870827  53.3015456
 146.4424252  51.1946116  54.1498511 146.7219326  51.2628327  52.6635472
 134.9220796  52.5054825  50.4836189 135.7161394  52.0105145  50.2818764
 134.2112488  51.9772688  50.1203895 139.7415640  54.8872921  54.8348557
 139.7952663  55.4563857  55.6026273 138.8730422  55.0574806  54.4702594
 131.2303559  46.6497907  46.5595942 130.3001147  46.5882363  46.7765904
 131.3261031  46.1273860  45.7632583 131.1489108  43.1752720  49.1474184
 131.4095926  44.0898053  49.0383344 131.9706281  42.7077162  49.2970797
 132.6214034  44.5890477  56.3173008 133.2937087  44.3807839  55.6685657
 131.7943820  44.3912563  55.8778241 146.8703295  51.3294527  55.8348342
 147.0639185  52.2340338  56.0807617 146.7703913  50.8701946  56.6686927
 138.5239606  41.2152418  58.3338669 137.8767521  41.9142368  58.2403146
 139.2940621  41.6488562  58.7014917 141.9318404  51.4801270  61.4089222
 141.7803910  51.2511822  60.4919306 141.9223083  52.4371872  61.4220567
 138.7003740  49.0533183  56.3935489 139.6295800  49.2044343  56.2204456
 138.2794770  49.1417204  55.5384135 137.4992072  53.0783847  54.1634027
 137.3603157  52.7102632  55.0359965 136.7106668  53.5931487  53.9917984
 138.0940224  58.1792944  45.5059563 138.2691979  57.7080987  46.3205186
 137.4073012  58.8058710  45.7340824 139.0497287  52.4565450  51.5522864
 138.7147120  52.4166220  52.4480514 138.5501233  51.7910166  51.0793275
 133.0241531  47.8633080  57.0775445 132.8861329  47.1313319  57.6786985
 133.9346454  47.7741980  56.7959633 141.9856479  49.8021484  41.8259924
 141.3685649  49.0768313  41.7292977 141.5172967  50.5630845  41.4826998
 135.6523832  47.5753039  56.5659125 136.3623450  46.9346232  56.5245744
 135.6093140  47.8265934  57.4885306 143.6410610  54.5120393  59.4865704
 143.5823156  53.8279613  58.8196287 144.0430129  55.2539383  59.0346330
 134.3652766  44.5618257  58.3854765 133.8290123  44.1108996  59.0376361
 133.7769474  44.6964166  57.6425229 132.6601309  61.3282307  52.2799423
 132.8997907  61.9600831  52.9578442 131.8170506  60.9770347  52.5664783
 133.7755025  44.0206909  40.9481228 132.8984491  43.8995709  40.5843475
 134.2512778  43.2292987  40.6960117 143.6428018  52.4759977  57.7179684
 142.7554796  52.1385898  57.8406083 144.2126569  51.7443008  57.9548449
 125.2957165  48.8084068  51.0422735 125.9828204  48.4945798  50.4543751
 125.1405293  49.7125433  50.7689987 130.0991887  43.6974265  55.4707759
 130.0150076  43.0899935  54.7358169 129.2774593  44.1883283  55.4717255
 137.1729171  57.1361429  54.6840927 137.0999342  57.9416400  55.1960232
 136.7306564  57.3353395  53.8588949 136.9618951  56.3733199  48.1943749
 136.1786472  56.9154879  48.2881973 137.6611696  56.8907179  48.5937990
 140.2715601  42.1827828  50.8377954 140.7684300  41.4297791  50.5179024
 139.5002582  42.2192145  50.2721163 148.1245358  47.8868194  52.4796246
 148.1135234  48.7692909  52.1090179 147.2562737  47.5339745  52.2850783
 139.6327854  57.0348263  56.8399086 140.3455827  57.6695728  56.7674987
 139.1417883  57.1312129  56.0239088 141.3545381  50.9399516  48.4116378
 140.4201660  51.0600978  48.2421082 141.5322050  50.0371982  48.1476387
 136.8550569  44.3245211  50.5649639 136.4848357  43.7716252  51.2530544
 137.3509662  43.7203345  50.0124639 144.7417933  46.7816835  48.9466412
 145.2078385  47.6144827  48.8726714 145.1925433  46.3161817  49.6511670
 134.6839768  54.7842706  57.6604657 135.3849227  55.4179189  57.8134051
 134.2134883  55.1257438  56.9000296 142.8094164  53.1260656  45.9452564
 143.0854008  53.0117251  46.8546438 141.9398663  52.7278141  45.9064737
 142.7134595  39.1497422  52.9857313 141.7997675  39.3801649  53.1539520
 143.1427697  39.2335866  53.8371345 142.4841054  47.3387314  55.4857207
 141.8312504  47.5863221  54.8309660 142.8621434  46.5251452  55.1519684
 139.4448228  57.3747007  49.5885377 139.6270622  56.5568663  50.0513130
 140.2681214  57.5914699  49.1510267 139.7790393  56.3015192  46.8500426
 140.3078160  55.7907647  46.2370588 140.0418613  55.9857722  47.7145959
 138.5328627  48.0807125  61.9723244 137.8569264  47.9801254  62.6425619
 139.3556261  47.9246339  62.4359241 130.2807486  54.3179062  54.5935759
 130.8660923  53.5722749  54.7263664 130.0832324  54.6283018  55.4772423
 133.1346141  57.3530309  49.6098202 132.4656517  57.8376437  49.1262242
 132.9959011  57.5999529  50.5241580 124.8725141  46.8884662  53.3140203
 124.9109240  46.3548252  54.1077321 124.3665434  46.3619867  52.6951180
 137.2751410  59.3874052  56.2080860 137.8269718  59.5505674  56.9729945
 137.6157603  59.9778490  55.5360885 132.2515903  41.7349202  56.8102745
 132.3157230  42.5964033  56.3980143 132.1883023  41.1223204  56.0775103
 131.7268176  43.8072335  60.4575779 132.3540214  43.4249412  61.0713303
 130.8696094  43.5886537  60.8231472 142.1262284  54.2135310  62.0629515
 142.6702188  54.8265268  61.5684469 141.5449129  54.7714888  62.5796528
 128.5033718  45.6148764  46.3894134 128.7987159  44.7059442  46.3361188
 127.6021754  45.5936503  46.0675136 140.4119797  57.3356028  53.1944542
 140.2870937  56.5345768  52.6855488 141.0698888  57.8302221  52.7058512
 132.0327965  43.6904760  52.3721683 131.3114551  44.3040728  52.2329156
 132.8221221  44.2262525  52.2938328 142.4754705  55.1365048  54.8224092
 141.5285041  55.0170399  54.7502419 142.8237479  54.2487546  54.9050354
 134.8354279  41.0259187  58.6462334 135.3588681  41.2721484  59.4088644
 134.6166612  41.8579222  58.2265472 130.2321560  43.2962862  46.5133459
 129.9034266  42.4160240  46.3308565 130.5860931  43.2410530  47.4009848
 139.4801139  54.9317764  51.0228445 139.3326101  54.0034472  51.2036015
 140.3054632  54.9537855  50.5385520 133.3463383  43.5835831  46.8808937
 133.6859456  44.1121753  46.1587545 133.7935504  43.9216237  47.6567503
 143.0835261  55.7546323  52.1093317 144.0081808  55.5489184  51.9717769
 142.9150564  55.5062724  53.0182659 136.0406824  41.9672882  56.3312005
 135.7003644  41.1680695  56.7332685 135.3345830  42.2674593  55.7588838
 136.6923296  39.0522194  54.7839328 137.5149365  38.5782673  54.6618218
 136.9361359  39.8312678  55.2838014 135.3331530  42.0810453  45.0802230
 136.0539893  42.4591706  44.5765946 134.7096834  42.7999330  45.1837207
 139.4762653  42.7855602  46.0160562 139.6926268  43.6680240  45.7149390
 138.9956720  42.3941815  45.2866204 134.2161874  45.7441315  52.5931306
 134.0706455  46.0581618  53.4855588 133.7387078  46.3626215  52.0402205
 136.0758257  42.7343863  52.6412196 136.0619826  41.8384956  52.3044494
 136.7930685  42.7414527  53.2750482 137.9284388  43.1681203  54.6865323
 137.6702166  44.0898274  54.6849654 137.3969428  42.7711638  55.3765788
 142.8730577  56.2731990  47.4655409 143.0467454  55.7078413  46.7129261
 143.3659468  57.0732885  47.2834899 128.6907537  48.2846660  55.5318968
 128.1461005  49.0606468  55.6639242 129.5686887  48.6317464  55.3738089
 135.4795153  41.6158243  47.9099766 135.6011065  40.6874890  48.1090654
 135.1897196  41.6296929  46.9978082 138.3486344  39.3013154  51.0466486
 138.3708041  39.3652487  50.0918466 138.7654403  38.4617662  51.2406992
 148.7269968  49.0368413  49.0845709 149.1701114  48.2875739  48.6864832
 147.8496478  49.0278550  48.7019441 143.8605749  55.5898755  44.5652307
 144.5556654  56.2105448  44.7839622 144.2028899  54.7394106  44.8404685
 129.4773559  47.4116556  58.4249124 128.7355295  47.5599191  59.0113755
 129.1566303  47.6724821  57.5615874 145.7597172  53.0398460  46.0939638
 146.2848497  53.3785733  45.3688958 145.6719525  52.1045476  45.9102772
 137.4217221  56.9532534  58.2229514 137.7304348  56.7081681  59.0952214
 138.2192703  57.1579173  57.7348385 137.4437833  59.1070444  50.4534891
 137.0042824  58.6146822  51.1467748 138.1945950  58.5643411  50.2126966
 129.9230172  55.2981985  50.4559519 130.7488192  54.9985756  50.0758163
 129.5724224  54.5289607  50.9049308 134.8911705  54.6508453  52.5257193
 134.2691715  53.9879158  52.2259421 135.5616572  54.6769585  51.8430840
 128.1238777  53.2168311  51.4148453 127.2870686  52.7890485  51.2332454
 128.0962423  53.4100754  52.3519244 134.9636233  43.1290241  62.1189699
 135.0124388  44.0052364  61.7367468 135.5058747  42.5867634  61.5461342
 145.4491079  53.6731364  61.3990836 144.6586622  53.6555503  60.8595335
 145.2124433  54.2119658  62.1539872 145.5688954  50.5223830  58.7123564
 145.6186959  50.3573838  59.6539087 145.4602877  49.6551089  58.3221445
 134.4525212  53.2012376  46.0015653 134.6013333  53.8847840  45.3482326
 135.2591656  53.1817466  46.5165109 142.8592716  46.5054758  60.0282871
 143.7602579  46.3661223  59.7366869 142.9340690  46.6709213  60.9681049
 137.1935521  43.8821613  58.8736057 136.3238831  44.1755179  58.6018646
 137.4295002  44.4662058  59.5943321 147.0707150  52.9420772  58.9565586
 146.7791959  53.3050752  59.7929047 146.4579282  52.2287780  58.7778918
 148.2702833  50.5073652  51.4768156 149.1049724  50.9463456  51.6405716
 148.4061962  50.0312305  50.6576402 145.3194339  48.0653387  57.4245644
 145.7948460  48.2581033  56.6164495 144.3959904  48.1212572  57.1789028
 132.2077845  49.2277554  47.0076722 131.9623887  48.3239884  47.2056932
 132.3773760  49.2294704  46.0656200 139.8974555  40.1001230  56.3901478
 140.4156499  40.8362257  56.0647966 139.5429688  40.4065223  57.2248237
 131.4773493  44.9605911  44.5062884 130.7842738  45.0350266  43.8502920
 131.2325245  44.1966255  45.0284401 140.1487149  36.5201513  51.9102374
 140.4288903  35.8524702  52.5362801 140.9337756  36.7130608  51.3977038
 137.9520618  55.6960507  43.4727401 137.3794585  56.3150694  43.0197873
 138.5253411  56.2459868  44.0067323 144.0196008  44.9419147  55.6573949
 144.9713431  45.0417244  55.6786174 143.8499458  44.1497415  56.1672034
 142.0410387  42.0274730  55.8433350 141.4460319  42.3079743  55.1479839
 141.7560084  42.5168631  56.6150092 141.1717878  55.9797657  44.6035983
 142.1048551  55.9143218  44.8068858 141.0841090  56.8153924  44.1450516
 143.8005894  55.2963527  41.5639931 143.7219526  54.9623391  42.4575688
 144.6215561  55.7885295  41.5631403 146.4984085  48.1625266  54.7716249
 146.4660406  47.2241267  54.9575933 147.1084709  48.2409303  54.0382074
 138.3367416  47.0321319  40.8143453 139.2826521  46.9027527  40.8831871
 137.9581661  46.2935981  41.2912881 146.6478574  44.9536310  54.8174532
 146.1317623  44.1694766  54.6304461 147.5318522  44.6255026  54.9821052
 144.3089301  38.6977325  50.7770345 144.1114122  38.3892414  51.6613677
 144.9189006  39.4238964  50.9068275 152.3160635  49.2241273  53.9122286
 153.0464024  48.9626561  54.4729989 151.7067581  48.4869995  53.9524354
 150.3975932  47.3649136  54.5096737 149.6709096  47.2305101  53.9013229
 149.9823219  47.6725964  55.3153455 138.2206109  51.0839065  62.2744110
 139.1409118  51.2617664  62.4684157 138.1855692  50.1395111  62.1223809
 136.5210333  44.9571296  40.7498338 135.6141789  44.6604408  40.8261052
 136.7986314  44.6601114  39.8832625 127.4388274  46.2777659  51.1997385
 127.1191058  45.4242967  50.9071759 126.8921702  46.4926237  51.9555352
 131.2168181  48.9940100  54.9166891 131.4354191  49.9257208  54.9354925
 131.6293955  48.6348074  55.7021695 138.1372399  39.5008185  46.9042580
 137.3273127  39.1555270  47.2797826 138.8256816  39.1915729  47.4930191
 140.0662947  38.5786232  48.5266876 140.6193986  38.9981686  49.1856899
 140.3033034  37.6521980  48.5689832 136.0896047  44.5673306  64.3069640
 135.9892774  45.5167663  64.2381731 135.8717589  44.2391545  63.4345710
 135.2909118  41.8158231  40.8910318 136.1528282  42.1413129  41.1506135
 135.4759462  41.0289727  40.3783383 127.3076534  49.8980571  53.1690506
 126.6140005  49.4834523  52.6560461 128.0549525  49.9401107  52.5723925
 143.4441755  40.6886757  48.0345541 142.8640424  41.3471561  47.6523593
 143.1777687  39.8664102  47.6232958 141.8945321  40.0891815  50.2366861
 142.3945099  40.2008350  49.4281180 142.5380929  39.7852868  50.8767669
 135.9527317  47.9970445  63.1234702 135.4694398  48.7970805  63.3298591
 136.0388256  48.0078390  62.1702146 129.2213276  49.8298824  51.0456521
 129.1983964  49.9286512  50.0938404 129.5313913  50.6763975  51.3673687
 131.8800654  51.8874979  55.1603136 132.8343908  51.8558922  55.0933067
 131.6813178  51.4265603  55.9753362 132.4700036  50.4576095  57.7273933
 133.2892925  50.9520174  57.7508771 132.7436844  49.5408064  57.6991501
 142.2266633  42.8486848  47.0901889 141.3392488  43.1336498  46.8722084
 142.6420622  42.6880611  46.2429166 145.5781169  42.8733369  50.8056228
 146.3541559  43.3629821  51.0780845 144.8529303  43.2991423  51.2628098
 148.0153727  43.5860988  51.8630169 148.6098218  43.3456724  51.1523477
 148.0880311  42.8668119  52.4903705 130.2350883  57.4294599  52.1773334
 130.1005351  56.6695000  51.6111332 129.8182945  58.1535499  51.7102122
 141.3709846  52.6131522  41.1849909 142.0745696  52.8181525  41.8007564
 140.6472495  53.1808284  41.4498992 142.2007656  48.3641384  47.3052179
 142.1442858  48.8209935  46.4659811 142.7535999  47.6032068  47.1275022
 146.0112462  44.1531116  48.1302299 145.7549396  43.7527751  48.9610506
 145.3865330  44.8674909  48.0052438 150.3224800  46.8927189  50.6373590
 149.7624358  46.9620378  51.4105152 149.7168303  46.7168173  49.9173086
 133.3920009  58.3263916  52.3891776 133.2752393  59.2709348  52.2870466
 132.5712455  58.0237477  52.7777575 143.2796543  53.0514052  43.2348369
 144.1142147  52.6195250  43.0525844 143.1180886  52.8796065  44.1625263
 142.9342436  49.5546165  44.6004708 142.8791239  49.3890436  43.6593152
 142.3088491  50.2622198  44.7566898 127.7234951  44.7914229  58.4266130
 128.3693814  44.2813183  58.9153356 127.5152102  45.5282911  59.0009556
 140.2488343  51.8595077  63.9258271 141.1179502  52.0335729  63.5644906
 139.7695094  52.6789494  63.8034000 136.2438561  39.0554274  44.1790027
 136.2317231  39.9996114  44.3358297 137.1361983  38.8724419  43.8849488
 134.4174523  58.9792178  55.6047705 135.3201770  59.0115788  55.9214200
 134.1911893  58.0492629  55.6194040 136.1728125  57.7323164  52.2657783
 135.2223756  57.7325026  52.1522156 136.4760611  56.9855899  51.7493818
 140.0590681  35.6497051  48.4335963 139.2923076  35.0955537  48.5792646
 140.4701386  35.7218919  49.2950115 132.0632442  41.9381846  62.5241145
 132.9263903  41.5818651  62.7344469 131.4897852  41.5995741  63.2116549
 151.9080819  63.5683703  53.3303546 152.5459228  63.4490450  52.6266886
 151.7901661  64.5164547  53.3891498 148.7170525  63.5211131  53.2665070
 148.3789036  63.4052196  52.3785605 149.5860293  63.1202296  53.2466076
 144.5757340  65.3746607  49.2561961 144.0122206  65.2836544  48.4878249
 144.4609736  64.5546512  49.7364454 149.1990308  64.6745983  59.2251276
 149.1878949  64.2798781  58.3531780 149.3610947  63.9412055  59.8185047
 142.1221772  66.8697799  52.0946182 142.9143064  66.5288623  51.6792481
 142.3618423  66.9792774  53.0148335 150.1556899  69.0417575  44.5676426
 149.5044879  69.6271655  44.1810440 150.9501262  69.5723770  44.6271464
 144.0812526  66.1306712  44.9663561 144.8543402  65.5835699  44.8276436
 144.4337925  66.9950961  45.1778022 145.9197569  67.4583094  58.1730460
 145.6287435  68.3628725  58.0577126 146.5554553  67.4999622  58.8874529
 146.8453776  64.8359943  54.7631820 147.4417348  64.6115965  54.0488782
 146.9028747  64.0944688  55.3657267 146.4178804  62.2899378  42.5982010
 146.6704325  61.7680899  41.8365473 145.4803363  62.1265524  42.7008694
 151.4622087  61.2935157  50.4056754 152.2485176  60.8754580  50.0547171
 151.7260791  62.1981249  50.5738402 151.6332164  66.7308007  45.1045411
 150.9977997  66.8042633  45.8166315 151.3029571  67.3201606  44.4264490
 146.1375093  64.1927484  44.8006385 146.0211351  63.5172388  45.4687470
 146.2477353  63.7059858  43.9838538 148.4806634  63.6537631  48.5053075
 148.1164841  63.1268252  49.2165996 149.3373750  63.2636100  48.3319560
 154.3855934  54.9431964  55.7684341 154.0539259  55.8127375  55.5445556
 153.7901548  54.6268248  56.4478371 148.1212121  58.6827531  43.5014423
 148.2886523  59.5507767  43.8684894 147.9309290  58.8454813  42.5775712
 150.8787454  67.1444510  55.1680254 150.5788177  68.0469549  55.0596061
 150.5338514  66.8776693  56.0201406 144.3299935  63.5958307  51.2016958
 143.4050432  63.4634521  51.4094650 144.5784349  64.3752526  51.6986900
 154.2784598  59.6627050  52.8477691 153.3701475  59.5942458  52.5536452
 154.2272194  60.1398995  53.6759516 148.1001342  61.1385188  44.4861090
 147.9800967  61.5842239  45.3246570 147.4053930  61.4870506  43.9274628
 141.6908747  63.2391580  52.0360747 141.8201128  63.4926059  52.9500159
 141.0106198  63.8319288  51.7165402 145.8608234  73.9088830  48.1351221
 145.7832264  74.8596655  48.2139702 145.2569877  73.5634703  48.7926148
 148.3525464  61.0816696  60.7912588 147.5758798  61.6410616  60.7815453
 148.9916027  61.5673479  61.3127458 156.1446244  57.8643488  54.6255565
 155.5020624  58.1576022  53.9795359 155.6401173  57.7496409  55.4308761
 153.7986408  61.6106662  45.3141424 154.7104264  61.8434048  45.1389122
 153.2896055  62.1943706  44.7516503 146.6071836  63.8902149  60.3530555
 147.3486520  64.4287193  60.0765379 145.9008821  64.5168438  60.5102107
 152.0827176  66.0331289  58.9502717 152.4910532  65.5913700  58.2057349
 151.3604437  65.4583917  59.2036910 148.4358246  60.9703896  56.3236274
 149.2819441  61.3943310  56.4670923 148.3756883  60.3137521  57.0174837
 152.4055990  66.5932480  52.7055006 151.7764853  66.7578194  52.0031073
 152.0181652  67.0074090  53.4765970 156.2845222  67.5286918  50.0599369
 155.5996260  67.9085819  49.5096403 156.3689071  68.1382245  50.7931317
 151.5857691  58.6308265  57.9817447 151.3418623  59.3850325  57.4451723
 151.8617621  59.0093612  58.8164694 153.5396154  65.1746877  56.6594713
 153.7513049  65.8178637  55.9829094 153.4925902  64.3409194  56.1916643
 151.1422383  57.7864698  53.5631285 150.2806862  58.0845951  53.8548023
 151.1684817  58.0035097  52.6312318 147.9583952  66.3306888  49.9705091
 148.4222298  66.6094591  49.1809713 147.6940750  65.4290333  49.7878181
 144.8508033  65.8778370  52.9084854 145.4209390  66.3065638  52.2702338
 145.4416145  65.5960954  53.6069040 146.8952838  62.4530041  46.7794656
 147.5976881  62.9051084  47.2468582 146.5633467  61.8113859  47.4074549
 145.3433200  61.0441797  61.1545865 144.7131860  61.7258078  61.3881262
 145.2369288  60.9324879  60.2099003 140.6378172  60.7113593  52.0811789
 139.8477226  60.9671122  51.6051900 141.1289419  61.5261931  52.1863830
 154.6541982  68.0518832  54.8317070 155.4759425  67.6499020  54.5499752
 154.6504385  67.9487067  55.7833186 142.5892917  61.0758172  49.0395266
 141.7924081  61.1876867  49.5578762 142.3618510  61.4144825  48.1736157
 148.4198585  67.6002876  56.9877781 148.4843018  68.0623283  57.8235952
 147.7109509  66.9700241  57.1160090 138.9215875  60.9644084  54.5126780
 139.1723913  61.8491094  54.7784356 139.4575423  60.7848685  53.7401872
 148.1346603  69.2670983  46.8556761 147.9992278  70.1122519  47.2841609
 148.6756415  69.4690261  46.0922695 144.6213942  55.3462563  63.5171116
 144.2280888  54.7928762  64.1918760 145.4380083  55.6573142  63.9077634
 141.5876000  66.7846421  47.4284686 142.1000521  67.5789671  47.5790251
 142.2398713  66.0872712  47.3618288 143.3970885  69.9012178  49.5107439
 143.5737513  70.8230142  49.3228423 144.1927718  69.5870597  49.9401819
 147.5381903  56.7620442  61.1091373 148.2791617  57.3627595  61.0295835
 147.7699826  56.0198080  60.5509415 142.6823241  61.9476809  59.3869602
 142.5676757  61.0462067  59.6876701 141.8267759  62.1940506  59.0354419
 149.7615079  69.8894550  60.9857103 149.3178933  69.1030928  60.6678008
 150.4232293  70.0773700  60.3200994 144.5202200  71.4190351  55.5117782
 145.0709625  71.2907415  54.7394775 143.6813676  71.7185240  55.1612674
 151.8596317  70.1697350  59.0138504 151.8414793  70.9906231  58.5218773
 152.7816237  70.0451425  59.2388645 148.3169371  67.6841479  59.8562013
 148.8497708  66.9229767  59.6261321 147.7883452  67.3915131  60.5986167
 151.4839066  52.7901545  55.3855654 151.1403336  53.6803187  55.3094765
 151.8518029  52.6003203  54.5225239 139.5524917  65.1135076  48.2044257
 140.3900139  65.5232084  47.9877964 139.7303185  64.1734518  48.1744450
 151.4489349  62.7810156  43.8928090 150.9335972  63.5514761  44.1316477
 151.1766657  62.1075292  44.5161151 149.0336460  57.6259857  48.9513328
 148.1778056  57.2366707  48.7718967 149.4463412  57.7051818  48.0913113
 150.5635607  55.1606200  53.3504888 150.0600402  55.1236335  52.5372693
 150.8566214  56.0698943  53.4101544 146.8078493  55.2444930  52.3571069
 147.6731489  55.0487739  51.9976959 146.8756001  55.0155282  53.2840426
 151.2375652  60.6537248  45.7187871 150.9325788  60.9683397  46.5698014
 152.1906094  60.7318668  45.7615204 149.6822084  66.8127472  47.3680825
 149.1543446  66.0780231  47.0554062 149.1809587  67.5902148  47.1220793
 154.6614930  65.0076492  52.4847871 154.0038605  65.6975753  52.5728000
 155.4655329  65.3972924  52.8281857 144.4140812  57.4747138  49.7287436
 144.9884564  57.2522319  48.9960629 145.0011794  57.5435832  50.4816038
 153.4720389  63.3620865  50.5351813 153.9852271  63.9950857  51.0373522
 154.1221613  62.7622060  50.1695173 144.7410399  59.5051599  43.7483321
 143.9047711  59.8426285  44.0692596 144.6015168  59.3700579  42.8110458
 146.7163479  54.3488387  48.4562506 146.0627892  54.0337404  47.8319120
 146.6743954  53.7264127  49.1822329 147.8274684  64.6307682  40.3715798
 146.9201746  64.3996935  40.5706947 148.3245716  63.8345301  40.5589779
 150.7342763  73.3405189  43.2912484 150.0604462  73.6436886  43.8997442
 151.1208585  74.1434269  42.9417941 149.9501220  60.8370320  52.7810153
 149.0323781  61.0585267  52.6231841 150.3661363  60.9116631  51.9221861
 150.7336267  62.2361736  47.9112834 151.4808086  62.7483133  47.6019956
 151.0027857  61.9145789  48.7717227 149.0062918  64.7320277  44.8939788
 148.0974137  64.4479310  44.9912258 149.0358001  65.1519355  44.0343095
 154.2382185  68.3426866  48.6630955 153.7844512  67.5017776  48.7196146
 153.6076152  68.9788265  49.0005736 153.1815105  59.2718852  49.8931623
 152.4437861  58.7596238  50.2241865 153.4341878  58.8319234  49.0814900
 152.6815124  70.1803363  49.5980774 152.9738099  70.7408420  48.8793139
 153.1913745  70.4731924  50.3533933 153.2826732  52.0495104  50.4873392
 153.5885609  51.1892468  50.1999307 154.0079337  52.6412724  50.2872386
 139.5751088  62.4525791  48.8754990 139.3775488  61.8595152  48.1506057
 139.0197752  62.1478001  49.5930929 147.5547812  62.3448897  50.9949583
 147.6096421  61.3922734  50.9192060 146.7439014  62.5008336  51.4790882
 148.7039005  66.2729020  42.2327866 148.2658435  65.5564879  41.7733504
 149.4449446  66.5005135  41.6712958 145.4940172  60.9625957  48.7539962
 144.6808037  61.2620128  49.1605154 145.9899166  60.5681646  49.4714444
 147.6448750  70.9583714  50.6874227 147.6024928  71.1844560  49.7582759
 148.5611448  70.7247089  50.8360028 151.0914383  61.4267782  57.5854856
 151.4463771  61.6539255  58.4449322 151.7386515  61.7586158  56.9632111
 144.9854246  58.5344313  54.3701197 145.6253626  58.3933072  53.6724160
 144.1531777  58.2478826  53.9939799 145.7614550  67.8346743  50.4836189
 146.5555149  67.3397063  50.2818764 145.0506243  67.3064606  50.1203895
 150.5809395  70.2164839  54.8348557 150.6346417  70.7855775  55.6026273
 149.7124176  70.3866724  54.4702594 142.0697314  61.9789825  46.5595942
 141.1394902  61.9174280  46.7765904 142.1654786  61.4565778  45.7632583
 141.9882863  58.5044638  49.1474184 142.2489680  59.4189971  49.0383344
 142.8100035  58.0369080  49.2970797 143.4607788  59.9182395  56.3173008
 144.1330842  59.7099757  55.6685657 142.6337575  59.7204481  55.8778241
 149.3633360  56.5444336  58.3338669 148.7161275  57.2434285  58.2403146
 150.1334376  56.9780480  58.7014917 152.7712158  66.8093188  61.4089222
 152.6197665  66.5803740  60.4919306 152.7616838  67.7663789  61.4220567
 149.5397495  64.3825101  56.3935489 150.4689555  64.5336260  56.2204456
 149.1188525  64.4709121  55.5384135 148.3385826  68.4075765  54.1634027
 148.1996912  68.0394549  55.0359965 147.5500423  68.9223404  53.9917984
 148.9333978  73.5084861  45.5059563 149.1085734  73.0372905  46.3205186
 148.2466766  74.1350628  45.7340824 149.8891041  67.7857368  51.5522864
 149.5540874  67.7458138  52.4480514 149.3894987  67.1202084  51.0793275
 143.8635285  63.1924998  57.0775445 143.7255083  62.4605237  57.6786985
 144.7740209  63.1033898  56.7959633 152.8250233  65.1313402  41.8259924
 152.2079404  64.4060230  41.7292977 152.3566722  65.8922762  41.4826998
 146.4917586  62.9044957  56.5659125 147.2017205  62.2638149  56.5245744
 146.4486894  63.1557852  57.4885306 154.4804365  69.8412310  59.4865704
 154.4216911  69.1571531  58.8196287 154.8823883  70.5831300  59.0346330
 145.2046520  59.8910175  58.3854765 144.6683877  59.4400913  59.0376361
 144.6163228  60.0256084  57.6425229 143.4995064  76.6574224  52.2799423
 143.7391662  77.2892748  52.9578442 142.6564260  76.3062264  52.5664783
 144.6148779  59.3498826  40.9481228 143.7378245  59.2287627  40.5843475
 145.0906532  58.5584905  40.6960117 154.4821772  67.8051894  57.7179684
 153.5948551  67.4677816  57.8406083 155.0520323  67.0734926  57.9548449
 136.1350919  64.1375986  51.0422735 136.8221959  63.8237716  50.4543751
 135.9799048  65.0417351  50.7689987 140.9385641  59.0266183  55.4707759
 140.8543830  58.4191852  54.7358169 140.1168348  59.5175201  55.4717255
 148.0122925  72.4653347  54.6840927 147.9393097  73.2708318  55.1960232
 147.5700319  72.6645312  53.8588949 147.8012705  71.7025117  48.1943749
 147.0180227  72.2446797  48.2881973 148.5005450  72.2199096  48.5937990
 151.1109355  57.5119746  50.8377954 151.6078055  56.7589708  50.5179024
 150.3396337  57.5484063  50.2721163 150.4721609  72.3640181  56.8399086
 151.1849581  72.9987646  56.7674987 149.9811638  72.4604047  56.0239088
 152.1939136  66.2691433  48.4116378 151.2595415  66.3892896  48.2421082
 152.3715804  65.3663900  48.1476387 147.6944324  59.6537129  50.5649639
 147.3242111  59.1008170  51.2530544 148.1903416  59.0495263  50.0124639
 155.5811687  62.1108753  48.9466412 156.0472139  62.9436744  48.8726714
 156.0319188  61.6453734  49.6511670 145.5233522  70.1134624  57.6604657
 146.2242982  70.7471107  57.8134051 145.0528637  70.4549356  56.9000296
 153.6487918  68.4552574  45.9452564 153.9247762  68.3409169  46.8546438
 152.7792417  68.0570059  45.9064737 153.5528350  54.4789340  52.9857313
 152.6391430  54.7093566  53.1539520 153.9821451  54.5627784  53.8371345
 153.3234808  62.6679232  55.4857207 152.6706259  62.9155139  54.8309660
 153.7015188  61.8543370  55.1519684 150.2841982  72.7038925  49.5885377
 150.4664377  71.8860581  50.0513130 151.1074968  72.9206617  49.1510267
 150.6184148  71.6307110  46.8500426 151.1471914  71.1199565  46.2370588
 150.8812367  71.3149640  47.7145959 149.3722381  63.4099043  61.9723244
 148.6963018  63.3093172  62.6425619 150.1950015  63.2538256  62.4359241
 141.1201241  69.6470979  54.5935759 141.7054677  68.9014667  54.7263664
 140.9226079  69.9574936  55.4772423 143.9739896  72.6822227  49.6098202
 143.3050271  73.1668354  49.1262242 143.8352765  72.9291447  50.5241580
 135.7118895  62.2176579  53.3140203 135.7502995  61.6840170  54.1077321
 135.2059188  61.6911785  52.6951180 148.1145164  74.7165970  56.2080860
 148.6663472  74.8797592  56.9729945 148.4551358  75.3070408  55.5360885
 143.0909658  57.0641120  56.8102745 143.1550984  57.9255951  56.3980143
 143.0276778  56.4515122  56.0775103 142.5661930  59.1364252  60.4575779
 143.1933969  58.7541330  61.0713303 141.7089849  58.9178454  60.8231472
 152.9656039  69.5427228  62.0629515 153.5095943  70.1557186  61.5684469
 152.3842883  70.1006806  62.5796528 139.3427473  60.9440682  46.3894134
 139.6380914  60.0351360  46.3361188 138.4415509  60.9228421  46.0675136
 151.2513552  72.6647946  53.1944542 151.1264691  71.8637685  52.6855488
 151.9092643  73.1594139  52.7058512 142.8721720  59.0196678  52.3721683
 142.1508306  59.6332646  52.2329156 143.6614976  59.5554443  52.2938328
 153.3148460  70.4656966  54.8224092 152.3678796  70.3462317  54.7502419
 153.6631233  69.5779464  54.9050354 145.6748033  56.3551105  58.6462334
 146.1982435  56.6013401  59.4088644 145.4560367  57.1871139  58.2265472
 141.0715314  58.6254779  46.5133459 140.7428021  57.7452158  46.3308565
 141.4254685  58.5702448  47.4009848 150.3194893  70.2609682  51.0228445
 150.1719856  69.3326389  51.2036015 151.1448387  70.2829773  50.5385520
 144.1857138  58.9127749  46.8808937 144.5253210  59.4413670  46.1587545
 144.6329258  59.2508155  47.6567503 153.9229015  71.0838241  52.1093317
 154.8475563  70.8781102  51.9717769 153.7544319  70.8354642  53.0182659
 146.8800578  57.2964800  56.3312005 146.5397399  56.4972613  56.7332685
 146.1739585  57.5966511  55.7588838 147.5317050  54.3814112  54.7839328
 148.3543120  53.9074590  54.6618218 147.7755114  55.1604596  55.2838014
 146.1725285  57.4102371  45.0802230 146.8933647  57.7883623  44.5765946
 145.5490589  58.1291247  45.1837207 150.3156408  58.1147520  46.0160562
 150.5320022  58.9972157  45.7149390 149.8350475  57.7233733  45.2866204
 145.0555629  61.0733233  52.5931306 144.9100210  61.3873536  53.4855588
 144.5780833  61.6918133  52.0402205 146.9152012  58.0635781  52.6412196
 146.9013581  57.1676874  52.3044494 147.6324440  58.0706445  53.2750482
 148.7678143  58.4973121  54.6865323 148.5095920  59.4190192  54.6849654
 148.2363183  58.1003556  55.3765788 153.7124331  71.6023908  47.4655409
 153.8861209  71.0370331  46.7129261 154.2053223  72.4024803  47.2834899
 139.5301291  63.6138577  55.5318968 138.9854759  64.3898385  55.6639242
 140.4080641  63.9609382  55.3738089 146.3188908  56.9450161  47.9099766
 146.4404819  56.0166807  48.1090654 146.0290950  56.9588847  46.9978082
 149.1880098  54.6305072  51.0466486 149.2101795  54.6944405  50.0918466
 149.6048157  53.7909580  51.2406992 154.6999504  70.9190673  44.5652307
 155.3950408  71.5397365  44.7839622 155.0422654  70.0686024  44.8404685
 140.3167313  62.7408473  58.4249124 139.5749049  62.8891109  59.0113755
 139.9960057  63.0016739  57.5615874 148.2610976  72.2824452  58.2229514
 148.5698102  72.0373598  59.0952214 149.0586458  72.4871090  57.7348385
 148.2831588  74.4362361  50.4534891 147.8436578  73.9438740  51.1467748
 149.0339705  73.8935329  50.2126966 140.7623927  70.6273902  50.4559519
 141.5881947  70.3277674  50.0758163 140.4117979  69.8581525  50.9049308
 145.7305460  69.9800370  52.5257193 145.1085469  69.3171075  52.2259421
 146.4010327  70.0061502  51.8430840 138.9632532  68.5460229  51.4148453
 138.1264440  68.1182403  51.2332454 138.9356177  68.7392672  52.3519244
 145.8029987  58.4582158  62.1189699 145.8518143  59.3344281  61.7367468
 146.3452502  57.9159552  61.5461342 156.2884833  69.0023282  61.3990836
 155.4980377  68.9847421  60.8595335 156.0518188  69.5411575  62.1539872
 156.4082708  65.8515748  58.7123564 156.4580713  65.6865756  59.6539087
 156.2996631  64.9843007  58.3221445 145.2918967  68.5304294  46.0015653
 145.4407087  69.2139758  45.3482326 146.0985410  68.5109384  46.5165109
 153.6986470  61.8346676  60.0282871 154.5996333  61.6953141  59.7366869
 153.7734445  62.0001131  60.9681049 148.0329276  59.2113531  58.8736057
 147.1632585  59.5047097  58.6018646 148.2688756  59.7953976  59.5943321
 156.1588093  63.3945304  57.4245644 156.6342215  63.5872951  56.6164495
 155.2353659  63.4504490  57.1789028 143.0471600  64.5569471  47.0076722
 142.8017642  63.6531801  47.2056932 143.2167514  64.5586622  46.0656200
 150.7368310  55.4293148  56.3901478 151.2550253  56.1654175  56.0647966
 150.3823442  55.7357141  57.2248237 142.3167247  60.2897829  44.5062884
 141.6236492  60.3642184  43.8502920 142.0718999  59.5258173  45.0284401
 150.9880904  51.8493430  51.9102374 151.2682658  51.1816619  52.5362801
 151.7731511  52.0422526  51.3977038 148.7914372  71.0252424  43.4727401
 148.2188339  71.6442611  43.0197873 149.3647166  71.5751786  44.0067323
 154.8589762  60.2711064  55.6573949 155.8107185  60.3709162  55.6786174
 154.6893213  59.4789333  56.1672034 152.8804142  57.3566648  55.8433350
 152.2854074  57.6371660  55.1479839 152.5953838  57.8460548  56.6150092
 152.0111632  71.3089574  44.6035983 152.9442305  71.2435136  44.8068858
 151.9234845  72.1445841  44.1450516 154.6399649  70.6255445  41.5639931
 154.5613280  70.2915308  42.4575688 155.4609316  71.1177213  41.5631403
 149.1761171  62.3613237  40.8143453 150.1220276  62.2319445  40.8831871
 148.7975416  61.6227899  41.2912881 155.1483055  54.0269243  50.7770345
 154.9507876  53.7184331  51.6613677 155.7582761  54.7530882  50.9068275
 149.0599863  66.4130983  62.2744110 149.9802873  66.5909582  62.4684157
 149.0249446  65.4687028  62.1223809 147.3604088  60.2863213  40.7498338
 146.4535543  59.9896326  40.8261052 147.6380069  59.9893031  39.8832625
 138.2782028  61.6069577  51.1997385 137.9584813  60.7534885  50.9071759
 137.7315457  61.8218155  51.9555352 142.0561936  64.3232018  54.9166891
 142.2747946  65.2549126  54.9354925 142.4687710  63.9639992  55.7021695
 148.9766154  54.8300103  46.9042580 148.1666882  54.4847188  47.2797826
 149.6650571  54.5207647  47.4930191 150.9056702  53.9078150  48.5266876
 151.4587741  54.3273603  49.1856899 151.1426788  52.9813898  48.5689832
 146.9289801  59.8965224  64.3069640 146.8286528  60.8459580  64.2381731
 146.7111343  59.5683462  63.4345710 146.1302873  57.1450149  40.8910318
 146.9922037  57.4705047  41.1506135 146.3153217  56.3581644  40.3783383
 138.1470288  65.2272488  53.1690506 137.4533760  64.8126441  52.6560461
 138.8943279  65.2693025  52.5723925 154.2835509  56.0178675  48.0345541
 153.7034178  56.6763479  47.6523593 154.0171442  55.1956020  47.6232958
 152.7339075  55.4183733  50.2366861 153.2338854  55.5300267  49.4281180
 153.3774683  55.1144786  50.8767669 146.7921071  63.3262362  63.1234702
 146.3088153  64.1262722  63.3298591 146.8782010  63.3370307  62.1702146
 140.0607031  65.1590742  51.0456521 140.0377719  65.2578429  50.0938404
 140.3707667  66.0055893  51.3673687 142.7194409  67.2166897  55.1603136
 143.6737662  67.1850839  55.0933067 142.5206932  66.7557521  55.9753362
 143.3093791  65.7868013  57.7273933 144.1286680  66.2812092  57.7508771
 143.5830599  64.8699981  57.6991501 153.0660387  58.1778765  47.0901889
 152.1786242  58.4628416  46.8722084 153.4814376  58.0172529  46.2429166
 141.0744638  72.7586517  52.1773334 140.9399105  71.9986917  51.6111332
 140.6576700  73.4827416  51.7102122 152.2103601  67.9423440  41.1849909
 152.9139451  68.1473443  41.8007564 151.4866249  68.5100202  41.4498992
 153.0401411  63.6933301  47.3052179 152.9836612  64.1501853  46.4659811
 153.5929753  62.9323986  47.1275022 144.2313763  73.6555834  52.3891776
 144.1146148  74.6001266  52.2870466 143.4106210  73.3529395  52.7777575
 154.1190298  68.3805969  43.2348369 154.9535902  67.9487168  43.0525844
 153.9574641  68.2087983  44.1625263 153.7736190  64.8838083  44.6004708
 153.7184994  64.7182354  43.6593152 153.1482245  65.5914116  44.7566898
 138.5628705  60.1206147  58.4266130 139.2087569  59.6105101  58.9153356
 138.3545856  60.8574829  59.0009556 151.0882097  67.1886994  63.9258271
 151.9573257  67.3627647  63.5644906 150.6088849  68.0081411  63.8034000
 147.0832316  54.3846192  44.1790027 147.0710985  55.3288032  44.3358297
 147.9755737  54.2016337  43.8849488 145.2568278  74.3084095  55.6047705
 146.1595524  74.3407706  55.9214200 145.0305648  73.3784546  55.6194040
 147.0121880  73.0615082  52.2657783 146.0617511  73.0616944  52.1522156
 147.3154366  72.3147817  51.7493818 150.8984435  50.9788968  48.4335963
 150.1316831  50.4247455  48.5792646 151.3095140  51.0510837  49.2950115
 142.9026196  57.2673764  62.5241145 143.7657658  56.9110569  62.7344469
 142.3291607  56.9287659  63.2116549 155.4151095  80.7038525  49.2561961
 154.8515960  80.6128462  48.4878249 155.3003490  79.8838429  49.7364454
 152.9615527  82.1989717  52.0946182 153.7536819  81.8580541  51.6792481
 153.2012177  82.3084692  53.0148335 154.9206281  81.4598630  44.9663561
 155.6937157  80.9127617  44.8276436 155.2731680  82.3242879  45.1778022
 155.1693690  78.9250224  51.2016958 154.2444186  78.7926439  51.4094650
 155.4178103  79.7044444  51.6986900 152.5302501  78.5683498  52.0360747
 152.6594882  78.8217977  52.9500159 151.8499952  79.1611206  51.7165402
 155.6901788  81.2070287  52.9084854 156.2603145  81.6357556  52.2702338
 156.2809899  80.9252872  53.6069040 156.1826954  76.3733715  61.1545865
 155.5525615  77.0549996  61.3881262 156.0763042  76.2616796  60.2099003
 151.4771927  76.0405511  52.0811789 150.6870981  76.2963039  51.6051900
 151.9683174  76.8553849  52.1863830 153.4286672  76.4050090  49.0395266
 152.6317835  76.5168784  49.5578762 153.2012264  76.7436742  48.1736157
 149.7609630  76.2936001  54.5126780 150.0117668  77.1783011  54.7784356
 150.2969178  76.1140603  53.7401872 155.4607697  70.6754481  63.5171116
 155.0674642  70.1220679  64.1918760 156.2773837  70.9865059  63.9077634
 152.4269755  82.1138339  47.4284686 152.9394275  82.9081589  47.5790251
 153.0792467  81.4164629  47.3618288 154.2364639  85.2304095  49.5107439
 154.4131268  86.1522060  49.3228423 155.0321473  84.9162514  49.9401819
 153.5216996  77.2768727  59.3869602 153.4070511  76.3753984  59.6876701
 152.6661514  77.5232424  59.0354419 155.3595955  86.7482269  55.5117782
 155.9103380  86.6199332  54.7394775 154.5207431  87.0477158  55.1612674
 150.3918671  80.4426993  48.2044257 151.2293893  80.8524002  47.9877964
 150.5696939  79.5026435  48.1744450 155.2534566  72.8039056  49.7287436
 155.8278318  72.5814237  48.9960629 155.8405549  72.8727750  50.4816038
 155.5804153  74.8343517  43.7483321 154.7441466  75.1718203  44.0692596
 155.4408923  74.6992496  42.8110458 150.4144843  77.7817709  48.8754990
 150.2169242  77.1887069  48.1506057 149.8591507  77.4769919  49.5930929
 155.8248001  73.8636230  54.3701197 156.4647380  73.7224989  53.6724160
 154.9925531  73.5770744  53.9939799 152.9091068  77.3081742  46.5595942
 151.9788656  77.2466198  46.7765904 153.0048540  76.7857695  45.7632583
 152.8276617  73.8336555  49.1474184 153.0883435  74.7481889  49.0383344
 153.6493790  73.3660998  49.2970797 154.3001543  75.2474312  56.3173008
 154.9724596  75.0391675  55.6685657 153.4731329  75.0496398  55.8778241
 154.7029040  78.5216915  57.0775445 154.5648838  77.7897154  57.6786985
 155.6133963  78.4325816  56.7959633 156.0440275  75.2202093  58.3854765
 155.5077632  74.7692831  59.0376361 155.4556983  75.3548001  57.6425229
 154.3388818  91.9866142  52.2799423 154.5785416  92.6184666  52.9578442
 153.4958015  91.6354182  52.5664783 155.4542533  74.6790744  40.9481228
 154.5772000  74.5579545  40.5843475 155.9300287  73.8876822  40.6960117
 146.9744674  79.4667904  51.0422735 147.6615713  79.1529634  50.4543751
 146.8192802  80.3709268  50.7689987 151.7779396  74.3558100  55.4707759
 151.6937584  73.7483770  54.7358169 150.9562102  74.8467119  55.4717255
 151.9594995  84.9762897  54.5935759 152.5448432  84.2306585  54.7263664
 151.7619833  85.2866854  55.4772423 154.8133650  88.0114144  49.6098202
 154.1444025  88.4960272  49.1262242 154.6746520  88.2583365  50.5241580
 146.5512650  77.5468497  53.3140203 146.5896749  77.0132088  54.1077321
 146.0452943  77.0203703  52.6951180 153.9303412  72.3933038  56.8102745
 153.9944739  73.2547869  56.3980143 153.8670532  71.7807039  56.0775103
 153.4055685  74.4656170  60.4575779 154.0327723  74.0833247  61.0713303
 152.5483603  74.2470372  60.8231472 150.1821227  76.2732599  46.3894134
 150.4774668  75.3643278  46.3361188 149.2809263  76.2520339  46.0675136
 153.7115474  74.3488596  52.3721683 152.9902060  74.9624564  52.2329156
 154.5008730  74.8846361  52.2938328 151.9109069  73.9546697  46.5133459
 151.5821775  73.0744076  46.3308565 152.2648440  73.8994366  47.4009848
 155.0250892  74.2419667  46.8808937 155.3646965  74.7705588  46.1587545
 155.4723013  74.5800073  47.6567503 155.8949383  76.4025151  52.5931306
 155.7493964  76.7165454  53.4855588 155.4174587  77.0210051  52.0402205
 150.3695046  78.9430495  55.5318968 149.8248514  79.7190303  55.6639242
 151.2474396  79.2901299  55.3738089 151.1561068  78.0700391  58.4249124
 150.4142804  78.2183027  59.0113755 150.8353812  78.3308657  57.5615874
 151.6017681  85.9565820  50.4559519 152.4275701  85.6569592  50.0758163
 151.2511733  85.1873442  50.9049308 149.8026286  83.8752146  51.4148453
 148.9658195  83.4474321  51.2332454 149.7749932  84.0684590  52.3519244
 153.8865354  79.8861389  47.0076722 153.6411396  78.9823719  47.2056932
 154.0561269  79.8878540  46.0656200 153.1561002  75.6189747  44.5062884
 152.4630247  75.6934102  43.8502920 152.9112754  74.8550090  45.0284401
 149.1175783  76.9361494  51.1997385 148.7978567  76.0826803  50.9071759
 148.5709211  77.1510073  51.9555352 152.8955690  79.6523935  54.9166891
 153.1141700  80.5841043  54.9354925 153.3081464  79.2931910  55.7021695
 148.9864043  80.5564406  53.1690506 148.2927514  80.1418359  52.6560461
 149.7337034  80.5984942  52.5723925 150.9000785  80.4882660  51.0456521
 150.8771473  80.5870347  50.0938404 151.2101422  81.3347811  51.3673687
 153.5588163  82.5458815  55.1603136 154.5131417  82.5142757  55.0933067
 153.3600687  82.0849438  55.9753362 154.1487545  81.1159931  57.7273933
 154.9680434  81.6104009  57.7508771 154.4224353  80.1991899  57.6991501
 151.9138392  88.0878434  52.1773334 151.7792860  87.3278835  51.6111332
 151.4970454  88.8119334  51.7102122 155.0707518  88.9847751  52.3891776
 154.9539902  89.9293184  52.2870466 154.2499964  88.6821313  52.7777575
 149.4022460  75.4498065  58.4266130 150.0481323  74.9397019  58.9153356
 149.1939611  76.1866746  59.0009556 153.7419951  72.5965682  62.5241145
 154.6051412  72.2402487  62.7344469 153.1685361  72.2579577  63.2116549
 110.9813801   7.6760594  39.0044730 111.2210400   8.3079118  39.6823748
 110.1382998   7.3248634  39.2910089 120.4434265  13.2176086  38.8191488
 121.2355557  12.8766911  38.4037788 120.6830915  13.3271061  39.7393642
 128.4769392  15.3895862  31.2921733 127.8257371  15.9749943  30.9055747
 129.2713754  15.9202057  31.3516770 122.4025019  12.4784999  31.6908867
 123.1755895  11.9313986  31.5521743 122.7550418  13.3429249  31.9023329
 124.2410061  13.8061382  44.8975766 123.9499927  14.7107012  44.7822433
 124.8767046  13.8477909  45.6119836 124.1820726  20.2567117  34.8596528
 124.1044756  21.2074943  34.9385008 123.5782370  19.9112990  35.5171454
 126.7411077  13.9481163  43.7123087 126.8055510  14.4101570  44.5481259
 126.0322001  13.3178528  43.8405397 126.4559095  15.6149270  33.5802068
 126.3204770  16.4600806  34.0086915 126.9968908  15.8168548  32.8168001
 119.9088492  13.1324708  34.1529993 120.4213013  13.9267959  34.3035557
 120.5611205  12.4350999  34.0863594 121.7183377  16.2490465  36.2352746
 121.8950005  17.1708429  36.0473730 122.5140211  15.9348884  36.6647126
 128.0827571  16.2372837  47.7102410 127.6391426  15.4509215  47.3923314
 128.7444785  16.4251987  47.0446300 122.8414693  17.7668639  42.2363088
 123.3922118  17.6385702  41.4640082 122.0026168  18.0663528  41.8857981
 130.1808809  16.5175637  45.7383811 130.1627285  17.3384518  45.2464080
 131.1028730  16.3929712  45.9633952 117.8737409  11.4613363  34.9289563
 118.7112631  11.8710371  34.7123271 118.0515677  10.5212805  34.8989757
 129.0555255  19.6883476  30.0157791 128.3816954  19.9915173  30.6242748
 129.4421077  20.4912557  29.6663248 131.0027617  16.5281650  36.3226080
 131.2950591  17.0886707  35.6038446 131.5126237  16.8210211  37.0779239
 125.9661242  17.3062001  37.4119533 125.9237421  17.5322848  36.4828065
 126.8823941  17.0725376  37.5605335 124.0827043  14.1825030  37.2081496
 124.8767641  13.6875350  37.0064071 123.3718735  13.6542893  36.8449202
 128.9021887  16.5643126  41.5593864 128.9558909  17.1334062  42.3271580
 128.0336668  16.7345011  41.1947901 126.6598319  14.7554052  40.8879333
 126.5209404  14.3872837  41.7605271 125.8712915  15.2701692  40.7163291
 127.2546471  19.8563149  32.2304870 127.4298226  19.3851192  33.0450492
 126.5679259  20.4828915  32.4586130 132.8016857  16.1890598  46.2111011
 132.7429403  15.5049818  45.5441594 133.2036375  16.9309588  45.7591637
 121.8207556  23.0052511  39.0044730 122.0604154  23.6371036  39.6823748
 120.9776752  22.6540551  39.2910089 114.4563411  10.4854273  37.7668042
 115.1434451  10.1716003  37.1789057 114.3011540  11.3895638  37.4935293
 126.3335418  18.8131634  41.4086234 126.2605589  19.6186605  41.9205538
 125.8912811  19.0123600  40.5834255 126.1225197  18.0503404  34.9189055
 125.3392719  18.5925084  35.0127280 126.8217942  18.5677384  35.3183297
 128.7934101  18.7118468  43.5644393 129.5062073  19.3465933  43.4920294
 128.3024130  18.8082334  42.7484394 123.8446015  16.4612911  44.3849963
 124.5455474  17.0949394  44.5379358 123.3741130  16.8027643  43.6245603
 128.6054475  19.0517212  36.3130684 128.7876869  18.2338868  36.7758436
 129.4287461  19.2684904  35.8755574 128.9396640  17.9785397  33.5745732
 129.4684407  17.4677852  32.9615895 129.2024860  17.6627927  34.4391266
 119.4413733  15.9949266  41.3181066 120.0267170  15.2492954  41.4508970
 119.2438571  16.3053223  42.2017730 122.2952388  19.0300514  36.3343508
 121.6262763  19.5146641  35.8507548 122.1565258  19.2769734  37.2486887
 126.4357657  21.0644257  42.9326167 126.9875965  21.2275879  43.6975252
 126.7763850  21.6548695  42.2606192 131.2868531  15.8905515  48.7874821
 131.8308435  16.5035473  48.2929776 130.7055376  16.4485093  49.3041834
 129.5726044  19.0126233  39.9189849 129.4477183  18.2115973  39.4100794
 130.2305135  19.5072426  39.4303819 131.6360952  16.8135253  41.5469399
 130.6891288  16.6940604  41.4747726 131.9843725  15.9257751  41.6295660
 128.6407386  16.6087969  37.7473751 128.4932348  15.6804677  37.9281321
 129.4660879  16.6308060  37.2630826 132.2441507  17.4316528  38.8338624
 133.1688055  17.2259389  38.6963075 132.0756811  17.1832929  39.7427965
 132.0336824  17.9502195  34.1900715 132.2073701  17.3848618  33.4374568
 132.5265715  18.7503090  34.0080205 126.5823468  18.6302739  44.9474821
 126.8910594  18.3851886  45.8197521 127.3798950  18.8349377  44.4593691
 126.6044080  20.7840649  37.1780198 126.1649070  20.2917027  37.8713054
 127.3552197  20.2413616  36.9372273 119.0836419  16.9752189  37.1804826
 119.9094439  16.6755961  36.8003469 118.7330471  16.2059812  37.6294614
 124.0517952  16.3278658  39.2502499 123.4297961  15.6649363  38.9504727
 124.7222819  16.3539790  38.5676147 117.2845024  14.8938516  38.1393759
 116.4476932  14.4660690  37.9577761 117.2568669  15.0870959  39.0764551
 123.6131459  14.8782581  32.7260960 123.7619579  15.5618045  32.0727633
 124.4197902  14.8587671  33.2410416 127.1126865  17.3730711  30.1972707
 126.5400832  17.9920899  29.7443179 127.6859658  17.9230073  30.7312629
 130.3324124  17.6567862  31.3281290 131.2654797  17.5913423  31.5314165
 130.2447337  18.4924128  30.8695822 116.4682781  11.5750775  39.8935813
 115.7746252  11.1604728  39.3805767 117.2155772  11.6171312  39.2969232
 118.3819523  11.5069029  37.7701828 118.3590211  11.6056717  36.8183711
 118.6920160  12.3534180  38.0918994 121.0406901  13.5645184  41.8848442
 121.9950155  13.5329127  41.8178374 120.8419425  13.1035808  42.6998668
 119.3957130  19.1064804  38.9018640 119.2611598  18.3465205  38.3356638
 118.9789192  19.8305704  38.4347429 122.5526256  20.0034121  39.1137083
 122.4358640  20.9479553  39.0115773 121.7318702  19.7007682  39.5022882
 123.5780770  20.6562383  42.3293011 124.4808016  20.6885993  42.6459506
 123.3518140  19.7262834  42.3439347 125.3334372  19.4093369  38.9903090
 124.3830003  19.4095231  38.8767462 125.6366858  18.6626104  38.4739125
 141.0687065  25.2453908  40.0548852 141.7065475  25.1260655  39.3512192
 140.9507908  26.1934752  40.1136804 137.8776772  25.1981336  39.9910377
 137.5395283  25.0822400  39.1030912 138.7466540  24.7972501  39.9711383
 133.7363587  27.0516812  35.9807268 133.1728452  26.9606749  35.2123556
 133.6215982  26.2316717  36.4609760 138.3596555  26.3516187  45.9496583
 138.3485195  25.9568986  45.0777086 138.5217194  25.6182260  46.5430354
 131.2828019  28.5468004  38.8191488 132.0749311  28.2058828  38.4037788
 131.5224669  28.6562979  39.7393642 139.3163146  30.7187780  31.2921733
 138.6651126  31.3041860  30.9055747 140.1107509  31.2493975  31.3516770
 133.2418773  27.8076917  31.6908867 134.0149649  27.2605904  31.5521743
 133.5944172  28.6721166  31.9023329 135.0803816  29.1353299  44.8975766
 134.7893682  30.0398930  44.7822433 135.7160800  29.1769827  45.6119836
 136.0060023  26.5130148  41.4877126 136.6023595  26.2886170  40.7734089
 136.0634994  25.7714893  42.0902574 140.6228334  22.9705361  37.1302060
 141.4091423  22.5524785  36.7792477 140.8867038  23.8751454  37.2983709
 140.7938411  28.4078212  31.8290717 140.1584244  28.4812838  32.5411622
 140.4635818  28.9971811  31.1509796 135.2981340  25.8697689  31.5251692
 135.1817598  25.1942592  32.1932776 135.4083600  25.3830063  30.7083845
 137.6412881  25.3307836  35.2298381 137.2771088  24.8038457  35.9411303
 138.4979997  24.9406305  35.0564867 140.0393701  28.8214715  41.8925560
 139.7394424  29.7239754  41.7841367 139.6944760  28.5546898  42.7446713
 133.4906182  25.2728512  37.9262265 132.5656679  25.1404726  38.1339956
 133.7390595  26.0522731  38.4232207 143.4390845  21.3397255  39.5722997
 142.5307722  21.2712663  39.2781758 143.3878440  21.8169200  40.4004823
 130.8514993  24.9161785  38.7606054 130.9807374  25.1696264  39.6745465
 130.1712445  25.5089493  38.4410709 135.0214481  35.5859035  34.8596528
 134.9438510  36.5366860  34.9385008 134.4176124  35.2404908  35.5171454
 137.5131710  22.7586901  47.5157895 136.7365044  23.3180821  47.5060759
 138.1522273  23.2443684  48.0372765 135.7678083  25.5672354  47.0775862
 136.5092767  26.1057398  46.8010685 135.0615068  26.1938643  47.2347414
 141.2433422  27.7101494  45.6748023 141.6516778  27.2683905  44.9302656
 140.5210684  27.1354122  45.9282216 137.5964492  22.6474101  43.0481580
 138.4425688  23.0713515  43.1916229 137.5363130  21.9907725  43.7420143
 141.5662237  28.2702685  39.4300312 140.9371099  28.4348399  38.7276380
 141.1787899  28.6844295  40.2011276 145.4451469  29.2057123  36.7844676
 144.7602507  29.5856024  36.2341709 145.5295318  29.8152450  37.5176624
 140.7463938  20.3078470  44.7062754 140.5024870  21.0620530  44.1697030
 141.0223868  20.6863817  45.5410001 142.7002400  26.8517082  43.3840019
 142.9119296  27.4948842  42.7074401 142.6532149  26.0179398  42.9161950
 140.3028629  19.4634903  40.2876592 139.4413108  19.7616156  40.5793329
 140.3291064  19.6805301  39.3557624 137.1190199  28.0077093  36.6950397
 137.5828544  28.2864796  35.9055020 136.8546997  27.1060538  36.5123488
 134.0114280  27.5548575  39.6330160 134.5815637  27.9835843  38.9947645
 134.6022392  27.2731159  40.3314346 136.0559085  24.1300245  33.5039962
 136.7583128  24.5821289  33.9713889 135.7239713  23.4884064  34.1319856
 134.5039446  22.7212002  47.8791172 133.8738107  23.4028283  48.1126569
 134.3975534  22.6095084  46.9344310 129.7984419  22.3883798  38.8057096
 129.0083473  22.6441327  38.3297207 130.2895666  23.2032136  38.9109136
 143.8148228  29.7289037  41.5562377 144.6365672  29.3269225  41.2745058
 143.8110631  29.6257271  42.5078493 131.7499164  22.7528377  35.7640573
 130.9530328  22.8647072  36.2824068 131.5224756  23.0915030  34.8981463
 137.5804832  29.2773081  43.7123087 137.6449264  29.7393488  44.5481259
 136.8715756  28.6470446  43.8405397 128.0822122  22.6414289  41.2372087
 128.3330160  23.5261299  41.5029663 128.6181670  22.4618890  40.4647179
 137.2952850  30.9441188  33.5802068 137.1598524  31.7892724  34.0086915
 137.8362662  31.1460466  32.8168001 133.7820189  17.0232768  50.2416423
 133.3887135  16.4698967  50.9164067 134.5986329  17.3343346  50.6322940
 130.7482247  28.4616626  34.1529993 131.2606767  29.2559876  34.3035557
 131.4004960  27.7642917  34.0863594 132.5577132  31.5782382  36.2352746
 132.7343760  32.5000347  36.0473730 133.3533965  31.2640802  36.6647126
 136.6988150  18.4390647  47.8336679 137.4397864  19.0397800  47.7541142
 136.9306073  17.6968285  47.2754722 131.8429488  23.6247014  46.1114909
 131.7283003  22.7232272  46.4122008 130.9874006  23.8710711  45.7599726
 138.9221326  31.5664755  47.7102410 138.4785180  30.7801133  47.3923314
 139.5838539  31.7543905  47.0446300 133.6808447  33.0960556  42.2363088
 134.2315872  32.9677620  41.4640082 132.8419923  33.3955445  41.8857981
 141.0202564  31.8467555  45.7383811 141.0021039  32.6676436  45.2464080
 141.9422484  31.7221630  45.9633952 137.4775618  29.3611684  46.5807319
 138.0103955  28.5999972  46.3506627 136.9489699  29.0685336  47.3231474
 128.7131164  26.7905280  34.9289563 129.5506386  27.2002289  34.7123271
 128.8909431  25.8504723  34.8989757 138.1942707  19.3030062  35.6758635
 137.3384303  18.9136912  35.4964273 138.6069659  19.3822023  34.8158420
 135.9684739  16.9215135  39.0816376 136.8337736  16.7257944  38.7222266
 136.0362248  16.6925487  40.0085733 138.8428331  28.4897677  34.0926131
 138.3149692  27.7550436  33.7799369 138.3415834  29.2672353  33.8466100
 143.8221177  26.6846697  39.2093178 143.1644851  27.3745958  39.2973306
 144.6261576  27.0743129  39.5527164 133.5747058  19.1517343  36.4532743
 134.1490810  18.9292524  35.7205936 134.1618041  19.2206037  37.2061344
 142.6326636  25.0391070  37.2597119 143.1458517  25.6721062  37.7618829
 143.2827860  24.4392265  36.8940479 133.9016646  21.1821804  30.4728628
 133.0653958  21.5196490  30.7937903 133.7621415  21.0470784  29.5355765
 139.8949010  35.0175394  30.0157791 139.2210709  35.3207091  30.6242748
 140.2814832  35.8204474  29.6663248 139.1107466  22.5140525  39.5055460
 138.1930028  22.7355472  39.3477148 139.5267610  22.5886836  38.6467167
 139.8942514  23.9131941  34.6358140 140.6414333  24.4253338  34.3265262
 140.1634104  23.5915994  35.4962534 138.1669164  26.4090482  31.6185094
 137.2580384  26.1249514  31.7157564 138.1964248  26.8289560  30.7588401
 143.3988432  30.0197071  35.3876262 142.9450759  29.1787981  35.4441452
 142.7682399  30.6558470  35.7251042 141.8421371  31.8573568  36.3226080
 142.1344345  32.4178625  35.6038446 142.3519992  32.1502129  37.0779239
 128.7357335  24.1295996  35.6000297 128.5381735  23.5365356  34.8751363
 128.1803999  23.8248206  36.3176235 136.7154058  24.0219102  37.7194890
 136.7702668  23.0692939  37.6437366 135.9045261  24.1778541  38.2036188
 134.6546418  22.6396162  35.4785269 133.8414284  22.9390333  35.8850461
 135.1505413  22.2451851  36.1959751 136.8054996  32.6353919  37.4119533
 136.7631175  32.8614765  36.4828065 137.7217695  32.4017294  37.5605335
 140.2520630  23.1037986  44.3100163 140.6070018  23.3309460  45.1694628
 140.8992761  23.4356363  43.6877418 134.1460493  20.2114518  41.0946504
 134.7859872  20.0703277  40.3969467 133.3138024  19.9249031  40.7185106
 146.0087747  28.2932949  40.0260763 146.4424253  28.2008238  40.8743817
 146.7219327  28.2690450  39.3880779 134.9220797  29.5116948  37.2081496
 135.7161396  29.0167268  37.0064071 134.2112489  28.9834811  36.8449202
 139.7415642  31.8935043  41.5593864 139.7952664  32.4625980  42.3271580
 138.8730423  32.0636928  41.1947901 131.2303561  23.6560030  33.2841249
 130.3001149  23.5944485  33.5011211 131.3261033  23.1335982  32.4877890
 131.1489110  20.1814842  35.8719490 131.4095927  21.0960176  35.7628651
 131.9706282  19.7139285  36.0216103 132.6214035  21.5952600  43.0418315
 133.2937088  21.3869962  42.3930964 131.7943821  21.3974686  42.6023547
 146.8703296  28.3356650  42.5593649 147.0639186  29.2402461  42.8052923
 146.7703914  27.8764069  43.3932234 138.5239607  18.2214541  45.0583976
 137.8767522  18.9204490  44.9648452 139.2940622  18.6550685  45.4260224
 141.9318405  28.4863393  48.1334529 141.7803911  28.2573944  47.2164613
 141.9223084  29.4433994  48.1465874 138.7003741  26.0595305  43.1180796
 139.6295801  26.2106465  42.9449763 138.2794771  26.1479326  42.2629442
 137.4992073  30.0845970  40.8879333 137.3603159  29.7164754  41.7605271
 136.7106669  30.5993609  40.7163291 138.0940225  35.1855066  32.2304870
 138.2691981  34.7143110  33.0450492 137.4073013  35.8120833  32.4586130
 139.0497288  29.4627573  38.2768171 138.7147121  29.4228343  39.1725821
 138.5501234  28.7972289  37.8038581 133.0241532  24.8695203  43.8020752
 132.8861330  24.1375441  44.4032291 133.9346456  24.7804103  43.5204940
 135.6523833  24.5815162  43.2904432 136.3623451  23.9408354  43.2491050
 135.6093141  24.8328057  44.2130613 143.6410612  31.5182515  46.2111011
 143.5823158  30.8341735  45.5441594 144.0430130  32.2601505  45.7591637
 134.3652767  21.5680380  45.1100071 133.8290124  21.1171118  45.7621668
 133.7769475  21.7026289  44.3670536 132.6601310  38.3344429  39.0044730
 132.8997909  38.9662953  39.6823748 131.8170507  37.9832469  39.2910089
 143.6428019  29.4822099  44.4424991 142.7554798  29.1448021  44.5651390
 144.2126570  28.7505130  44.6793756 125.2957166  25.8146191  37.7668042
 125.9828206  25.5007921  37.1789057 125.1405295  26.7187556  37.4935293
 130.0991888  20.7036388  42.1953066 130.0150077  20.0962057  41.4603476
 129.2774594  21.1945406  42.1962562 137.1729172  34.1423552  41.4086234
 137.0999344  34.9478523  41.9205538 136.7306565  34.3415517  40.5834255
 136.9618952  33.3795322  34.9189055 136.1786474  33.9217002  35.0127280
 137.6611697  33.8969301  35.3183297 140.2715602  19.1889951  37.5623261
 140.7684301  18.4359913  37.2424331 139.5002583  19.2254268  36.9966470
 148.1245359  24.8930317  39.2041552 148.1135236  25.7755032  38.8335485
 147.2562739  24.5401867  39.0096089 139.6327856  34.0410386  43.5644393
 140.3455828  34.6757850  43.4920294 139.1417884  34.1374252  42.7484394
 141.3545383  27.9461638  35.1361684 140.4201661  28.0663101  34.9666389
 141.5322051  27.0434105  34.8721694 136.8550571  21.3307334  37.2894945
 136.4848358  20.7778374  37.9775851 137.3509663  20.7265468  36.7369945
 134.6839769  31.7904829  44.3849963 135.3849229  32.4241312  44.5379358
 134.2134884  32.1319561  43.6245603 142.8094165  30.1322779  32.6697870
 143.0854009  30.0179373  33.5791744 141.9398664  29.7340264  32.6310043
 142.4841055  24.3449437  42.2102514 141.8312505  24.5925344  41.5554966
 142.8621435  23.5313575  41.8764991 139.4448229  34.3809130  36.3130684
 139.6270624  33.5630786  36.7758436 140.2681215  34.5976822  35.8755574
 139.7790395  33.3077315  33.5745732 140.3078161  32.7969769  32.9615895
 140.0418614  32.9919845  34.4391266 138.5328628  25.0869248  48.6968551
 137.8569265  24.9863377  49.3670926 139.3556262  24.9308461  49.1604548
 130.2807487  31.3241184  41.3181066 130.8660924  30.5784872  41.4508970
 130.0832326  31.6345141  42.2017730 133.1346143  34.3592432  36.3343508
 132.4656518  34.8438559  35.8507548 132.9959012  34.6061652  37.2486887
 124.8725142  23.8946784  40.0385509 124.9109242  23.3610375  40.8322627
 124.3665435  23.3681990  39.4196486 137.2751411  36.3936175  42.9326167
 137.8269719  36.5567797  43.6975252 137.6157605  36.9840613  42.2606192
 132.2515904  18.7411325  43.5348051 132.3157231  19.6026156  43.1225449
 132.1883025  18.1285327  42.8020410 131.7268177  20.8134457  47.1821086
 132.3540216  20.4311535  47.7958610 130.8696096  20.5948659  47.5476778
 142.1262285  31.2197433  48.7874821 142.6702189  31.8327391  48.2929776
 141.5449130  31.7777011  49.3041834 128.5033720  22.6210887  33.1139441
 128.7987161  21.7121565  33.0606494 127.6021755  22.5998626  32.7920443
 140.4119798  34.3418151  39.9189849 140.2870938  33.5407890  39.4100794
 141.0698889  34.8364344  39.4303819 132.0327967  20.6966883  39.0966989
 131.3114552  21.3102851  38.9574462 132.8221222  21.2324648  39.0183635
 142.4754707  32.1427171  41.5469399 141.5285042  32.0232522  41.4747726
 142.8237480  31.2549669  41.6295660 134.8354280  18.0321310  45.3707641
 135.3588682  18.2783606  46.1333950 134.6166613  18.8641344  44.9510778
 130.2321561  20.3024984  33.2378766 129.9034267  19.4222363  33.0553872
 130.5860932  20.2472653  34.1255155 139.4801140  31.9379887  37.7473751
 139.3326102  31.0096594  37.9281321 140.3054634  31.9599978  37.2630826
 133.3463384  20.5897954  33.6054243 133.6859457  21.1183875  32.8832852
 133.7935505  20.9278360  34.3812810 143.0835262  32.7608446  38.8338624
 144.0081809  32.5551307  38.6963075 142.9150565  32.5124847  39.7427965
 136.0406825  18.9735005  43.0557311 135.7003646  18.1742818  43.4577991
 135.3345831  19.2736716  42.4834145 134.2161876  22.7503438  39.3176613
 134.0706456  23.0643741  40.2100895 133.7387079  23.3688338  38.7647512
 136.0758259  19.7405986  39.3657503 136.0619827  18.8447079  39.0289801
 136.7930687  19.7476649  39.9995789 137.9284389  20.1743326  41.4110630
 137.6702167  21.0960397  41.4094960 137.3969430  19.7773760  42.1011094
 142.8730578  33.2794113  34.1900715 143.0467456  32.7140536  33.4374568
 143.3659469  34.0795008  34.0080205 128.6907538  25.2908782  42.2564274
 128.1461006  26.0668590  42.3884549 129.5686888  25.6379587  42.0983396
 135.4795155  18.6220366  34.6345073 135.6011066  17.6937012  34.8335960
 135.1897197  18.6359052  33.7223388 129.4773560  24.4178678  45.1494431
 128.7355296  24.5661314  45.7359062 129.1566304  24.6786944  44.2861181
 137.4217222  33.9594657  44.9474821 137.7304349  33.7143803  45.8197521
 138.2192704  34.1641295  44.4593691 137.4437834  36.1132566  37.1780198
 137.0042825  35.6208945  37.8713054 138.1945951  35.5705534  36.9372273
 129.9230173  32.3044107  37.1804826 130.7488193  32.0047879  36.8003469
 129.5724225  31.5351730  37.6294614 134.8911707  31.6570575  39.2502499
 134.2691716  30.9941280  38.9504727 135.5616574  31.6831707  38.5676147
 128.1238778  30.2230434  38.1393759 127.2870687  29.7952608  37.9577761
 128.0962424  30.4162877  39.0764551 134.9636234  20.1352363  48.8435005
 135.0124390  21.0114486  48.4612775 135.5058748  19.5929756  48.2706649
 145.4491080  30.6793487  48.1236142 144.6586623  30.6617625  47.5840642
 145.2124434  31.2181780  48.8785179 145.5688955  27.5285953  45.4368871
 145.6186960  27.3635960  46.3784394 145.4602878  26.6613212  45.0466752
 134.4525214  30.2074499  32.7260960 134.6013334  30.8909963  32.0727633
 135.2591657  30.1879589  33.2410416 142.8592717  23.5116881  46.7528178
 143.7602580  23.3723346  46.4612176 142.9340692  23.6771336  47.6926355
 137.1935523  20.8883736  45.5981364 136.3238832  21.1817302  45.3263953
 137.4295003  21.4724181  46.3188628 147.0707152  29.9482895  45.6810893
 146.7791960  30.3112875  46.5174354 146.4579283  29.2349903  45.5024225
 145.3194340  25.0715509  44.1490951 145.7948461  25.2643155  43.3409802
 144.3959905  25.1274695  43.9034334 132.2077847  26.2339676  33.7322029
 131.9623888  25.3302006  33.9302239 132.3773761  26.2356827  32.7901507
 131.4773494  21.9668034  31.2308190 130.7842739  22.0412389  30.5748226
 131.2325246  21.2028378  31.7529707 137.9520619  32.7022629  30.1972707
 137.3794586  33.3212816  29.7443179 138.5253413  33.2521991  30.7312629
 144.0196009  21.9481269  42.3819256 144.9713432  22.0479367  42.4031480
 143.8499459  21.1559538  42.8917340 142.0410388  19.0336852  42.5678657
 141.4460320  19.3141865  41.8725146 141.7560085  19.5230753  43.3395398
 141.1717879  32.9859779  31.3281290 142.1048552  32.9205341  31.5314165
 141.0841092  33.8216046  30.8695822 146.4984087  25.1687389  41.4961556
 146.4660407  24.2303390  41.6821240 147.1084710  25.2471426  40.7627381
 146.6478575  21.9598432  41.5419839 146.1317624  21.1756889  41.3549768
 147.5318524  21.6317149  41.7066358 150.3975934  24.3711258  41.2342044
 149.6709097  24.2367223  40.6258535 149.9823221  24.6788087  42.0398762
 138.2206110  28.0901188  48.9989417 139.1409120  28.2679787  49.1929463
 138.1855693  27.1457233  48.8469116 127.4388275  23.2839782  37.9242691
 127.1191059  22.4305090  37.6317065 126.8921703  23.4988360  38.6800659
 131.2168183  26.0002223  41.6412198 131.4354192  26.9319330  41.6600232
 131.6293956  25.6410197  42.4267002 136.0896048  21.5735428  51.0314947
 135.9892775  22.5229785  50.9627038 135.8717590  21.2453667  50.1591017
 127.3076535  26.9042693  39.8935813 126.6140007  26.4896646  39.3805767
 128.0549526  26.9463230  39.2969232 135.9527318  25.0032567  49.8480009
 135.4694400  25.8032927  50.0543898 136.0388257  25.0140512  48.8947453
 129.2213278  26.8360947  37.7701828 129.1983966  26.9348634  36.8183711
 129.5313914  27.6826098  38.0918994 131.8800655  28.8937102  41.8848442
 132.8343909  28.8621044  41.8178374 131.6813179  28.4327726  42.6998668
 132.4700038  27.4638218  44.4519240 133.2892927  27.9582297  44.4754077
 132.7436845  26.5470186  44.4236807 130.2350884  34.4356721  38.9018640
 130.1005352  33.6757122  38.3356638 129.8182947  35.1597621  38.4347429
 133.3920010  35.3326039  39.1137083 133.2752394  36.2771471  39.0115773
 132.5712456  35.0299600  39.5022882 127.7234952  21.7976352  45.1511437
 128.3693815  21.2875306  45.6398662 127.5152103  22.5345034  45.7254862
 140.2488344  28.8657199  50.6503578 141.1179504  29.0397852  50.2890213
 139.7695096  29.6851616  50.5279307 134.4174524  35.9854300  42.3293011
 135.3201771  36.0177911  42.6459506 134.1911894  35.0554751  42.3439347
 136.1728126  34.7385287  38.9903090 135.2223757  34.7387149  38.8767462
 136.4760612  33.9918022  38.4739125 132.0632443  18.9443969  49.2486451
 132.9263904  18.5880774  49.4589776 131.4897854  18.6057864  49.9361856
 151.9080820  40.5745825  40.0548852 152.5459230  40.4552573  39.3512192
 151.7901663  41.5226669  40.1136804 148.7170526  40.5273253  39.9910377
 148.3789038  40.4114318  39.1030912 149.5860294  40.1264419  39.9711383
 144.5757342  42.3808730  35.9807268 144.0122207  42.2898667  35.2123556
 144.4609737  41.5608634  36.4609760 149.1990309  41.6808105  45.9496583
 149.1878950  41.2860903  45.0777086 149.3610949  40.9474178  46.5430354
 142.1221774  43.8759921  38.8191488 142.9143066  43.5350746  38.4037788
 142.3618424  43.9854896  39.7393642 150.1556900  46.0479698  31.2921733
 149.5044880  46.6333778  30.9055747 150.9501263  46.5785892  31.3516770
 144.0812528  43.1368835  31.6908867 144.8543404  42.5897822  31.5521743
 144.4337927  44.0013084  31.9023329 145.9197570  44.4645217  44.8975766
 145.6287436  45.3690848  44.7822433 146.5554555  44.5061745  45.6119836
 146.8453777  41.8422065  41.4877126 147.4417349  41.6178088  40.7734089
 146.9028749  41.1006811  42.0902574 151.4622088  38.2997279  37.1302060
 152.2485178  37.8816702  36.7792477 151.7260793  39.2043371  37.2983709
 151.6332166  43.7370129  31.8290717 150.9977999  43.8104756  32.5411622
 151.3029572  44.3263728  31.1509796 146.1375094  41.1989607  31.5251692
 146.0211352  40.5234510  32.1932776 146.2477354  40.7121981  30.7083845
 148.4806635  40.6599754  35.2298381 148.1164842  40.1330375  35.9411303
 149.3373751  40.2698223  35.0564867 154.3855936  31.9494086  42.4929647
 154.0539261  32.8189497  42.2690862 153.7901549  31.6330370  43.1723678
 150.8787455  44.1506632  41.8925560 150.5788178  45.0531671  41.7841367
 150.5338515  43.8838816  42.7446713 144.3299937  40.6020429  37.9262265
 143.4050433  40.4696643  38.1339956 144.5784350  41.3814649  38.4232207
 154.2784599  36.6689173  39.5722997 153.3701476  36.6004581  39.2781758
 154.2272195  37.1461118  40.4004823 141.6908748  40.2453703  38.7606054
 141.8201129  40.4988182  39.6745465 141.0106199  40.8381411  38.4410709
 145.8608235  50.9150953  34.8596528 145.7832265  51.8658778  34.9385008
 145.2569879  50.5696825  35.5171454 148.3525465  38.0878818  47.5157895
 147.5758799  38.6472738  47.5060759 148.9916028  38.5735601  48.0372765
 156.1446245  34.8705611  41.3500871 155.5020626  35.1638144  40.7040666
 155.6401174  34.7558531  42.1554068 146.6071837  40.8964272  47.0775862
 147.3486522  41.4349316  46.8010685 145.9008823  41.5230560  47.2347414
 152.0827177  43.0393412  45.6748023 152.4910533  42.5975823  44.9302656
 151.3604438  42.4646040  45.9282216 148.4358247  37.9766019  43.0481580
 149.2819442  38.4005432  43.1916229 148.3756885  37.3199643  43.7420143
 152.4055991  43.5994603  39.4300312 151.7764854  43.7640317  38.7276380
 152.0181654  44.0136212  40.2011276 156.2845223  44.5349041  36.7844676
 155.5996261  44.9147942  36.2341709 156.3689073  45.1444367  37.5176624
 151.5857692  35.6370387  44.7062754 151.3418624  36.3912448  44.1697030
 151.8617623  36.0155735  45.5410001 153.5396155  42.1809000  43.3840019
 153.7513050  42.8240759  42.7074401 153.4925903  41.3471316  42.9161950
 151.1422384  34.7926820  40.2876592 150.2806863  35.0908074  40.5793329
 151.1684819  35.0097219  39.3557624 147.9583953  43.3369011  36.6950397
 148.4222299  43.6156714  35.9055020 147.6940751  42.4352455  36.5123488
 144.8508034  42.8840492  39.6330160 145.4209391  43.3127761  38.9947645
 145.4416146  42.6023077  40.3314346 146.8952839  39.4592163  33.5039962
 147.5976883  39.9113207  33.9713889 146.5633468  38.8175982  34.1319856
 145.3433201  38.0503920  47.8791172 144.7131861  38.7320201  48.1126569
 145.2369289  37.9387001  46.9344310 140.6378173  37.7175716  38.8057096
 139.8477227  37.9733244  38.3297207 141.1289421  38.5324054  38.9109136
 154.6541983  45.0580955  41.5562377 155.4759427  44.6561142  41.2745058
 154.6504386  44.9549189  42.5078493 142.5892919  38.0820295  35.7640573
 141.7924082  38.1938989  36.2824068 142.3618511  38.4206947  34.8981463
 148.4198586  44.6064998  43.7123087 148.4843019  45.0685406  44.5481259
 147.7109510  43.9762363  43.8405397 138.9215876  37.9706206  41.2372087
 139.1723915  38.8553216  41.5029663 139.4575425  37.7910808  40.4647179
 148.1346604  46.2733106  33.5802068 147.9992279  47.1184642  34.0086915
 148.6756416  46.4752383  32.8168001 144.6213944  32.3524686  50.2416423
 144.2280889  31.7990884  50.9164067 145.4380084  32.6635264  50.6322940
 141.5876001  43.7908544  34.1529993 142.1000522  44.5851794  34.3035557
 142.2398714  43.0934834  34.0863594 143.3970886  46.9074300  36.2352746
 143.5737514  47.8292265  36.0473730 144.1927720  46.5932719  36.6647126
 147.5381905  33.7682565  47.8336679 148.2791618  34.3689718  47.7541142
 147.7699827  33.0260203  47.2754722 142.6823243  38.9538932  46.1114909
 142.5676758  38.0524189  46.4122008 141.8267760  39.2002629  45.7599726
 149.7615080  46.8956672  47.7102410 149.3178935  46.1093051  47.3923314
 150.4232294  47.0835823  47.0446300 144.5202202  48.4252474  42.2363088
 145.0709627  48.2969537  41.4640082 143.6813677  48.7247363  41.8857981
 151.8596318  47.1759472  45.7383811 151.8414794  47.9968353  45.2464080
 152.7816238  47.0513547  45.9633952 148.3169373  44.6903602  46.5807319
 148.8497709  43.9291890  46.3506627 147.7883454  44.3977254  47.3231474
 151.4839068  29.7963668  42.1100961 151.1403337  30.6865309  42.0340072
 151.8518030  29.6065325  41.2470546 139.5524918  42.1197198  34.9289563
 140.3900140  42.5294206  34.7123271 139.7303186  41.1796640  34.8989757
 149.0336461  34.6321980  35.6758635 148.1778058  34.2428830  35.4964273
 149.4463413  34.7113940  34.8158420 150.5635608  32.1668323  40.0750194
 150.0600404  32.1298458  39.2618000 150.8566215  33.0761066  40.1346851
 146.8078494  32.2507053  39.0816376 147.6731491  32.0549861  38.7222266
 146.8756003  32.0217404  40.0085733 149.6822085  43.8189594  34.0926131
 149.1543447  43.0842354  33.7799369 149.1809588  44.5964271  33.8466100
 154.6614931  42.0138615  39.2093178 154.0038606  42.7037876  39.2973306
 155.4655331  42.4035047  39.5527164 144.4140813  34.4809260  36.4532743
 144.9884565  34.2584442  35.7205936 145.0011795  34.5497955  37.2061344
 153.4720390  40.3682987  37.2597119 153.9852272  41.0012979  37.7618829
 154.1221614  39.7684183  36.8940479 144.7410400  36.5113721  30.4728628
 143.9047712  36.8488408  30.7937903 144.6015170  36.3762701  29.5355765
 146.7163481  31.3550509  35.1807812 146.0627893  31.0399527  34.5564427
 146.6743955  30.7326250  35.9067635 150.7342764  50.3467312  30.0157791
 150.0604463  50.6499008  30.6242748 151.1208586  51.1496392  29.6663248
 149.9501221  37.8432443  39.5055460 149.0323782  38.0647390  39.3477148
 150.3661365  37.9178753  38.6467167 150.7336269  39.2423859  34.6358140
 151.4808088  39.7545256  34.3265262 151.0027858  38.9207911  35.4962534
 149.0062919  41.7382399  31.6185094 148.0974138  41.4541432  31.7157564
 149.0358003  42.1581478  30.7588401 154.2382186  45.3488989  35.3876262
 153.7844513  44.5079899  35.4441452 153.6076153  45.9850387  35.7251042
 152.6815126  47.1865486  36.3226080 152.9738100  47.7470543  35.6038446
 153.1913746  47.4794047  37.0779239 139.5751089  39.4587913  35.6000297
 139.3775489  38.8657274  34.8751363 139.0197753  39.1540124  36.3176235
 147.5547813  39.3511020  37.7194890 147.6096423  38.3984856  37.6437366
 146.7439015  39.5070459  38.2036188 145.4940173  37.9688080  35.4785269
 144.6808038  38.2682250  35.8850461 145.9899167  37.5743768  36.1959751
 147.6448751  47.9645837  37.4119533 147.6024930  48.1906683  36.4828065
 148.5611450  47.7309211  37.5605335 151.0914385  38.4329904  44.3100163
 151.4463772  38.6601377  45.1694628 151.7386516  38.7648281  43.6877418
 144.9854248  35.5406435  41.0946504 145.6253627  35.3995194  40.3969467
 144.1531778  35.2540949  40.7185106 145.7614552  44.8408866  37.2081496
 146.5555150  44.3459186  37.0064071 145.0506244  44.3126729  36.8449202
 150.5809396  47.2226961  41.5593864 150.6346418  47.7917897  42.3271580
 149.7124177  47.3928846  41.1947901 142.0697315  38.9851947  33.2841249
 141.1394903  38.9236403  33.5011211 142.1654787  38.4627900  32.4877890
 141.9882864  35.5106760  35.8719490 142.2489681  36.4252093  35.7628651
 142.8100036  35.0431203  36.0216103 143.4607789  36.9244517  43.0418315
 144.1330843  36.7161879  42.3930964 142.6337576  36.7266603  42.6023547
 149.3633361  33.5506458  45.0583976 148.7161276  34.2496408  44.9648452
 150.1334377  33.9842602  45.4260224 152.7712159  43.8155310  48.1334529
 152.6197666  43.5865862  47.2164613 152.7616839  44.7725912  48.1465874
 149.5397496  41.3887223  43.1180796 150.4689556  41.5398383  42.9449763
 149.1188526  41.4771244  42.2629442 148.3385828  45.4137888  40.8879333
 148.1996913  45.0456672  41.7605271 147.5500424  45.9285527  40.7163291
 148.9333980  50.5146984  32.2304870 149.1085735  50.0435027  33.0450492
 148.2466768  51.1412750  32.4586130 149.8891043  44.7919490  38.2768171
 149.5540875  44.7520260  39.1725821 149.3894988  44.1264206  37.8038581
 143.8635287  40.1987120  43.8020752 143.7255085  39.4667359  44.4032291
 144.7740210  40.1096020  43.5204940 146.4917587  39.9107080  43.2904432
 147.2017206  39.2700272  43.2491050 146.4486895  40.1619974  44.2130613
 154.4804366  46.8474433  46.2111011 154.4216912  46.1633653  45.5441594
 154.8823884  47.5893423  45.7591637 145.2046521  36.8972298  45.1100071
 144.6683878  36.4463036  45.7621668 144.6163230  37.0318206  44.3670536
 143.4995065  53.6636347  39.0044730 143.7391663  54.2954871  39.6823748
 142.6564261  53.3124387  39.2910089 154.4821773  44.8114017  44.4424991
 153.5948552  44.4739939  44.5651390 155.0520324  44.0797048  44.6793756
 136.1350920  41.1438109  37.7668042 136.8221960  40.8299839  37.1789057
 135.9799049  42.0479473  37.4935293 140.9385643  36.0328305  42.1953066
 140.8543831  35.4253975  41.4603476 140.1168349  36.5237324  42.1962562
 148.0122927  49.4715469  41.4086234 147.9393098  50.2770441  41.9205538
 147.5700320  49.6707435  40.5834255 147.8012706  48.7087239  34.9189055
 147.0180228  49.2508919  35.0127280 148.5005451  49.2261219  35.3183297
 151.1109356  34.5181869  37.5623261 151.6078056  33.7651831  37.2424331
 150.3396338  34.5546185  36.9966470 150.4721610  49.3702303  43.5644393
 151.1849582  50.0049768  43.4920294 149.9811639  49.4666169  42.7484394
 152.1939137  43.2753556  35.1361684 151.2595416  43.3955018  34.9666389
 152.3715806  42.3726023  34.8721694 147.6944325  36.6599252  37.2894945
 147.3242113  36.1070292  37.9775851 148.1903418  36.0557385  36.7369945
 145.5233524  47.1196747  44.3849963 146.2242983  47.7533230  44.5379358
 145.0528639  47.4611478  43.6245603 153.6487920  45.4614697  32.6697870
 153.9247763  45.3471291  33.5791744 152.7792418  45.0632181  32.6310043
 153.5528351  31.4851462  39.7102620 152.6391431  31.7155689  39.8784827
 153.9821453  31.5689906  40.5616652 153.3234810  39.6741354  42.2102514
 152.6706260  39.9217262  41.5554966 153.7015190  38.8605492  41.8764991
 150.2841984  49.7101047  36.3130684 150.4664378  48.8922703  36.7758436
 151.1074970  49.9268740  35.8755574 150.6184149  48.6369233  33.5745732
 151.1471915  48.1261687  32.9615895 150.8812369  48.3211763  34.4391266
 149.3722383  40.4161165  48.6968551 148.6963020  40.3155295  49.3670926
 150.1950017  40.2600379  49.1604548 141.1201242  46.6533102  41.3181066
 141.7054679  45.9076790  41.4508970 140.9226080  46.9637059  42.2017730
 143.9739897  49.6884349  36.3343508 143.3050272  50.1730477  35.8507548
 143.8352767  49.9353570  37.2486887 135.7118897  39.2238702  40.0385509
 135.7502996  38.6902293  40.8322627 135.2059189  38.6973908  39.4196486
 148.1145166  51.7228093  42.9326167 148.6663474  51.8859714  43.6975252
 148.4551359  52.3132531  42.2606192 143.0909659  34.0703243  43.5348051
 143.1550985  34.9318073  43.1225449 143.0276779  33.4577244  42.8020410
 142.5661931  36.1426375  47.1821086 143.1933970  35.7603452  47.7958610
 141.7089850  35.9240577  47.5476778 152.9656040  46.5489350  48.7874821
 153.5095944  47.1619309  48.2929776 152.3842885  47.1068929  49.3041834
 139.3427474  37.9502804  33.1139441 139.6380915  37.0413483  33.0606494
 138.4415510  37.9290544  32.7920443 151.2513553  49.6710068  39.9189849
 151.1264692  48.8699808  39.4100794 151.9092644  50.1656262  39.4303819
 142.8721721  36.0258801  39.0966989 142.1508307  36.6394768  38.9574462
 143.6614977  36.5616566  39.0183635 153.3148461  47.4719088  41.5469399
 152.3678797  47.3524440  41.4747726 153.6631234  46.5841586  41.6295660
 145.6748035  33.3613227  45.3707641 146.1982436  33.6075524  46.1333950
 145.4560368  34.1933262  44.9510778 141.0715316  35.6316902  33.2378766
 140.7428022  34.7514281  33.0553872 141.4254686  35.5764571  34.1255155
 150.3194895  47.2671805  37.7473751 150.1719857  46.3388512  37.9281321
 151.1448388  47.2891895  37.2630826 144.1857139  35.9189872  33.6054243
 144.5253211  36.4475793  32.8832852 144.6329259  36.2570278  34.3812810
 153.9229016  48.0900363  38.8338624 154.8475564  47.8843225  38.6963075
 153.7544320  47.8416764  39.7427965 146.8800580  34.3026922  43.0557311
 146.5397400  33.5034735  43.4577991 146.1739586  34.6028633  42.4834145
 147.5317051  31.3876235  41.5084634 148.3543121  30.9136713  41.3863525
 147.7755115  32.1666719  42.0083321 145.0555630  38.0795355  39.3176613
 144.9100211  38.3935658  40.2100895 144.5780834  38.6980256  38.7647512
 146.9152013  35.0697903  39.3657503 146.9013582  34.1738997  39.0289801
 147.6324441  35.0768567  39.9995789 148.7678144  35.5035244  41.4110630
 148.5095922  36.4252314  41.4094960 148.2363184  35.1065678  42.1011094
 153.7124333  48.6086031  34.1900715 153.8861210  48.0432453  33.4374568
 154.2053224  49.4086926  34.0080205 139.5301292  40.6200700  42.2564274
 138.9854760  41.3960508  42.3884549 140.4080642  40.9671504  42.0983396
 146.3188909  33.9512284  34.6345073 146.4404820  33.0228930  34.8335960
 146.0290951  33.9650970  33.7223388 149.1880099  31.6367194  37.7711793
 149.2101796  31.7006527  36.8163772 149.6048158  30.7971703  37.9652299
 140.3167314  39.7470596  45.1494431 139.5749050  39.8953231  45.7359062
 139.9960059  40.0078862  44.2861181 148.2610977  49.2886574  44.9474821
 148.5698103  49.0435721  45.8197521 149.0586459  49.4933213  44.4593691
 148.2831589  51.4424484  37.1780198 147.8436579  50.9500863  37.8713054
 149.0339706  50.8997452  36.9372273 140.7623928  47.6336025  37.1804826
 141.5881948  47.3339797  36.8003469 140.4117980  46.8643647  37.6294614
 145.7305461  46.9862493  39.2502499 145.1085470  46.3233198  38.9504727
 146.4010328  47.0123625  38.5676147 138.9632533  45.5522351  38.1393759
 138.1264441  45.1244526  37.9577761 138.9356178  45.7454795  39.0764551
 145.8029989  35.4644281  48.8435005 145.8518144  36.3406404  48.4612775
 146.3452503  34.9221674  48.2706649 156.2884834  46.0085404  48.1236142
 155.4980378  45.9909543  47.5840642 156.0518189  46.5473698  48.8785179
 156.4082709  42.8577871  45.4368871 156.4580714  42.6927878  46.3784394
 156.2996633  41.9905130  45.0466752 145.2918968  45.5366416  32.7260960
 145.4407088  46.2201881  32.0727633 146.0985411  45.5171506  33.2410416
 153.6986472  38.8408799  46.7528178 154.5996334  38.7015264  46.4612176
 153.7734446  39.0063254  47.6926355 148.0329277  36.2175653  45.5981364
 147.1632586  36.5109220  45.3263953 148.2688757  36.8016098  46.3188628
 156.1588094  40.4007427  44.1490951 156.6342216  40.5935073  43.3409802
 155.2353660  40.4566613  43.9034334 143.0471601  41.5631594  33.7322029
 142.8017643  40.6593924  33.9302239 143.2167516  41.5648744  32.7901507
 150.7368311  32.4355270  43.1146784 151.2550255  33.1716297  42.7893273
 150.3823444  32.7419264  43.9493544 142.3167249  37.2959952  31.2308190
 141.6236493  37.3704307  30.5748226 142.0719000  36.5320295  31.7529707
 148.7914374  48.0314547  30.1972707 148.2188341  48.6504734  29.7443179
 149.3647167  48.5813909  30.7312629 154.8589763  37.2773187  42.3819256
 155.8107186  37.3771285  42.4031480 154.6893214  36.4851455  42.8917340
 152.8804143  34.3628770  42.5678657 152.2854075  34.6433783  41.8725146
 152.5953840  34.8522671  43.3395398 152.0111633  48.3151697  31.3281290
 152.9442306  48.2497259  31.5314165 151.9234846  49.1507964  30.8695822
 149.0599865  43.4193106  48.9989417 149.9802874  43.5971705  49.1929463
 149.0249448  42.4749151  48.8469116 138.2782030  38.6131699  37.9242691
 137.9584814  37.7597008  37.6317065 137.7315458  38.8280278  38.6800659
 142.0561937  41.3294140  41.6412198 142.2747947  42.2611248  41.6600232
 142.4687711  40.9702115  42.4267002 146.9289802  36.9027346  51.0314947
 146.8286529  37.8521703  50.9627038 146.7111344  36.5745585  50.1591017
 138.1470290  42.2334611  39.8935813 137.4533761  41.8188564  39.3805767
 138.8943281  42.2755147  39.2969232 146.7921072  40.3324485  49.8480009
 146.3088154  41.1324845  50.0543898 146.8782012  40.3432430  48.8947453
 140.0607032  42.1652865  37.7701828 140.0377720  42.2640552  36.8183711
 140.3707669  43.0118015  38.0918994 142.7194410  44.2229020  41.8848442
 143.6737664  44.1912962  41.8178374 142.5206934  43.7619643  42.6998668
 143.3093792  42.7930136  44.4519240 144.1286681  43.2874214  44.4754077
 143.5830600  41.8762104  44.4236807 141.0744639  49.7648639  38.9018640
 140.9399107  49.0049040  38.3356638 140.6576701  50.4889539  38.4347429
 144.2313765  50.6617956  39.1137083 144.1146149  51.6063389  39.0115773
 143.4106211  50.3591518  39.5022882 138.5628706  37.1268270  45.1511437
 139.2087570  36.6167224  45.6398662 138.3545857  37.8636951  45.7254862
 151.0882099  44.1949117  50.6503578 151.9573258  44.3689769  50.2890213
 150.6088850  45.0143534  50.5279307 145.2568279  51.3146218  42.3293011
 146.1595525  51.3469828  42.6459506 145.0305649  50.3846669  42.3439347
 147.0121881  50.0677205  38.9903090 146.0617512  50.0679066  38.8767462
 147.3154367  49.3209939  38.4739125 142.9026197  34.2735887  49.2486451
 143.7657659  33.9172692  49.4589776 142.3291608  33.9349781  49.9361856
 155.4151096  57.7100648  35.9807268 154.8515961  57.6190584  35.2123556
 155.3003491  56.8900552  36.4609760 152.9615528  59.2051839  38.8191488
 153.7536820  58.8642664  38.4037788 153.2012178  59.3146814  39.7393642
 154.9206282  58.4660752  31.6908867 155.6937158  57.9189739  31.5521743
 155.2731681  59.3305002  31.9023329 155.1693691  55.9312347  37.9262265
 154.2444188  55.7988561  38.1339956 155.4178104  56.7106566  38.4232207
 152.5302502  55.5745621  38.7606054 152.6594883  55.8280099  39.6745465
 151.8499954  56.1673329  38.4410709 155.6901789  58.2132410  39.6330160
 156.2603146  58.6419678  38.9947645 156.2809901  57.9314995  40.3314346
 156.1826955  53.3795837  47.8791172 155.5525616  54.0612118  48.1126569
 156.0763043  53.2678919  46.9344310 151.4771928  53.0467633  38.8057096
 150.6870982  53.3025162  38.3297207 151.9683175  53.8615971  38.9109136
 153.4286673  53.4112213  35.7640573 152.6317836  53.5230907  36.2824068
 153.2012265  53.7498865  34.8981463 149.7609631  53.2998124  41.2372087
 150.0117669  54.1845134  41.5029663 150.2969179  53.1202725  40.4647179
 155.4607698  47.6816603  50.2416423 155.0674644  47.1282802  50.9164067
 156.2773838  47.9927182  50.6322940 152.4269756  59.1200461  34.1529993
 152.9394276  59.9143712  34.3035557 153.0792469  58.4226752  34.0863594
 154.2364641  62.2366218  36.2352746 154.4131269  63.1584182  36.0473730
 155.0321474  61.9224637  36.6647126 153.5216997  54.2830850  46.1114909
 153.4070512  53.3816107  46.4122008 152.6661515  54.5294546  45.7599726
 155.3595956  63.7544392  42.2363088 155.9103381  63.6261455  41.4640082
 154.5207432  64.0539281  41.8857981 150.3918673  57.4489116  34.9289563
 151.2293895  57.8586124  34.7123271 150.5696940  56.5088558  34.8989757
 155.2534567  49.8101178  36.4532743 155.8278319  49.5876360  35.7205936
 155.8405550  49.8789873  37.2061344 155.5804155  51.8405639  30.4728628
 154.7441467  52.1780326  30.7937903 155.4408924  51.7054619  29.5355765
 150.4144844  54.7879831  35.6000297 150.2169244  54.1949192  34.8751363
 149.8591508  54.4832041  36.3176235 155.8248002  50.8698353  41.0946504
 156.4647381  50.7287112  40.3969467 154.9925533  50.5832866  40.7185106
 152.9091070  54.3143865  33.2841249 151.9788658  54.2528321  33.5011211
 153.0048541  53.7919818  32.4877890 152.8276619  50.8398678  35.8719490
 153.0883436  51.7544011  35.7628651 153.6493791  50.3723120  36.0216103
 154.3001544  52.2536435  43.0418315 154.9724597  52.0453797  42.3930964
 153.4731330  52.0558521  42.6023547 154.7029041  55.5279038  43.8020752
 154.5648839  54.7959277  44.4032291 155.6133965  55.4387938  43.5204940
 156.0440276  52.2264215  45.1100071 155.5077633  51.7754954  45.7621668
 155.4556984  52.3610124  44.3670536 154.3388819  68.9928265  39.0044730
 154.5785418  69.6246789  39.6823748 153.4958016  68.6416305  39.2910089
 146.9744675  56.4730026  37.7668042 147.6615715  56.1591756  37.1789057
 146.8192804  57.3771391  37.4935293 151.7779397  51.3620223  42.1953066
 151.6937586  50.7545892  41.4603476 150.9562103  51.8529241  42.1962562
 151.9594996  61.9825019  41.3181066 152.5448433  61.2368707  41.4508970
 151.7619835  62.2928976  42.2017730 154.8133651  65.0176267  36.3343508
 154.1444027  65.5022395  35.8507548 154.6746521  65.2645487  37.2486887
 146.5512651  54.5530620  40.0385509 146.5896751  54.0194210  40.8322627
 146.0452944  54.0265825  39.4196486 153.9303413  49.3995160  43.5348051
 153.9944740  50.2609991  43.1225449 153.8670534  48.7869162  42.8020410
 153.4055686  51.4718293  47.1821086 154.0327725  51.0895370  47.7958610
 152.5483605  51.2532495  47.5476778 150.1821229  53.2794722  33.1139441
 150.4774670  52.3705400  33.0606494 149.2809264  53.2582461  32.7920443
 153.7115476  51.3550718  39.0966989 152.9902061  51.9686686  38.9574462
 154.5008731  51.8908483  39.0183635 151.9109070  50.9608820  33.2378766
 151.5821776  50.0806198  33.0553872 152.2648441  50.9056488  34.1255155
 155.0250893  51.2481789  33.6054243 155.3646966  51.7767711  32.8832852
 155.4723014  51.5862195  34.3812810 155.8949385  53.4087273  39.3176613
 155.7493965  53.7227576  40.2100895 155.4174588  54.0272173  38.7647512
 150.3695047  55.9492617  42.2564274 149.8248515  56.7252425  42.3884549
 151.2474397  56.2963422  42.0983396 151.1561069  55.0762514  45.1494431
 150.4142805  55.2245149  45.7359062 150.8353813  55.3370779  44.2861181
 151.6017682  62.9627942  37.1804826 152.4275702  62.6631714  36.8003469
 151.2511734  62.1935565  37.6294614 149.8026287  60.8814269  38.1393759
 148.9658196  60.4536443  37.9577761 149.7749933  61.0746712  39.0764551
 153.8865355  56.8923512  33.7322029 153.6411397  55.9885842  33.9302239
 154.0561270  56.8940662  32.7901507 153.1561003  52.6251869  31.2308190
 152.4630248  52.6996224  30.5748226 152.9112755  51.8612213  31.7529707
 149.1175784  53.9423617  37.9242691 148.7978568  53.0888925  37.6317065
 148.5709212  54.1572195  38.6800659 152.8955692  56.6586058  41.6412198
 153.1141701  57.5903166  41.6600232 153.3081465  56.2994032  42.4267002
 148.9864044  57.5626529  39.8935813 148.2927515  57.1480481  39.3805767
 149.7337035  57.6047065  39.2969232 150.9000787  57.4944782  37.7701828
 150.8771475  57.5932470  36.8183711 151.2101423  58.3409933  38.0918994
 153.5588164  59.5520937  41.8848442 154.5131418  59.5204880  41.8178374
 153.3600688  59.0911561  42.6998668 154.1487547  58.1222053  44.4519240
 154.9680436  58.6166132  44.4754077 154.4224354  57.2054022  44.4236807
 151.9138393  65.0940557  38.9018640 151.7792861  64.3340958  38.3356638
 151.4970456  65.8181457  38.4347429 155.0707519  65.9909874  39.1137083
 154.9539903  66.9355306  39.0115773 154.2499965  65.6883435  39.5022882
 149.4022461  52.4560187  45.1511437 150.0481324  51.9459141  45.6398662
 149.1939612  53.1928869  45.7254862 153.7419952  49.6027804  49.2486451
 154.6051413  49.2464609  49.4589776 153.1685362  49.2641699  49.9361856
   9.2438082  76.7063540 137.4959277   8.5926062  77.2917620 137.1093290
  10.0382445  77.2369735 137.5554314   3.1693709  73.7952677 137.8946411
   3.9424585  73.2481664 137.7559287   3.5219108  74.6596926 138.1060872
   5.5059987  69.9545343 135.5264861   5.7585508  69.4326865 134.7648324
   4.5684546  69.7911489 135.6291545  10.7213347  74.3953972 138.0328261
  10.0859180  74.4688598 138.7449166  10.3910754  74.9847571 137.3547340
   5.2256276  71.8573449 137.7289236   5.1092534  71.1818353 138.3970320
   5.3358536  71.3705823 136.9121389   7.2093304  66.3473496 136.4297274
   7.3767706  67.2153732 136.7967745   7.0190473  66.5100778 135.5058563
   7.1882525  68.8031154 137.4143940   7.0682150  69.2488204 138.2529421
   6.4935113  69.1516471 136.8557479   4.9489417  81.5734795 141.0634072
   4.8713446  82.5242620 141.1422552   4.3451060  81.2280668 141.7208998
  12.8867591  69.2752627 138.2424275  13.7985447  69.5080013 138.0671972
  12.3777238  69.8589671 137.6799353  15.3726405  75.1932883 142.9882220
  14.6877443  75.5731784 142.4379253  15.4570254  75.8028210 143.7214167
  21.8329158  72.0603546 144.1084892  21.0792866  71.4910944 143.9528896
  21.9676699  72.0266210 145.0555527   7.2227786  76.9316948 139.7839611
   7.0873460  77.7768484 140.2124459   7.7637598  77.1336226 139.0205545
  10.5370532  70.4456121 136.8210940  10.0217155  71.2160726 137.0599327
  10.2647840  69.7721257 137.4444001  15.5104806  73.1988476 138.7564113
  14.7334249  72.8599635 138.3119276  16.1896287  73.2041099 138.0819079
  10.3256835  68.3183213 138.6470721  10.0206971  68.6329363 139.4980864
  11.2787277  68.3964633 138.6898054   8.7703267  74.4773437 140.2963675
   8.2424628  73.7426196 139.9836913   8.2690770  75.2548113 140.0503643
   6.9155867  72.2953647 133.2998648   6.0082929  72.0642900 133.4989797
   7.4126899  71.4991266 133.4872630   9.8223946  81.0051154 136.2195334
   9.1485645  81.3082851 136.8280292  10.2089768  81.8080234 135.8700791
   8.0944100  72.3966242 137.8222638   7.1855320  72.1125275 137.9195108
   8.1239184  72.8165320 136.9625945  13.3263368  76.0072831 141.5913806
  12.8725695  75.1663741 141.6478996  12.6957335  76.6434230 141.9288586
  11.7696307  77.8449328 142.5263624  12.0619282  78.4054385 141.8075990
  12.2794928  78.1377889 143.2816783   7.7920188  73.9374985 135.1610717
   7.3539618  73.2210844 134.7016354   8.5330629  74.1651100 134.5995808
   6.7329932  78.6229679 143.6157077   6.6906111  78.8490525 142.6865609
   7.6492631  78.3893054 143.7642878  15.9093303  72.2132182 141.2187035
  15.7711202  72.4033778 140.2908225  15.5529522  72.9751565 141.6755087
   8.0215161  81.1730827 138.4342414   8.1966917  80.7018870 139.2488036
   7.3347949  81.7996593 138.6623674  11.9131416  72.7959367 134.7542774
  11.2960587  72.0706195 134.6575827  11.4447904  73.5568727 134.4109849
   3.7029962  67.0144791 133.8764079   2.8259428  66.8933592 133.5126325
   4.1787715  66.2230870 133.6242967   6.8893888  79.3671082 141.1226599
   6.1061410  79.9092762 141.2164824   7.5886633  79.8845061 141.5220840
  11.2820319  73.9337398 141.3399228  10.3476597  74.0538861 141.1703932
  11.4596987  73.0309865 141.0759238  14.6692870  69.7754718 141.8749262
  15.1353322  70.6082709 141.8009565  15.1200371  69.3099699 142.5794521
  12.7369101  76.1198539 138.8735414  13.0128945  76.0055134 139.7829288
  11.8673600  75.7216024 138.8347587   9.3723165  80.3684890 142.5168228
   9.5545560  79.5506546 142.9795980  10.1956151  80.5852582 142.0793118
   9.7065331  79.2953075 139.7783276  10.2353097  78.7845530 139.1653438
   9.9693550  78.9795605 140.6428809   3.0621079  80.3468192 142.5381052
   2.3931454  80.8314319 142.0545092   2.9233948  80.5937412 143.4524431
  10.3394734  80.3293911 146.1227393  10.2145874  79.5283651 145.6138338
  10.9973826  80.8240104 145.6341363   9.4076076  77.9255647 143.9511295
   9.2601039  76.9972354 144.1318865  10.2329570  77.9475738 143.4668370
  13.0110198  78.7484206 145.0376168  13.9356745  78.5427067 144.9000619
  12.8425501  78.5000607 145.9465509  12.8005514  79.2669873 140.3938259
  12.9742392  78.7016296 139.6412112  13.2934405  80.0670768 140.2117749
  18.6544905  72.0306296 142.0128559  19.0976051  71.2813621 141.6147682
  17.7771416  72.0216433 141.6302291  13.7880687  78.5836638 137.4935158
  14.4831591  79.2043330 137.7122472  14.1303837  77.7331989 137.7687535
  15.6872110  76.0336343 139.0222488  16.2123434  76.3723616 138.2971808
  15.5994462  75.0983358 138.8385623   7.3712771  82.1008326 143.3817742
   6.9317761  81.6084705 144.0750598   8.1220887  81.5581294 143.1409817
   4.3800150  76.1950259 138.9298504   4.5288270  76.8785723 138.2765176
   5.1866593  76.1755349 139.4447959  18.1977770  73.5011534 144.4051007
  19.0324661  73.9401339 144.5688567  18.3336899  73.0250188 143.5859252
   7.8795555  78.6898389 136.4010251   7.3069522  79.3088576 135.9480723
   8.4528349  79.2397751 136.9350173  11.0992815  78.9735539 137.5318833
  12.0323488  78.9081101 137.7351709  11.0116028  79.8091806 137.0733366
  13.7280832  78.2901410 134.4922781  13.6494463  77.9561273 135.3858539
  14.5490498  78.7823178 134.4914253   8.2642354  70.0259202 133.7426304
   9.2101458  69.8965410 133.8114722   7.8856599  69.2873864 134.2195732
   6.4485271  67.9509178 133.6781189   5.5416726  67.6542291 133.7543902
   6.7261252  67.6538997 132.8115475   5.2184055  64.8096114 133.8193168
   6.0803219  65.1351012 134.0788985   5.4034400  64.0227610 133.3066234
  11.2984783  75.6069405 134.1132759  12.0020633  75.8119408 134.7290415
  10.5747432  76.1746167 134.3781843  12.1282594  71.3579266 140.2335029
  12.0717795  71.8147818 139.3942662  12.6810936  70.5969951 140.0557872
  20.2499737  69.8865072 143.5656440  19.6899295  69.9558261 144.3388002
  19.6443241  69.7106056 142.8455937  13.2071481  76.0451934 136.1631219
  14.0417085  75.6133133 135.9808694  13.0455824  75.8733948 137.0908114
  12.8617373  72.5484048 137.5287559  12.8066177  72.3828319 136.5876003
  12.2363428  73.2560081 137.6849748   6.1003062  80.7261047 145.1940634
   5.1498693  80.7262909 145.0805006   6.4035549  79.9793782 144.6776668
  21.8355756  86.5621585 146.2586396  22.4734166  86.4428333 145.5549736
  21.7176599  87.5102429 146.3174348  18.6445462  86.5149014 146.1947921
  18.3063974  86.3990078 145.3068456  19.5135230  86.1140179 146.1748927
  14.5032278  88.3684490 142.1844812  13.9397143  88.2774427 141.4161100
  14.3884673  87.5484394 142.6647304  19.1265245  87.6683865 152.1534126
  19.1153886  87.2736664 151.2814630  19.2885885  86.9349938 152.7467898
  20.0831837  92.0355458 137.4959277  19.4319816  92.6209538 137.1093290
  20.8776199  92.5661653 137.5554314  14.0087464  89.1244595 137.8946411
  14.7818340  88.5773582 137.7559287  14.3612863  89.9888844 138.1060872
  16.7728713  87.8297826 147.6914670  17.3692285  87.6053848 146.9771633
  16.8303685  87.0882571 148.2940118  16.3453742  85.2837261 135.5264861
  16.5979262  84.7618782 134.7648324  15.4078301  85.1203406 135.6291545
  21.3897024  84.2873039 143.3339604  22.1760114  83.8692462 142.9830021
  21.6535729  85.1919132 143.5021253  21.5607102  89.7245890 138.0328261
  20.9252935  89.7980516 138.7449166  21.2304508  90.3139488 137.3547340
  26.7905451  84.2248273 144.2372583  27.5230623  83.6547489 144.4710412
  26.0344807  83.8369873 144.6779088  16.0650030  87.1865367 137.7289236
  15.9486288  86.5110270 138.3970320  16.1752290  86.6997741 136.9121389
  18.4081571  86.6475514 141.4335925  18.0439778  86.1206135 142.1448847
  19.2648687  86.2573983 141.2602411  24.3130872  77.9369847 148.6967191
  23.9814197  78.8065258 148.4728406  23.7176485  77.6206131 149.3761222
  18.0487058  81.6765414 136.4297274  18.2161461  82.5445650 136.7967745
  17.8584227  81.8392695 135.5058563  20.8062391  90.1382393 148.0963104
  20.5063114  91.0407431 147.9878911  20.4613451  89.8714576 148.9484257
  14.2574873  86.5896189 144.1299808  13.3325369  86.4572404 144.3377500
  14.5059286  87.3690409 144.6269751  24.2059535  82.6564933 145.7760541
  23.2976412  82.5880341 145.4819302  24.1547131  83.1336878 146.6042367
  18.0276279  84.1323071 137.4143940  17.9075904  84.5780122 138.2529421
  17.3328867  84.4808389 136.8557479  11.6183684  86.2329463 144.9643597
  11.7476065  86.4863942 145.8783009  10.9381135  86.8257171 144.6448253
  15.7883171  96.9026713 141.0634072  15.7107201  97.8534538 141.1422552
  15.1844815  96.5572585 141.7208998  26.0721182  80.8581371 147.5538415
  25.4295562  81.1513904 146.9078210  25.5676110  80.7434292 148.3591612
  23.7261345  84.6044544 138.2424275  24.6379201  84.8371931 138.0671972
  23.2170992  85.1881589 137.6799353  22.0102113  89.0269172 151.8785567
  22.4185469  88.5851583 151.1340199  21.2879374  88.4521800 152.1319760
  18.3633183  83.9641779 149.2519124  19.2094378  84.3881193 149.3953773
  18.3031821  83.3075403 149.9457687  22.3330928  89.5870363 145.6337856
  21.7039790  89.7516077 144.9313924  21.9456590  90.0011972 146.4048820
  26.2120159  90.5224801 142.9882220  25.5271198  90.9023702 142.4379253
  26.2964009  91.1320127 143.7214167  21.5132628  81.6246147 150.9100298
  21.2693560  82.3788208 150.3734573  21.7892559  82.0031495 151.7447545
  23.4671091  88.1684760 149.5877563  23.6787986  88.8116520 148.9111944
  23.4200839  87.3347076 149.1199493  21.0697320  80.7802580 146.4914135
  20.2081799  81.0783834 146.7830873  21.0959755  80.9972979 145.5595168
  17.8858889  89.3244771 142.8987941  18.3497235  89.6032474 142.1092564
  17.6215687  88.4228216 142.7161032  14.7782970  88.8716252 145.8367704
  15.3484328  89.3003521 145.1985189  15.3691082  88.5898837 146.5351890
  16.8227775  85.4467923 139.7077506  17.5251819  85.8988967 140.1751433
  16.4908404  84.8051742 140.3357399  10.5653109  83.7051476 145.0094640
   9.7752163  83.9609005 144.5334750  11.0564357  84.5199814 145.1146680
  24.5816919  91.0456715 147.7599921  25.4034363  90.6436902 147.4782602
  24.5779322  90.9424949 148.7116036  12.5167855  84.0696055 141.9678116
  11.7199018  84.1814749 142.4861612  12.2893447  84.4082707 141.1019007
  32.6722912  87.3895464 144.1084892  31.9186620  86.8202862 143.9528896
  32.8070453  87.3558128 145.0555527  18.0621540  92.2608866 139.7839611
  17.9267215  93.1060402 140.2124459  18.6031353  92.4628144 139.0205545
  11.5150937  89.7784304 140.3567537  12.0275458  90.5727554 140.5073101
  12.1673650  89.0810594 140.2901138  13.3245822  92.8950060 142.4390290
  13.5012450  93.8168025 142.2511274  14.1202656  92.5808479 142.8684669
  21.4114004  75.7839428 148.3138505  21.0678273  76.6741069 148.2377615
  21.7792966  75.5941085 147.4508090   9.4799854  88.1072958 141.1327107
  10.3175076  88.5169967 140.9160815   9.6578122  87.1672400 141.1027301
  21.3764286  85.7748039 136.8210940  20.8610910  86.5452644 137.0599327
  21.1041595  85.1013175 137.4444001  18.9611397  80.6197740 141.8796178
  18.1052994  80.2304590 141.7001817  19.3738349  80.6989700 141.0195964
  20.4910544  78.1544083 146.2787738  19.9875340  78.1174218 145.4655543
  20.7841151  79.0636826 146.3384395  16.7353430  78.2382813 145.2853920
  17.6006427  78.0425621 144.9259809  16.8030939  78.0093164 146.2123277
  26.3498560  88.5280394 138.7564113  25.5728003  88.1891553 138.3119276
  27.0290041  88.5333017 138.0819079  21.1650590  83.6475131 138.6470721
  20.8600725  83.9621280 139.4980864  22.1181032  83.7256551 138.6898054
  19.6097021  89.8065354 140.2963675  19.0818383  89.0718114 139.9836913
  19.1084524  90.5840031 140.0503643  24.5889867  88.0014375 145.4130721
  23.9313542  88.6913636 145.5010850  25.3930267  88.3910807 145.7564708
  14.3415749  80.4685021 142.6570287  14.9159501  80.2460202 141.9243480
  14.9286731  80.5373715 143.4098888  23.3995326  86.3558748 143.4634663
  23.9127208  86.9888739 143.9656373  24.0496550  85.7559943 143.0978023
  14.6685336  82.4989482 136.6766172  13.8322648  82.8364168 136.9975447
  14.5290106  82.3638461 135.7393309  16.6438417  77.3426270 141.3845356
  15.9902829  77.0275287 140.7601971  16.6018891  76.7202010 142.1105179
  17.7549622  87.6245565 133.2998648  16.8476683  87.3934818 133.4989797
  18.2520654  86.8283184 133.4872630  20.6617700  96.3343072 136.2195334
  19.9879399  96.6374769 136.8280292  21.0483522  97.1372152 135.8700791
  19.8776157  83.8308203 145.7093004  18.9598718  84.0523150 145.5514692
  20.2936301  83.9054514 144.8504711  20.6611205  85.2299619 140.8395684
  21.4083024  85.7421016 140.5302806  20.9302794  84.9083671 141.7000078
  18.9337855  87.7258159 137.8222638  18.0249074  87.4417192 137.9195108
  18.9632939  88.1457238 136.9625945  24.1657122  91.3364749 141.5913806
  23.7119450  90.4955659 141.6478996  23.5351089  91.9726147 141.9288586
  23.1090042  82.2656735 142.8214473  22.3712799  81.7534121 143.1524716
  23.3616815  81.8257117 142.0097750  22.6090062  93.1741246 142.5263624
  22.9013036  93.7346303 141.8075990  23.1188682  93.4669807 143.2816783
  23.2101669  75.0432987 143.4156243  23.5160546  74.1830350 143.1282158
  23.9354274  75.6350607 143.2155236   9.5026025  85.4463674 141.8037840
   9.3050425  84.8533034 141.0788907   8.9472689  85.1415884 142.5213779
  17.4822749  85.3386780 143.9232434  17.5371359  84.3860616 143.8474910
  16.6713951  85.4946219 144.4073732  18.6313943  89.2666903 135.1610717
  18.1933373  88.5502762 134.7016354  19.3724384  89.4943018 134.5995808
  15.4215109  83.9563840 141.6822812  14.6082974  84.2558010 142.0888005
  15.9174103  83.5619529 142.3997295  17.5723687  93.9521597 143.6157077
  17.5299866  94.1782443 142.6865609  18.4886386  93.7184971 143.7642878
  21.0189321  84.4205664 150.5137706  21.3738708  84.6477137 151.3732172
  21.6661452  84.7524041 149.8914962  26.7487058  87.5424100 141.2187035
  26.6104956  87.7325696 140.2908225  26.3923276  88.3043483 141.6755087
  14.9129184  81.5282195 147.2984047  15.5528563  81.3870954 146.6007011
  14.0806714  81.2416709 146.9222649  26.7756437  89.6100627 146.2298307
  27.2092944  89.5175916 147.0781361  27.4888018  89.5858128 145.5918323
  15.6889488  90.8284626 143.4119040  16.4830086  90.3334946 143.2101615
  14.9781180  90.3002489 143.0486745  20.5084332  93.2102721 147.7631408
  20.5621354  93.7793658 148.5309123  19.6399113  93.3804606 147.3985445
  11.9972251  84.9727707 139.4878793  11.0669839  84.9112163 139.7048755
  12.0929723  84.4503660 138.6915434  11.9157800  81.4982520 142.0757034
  12.1764617  82.4127854 141.9666195  12.7374972  81.0306963 142.2253647
  13.3882725  82.9120277 149.2455859  14.0605779  82.7037640 148.5968508
  12.5612512  82.7142363 148.8061091  27.6371987  89.6524328 148.7631192
  27.8307877  90.5570138 149.0090467  27.5372605  89.1931747 149.5969777
  19.4672432  87.3762983 149.3218339  20.3964492  87.5274143 149.1487307
  19.0463462  87.4647004 148.4666986  18.2660764  91.4013648 147.0916877
  18.1271849  91.0332432 147.9642815  17.4775360  91.9161287 146.9200835
  18.8608916  96.5022744 138.4342414  19.0360671  96.0310787 139.2488036
  18.1741704  97.1288510 138.6623674  19.8165979  90.7795250 144.4805715
  19.4815811  90.7396020 145.3763365  19.3169924  90.1139966 144.0076125
  22.7525170  88.1251285 134.7542774  22.1354341  87.3998113 134.6575827
  22.2841659  88.8860645 134.4109849  16.4192523  85.8982840 149.4941976
  17.1292142  85.2576032 149.4528594  16.3761832  86.1495735 150.4168156
  24.4079302  92.8350193 152.4148555  24.3491848  92.1509413 151.7479138
  24.8098820  93.5769183 151.9629181  14.5423716  82.3436709 133.8764079
  13.6653183  82.2225510 133.5126325  15.0181469  81.5522787 133.6242967
  24.4096709  90.7989777 150.6462534  23.5223488  90.4615699 150.7688933
  24.9795260  90.0672808 150.8831300  17.7287642  94.6962999 141.1226599
  16.9455164  95.2384680 141.2164824  18.4280388  95.2136979 141.5220840
  21.0384292  80.5057629 143.7660805  21.5352992  79.7527591 143.4461875
  20.2671274  80.5421946 143.2004014  28.8914050  86.2097994 145.4079096
  28.8803926  87.0922710 145.0373029  28.0231429  85.8569545 145.2133633
  22.1214073  89.2629316 141.3399228  21.1870352  89.3830779 141.1703932
  22.2990742  88.3601783 141.0759238  17.6219261  82.6475012 143.4932489
  17.2517049  82.0946052 144.1813395  18.1178354  82.0433145 142.9407489
  25.5086624  85.1046635 141.8749262  25.9747077  85.9374627 141.8009565
  25.9594125  84.6391617 142.5794521  23.5762856  91.4490457 138.8735414
  23.8522700  91.3347051 139.7829288  22.7067354  91.0507942 138.8347587
  23.4803287  77.4727222 145.9140163  22.5666367  77.7031449 146.0822370
  23.9096389  77.5565666 146.7654196  23.2509746  85.6617114 148.4140058
  22.5981196  85.9093022 147.7592510  23.6290126  84.8481253 148.0802535
  20.2116920  95.6976808 142.5168228  20.3939314  94.8798463 142.9795980
  21.0349906  95.9144500 142.0793118  20.5459085  94.6244993 139.7783276
  21.0746852  94.1137447 139.1653438  20.8087305  94.3087523 140.6428809
  13.9014833  95.6760109 142.5381052  13.2325208  96.1606237 142.0545092
  13.7627703  95.9229330 143.4524431   9.2702410  83.9378564 139.3176984
   9.5655851  83.0289243 139.2644038   8.3690446  83.9166304 138.9957987
  21.1788489  95.6585828 146.1227393  21.0539628  94.8575568 145.6138338
  21.8367580  96.1532022 145.6341363  12.7996657  82.0134561 145.3004533
  12.0783243  82.6270529 145.1612006  13.5889913  82.5492326 145.2221179
  23.2423397  93.4594848 147.7506943  22.2953733  93.3400200 147.6785270
  23.5906170  92.5717347 147.8333204  10.9990252  81.6192662 139.4416310
  10.6702958  80.7390041 139.2591415  11.3529622  81.5640331 140.3292699
  20.2469831  93.2547565 143.9511295  20.0994793  92.3264272 144.1318865
  21.0723324  93.2767655 143.4668370  14.1132075  81.9065632 139.8091787
  14.4528147  82.4351553 139.0870396  14.5604195  82.2446038 140.5850354
  23.8503952  94.0776123 145.0376168  24.7750500  93.8718985 144.9000619
  23.6819256  93.8292525 145.9465509  17.4591988  77.3751995 147.7122178
  18.2818057  76.9012473 147.5901069  17.7030051  78.1542479 148.2120865
  16.1000222  80.4040253 138.0085080  16.8208585  80.7821506 137.5048797
  15.4765526  81.1229130 138.1120058  20.2431345  81.1085402 138.9443412
  20.4594959  81.9910040 138.6432240  19.7625412  80.7171616 138.2149054
  14.9830566  84.0671116 145.5214157  14.8375147  84.3811419 146.4138438
  14.5055770  84.6856016 144.9685056  16.8426949  81.0573664 145.5695046
  16.8288518  80.1614757 145.2327344  17.5599377  81.0644327 146.2033333
  18.6953080  81.4911004 147.6148174  18.4370858  82.4128074 147.6132504
  18.1638120  81.0941438 148.3048638  23.6399269  94.5961791 140.3938259
  23.8136146  94.0308213 139.6412112  24.1328160  95.3962686 140.2117749
  16.2463845  79.9388044 140.8382617  16.3679756  79.0104690 141.0373504
  15.9565887  79.9526730 139.9260932  19.1155036  77.6242954 143.9749336
  19.1376732  77.6882287 143.0201316  19.5323095  76.7847463 144.1689843
  29.4938660  87.3598214 142.0128559  29.9369806  86.6105539 141.6147682
  28.6165170  87.3508350 141.6302291  24.6274441  93.9128555 137.4935158
  25.3225346  94.5335248 137.7122472  24.9697591  93.0623907 137.7687535
  26.5265864  91.3628261 139.0222488  27.0517188  91.7015534 138.2971808
  26.4388217  90.4275276 138.8385623  18.2106525  97.4300244 143.3817742
  17.7711515  96.9376623 144.0750598  18.9614642  96.8873212 143.1409817
  15.6580397  92.9738253 145.4540043  15.0360406  92.3108958 145.1542271
  16.3285264  92.9999385 144.7713691  26.2159770  91.9961164 154.3273686
  25.4255314  91.9785303 153.7878186  25.9793125  92.5349458 155.0822723
  26.3357645  88.8453631 151.6406415  26.3855650  88.6803638 152.5821938
  26.2271569  87.9780890 151.2504296  15.2193904  91.5242177 138.9298504
  15.3682024  92.2077641 138.2765176  16.0260348  91.5047267 139.4447959
  23.6261408  84.8284559 152.9565722  24.5271271  84.6891024 152.6649719
  23.7009382  84.9939014 153.8963899  27.8375842  91.2650572 151.8848436
  27.5460651  91.6280553 152.7211897  27.2247973  90.5517581 151.7061768
  29.0371525  88.8303452 144.4051007  29.8718416  89.2693256 144.5688567
  29.1730653  88.3542105 143.5859252  26.0863030  86.3883187 150.3528494
  26.5617152  86.5810833 149.5447346  25.1628596  86.4442373 150.1071878
  12.9746537  87.5507354 139.9359573  12.7292579  86.6469684 140.1339783
  13.1442452  87.5524505 138.9939051  20.6643247  78.4231031 149.3184328
  21.1825191  79.1592057 148.9930817  20.3098380  78.7295024 150.1531087
  12.2442185  83.2835712 137.4345734  11.5511430  83.3580067 136.7785770
  11.9993936  82.5196055 137.9567251  20.9155841  74.8431313 144.8385225
  21.1957595  74.1754502 145.4645651  21.7006448  75.0360409 144.3259889
  18.7189310  94.0190307 136.4010251  18.1463277  94.6380494 135.9480723
  19.2922103  94.5689669 136.9350173  24.7864699  83.2648947 148.5856800
  25.7382122  83.3647045 148.6069024  24.6168150  82.4727216 149.0954884
  22.8079079  80.3504530 148.7716201  22.2129011  80.6309543 148.0762689
  22.5228776  80.8398431 149.5432942  21.9386569  94.3027457 137.5318833
  22.8717243  94.2373019 137.7351709  21.8509782  95.1383724 137.0733366
  24.5674586  93.6193327 134.4922781  24.4888218  93.2853191 135.3858539
  25.3884253  94.1115095 134.4914253  27.2652777  86.4855067 147.6999100
  27.2329097  85.5471067 147.8858783  27.8753401  86.5639103 146.9664924
  19.1036108  85.3551120 133.7426304  20.0495213  85.2257328 133.8114722
  18.7250353  84.6165782 134.2195732  27.4147266  83.2766110 147.7457383
  26.8986314  82.4924567 147.5587312  28.2987214  82.9484827 147.9103902
  25.0757993  77.0207126 143.7053195  24.8782814  76.7122214 144.5896527
  25.6857698  77.7468765 143.8351125  33.0829327  87.5471074 146.8405136
  33.8132716  87.2856362 147.4012840  32.4736273  86.8099796 146.8807204
  31.1644624  85.6878936 147.4379588  30.4377788  85.5534901 146.8296079
  30.7491911  85.9955765 148.2436306  17.2879025  83.2801096 133.6781189
  16.3810481  82.9834209 133.7543902  17.5655006  82.9830914 132.8115475
   8.2056966  84.6007460 144.1280235   7.8859750  83.7472768 143.8354609
   7.6590394  84.8156038 144.8838203  18.9041091  77.8237986 139.8325430
  18.0941819  77.4785071 140.2080676  19.5925508  77.5145530 140.4213042
  20.8331639  76.9016033 141.4549727  21.3862678  77.3211486 142.1139750
  21.0701726  75.9751781 141.4972683  16.0577810  80.1388031 133.8193168
  16.9196974  80.4642930 134.0788985  16.2428154  79.3519527 133.3066234
  24.2110446  79.0116558 140.9628391  23.6309115  79.6701362 140.5806443
  23.9446379  78.1893902 140.5515809  22.6614013  78.4121615 143.1649711
  23.1613791  78.5238150 142.3564030  23.3049621  78.1082668 143.8050520
   9.9881968  88.1528625 143.9739372   9.9652656  88.2516312 143.0221255
  10.2982605  88.9993776 144.2956538  22.9935324  81.1716648 140.0184739
  22.1061179  81.4566299 139.8004934  23.4089313  81.0110412 139.1712016
  26.3449861  81.1963169 143.7339079  27.1210251  81.6859622 144.0063695
  25.6197995  81.6221223 144.1910948  28.7822419  81.9090788 144.7913019
  29.3766910  81.6686524 144.0806327  28.8549003  81.1897919 145.4186555
  22.1378538  90.9361323 134.1132759  22.8414388  91.1411325 134.7290415
  21.4141187  91.5038085 134.3781843  22.9676348  86.6871184 140.2335029
  22.9111550  87.1439736 139.3942662  23.5204691  85.9261869 140.0557872
  26.7781154  82.4760916 141.0585149  26.5218088  82.0757552 141.8893357
  26.1534022  83.1904710 140.9335288  31.0893492  85.2156989 143.5656440
  30.5293050  85.2850179 144.3388002  30.4836995  85.0397974 142.8455937
  24.0465235  91.3743852 136.1631219  24.8810839  90.9425051 135.9808694
  23.8849578  91.2025866 137.0908114  23.7011127  87.8775965 137.5287559
  23.6459931  87.7120237 136.5876003  23.0757183  88.5851998 137.6849748
  17.0107253  77.3784074 137.1072877  16.9985923  78.3225914 137.2641148
  17.9030675  77.1954220 136.8132338  16.9396817  96.0552965 145.1940634
  15.9892448  96.0554826 145.0805006  17.2429303  95.3085699 144.6776668
  20.8259372  73.9726851 141.3618814  20.0591768  73.4185338 141.5075496
  21.2370077  74.0448720 142.2232965  32.6749510 101.8913503 146.2586396
  33.3127920 101.7720251 145.5549736  32.5570353 102.8394347 146.3174348
  29.4839217 101.8440931 146.1947921  29.1457728 101.7281996 145.3068456
  30.3528985 101.4432096 146.1748927  25.3426032 103.6976408 142.1844812
  24.7790897 103.6066345 141.4161100  25.2278427 102.8776312 142.6647304
  29.9659000 102.9975783 152.1534126  29.9547640 102.6028581 151.2814630
  30.1279639 102.2641856 152.7467898  30.9225591 107.3647375 137.4959277
  30.2713571 107.9501456 137.1093290  31.7169954 107.8953570 137.5554314
  24.8481218 104.4536513 137.8946411  25.6212094 103.9065500 137.7559287
  25.2006617 105.3180762 138.1060872  27.6122468 103.1589743 147.6914670
  28.2086040 102.9345766 146.9771633  27.6697439 102.4174489 148.2940118
  27.1847496 100.6129179 135.5264861  27.4373017 100.0910700 134.7648324
  26.2472055 100.4495324 135.6291545  32.2290779  99.6164957 143.3339604
  33.0153868  99.1984380 142.9830021  32.4929483 100.5211049 143.5021253
  32.4000856 105.0537807 138.0328261  31.7646689 105.1272434 138.7449166
  32.0698263 105.6431406 137.3547340  37.6299206  99.5540190 144.2372583
  38.3624378  98.9839407 144.4710412  36.8738562  99.1661791 144.6779088
  26.9043785 102.5157285 137.7289236  26.7880043 101.8402188 138.3970320
  27.0146045 102.0289659 136.9121389  29.2475326 101.9767432 141.4335925
  28.8833533 101.4498053 142.1448847  30.1042442 101.5865901 141.2602411
  35.1524626  93.2661764 148.6967191  34.8207951  94.1357175 148.4728406
  34.5570240  92.9498048 149.3761222  28.8880813  97.0057331 136.4297274
  29.0555215  97.8737568 136.7967745  28.6977982  97.1684613 135.5058563
  31.6456146 105.4674310 148.0963104  31.3456869 106.3699349 147.9878911
  31.3007205 105.2006494 148.9484257  25.0968627 101.9188107 144.1299808
  24.1719124 101.7864321 144.3377500  25.3453041 102.6982326 144.6269751
  35.0453290  97.9856850 145.7760541  34.1370167  97.9172259 145.4819302
  34.9940885  98.4628795 146.6042367  28.8670034  99.4614989 137.4143940
  28.7469659  99.9072040 138.2529421  28.1722622  99.8100307 136.8557479
  22.4577438 101.5621381 144.9643597  22.5869820 101.8155860 145.8783009
  21.7774890 102.1549089 144.6448253  26.6276926 112.2318631 141.0634072
  26.5500955 113.1826456 141.1422552  26.0238569 111.8864503 141.7208998
  36.9114936  96.1873289 147.5538415  36.2689316  96.4805822 146.9078210
  36.4069865  96.0726209 148.3591612  34.5655100  99.9336462 138.2424275
  35.4772956 100.1663849 138.0671972  34.0564747 100.5173506 137.6799353
  32.8495867 104.3561090 151.8785567  33.2579223 103.9143500 151.1340199
  32.1273129 103.7813717 152.1319760  29.2026937  99.2933697 149.2519124
  30.0488133  99.7173110 149.3953773  29.1425575  98.6367321 149.9457687
  33.1724682 104.9162281 145.6337856  32.5433544 105.0807995 144.9313924
  32.7850344 105.3303890 146.4048820  37.0513914 105.8516718 142.9882220
  36.3664952 106.2315620 142.4379253  37.1357763 106.4612045 143.7214167
  32.3526383  96.9538065 150.9100298  32.1087315  97.7080126 150.3734573
  32.6286313  97.3323413 151.7447545  34.3064845 103.4976677 149.5877563
  34.5181741 104.1408437 148.9111944  34.2594594 102.6638994 149.1199493
  31.9091074  96.1094498 146.4914135  31.0475553  96.4075752 146.7830873
  31.9353509  96.3264897 145.5595168  28.7252644 104.6536689 142.8987941
  29.1890989 104.9324392 142.1092564  28.4609442 103.7520133 142.7161032
  25.6176725 104.2008170 145.8367704  26.1878082 104.6295439 145.1985189
  26.2084837 103.9190755 146.5351890  27.6621530 100.7759841 139.7077506
  28.3645573 101.2280885 140.1751433  27.3302158 100.1343660 140.3357399
  21.4046864  99.0343394 145.0094640  20.6145918  99.2900922 144.5334750
  21.8958111  99.8491732 145.1146680  35.4210673 106.3748633 147.7599921
  36.2428117 105.9728820 147.4782602  35.4173076 106.2716867 148.7116036
  23.3561609  99.3987973 141.9678116  22.5592773  99.5106667 142.4861612
  23.1287201  99.7374625 141.1019007  43.5116666 102.7187381 144.1084892
  42.7580375 102.1494779 143.9528896  43.6464208 102.6850046 145.0555527
  28.9015295 107.5900784 139.7839611  28.7660969 108.4352319 140.2124459
  29.4425107 107.7920061 139.0205545  22.3544692 105.1076222 140.3567537
  22.8669213 105.9019472 140.5073101  23.0067405 104.4102512 140.2901138
  24.1639577 108.2241978 142.4390290  24.3406205 109.1459943 142.2511274
  24.9596410 107.9100397 142.8684669  28.3050595  95.0850243 154.0374223
  29.0460309  95.6857396 153.9578686  28.5368518  94.3427880 153.4792266
  32.2507758  91.1131345 148.3138505  31.9072028  92.0032987 148.2377615
  32.6186721  90.9233003 147.4508090  20.3193609 103.4364876 141.1327107
  21.1568831 103.8461884 140.9160815  20.4971876 102.4964318 141.1027301
  32.2158041 101.1039957 136.8210940  31.7004664 101.8744561 137.0599327
  31.9435349 100.4305093 137.4444001  29.8005152  95.9489657 141.8796178
  28.9446748  95.5596508 141.7001817  30.2132104  96.0281618 141.0195964
  31.3304299  93.4836001 146.2787738  30.8269094  93.4466136 145.4655543
  31.6234905  94.3928743 146.3384395  27.5747184  93.5674730 145.2853920
  28.4400181  93.3717539 144.9259809  27.6424693  93.3385082 146.2123277
  37.1892315 103.8572311 138.7564113  36.4121758 103.5183471 138.3119276
  37.8683796 103.8624934 138.0819079  32.0044344  98.9767049 138.6470721
  31.6994480  99.2913198 139.4980864  32.9574786  99.0548469 138.6898054
  30.4490776 105.1357272 140.2963675  29.9212137 104.4010032 139.9836913
  29.9478279 105.9131948 140.0503643  35.4283622 103.3306292 145.4130721
  34.7707296 104.0205554 145.5010850  36.2324021 103.7202724 145.7564708
  25.1809503  95.7976938 142.6570287  25.7553255  95.5752120 141.9243480
  25.7680486  95.8665633 143.4098888  34.2389081 101.6850665 143.4634663
  34.7520962 102.3180657 143.9656373  34.8890305 101.0851861 143.0978023
  25.5079091  97.8281399 136.6766172  24.6716403  98.1656086 136.9975447
  25.3683860  97.6930379 135.7393309  27.4832171  92.6718187 141.3845356
  26.8296584  92.3567204 140.7601971  27.4412645  92.0493928 142.1105179
  28.5943376 102.9537482 133.2998648  27.6870438 102.7226736 133.4989797
  29.0914408 102.1575102 133.4872630  31.5011455 111.6634989 136.2195334
  30.8273154 111.9666686 136.8280292  31.8877277 112.4664070 135.8700791
  30.7169912  99.1600121 145.7093004  29.7992473  99.3815068 145.5514692
  31.1330055  99.2346431 144.8504711  31.5004959 100.5591536 140.8395684
  32.2476778 101.0712934 140.5302806  31.7696549 100.2375589 141.7000078
  29.7731609 103.0550077 137.8222638  28.8642829 102.7709110 137.9195108
  29.8026693 103.4749156 136.9625945  35.0050877 106.6656667 141.5913806
  34.5513204 105.8247577 141.6478996  34.3744844 107.3018065 141.9288586
  33.9483796  97.5948653 142.8214473  33.2106553  97.0826039 143.1524716
  34.2010570  97.1549034 142.0097750  33.4483816 108.5033163 142.5263624
  33.7406791 109.0638220 141.8075990  33.9582437 108.7961724 143.2816783
  34.0495424  90.3724905 143.4156243  34.3554301  89.5122268 143.1282158
  34.7748029  90.9642525 143.2155236  20.3419780 100.7755591 141.8037840
  20.1444180 100.1824952 141.0788907  19.7866444 100.4707801 142.5213779
  28.3216504 100.6678698 143.9232434  28.3765113  99.7152534 143.8474910
  27.5107706 100.8238137 144.4073732  29.4707697 104.5958821 135.1610717
  29.0327127 103.8794680 134.7016354  30.2118138 104.8234936 134.5995808
  26.2608863  99.2855757 141.6822812  25.4476729  99.5849928 142.0888005
  26.7567858  98.8911446 142.3997295  28.4117441 109.2813514 143.6157077
  28.3693620 109.5074361 142.6865609  29.3280140 109.0476889 143.7642878
  31.8583075  99.7497582 150.5137706  32.2132463  99.9769055 151.3732172
  32.5055206 100.0815959 149.8914962  37.5880812 102.8716018 141.2187035
  37.4498711 103.0617614 140.2908225  37.2317031 103.6335401 141.6755087
  25.7522938  96.8574113 147.2984047  26.3922318  96.7162872 146.6007011
  24.9200469  96.5708626 146.9222649  37.6150192 104.9392545 146.2298307
  38.0486698 104.8467834 147.0781361  38.3281772 104.9150045 145.5918323
  26.5283242 106.1576543 143.4119040  27.3223841 105.6626864 143.2101615
  25.8174934 105.6294407 143.0486745  31.3478087 108.5394639 147.7631408
  31.4015109 109.1085575 148.5309123  30.4792868 108.7096524 147.3985445
  22.8366006 100.3019625 139.4878793  21.9063594 100.2404081 139.7048755
  22.9323478  99.7795578 138.6915434  22.7551555  96.8274438 142.0757034
  23.0158372  97.7419771 141.9666195  23.5768727  96.3598881 142.2253647
  24.2276480  98.2412195 149.2455859  24.8999533  98.0329557 148.5968508
  23.4006266  98.0434281 148.8061091  38.4765741 104.9816246 148.7631192
  38.6701631 105.8862056 149.0090467  38.3766359 104.5223665 149.5969777
  30.1302052  94.8674136 151.2621520  29.4829967  95.5664086 151.1685996
  30.9003067  95.3010280 151.6297768  30.3066186 102.7054901 149.3218339
  31.2358246 102.8566061 149.1487307  29.8857216 102.7938922 148.4666986
  29.1054518 106.7305565 147.0916877  28.9665604 106.3624350 147.9642815
  28.3169114 107.2453205 146.9200835  29.7002670 111.8314662 138.4342414
  29.8754426 111.3602705 139.2488036  29.0135458 112.4580428 138.6623674
  30.6559733 106.1087168 144.4805715  30.3209566 106.0687938 145.3763365
  30.1563679 105.4431884 144.0076125  33.5918925 103.4543202 134.7542774
  32.9748096 102.7290031 134.6575827  33.1235413 104.2152563 134.4109849
  27.2586278 101.2274757 149.4941976  27.9685896 100.5867950 149.4528594
  27.2155586 101.4787652 150.4168156  35.2473057 108.1642111 152.4148555
  35.1885603 107.4801331 151.7479138  35.6492575 108.9061101 151.9629181
  25.9715212  98.2139975 151.3137615  25.4352569  97.7630714 151.9659211
  25.3831920  98.3485884 150.5708079  25.3817471  97.6728627 133.8764079
  24.5046937  97.5517428 133.5126325  25.8575224  96.8814705 133.6242967
  35.2490464 106.1281695 150.6462534  34.3617243 105.7907617 150.7688933
  35.8189015 105.3964726 150.8831300  28.5681397 110.0254917 141.1226599
  27.7848919 110.5676597 141.2164824  29.2674142 110.5428897 141.5220840
  31.8778047  95.8349547 143.7660805  32.3746746  95.0819509 143.4461875
  31.1065028  95.8713863 143.2004014  39.7307804 101.5389912 145.4079096
  39.7197681 102.4214628 145.0373029  38.8625184 101.1861463 145.2133633
  32.9607828 104.5921234 141.3399228  32.0264106 104.7122696 141.1703932
  33.1384496 103.6893701 141.0759238  28.4613016  97.9766930 143.4932489
  28.0910803  97.4237970 144.1813395  28.9572108  97.3725063 142.9407489
  36.3480379 100.4338553 141.8749262  36.8140831 101.2666545 141.8009565
  36.7987879  99.9683535 142.5794521  34.4156610 106.7782374 138.8735414
  34.6916454 106.6638969 139.7829288  33.5461109 106.3799859 138.8347587
  34.3197042  92.8019140 145.9140163  33.4060122  93.0323367 146.0822370
  34.7490143  92.8857584 146.7654196  34.0903500 100.9909032 148.4140058
  33.4374950 101.2384939 147.7592510  34.4683880 100.1773170 148.0802535
  31.0510674 111.0268725 142.5168228  31.2333069 110.2090381 142.9795980
  31.8743660 111.2436417 142.0793118  31.3852840 109.9536910 139.7783276
  31.9140606 109.4429365 139.1653438  31.6481059 109.6379441 140.6428809
  24.7408588 111.0052027 142.5381052  24.0718963 111.4898155 142.0545092
  24.6021457 111.2521247 143.4524431  23.8578349  95.3870920 149.7385595
  23.9219676  96.2485751 149.3262993  23.7945470  94.7744922 149.0057954
  20.1096165  99.2670482 139.3176984  20.4049606  98.3581160 139.2644038
  19.2084200  99.2458221 138.9957987  32.0182243 110.9877746 146.1227393
  31.8933383 110.1867486 145.6138338  32.6761335 111.4823939 145.6341363
  23.6390412  97.3426479 145.3004533  22.9176997  97.9562446 145.1612006
  24.4283667  97.8784243 145.2221179  34.0817152 108.7886766 147.7506943
  33.1347487 108.6692117 147.6785270  34.4299925 107.9009264 147.8333204
  26.4416725  94.6780905 151.5745185  26.9651127  94.9243202 152.3371494
  26.2229058  95.5100940 151.1548322  21.8384006  96.9484580 139.4416310
  21.5096712  96.0681959 139.2591415  22.1923377  96.8932248 140.3292699
  31.0863585 108.5839482 143.9511295  30.9388548 107.6556190 144.1318865
  31.9117079 108.6059573 143.4668370  24.9525829  97.2357549 139.8091787
  25.2921902  97.7643471 139.0870396  25.3997950  97.5737956 140.5850354
  34.6897707 109.4068041 145.0376168  35.6144254 109.2010902 144.9000619
  34.5213010 109.1584442 145.9465509  27.6469270  95.6194600 149.2594855
  27.3066091  94.8202413 149.6615535  26.9408276  95.9196311 148.6871688
  28.2985742  92.7043913 147.7122178  29.1211811  92.2304391 147.5901069
  28.5423806  93.4834396 148.2120865  26.9393977  95.7332171 138.0085080
  27.6602339  96.1113424 137.5048797  26.3159281  96.4521048 138.1120058
  31.0825099  96.4377320 138.9443412  31.2988714  97.3201958 138.6432240
  30.6019167  96.0463533 138.2149054  25.8224321  99.3963033 145.5214157
  25.6768902  99.7103336 146.4138438  25.3449524 100.0147934 144.9685056
  27.6820704  96.3865581 145.5695046  27.6682272  95.4906675 145.2327344
  28.3993132  96.3936245 146.2033333  29.5346834  96.8202921 147.6148174
  29.2764612  97.7419992 147.6132504  29.0031875  96.4233356 148.3048638
  34.4793023 109.9253709 140.3938259  34.6529901 109.3600131 139.6412112
  34.9721914 110.7254603 140.2117749  27.0857600  95.2679962 140.8382617
  27.2073511  94.3396608 141.0373504  26.7959642  95.2818647 139.9260932
  29.9548790  92.9534872 143.9749336  29.9770487  93.0174205 143.0201316
  30.3716849  92.1139381 144.1689843  40.3332414 102.6890131 142.0128559
  40.7763560 101.9397457 141.6147682  39.4558925 102.6800268 141.6302291
  35.4668196 109.2420473 137.4935158  36.1619100 109.8627166 137.7122472
  35.8091346 108.3915824 137.7687535  37.3659619 106.6920178 139.0222488
  37.8910943 107.0307451 138.2971808  37.2781971 105.7567194 138.8385623
  29.0500280 112.7592162 143.3817742  28.6105270 112.2668540 144.0750598
  29.8008396 112.2165129 143.1409817  26.4974152 108.3030171 145.4540043
  25.8754161 107.6400876 145.1542271  27.1679019 108.3291303 144.7713691
  37.0553525 107.3253082 154.3273686  36.2649069 107.3077221 153.7878186
  36.8186879 107.8641376 155.0822723  37.1751400 104.1745548 151.6406415
  37.2249405 104.0095556 152.5821938  37.0665323 103.3072808 151.2504296
  26.0587659 106.8534094 138.9298504  26.2075779 107.5369559 138.2765176
  26.8654102 106.8339184 139.4447959  34.4655162 100.1576477 152.9565722
  35.3665025 100.0182941 152.6649719  34.5403137 100.3230931 153.8963899
  28.7997968  97.5343331 151.8018908  27.9301277  97.8276897 151.5301496
  29.0357448  98.1183776 152.5226171  38.6769597 106.5942490 151.8848436
  38.3854405 106.9572471 152.7211897  38.0641728 105.8809498 151.7061768
  39.8765279 104.1595370 144.4051007  40.7112170 104.5985174 144.5688567
  40.0124408 103.6834023 143.5859252  36.9256785 101.7175105 150.3528494
  37.4010907 101.9102751 149.5447346  36.0022350 101.7734290 150.1071878
  23.8140292 102.8799272 139.9359573  23.5686333 101.9761602 140.1339783
  23.9836206 102.8816422 138.9939051  31.5037001  93.7522948 149.3184328
  32.0218945  94.4883975 148.9930817  31.1492134  94.0586941 150.1531087
  23.0835939  98.6127629 137.4345734  22.3905184  98.6871984 136.7785770
  22.8387691  97.8487973 137.9567251  31.7549596  90.1723231 144.8385225
  32.0351349  89.5046420 145.4645651  32.5400203  90.3652326 144.3259889
  29.5583064 109.3482225 136.4010251  28.9857031 109.9672412 135.9480723
  30.1315858 109.8981586 136.9350173  35.6258454  98.5940865 148.5856800
  36.5775877  98.6938962 148.6069024  35.4561904  97.8019133 149.0954884
  33.6472833  95.6796448 148.7716201  33.0522766  95.9601461 148.0762689
  33.3622530  96.1690349 149.5432942  32.7780324 109.6319375 137.5318833
  33.7110997 109.5664936 137.7351709  32.6903537 110.4675642 137.0733366
  35.4068341 108.9485245 134.4922781  35.3281972 108.6145109 135.3858539
  36.2278007 109.4407013 134.4914253  38.1046532 101.8146984 147.6999100
  38.0722852 100.8762985 147.8858783  38.7147155 101.8931021 146.9664924
  29.9429863 100.6843037 133.7426304  30.8888967 100.5549245 133.8114722
  29.5644108  99.9457699 134.2195732  38.2541020  98.6058028 147.7457383
  37.7380069  97.8216484 147.5587312  39.1380969  98.2776744 147.9103902
  35.9151747  92.3499043 143.7053195  35.7176568  92.0414132 144.5896527
  36.5251453  93.0760682 143.8351125  43.9223082 102.8762991 146.8405136
  44.6526470 102.6148279 147.4012840  43.3130027 102.1391713 146.8807204
  42.0038379 101.0170854 147.4379588  41.2771542 100.8826819 146.8296079
  41.5885666 101.3247682 148.2436306  28.1272780  98.6093014 133.6781189
  27.2204235  98.3126126 133.7543902  28.4048761  98.3122832 132.8115475
  19.0450720  99.9299377 144.1280235  18.7253504  99.0764685 143.8354609
  18.4984148 100.1447955 144.8838203  29.7434845  93.1529903 139.8325430
  28.9335574  92.8076988 140.2080676  30.4319262  92.8437447 140.4213042
  31.6725394  92.2307950 141.4549727  32.2256432  92.6503404 142.1139750
  31.9095480  91.3043698 141.4972683  26.8971564  95.4679949 133.8193168
  27.7590728  95.7934847 134.0788985  27.0821909  94.6811445 133.3066234
  35.0504201  94.3408475 140.9628391  34.4702870  94.9993279 140.5806443
  34.7840134  93.5185820 140.5515809  33.5007767  93.7413533 143.1649711
  34.0007546  93.8530068 142.3564030  34.1443375  93.4374586 143.8050520
  20.8275723 103.4820542 143.9739372  20.8046411 103.5808230 143.0221255
  21.1376359 104.3285693 144.2956538  33.8329079  96.5008566 140.0184739
  32.9454934  96.7858216 139.8004934  34.2483068  96.3402329 139.1712016
  37.1843615  96.5255087 143.7339079  37.9604005  97.0151539 144.0063695
  36.4591749  96.9513141 144.1910948  39.6216174  97.2382706 144.7913019
  40.2160664  96.9978442 144.0806327  39.6942757  96.5189837 145.4186555
  32.9772292 106.2653241 134.1132759  33.6808142 106.4703243 134.7290415
  32.2534941 106.8330002 134.3781843  33.8070103 102.0163102 140.2335029
  33.7505304 102.4731653 139.3942662  34.3598445 101.2553786 140.0557872
  37.6174909  97.8052834 141.0585149  37.3611843  97.4049469 141.8893357
  36.9927777  98.5196628 140.9335288  41.9287246 100.5448907 143.5656440
  41.3686804 100.6142096 144.3388002  41.3230750 100.3689892 142.8455937
  34.8858990 106.7035770 136.1631219  35.7204594 106.2716968 135.9808694
  34.7243333 106.5317783 137.0908114  34.5404882 103.2067883 137.5287559
  34.4853686 103.0412154 136.5876003  33.9150937 103.9143916 137.6849748
  27.8501007  92.7075992 137.1072877  27.8379677  93.6517832 137.2641148
  28.7424429  92.5246137 136.8132338  27.7790571 111.3844882 145.1940634
  26.8286202 111.3846744 145.0805006  28.0823057 110.6377617 144.6776668
  31.6653127  89.3018769 141.3618814  30.8985523  88.7477255 141.5075496
  32.0763832  89.3740637 142.2232965  43.5143265 117.2205421 146.2586396
  44.1521675 117.1012168 145.5549736  43.3964108 118.1686265 146.3174348
  40.3232971 117.1732849 146.1947921  39.9851483 117.0573914 145.3068456
  41.1922739 116.7724014 146.1748927  36.1819787 119.0268325 142.1844812
  35.6184652 118.9358262 141.4161100  36.0672182 118.2068230 142.6647304
  40.8052754 118.3267701 152.1534126  40.7941395 117.9320499 151.2814630
  40.9673394 117.5933773 152.7467898  41.7619346 122.6939293 137.4959277
  41.1107325 123.2793373 137.1093290  42.5563708 123.2245488 137.5554314
  35.6874973 119.7828430 137.8946411  36.4605849 119.2357417 137.7559287
  36.0400372 120.6472680 138.1060872  38.4516222 118.4881661 147.6914670
  39.0479794 118.2637683 146.9771633  38.5091194 117.7466406 148.2940118
  38.0241251 115.9421096 135.5264861  38.2766771 115.4202618 134.7648324
  37.0865810 115.7787242 135.6291545  43.0684533 114.9456875 143.3339604
  43.8547623 114.5276298 142.9830021  43.3323238 115.8502967 143.5021253
  43.2394611 120.3829725 138.0328261  42.6040444 120.4564352 138.7449166
  42.9092017 120.9723324 137.3547340  48.4692960 114.8832108 144.2372583
  49.2018132 114.3131325 144.4710412  47.7132316 114.4953708 144.6779088
  37.7437539 117.8449202 137.7289236  37.6273797 117.1694106 138.3970320
  37.8539799 117.3581576 136.9121389  40.0869080 117.3059349 141.4335925
  39.7227287 116.7789970 142.1448847  40.9436196 116.9157818 141.2602411
  45.9918381 108.5953682 148.6967191  45.6601706 109.4649093 148.4728406
  45.3963994 108.2789966 149.3761222  39.7274567 112.3349249 136.4297274
  39.8948969 113.2029485 136.7967745  39.5371736 112.4976531 135.5058563
  42.4849900 120.7966228 148.0963104  42.1850623 121.6991267 147.9878911
  42.1400960 120.5298411 148.9484257  35.9362382 117.2480025 144.1299808
  35.0112878 117.1156239 144.3377500  36.1846795 118.0274244 144.6269751
  45.8847044 113.3148768 145.7760541  44.9763921 113.2464177 145.4819302
  45.8334640 113.7920713 146.6042367  39.7063788 114.7906907 137.4143940
  39.5863413 115.2363957 138.2529421  39.0116376 115.1392224 136.8557479
  33.2971193 116.8913298 144.9643597  33.4263574 117.1447777 145.8783009
  32.6168644 117.4841006 144.6448253  37.4670680 127.5610548 141.0634072
  37.3894710 128.5118373 141.1422552  36.8632324 127.2156421 141.7208998
  47.7508691 111.5165207 147.5538415  47.1083071 111.8097740 146.9078210
  47.2463619 111.4018127 148.3591612  45.4048854 115.2628380 138.2424275
  46.3166710 115.4955767 138.0671972  44.8958501 115.8465424 137.6799353
  43.6889622 119.6853008 151.8785567  44.0972978 119.2435418 151.1340199
  42.9666883 119.1105635 152.1319760  40.0420692 114.6225614 149.2519124
  40.8881887 115.0465028 149.3953773  39.9819330 113.9659239 149.9457687
  44.0118436 120.2454198 145.6337856  43.3827299 120.4099912 144.9313924
  43.6244099 120.6595808 146.4048820  47.8907668 121.1808636 142.9882220
  47.2058707 121.5607537 142.4379253  47.9751518 121.7903963 143.7214167
  43.1920137 112.2829983 150.9100298  42.9481069 113.0372043 150.3734573
  43.4680068 112.6615330 151.7447545  45.1458600 118.8268595 149.5877563
  45.3575495 119.4700355 148.9111944  45.0988348 117.9930912 149.1199493
  42.7484829 111.4386416 146.4914135  41.8869308 111.7367669 146.7830873
  42.7747264 111.6556815 145.5595168  39.5646398 119.9828606 142.8987941
  40.0284744 120.2616309 142.1092564  39.3003196 119.0812051 142.7161032
  36.4570479 119.5300088 145.8367704  37.0271836 119.9587356 145.1985189
  37.0478591 119.2482673 146.5351890  38.5015284 116.1051759 139.7077506
  39.2039328 116.5572802 140.1751433  38.1695913 115.4635578 140.3357399
  32.2440618 114.3635311 145.0094640  31.4539672 114.6192840 144.5334750
  32.7351866 115.1783649 145.1146680  46.2604428 121.7040551 147.7599921
  47.0821872 121.3020738 147.4782602  46.2566831 121.6008785 148.7116036
  34.1955364 114.7279891 141.9678116  33.3986527 114.8398585 142.4861612
  33.9680956 115.0666543 141.1019007  54.3510421 118.0479299 144.1084892
  53.5974129 117.4786697 143.9528896  54.4857962 118.0141963 145.0555527
  39.7409049 122.9192701 139.7839611  39.6054724 123.7644237 140.2124459
  40.2818862 123.1211979 139.0205545  33.1938446 120.4368139 140.3567537
  33.7062967 121.2311390 140.5073101  33.8461159 119.7394430 140.2901138
  35.0033331 123.5533896 142.4390290  35.1799959 124.4751860 142.2511274
  35.7990165 123.2392315 142.8684669  39.1444350 110.4142160 154.0374223
  39.8854063 111.0149313 153.9578686  39.3762272 109.6719798 153.4792266
  43.0901513 106.4423263 148.3138505  42.7465782 107.3324905 148.2377615
  43.4580475 106.2524921 147.4508090  31.1587363 118.7656794 141.1327107
  31.9962585 119.1753802 140.9160815  31.3365631 117.8256236 141.1027301
  43.0551795 116.4331874 136.8210940  42.5398419 117.2036479 137.0599327
  42.7829104 115.7597010 137.4444001  40.6398906 111.2781575 141.8796178
  39.7840503 110.8888425 141.7001817  41.0525858 111.3573536 141.0195964
  42.1698053 108.8127918 146.2787738  41.6662849 108.7758053 145.4655543
  42.4628660 109.7220661 146.3384395  38.4140939 108.8966648 145.2853920
  39.2793936 108.7009457 144.9259809  38.4818448 108.6677000 146.2123277
  48.0286069 119.1864229 138.7564113  47.2515512 118.8475388 138.3119276
  48.7077550 119.1916852 138.0819079  42.8438098 114.3058966 138.6470721
  42.5388234 114.6205116 139.4980864  43.7968541 114.3840386 138.6898054
  41.2884530 120.4649190 140.2963675  40.7605892 119.7301949 139.9836913
  40.7872033 121.2423866 140.0503643  46.2677376 118.6598210 145.4130721
  45.6101051 119.3497472 145.5010850  47.0717776 119.0494642 145.7564708
  36.0203258 111.1268856 142.6570287  36.5947010 110.9044037 141.9243480
  36.6074240 111.1957550 143.4098888  45.0782835 117.0142583 143.4634663
  45.5914717 117.6472575 143.9656373  45.7284059 116.4143778 143.0978023
  36.3472845 113.1573317 136.6766172  35.5110157 113.4948004 136.9975447
  36.2077615 113.0222297 135.7393309  38.3225926 108.0010105 141.3845356
  37.6690338 107.6859122 140.7601971  38.2806400 107.3785845 142.1105179
  39.4337131 118.2829400 133.2998648  38.5264192 118.0518653 133.4989797
  39.9308163 117.4867019 133.4872630  42.3405209 126.9926907 136.2195334
  41.6666908 127.2958604 136.8280292  42.7271031 127.7955987 135.8700791
  41.5563666 114.4892038 145.7093004  40.6386227 114.7106985 145.5514692
  41.9723810 114.5638349 144.8504711  42.3398714 115.8883454 140.8395684
  43.0870533 116.4004851 140.5302806  42.6090303 115.5667507 141.7000078
  40.6125364 118.3841995 137.8222638  39.7036583 118.1001028 137.9195108
  40.6420448 118.8041073 136.9625945  45.8444631 121.9948584 141.5913806
  45.3906958 121.1539494 141.6478996  45.2138598 122.6309983 141.9288586
  44.7877551 112.9240570 142.8214473  44.0500308 112.4117957 143.1524716
  45.0404324 112.4840952 142.0097750  44.2877571 123.8325081 142.5263624
  44.5800545 124.3930138 141.8075990  44.7976191 124.1253642 143.2816783
  44.8889178 105.7016822 143.4156243  45.1948055 104.8414186 143.1282158
  45.6141783 106.2934443 143.2155236  31.1813534 116.1047509 141.8037840
  30.9837934 115.5116870 141.0788907  30.6260198 115.7999719 142.5213779
  39.1610258 115.9970615 143.9232434  39.2158868 115.0444452 143.8474910
  38.3501460 116.1530055 144.4073732  40.3101452 119.9250738 135.1610717
  39.8720882 119.2086597 134.7016354  41.0511893 120.1526853 134.5995808
  37.1002618 114.6147675 141.6822812  36.2870483 114.9141846 142.0888005
  37.5961612 114.2203364 142.3997295  39.2511196 124.6105432 143.6157077
  39.2087375 124.8366278 142.6865609  40.1673895 124.3768807 143.7642878
  42.6976830 115.0789500 150.5137706  43.0526217 115.3060973 151.3732172
  43.3448961 115.4107876 149.8914962  48.4274567 118.2007936 141.2187035
  48.2892465 118.3909531 140.2908225  48.0710785 118.9627318 141.6755087
  36.5916693 112.1866031 147.2984047  37.2316072 112.0454790 146.6007011
  35.7594223 111.9000544 146.9222649  48.4543946 120.2684463 146.2298307
  48.8880453 120.1759752 147.0781361  49.1675527 120.2441963 145.5918323
  37.3676997 121.4868461 143.4119040  38.1617595 120.9918781 143.2101615
  36.6568689 120.9586324 143.0486745  42.1871841 123.8686557 147.7631408
  42.2408863 124.4377493 148.5309123  41.3186622 124.0388442 147.3985445
  33.6759760 115.6311543 139.4878793  32.7457348 115.5695998 139.7048755
  33.7717232 115.1087496 138.6915434  33.5945309 112.1566356 142.0757034
  33.8552126 113.0711689 141.9666195  34.4162481 111.6890798 142.2253647
  35.0670234 113.5704113 149.2455859  35.7393288 113.3621475 148.5968508
  34.2400021 113.3726199 148.8061091  49.3159496 120.3108163 148.7631192
  49.5095386 121.2153974 149.0090467  49.2160114 119.8515582 149.5969777
  40.9695806 110.1966054 151.2621520  40.3223721 110.8956003 151.1685996
  41.7396822 110.6302198 151.6297768  41.1459941 118.0346819 149.3218339
  42.0752001 118.1857978 149.1487307  40.7250971 118.1230839 148.4666986
  39.9448273 122.0597483 147.0916877  39.8059358 121.6916267 147.9642815
  39.1562869 122.5745123 146.9200835  40.5396425 127.1606580 138.4342414
  40.7148180 126.6894623 139.2488036  39.8529213 127.7872346 138.6623674
  41.4953488 121.4379086 144.4805715  41.1603320 121.3979856 145.3763365
  40.9957433 120.7723802 144.0076125  44.4312679 118.7835120 134.7542774
  43.8141850 118.0581948 134.6575827  43.9629168 119.5444480 134.4109849
  38.0980032 116.5566675 149.4941976  38.8079651 115.9159867 149.4528594
  38.0549341 116.8079570 150.4168156  46.0866811 123.4934028 152.4148555
  46.0279357 122.8093249 151.7479138  46.4886329 124.2353018 151.9629181
  36.8108966 113.5431893 151.3137615  36.2746323 113.0922631 151.9659211
  36.2225675 113.6777802 150.5708079  36.2211225 113.0020544 133.8764079
  35.3440692 112.8809345 133.5126325  36.6968978 112.2106623 133.6242967
  46.0884218 121.4573612 150.6462534  45.2010997 121.1199534 150.7688933
  46.6582769 120.7256644 150.8831300  39.4075151 125.3546835 141.1226599
  38.6242673 125.8968515 141.2164824  40.1067896 125.8720814 141.5220840
  42.7171801 111.1641464 143.7660805  43.2140501 110.4111427 143.4461875
  41.9458783 111.2005781 143.2004014  50.5701559 116.8681830 145.4079096
  50.5591435 117.7506545 145.0373029  49.7018938 116.5153381 145.2133633
  43.8001582 119.9213151 141.3399228  42.8657861 120.0414614 141.1703932
  43.9778251 119.0185618 141.0759238  39.3006770 113.3058847 143.4932489
  38.9304558 112.7529888 144.1813395  39.7965863 112.7016981 142.9407489
  47.1874133 115.7630471 141.8749262  47.6534586 116.5958462 141.8009565
  47.6381634 115.2975452 142.5794521  45.2550365 122.1074292 138.8735414
  45.5310208 121.9930887 139.7829288  44.3854863 121.7091777 138.8347587
  45.1590796 108.1311058 145.9140163  44.2453876 108.3615285 146.0822370
  45.5883898 108.2149502 146.7654196  44.9297255 116.3200950 148.4140058
  44.2768705 116.5676857 147.7592510  45.3077635 115.5065088 148.0802535
  41.8904429 126.3560643 142.5168228  42.0726823 125.5382299 142.9795980
  42.7137415 126.5728335 142.0793118  42.2246594 125.2828828 139.7783276
  42.7534361 124.7721283 139.1653438  42.4874814 124.9671358 140.6428809
  35.5802342 126.3343945 142.5381052  34.9112717 126.8190072 142.0545092
  35.4415212 126.5813165 143.4524431  34.6972104 110.7162838 149.7385595
  34.7613430 111.5777669 149.3262993  34.6339224 110.1036840 149.0057954
  30.9489919 114.5962400 139.3176984  31.2443360 113.6873078 139.2644038
  30.0477955 114.5750139 138.9957987  42.8575998 126.3169664 146.1227393
  42.7327137 125.5159404 145.6138338  43.5155089 126.8115857 145.6341363
  34.4784166 112.6718396 145.3004533  33.7570752 113.2854364 145.1612006
  35.2677422 113.2076161 145.2221179  44.9210906 124.1178684 147.7506943
  43.9741242 123.9984035 147.6785270  45.2693679 123.2301182 147.8333204
  37.2810480 110.0072823 151.5745185  37.8044881 110.2535119 152.3371494
  37.0622813 110.8392858 151.1548322  32.6777761 112.2776497 139.4416310
  32.3490467 111.3973876 139.2591415  33.0317131 112.2224166 140.3292699
  41.9257340 123.9131400 143.9511295  41.7782302 122.9848107 144.1318865
  42.7510833 123.9351491 143.4668370  35.7919584 112.5649467 139.8091787
  36.1315656 113.0935388 139.0870396  36.2391704 112.9029873 140.5850354
  45.5291461 124.7359959 145.0376168  46.4538009 124.5302820 144.9000619
  45.3606765 124.4876360 145.9465509  38.4863025 110.9486518 149.2594855
  38.1459845 110.1494331 149.6615535  37.7802031 111.2488229 148.6871688
  39.1379497 108.0335830 147.7122178  39.9605566 107.5596308 147.5901069
  39.3817560 108.8126314 148.2120865  37.7787731 111.0624089 138.0085080
  38.4996094 111.4405342 137.5048797  37.1553035 111.7812966 138.1120058
  41.9218854 111.7669238 138.9443412  42.1382468 112.6493876 138.6432240
  41.4412921 111.3755451 138.2149054  36.6618075 114.7254951 145.5214157
  36.5162656 115.0395254 146.4138438  36.1843279 115.3439851 144.9685056
  38.5214458 111.7157499 145.5695046  38.5076027 110.8198592 145.2327344
  39.2386886 111.7228163 146.2033333  40.3740589 112.1494839 147.6148174
  40.1158367 113.0711910 147.6132504  39.8425629 111.7525274 148.3048638
  45.3186778 125.2545626 140.3938259  45.4923655 124.6892049 139.6412112
  45.8115669 126.0546521 140.2117749  37.9251354 110.5971879 140.8382617
  38.0467265 109.6688525 141.0373504  37.6353396 110.6110565 139.9260932
  40.7942544 108.2826790 143.9749336  40.8164241 108.3466123 143.0201316
  41.2110603 107.4431298 144.1689843  51.1726169 118.0182049 142.0128559
  51.6157315 117.2689374 141.6147682  50.2952679 118.0092186 141.6302291
  46.3061950 124.5712391 137.4935158  47.0012855 125.1919083 137.7122472
  46.6485100 123.7207742 137.7687535  48.2053373 122.0212096 139.0222488
  48.7304697 122.3599369 138.2971808  48.1175726 121.0859111 138.8385623
  39.8894034 128.0884079 143.3817742  39.4499024 127.5960458 144.0750598
  40.6402151 127.5457047 143.1409817  37.3367906 123.6322089 145.4540043
  36.7147915 122.9692794 145.1542271  38.0072773 123.6583220 144.7713691
  47.8947279 122.6545000 154.3273686  47.1042823 122.6369139 153.7878186
  47.6580634 123.1933293 155.0822723  48.0145154 119.5037466 151.6406415
  48.0643159 119.3387474 152.5821938  47.9059078 118.6364725 151.2504296
  36.8981413 122.1826012 138.9298504  37.0469533 122.8661476 138.2765176
  37.7047857 122.1631102 139.4447959  45.3048917 115.4868394 152.9565722
  46.2058780 115.3474859 152.6649719  45.3796891 115.6522849 153.8963899
  39.6391722 112.8635249 151.8018908  38.7695031 113.1568815 151.5301496
  39.8751202 113.4475694 152.5226171  49.5163351 121.9234408 151.8848436
  49.2248159 122.2864388 152.7211897  48.9035482 121.2101416 151.7061768
  50.7159034 119.4887287 144.4051007  51.5505925 119.9277092 144.5688567
  50.8518162 119.0125941 143.5859252  47.7650539 117.0467022 150.3528494
  48.2404661 117.2394669 149.5447346  46.8416105 117.1026208 150.1071878
  34.6534046 118.2091190 139.9359573  34.4080088 117.3053519 140.1339783
  34.8229961 118.2108340 138.9939051  42.3430756 109.0814866 149.3184328
  42.8612700 109.8175893 148.9930817  41.9885889 109.3878859 150.1531087
  33.9229694 113.9419547 137.4345734  33.2298939 114.0163902 136.7785770
  33.6781445 113.1779891 137.9567251  42.5943350 105.5015148 144.8385225
  42.8745104 104.8338337 145.4645651  43.3793957 105.6944244 144.3259889
  40.3976819 124.6774142 136.4010251  39.8250786 125.2964329 135.9480723
  40.9709612 125.2273504 136.9350173  46.4652208 113.9232782 148.5856800
  47.4169631 114.0230880 148.6069024  46.2955659 113.1311051 149.0954884
  44.4866588 111.0088366 148.7716201  43.8916520 111.2893378 148.0762689
  44.2016285 111.4982267 149.5432942  43.6174078 124.9611292 137.5318833
  44.5504752 124.8956854 137.7351709  43.5297291 125.7967559 137.0733366
  46.2462095 124.2777163 134.4922781  46.1675727 123.9437026 135.3858539
  47.0671762 124.7698931 134.4914253  48.9440286 117.1438902 147.6999100
  48.9116606 116.2054903 147.8858783  49.5540910 117.2222939 146.9664924
  40.7823617 116.0134955 133.7426304  41.7282722 115.8841163 133.8114722
  40.4037862 115.2749617 134.2195732  49.0934775 113.9349946 147.7457383
  48.5773823 113.1508402 147.5587312  49.9774723 113.6068662 147.9103902
  46.7545502 107.6790961 143.7053195  46.5570323 107.3706049 144.5896527
  47.3645207 108.4052600 143.8351125  54.7616836 118.2054909 146.8405136
  55.4920225 117.9440197 147.4012840  54.1523782 117.4683631 146.8807204
  52.8432133 116.3462772 147.4379588  52.1165297 116.2118736 146.8296079
  52.4279420 116.6539600 148.2436306  38.9666534 113.9384931 133.6781189
  38.0597990 113.6418044 133.7543902  39.2442515 113.6414750 132.8115475
  29.8844475 115.2591295 144.1280235  29.5647259 114.4056603 143.8354609
  29.3377903 115.4739873 144.8838203  40.5828600 108.4821821 139.8325430
  39.7729328 108.1368906 140.2080676  41.2713017 108.1729365 140.4213042
  42.5119148 107.5599868 141.4549727  43.0650187 107.9795321 142.1139750
  42.7489235 106.6335616 141.4972683  37.7365319 110.7971867 133.8193168
  38.5984483 111.1226765 134.0788985  37.9215663 110.0103363 133.3066234
  45.8897955 109.6700393 140.9628391  45.3096624 110.3285197 140.5806443
  45.6233888 108.8477738 140.5515809  44.3401522 109.0705451 143.1649711
  44.8401300 109.1821985 142.3564030  44.9837130 108.7666504 143.8050520
  31.6669477 118.8112460 143.9739372  31.6440165 118.9100147 143.0221255
  31.9770114 119.6577611 144.2956538  44.6722833 111.8300484 140.0184739
  43.7848688 112.1150134 139.8004934  45.0876822 111.6694247 139.1712016
  48.0237369 111.8547004 143.7339079  48.7997760 112.3443457 144.0063695
  47.2985504 112.2805059 144.1910948  50.4609928 112.5674624 144.7913019
  51.0554419 112.3270360 144.0806327  50.5336512 111.8481754 145.4186555
  43.8166047 121.5945158 134.1132759  44.5201897 121.7995161 134.7290415
  43.0928696 122.1621920 134.3781843  44.6463857 117.3455019 140.2335029
  44.5899058 117.8023571 139.3942662  45.1992200 116.5845704 140.0557872
  48.4568663 113.1344751 141.0585149  48.2005597 112.7341387 141.8893357
  47.8321531 113.8488545 140.9335288  52.7681001 115.8740825 143.5656440
  52.2080559 115.9434014 144.3388002  52.1624504 115.6981809 142.8455937
  45.7252744 122.0327687 136.1631219  46.5598348 121.6008886 135.9808694
  45.5637087 121.8609701 137.0908114  45.3798636 118.5359801 137.5287559
  45.3247440 118.3704072 136.5876003  44.7544692 119.2435834 137.6849748
  38.6894762 108.0367910 137.1072877  38.6773432 108.9809750 137.2641148
  39.5818184 107.8538055 136.8132338  38.6184326 126.7136800 145.1940634
  37.6679957 126.7138662 145.0805006  38.9216812 125.9669535 144.6776668
  42.5046881 104.6310686 141.3618814  41.7379277 104.0769173 141.5075496
  42.9157586 104.7032555 142.2232965  54.3537019 132.5497339 146.2586396
  54.9915429 132.4304086 145.5549736  54.2357862 133.4978182 146.3174348
  51.1626726 132.5024767 146.1947921  50.8245237 132.3865831 145.3068456
  52.0316494 132.1015932 146.1748927  47.0213541 134.3560243 142.1844812
  46.4578406 134.2650180 141.4161100  46.9065936 133.5360147 142.6647304
  51.6446509 133.6559618 152.1534126  51.6335149 133.2612417 151.2814630
  51.8067148 132.9225691 152.7467898  52.6013100 138.0231211 137.4959277
  51.9501080 138.6085291 137.1093290  53.3957463 138.5537406 137.5554314
  46.5268727 135.1120348 137.8946411  47.2999603 134.5649335 137.7559287
  46.8794126 135.9764597 138.1060872  49.2909977 133.8173579 147.6914670
  49.8873549 133.5929601 146.9771633  49.3484948 133.0758324 148.2940118
  48.8635005 131.2713014 135.5264861  49.1160526 130.7494535 134.7648324
  47.9259564 131.1079159 135.6291545  53.9078288 130.2748792 143.3339604
  54.6941377 129.8568216 142.9830021  54.1716992 131.1794885 143.5021253
  54.0788365 135.7121643 138.0328261  53.4434198 135.7856269 138.7449166
  53.7485772 136.3015241 137.3547340  59.3086715 130.2124026 144.2372583
  60.0411887 129.6423242 144.4710412  58.5526071 129.8245626 144.6779088
  48.5831294 133.1741120 137.7289236  48.4667552 132.4986023 138.3970320
  48.6933554 132.6873494 136.9121389  50.9262835 132.6351267 141.4335925
  50.5621042 132.1081888 142.1448847  51.7829951 132.2449736 141.2602411
  56.8312135 123.9245600 148.6967191  56.4995460 124.7941011 148.4728406
  56.2357749 123.6081884 149.3761222  50.5668322 127.6641167 136.4297274
  50.7342724 128.5321403 136.7967745  50.3765491 127.8268448 135.5058563
  53.3243655 136.1258146 148.0963104  53.0244378 137.0283184 147.9878911
  52.9794714 135.8590329 148.9484257  46.7756136 132.5771942 144.1299808
  45.8506633 132.4448157 144.3377500  47.0240549 133.3566162 144.6269751
  56.7240799 128.6440686 145.7760541  55.8157676 128.5756094 145.4819302
  56.6728394 129.1212631 146.6042367  50.5457543 130.1198824 137.4143940
  50.4257168 130.5655875 138.2529421  49.8510131 130.4684142 136.8557479
  44.1364947 132.2205216 144.9643597  44.2657329 132.4739695 145.8783009
  43.4562399 132.8132924 144.6448253  48.3064435 142.8902466 141.0634072
  48.2288464 143.8410291 141.1422552  47.7026078 142.5448338 141.7208998
  58.5902445 126.8457124 147.5538415  57.9476825 127.1389657 146.9078210
  58.0857374 126.7310045 148.3591612  56.2442609 130.5920297 138.2424275
  57.1560465 130.8247684 138.0671972  55.7352256 131.1757342 137.6799353
  50.8814446 129.9517532 149.2519124  51.7275642 130.3756946 149.3953773
  50.8213084 129.2951156 149.9457687  54.8512191 135.5746116 145.6337856
  54.2221053 135.7391830 144.9313924  54.4637853 135.9887725 146.4048820
  58.7301423 136.5100554 142.9882220  58.0452461 136.8899455 142.4379253
  58.8145272 137.1195880 143.7214167  54.0313892 127.6121900 150.9100298
  53.7874824 128.3663961 150.3734573  54.3073822 127.9907248 151.7447545
  55.9852354 134.1560513 149.5877563  56.1969250 134.7992273 148.9111944
  55.9382103 133.3222829 149.1199493  53.5878583 126.7678333 146.4914135
  52.7263062 127.0659587 146.7830873  53.6141018 126.9848732 145.5595168
  50.4040153 135.3120524 142.8987941  50.8678498 135.5908227 142.1092564
  50.1396951 134.4103969 142.7161032  47.2964234 134.8592006 145.8367704
  47.8665591 135.2879274 145.1985189  47.8872346 134.5774590 146.5351890
  49.3409039 131.4343676 139.7077506  50.0433082 131.8864720 140.1751433
  49.0089667 130.7927495 140.3357399  43.0834373 129.6927229 145.0094640
  42.2933427 129.9484758 144.5334750  43.5745620 130.5075567 145.1146680
  57.0998182 137.0332468 147.7599921  57.9215626 136.6312655 147.4782602
  57.0960585 136.9300702 148.7116036  45.0349118 130.0571808 141.9678116
  44.2380282 130.1690502 142.4861612  44.8074710 130.3958460 141.1019007
  65.1904175 133.3771217 144.1084892  64.4367884 132.8078615 143.9528896
  65.3251717 133.3433881 145.0555527  50.5802804 138.2484619 139.7839611
  50.4448478 139.0936155 140.2124459  51.1212616 138.4503897 139.0205545
  44.0332201 135.7660057 140.3567537  44.5456721 136.5603307 140.5073101
  44.6854914 135.0686347 140.2901138  45.8427086 138.8825813 142.4390290
  46.0193714 139.8043778 142.2511274  46.6383919 138.5684232 142.8684669
  49.9838104 125.7434078 154.0374223  50.7247818 126.3441231 153.9578686
  50.2156027 125.0011716 153.4792266  53.9295267 121.7715181 148.3138505
  53.5859536 122.6616823 148.2377615  54.2974230 121.5816838 147.4508090
  41.9981118 134.0948711 141.1327107  42.8356340 134.5045720 140.9160815
  42.1759385 133.1548153 141.1027301  53.8945550 131.7623792 136.8210940
  53.3792173 132.5328397 137.0599327  53.6222858 131.0888928 137.4444001
  51.4792661 126.6073493 141.8796178  50.6234257 126.2180343 141.7001817
  51.8919613 126.6865454 141.0195964  53.0091807 124.1419836 146.2787738
  52.5056603 124.1049971 145.4655543  53.3022414 125.0512579 146.3384395
  49.2534693 124.2258566 145.2853920  50.1187690 124.0301374 144.9259809
  49.3212202 123.9968917 146.2123277  58.8679824 134.5156147 138.7564113
  58.0909267 134.1767306 138.3119276  59.5471305 134.5208770 138.0819079
  53.6831853 129.6350884 138.6470721  53.3781989 129.9497033 139.4980864
  54.6362295 129.7132304 138.6898054  52.1278285 135.7941107 140.2963675
  51.5999646 135.0593867 139.9836913  51.6265788 136.5715784 140.0503643
  57.1071131 133.9890128 145.4130721  56.4494805 134.6789389 145.5010850
  57.9111530 134.3786560 145.7564708  46.8597012 126.4560774 142.6570287
  47.4340764 126.2335955 141.9243480  47.4467995 126.5249468 143.4098888
  55.9176590 132.3434501 143.4634663  56.4308471 132.9764492 143.9656373
  56.5677814 131.7435696 143.0978023  47.1866600 128.4865235 136.6766172
  46.3503912 128.8239921 136.9975447  47.0471369 128.3514214 135.7393309
  49.1619680 123.3302023 141.3845356  48.5084092 123.0151040 140.7601971
  49.1200154 122.7077763 142.1105179  50.2730885 133.6121318 133.2998648
  49.3657947 133.3810571 133.4989797  50.7701917 132.8158937 133.4872630
  53.1798964 142.3218825 136.2195334  52.5060663 142.6250522 136.8280292
  53.5664786 143.1247905 135.8700791  52.3957421 129.8183956 145.7093004
  51.4779982 130.0398903 145.5514692  52.8117564 129.8930267 144.8504711
  53.1792468 131.2175372 140.8395684  53.9264287 131.7296769 140.5302806
  53.4484058 130.8959424 141.7000078  51.4519118 133.7133912 137.8222638
  50.5430338 133.4292945 137.9195108  51.4814202 134.1332991 136.9625945
  56.6838386 137.3240502 141.5913806  56.2300713 136.4831412 141.6478996
  56.0532353 137.9601900 141.9288586  55.6271305 128.2532488 142.8214473
  54.8894062 127.7409874 143.1524716  55.8798079 127.8132870 142.0097750
  55.1271325 139.1616999 142.5263624  55.4194299 139.7222056 141.8075990
  55.6369946 139.4545560 143.2816783  55.7282933 121.0308740 143.4156243
  56.0341810 120.1706103 143.1282158  56.4535538 121.6226360 143.2155236
  42.0207289 131.4339427 141.8037840  41.8231689 130.8408787 141.0788907
  41.4653953 131.1291637 142.5213779  50.0004012 131.3262533 143.9232434
  50.0552622 130.3736369 143.8474910  49.1895215 131.4821972 144.4073732
  51.1495206 135.2542656 135.1610717  50.7114636 134.5378515 134.7016354
  51.8905647 135.4818771 134.5995808  47.9396372 129.9439593 141.6822812
  47.1264238 130.2433763 142.0888005  48.4355367 129.5495282 142.3997295
  50.0904950 139.9397350 143.6157077  50.0481129 140.1658196 142.6865609
  51.0067649 139.7060724 143.7642878  53.5370584 130.4081417 150.5137706
  53.8919972 130.6352890 151.3732172  54.1842715 130.7399794 149.8914962
  59.2668321 133.5299853 141.2187035  59.1286220 133.7201449 140.2908225
  58.9104540 134.2919236 141.6755087  47.4310447 127.5157948 147.2984047
  48.0709826 127.3746707 146.6007011  46.5987978 127.2292462 146.9222649
  59.2937701 135.5976380 146.2298307  59.7274207 135.5051669 147.0781361
  60.0069281 135.5733881 145.5918323  48.2070751 136.8160379 143.4119040
  49.0011350 136.3210699 143.2101615  47.4962443 136.2878242 143.0486745
  53.0265596 139.1978474 147.7631408  53.0802618 139.7669411 148.5309123
  52.1580377 139.3680359 147.3985445  44.5153515 130.9603461 139.4878793
  43.5851103 130.8987916 139.7048755  44.6110987 130.4379413 138.6915434
  44.4339064 127.4858273 142.0757034  44.6945881 128.4003607 141.9666195
  45.2556236 127.0182716 142.2253647  45.9063989 128.8996031 149.2455859
  46.5787042 128.6913393 148.5968508  45.0793775 128.7018117 148.8061091
  51.8089561 125.5257971 151.2621520  51.1617476 126.2247921 151.1685996
  52.5790576 125.9594115 151.6297768  51.9853695 133.3638736 149.3218339
  52.9145755 133.5149896 149.1487307  51.5644725 133.4522757 148.4666986
  50.7842027 137.3889401 147.0916877  50.6453113 137.0208185 147.9642815
  49.9956623 137.9037040 146.9200835  51.3790179 142.4898497 138.4342414
  51.5541935 142.0186540 139.2488036  50.6922967 143.1164263 138.6623674
  52.3347242 136.7671003 144.4805715  51.9997075 136.7271773 145.3763365
  51.8351188 136.1015719 144.0076125  55.2706434 134.1127038 134.7542774
  54.6535605 133.3873866 134.6575827  54.8022922 134.8736398 134.4109849
  48.9373787 131.8858593 149.4941976  49.6473405 131.2451785 149.4528594
  48.8943095 132.1371488 150.4168156  47.6502721 128.8723811 151.3137615
  47.1140078 128.4214549 151.9659211  47.0619429 129.0069720 150.5708079
  47.0604980 128.3312462 133.8764079  46.1834446 128.2101263 133.5126325
  47.5362733 127.5398540 133.6242967  50.2468906 140.6838752 141.1226599
  49.4636428 141.2260433 141.2164824  50.9461651 141.2012732 141.5220840
  53.5565556 126.4933382 143.7660805  54.0534255 125.7403344 143.4461875
  52.7852537 126.5297699 143.2004014  61.4095313 132.1973747 145.4079096
  61.3985190 133.0798463 145.0373029  60.5412693 131.8445298 145.2133633
  54.6395337 135.2505069 141.3399228  53.7051615 135.3706532 141.1703932
  54.8172005 134.3477536 141.0759238  50.1400525 128.6350765 143.4932489
  49.7698312 128.0821805 144.1813395  50.6359617 128.0308898 142.9407489
  58.0267888 131.0922388 141.8749262  58.4928340 131.9250380 141.8009565
  58.4775388 130.6267370 142.5794521  56.0944119 137.4366210 138.8735414
  56.3703963 137.3222804 139.7829288  55.2248618 137.0383695 138.8347587
  55.9984551 123.4602975 145.9140163  55.0847631 123.6907202 146.0822370
  56.4277652 123.5441419 146.7654196  55.7691009 131.6492867 148.4140058
  55.1162459 131.8968775 147.7592510  56.1471389 130.8357006 148.0802535
  52.7298183 141.6852561 142.5168228  52.9120578 140.8674216 142.9795980
  53.5531169 141.9020253 142.0793118  53.0640349 140.6120746 139.7783276
  53.5928115 140.1013200 139.1653438  53.3268568 140.2963276 140.6428809
  46.4196097 141.6635862 142.5381052  45.7506472 142.1481990 142.0545092
  46.2808966 141.9105083 143.4524431  45.5365858 126.0454756 149.7385595
  45.6007185 126.9069587 149.3262993  45.4732979 125.4328757 149.0057954
  41.7883674 129.9254317 139.3176984  42.0837115 129.0164996 139.2644038
  40.8871709 129.9042057 138.9957987  53.6969752 141.6461581 146.1227393
  53.5720892 140.8451321 145.6138338  54.3548844 142.1407775 145.6341363
  45.3177921 128.0010314 145.3004533  44.5964506 128.6146282 145.1612006
  46.1071176 128.5368079 145.2221179  55.7604661 139.4470602 147.7506943
  54.8134996 139.3275953 147.6785270  56.1087434 138.5593100 147.8333204
  48.1204234 125.3364740 151.5745185  48.6438636 125.5827037 152.3371494
  47.9016567 126.1684775 151.1548322  43.5171515 127.6068415 139.4416310
  43.1884221 126.7265794 139.2591415  43.8710886 127.5516084 140.3292699
  52.7651094 139.2423318 143.9511295  52.6176057 138.3140025 144.1318865
  53.5904588 139.2643408 143.4668370  46.6313338 127.8941385 139.8091787
  46.9709411 128.4227306 139.0870396  47.0785459 128.2321791 140.5850354
  56.3685216 140.0651876 145.0376168  57.2931763 139.8594738 144.9000619
  56.2000519 139.8168278 145.9465509  49.3256779 126.2778436 149.2594855
  48.9853600 125.4786249 149.6615535  48.6195785 126.5780146 148.6871688
  49.9773251 123.3627748 147.7122178  50.7999320 122.8888226 147.5901069
  50.2211315 124.1418232 148.2120865  48.6181486 126.3916006 138.0085080
  49.3389848 126.7697259 137.5048797  47.9946790 127.1104883 138.1120058
  52.7612608 127.0961155 138.9443412  52.9776223 127.9785793 138.6432240
  52.2806676 126.7047369 138.2149054  47.5011830 130.0546869 145.5214157
  47.3556410 130.3687172 146.4138438  47.0237033 130.6731769 144.9685056
  49.3608213 127.0449417 145.5695046  49.3469781 126.1490510 145.2327344
  50.0780641 127.0520080 146.2033333  51.2134343 127.4786757 147.6148174
  50.9552121 128.4003827 147.6132504  50.6819384 127.0817191 148.3048638
  56.1580532 140.5837544 140.3938259  56.3317410 140.0183966 139.6412112
  56.6509423 141.3838439 140.2117749  48.7645109 125.9263797 140.8382617
  48.8861020 124.9980443 141.0373504  48.4747151 125.9402483 139.9260932
  51.6336299 123.6118707 143.9749336  51.6557996 123.6758040 143.0201316
  52.0504358 122.7723216 144.1689843  62.0119923 133.3473967 142.0128559
  62.4551069 132.5981292 141.6147682  61.1346434 133.3384103 141.6302291
  57.1455705 139.9004308 137.4935158  57.8406609 140.5211001 137.7122472
  57.4878855 139.0499660 137.7687535  59.0447128 137.3504014 139.0222488
  59.5698452 137.6891287 138.2971808  58.9569480 136.4151029 138.8385623
  50.7287788 143.4175997 143.3817742  50.2892779 142.9252376 144.0750598
  51.4795905 142.8748965 143.1409817  48.1761661 138.9614006 145.4540043
  47.5541670 138.2984711 145.1542271  48.8466528 138.9875138 144.7713691
  47.7375168 137.5117930 138.9298504  47.8863288 138.1953394 138.2765176
  48.5441611 137.4923020 139.4447959  50.4785477 128.1927167 151.8018908
  49.6088786 128.4860733 151.5301496  50.7144957 128.7767612 152.5226171
  61.5552788 134.8179205 144.4051007  62.3899679 135.2569009 144.5688567
  61.6911917 134.3417858 143.5859252  58.6044294 132.3758940 150.3528494
  59.0798416 132.5686586 149.5447346  57.6809859 132.4318126 150.1071878
  45.4927801 133.5383107 139.9359573  45.2473842 132.6345437 140.1339783
  45.6623715 133.5400258 138.9939051  53.1824510 124.4106784 149.3184328
  53.7006454 125.1467810 148.9930817  52.8279643 124.7170777 150.1531087
  44.7623448 129.2711465 137.4345734  44.0692693 129.3455820 136.7785770
  44.5175200 128.5071808 137.9567251  53.4337105 120.8307066 144.8385225
  53.7138858 120.1630255 145.4645651  54.2187712 121.0236162 144.3259889
  51.2370573 140.0066060 136.4010251  50.6644540 140.6256247 135.9480723
  51.8103367 140.5565422 136.9350173  57.3045963 129.2524700 148.5856800
  58.2563386 129.3522798 148.6069024  57.1349413 128.4602969 149.0954884
  55.3260342 126.3380283 148.7716201  54.7310275 126.6185296 148.0762689
  55.0410039 126.8274184 149.5432942  54.4567833 140.2903210 137.5318833
  55.3898506 140.2248772 137.7351709  54.3691046 141.1259477 137.0733366
  57.0855850 139.6069080 134.4922781  57.0069481 139.2728944 135.3858539
  57.9065516 140.0990848 134.4914253  59.7834041 132.4730820 147.6999100
  59.7510361 131.5346821 147.8858783  60.3934664 132.5514856 146.9664924
  51.6217372 131.3426873 133.7426304  52.5676476 131.2133081 133.8114722
  51.2431617 130.6041535 134.2195732  59.9328529 129.2641863 147.7457383
  59.4167578 128.4800320 147.5587312  60.8168478 128.9360580 147.9103902
  57.5939256 123.0082879 143.7053195  57.3964077 122.6997967 144.5896527
  58.2038962 123.7344518 143.8351125  65.6010591 133.5346827 146.8405136
  66.3313979 133.2732115 147.4012840  64.9917536 132.7975549 146.8807204
  63.6825888 131.6754689 147.4379588  62.9559051 131.5410654 146.8296079
  63.2673175 131.9831518 148.2436306  49.8060289 129.2676849 133.6781189
  48.8991744 128.9709962 133.7543902  50.0836270 128.9706667 132.8115475
  40.7238229 130.5883213 144.1280235  40.4041013 129.7348521 143.8354609
  40.1771657 130.8031791 144.8838203  51.4222354 123.8113739 139.8325430
  50.6123083 123.4660824 140.2080676  52.1106771 123.5021283 140.4213042
  53.3512903 122.8891786 141.4549727  53.9043941 123.3087239 142.1139750
  53.5882989 121.9627534 141.4972683  48.5759073 126.1263784 133.8193168
  49.4378237 126.4518683 134.0788985  48.7609418 125.3395280 133.3066234
  56.7291710 124.9992311 140.9628391  56.1490379 125.6577115 140.5806443
  56.4627643 124.1769655 140.5515809  55.1795276 124.3997369 143.1649711
  55.6795055 124.5113903 142.3564030  55.8230884 124.0958421 143.8050520
  42.5063232 134.1404378 143.9739372  42.4833920 134.2392065 143.0221255
  42.8163868 134.9869529 144.2956538  55.5116588 127.1592401 140.0184739
  54.6242443 127.4442052 139.8004934  55.9270577 126.9986165 139.1712016
  58.8631124 127.1838922 143.7339079  59.6391514 127.6735375 144.0063695
  58.1379258 127.6096976 144.1910948  61.3003683 127.8966541 144.7913019
  61.8948173 127.6562277 144.0806327  61.3730266 127.1773672 145.4186555
  54.6559801 136.9237076 134.1132759  55.3595651 137.1287078 134.7290415
  53.9322450 137.4913838 134.3781843  55.4857612 132.6746937 140.2335029
  55.4292813 133.1315489 139.3942662  56.0385954 131.9137622 140.0557872
  59.2962418 128.4636669 141.0585149  59.0399352 128.0633305 141.8893357
  58.6715286 129.1780463 140.9335288  63.6074755 131.2032742 143.5656440
  63.0474313 131.2725932 144.3388002  63.0018259 131.0273727 142.8455937
  56.5646499 137.3619605 136.1631219  57.3992103 136.9300804 135.9808694
  56.4030842 137.1901619 137.0908114  56.2192391 133.8651718 137.5287559
  56.1641195 133.6995990 136.5876003  55.5938446 134.5727751 137.6849748
  49.5288516 123.3659827 137.1072877  49.5167186 124.3101667 137.2641148
  50.4211938 123.1829973 136.8132338  49.4578080 142.0428718 145.1940634
  48.5073711 142.0430579 145.0805006  49.7610566 141.2961452 144.6776668
  53.3440636 119.9602604 141.3618814  52.5773032 119.4061091 141.5075496
  53.7551341 120.0324473 142.2232965  57.3662482 150.4412266 137.8946411
  58.1393358 149.8941253 137.7559287  57.7187881 151.3056515 138.1060872
  59.7028759 146.6004932 135.5264861  59.9554280 146.0786453 134.7648324
  58.7653319 146.4371077 135.6291545  59.4225048 148.5033038 137.7289236
  59.3061306 147.8277941 138.3970320  59.5327308 148.0165412 136.9121389
  61.4062076 142.9933084 136.4297274  61.5736478 143.8613321 136.7967745
  61.2159245 143.1560366 135.5058563  61.3851297 145.4490742 137.4143940
  61.2650922 145.8947793 138.2529421  60.6903885 145.7976060 136.8557479
  67.0836363 145.9212215 138.2424275  67.9954219 146.1539602 138.0671972
  66.5746010 146.5049259 137.6799353  60.1802793 146.7635594 139.7077506
  60.8826837 147.2156638 140.1751433  59.8483422 146.1219413 140.3357399
  53.9228127 145.0219147 145.0094640  53.1327181 145.2776675 144.5334750
  54.4139375 145.8367485 145.1146680  55.8742873 145.3863726 141.9678116
  55.0774036 145.4982420 142.4861612  55.6468465 145.7250378 141.1019007
  54.8725955 151.0951975 140.3567537  55.3850476 151.8895225 140.5073101
  55.5248668 150.3978265 140.2901138  52.8374872 149.4240629 141.1327107
  53.6750094 149.8337637 140.9160815  53.0153140 148.4840071 141.1027301
  64.7339304 147.0915710 136.8210940  64.2185928 147.8620314 137.0599327
  64.4616613 146.4180846 137.4444001  62.3186415 141.9365410 141.8796178
  61.4628012 141.5472261 141.7001817  62.7313367 142.0157371 141.0195964
  60.0928448 139.5550483 145.2853920  60.9581445 139.3593292 144.9259809
  60.1605957 139.3260835 146.2123277  64.5225607 144.9642802 138.6470721
  64.2175743 145.2788951 139.4980864  65.4756050 145.0424222 138.6898054
  57.6990767 141.7852691 142.6570287  58.2734519 141.5627873 141.9243480
  58.2861749 141.8541386 143.4098888  58.0260354 143.8157152 136.6766172
  57.1897666 144.1531839 136.9975447  57.8865124 143.6806132 135.7393309
  60.0013435 138.6593940 141.3845356  59.3477847 138.3442957 140.7601971
  59.9593909 138.0369681 142.1105179  61.1124639 148.9413235 133.2998648
  60.2051701 148.7102489 133.4989797  61.6095671 148.1450855 133.4872630
  62.2912873 149.0425830 137.8222638  61.3824092 148.7584863 137.9195108
  62.3207957 149.4624909 136.9625945  66.5676687 136.3600658 143.4156243
  66.8735564 135.4998021 143.1282158  67.2929292 136.9518278 143.2155236
  52.8601043 146.7631344 141.8037840  52.6625443 146.1700705 141.0788907
  52.3047707 146.4583554 142.5213779  61.9888961 150.5834574 135.1610717
  61.5508391 149.8670433 134.7016354  62.7299402 150.8110689 134.5995808
  58.7790127 145.2731511 141.6822812  57.9657992 145.5725681 142.0888005
  59.2749121 144.8787199 142.3997295  55.3547269 146.2895378 139.4878793
  54.4244857 146.2279834 139.7048755  55.4504741 145.7671331 138.6915434
  55.2732818 142.8150191 142.0757034  55.5339635 143.7295524 141.9666195
  56.0949990 142.3474634 142.2253647  66.1100188 149.4418955 134.7542774
  65.4929359 148.7165784 134.6575827  65.6416677 150.2028316 134.4109849
  57.8998734 143.6604380 133.8764079  57.0228201 143.5393181 133.5126325
  58.3756487 142.8690458 133.6242967  64.3959310 141.8225300 143.7660805
  64.8928010 141.0695262 143.4461875  63.6246292 141.8589616 143.2004014
  60.9794279 143.9642683 143.4932489  60.6092067 143.4113723 144.1813395
  61.4753372 143.3600816 142.9407489  52.6277428 145.2546235 139.3176984
  52.9230869 144.3456913 139.2644038  51.7265464 145.2333974 138.9957987
  56.1571675 143.3302232 145.3004533  55.4358261 143.9438199 145.1612006
  56.9464931 143.8659996 145.2221179  54.3565270 142.9360333 139.4416310
  54.0277976 142.0557712 139.2591415  54.7104640 142.8808001 140.3292699
  57.4707093 143.2233302 139.8091787  57.8103165 143.7519224 139.0870396
  57.9179213 143.5613709 140.5850354  59.4575240 141.7207924 138.0085080
  60.1783602 142.0989177 137.5048797  58.8340544 142.4396801 138.1120058
  63.6006363 142.4253073 138.9443412  63.8169977 143.3077711 138.6432240
  63.1200430 142.0339286 138.2149054  59.6038863 141.2555715 140.8382617
  59.7254774 140.3272361 141.0373504  59.3140905 141.2694401 139.9260932
  62.4730053 138.9410625 143.9749336  62.4951750 139.0049958 143.0201316
  62.8898112 138.1015134 144.1689843  58.5768922 152.8409847 138.9298504
  58.7257042 153.5245312 138.2765176  59.3835365 152.8214937 139.4447959
  56.3321555 148.8675025 139.9359573  56.0867597 147.9637355 140.1339783
  56.5017470 148.8692175 138.9939051  55.6017203 144.6003382 137.4345734
  54.9086447 144.6747737 136.7785770  55.3568954 143.8363726 137.9567251
  64.2730859 136.1598984 144.8385225  64.5532613 135.4922173 145.4645651
  65.0581466 136.3528079 144.3259889  62.4611126 146.6718790 133.7426304
  63.4070231 146.5424999 133.8114722  62.0825371 145.9333452 134.2195732
  60.6454043 144.5968767 133.6781189  59.7385499 144.3001880 133.7543902
  60.9230024 144.2998585 132.8115475  51.5631984 145.9175130 144.1280235
  51.2434768 145.0640438 143.8354609  51.0165412 146.1323708 144.8838203
  62.2616109 139.1405657 139.8325430  61.4516837 138.7952741 140.2080676
  62.9500526 138.8313200 140.4213042  64.1906657 138.2183703 141.4549727
  64.7437696 138.6379157 142.1139750  64.4276744 137.2919451 141.4972683
  59.4152828 141.4555702 133.8193168  60.2771992 141.7810600 134.0788985
  59.6003172 140.6687198 133.3066234  67.5685464 140.3284228 140.9628391
  66.9884133 140.9869033 140.5806443  67.3021397 139.5061573 140.5515809
  66.0189031 139.7289286 143.1649711  66.5188809 139.8405821 142.3564030
  66.6624639 139.4250339 143.8050520  66.3510342 142.4884319 140.0184739
  65.4636197 142.7733969 139.8004934  66.7664331 142.3278082 139.1712016
  65.4953556 152.2528994 134.1132759  66.1989406 152.4578996 134.7290415
  64.7716205 152.8205755 134.3781843  67.0586145 149.1943636 137.5287559
  67.0034949 149.0287907 136.5876003  66.4332201 149.9019669 137.6849748
  60.3682271 138.6951745 137.1072877  60.3560941 139.6393585 137.2641148
  61.2605693 138.5121890 136.8132338  64.1834390 135.2894522 141.3618814
  63.4166786 134.7353008 141.5075496  64.5945095 135.3616390 142.2232965
   9.2438083  53.7125663 124.2204583   8.5926063  54.2979743 123.8338597
  10.0382446  54.2431858 124.2799621   3.1693710  50.8014800 124.6191718
   3.9424586  50.2543787 124.4804593   3.5219109  51.6659049 124.8306179
   5.5059988  46.9607466 122.2510168   5.7585509  46.4388987 121.4893631
   4.5684547  46.7973611 122.3536851  10.7213348  51.4016095 124.7573568
  10.0859181  51.4750721 125.4694472  10.3910755  51.9909693 124.0792647
   5.2256277  48.8635572 124.4534543   5.1092535  48.1880475 125.1215627
   5.3358537  48.3767946 123.6366696   7.2093305  43.3535619 123.1542580
   7.3767707  44.2215855 123.5213051   7.0190474  43.5162900 122.2303870
   7.1882526  45.8093276 124.1389247   7.0682151  46.2550327 124.9774727
   6.4935114  46.1578594 123.5802785   4.9489418  58.5796918 127.7879378
   4.8713448  59.5304743 127.8667859   4.3451062  58.2342790 128.4454305
  12.8867592  46.2814749 124.9669581  13.7985448  46.5142136 124.7917279
  12.3777239  46.8651794 124.4044660  15.3726406  52.1995006 129.7127526
  14.6877444  52.5793907 129.1624560  15.4570255  52.8090332 130.4459474
  21.8329159  49.0665669 130.8330199  21.0792867  48.4973067 130.6774203
  21.9676700  49.0328333 131.7800833   7.2227787  53.9379071 126.5084918
   7.0873462  54.7830607 126.9369766   7.7637599  54.1398348 125.7450852
  10.5370533  47.4518244 123.5456247  10.0217157  48.2222848 123.7844634
  10.2647842  46.7783380 124.1689308  15.5104807  50.2050598 125.4809420
  14.7334250  49.8661758 125.0364582  16.1896288  50.2103222 124.8064385
  10.3256836  45.3245336 125.3716028  10.0206972  45.6391485 126.2226171
  11.2787278  45.4026756 125.4143361   8.7703268  51.4835559 127.0208982
   8.2424630  50.7488319 126.7082219   8.2690771  52.2610236 126.7748950
   6.9155868  49.3015770 120.0243955   6.0082930  49.0705023 120.2235104
   7.4126900  48.5053389 120.2117936   9.8223947  58.0113277 122.9440641
   9.1485646  58.3144973 123.5525599  10.2089769  58.8142357 122.5946098
   8.0944102  49.4028364 124.5467945   7.1855321  49.1187397 124.6440415
   8.1239186  49.8227443 123.6871252  13.3263369  53.0134954 128.3159112
  12.8725696  52.1725864 128.3724303  12.6957336  53.6496352 128.6533893
  11.7696308  54.8511451 129.2508931  12.0619283  55.4116508 128.5321296
  12.2794929  55.1440012 130.0062090   7.7920190  50.9437108 121.8856024
   7.3539619  50.2272967 121.4261661   8.5330630  51.1713223 121.3241115
   6.7329934  55.6291802 130.3402384   6.6906112  55.8552648 129.4110916
   7.6492632  55.3955176 130.4888185  15.9093304  49.2194305 127.9432342
  15.7711203  49.4095901 127.0153531  15.5529523  49.9813688 128.4000393
   8.0215162  58.1792949 125.1587720   8.1966918  57.7080992 125.9733343
   7.3347950  58.8058715 125.3868981  11.9131417  49.8021490 121.4788081
  11.2960588  49.0768318 121.3821134  11.4447906  50.5630850 121.1355155
   2.5876248  61.3282312 131.9327580   2.8272846  61.9600836 132.6106599
   1.7445444  60.9770352 132.2192940   3.7029963  44.0206914 120.6009385
   2.8259429  43.8995715 120.2371632   4.1787716  43.2292992 120.3488274
   6.8893889  56.3733204 127.8471906   6.1061411  56.9154885 127.9410130
   7.5886634  56.8907184 128.2466147  11.2820320  50.9399521 128.0644535
  10.3476599  51.0600984 127.8949239  11.4596988  50.0371988 127.8004544
  14.6692871  46.7816840 128.5994569  15.1353323  47.6144832 128.5254871
  15.1200372  46.3161822 129.3039827  12.7369102  53.1260662 125.5980721
  13.0128946  53.0117256 126.5074595  11.8673601  52.7278146 125.5592894
   9.3723166  57.3747012 129.2413534   9.5545561  56.5568668 129.7041287
  10.1956152  57.5914705 128.8038424   9.7065332  56.3015198 126.5028583
  10.2353098  55.7907652 125.8898745   9.9693551  55.9857728 127.3674116
   3.0621080  57.3530314 129.2626359   2.3931455  57.8376442 128.7790399
   2.9233950  57.5999535 130.1769737  10.3394736  57.3356033 132.8472699
  10.2145875  56.5345773 132.3383645  10.9973827  57.8302227 132.3586669
   9.4076077  54.9317770 130.6756602   9.2601040  54.0034477 130.8564172
  10.2329571  54.9537860 130.1913677  13.0110199  55.7546328 131.7621474
  13.9356747  55.5489190 131.6245926  12.8425503  55.5062730 132.6710816
  12.8005515  56.2731996 127.1183566  12.9742393  55.7078418 126.3657418
  13.2934407  57.0732891 126.9363056  18.6544907  49.0368419 128.7373866
  19.0976053  48.2875744 128.3392989  17.7771417  49.0278555 128.3547598
  13.7880688  55.5898760 124.2180464  14.4831593  56.2105453 124.4367779
  14.1303838  54.7394111 124.4932842  15.6872111  53.0398466 125.7467795
  16.2123435  53.3785738 125.0217115  15.5994464  52.1045481 125.5630930
   7.3712772  59.1070449 130.1063048   6.9317762  58.6146828 130.7995905
   8.1220889  58.5643417 129.8655123   4.3800151  53.2012381 125.6543810
   4.5288271  53.8847846 125.0010483   5.1866594  53.1817471 126.1693266
  18.1977771  50.5073657 131.1296313  19.0324663  50.9463461 131.2933874
  18.3336900  50.0312310 130.3104559   7.8795556  55.6960512 123.1255558
   7.3069523  56.3150699 122.6726030   8.4528350  56.2459874 123.6595480
  11.0992816  55.9797662 124.2564140  12.0323489  55.9143224 124.4597016
  11.0116029  56.8153929 123.7978673  13.7280833  55.2963532 121.2168088
  13.6494464  54.9623396 122.1103846  14.5490500  55.7885300 121.2159560
   8.2642355  47.0321325 120.4671610   9.2101460  46.9027533 120.5360028
   7.8856600  46.2935987 120.9441038   6.4485272  44.9571301 120.4026496
   5.5416727  44.6604414 120.4789209   6.7261253  44.6601119 119.5360782
   5.2184057  41.8158236 120.5438475   6.0803221  42.1413135 120.8034292
   5.4034401  41.0289732 120.0311540  11.2984785  52.6131528 120.8378066
  12.0020635  52.8181530 121.4535722  10.5747433  53.1808290 121.1027149
  12.1282595  48.3641389 126.9580336  12.0717796  48.8209940 126.1187969
  12.6810937  47.6032074 126.7803179  20.2499739  46.8927194 130.2901747
  19.6899297  46.9620383 131.0633309  19.6443242  46.7168179 129.5701243
  13.2071482  53.0514057 122.8876526  14.0417086  52.6195255 122.7054001
  13.0455825  52.8796071 123.8153420  12.8617374  49.5546170 124.2532865
  12.8066178  49.3890442 123.3121309  12.2363429  50.2622203 124.4095055
   6.1003064  57.7323170 131.9185940   5.1498695  57.7325031 131.8050313
   6.4035550  56.9855904 131.4021975  21.8355757  63.5683708 132.9831703
  22.4734167  63.4490455 132.2795043  21.7176600  64.5164552 133.0419655
  18.6445463  63.5211136 132.9193227  18.3063975  63.4052201 132.0313762
  19.5135232  63.1202301 132.8994234  14.5032279  65.3746613 128.9090118
  13.9397144  65.2836550 128.1406406  14.3884674  64.5546517 129.3892611
  19.1265246  64.6745988 138.8779433  19.1153887  64.2798786 138.0059937
  19.2885886  63.9412061 139.4713204  12.0496711  66.8697804 131.7474339
  12.8418003  66.5288629 131.3320638  12.2893361  66.9792779 132.6676492
  20.0831838  69.0417580 124.2204583  19.4319818  69.6271661 123.8338597
  20.8776201  69.5723775 124.2799621  14.0087465  66.1306717 124.6191718
  14.7818341  65.5835705 124.4804593  14.3612864  66.9950967 124.8306179
  15.8472508  67.4583100 137.8258617  15.5562373  68.3628731 137.7105283
  16.4829492  67.4999627 138.5402687  16.7728714  64.8359948 134.4159977
  17.3692287  64.6115971 133.7016940  16.8303686  64.0944694 135.0185424
  16.3453743  62.2899384 122.2510168  16.5979263  61.7680905 121.4893631
  15.4078302  62.1265529 122.3536851  21.3897026  61.2935162 130.0584911
  22.1760115  60.8754585 129.7075328  21.6535730  62.1981254 130.2266559
  21.5607103  66.7308012 124.7573568  20.9252936  66.8042639 125.4694472
  21.2304509  67.3201611 124.0792647  26.7905453  61.2310395 130.9617889
  27.5230625  60.6609612 131.1955719  26.0344808  60.8431996 131.4024395
  16.0650032  64.1927490 124.4534543  15.9486290  63.5172393 125.1215627
  16.1752291  63.7059863 123.6366696  18.4081572  63.6537637 128.1581232
  18.0439780  63.1268258 128.8694153  19.2648688  63.2636106 127.9847717
  24.3130873  54.9431969 135.4212498  23.9814198  55.8127380 135.1973713
  23.7176486  54.6268253 136.1006528  18.0487059  58.6827536 123.1542580
  18.2161462  59.5507773 123.5213051  17.8584228  58.8454818 122.2303870
  20.8062393  67.1444515 134.8208411  20.5063116  68.0469554 134.7124218
  20.4613452  66.8776698 135.6729564  14.2574874  63.5958312 130.8545115
  13.3325371  63.4634526 131.0622807  14.5059287  64.3752531 131.3515057
  24.2059536  59.6627055 132.5005848  23.2976414  59.5942464 132.2064609
  24.1547132  60.1399000 133.3287673  18.0276280  61.1385194 124.1389247
  17.9075905  61.5842245 124.9774727  17.3328869  61.4870511 123.5802785
  11.6183685  63.2391586 131.6888904  11.7476066  63.4926065 132.6028316
  10.9381136  63.8319294 131.3693559  15.7883172  73.9088836 127.7879378
  15.7107202  74.8596661 127.8667859  15.1844816  73.5634708 128.4454305
  26.0721183  57.8643494 134.2783722  25.4295563  58.1576027 133.6323516
  25.5676111  57.7496414 135.0836919  23.7261346  61.6106667 124.9669581
  24.6379203  61.8434054 124.7917279  23.2170994  62.1943711 124.4044660
  16.5346774  63.8902154 140.0058712  17.2761459  64.4287198 139.7293536
  15.8283760  64.5168443 140.1630264  22.0102114  66.0331295 138.6030874
  22.4185470  65.5913705 137.8585506  21.2879376  65.4583922 138.8565067
  18.3633184  60.9703902 135.9764431  19.2094379  61.3943315 136.1199080
  18.3031822  60.3137526 136.6702994  22.3330929  66.5932485 132.3583163
  21.7039791  66.7578200 131.6559230  21.9456591  67.0074095 133.1294127
  26.2120161  67.5286923 129.7127526  25.5271199  67.9085825 129.1624560
  26.2964010  68.1382250 130.4459474  21.5132629  58.6308270 137.6345604
  21.2693561  59.3850330 137.0979880  21.7892560  59.0093618 138.4692851
  23.4671092  65.1746882 136.3122870  23.6787988  65.8178642 135.6357251
  23.4200841  64.3409199 135.8444800  21.0697321  57.7864703 133.2159442
  20.2081800  58.0845957 133.5076180  21.0959756  58.0035102 132.2840475
  17.8858891  66.3306894 129.6233248  18.3497236  66.6094597 128.8337870
  17.6215689  65.4290338 129.4406338  14.7782972  65.8778375 132.5613011
  15.3484329  66.3065643 131.9230495  15.3691084  65.5960960 133.2597197
  16.8227777  62.4530046 126.4322813  17.5251820  62.9051090 126.8996739
  16.4908405  61.8113865 127.0602706  10.5653111  60.7113599 131.7339946
   9.7752165  60.9671127 131.2580057  11.0564358  61.5261936 131.8391987
  24.5816920  68.0518838 134.4845227  25.4034364  67.6499025 134.2027909
  24.5779323  67.9487072 135.4361343  12.5167856  61.0758178 128.6923423
  11.7199019  61.1876872 129.2106919  12.2893448  61.4144830 127.8264314
  18.3473524  67.6002881 136.6405938  18.4117956  68.0623288 137.4764110
  17.6384448  66.9700246 136.7688248   8.8490814  60.9644089 134.1654937
   9.0998852  61.8491099 134.4312513   9.3850362  60.7848691 133.3930029
  32.6722913  64.3957586 130.8330199  31.9186622  63.8264984 130.6774203
  32.8070454  64.3620251 131.7800833  18.0621541  69.2670989 126.5084918
  17.9267216  70.1122524 126.9369766  18.6031354  69.4690266 125.7450852
  11.5150939  66.7846427 127.0812843  12.0275459  67.5789677 127.2318408
  12.1673652  66.0872717 127.0146445  13.3245823  69.9012183 129.1635596
  13.5012452  70.8230148 128.9756580  14.1202657  69.5870602 129.5929976
  19.6890018  69.8894555 140.6385260  19.2453872  69.1030934 140.3206165
  20.3507231  70.0773706 139.9729151  14.4477139  71.4190357 135.1645939
  14.9984564  71.2907420 134.3922933  13.6088615  71.7185246 134.8140831
  21.7871256  70.1697355 138.6666661  21.7689731  70.9906236 138.1746931
  22.7091176  70.0451430 138.8916803  18.2444310  67.6841484 139.5090170
  18.7772647  66.9229773 139.2789478  17.7158391  67.3915136 140.2514324
  21.4114005  52.7901550 135.0383812  21.0678274  53.6803192 134.9622922
  21.7792967  52.6003208 134.1753397   9.4799855  65.1135081 127.8572414
  10.3175077  65.5232089 127.6406121   9.6578123  64.1734523 127.8272608
  21.3764288  62.7810162 123.5456247  20.8610911  63.5514766 123.7844634
  21.1041596  62.1075298 124.1689308  18.9611399  57.6259862 128.6041485
  18.1052995  57.2366713 128.4247124  19.3738350  57.7051823 127.7441271
  20.4910545  55.1606206 133.0033045  19.9875341  55.1236341 132.1900850
  20.7841152  56.0698948 133.0629701  16.7353431  55.2444935 132.0099227
  17.6006428  55.0487744 131.6505116  16.8030940  55.0155287 132.9368583
  26.3498562  65.5342516 125.4809420  25.5728005  65.1953676 125.0364582
  27.0290043  65.5395139 124.8064385  21.1650591  60.6537254 125.3716028
  20.8600726  60.9683403 126.2226171  22.1181033  60.7318673 125.4143361
  19.6097023  66.8127477 127.0208982  19.0818384  66.0780237 126.7082219
  19.1084525  67.5902153 126.7748950  24.5889869  65.0076497 132.1376028
  23.9313543  65.6975759 132.2256157  25.3930268  65.3972929 132.4810014
  14.3415750  57.4747143 129.3815593  14.9159502  57.2522325 128.6488786
  14.9286733  57.5435838 130.1344195  23.3995327  63.3620870 130.1879970
  23.9127209  63.9950862 130.6901680  24.0496551  62.7622066 129.8223330
  14.6685337  59.5051604 123.4011479  13.8322650  59.8426291 123.7220753
  14.5290107  59.3700584 122.4638616  16.6438418  54.3488392 128.1090663
  15.9902830  54.0337409 127.4847278  16.6018892  53.7264133 128.8350486
  17.7549623  64.6307687 120.0243955  16.8476685  64.3996941 120.2235104
  18.2520655  63.8345306 120.2117936  20.6617702  73.3405194 122.9440641
  19.9879400  73.6436891 123.5525599  21.0483524  74.1434275 122.5946098
  19.8776158  60.8370326 132.4338310  18.9598720  61.0585273 132.2759998
  20.2936302  60.9116636 131.5750018  20.6611206  62.2361741 127.5640991
  21.4083025  62.7483139 127.2548113  20.9302796  61.9145794 128.4245384
  18.9337856  64.7320282 124.5467945  18.0249076  64.4479315 124.6440415
  18.9632940  65.1519361 123.6871252  24.1657124  68.3426872 128.3159112
  23.7119451  67.5017781 128.3724303  23.5351090  68.9788270 128.6533893
  23.1090043  59.2718858 129.5459780  22.3712800  58.7596244 129.8770023
  23.3616817  58.8319239 128.7343057  22.6090063  70.1803368 129.2508931
  22.9013037  70.7408425 128.5321296  23.1188683  70.4731929 130.0062090
  23.2101671  52.0495110 130.1401549  23.5160547  51.1892473 129.8527464
  23.9354275  52.6412730 129.9400543   9.5026027  62.4525796 128.5283147
   9.3050426  61.8595157 127.8034214   8.9472691  62.1478006 129.2459086
  17.4822750  62.3448903 130.6477740  17.5371360  61.3922739 130.5720217
  16.6713952  62.5008342 131.1319039  18.6313944  66.2729026 121.8856024
  18.1933374  65.5564885 121.4261661  19.3724385  66.5005141 121.3241115
  15.4215110  60.9625962 128.4068119  14.6082976  61.2620133 128.8133311
  15.9174104  60.5681651 129.1242601  17.5723688  70.9583719 130.3402384
  17.5299867  71.1844566 129.4110916  18.4886387  70.7247094 130.4888185
  21.0189322  61.4267787 137.2383013  21.3738710  61.6539260 138.0977479
  21.6661453  61.7586164 136.6160268  26.7487059  64.5486223 127.9432342
  26.6104957  64.7387819 127.0153531  26.3923278  65.3105606 128.4000393
  14.9129185  58.5344318 134.0229354  15.5528564  58.3933077 133.3252317
  14.0806716  58.2478831 133.6467956  26.7756438  66.6162750 132.9543614
  27.2092945  66.5238039 133.8026668  27.4888019  66.5920250 132.3163630
  15.6889489  67.8346748 130.1364347  16.4830087  67.3397068 129.9346922
  14.9781181  67.3064611 129.7732052  20.5084333  70.2164844 134.4876714
  20.5621356  70.7855780 135.2554430  19.6399115  70.3866729 134.1230751
  11.9972252  61.9789830 126.2124099  11.0669840  61.9174286 126.4294061
  12.0929724  61.4565783 125.4160740  11.9157801  58.5044643 128.8002341
  12.1764619  59.4189976 128.6911501  12.7374974  58.0369085 128.9498954
  13.3882727  59.9182400 135.9701165  14.0605780  59.7099762 135.3213814
  12.5612513  59.7204486 135.5306398  27.6371988  66.6586450 135.4876499
  27.8307878  67.5632261 135.7335774  27.5372606  66.1993869 136.3215084
  22.6987097  66.8093193 141.0617380  22.5472603  66.5803745 140.1447463
  22.6891776  67.7663795 141.0748725  19.4672433  64.3825106 136.0463646
  20.3964493  64.5336266 135.8732613  19.0463463  64.4709127 135.1912293
  18.2660765  68.4075770 133.8162184  18.1271851  68.0394555 134.6888122
  17.4775361  68.9223410 133.6446141  18.8608917  73.5084867 125.1587720
  19.0360673  73.0372910 125.9733343  18.1741705  74.1350633 125.3868981
  19.8165980  67.7857373 131.2051021  19.4815813  67.7458143 132.1008671
  19.3169926  67.1202089 130.7321432  13.7910224  63.1925003 136.7303603
  13.6530022  62.4605242 137.3315142  14.7015147  63.1033903 136.4487790
  22.7525172  65.1313407 121.4788081  22.1354342  64.4060236 121.3821134
  22.2841660  65.8922768 121.1355155  16.4192525  62.9044962 136.2187282
  17.1292143  62.2638155 136.1773901  16.3761833  63.1557857 137.1413463
  24.4079303  69.8412316 139.1393861  24.3491849  69.1571536 138.4724444
  24.8098822  70.5831306 138.6874487  13.4270002  76.6574230 131.9327580
  13.6666600  77.2892754 132.6106599  12.5839199  76.3062270 132.2192940
  14.5423718  59.3498832 120.6009385  13.6653184  59.2287632 120.2371632
  15.0181471  58.5584910 120.3488274  24.4096711  67.8051900 137.3707841
  23.5223489  67.4677821 137.4934240  24.9795262  67.0734931 137.6076607
   6.0625858  64.1375991 130.6950893   6.7496898  63.8237721 130.1071908
   5.9073986  65.0417356 130.4218144  17.9397864  72.4653352 134.3369084
  17.8668035  73.2708324 134.8488389  17.4975257  72.6645318 133.5117106
  17.7287644  71.7025122 127.8471906  16.9455165  72.2446802 127.9410130
  18.4280389  72.2199102 128.2466147  21.0384294  57.5119751 130.4906111
  21.5352993  56.7589714 130.1707181  20.2671275  57.5484068 129.9249321
  28.8914051  63.2160117 132.1324403  28.8803927  64.0984832 131.7618336
  28.0231431  62.8631668 131.9378940  20.3996548  72.3640186 136.4927243
  21.1124520  72.9987651 136.4203144  19.9086576  72.4604052 135.6767245
  22.1214074  66.2691439 128.0644535  21.1870353  66.3892901 127.8949239
  22.2990743  65.3663905 127.8004544  17.6219262  59.6537134 130.2177796
  17.2517050  59.1008175 130.9058701  18.1178355  59.0495268 129.6652796
  25.5086626  62.1108758 128.5994569  25.9747078  62.9436750 128.5254871
  25.9594126  61.6453740 129.3039827  15.4508461  70.1134630 137.3132814
  16.1517921  70.7471112 137.4662208  14.9803576  70.4549361 136.5528453
  23.5762857  68.4552579 125.5980721  23.8522701  68.3409174 126.5074595
  22.7067356  68.0570064 125.5592894  23.4803289  54.4789345 132.6385470
  22.5666368  54.7093572 132.8067677  23.9096390  54.5627789 133.4899502
  23.2509747  62.6679237 135.1385364  22.5981197  62.9155144 134.4837817
  23.6290127  61.8543375 134.8047841  20.2116921  72.7038930 129.2413534
  20.3939315  71.8860586 129.7041287  21.0349907  72.9206622 128.8038424
  20.5459086  71.6307115 126.5028583  21.0746853  71.1199570 125.8898745
  20.8087306  71.3149645 127.3674116  11.0476179  69.6470985 134.2463916
  11.6329616  68.9014672 134.3791821  10.8501018  69.9574941 135.1300580
  13.9014834  72.6822232 129.2626359  13.2325210  73.1668360 128.7790399
  13.7627704  72.9291452 130.1769737   5.6393834  62.2176585 132.9668360
   5.6777933  61.6840175 133.7605478   5.1334127  61.6911790 132.3479337
  18.0420103  74.7165975 135.8609017  18.5938411  74.8797597 136.6258102
  18.3826296  75.3070413 135.1889042  22.8930977  69.5427233 141.7157672
  23.4370881  70.1557191 141.2212626  22.3117822  70.1006811 142.2324685
   9.2702411  60.9440687 126.0422291   9.5655852  60.0351365 125.9889345
   8.3690447  60.9228426 125.7203293  21.1788490  72.6647951 132.8472699
  21.0539630  71.8637691 132.3383645  21.8367581  73.1594144 132.3586669
  12.7996658  59.0196683 132.0249840  12.0783244  59.6332651 131.8857313
  13.5889914  59.5554448 131.9466486  23.2423399  70.4656971 134.4752249
  22.2953734  70.3462322 134.4030576  23.5906172  69.5779469 134.5578511
  10.9990253  58.6254785 126.1661616  10.6702959  57.7452163 125.9836722
  11.3529624  58.5702453 127.0538005  20.2469832  70.2609687 130.6756602
  20.0994794  69.3326395 130.8564172  21.0723325  70.2829778 130.1913677
  14.1132076  58.9127754 126.5337094  14.4528149  59.4413676 125.8115702
  14.5604197  59.2508160 127.3095660  23.8503954  71.0838246 131.7621474
  24.7750501  70.8781107 131.6245926  23.6819257  70.8354647 132.6710816
  17.4591989  54.3814118 134.4367485  18.2818058  53.9074596 134.3146375
  17.7030052  55.1604601 134.9366171  16.1000223  57.4102376 124.7330387
  16.8208586  57.7883629 124.2294103  15.4765527  58.1291253 124.8365365
  20.2431346  58.1147525 125.6688719  20.4594961  58.9972163 125.3677547
  19.7625413  57.7233738 124.9394361  14.9830568  61.0733238 132.2459464
  14.8375148  61.3873541 133.1383745  14.5055771  61.6918138 131.6930362
  16.8426950  58.0635786 132.2940353  16.8288519  57.1676879 131.9572651
  17.5599379  58.0706450 132.9278639  18.6953081  58.4973126 134.3393481
  18.4370859  59.4190197 134.3377811  18.1638122  58.1003561 135.0293945
  23.6399270  71.6023913 127.1183566  23.8136147  71.0370336 126.3657418
  24.1328161  72.4024808 126.9363056   9.4576230  63.6138583 135.1847125
   8.9129698  64.3898391 135.3167399  10.3355580  63.9609387 135.0266246
  16.2463846  56.9450166 127.5627923  16.3679758  56.0166813 127.7618811
  15.9565889  56.9588852 126.6506239  19.1155037  54.6305077 130.6994643
  19.1376734  54.6944410 129.7446623  19.5323096  53.7909586 130.8935149
  29.4938661  64.3660336 128.7373866  29.9369807  63.6167662 128.3392989
  28.6165171  64.3570473 128.3547598  24.6274442  70.9190678 124.2180464
  25.3225347  71.5397371 124.4367779  24.9697593  70.0686029 124.4932842
  26.5265866  68.3690383 125.7467795  27.0517190  68.7077656 125.0217115
  26.4388218  67.4337399 125.5630930  18.1885914  72.2824457 137.8757672
  18.4973041  72.0373604 138.7480371  18.9861396  72.4871096 137.3876542
  18.2106526  74.4362367 130.1063048  17.7711517  73.9438745 130.7995905
  18.9614643  73.8935334 129.8655123  10.6898865  70.6273908 130.1087676
  11.5156885  70.3277679 129.7286320  10.3392917  69.8581530 130.5577465
  15.6580398  69.9800376 132.1785350  15.0360408  69.3171081 131.8787578
  16.3285265  70.0061508 131.4958998   8.8907470  68.5460234 131.0676610
   8.0539379  68.1182408 130.8860611   8.8631116  68.7392677 132.0047401
  26.2159772  69.0023287 141.0518993  25.4255315  68.9847426 140.5123492
  25.9793126  69.5411581 141.8068030  26.3357647  65.8515753 138.3651721
  26.3855652  65.6865761 139.3067244  26.2271570  64.9843012 137.9749602
  15.2193905  68.5304299 125.6543810  15.3682026  69.2139764 125.0010483
  16.0260349  68.5109389 126.1693266  23.6261409  61.8346681 139.6811028
  24.5271272  61.6953146 139.3895026  23.7009384  62.0001136 140.6209206
  27.8375843  68.2712695 138.6093743  27.5460652  68.6342675 139.4457204
  27.2247975  67.5579703 138.4307075  29.0371526  65.8365575 131.1296313
  29.8718417  66.2755379 131.2933874  29.1730655  65.3604228 130.3104559
  26.0863032  63.3945310 137.0773801  26.5617153  63.5872956 136.2692652
  25.1628597  63.4504495 136.8317185  12.9746538  64.5569477 126.6604879
  12.7292580  63.6531807 126.8585089  13.1442453  64.5586627 125.7184357
  20.6643248  55.4293153 136.0429635  21.1825192  56.1654180 135.7176123
  20.3098381  55.7357146 136.8776394  12.2442186  60.2897834 124.1591041
  11.5511431  60.3642189 123.5031077  11.9993938  59.5258178 124.6812558
  20.9155842  51.8493436 131.5630531  21.1957596  51.1816625 132.1890958
  21.7006449  52.0422531 131.0505195  18.7189311  71.0252430 123.1255558
  18.1463278  71.6442617 122.6726030  19.2922105  71.5751791 123.6595480
  24.7864701  60.2711070 135.3102107  25.7382124  60.3709167 135.3314331
  24.6168151  59.4789338 135.8200191  22.8079080  57.3566653 135.4961508
  22.2129012  57.6371666 134.8007996  22.5228777  57.8460554 136.2678249
  21.9386571  71.3089580 124.2564140  22.8717244  71.2435141 124.4597016
  21.8509783  72.1445847 123.7978673  24.5674587  70.6255450 121.2168088
  24.4888219  70.2915314 122.1103846  25.3884254  71.1177218 121.2159560
  27.2652778  63.4917189 134.4244406  27.2329099  62.5533190 134.6104090
  27.8753402  63.5701226 133.6910231  19.1036109  62.3613242 120.4671610
  20.0495214  62.2319450 120.5360028  18.7250354  61.6227904 120.9441038
  27.4147267  60.2828233 134.4702689  26.8986316  59.4986689 134.2832618
  28.2987216  59.9546949 134.6349209  25.0757994  54.0269248 130.4298502
  24.8782815  53.7184337 131.3141834  25.6857699  54.7530887 130.5596432
  33.0829328  64.5533196 133.5650443  33.8132717  64.2918484 134.1258146
  32.4736274  63.8161918 133.6052511  31.1644625  62.6941059 134.1624894
  30.4377789  62.5597024 133.5541386  30.7491912  63.0017887 134.9681612
  18.9874802  66.4130988 141.9272267  19.9077811  66.5909587 142.1212314
  18.9524385  65.4687034 141.7751967  17.2879027  60.2863219 120.4026496
  16.3810482  59.9896331 120.4789209  17.5655008  59.9893037 119.5360782
   8.2056967  61.6069582 130.8525542   7.8859751  60.7534890 130.5599916
   7.6590395  61.8218160 131.6083509  11.9836874  64.3232023 134.5695048
  12.2022884  65.2549131 134.5883082  12.3962648  63.9639998 135.3549852
  18.9041092  54.8300108 126.5570737  18.0941821  54.4847193 126.9325983
  19.5925509  54.5207652 127.1458348  20.8331641  53.9078155 128.1795033
  21.3862679  54.3273609 128.8385057  21.0701727  52.9813903 128.2217989
  16.0577811  57.1450154 120.5438475  16.9196975  57.4705052 120.8034292
  16.2428155  56.3581650 120.0311540   8.0745227  65.2272494 132.8218663
   7.3808698  64.8126446 132.3088618   8.8218218  65.2693030 132.2252082
  24.2110448  56.0178680 127.6873698  23.6309117  56.6763484 127.3051750
  23.9446380  55.1956025 127.2761115  22.6614014  55.4183738 129.8895018
  23.1613792  55.5300273 129.0809337  23.3049622  55.1144791 130.5295826
   9.9881969  65.1590747 130.6984678   9.9652658  65.2578435 129.7466561
  10.2982606  66.0055898 131.0201844  12.6469347  67.2166902 134.8131293
  13.6012601  67.1850845 134.7461224  12.4481871  66.7557526 135.6281519
  13.2368729  65.7868018 137.3802090  14.0561618  66.2812097 137.4036928
  13.5105537  64.8699987 137.3519658  22.9935326  58.1778771 126.7430046
  22.1061181  58.4628421 126.5250241  23.4089315  58.0172534 125.8957323
  26.3449862  58.2025292 130.4584385  27.1210252  58.6921744 130.7309002
  25.6197996  58.6283346 130.9156255  28.7822420  58.9152911 131.5158326
  29.3766911  58.6748647 130.8051634  28.8549004  58.1960042 132.1431862
  11.0019576  72.7586522 131.8301491  10.8674044  71.9986923 131.2639489
  10.5851638  73.4827422 131.3630280  22.1378539  67.9423445 120.8378066
  22.8414389  68.1473448 121.4535722  21.4141188  68.5100207 121.1027149
  22.9676349  63.6933307 126.9580336  22.9111551  64.1501858 126.1187969
  23.5204692  62.9323991 126.7803179  26.7781155  59.4823039 127.7830456
  26.5218090  59.0819674 128.6138663  26.1534023  60.1966832 127.6580595
  31.0893493  62.2219112 130.2901747  30.5293051  62.2912301 131.0633309
  30.4836997  62.0460096 129.5701243  14.1588702  73.6555839 132.0419933
  14.0421086  74.6001271 131.9398624  13.3381148  73.3529400 132.4305733
  24.0465237  68.3805975 122.8876526  24.8810840  67.9487173 122.7054001
  23.8849579  68.2087988 123.8153420  23.7011129  64.8838088 124.2532865
  23.6459932  64.7182359 123.3121309  23.0757184  65.5914121 124.4095055
  21.0157036  67.1887000 143.5786428  21.8848195  67.3627652 143.2173063
  20.5363787  68.0081417 143.4562157  17.0107254  54.3846197 123.8318184
  16.9985924  55.3288037 123.9886455  17.9030676  54.2016342 123.5377645
  15.1843216  74.3084101 135.2575862  16.0870463  74.3407711 135.5742357
  14.9580586  73.3784552 135.2722198  16.9396818  73.0615087 131.9185940
  15.9892449  73.0616949 131.8050313  17.2429304  72.3147822 131.4021975
  20.8259374  50.9788974 128.0864120  20.0591769  50.4247460 128.2320803
  21.2370079  51.0510842 128.9478272  32.6749512  78.8975626 132.9831703
  33.3127922  78.7782373 132.2795043  32.5570354  79.8456470 133.0419655
  29.4839218  78.8503054 132.9193227  29.1457729  78.7344119 132.0313762
  30.3528986  78.4494219 132.8994234  25.3426034  80.7038530 128.9090118
  24.7790899  80.6128467 128.1406406  25.2278429  79.8838435 129.3892611
  29.9659001  80.0037906 138.8779433  29.9547642  79.6090704 138.0059937
  30.1279640  79.2703978 139.4713204  22.8890466  82.1989722 131.7474339
  23.6811757  81.8580547 131.3320638  23.1287116  82.3084697 132.6676492
  30.9225592  84.3709498 124.2204583  30.2713572  84.9563578 123.8338597
  31.7169955  84.9015693 124.2799621  24.8481219  81.4598635 124.6191718
  25.6212095  80.9127622 124.4804593  25.2006618  82.3242884 124.8306179
  26.6866262  82.7875017 137.8258617  26.3956128  83.6920648 137.7105283
  27.3223246  82.8291545 138.5402687  27.6122469  80.1651866 134.4159977
  28.2086041  79.9407888 133.7016940  27.6697440  79.4236611 135.0185424
  27.1847497  77.6191301 122.2510168  27.4373018  77.0972823 121.4893631
  26.2472056  77.4557447 122.3536851  32.2290780  76.6227080 130.0584911
  33.0153869  76.2046503 129.7075328  32.4929484  77.5273172 130.2266559
  32.4000857  82.0599930 124.7573568  31.7646690  82.1334556 125.4694472
  32.0698264  82.6493529 124.0792647  37.6299207  76.5602313 130.9617889
  38.3624379  75.9901530 131.1955719  36.8738563  76.1723913 131.4024395
  26.9043786  79.5219407 124.4534543  26.7880044  78.8464311 125.1215627
  27.0146046  79.0351781 123.6366696  29.2475327  78.9829554 128.1581232
  28.8833534  78.4560175 128.8694153  30.1042443  78.5928023 127.9847717
  35.1524628  70.2723887 135.4212498  34.8207952  71.1419298 135.1973713
  34.5570241  69.9560171 136.1006528  28.8880814  74.0119454 123.1542580
  29.0555216  74.8799690 123.5213051  28.6977983  74.1746736 122.2303870
  31.6456147  82.4736433 134.8208411  31.3456870  83.3761472 134.7124218
  31.3007207  82.2068616 135.6729564  25.0968629  78.9250230 130.8545115
  24.1719125  78.7926444 131.0622807  25.3453042  79.7044449 131.3515057
  35.0453291  74.9918973 132.5005848  34.1370168  74.9234382 132.2064609
  34.9940887  75.4690918 133.3287673  28.8670035  76.4677111 124.1389247
  28.7469660  76.9134162 124.9774727  28.1722623  76.8162429 123.5802785
  22.4577440  78.5683503 131.6888904  22.5869821  78.8217982 132.6028316
  21.7774891  79.1611211 131.3693559  26.6276927  89.2380753 127.7879378
  26.5500957  90.1888578 127.8667859  26.0238570  88.8926626 128.4454305
  29.1194157  76.4108619 140.4440745  28.3427491  76.9702539 140.4343610
  29.7584720  76.8965402 140.9655615  36.9114937  73.1935411 134.2783722
  36.2689318  73.4867945 133.6323516  36.4069866  73.0788332 135.0836919
  34.5655101  76.9398585 124.9669581  35.4772957  77.1725971 124.7917279
  34.0564748  77.5235629 124.4044660  27.3740529  79.2194072 140.0058712
  28.1155213  79.7579116 139.7293536  26.6677514  79.8460361 140.1630264
  32.8495869  81.3623212 138.6030874  33.2579225  80.9205623 137.8585506
  32.1273130  80.7875840 138.8565067  29.2026939  76.2995819 135.9764431
  30.0488134  76.7235233 136.1199080  29.1425576  75.6429444 136.6702994
  33.1724683  81.9224403 132.3583163  32.5433546  82.0870117 131.6559230
  32.7850345  82.3366013 133.1294127  37.0513915  82.8578841 129.7127526
  36.3664953  83.2377742 129.1624560  37.1357764  83.4674168 130.4459474
  32.3526384  73.9600188 137.6345604  32.1087316  74.7142248 137.0979880
  32.6286314  74.3385535 138.4692851  34.3064847  80.5038800 136.3122870
  34.5181742  81.1470560 135.6357251  34.2594595  79.6701117 135.8444800
  31.9091076  73.1156621 133.2159442  31.0475555  73.4137874 133.5076180
  31.9353510  73.3327020 132.2840475  28.7252645  81.6598811 129.6233248
  29.1890991  81.9386514 128.8337870  28.4609443  80.7582256 129.4406338
  25.6176726  81.2070293 132.5613011  26.1878083  81.6357561 131.9230495
  26.2084838  80.9252877 133.2597197  27.6621531  77.7821964 126.4322813
  28.3645575  78.2343007 126.8996739  27.3302160  77.1405782 127.0602706
  26.1101893  76.3733720 140.8074022  25.4800553  77.0550001 141.0409419
  26.0037981  76.2616802 139.8627160  21.4046865  76.0405516 131.7339946
  20.6145919  76.2963045 131.2580057  21.8958113  76.8553854 131.8391987
  35.4210675  83.3810755 134.4845227  36.2428118  82.9790943 134.2027909
  35.4173078  83.2778990 135.4361343  23.3561611  76.4050095 128.6923423
  22.5592774  76.5168790 129.2106919  23.1287203  76.7436748 127.8264314
  29.1867278  82.9294799 136.6405938  29.2511711  83.3915206 137.4764110
  28.4778202  82.2992164 136.7688248  19.6884568  76.2936007 134.1654937
  19.9392607  77.1783017 134.4312513  20.2244117  76.1140608 133.3930029
  43.5116668  79.7249504 130.8330199  42.7580376  79.1556902 130.6774203
  43.6464209  79.6912168 131.7800833  28.9015296  84.5962906 126.5084918
  28.7660971  85.4414442 126.9369766  29.4425108  84.7982184 125.7450852
  25.3882635  70.6754486 143.1699273  24.9949581  70.1220685 143.8446918
  26.2048776  70.9865065 143.5605791  22.3544693  82.1138344 127.0812843
  22.8669214  82.9081594 127.2318408  23.0067406  81.4164635 127.0146445
  24.1639578  85.2304101 129.1635596  24.3406206  86.1522065 128.9756580
  24.9596411  84.9162520 129.5929976  28.3050596  72.0912365 140.7619530
  29.0460310  72.6919518 140.6823992  28.5368519  71.3490003 140.2037572
  23.4491934  77.2768732 139.0397760  23.3345450  76.3753990 139.3404858
  22.5936452  77.5232429 138.6882576  30.5283772  85.2186473 140.6385260
  30.0847626  84.4322851 140.3206165  31.1900986  85.4065623 139.9729151
  25.2870893  86.7482274 135.1645939  25.8378318  86.6199338 134.3922933
  24.4482369  87.0477163 134.8140831  32.6265010  85.4989273 138.6666661
  32.6083486  86.3198154 138.1746931  33.5484930  85.3743348 138.8916803
  29.0838064  83.0133402 139.5090170  29.6166401  82.2521690 139.2789478
  28.5552146  82.7207054 140.2514324  32.2507759  68.1193468 135.0383812
  31.9072029  69.0095110 134.9622922  32.6186722  67.9295126 134.1753397
  20.3193610  80.4426999 127.8572414  21.1568832  80.8524007 127.6406121
  20.4971878  79.5026441 127.8272608  32.2158042  78.1102079 123.5456247
  31.7004666  78.8806684 123.7844634  31.9435351  77.4367215 124.1689308
  29.8005153  72.9551780 128.6041485  28.9446749  72.5658630 128.4247124
  30.2132105  73.0343741 127.7441271  31.3304300  70.4898123 133.0033045
  30.8269095  70.4528258 132.1900850  31.6234907  71.3990866 133.0629701
  27.5747186  70.5736853 132.0099227  28.4400182  70.3779662 131.6505116
  27.6424695  70.3447205 132.9368583  37.1892316  80.8634434 125.4809420
  36.4121759  80.5245593 125.0364582  37.8683797  80.8687057 124.8064385
  32.0044345  75.9829171 125.3716028  31.6994481  76.2975320 126.2226171
  32.9574787  76.0610591 125.4143361  30.4490777  82.1419395 127.0208982
  29.9212139  81.4072154 126.7082219  29.9478280  82.9194071 126.7748950
  35.4283623  80.3368415 132.1376028  34.7707298  81.0267676 132.2256157
  36.2324022  80.7264847 132.4810014  25.1809505  72.8039061 129.3815593
  25.7553257  72.5814242 128.6488786  25.7680487  72.8727755 130.1344195
  34.2389082  78.6912788 130.1879970  34.7520964  79.3242780 130.6901680
  34.8890306  78.0913983 129.8223330  25.5079092  74.8343522 123.4011479
  24.6716404  75.1718208 123.7220753  25.3683861  74.6992502 122.4638616
  27.4832172  69.6780310 128.1090663  26.8296585  69.3629327 127.4847278
  27.4412647  69.0556050 128.8350486  28.5943377  79.9599605 120.0243955
  27.6870439  79.7288858 120.2235104  29.0914409  79.1637224 120.2117936
  31.5011456  88.6697112 122.9440641  30.8273155  88.9728809 123.5525599
  31.8877278  89.4726192 122.5946098  30.7169913  76.1662243 132.4338310
  29.7992474  76.3877190 132.2759998  31.1330056  76.2408554 131.5750018
  31.5004961  77.5653659 127.5640991  32.2476780  78.0775056 127.2548113
  31.7696550  77.2437712 128.4245384  29.7731611  80.0612200 124.5467945
  28.8642830  79.7771233 124.6440415  29.8026695  80.4811278 123.6871252
  35.0050878  83.6718789 128.3159112  34.5513205  82.8309699 128.3724303
  34.3744845  84.3080188 128.6533893  33.9483798  74.6010775 129.5459780
  33.2106555  74.0888161 129.8770023  34.2010571  74.1611157 128.7343057
  33.4483817  85.5095286 129.2508931  33.7406792  86.0700343 128.5321296
  33.9582438  85.8023847 130.0062090  34.0495425  67.3787027 130.1401549
  34.3554302  66.5184391 129.8527464  34.7748030  67.9704647 129.9400543
  20.3419781  77.7817714 128.5283147  20.1444181  77.1887075 127.8034214
  19.7866445  77.4769924 129.2459086  28.3216505  77.6740820 130.6477740
  28.3765115  76.7214657 130.5720217  27.5107707  77.8300259 131.1319039
  29.4707699  81.6020943 121.8856024  29.0327128  80.8856802 121.4261661
  30.2118139  81.8297058 121.3241115  26.2608865  76.2917880 128.4068119
  25.4476730  76.5912051 128.8133311  26.7567859  75.8973569 129.1242601
  28.4117443  86.2875637 130.3402384  28.3693621  86.5136483 129.4110916
  29.3280141  86.0539012 130.4888185  31.8583076  76.7559705 137.2383013
  32.2132464  76.9831178 138.0977479  32.5055208  77.0878081 136.6160268
  37.5880813  79.8778140 127.9432342  37.4498712  80.0679736 127.0153531
  37.2317032  80.6397523 128.4000393  25.7522939  73.8636236 134.0229354
  26.3922319  73.7224995 133.3252317  24.9200470  73.5770749 133.6467956
  37.6150193  81.9454667 132.9543614  38.0486700  81.8529957 133.8026668
  38.3281774  81.9212168 132.3163630  26.5283243  83.1638666 130.1364347
  27.3223842  82.6688986 129.9346922  25.8174936  82.6356529 129.7732052
  31.3478088  85.5456762 134.4876714  31.4015110  86.1147698 135.2554430
  30.4792869  85.7158647 134.1230751  22.8366007  77.3081748 126.2124099
  21.9063595  77.2466203 126.4294061  22.9323479  76.7857701 125.4160740
  22.7551556  73.8336561 128.8002341  23.0158373  74.7481894 128.6911501
  23.5768728  73.3661003 128.9498954  24.2276481  75.2474318 135.9701165
  24.8999535  75.0391680 135.3213814  23.4006268  75.0496404 135.5306398
  38.4765742  81.9878368 135.4876499  38.6701633  82.8924179 135.7335774
  38.3766361  81.5285787 136.3215084  30.1302053  71.8736259 137.9866826
  29.4829968  72.5726208 137.8931303  30.9003069  72.3072403 138.3543075
  33.5380851  82.1385111 141.0617380  33.3866358  81.9095663 140.1447463
  33.5285531  83.0955712 141.0748725  30.3066188  79.7117024 136.0463646
  31.2358248  79.8628183 135.8732613  29.8857218  79.8001044 135.1912293
  29.1054519  83.7367688 133.8162184  28.9665605  83.3686472 134.6888122
  28.3169116  84.2515327 133.6446141  29.7002671  88.8376784 125.1587720
  29.8754427  88.3664828 125.9733343  29.0135459  89.4642551 125.3868981
  30.6559735  83.1149291 131.2051021  30.3209567  83.0750061 132.1008671
  30.1563680  82.4494007 130.7321432  24.6303978  78.5216921 136.7303603
  24.4923776  77.7897160 137.3315142  25.5408902  78.4325821 136.4487790
  33.5918926  80.4605325 121.4788081  32.9748097  79.7352153 121.3821134
  33.1235415  81.2214685 121.1355155  27.2586279  78.2336880 136.2187282
  27.9685898  77.5930072 136.1773901  27.2155587  78.4849775 137.1413463
  35.2473058  85.1704233 139.1393861  35.1885604  84.4863454 138.4724444
  35.6492576  85.9123223 138.6874487  25.9715213  75.2202098 138.0382922
  25.4352570  74.7692836 138.6904518  25.3831922  75.3548007 137.2953386
  24.2663757  91.9866147 131.9327580  24.5060355  92.6184671 132.6106599
  23.4232953  91.6354187 132.2192940  25.3817472  74.6790749 120.6009385
  24.5046938  74.5579550 120.2371632  25.8575225  73.8876828 120.3488274
  35.2490465  83.1343817 137.3707841  34.3617244  82.7969739 137.4934240
  35.8189016  82.4026849 137.6076607  16.9019612  79.4667909 130.6950893
  17.5890652  79.1529639 130.1071908  16.7467741  80.3709274 130.4218144
  21.7054334  74.3558106 135.1235916  21.6212523  73.7483775 134.3886326
  20.8837041  74.8467124 135.1245413  28.7791618  87.7945270 134.3369084
  28.7061790  88.6000241 134.8488389  28.3369012  87.9937236 133.5117106
  28.5681398  87.0317040 127.8471906  27.7848920  87.5738720 127.9410130
  29.2674143  87.5491019 128.2466147  31.8778048  72.8411669 130.4906111
  32.3746748  72.0881631 130.1707181  31.1065030  72.8775986 129.9249321
  39.7307806  78.5452035 132.1324403  39.7197682  79.4276750 131.7618336
  38.8625185  78.1923586 131.9378940  31.2390302  87.6932104 136.4927243
  31.9518274  88.3279569 136.4203144  30.7480331  87.7895970 135.6767245
  32.9607829  81.5983356 128.0644535  32.0264108  81.7184819 127.8949239
  33.1384497  80.6955823 127.8004544  28.4613017  74.9829052 130.2177796
  28.0910804  74.4300093 130.9058701  28.9572109  74.3787186 129.6652796
  36.3480380  77.4400676 128.5994569  36.8140832  78.2728667 128.5254871
  36.7987881  76.9745657 129.3039827  26.2902216  85.4426547 137.3132814
  26.9911675  86.0763030 137.4662208  25.8197331  85.7841279 136.5528453
  34.4156611  83.7844497 125.5980721  34.6916455  83.6701092 126.5074595
  33.5461110  83.3861982 125.5592894  34.3197043  69.8081263 132.6385470
  33.4060123  70.0385490 132.8067677  34.7490144  69.8919707 133.4899502
  34.0903501  77.9971155 135.1385364  33.4374952  78.2447062 134.4837817
  34.4683881  77.1835293 134.8047841  31.0510675  88.0330848 129.2413534
  31.2333070  87.2152504 129.7041287  31.8743661  88.2498540 128.8038424
  31.3852841  86.9599033 126.5028583  31.9140607  86.4491488 125.8898745
  31.6481060  86.6441563 127.3674116  30.1391075  78.7390966 141.6251401
  29.4631712  78.6385095 142.2953776  30.9618708  78.5830179 142.0887398
  21.8869934  84.9762902 134.2463916  22.4723370  84.2306590 134.3791821
  21.6894772  85.2866859 135.1300580  24.7408589  88.0114150 129.2626359
  24.0718964  88.4960277 128.7790399  24.6021459  88.2583370 130.1769737
  16.4787588  77.5468502 132.9668360  16.5171688  77.0132093 133.7605478
  15.9727881  77.0203708 132.3479337  28.8813857  90.0457893 135.8609017
  29.4332165  90.2089515 136.6258102  29.2220051  90.6362331 135.1889042
  23.8578351  72.3933043 136.4630902  23.9219677  73.2547874 136.0508300
  23.7945471  71.7807045 135.7303260  23.3330623  74.4656175 140.1103936
  23.9602662  74.0833253 140.7241461  22.4758542  74.2470377 140.4759629
  33.7324732  84.8719151 141.7157672  34.2764636  85.4849109 141.2212626
  33.1511577  85.4298729 142.2324685  20.1096166  76.2732605 126.0422291
  20.4049607  75.3643283 125.9889345  19.2084202  76.2520344 125.7203293
  32.0182245  87.9939869 132.8472699  31.8933384  87.1929609 132.3383645
  32.6761336  88.4886062 132.3586669  23.6390413  74.3488601 132.0249840
  22.9176999  74.9624569 131.8857313  24.4283669  74.8846366 131.9466486
  34.0817153  85.7948889 134.4752249  33.1347489  85.6754240 134.4030576
  34.4299926  84.9071387 134.5578511  26.4416726  71.6843028 138.2990491
  26.9651128  71.9305324 139.0616801  26.2229060  72.5163062 137.8793629
  21.8384007  73.9546702 126.1661616  21.5096714  73.0744081 125.9836722
  22.1923378  73.8994371 127.0538005  31.0863586  85.5901605 130.6756602
  30.9388549  84.6618312 130.8564172  31.9117080  85.6121696 130.1913677
  24.9525831  74.2419672 126.5337094  25.2921903  74.7705593 125.8115702
  25.3997951  74.5800078 127.3095660  34.6897708  86.4130164 131.7621474
  35.6144256  86.2073025 131.6245926  34.5213012  86.1646565 132.6710816
  27.6469271  72.6256723 135.9840162  27.3066092  71.8264536 136.3860842
  26.9408278  72.9258434 135.4116995  28.2985743  69.7106035 134.4367485
  29.1211813  69.2366513 134.3146375  28.5423807  70.4896519 134.9366171
  26.9393978  72.7394294 124.7330387  27.6602340  73.1175546 124.2294103
  26.3159282  73.4583170 124.8365365  31.0825101  73.4439443 125.6688719
  31.2988715  74.3264080 125.3677547  30.6019168  73.0525656 124.9394361
  25.8224322  76.4025156 132.2459464  25.6768903  76.7165459 133.1383745
  25.3449526  77.0210056 131.6930362  27.6820705  73.3927704 132.2940353
  27.6682274  72.4968797 131.9572651  28.3993133  73.3998368 132.9278639
  29.5346836  73.8265044 134.3393481  29.2764613  74.7482115 134.3377811
  29.0031876  73.4295479 135.0293945  34.4793024  86.9315831 127.1183566
  34.6529902  86.3662254 126.3657418  34.9721916  87.7316726 126.9363056
  20.2969984  78.9430500 135.1847125  19.7523452  79.7190308 135.3167399
  21.1749334  79.2901305 135.0266246  27.0857601  72.2742084 127.5627923
  27.2073512  71.3458730 127.7618811  26.7959643  72.2880770 126.6506239
  29.9548791  69.9596995 130.6994643  29.9770488  70.0236328 129.7446623
  30.3716850  69.1201503 130.8935149  40.3332416  79.6952254 128.7373866
  40.7763562  78.9459579 128.3392989  39.4558926  79.6862390 128.3547598
  35.4668197  86.2482596 124.2180464  36.1619102  86.8689288 124.4367779
  35.8091347  85.3977947 124.4932842  21.0836006  78.0700396 138.0777282
  20.3417742  78.2183032 138.6641912  20.7628750  78.3308662 137.2144031
  37.3659620  83.6982301 125.7467795  37.8910944  84.0369574 125.0217115
  37.2781973  82.7629316 125.5630930  29.0279669  87.6116375 137.8757672
  29.3366795  87.3665521 138.7480371  29.8255151  87.8163013 137.3876542
  29.0500281  89.7654284 130.1063048  28.6105271  89.2730663 130.7995905
  29.8008398  89.2227252 129.8655123  21.5292620  85.9565825 130.1087676
  22.3550640  85.6569597 129.7286320  21.1786672  85.1873448 130.5577465
  26.4974153  85.3092293 132.1785350  25.8754162  84.6462998 131.8787578
  27.1679020  85.3353425 131.4958998  19.7301225  83.8752152 131.0676610
  18.8933133  83.4474326 130.8860611  19.7024870  84.0684595 132.0047401
  26.5698680  73.7874081 141.7717856  26.6186836  74.6636204 141.3895625
  27.1121195  73.2451475 141.1989499  37.0553526  84.3315205 141.0518993
  36.2649070  84.3139344 140.5123492  36.8186881  84.8703498 141.8068030
  37.1751401  81.1807671 138.3651721  37.2249406  81.0157679 139.3067244
  37.0665324  80.3134930 137.9749602  26.0587660  83.8596217 125.6543810
  26.2075780  84.5431681 125.0010483  26.8654103  83.8401307 126.1693266
  34.4655164  77.1638599 139.6811028  35.3665026  77.0245064 139.3895026
  34.5403138  77.3293054 140.6209206  28.7997969  74.5405454 138.5264214
  27.9301278  74.8339020 138.2546803  29.0357449  75.1245899 139.2471478
  38.6769598  83.6004613 138.6093743  38.3854406  83.9634593 139.4457204
  38.0641729  82.8871621 138.4307075  39.8765280  81.1657492 131.1296313
  40.7112172  81.6047296 131.2933874  40.0124409  80.6896146 130.3104559
  36.9256786  78.7237227 137.0773801  37.4010908  78.9164874 136.2692652
  36.0022352  78.7796413 136.8317185  23.8140293  79.8861394 126.6604879
  23.5686335  78.9823724 126.8585089  23.9836207  79.8878545 125.7184357
  31.5037003  70.7585071 136.0429635  32.0218947  71.4946098 135.7176123
  31.1492135  71.0649064 136.8776394  23.0835940  75.6189752 124.1591041
  22.3905185  75.6934107 123.5031077  22.8387692  74.8550096 124.6812558
  31.7549597  67.1785353 131.5630531  32.0351351  66.5108542 132.1890958
  32.5400204  67.3714449 131.0505195  29.5583065  86.3544347 123.1255558
  28.9857032  86.9734534 122.6726030  30.1315859  86.9043709 123.6595480
  35.6258455  75.6002987 135.3102107  36.5775878  75.7001085 135.3314331
  35.4561906  74.8081256 135.8200191  33.6472835  72.6858571 135.4961508
  33.0522767  72.9663583 134.8007996  33.3622531  73.1752471 136.2678249
  32.7780325  86.6381497 124.2564140  33.7110998  86.5727059 124.4597016
  32.6903538  87.4737764 123.7978673  35.4068342  85.9547368 121.2168088
  35.3281973  85.6207231 122.1103846  36.2278009  86.4469136 121.2159560
  38.1046533  78.8209107 134.4244406  38.0722853  77.8825108 134.6104090
  38.7147157  78.8993144 133.6910231  29.9429864  77.6905160 120.4671610
  30.8888969  77.5611368 120.5360028  29.5644109  76.9519822 120.9441038
  38.2541021  75.6120150 134.4702689  37.7380070  74.8278607 134.2832618
  39.1380970  75.2838867 134.6349209  35.9151748  69.3561166 130.4298502
  35.7176570  69.0476254 131.3141834  36.5251454  70.0822805 130.5596432
  43.9223083  79.8825114 133.5650443  44.6526471  79.6210402 134.1258146
  43.3130028  79.1453836 133.6052511  42.0038380  78.0232976 134.1624894
  41.2771544  77.8888941 133.5541386  41.5885667  78.3309805 134.9681612
  29.8268556  81.7422906 141.9272267  30.7471566  81.9201505 142.1212314
  29.7918139  80.7978951 141.7751967  28.1272781  75.6155136 120.4026496
  27.2204236  75.3188249 120.4789209  28.4048762  75.3184954 119.5360782
  19.0450721  76.9361500 130.8525542  18.7253506  76.0826808 130.5599916
  18.4984150  77.1510078 131.6083509  22.8230629  79.6523941 134.5695048
  23.0416639  80.5841049 134.5883082  23.2356403  79.2931915 135.3549852
  29.7434847  70.1592026 126.5570737  28.9335575  69.8139111 126.9325983
  30.4319264  69.8499570 127.1458348  31.6725395  69.2370073 128.1795033
  32.2256434  69.6565526 128.8385057  31.9095481  68.3105821 128.2217989
  27.6958494  75.2257147 143.9597797  27.5955221  76.1751503 143.8909888
  27.4780036  74.8975385 143.0873867  26.8971566  72.4742072 120.5438475
  27.7590730  72.7996970 120.8034292  27.0821910  71.6873567 120.0311540
  18.9138981  80.5564411 132.8218663  18.2202453  80.1418364 132.3088618
  19.6611972  80.5984948 132.2252082  35.0504202  71.3470598 127.6873698
  34.4702871  72.0055402 127.3051750  34.7840135  70.5247943 127.2761115
  33.5007768  70.7475656 129.8895018  34.0007547  70.8592190 129.0809337
  34.1443376  70.4436709 130.5295826  27.5589764  78.6554285 142.7762859
  27.0756846  79.4554645 142.9826748  27.6450703  78.6662230 141.8230303
  20.8275724  80.4882665 130.6984678  20.8046412  80.5870352 129.7466561
  21.1376360  81.3347816 131.0201844  23.4863102  82.5458820 134.8131293
  24.4406355  82.5142762 134.7461224  23.2875625  82.0849444 135.6281519
  24.0762484  81.1159936 137.3802090  24.8955373  81.6104015 137.4036928
  24.3499292  80.1991904 137.3519658  33.8329080  73.5070688 126.7430046
  32.9454935  73.7920339 126.5250241  34.2483069  73.3464452 125.8957323
  37.1843616  73.5317209 130.4584385  37.9604006  74.0213662 130.7309002
  36.4591750  73.9575264 130.9156255  39.6216175  74.2444829 131.5158326
  40.2160666  74.0040565 130.8051634  39.6942759  73.5251959 132.1431862
  21.8413331  88.0878440 131.8301491  21.7067799  87.3278840 131.2639489
  21.4245393  88.8119339 131.3630280  32.9772294  83.2715363 120.8378066
  33.6808144  83.4765366 121.4535722  32.2534942  83.8392125 121.1027149
  33.8070104  79.0225224 126.9580336  33.7505305  79.4793776 126.1187969
  34.3598446  78.2615909 126.7803179  37.6174910  74.8114956 127.7830456
  37.3611844  74.4111592 128.6138663  36.9927778  75.5258750 127.6580595
  41.9287248  77.5511029 130.2901747  41.3686806  77.6204219 131.0633309
  41.3230751  77.3752014 129.5701243  24.9982456  88.9847757 132.0419933
  24.8814841  89.9293189 131.9398624  24.1774903  88.6821318 132.4305733
  34.8858991  83.7097892 122.8876526  35.7204595  83.2779091 122.7054001
  34.7243334  83.5379906 123.8153420  34.5404883  80.2130006 124.2532865
  34.4853687  80.0474277 123.3121309  33.9150938  80.9206039 124.4095055
  19.3297398  75.4498070 138.0794288  19.9756262  74.9397024 138.5681513
  19.1214549  76.1866752 138.6537713  31.8550790  82.5178917 143.5786428
  32.7241950  82.6919570 143.2173063  31.3757542  83.3373334 143.4562157
  27.8501009  69.7138115 123.8318184  27.8379678  70.6579955 123.9886455
  28.7424431  69.5308260 123.5377645  26.0236971  89.6376018 135.2575862
  26.9264217  89.6699629 135.5742357  25.7974341  88.7076469 135.2722198
  27.7790573  88.3907005 131.9185940  26.8286204  88.3908867 131.8050313
  28.0823059  87.6439740 131.4021975  31.6653128  66.3080891 128.0864120
  30.8985524  65.7539378 128.2320803  32.0763833  66.3802760 128.9478272
  23.6694889  72.5965687 142.1769302  24.5326351  72.2402492 142.3872626
  23.0960300  72.2579582 142.8644706  43.5143266  94.2267543 132.9831703
  44.1521676  94.1074291 132.2795043  43.3964109  95.1748387 133.0419655
  40.3232972  94.1794972 132.9193227  39.9851484  94.0636036 132.0313762
  41.1922741  93.7786137 132.8994234  36.1819788  96.0330448 128.9090118
  35.6184653  95.9420385 128.1406406  36.0672183  95.2130352 129.3892611
  40.8052755  95.3329823 138.8779433  40.7941396  94.9382622 138.0059937
  40.9673395  94.5995896 139.4713204  33.7284220  97.5281640 131.7474339
  34.5205512  97.1872464 131.3320638  33.9680870  97.6376615 132.6676492
  41.7619347  99.7001416 124.2204583  41.1107327 100.2855496 123.8338597
  42.5563710 100.2307611 124.2799621  35.6874974  96.7890553 124.6191718
  36.4605850  96.2419540 124.4804593  36.0400373  97.6534802 124.8306179
  37.5260016  98.1166935 137.8258617  37.2349882  99.0212566 137.7105283
  38.1617001  98.1583463 138.5402687  38.4516223  95.4943784 134.4159977
  39.0479796  95.2699806 133.7016940  38.5091195  94.7528529 135.0185424
  38.0241252  92.9483219 122.2510168  38.2766772  92.4264740 121.4893631
  37.0865811  92.7849364 122.3536851  43.0684535  91.9518997 130.0584911
  43.8547624  91.5338420 129.7075328  43.3323239  92.8565089 130.2266559
  43.2394612  97.3891848 124.7573568  42.6040445  97.4626474 125.4694472
  42.9092018  97.9785446 124.0792647  48.4692962  91.8894230 130.9617889
  49.2018134  91.3193447 131.1955719  47.7132317  91.5015831 131.4024395
  37.7437540  94.8511325 124.4534543  37.6273799  94.1756228 125.1215627
  37.8539800  94.3643699 123.6366696  40.0869081  94.3121472 128.1581232
  39.7227289  93.7852093 128.8694153  40.9436197  93.9219941 127.9847717
  45.9918382  85.6015805 135.4212498  45.6601707  86.4711216 135.1973713
  45.3963995  85.2852089 136.1006528  39.7274568  89.3411372 123.1542580
  39.8948971  90.2091608 123.5213051  39.5371737  89.5038653 122.2303870
  42.4849902  97.8028351 134.8208411  42.1850625  98.7053389 134.7124218
  42.1400961  97.5360534 135.6729564  35.9362383  94.2542147 130.8545115
  35.0112880  94.1218362 131.0622807  36.1846796  95.0336367 131.3515057
  45.8847045  90.3210891 132.5005848  44.9763923  90.2526299 132.2064609
  45.8334641  90.7982836 133.3287673  39.7063789  91.7969029 124.1389247
  39.5863414  92.2426080 124.9774727  39.0116378  92.1454347 123.5802785
  33.2971194  93.8975421 131.6888904  33.4263575  94.1509900 132.6028316
  32.6168645  94.4903129 131.3693559  37.4670681 104.5672671 127.7879378
  37.3894711 105.5180496 127.8667859  36.8632325 104.2218543 128.4454305
  39.9587911  91.7400536 140.4440745  39.1821245  92.2994456 140.4343610
  40.5978474  92.2257319 140.9655615  47.7508692  88.5227329 134.2783722
  47.1083072  88.8159862 133.6323516  47.2463620  88.4080249 135.0836919
  45.4048855  92.2690502 124.9669581  46.3166712  92.5017889 124.7917279
  44.8958503  92.8527547 124.4044660  38.2134283  94.5485990 140.0058712
  38.9548968  95.0871034 139.7293536  37.5071269  95.1752278 140.1630264
  43.6889623  96.6915130 138.6030874  44.0972979  96.2497541 137.8585506
  42.9666885  96.1167758 138.8565067  40.0420693  91.6287737 135.9764431
  40.8881888  92.0527150 136.1199080  39.9819331  90.9721361 136.6702994
  44.0118438  97.2516321 132.3583163  43.3827300  97.4162035 131.6559230
  43.6244100  97.6657930 133.1294127  47.8907670  98.1870759 129.7127526
  47.2058708  98.5669660 129.1624560  47.9751519  98.7966085 130.4459474
  43.1920138  89.2892105 137.6345604  42.9481070  90.0434166 137.0979880
  43.4680069  89.6677453 138.4692851  45.1458601  95.8330718 136.3122870
  45.3575496  96.4762478 135.6357251  45.0988349  94.9993034 135.8444800
  42.7484830  88.4448538 133.2159442  41.8869309  88.7429792 133.5076180
  42.7747265  88.6618937 132.2840475  39.5646400  96.9890729 129.6233248
  40.0284745  97.2678432 128.8337870  39.3003198  96.0874173 129.4406338
  36.4570481  96.5362210 132.5613011  37.0271838  96.9649479 131.9230495
  37.0478593  96.2544795 133.2597197  38.5015286  93.1113881 126.4322813
  39.2039329  93.5634925 126.8996739  38.1695914  92.4697700 127.0602706
  36.9495647  91.7025638 140.8074022  36.3194308  92.3841919 141.0409419
  36.8431735  91.5908719 139.8627160  32.2440620  91.3697434 131.7339946
  31.4539674  91.6254962 131.2580057  32.7351867  92.1845772 131.8391987
  46.2604429  98.7102673 134.4845227  47.0821873  98.3082860 134.2027909
  46.2566832  98.6070907 135.4361343  34.1955365  91.7342013 128.6923423
  33.3986528  91.8460707 129.2106919  33.9680957  92.0728665 127.8264314
  40.0261033  98.2586716 136.6405938  40.0905465  98.7207124 137.4764110
  39.3171957  97.6284081 136.7688248  30.5278323  91.6227924 134.1654937
  30.7786361  92.5074934 134.4312513  31.0637871  91.4432526 133.3930029
  54.3510422  95.0541422 130.8330199  53.5974131  94.4848820 130.6774203
  54.4857963  95.0204086 131.7800833  39.7409050  99.9254824 126.5084918
  39.6054725 100.7706360 126.9369766  40.2818863 100.1274102 125.7450852
  36.2276390  86.0046404 143.1699273  35.8343335  85.4512602 143.8446918
  37.0442530  86.3156982 143.5605791  33.1938448  97.4430262 127.0812843
  33.7062968  98.2373512 127.2318408  33.8461161  96.7456552 127.0146445
  35.0033332 100.5596018 129.1635596  35.1799961 101.4813983 128.9756580
  35.7990166 100.2454437 129.5929976  39.1444351  87.4204283 140.7619530
  39.8854064  88.0211436 140.6823992  39.3762274  86.6781921 140.2037572
  34.2885689  92.6060650 139.0397760  34.1739204  91.7045907 139.3404858
  33.4330207  92.8524347 138.6882576  41.3677527 100.5478390 140.6385260
  40.9241381  99.7614769 140.3206165  42.0294740 100.7357541 139.9729151
  36.1264648 102.0774192 135.1645939  36.6772073 101.9491255 134.3922933
  35.2876124 102.3769081 134.8140831  43.4658765 100.8281190 138.6666661
  43.4477240 101.6490071 138.1746931  44.3878685 100.7035266 138.8916803
  39.9231819  98.3425320 139.5090170  40.4560156  97.5813608 139.2789478
  39.3945900  98.0498972 140.2514324  43.0901514  83.4485386 135.0383812
  42.7465783  84.3387027 134.9622922  43.4580476  83.2587043 134.1753397
  31.1587364  95.7718916 127.8572414  31.9962586  96.1815925 127.6406121
  31.3365632  94.8318358 127.8272608  43.0551797  93.4393997 123.5456247
  42.5398420  94.2098602 123.7844634  42.7829105  92.7659133 124.1689308
  40.6398908  88.2843698 128.6041485  39.7840504  87.8950548 128.4247124
  41.0525859  88.3635658 127.7441271  42.1698054  85.8190041 133.0033045
  41.6662850  85.7820176 132.1900850  42.4628661  86.7282784 133.0629701
  38.4140940  85.9028771 132.0099227  39.2793937  85.7071579 131.6505116
  38.4818449  85.6739122 132.9368583  48.0286071  96.1926352 125.4809420
  47.2515513  95.8537511 125.0364582  48.7077552  96.1978975 124.8064385
  42.8438100  91.3121089 125.3716028  42.5388235  91.6267238 126.2226171
  43.7968542  91.3902509 125.4143361  41.2884532  97.4711312 127.0208982
  40.7605893  96.7364072 126.7082219  40.7872034  98.2485989 126.7748950
  46.2677378  95.6660333 132.1376028  45.6101052  96.3559594 132.2256157
  47.0717777  96.0556765 132.4810014  36.0203259  88.1330979 129.3815593
  36.5947011  87.9106160 128.6488786  36.6074242  88.2019673 130.1344195
  45.0782836  94.0204705 130.1879970  45.5914718  94.6534697 130.6901680
  45.7284060  93.4205901 129.8223330  36.3472846  90.1635440 123.4011479
  35.5110159  90.5010126 123.7220753  36.2077616  90.0284419 122.4638616
  38.3225927  85.0072227 128.1090663  37.6690339  84.6921245 127.4847278
  38.2806401  84.3847968 128.8350486  39.4337132  95.2891523 120.0243955
  38.5264194  95.0580776 120.2235104  39.9308164  94.4929142 120.2117936
  42.3405211 103.9989030 122.9440641  41.6666909 104.3020726 123.5525599
  42.7271033 104.8018110 122.5946098  41.5563667  91.4954161 132.4338310
  40.6386229  91.7169108 132.2759998  41.9723811  91.5700471 131.5750018
  42.3398715  92.8945577 127.5640991  43.0870534  93.4066974 127.2548113
  42.6090305  92.5729629 128.4245384  40.6125365  95.3904117 124.5467945
  39.7036584  95.1063150 124.6440415  40.6420449  95.8103196 123.6871252
  45.8444633  99.0010707 128.3159112  45.3906960  98.1601617 128.3724303
  45.2138599  99.6372105 128.6533893  44.7877552  89.9302693 129.5459780
  44.0500309  89.4180079 129.8770023  45.0404326  89.4903075 128.7343057
  44.2877572 100.8387204 129.2508931  44.5800546 101.3992261 128.5321296
  44.7976192 101.1315765 130.0062090  44.8889180  82.7078945 130.1401549
  45.1948056  81.8476308 129.8527464  45.6141784  83.2996565 129.9400543
  31.1813536  93.1109632 128.5283147  30.9837935  92.5178992 127.8034214
  30.6260200  92.8061842 129.2459086  39.1610259  93.0032738 130.6477740
  39.2158869  92.0506574 130.5720217  38.3501461  93.1592177 131.1319039
  40.3101453  96.9312861 121.8856024  39.8720883  96.2148720 121.4261661
  41.0511894  97.1588976 121.3241115  37.1002619  91.6209798 128.4068119
  36.2870485  91.9203968 128.8133311  37.5961613  91.2265487 129.1242601
  39.2511197 101.6167555 130.3402384  39.2087376 101.8428401 129.4110916
  40.1673896 101.3830929 130.4888185  42.6976831  92.0851622 137.2383013
  43.0526219  92.3123095 138.0977479  43.3448962  92.4169999 136.6160268
  48.4274568  95.2070058 127.9432342  48.2892466  95.3971654 127.0153531
  48.0710787  95.9689441 128.4000393  36.5916694  89.1928153 134.0229354
  37.2316073  89.0516912 133.3252317  35.7594224  88.9062667 133.6467956
  48.4543947  97.2746585 132.9543614  48.8880454  97.1821874 133.8026668
  49.1675528  97.2504086 132.3163630  37.3676998  98.4930584 130.1364347
  38.1617596  97.9980904 129.9346922  36.6568690  97.9648447 129.7732052
  42.1871842 100.8748679 134.4876714  42.2408865 101.4439616 135.2554430
  41.3186624 101.0450564 134.1230751  33.6759761  92.6373665 126.2124099
  32.7457349  92.5758121 126.4294061  33.7717233  92.1149618 125.4160740
  33.5945310  89.1628478 128.8002341  33.8552128  90.0773812 128.6911501
  34.4162483  88.6952921 128.9498954  35.0670236  90.5766235 135.9701165
  35.7393289  90.3683598 135.3213814  34.2400022  90.3788321 135.5306398
  49.3159497  97.3170286 135.4876499  49.5095387  98.2216096 135.7335774
  49.2160115  96.8577705 136.3215084  40.9695808  87.2028176 137.9866826
  40.3223723  87.9018126 137.8931303  41.7396823  87.6364320 138.3543075
  44.3774606  97.4677029 141.0617380  44.2260112  97.2387580 140.1447463
  44.3679285  98.4247630 141.0748725  41.1459942  95.0408941 136.0463646
  42.0752002  95.1920101 135.8732613  40.7250972  95.1292962 135.1912293
  39.9448274  99.0659606 133.8162184  39.8059360  98.6978390 134.6888122
  39.1562870  99.5807245 133.6446141  40.5396426 104.1668702 125.1587720
  40.7148182 103.6956745 125.9733343  39.8529214 104.7934468 125.3868981
  41.4953489  98.4441208 131.2051021  41.1603322  98.4041978 132.1008671
  40.9957435  97.7785924 130.7321432  35.4697733  93.8508838 136.7303603
  35.3317531  93.1189077 137.3315142  36.3802656  93.7617739 136.4487790
  44.4312681  95.7897243 121.4788081  43.8141851  95.0644071 121.3821134
  43.9629169  96.5506603 121.1355155  38.0980034  93.5628798 136.2187282
  38.8079652  92.9221990 136.1773901  38.0549342  93.8141693 137.1413463
  46.0866812 100.4996151 139.1393861  46.0279358  99.8155371 138.4724444
  46.4886331 101.2415141 138.6874487  36.8108968  90.5494016 138.0382922
  36.2746325  90.0984754 138.6904518  36.2225676  90.6839924 137.2953386
  35.1057511 107.3158065 131.9327580  35.3454109 107.9476589 132.6106599
  34.2626708 106.9646105 132.2192940  36.2211227  90.0082667 120.6009385
  35.3440693  89.8871468 120.2371632  36.6968980  89.2168745 120.3488274
  46.0884220  98.4635735 137.3707841  45.2010998  98.1261657 137.4934240
  46.6582771  97.7318766 137.6076607  27.7413367  94.7959827 130.6950893
  28.4284407  94.4821557 130.1071908  27.5861495  95.7001191 130.4218144
  32.5448089  89.6850023 135.1235916  32.4606278  89.0775693 134.3886326
  31.7230795  90.1759042 135.1245413  39.6185373 103.1237187 134.3369084
  39.5455544 103.9292159 134.8488389  39.1762766 103.3229153 133.5117106
  39.4075153 102.3608957 127.8471906  38.6242674 102.9030638 127.9410130
  40.1067898 102.8782937 128.2466147  42.7171803  88.1703587 130.4906111
  43.2140502  87.4173549 130.1707181  41.9458784  88.2067904 129.9249321
  50.5701560  93.8743952 132.1324403  50.5591436  94.7568668 131.7618336
  49.7018940  93.5215503 131.9378940  42.0784056 103.0224021 136.4927243
  42.7912029 103.6571486 136.4203144  41.5874085 103.1187887 135.6767245
  43.8001583  96.9275274 128.0644535  42.8657862  97.0476737 127.8949239
  43.9778252  96.0247741 127.8004544  39.3006771  90.3120970 130.2177796
  38.9304559  89.7592010 130.9058701  39.7965864  89.7079103 129.6652796
  47.1874135  92.7692593 128.5994569  47.6534587  93.6020585 128.5254871
  47.6381635  92.3037575 129.3039827  37.1295970 100.7718465 137.3132814
  37.8305430 101.4054948 137.4662208  36.6591085 101.1133196 136.5528453
  45.2550366  99.1136415 125.5980721  45.5310210  98.9993009 126.5074595
  44.3854865  98.7153899 125.5592894  45.1590797  85.1373180 132.6385470
  44.2453877  85.3677407 132.8067677  45.5883899  85.2211624 133.4899502
  44.9297256  93.3263072 135.1385364  44.2768706  93.5738980 134.4837817
  45.3077636  92.5127210 134.8047841  41.8904430 103.3622765 129.2413534
  42.0726824 102.5444421 129.7041287  42.7137416 103.5790458 128.8038424
  42.2246595 102.2890951 126.5028583  42.7534362 101.7783405 125.8898745
  42.4874815 101.9733481 127.3674116  40.9784829  94.0682883 141.6251401
  40.3025466  93.9677013 142.2953776  41.8012463  93.9122097 142.0887398
  32.7263688 100.3054820 134.2463916  33.3117125  99.5598508 134.3791821
  32.5288527 100.6158777 135.1300580  35.5802343 103.3406067 129.2626359
  34.9112719 103.8252195 128.7790399  35.4415213 103.5875288 130.1769737
  27.3181343  92.8760420 132.9668360  27.3565442  92.3424011 133.7605478
  26.8121636  92.3495626 132.3479337  39.7207612 105.3749811 135.8609017
  40.2725920 105.5381432 136.6258102  40.0613805 105.9654249 135.1889042
  34.6972105  87.7224961 136.4630902  34.7613432  88.5839792 136.0508300
  34.6339225  87.1098962 135.7303260  34.1724378  89.7948093 140.1103936
  34.7996416  89.4125170 140.7241461  33.3152296  89.5762295 140.4759629
  44.5718486 100.2011068 141.7157672  45.1158390 100.8141027 141.2212626
  43.9905331 100.7590647 142.2324685  30.9489920  91.6024522 126.0422291
  31.2443361  90.6935201 125.9889345  30.0477956  91.5812262 125.7203293
  42.8575999 103.3231786 132.8472699  42.7327139 102.5221526 132.3383645
  43.5155090 103.8177980 132.3586669  34.4784167  89.6780519 132.0249840
  33.7570753  90.2916487 131.8857313  35.2677423  90.2138284 131.9466486
  44.9210908 101.1240806 134.4752249  43.9741243 101.0046158 134.4030576
  45.2693681 100.2363304 134.5578511  37.2810481  87.0134945 138.2990491
  37.8044883  87.2597242 139.0616801  37.0622814  87.8454980 137.8793629
  32.6777762  89.2838620 126.1661616  32.3490468  88.4035999 125.9836722
  33.0317133  89.2286289 127.0538005  41.9257341 100.9193523 130.6756602
  41.7782303  99.9910230 130.8564172  42.7510834 100.9413613 130.1913677
  35.7919585  89.5711590 126.5337094  36.1315658  90.0997511 125.8115702
  36.2391706  89.9091996 127.3095660  45.5291463 101.7422081 131.7621474
  46.4538010 101.5364943 131.6245926  45.3606766 101.4938483 132.6710816
  38.4863026  87.9548640 135.9840162  38.1459846  87.1556454 136.3860842
  37.7802032  88.2550351 135.4116995  39.1379498  85.0397953 134.4367485
  39.9605567  84.5658431 134.3146375  39.3817561  85.8188437 134.9366171
  37.7787732  88.0686211 124.7330387  38.4996095  88.4467464 124.2294103
  37.1553036  88.7875088 124.8365365  41.9218855  88.7731360 125.6688719
  42.1382470  89.6555998 125.3677547  41.4412922  88.3817574 124.9394361
  36.6618077  91.7317074 132.2459464  36.5162657  92.0457377 133.1383745
  36.1843280  92.3501974 131.6930362  38.5214459  88.7219622 132.2940353
  38.5076028  87.8260715 131.9572651  39.2386888  88.7290285 132.9278639
  40.3740590  89.1556962 134.3393481  40.1158368  90.0774032 134.3377811
  39.8425631  88.7587396 135.0293945  45.3186779 102.2607749 127.1183566
  45.4923656 101.6954171 126.3657418  45.8115670 103.0608644 126.9363056
  31.1363739  94.2722418 135.1847125  30.5917207  95.0482226 135.3167399
  32.0143089  94.6193222 135.0266246  37.9251355  87.6034002 127.5627923
  38.0467267  86.6750648 127.7618811  37.6353398  87.6172688 126.6506239
  40.7942546  85.2888912 130.6994643  40.8164243  85.3528245 129.7446623
  41.2110605  84.4493421 130.8935149  51.1726170  95.0244172 128.7373866
  51.6157316  94.2751497 128.3392989  50.2952680  95.0154308 128.3547598
  46.3061951 101.5774513 124.2180464  47.0012856 102.1981206 124.4367779
  46.6485102 100.7269864 124.4932842  31.9229761  93.3992314 138.0777282
  31.1811497  93.5474950 138.6641912  31.6022505  93.6600580 137.2144031
  48.2053375  99.0274219 125.7467795  48.7304699  99.3661492 125.0217115
  48.1175727  98.0921234 125.5630930  39.8673423 102.9408292 137.8757672
  40.1760550 102.6957439 138.7480371  40.6648905 103.1454931 137.3876542
  39.8894035 105.0946202 130.1063048  39.4499026 104.6022581 130.7995905
  40.6402152 104.5519170 129.8655123  32.3686374 101.2857743 130.1087676
  33.1944394 100.9861515 129.7286320  32.0180426 100.5165365 130.5577465
  37.3367907 100.6384211 132.1785350  36.7147917  99.9754916 131.8787578
  38.0072774 100.6645343 131.4958998  30.5694979  99.2044069 131.0676610
  29.7326888  98.7766244 130.8860611  30.5418625  99.3976513 132.0047401
  37.4092435  89.1165999 141.7717856  37.4580590  89.9928122 141.3895625
  37.9514949  88.5743392 141.1989499  47.8947281  99.6607122 141.0518993
  47.1042824  99.6431261 140.5123492  47.6580635 100.1995416 141.8068030
  48.0145156  96.5099589 138.3651721  48.0643161  96.3449596 139.3067244
  47.9059079  95.6426848 137.9749602  36.8981414  99.1888134 125.6543810
  37.0469535  99.8723599 125.0010483  37.7047858  99.1693225 126.1693266
  45.3048918  92.4930517 139.6811028  46.2058781  92.3536982 139.3895026
  45.3796893  92.6584972 140.6209206  39.6391723  89.8697372 138.5264214
  38.7695033  90.1630938 138.2546803  39.8751204  90.4537817 139.2471478
  49.5163352  98.9296530 138.6093743  49.2248161  99.2926511 139.4457204
  48.9035484  98.2163539 138.4307075  50.7159035  96.4949410 131.1296313
  51.5505926  96.9339214 131.2933874  50.8518164  96.0188063 130.3104559
  47.7650541  94.0529145 137.0773801  48.2404662  94.2456791 136.2692652
  46.8416106  94.1088331 136.8317185  34.6534047  95.2153312 126.6604879
  34.4080089  94.3115642 126.8585089  34.8229962  95.2170463 125.7184357
  42.3430757  86.0876988 136.0429635  42.8612701  86.8238015 135.7176123
  41.9885890  86.3940982 136.8776394  33.9229695  90.9481670 124.1591041
  33.2298940  91.0226025 123.5031077  33.6781447  90.1842013 124.6812558
  42.5943351  82.5077271 131.5630531  42.8745105  81.8400460 132.1890958
  43.3793958  82.7006367 131.0505195  40.3976820 101.6836265 123.1255558
  39.8250787 102.3026452 122.6726030  40.9709614 102.2335627 123.6595480
  46.4652210  90.9294905 135.3102107  47.4169633  91.0293003 135.3314331
  46.2955660  90.1373174 135.8200191  44.4866589  88.0150488 135.4961508
  43.8916521  88.2955501 134.8007996  44.2016286  88.5044389 136.2678249
  43.6174080 101.9673415 124.2564140  44.5504753 101.9018977 124.4597016
  43.5297292 102.8029682 123.7978673  46.2462096 101.2839285 121.2168088
  46.1675728 100.9499149 122.1103846  47.0671763 101.7761053 121.2159560
  48.9440287  94.1501025 134.4244406  48.9116608  93.2117025 134.6104090
  49.5540911  94.2285061 133.6910231  40.7823618  93.0197078 120.4671610
  41.7282723  92.8903286 120.5360028  40.4037863  92.2811740 120.9441038
  49.0934776  90.9412068 134.4702689  48.5773825  90.1570525 134.2832618
  49.9774724  90.6130785 134.6349209  46.7545503  84.6853084 130.4298502
  46.5570324  84.3768172 131.3141834  47.3645208  85.4114723 130.5596432
  54.7616837  95.2117032 133.5650443  55.4920226  94.9502320 134.1258146
  54.1523783  94.4745753 133.6052511  52.8432134  93.3524894 134.1624894
  52.1165298  93.2180859 133.5541386  52.4279421  93.6601723 134.9681612
  40.6662311  97.0714824 141.9272267  41.5865320  97.2493423 142.1212314
  40.6311894  96.1270869 141.7751967  38.9666535  90.9447054 120.4026496
  38.0597991  90.6480167 120.4789209  39.2442516  90.6476872 119.5360782
  29.8844476  92.2653417 130.8525542  29.5647260  91.4118726 130.5599916
  29.3377904  92.4801996 131.6083509  33.6624383  94.9815858 134.5695048
  33.8810393  95.9132966 134.5883082  34.0750157  94.6223833 135.3549852
  40.5828601  85.4883944 126.5570737  39.7729330  85.1431029 126.9325983
  41.2713018  85.1791487 127.1458348  42.5119150  84.5661991 128.1795033
  43.0650188  84.9857444 128.8385057  42.7489236  83.6397739 128.2217989
  38.5352249  90.5549064 143.9597797  38.4348976  91.5043421 143.8909888
  38.3173791  90.2267303 143.0873867  37.7365320  87.8033989 120.5438475
  38.5984484  88.1288888 120.8034292  37.9215664  87.0165485 120.0311540
  29.7532736  95.8856329 132.8218663  29.0596207  95.4710282 132.3088618
  30.5005727  95.9276865 132.2252082  45.8897957  86.6762516 127.6873698
  45.3096626  87.3347320 127.3051750  45.6233889  85.8539860 127.2761115
  44.3401523  86.0767573 129.8895018  44.8401301  86.1884108 129.0809337
  44.9837131  85.7728626 130.5295826  38.3983519  93.9846203 142.7762859
  37.9150600  94.7846563 142.9826748  38.4844458  93.9954148 141.8230303
  31.6669478  95.8174583 130.6984678  31.6440167  95.9162270 129.7466561
  31.9770115  96.6639734 131.0201844  34.3256856  97.8750738 134.8131293
  35.2800110  97.8434680 134.7461224  34.1269380  97.4141361 135.6281519
  34.9156238  96.4451854 137.3802090  35.7349127  96.9395932 137.4036928
  35.1893046  95.5283822 137.3519658  44.6722835  88.8362606 126.7430046
  43.7848690  89.1212257 126.5250241  45.0876824  88.6756369 125.8957323
  48.0237371  88.8609127 130.4584385  48.7997761  89.3505580 130.7309002
  47.2985505  89.2867181 130.9156255  50.4609929  89.5736746 131.5158326
  51.0554420  89.3332482 130.8051634  50.5336513  88.8543877 132.1431862
  32.6807085 103.4170357 131.8301491  32.5461553 102.6570758 131.2639489
  32.2639147 104.1411257 131.3630280  43.8166048  98.6007281 120.8378066
  44.5201898  98.8057283 121.4535722  43.0928697  99.1684043 121.1027149
  44.6463858  94.3517142 126.9580336  44.5899060  94.8085693 126.1187969
  45.1992201  93.5907827 126.7803179  48.4568664  90.1406874 127.7830456
  48.2005599  89.7403510 128.6138663  47.8321532  90.8550668 127.6580595
  52.7681002  92.8802947 130.2901747  52.2080560  92.9496136 131.0633309
  52.1624505  92.7043932 129.5701243  35.8376211 104.3139674 132.0419933
  35.7208595 105.2585107 131.9398624  35.0168657 104.0113236 132.4305733
  45.7252745  99.0389810 122.8876526  46.5598349  98.6071008 122.7054001
  45.5637088  98.8671824 123.8153420  45.3798638  95.5421923 124.2532865
  45.3247441  95.3766195 123.3121309  44.7544693  96.2497956 124.4095055
  30.1691153  90.7789988 138.0794288  30.8150016  90.2688942 138.5681513
  29.9608304  91.5158669 138.6537713  42.6944545  97.8470835 143.5786428
  43.5635704  98.0211487 143.2173063  42.2151296  98.6665252 143.4562157
  38.6894763  85.0430032 123.8318184  38.6773433  85.9871872 123.9886455
  39.5818185  84.8600178 123.5377645  36.8630725 104.9667936 135.2575862
  37.7657972 104.9991546 135.5742357  36.6368095 104.0368387 135.2722198
  38.6184327 103.7198923 131.9185940  37.6679958 103.7200784 131.8050313
  38.9216813 102.9731657 131.4021975  42.5046883  81.6372809 128.0864120
  41.7379278  81.0831296 128.2320803  42.9157588  81.7094678 128.9478272
  34.5088644  87.9257605 142.1769302  35.3720105  87.5694410 142.3872626
  33.9354054  87.5871500 142.8644706  54.3537021 109.5559461 132.9831703
  54.9915431 109.4366208 132.2795043  54.2357863 110.5040305 133.0419655
  51.1626727 109.5086889 132.9193227  50.8245238 109.3927954 132.0313762
  52.0316495 109.1078054 132.8994234  47.0213543 111.3622366 128.9090118
  46.4578408 111.2712303 128.1406406  46.9065938 110.5422270 129.3892611
  51.6446510 110.6621741 138.8779433  51.6335151 110.2674539 138.0059937
  51.8067149 109.9287814 139.4713204  44.5677974 112.8573557 131.7474339
  45.3599266 112.5164382 131.3320638  44.8074625 112.9668532 132.6676492
  52.6013101 115.0293333 124.2204583  51.9501081 115.6147414 123.8338597
  53.3957464 115.5599528 124.2799621  46.5268728 112.1182470 124.6191718
  47.2999604 111.5711458 124.4804593  46.8794127 112.9826720 124.8306179
  48.3653771 113.4458853 137.8258617  48.0743637 114.3504484 137.7105283
  49.0010755 113.4875380 138.5402687  49.2909978 110.8235701 134.4159977
  49.8873550 110.5991724 133.7016940  49.3484949 110.0820447 135.0185424
  48.8635006 108.2775137 122.2510168  49.1160527 107.7556658 121.4893631
  47.9259565 108.1141282 122.3536851  53.9078289 107.2810915 130.0584911
  54.6941378 106.8630338 129.7075328  54.1716993 108.1857007 130.2266559
  54.0788366 112.7183765 124.7573568  53.4434199 112.7918392 125.4694472
  53.7485773 113.3077364 124.0792647  59.3086716 107.2186148 130.9617889
  60.0411888 106.6485365 131.1955719  58.5526072 106.8307749 131.4024395
  48.5831295 110.1803243 124.4534543  48.4667553 109.5048146 125.1215627
  48.6933555 109.6935616 123.6366696  50.9262836 109.6413390 128.1581232
  50.5621043 109.1144011 128.8694153  51.7829952 109.2511859 127.9847717
  56.8312137 100.9307722 135.4212498  56.4995461 101.8003133 135.1973713
  56.2357750 100.6144006 136.1006528  50.5668323 104.6703289 123.1542580
  50.7342725 105.5383526 123.5213051  50.3765492 104.8330571 122.2303870
  53.3243656 113.1320268 134.8208411  53.0244379 114.0345307 134.7124218
  52.9794716 112.8652451 135.6729564  46.7756138 109.5834065 130.8545115
  45.8506634 109.4510279 131.0622807  47.0240551 110.3628284 131.3515057
  56.7240800 105.6502808 132.5005848  55.8157677 105.5818217 132.2064609
  56.6728396 106.1274753 133.3287673  50.5457544 107.1260947 124.1389247
  50.4257169 107.5717998 124.9774727  49.8510132 107.4746265 123.5802785
  44.1364949 109.2267339 131.6888904  44.2657330 109.4801818 132.6028316
  43.4562400 109.8195047 131.3693559  48.3064436 119.8964589 127.7879378
  48.2288466 120.8472414 127.8667859  47.7026079 119.5510461 128.4454305
  50.7981666 107.0692454 140.4440745  50.0215000 107.6286374 140.4343610
  51.4372229 107.5549237 140.9655615  58.5902446 103.8519247 134.2783722
  57.9476827 104.1451780 133.6323516  58.0857375 103.7372167 135.0836919
  56.2442610 107.5982420 124.9669581  57.1560466 107.8309807 124.7917279
  55.7352257 108.1819464 124.4044660  49.0528038 109.8777907 140.0058712
  49.7942722 110.4162951 139.7293536  48.3465023 110.5044196 140.1630264
  54.5283378 112.0207048 138.6030874  54.9366734 111.5789458 137.8585506
  53.8060639 111.4459675 138.8565067  50.8814448 106.9579655 135.9764431
  51.7275643 107.3819068 136.1199080  50.8213085 106.3013279 136.6702994
  54.8512192 112.5808238 132.3583163  54.2221055 112.7453953 131.6559230
  54.4637854 112.9949848 133.1294127  58.7301424 113.5162676 129.7127526
  58.0452462 113.8961578 129.1624560  58.8145273 114.1258003 130.4459474
  54.0313893 104.6184023 137.6345604  53.7874825 105.3726084 137.0979880
  54.3073823 104.9969371 138.4692851  55.9852356 111.1622635 136.3122870
  56.1969251 111.8054395 135.6357251  55.9382104 110.3284952 135.8444800
  53.5878585 103.7740456 133.2159442  52.7263064 104.0721710 133.5076180
  53.6141019 103.9910855 132.2840475  50.4040154 112.3182647 129.6233248
  50.8678500 112.5970350 128.8337870  50.1396952 111.4166091 129.4406338
  47.2964235 111.8654128 132.5613011  47.8665592 112.2941396 131.9230495
  47.8872347 111.5836713 133.2597197  49.3409040 108.4405799 126.4322813
  50.0433084 108.8926843 126.8996739  49.0089669 107.7989618 127.0602706
  47.7889402 107.0317556 140.8074022  47.1588062 107.7133836 141.0409419
  47.6825490 106.9200637 139.8627160  43.0834374 106.6989352 131.7339946
  42.2933428 106.9546880 131.2580057  43.5745621 107.5137689 131.8391987
  57.0998184 114.0394591 134.4845227  57.9215627 113.6374778 134.2027909
  57.0960587 113.9362825 135.4361343  45.0349120 107.0633931 128.6923423
  44.2380283 107.1752625 129.2106919  44.8074712 107.4020583 127.8264314
  50.8654787 113.5878634 136.6405938  50.9299220 114.0499041 137.4764110
  50.1565711 112.9575999 136.7688248  41.3672077 106.9519842 134.1654937
  41.6180116 107.8366852 134.4312513  41.9031626 106.7724444 133.3930029
  65.1904177 110.3833339 130.8330199  64.4367885 109.8140737 130.6774203
  65.3251718 110.3496004 131.7800833  50.5802805 115.2546742 126.5084918
  50.4448480 116.0998277 126.9369766  51.1212617 115.4566019 125.7450852
  47.0670144 101.3338321 143.1699273  46.6737090 100.7804520 143.8446918
  47.8836285 101.6448900 143.5605791  44.0332202 112.7722180 127.0812843
  44.5456723 113.5665430 127.2318408  44.6854915 112.0748470 127.0146445
  45.8427087 115.8887936 129.1635596  46.0193715 116.8105901 128.9756580
  46.6383920 115.5746355 129.5929976  49.9838105 102.7496200 140.7619530
  50.7247819 103.3503354 140.6823992  50.2156028 102.0073838 140.2037572
  45.1279443 107.9352568 139.0397760  45.0132959 107.0337825 139.3404858
  44.2723961 108.1816265 138.6882576  52.2071281 115.8770308 140.6385260
  51.7635135 115.0906687 140.3206165  52.8688495 116.0649459 139.9729151
  46.9658402 117.4066110 135.1645939  47.5165827 117.2783173 134.3922933
  46.1269878 117.7060999 134.8140831  54.3052519 116.1573108 138.6666661
  54.2870995 116.9781989 138.1746931  55.2272439 116.0327183 138.8916803
  50.7625573 113.6717237 139.5090170  51.2953910 112.9105526 139.2789478
  50.2339654 113.3790889 140.2514324  53.9295268  98.7777303 135.0383812
  53.5859538  99.6678945 134.9622922  54.2974231  98.5878961 134.1753397
  41.9981119 111.1010834 127.8572414  42.8356341 111.5107842 127.6406121
  42.1759387 110.1610276 127.8272608  53.8945551 108.7685915 123.5456247
  53.3792175 109.5390519 123.7844634  53.6222860 108.0951051 124.1689308
  51.4792662 103.6135615 128.6041485  50.6234258 103.2242466 128.4247124
  51.8919614 103.6927576 127.7441271  53.0091809 101.1481959 133.0033045
  52.5056604 101.1112094 132.1900850  53.3022416 102.0574701 133.0629701
  49.2534695 101.2320688 132.0099227  50.1187691 101.0363497 131.6505116
  49.3212204 101.0031040 132.9368583  58.8679825 111.5218269 125.4809420
  58.0909268 111.1829429 125.0364582  59.5471306 111.5270892 124.8064385
  53.6831854 106.6413007 125.3716028  53.3781990 106.9559156 126.2226171
  54.6362296 106.7194427 125.4143361  52.1278286 112.8003230 127.0208982
  51.5999648 112.0655990 126.7082219  51.6265789 113.5777906 126.7748950
  57.1071132 110.9952250 132.1376028  56.4494807 111.6851512 132.2256157
  57.9111531 111.3848682 132.4810014  46.8597014 103.4622896 129.3815593
  47.4340766 103.2398078 128.6488786  47.4467996 103.5311591 130.1344195
  55.9176591 109.3496623 130.1879970  56.4308473 109.9826615 130.6901680
  56.5677815 108.7497819 129.8223330  47.1866601 105.4927357 123.4011479
  46.3503913 105.8302044 123.7220753  47.0471370 105.3576337 122.4638616
  49.1619681 100.3364145 128.1090663  48.5084094 100.0213162 127.4847278
  49.1200156  99.7139886 128.8350486  50.2730886 110.6183440 120.0243955
  49.3657948 110.3872694 120.2235104  50.7701918 109.8221059 120.2117936
  53.1798965 119.3280947 122.9440641  52.5060664 119.6312644 123.5525599
  53.5664787 120.1310028 122.5946098  52.3957422 106.8246079 132.4338310
  51.4779983 107.0461026 132.2759998  52.8117565 106.8992389 131.5750018
  53.1792470 108.2237494 127.5640991  53.9264288 108.7358892 127.2548113
  53.4484059 107.9021547 128.4245384  51.4519120 110.7196035 124.5467945
  50.5430339 110.4355068 124.6440415  51.4814204 111.1395114 123.6871252
  56.6838387 114.3302625 128.3159112  56.2300714 113.4893534 128.3724303
  56.0532354 114.9664023 128.6533893  55.6271307 105.2594611 129.5459780
  54.8894063 104.7471997 129.8770023  55.8798080 104.8194992 128.7343057
  55.1271326 116.1679121 129.2508931  55.4194301 116.7284178 128.5321296
  55.6369947 116.4607682 130.0062090  55.7282934  98.0370863 130.1401549
  56.0341811  97.1768226 129.8527464  56.4535539  98.6288483 129.9400543
  42.0207290 108.4401549 128.5283147  41.8231690 107.8470910 127.8034214
  41.4653954 108.1353759 129.2459086  50.0004014 108.3324656 130.6477740
  50.0552624 107.3798492 130.5720217  49.1895216 108.4884095 131.1319039
  51.1495208 112.2604779 121.8856024  50.7114637 111.5440638 121.4261661
  51.8905648 112.4880894 121.3241115  47.9396374 106.9501715 128.4068119
  47.1264239 107.2495886 128.8133311  48.4355368 106.5557404 129.1242601
  50.0904952 116.9459472 130.3402384  50.0481130 117.1720319 129.4110916
  51.0067650 116.7122847 130.4888185  53.5370585 107.4143540 137.2383013
  53.8919973 107.6415013 138.0977479  54.1842717 107.7461917 136.6160268
  59.2668322 110.5361976 127.9432342  59.1286221 110.7263572 127.0153531
  58.9104541 111.2981359 128.4000393  47.4310448 104.5220071 134.0229354
  48.0709828 104.3808830 133.3252317  46.5987979 104.2354584 133.6467956
  59.2937702 112.6038503 132.9543614  59.7274209 112.5113792 133.8026668
  60.0069283 112.5796003 132.3163630  48.2070752 113.8222501 130.1364347
  49.0011351 113.3272822 129.9346922  47.4962445 113.2940365 129.7732052
  53.0265597 116.2040597 134.4876714  53.0802619 116.7731533 135.2554430
  52.1580378 116.3742482 134.1230751  44.5153516 107.9665583 126.2124099
  43.5851104 107.9050039 126.4294061  44.6110988 107.4441536 125.4160740
  44.4339065 104.4920396 128.8002341  44.6945882 105.4065729 128.6911501
  45.2556237 104.0244839 128.9498954  45.9063990 105.9058153 135.9701165
  46.5787044 105.6975515 135.3213814  45.0793777 105.7080239 135.5306398
  60.1553251 112.6462203 135.4876499  60.3489142 113.5508014 135.7335774
  60.0553870 112.1869623 136.3215084  51.8089562 102.5320094 137.9866826
  51.1617477 103.2310044 137.8931303  52.5790578 102.9656238 138.3543075
  55.2168360 112.7968946 141.0617380  55.0653867 112.5679498 140.1447463
  55.2073040 113.7539548 141.0748725  51.9853697 110.3700859 136.0463646
  52.9145757 110.5212019 135.8732613  51.5644727 110.4584880 135.1912293
  50.7842028 114.3951523 133.8162184  50.6453114 114.0270308 134.6888122
  49.9956625 114.9099163 133.6446141  51.3790180 119.4960620 125.1587720
  51.5541936 119.0248663 125.9733343  50.6922968 120.1226386 125.3868981
  52.3347243 113.7733126 131.2051021  51.9997076 113.7333896 132.1008671
  51.8351189 113.1077842 130.7321432  46.3091487 109.1800756 136.7303603
  46.1711285 108.4480995 137.3315142  47.2196411 109.0909656 136.4487790
  55.2706435 111.1189160 121.4788081  54.6535606 110.3935989 121.3821134
  54.8022924 111.8798521 121.1355155  48.9373788 108.8920715 136.2187282
  49.6473407 108.2513908 136.1773901  48.8943096 109.1433610 137.1413463
  56.9260567 115.8288069 139.1393861  56.8673113 115.1447289 138.4724444
  57.3280085 116.5707059 138.6874487  47.6502722 105.8785933 138.0382922
  47.1140079 105.4276672 138.6904518  47.0619431 106.0131842 137.2953386
  45.9451266 122.6449983 131.9327580  46.1847864 123.2768507 132.6106599
  45.1020462 122.2938023 132.2192940  47.0604981 105.3374585 120.6009385
  46.1834447 105.2163385 120.2371632  47.5362734 104.5460663 120.3488274
  56.9277974 113.7927653 137.3707841  56.0404753 113.4553574 137.4934240
  57.4976525 113.0610684 137.6076607  38.5807121 110.1251744 130.6950893
  39.2678161 109.8113474 130.1071908  38.4255250 111.0293109 130.4218144
  43.3841843 105.0141941 135.1235916  43.3000032 104.4067611 134.3886326
  42.5624550 105.5050959 135.1245413  50.4579127 118.4529105 134.3369084
  50.3849299 119.2584077 134.8488389  50.0156521 118.6521071 133.5117106
  50.2468907 117.6900875 127.8471906  49.4636429 118.2322555 127.9410130
  50.9461652 118.2074855 128.2466147  53.5565557 103.4995505 130.4906111
  54.0534257 102.7465467 130.1707181  52.7852539 103.5359821 129.9249321
  61.4095315 109.2035870 132.1324403  61.3985191 110.0860585 131.7618336
  60.5412694 108.8507421 131.9378940  52.9177811 118.3515939 136.4927243
  53.6305783 118.9863404 136.4203144  52.4267840 118.4479805 135.6767245
  54.6395338 112.2567192 128.0644535  53.7051617 112.3768654 127.8949239
  54.8172006 111.3539659 127.8004544  50.1400526 105.6412888 130.2177796
  49.7698313 105.0883928 130.9058701  50.6359618 105.0371021 129.6652796
  58.0267889 108.0984511 128.5994569  58.4928341 108.9312503 128.5254871
  58.4775390 107.6329493 129.3039827  47.9689725 116.1010383 137.3132814
  48.6699184 116.7346866 137.4662208  47.4984839 116.4425114 136.5528453
  56.0944120 114.4428332 125.5980721  56.3703964 114.3284927 126.5074595
  55.2248619 114.0445817 125.5592894  55.9984552 100.4665098 132.6385470
  55.0847632 100.6969325 132.8067677  56.4277653 100.5503542 133.4899502
  55.7691010 108.6554990 135.1385364  55.1162461 108.9030897 134.4837817
  56.1471390 107.8419128 134.8047841  52.7298184 118.6914683 129.2413534
  52.9120579 117.8736339 129.7041287  53.5531170 118.9082375 128.8038424
  53.0640350 117.6182868 126.5028583  53.5928116 117.1075323 125.8898745
  53.3268569 117.3025399 127.3674116  51.8178583 109.3974801 141.6251401
  51.1419221 109.2968930 142.2953776  52.6406217 109.2414015 142.0887398
  43.5657443 115.6346738 134.2463916  44.1510879 114.8890425 134.3791821
  43.3682281 115.9450694 135.1300580  46.4196098 118.6697985 129.2626359
  45.7506473 119.1544113 128.7790399  46.2808967 118.9167205 130.1769737
  38.1575097 108.2052338 132.9668360  38.1959197 107.6715928 133.7605478
  37.6515390 107.6787543 132.3479337  50.5601366 120.7041728 135.8609017
  51.1119674 120.8673350 136.6258102  50.9007560 121.2946166 135.1889042
  45.5365860 103.0516878 136.4630902  45.6007186 103.9131709 136.0508300
  45.4732980 102.4390880 135.7303260  45.0118132 105.1240011 140.1103936
  45.6390171 104.7417088 140.7241461  44.1546051 104.9054213 140.4759629
  55.4112241 115.5302986 141.7157672  55.9552145 116.1432944 141.2212626
  54.8299086 116.0882564 142.2324685  41.7883675 106.9316440 126.0422291
  42.0837116 106.0227118 125.9889345  40.8871711 106.9104179 125.7203293
  53.6969754 118.6523704 132.8472699  53.5720893 117.8513444 132.3383645
  54.3548845 119.1469897 132.3586669  45.3177922 105.0072437 132.0249840
  44.5964508 105.6208404 131.8857313  46.1071178 105.5430201 131.9466486
  55.7604662 116.4532724 134.4752249  54.8134998 116.3338075 134.4030576
  56.1087435 115.5655222 134.5578511  48.1204235 102.3426863 138.2990491
  48.6438637 102.5889160 139.0616801  47.9016569 103.1746898 137.8793629
  43.5171516 104.6130538 126.1661616  43.1884223 103.7327917 125.9836722
  43.8710887 104.5578206 127.0538005  52.7651095 116.2485440 130.6756602
  52.6176058 115.3202148 130.8564172  53.5904589 116.2705531 130.1913677
  46.6313340 104.9003507 126.5337094  46.9709412 105.4289429 125.8115702
  47.0785460 105.2383914 127.3095660  56.3685217 117.0713999 131.7621474
  57.2931765 116.8656860 131.6245926  56.2000521 116.8230400 132.6710816
  49.3256780 103.2840558 135.9840162  48.9853601 102.4848371 136.3860842
  48.6195787 103.5842269 135.4116995  49.9773252 100.3689871 134.4367485
  50.7999322  99.8950349 134.3146375  50.2211316 101.1480354 134.9366171
  48.6181487 103.3978129 124.7330387  49.3389849 103.7759382 124.2294103
  47.9946791 104.1167006 124.8365365  52.7612610 104.1023278 125.6688719
  52.9776224 104.9847916 125.3677547  52.2806677 103.7109491 124.9394361
  47.5011831 107.0608991 132.2459464  47.3556412 107.3749294 133.1383745
  47.0237035 107.6793892 131.6930362  49.3608214 104.0511539 132.2940353
  49.3469783 103.1552632 131.9572651  50.0780642 104.0582203 132.9278639
  51.2134345 104.4848879 134.3393481  50.9552122 105.4065950 134.3377811
  50.6819385 104.0879314 135.0293945  56.1580533 117.5899666 127.1183566
  56.3317411 117.0246089 126.3657418  56.6509425 118.3900561 126.9363056
  41.9757493 109.6014336 135.1847125  41.4310961 110.3774144 135.3167399
  42.8536843 109.9485140 135.0266246  48.7645110 102.9325919 127.5627923
  48.8861021 102.0042566 127.7618811  48.4747152 102.9464605 126.6506239
  51.6336300 100.6180830 130.6994643  51.6557997 100.6820163 129.7446623
  52.0504359  99.7785339 130.8935149  62.0119925 110.3536089 128.7373866
  62.4551071 109.6043415 128.3392989  61.1346435 110.3446226 128.3547598
  57.1455706 116.9066431 124.2180464  57.8406611 117.5273124 124.4367779
  57.4878856 116.0561782 124.4932842  42.7623515 108.7284232 138.0777282
  42.0205251 108.8766867 138.6641912  42.4416259 108.9892497 137.2144031
  59.0447129 114.3566136 125.7467795  59.5698453 114.6953409 125.0217115
  58.9569482 113.4213152 125.5630930  50.7067178 118.2700210 137.8757672
  51.0154304 118.0249357 138.7480371  51.5042660 118.4746849 137.3876542
  50.7287790 120.4238120 130.1063048  50.2892780 119.9314498 130.7995905
  51.4795907 119.8811087 129.8655123  43.2080129 116.6149661 130.1087676
  44.0338149 116.3153432 129.7286320  42.8574181 115.8457283 130.5577465
  48.1761662 115.9676129 132.1785350  47.5541671 115.3046834 131.8787578
  48.8466529 115.9937261 131.4958998  41.4088734 114.5335987 131.0676610
  40.5720642 114.1058161 130.8860611  41.3812379 114.7268430 132.0047401
  48.2486189 104.4457917 141.7717856  48.2974345 105.3220040 141.3895625
  48.7908704 103.9035310 141.1989499  58.7341035 114.9899040 141.0518993
  57.9436579 114.9723179 140.5123492  58.4974390 115.5287334 141.8068030
  58.8538910 111.8391506 138.3651721  58.9036915 111.6741514 139.3067244
  58.7452833 110.9718765 137.9749602  47.7375169 114.5180052 125.6543810
  47.8863289 115.2015517 125.0010483  48.5441612 114.4985142 126.1693266
  56.1442673 107.8222434 139.6811028  57.0452535 107.6828899 139.3895026
  56.2190647 107.9876889 140.6209206  50.4785478 105.1989289 138.5264214
  49.6088787 105.4922855 138.2546803  50.7144958 105.7829734 139.2471478
  60.3557107 114.2588448 138.6093743  60.0641915 114.6218429 139.4457204
  59.7429238 113.5455456 138.4307075  61.5552789 111.8241328 131.1296313
  62.3899681 112.2631132 131.2933874  61.6911918 111.3479981 130.3104559
  58.6044295 109.3821063 137.0773801  59.0798417 109.5748709 136.2692652
  57.6809861 109.4380248 136.8317185  45.4927802 110.5445230 126.6604879
  45.2473844 109.6407560 126.8585089  45.6623716 110.5462380 125.7184357
  53.1824512 101.4168906 136.0429635  53.7006456 102.1529933 135.7176123
  52.8279644 101.7232899 136.8776394  44.7623449 106.2773587 124.1591041
  44.0692694 106.3517942 123.5031077  44.5175201 105.5133931 124.6812558
  53.4337106  97.8369189 131.5630531  53.7138860  97.1692378 132.1890958
  54.2187713  98.0298284 131.0505195  51.2370574 117.0128183 123.1255558
  50.6644541 117.6318370 122.6726030  51.8103368 117.5627544 123.6595480
  57.3045964 106.2586823 135.3102107  58.2563387 106.3584920 135.3314331
  57.1349415 105.4665091 135.8200191  55.3260344 103.3442406 135.4961508
  54.7310276 103.6247419 134.8007996  55.0410040 103.8336307 136.2678249
  54.4567834 117.2965333 124.2564140  55.3898507 117.2310894 124.4597016
  54.3691047 118.1321600 123.7978673  57.0855851 116.6131203 121.2168088
  57.0069482 116.2791067 122.1103846  57.9065518 117.1052971 121.2159560
  59.7834042 109.4792942 134.4244406  59.7510362 108.5408943 134.6104090
  60.3934666 109.5576979 133.6910231  51.6217373 108.3488995 120.4671610
  52.5676478 108.2195203 120.5360028  51.2431618 107.6103657 120.9441038
  59.9328530 106.2703986 134.4702689  59.4167579 105.4862442 134.2832618
  60.8168479 105.9422702 134.6349209  57.5939257 100.0145001 130.4298502
  57.3964079  99.7060090 131.3141834  58.2038963 100.7406640 130.5596432
  65.6010592 110.5408949 133.5650443  66.3313980 110.2794237 134.1258146
  64.9917537 109.8037671 133.6052511  63.6825889 108.6816812 134.1624894
  62.9559053 108.5472777 133.5541386  63.2673176 108.9893640 134.9681612
  51.5056065 112.4006741 141.9272267  52.4259075 112.5785340 142.1212314
  51.4705648 111.4562787 141.7751967  49.8060290 106.2738972 120.4026496
  48.8991745 105.9772084 120.4789209  50.0836271 105.9768790 119.5360782
  40.7238230 107.5945335 130.8525542  40.4041015 106.7410643 130.5599916
  40.1771659 107.8093913 131.6083509  44.5018138 110.3107776 134.5695048
  44.7204148 111.2424884 134.5883082  44.9143912 109.9515751 135.3549852
  51.4222356 100.8175861 126.5570737  50.6123084 100.4722946 126.9325983
  52.1106773 100.5083405 127.1458348  53.3512904  99.8953908 128.1795033
  53.9043943 100.3149362 128.8385057  53.5882990  98.9689656 128.2217989
  49.3746003 105.8840982 143.9597797  49.2742730 106.8335339 143.8909888
  49.1567545 105.5559221 143.0873867  48.5759075 103.1325907 120.5438475
  49.4378239 103.4580805 120.8034292  48.7609419 102.3457403 120.0311540
  40.5926490 111.2148247 132.8218663  39.8989962 110.8002199 132.3088618
  41.3399481 111.2568783 132.2252082  56.7291711 102.0054433 127.6873698
  56.1490380 102.6639237 127.3051750  56.4627644 101.1831778 127.2761115
  55.1795277 101.4059491 129.8895018  55.6795056 101.5176026 129.0809337
  55.8230885 101.1020544 130.5295826  49.2377273 109.3138121 142.7762859
  48.7544355 110.1138481 142.9826748  49.3238212 109.3246066 141.8230303
  42.5063233 111.1466500 130.6984678  42.4833921 111.2454188 129.7466561
  42.8163869 111.9931651 131.0201844  45.1650611 113.2042655 134.8131293
  46.1193864 113.1726598 134.7461224  44.9663134 112.7433279 135.6281519
  45.7549993 111.7743771 137.3802090  46.5742882 112.2687850 137.4036928
  46.0286801 110.8575740 137.3519658  55.5116589 104.1654524 126.7430046
  54.6242444 104.4504174 126.5250241  55.9270578 104.0048287 125.8957323
  58.8631125 104.1901045 130.4584385  59.6391515 104.6797497 130.7309002
  58.1379259 104.6159099 130.9156255  61.3003684 104.9028664 131.5158326
  61.8948175 104.6624400 130.8051634  61.3730268 104.1835795 132.1431862
  43.5200840 118.7462275 131.8301491  43.3855307 117.9862676 131.2639489
  43.1032902 119.4703175 131.3630280  54.6559803 113.9299198 120.8378066
  55.3595653 114.1349201 121.4535722  53.9322451 114.4975960 121.1027149
  55.4857613 109.6809060 126.9580336  55.4292814 110.1377611 126.1187969
  56.0385955 108.9199744 126.7803179  59.2962419 105.4698792 127.7830456
  59.0399353 105.0695427 128.6138663  58.6715287 106.1842586 127.6580595
  63.6074757 108.2094865 130.2901747  63.0474315 108.2788054 131.0633309
  63.0018260 108.0335849 129.5701243  46.6769965 119.6431592 132.0419933
  46.5602350 120.5877024 131.9398624  45.8562412 119.3405154 132.4305733
  56.5646500 114.3681728 122.8876526  57.3992104 113.9362926 122.7054001
  56.4030843 114.1963741 123.8153420  56.2192392 110.8713841 124.2532865
  56.1641196 110.7058112 123.3121309  55.5938447 111.5789874 124.4095055
  41.0084907 106.1081905 138.0794288  41.6543771 105.5980859 138.5681513
  40.8002058 106.8450587 138.6537713  53.5338299 113.1762753 143.5786428
  54.4029459 113.3503405 143.2173063  53.0545051 113.9957170 143.4562157
  49.5288518 100.3721950 123.8318184  49.5167187 101.3163790 123.9886455
  50.4211939 100.1892095 123.5377645  47.7024480 120.2959854 135.2575862
  48.6051726 120.3283464 135.5742357  47.4761850 119.3660305 135.2722198
  49.4578082 119.0490840 131.9185940  48.5073713 119.0492702 131.8050313
  49.7610568 118.3023575 131.4021975  53.3440637  96.9664727 128.0864120
  52.5773033  96.4123213 128.2320803  53.7551342  97.0386595 128.9478272
  45.3482398 103.2549522 142.1769302  46.2113860 102.8986327 142.3872626
  44.7747809 102.9163417 142.8644706  65.1930775 124.8851379 132.9831703
  65.8309185 124.7658126 132.2795043  65.0751618 125.8332223 133.0419655
  62.0020481 124.8378807 132.9193227  61.6638993 124.7219872 132.0313762
  62.8710250 124.4369972 132.8994234  57.8607297 126.6914283 128.9090118
  57.2972162 126.6004220 128.1406406  57.7459692 125.8714188 129.3892611
  62.4840264 125.9913659 138.8779433  62.4728905 125.5966457 138.0059937
  62.6460904 125.2579731 139.4713204  55.4071729 128.1865475 131.7474339
  56.1993021 127.8456300 131.3320638  55.6468379 128.2960450 132.6676492
  63.4406856 130.3585251 124.2204583  62.7894836 130.9439331 123.8338597
  64.2351219 130.8891446 124.2799621  57.3662483 127.4474388 124.6191718
  58.1393359 126.9003375 124.4804593  57.7187882 128.3118637 124.8306179
  59.2047525 128.7750770 137.8258617  58.9137391 129.6796401 137.7105283
  59.8404510 128.8167298 138.5402687  60.1303732 126.1527619 134.4159977
  60.7267305 125.9283641 133.7016940  60.1878704 125.4112364 135.0185424
  59.7028761 123.6067054 122.2510168  59.9554281 123.0848576 121.4893631
  58.7653320 123.4433200 122.3536851  64.7472044 122.6102833 130.0584911
  65.5335133 122.1922256 129.7075328  65.0110748 123.5148925 130.2266559
  64.9182121 128.0475683 124.7573568  64.2827954 128.1210309 125.4694472
  64.5879527 128.6369282 124.0792647  70.1480471 122.5478066 130.9617889
  70.8805643 121.9777283 131.1955719  69.3919826 122.1599666 131.4024395
  59.4225049 125.5095160 124.4534543  59.3061308 124.8340064 125.1215627
  59.5327309 125.0227534 123.6366696  61.7656590 124.9705307 128.1581232
  61.4014798 124.4435928 128.8694153  62.6223706 124.5803776 127.9847717
  67.6705891 116.2599640 135.4212498  67.3389216 117.1295051 135.1973713
  67.0751504 115.9435924 136.1006528  61.4062077 119.9995207 123.1542580
  61.5736480 120.8675443 123.5213051  61.2159246 120.1622489 122.2303870
  64.1637411 128.4612186 134.8208411  63.8638134 129.3637225 134.7124218
  63.8188470 128.1944369 135.6729564  57.6149892 124.9125983 130.8545115
  56.6900389 124.7802197 131.0622807  57.8634305 125.6920202 131.3515057
  67.5634554 120.9794726 132.5005848  66.6551432 120.9110135 132.2064609
  67.5122150 121.4566671 133.3287673  61.3851298 122.4552865 124.1389247
  61.2650923 122.9009915 124.9774727  60.6903887 122.8038182 123.5802785
  54.9758703 124.5559256 131.6888904  55.1051084 124.8093735 132.6028316
  54.2956154 125.1486964 131.3693559  59.1458190 135.2256506 127.7879378
  59.0682220 136.1764331 127.8667859  58.5419834 134.8802379 128.4454305
  61.6375420 122.3984372 140.4440745  60.8608754 122.9578292 140.4343610
  62.2765983 122.8841155 140.9655615  69.4296201 119.1811165 134.2783722
  68.7870581 119.4743698 133.6323516  68.9251129 119.0664085 135.0836919
  67.0836364 122.9274338 124.9669581  67.9954221 123.1601724 124.7917279
  66.5746011 123.5111382 124.4044660  59.8921792 125.2069825 140.0058712
  60.6336477 125.7454869 139.7293536  59.1858778 125.8336114 140.1630264
  65.3677132 127.3498966 138.6030874  65.7760488 126.9081376 137.8585506
  64.6454394 126.7751593 138.8565067  61.7208202 122.2871572 135.9764431
  62.5669397 122.7110986 136.1199080  61.6606840 121.6305197 136.6702994
  65.6905947 127.9100156 132.3583163  65.0614809 128.0745870 131.6559230
  65.3031609 128.3241766 133.1294127  69.5695179 128.8454594 129.7127526
  68.8846217 129.2253495 129.1624560  69.6539028 129.4549921 130.4459474
  64.8707647 119.9475941 137.6345604  64.6268579 120.7018001 137.0979880
  65.1467578 120.3261288 138.4692851  66.8246110 126.4914553 136.3122870
  67.0363005 127.1346313 135.6357251  66.7775858 125.6576870 135.8444800
  64.4272339 119.1032374 133.2159442  63.5656818 119.4013627 133.5076180
  64.4534774 119.3202773 132.2840475  61.2433909 127.6474564 129.6233248
  61.7072254 127.9262267 128.8337870  60.9790707 126.7458009 129.4406338
  58.1357990 127.1946046 132.5613011  58.7059347 127.6233314 131.9230495
  58.7266102 126.9128630 133.2597197  60.1802795 123.7697717 126.4322813
  60.8826838 124.2218760 126.8996739  59.8483423 123.1281535 127.0602706
  58.6283156 122.3609473 140.8074022  57.9981817 123.0425754 141.0409419
  58.5219244 122.2492555 139.8627160  53.9228129 122.0281269 131.7339946
  53.1327183 122.2838798 131.2580057  54.4139376 122.8429607 131.8391987
  67.9391938 129.3686508 134.4845227  68.7609382 128.9666696 134.2027909
  67.9354341 129.2654743 135.4361343  55.8742874 122.3925849 128.6923423
  55.0774037 122.5044543 129.2106919  55.6468466 122.7312501 127.8264314
  61.7048542 128.9170552 136.6405938  61.7692974 129.3790959 137.4764110
  60.9959465 128.2867917 136.7688248  52.2065832 122.2811760 134.1654937
  52.4573870 123.1658770 134.4312513  52.7425380 122.1016361 133.3930029
  76.0297931 125.7125257 130.8330199  75.2761640 125.1432655 130.6774203
  76.1645472 125.6787921 131.7800833  61.4196559 130.5838659 126.5084918
  61.2842234 131.4290195 126.9369766  61.9606372 130.7857937 125.7450852
  57.9063899 116.6630239 143.1699273  57.5130844 116.1096438 143.8446918
  58.7230039 116.9740818 143.5605791  54.8725957 128.1014097 127.0812843
  55.3850477 128.8957348 127.2318408  55.5248669 127.4040388 127.0146445
  56.6820841 131.2179854 129.1635596  56.8587470 132.1397818 128.9756580
  57.4777675 130.9038273 129.5929976  60.8231860 118.0788118 140.7619530
  61.5641573 118.6795271 140.6823992  61.0549783 117.3365756 140.2037572
  55.9673198 123.2644485 139.0397760  55.8526713 122.3629743 139.3404858
  55.1117716 123.5108182 138.6882576  63.0465036 131.2062226 140.6385260
  62.6028890 130.4198604 140.3206165  63.7082249 131.3941376 139.9729151
  57.8052157 132.7358027 135.1645939  58.3559582 132.6075091 134.3922933
  56.9663633 133.0352916 134.8140831  65.1446274 131.4865026 138.6666661
  65.1264749 132.3073907 138.1746931  66.0666194 131.3619101 138.8916803
  61.6019328 129.0009155 139.5090170  62.1347665 128.2397443 139.2789478
  61.0733409 128.7082807 140.2514324  64.7689023 114.1069221 135.0383812
  64.4253292 114.9970863 134.9622922  65.1367985 113.9170879 134.1753397
  52.8374873 126.4302752 127.8572414  53.6750095 126.8399760 127.6406121
  53.0153141 125.4902194 127.8272608  64.7339306 124.0977832 123.5456247
  64.2185929 124.8682437 123.7844634  64.4616614 123.4242968 124.1689308
  62.3186417 118.9427533 128.6041485  61.4628013 118.5534383 128.4247124
  62.7313368 119.0219494 127.7441271  63.8485563 116.4773876 133.0033045
  63.3450359 116.4404011 132.1900850  64.1416170 117.3866619 133.0629701
  60.0928449 116.5612606 132.0099227  60.9581446 116.3655415 131.6505116
  60.1605958 116.3322958 132.9368583  69.7073580 126.8510187 125.4809420
  68.9303022 126.5121346 125.0364582  70.3865061 126.8562810 124.8064385
  64.5225609 121.9704924 125.3716028  64.2175744 122.2851073 126.2226171
  65.4756051 122.0486344 125.4143361  62.9672041 128.1295148 127.0208982
  62.4393402 127.3947907 126.7082219  62.4659543 128.9069824 126.7748950
  67.9464887 126.3244168 132.1376028  67.2888561 127.0143430 132.2256157
  68.7505286 126.7140600 132.4810014  57.6990768 118.7914814 129.3815593
  58.2734520 118.5689995 128.6488786  58.2861751 118.8603508 130.1344195
  66.7570345 124.6788541 130.1879970  67.2702227 125.3118533 130.6901680
  67.4071569 124.0789736 129.8223330  58.0260355 120.8219275 123.4011479
  57.1897668 121.1593961 123.7220753  57.8865125 120.6868255 122.4638616
  60.0013436 115.6656063 128.1090663  59.3477848 115.3505080 127.4847278
  59.9593910 115.0431803 128.8350486  61.1124641 125.9475358 120.0243955
  60.2051703 125.7164611 120.2235104  61.6095673 125.1512977 120.2117936
  64.0192720 134.6572865 122.9440641  63.3454418 134.9604562 123.5525599
  64.4058542 135.4601945 122.5946098  63.2351176 122.1537996 132.4338310
  62.3173738 122.3752943 132.2759998  63.6511320 122.2284307 131.5750018
  64.0186224 123.5529412 127.5640991  64.7658043 124.0650809 127.2548113
  64.2877814 123.2313465 128.4245384  62.2912874 126.0487953 124.5467945
  61.3824093 125.7646986 124.6440415  62.3207958 126.4687031 123.6871252
  67.5232142 129.6594542 128.3159112  67.0694469 128.8185452 128.3724303
  66.8926108 130.2955941 128.6533893  66.4665061 120.5886528 129.5459780
  65.7287818 120.0763914 129.8770023  66.7191835 120.1486910 128.7343057
  65.9665081 131.4971039 129.2508931  66.2588055 132.0576096 128.5321296
  66.4763701 131.7899600 130.0062090  66.5676688 113.3662780 130.1401549
  66.8735565 112.5060144 129.8527464  67.2929293 113.9580400 129.9400543
  52.8601045 123.7693467 128.5283147  52.6625444 123.1762828 127.8034214
  52.3047709 123.4645677 129.2459086  60.8397768 123.6616573 130.6477740
  60.8946378 122.7090410 130.5720217  60.0288970 123.8176012 131.1319039
  61.9888962 127.5896696 121.8856024  61.5508392 126.8732555 121.4261661
  62.7299403 127.8172811 121.3241115  58.7790128 122.2793633 128.4068119
  57.9657994 122.5787804 128.8133311  59.2749122 121.8849322 129.1242601
  60.9298706 132.2751390 130.3402384  60.8874885 132.5012236 129.4110916
  61.8461405 132.0414765 130.4888185  64.3764340 122.7435458 137.2383013
  64.7313728 122.9706931 138.0977479  65.0236471 123.0753834 136.6160268
  70.1062077 125.8653893 127.9432342  69.9679975 126.0555489 127.0153531
  69.7498296 126.6273276 128.4000393  58.2704203 119.8511989 134.0229354
  58.9103582 119.7100748 133.3252317  57.4381733 119.5646502 133.6467956
  70.1331456 127.9330420 132.9543614  70.5667963 127.8405710 133.8026668
  70.8463037 127.9087921 132.3163630  59.0464507 129.1514419 130.1364347
  59.8405105 128.6564739 129.9346922  58.3356199 128.6232282 129.7732052
  63.8659351 131.5332515 134.4876714  63.9196374 132.1023451 135.2554430
  62.9974133 131.7034400 134.1230751  55.3547270 123.2957501 126.2124099
  54.4244858 123.2341956 126.4294061  55.4504742 122.7733454 125.4160740
  55.2732819 119.8212314 128.8002341  55.5339637 120.7357647 128.6911501
  56.0949992 119.3536756 128.9498954  56.7457745 121.2350071 135.9701165
  57.4180798 121.0267433 135.3213814  55.9187531 121.0372157 135.5306398
  70.9947006 127.9754121 135.4876499  71.1882896 128.8799932 135.7335774
  70.8947624 127.5161540 136.3215084  62.6483317 117.8612012 137.9866826
  62.0011232 118.5601961 137.8931303  63.4184332 118.2948156 138.3543075
  66.0562115 128.1260864 141.0617380  65.9047621 127.8971416 140.1447463
  66.0466794 129.0831465 141.0748725  62.8247451 125.6992777 136.0463646
  63.7539511 125.8503936 135.8732613  62.4038481 125.7876797 135.1912293
  61.6235783 129.7243441 133.8162184  61.4846869 129.3562225 134.6888122
  60.8350379 130.2391080 133.6446141  62.2183935 134.8252538 125.1587720
  62.3935690 134.3540581 125.9733343  61.5316723 135.4518304 125.3868981
  63.1740998 129.1025044 131.2051021  62.8390831 129.0625814 132.1008671
  62.6744944 128.4369760 130.7321432  57.1485242 124.5092674 136.7303603
  57.0105040 123.7772913 137.3315142  58.0590165 124.4201574 136.4487790
  66.1100190 126.4481078 121.4788081  65.4929360 125.7227906 121.3821134
  65.6416678 127.2090438 121.1355155  59.7767543 124.2212633 136.2187282
  60.4867161 123.5805825 136.1773901  59.7336851 124.4725528 137.1413463
  67.7654321 131.1579986 139.1393861  67.7066867 130.4739207 138.4724444
  68.1673840 131.8998976 138.6874487  58.4896477 121.2077851 138.0382922
  57.9533834 120.7568589 138.6904518  57.9013185 121.3423760 137.2953386
  56.7845020 137.9741900 131.9327580  57.0241618 138.6060424 132.6106599
  55.9414217 137.6229940 132.2192940  57.8998736 120.6666502 120.6009385
  57.0228202 120.5455303 120.2371632  58.3756489 119.8752581 120.3488274
  67.7671729 129.1219570 137.3707841  66.8798507 128.7845492 137.4934240
  68.3370280 128.3902602 137.6076607  49.4200876 125.4543662 130.6950893
  50.1071916 125.1405392 130.1071908  49.2649004 126.3585027 130.4218144
  54.2235598 120.3433859 135.1235916  54.1393787 119.7359528 134.3886326
  53.4018304 120.8342877 135.1245413  61.2972882 133.7821023 134.3369084
  61.2243053 134.5875994 134.8488389  60.8550275 133.9812989 133.5117106
  61.0862662 133.0192793 127.8471906  60.3030183 133.5614473 127.9410130
  61.7855407 133.5366772 128.2466147  64.3959312 118.8287422 130.4906111
  64.8928011 118.0757385 130.1707181  63.6246293 118.8651739 129.9249321
  72.2489069 124.5327788 132.1324403  72.2378945 125.4152503 131.7618336
  71.3806449 124.1799339 131.9378940  63.7571565 133.6807857 136.4927243
  64.4699538 134.3155322 136.4203144  63.2661594 133.7771723 135.6767245
  65.4789092 127.5859109 128.0644535  64.5445371 127.7060572 127.8949239
  65.6565761 126.6831576 127.8004544  60.9794280 120.9704805 130.2177796
  60.6092068 120.4175846 130.9058701  61.4753373 120.3662939 129.6652796
  68.8661644 123.4276429 128.5994569  69.3322096 124.2604420 128.5254871
  69.3169144 122.9621410 129.3039827  58.8083479 131.4302300 137.3132814
  59.5092938 132.0638783 137.4662208  58.3378594 131.7717032 136.5528453
  66.9337875 129.7720250 125.5980721  67.2097719 129.6576845 126.5074595
  66.0642374 129.3737735 125.5592894  66.8378306 115.7957016 132.6385470
  65.9241386 116.0261243 132.8067677  67.2671408 115.8795460 133.4899502
  66.6084765 123.9846908 135.1385364  65.9556215 124.2322815 134.4837817
  66.9865145 123.1711046 134.8047841  63.5691939 134.0206601 129.2413534
  63.7514333 133.2028257 129.7041287  64.3924925 134.2374293 128.8038424
  63.9034104 132.9474786 126.5028583  64.4321871 132.4367241 125.8898745
  64.1662324 132.6317316 127.3674116  62.6572338 124.7266719 141.6251401
  61.9812975 124.6260848 142.2953776  63.4799972 124.5705932 142.0887398
  54.4051197 130.9638655 134.2463916  54.9904634 130.2182343 134.3791821
  54.2076036 131.2742612 135.1300580  57.2589852 133.9989903 129.2626359
  56.5900228 134.4836030 128.7790399  57.1202722 134.2459123 130.1769737
  48.9968852 123.5344255 132.9668360  49.0352951 123.0007846 133.7605478
  48.4909145 123.0079461 132.3479337  61.3995121 136.0333646 135.8609017
  61.9513429 136.1965268 136.6258102  61.7401314 136.6238084 135.1889042
  56.3759614 118.3808796 136.4630902  56.4400941 119.2423627 136.0508300
  56.3126734 117.7682798 135.7303260  55.8511887 120.4531929 140.1103936
  56.4783925 120.0709006 140.7241461  54.9939805 120.2346130 140.4759629
  66.2505995 130.8594904 141.7157672  66.7945899 131.4724862 141.2212626
  65.6692840 131.4174482 142.2324685  52.6277429 122.2608358 126.0422291
  52.9230870 121.3519036 125.9889345  51.7265465 122.2396097 125.7203293
  64.5363508 133.9815622 132.8472699  64.4114648 133.1805362 132.3383645
  65.1942599 134.4761815 132.3586669  56.1571676 120.3364354 132.0249840
  55.4358262 120.9500322 131.8857313  56.9464932 120.8722119 131.9466486
  66.5998417 131.7824642 134.4752249  65.6528752 131.6629993 134.4030576
  66.9481190 130.8947140 134.5578511  58.9597990 117.6718781 138.2990491
  59.4832392 117.9181077 139.0616801  58.7410323 118.5038816 137.8793629
  54.3565271 119.9422455 126.1661616  54.0277977 119.0619834 125.9836722
  54.7104642 119.8870124 127.0538005  63.6044850 131.5777358 130.6756602
  63.4569812 130.6494065 130.8564172  64.4298343 131.5997449 130.1913677
  57.4707094 120.2295425 126.5337094  57.8103167 120.7581346 125.8115702
  57.9179215 120.5675831 127.3095660  67.2078972 132.4005917 131.7621474
  68.1325519 132.1948778 131.6245926  67.0394275 132.1522318 132.6710816
  60.1650535 118.6132476 135.9840162  59.8247355 117.8140289 136.3860842
  59.4589541 118.9134187 135.4116995  60.8167007 115.6981788 134.4367485
  61.6393076 115.2242266 134.3146375  61.0605070 116.4772272 134.9366171
  59.4575241 118.7270047 124.7330387  60.1783604 119.1051299 124.2294103
  58.8340545 119.4458923 124.8365365  63.6006364 119.4315196 125.6688719
  63.8169979 120.3139834 125.3677547  63.1200431 119.0401409 124.9394361
  58.3405586 122.3900909 132.2459464  58.1950166 122.7041212 133.1383745
  57.8630789 123.0085809 131.6930362  60.2001968 119.3803457 132.2940353
  60.1863537 118.4844550 131.9572651  60.9174397 119.3874121 132.9278639
  62.0528099 119.8140797 134.3393481  61.7945877 120.7357868 134.3377811
  61.5213139 119.4171232 135.0293945  66.9974288 132.9191584 127.1183566
  67.1711165 132.3538007 126.3657418  67.4903179 133.7192479 126.9363056
  52.8151248 124.9306253 135.1847125  52.2704716 125.7066061 135.3167399
  53.6930598 125.2777058 135.0266246  59.6038864 118.2617837 127.5627923
  59.7254776 117.3334483 127.7618811  59.3140907 118.2756523 126.6506239
  62.4730055 115.9472748 130.6994643  62.4951752 116.0112081 129.7446623
  62.8898114 115.1077256 130.8935149  72.8513679 125.6828007 128.7373866
  73.2944825 124.9335332 128.3392989  71.9740189 125.6738143 128.3547598
  67.9849460 132.2358349 124.2180464  68.6800365 132.8565041 124.4367779
  68.3272611 131.3853700 124.4932842  53.6017270 124.0576150 138.0777282
  52.8599006 124.2058785 138.6641912  53.2810014 124.3184415 137.2144031
  69.8840883 129.6858054 125.7467795  70.4092208 130.0245327 125.0217115
  69.7963236 128.7505069 125.5630930  61.5460932 133.5992128 137.8757672
  61.8548059 133.3541275 138.7480371  62.3436414 133.8038766 137.3876542
  61.5681544 135.7530037 130.1063048  61.1286535 135.2606416 130.7995905
  62.3189661 135.2103005 129.8655123  54.0473883 131.9441578 130.1087676
  54.8731903 131.6445350 129.7286320  53.6967935 131.1749201 130.5577465
  59.0155416 131.2968046 132.1785350  58.3935426 130.6338751 131.8787578
  59.6860283 131.3229178 131.4958998  52.2482488 129.8627905 131.0676610
  51.4114397 129.4350079 130.8860611  52.2206134 130.0560348 132.0047401
  59.0879944 119.7749834 141.7717856  59.1368099 120.6511957 141.3895625
  59.6302458 119.2327228 141.1989499  69.5734790 130.3190958 141.0518993
  68.7830333 130.3015097 140.5123492  69.3368144 130.8579251 141.8068030
  69.6932665 127.1683424 138.3651721  69.7430670 127.0033432 139.3067244
  69.5846588 126.3010683 137.9749602  58.5768923 129.8471970 125.6543810
  58.7257044 130.5307434 125.0010483  59.3835367 129.8277060 126.1693266
  66.9836427 123.1514352 139.6811028  67.8846290 123.0120817 139.3895026
  67.0584402 123.3168807 140.6209206  61.3179232 120.5281207 138.5264214
  60.4482542 120.8214773 138.2546803  61.5538713 121.1121652 139.2471478
  71.1950861 129.5880366 138.6093743  70.9035670 129.9510346 139.4457204
  70.5822993 128.8747374 138.4307075  72.3946544 127.1533245 131.1296313
  73.2293435 127.5923049 131.2933874  72.5305673 126.6771899 130.3104559
  69.4438050 124.7112980 137.0773801  69.9192171 124.9040627 136.2692652
  68.5203615 124.7672166 136.8317185  56.3321556 125.8737147 126.6604879
  56.0867598 124.9699477 126.8585089  56.5017471 125.8754298 125.7184357
  64.0218266 116.7460824 136.0429635  64.5400210 117.4821851 135.7176123
  63.6673399 117.0524817 136.8776394  55.6017204 121.6065505 124.1591041
  54.9086449 121.6809860 123.5031077  55.3568956 120.8425849 124.6812558
  64.2730860 113.1661106 131.5630531  64.5532614 112.4984295 132.1890958
  65.0581467 113.3590202 131.0505195  62.0764329 132.3420100 123.1255558
  61.5038296 132.9610287 122.6726030  62.6497122 132.8919462 123.6595480
  68.1439719 121.5878740 135.3102107  69.0957142 121.6876838 135.3314331
  67.9743169 120.7957009 135.8200191  66.1654098 118.6734324 135.4961508
  65.5704030 118.9539336 134.8007996  65.8803795 119.1628224 136.2678249
  65.2961589 132.6257250 124.2564140  66.2292262 132.5602812 124.4597016
  65.2084801 133.4613517 123.7978673  67.9249605 131.9423121 121.2168088
  67.8463237 131.6082984 122.1103846  68.7459272 132.4344889 121.2159560
  70.6227796 124.8084860 134.4244406  70.5904117 123.8700861 134.6104090
  71.2328420 124.8868897 133.6910231  62.4611127 123.6780913 120.4671610
  63.4070232 123.5487121 120.5360028  62.0825372 122.9395575 120.9441038
  70.7722285 121.5995903 134.4702689  70.2561334 120.8154360 134.2832618
  71.6562233 121.2714620 134.6349209  68.4333012 115.3436919 130.4298502
  68.2357833 115.0352007 131.3141834  69.0432717 116.0698558 130.5596432
  76.4404346 125.8700867 133.5650443  77.1707735 125.6086155 134.1258146
  75.8311292 125.1329589 133.6052511  74.5219643 124.0108729 134.1624894
  73.7952807 123.8764694 133.5541386  74.1066930 124.3185558 134.9681612
  62.3449820 127.7298659 141.9272267  63.2652829 127.9077258 142.1212314
  62.3099403 126.7854705 141.7751967  60.6454044 121.6030889 120.4026496
  59.7385500 121.3064002 120.4789209  60.9230025 121.3060707 119.5360782
  51.5631985 122.9237253 130.8525542  51.2434769 122.0702561 130.5599916
  51.0165413 123.1385831 131.6083509  55.3411892 125.6399694 134.5695048
  55.5597902 126.5716802 134.5883082  55.7537666 125.2807668 135.3549852
  62.2616110 116.1467779 126.5570737  61.4516839 115.8014864 126.9325983
  62.9500527 115.8375323 127.1458348  64.1906658 115.2245826 128.1795033
  64.7437697 115.6441279 128.8385057  64.4276745 114.2981574 128.2217989
  60.2139758 121.2132900 143.9597797  60.1136485 122.1627257 143.8909888
  59.9961300 120.8851138 143.0873867  59.4152829 118.4617825 120.5438475
  60.2771993 118.7872723 120.8034292  59.6003173 117.6749321 120.0311540
  51.4320245 126.5440164 132.8218663  50.7383716 126.1294117 132.3088618
  52.1793236 126.5860701 132.2252082  67.5685466 117.3346351 127.6873698
  66.9884135 117.9931155 127.3051750  67.3021398 116.5123696 127.2761115
  66.0189032 116.7351409 129.8895018  66.5188810 116.8467943 129.0809337
  66.6624640 116.4312462 130.5295826  60.0771028 124.6430038 142.7762859
  59.5938109 125.4430399 142.9826748  60.1631967 124.6537983 141.8230303
  53.3456987 126.4758418 130.6984678  53.3227675 126.5746105 129.7466561
  53.6557624 127.3223569 131.0201844  56.0044365 128.5334573 134.8131293
  56.9587619 128.5018515 134.7461224  55.8056889 128.0725197 135.6281519
  56.5943747 127.1035689 137.3802090  57.4136636 127.5979768 137.4036928
  56.8680555 126.1867657 137.3519658  66.3510344 119.4946441 126.7430046
  65.4636199 119.7796092 126.5250241  66.7664333 119.3340205 125.8957323
  69.7024880 119.5192962 130.4584385  70.4785270 120.0089415 130.7309002
  68.9773014 119.9451017 130.9156255  72.1397438 120.2320582 131.5158326
  72.7341929 119.9916318 130.8051634  72.2124022 119.5127712 132.1431862
  54.3594594 134.0754193 131.8301491  54.2249062 133.3154593 131.2639489
  53.9426656 134.7995092 131.3630280  65.4953557 129.2591116 120.8378066
  66.1989407 129.4641119 121.4535722  64.7716206 129.8267878 121.1027149
  66.3251367 125.0100977 126.9580336  66.2686569 125.4669529 126.1187969
  66.8779710 124.2491662 126.7803179  70.1356173 120.7990709 127.7830456
  69.8793107 120.3987345 128.6138663  69.5109041 121.5134503 127.6580595
  74.4468511 123.5386783 130.2901747  73.8868069 123.6079972 131.0633309
  73.8412014 123.3627767 129.5701243  57.5163720 134.9723510 132.0419933
  57.3996104 135.9168942 131.9398624  56.6956166 134.6697071 132.4305733
  67.4040254 129.6973645 122.8876526  68.2385858 129.2654844 122.7054001
  67.2424597 129.5255659 123.8153420  67.0586147 126.2005759 124.2532865
  67.0034950 126.0350030 123.3121309  66.4332202 126.9081792 124.4095055
  51.8478662 121.4373823 138.0794288  52.4937525 120.9272777 138.5681513
  51.6395813 122.1742505 138.6537713  64.3732054 128.5054671 143.5786428
  65.2423213 128.6795323 143.2173063  63.8938805 129.3249087 143.4562157
  60.3682272 115.7013868 123.8318184  60.3560942 116.6455708 123.9886455
  61.2605694 115.5184013 123.5377645  58.5418234 135.6251772 135.2575862
  59.4445481 135.6575382 135.5742357  58.3155604 134.6952222 135.2722198
  60.2971836 134.3782758 131.9185940  59.3467467 134.3784620 131.8050313
  60.6004322 133.6315493 131.4021975  64.1834392 112.2956644 128.0864120
  63.4166787 111.7415131 128.2320803  64.5945097 112.3678513 128.9478272
  56.1876153 118.5841440 142.1769302  57.0507614 118.2278245 142.3872626
  55.6141563 118.2455335 142.8644706  76.0324530 140.2143296 132.9831703
  76.6702940 140.0950044 132.2795043  75.9145372 141.1624140 133.0419655
  72.8414236 140.1670725 132.9193227  72.5032747 140.0511789 132.0313762
  73.7104004 139.7661890 132.8994234  68.7001052 142.0206201 128.9090118
  68.1365917 141.9296138 128.1406406  68.5853447 141.2006105 129.3892611
  73.3234019 141.3205576 138.8779433  73.3122660 140.9258375 138.0059937
  73.4854658 140.5871649 139.4713204  66.2465483 143.5157393 131.7474339
  67.0386775 143.1748217 131.3320638  66.4862134 143.6252368 132.6676492
  74.2800610 145.6877169 124.2204583  73.6288590 146.2731249 123.8338597
  75.0744973 146.2183364 124.2799621  68.2056237 142.7766306 124.6191718
  68.9787113 142.2295293 124.4804593  68.5581636 143.6410555 124.8306179
  70.0441280 144.1042688 137.8258617  69.7531146 145.0088319 137.7105283
  70.6798264 144.1459216 138.5402687  70.9697487 141.4819537 134.4159977
  71.5661059 141.2575559 133.7016940  71.0272458 140.7404282 135.0185424
  70.5422515 138.9358972 122.2510168  70.7948036 138.4140493 121.4893631
  69.6047074 138.7725117 122.3536851  75.5865798 137.9394750 130.0584911
  76.3728887 137.5214173 129.7075328  75.8504502 138.8440842 130.2266559
  75.7575875 143.3767601 124.7573568  75.1221708 143.4502227 125.4694472
  75.4273282 143.9661199 124.0792647  80.9874225 137.8769984 130.9617889
  81.7199397 137.3069200 131.1955719  80.2313581 137.4891584 131.4024395
  70.2618804 140.8387078 124.4534543  70.1455062 140.1631981 125.1215627
  70.3721064 140.3519452 123.6366696  72.6050345 140.2997225 128.1581232
  72.2408552 139.7727846 128.8694153  73.4617461 139.9095694 127.9847717
  78.5099646 131.5891558 135.4212498  78.1782970 132.4586969 135.1973713
  77.9145259 131.2727842 136.1006528  72.2455832 135.3287125 123.1542580
  72.4130234 136.1967361 123.5213051  72.0553001 135.4914406 122.2303870
  75.0031165 143.7904104 134.8208411  74.7031888 144.6929142 134.7124218
  74.6582225 143.5236287 135.6729564  68.4543647 140.2417900 130.8545115
  67.5294143 140.1094115 131.0622807  68.7028060 141.0212120 131.3515057
  78.4028309 136.3086644 132.5005848  77.4945186 136.2402052 132.2064609
  78.3515905 136.7858589 133.3287673  72.2245053 137.7844782 124.1389247
  72.1044678 138.2301833 124.9774727  71.5297641 138.1330100 123.5802785
  65.8152458 139.8851174 131.6888904  65.9444839 140.1385653 132.6028316
  65.1349909 140.4778882 131.3693559  69.9851945 150.5548424 127.7879378
  69.9075975 151.5056249 127.8667859  69.3813588 150.2094296 128.4454305
  72.4769175 137.7276289 140.4440745  71.7002509 138.2870210 140.4343610
  73.1159738 138.2133072 140.9655615  80.2689955 134.5103082 134.2783722
  79.6264335 134.8035615 133.6323516  79.7644884 134.3956003 135.0836919
  77.9230119 138.2566255 124.9669581  78.8347975 138.4893642 124.7917279
  77.4139766 138.8403300 124.4044660  70.7315547 140.5361743 140.0058712
  71.4730231 141.0746787 139.7293536  70.0252532 141.1628031 140.1630264
  72.5601957 137.6163490 135.9764431  73.4063152 138.0402904 136.1199080
  72.5000594 136.9597114 136.6702994  76.5299701 143.2392074 132.3583163
  75.9008564 143.4037788 131.6559230  76.1425363 143.6533683 133.1294127
  80.4088933 144.1746512 129.7127526  79.7239971 144.5545413 129.1624560
  80.4932782 144.7841838 130.4459474  75.7101402 135.2767858 137.6345604
  75.4662334 136.0309919 137.0979880  75.9861332 135.6553206 138.4692851
  77.6639865 141.8206471 136.3122870  77.8756760 142.4638231 135.6357251
  77.6169613 140.9868787 135.8444800  75.2666094 134.4324291 133.2159442
  74.4050573 134.7305545 133.5076180  75.2928528 134.6494690 132.2840475
  72.0827663 142.9766482 129.6233248  72.5466009 143.2554185 128.8337870
  71.8184461 142.0749926 129.4406338  68.9751744 142.5237963 132.5613011
  69.5453101 142.9525232 131.9230495  69.5659856 142.2420548 133.2597197
  71.0196549 139.0989634 126.4322813  71.7220592 139.5510678 126.8996739
  70.6877178 138.4573453 127.0602706  69.4676911 137.6901391 140.8074022
  68.8375571 138.3717672 141.0409419  69.3612999 137.5784473 139.8627160
  64.7621883 137.3573187 131.7339946  63.9720937 137.6130715 131.2580057
  65.2533130 138.1721525 131.8391987  78.7785693 144.6978426 134.4845227
  79.6003136 144.2958613 134.2027909  78.7748096 144.5946660 135.4361343
  66.7136628 137.7217766 128.6923423  65.9167792 137.8336460 129.2106919
  66.4862221 138.0604418 127.8264314  72.5442296 144.2462469 136.6405938
  72.6086729 144.7082877 137.4764110  71.8353220 143.6159834 136.7688248
  63.0459586 137.6103677 134.1654937  63.2967625 138.4950687 134.4312513
  63.5819134 137.4308279 133.3930029  86.8691686 141.0417175 130.8330199
  86.1155394 140.4724573 130.6774203  87.0039227 141.0079839 131.7800833
  72.2590314 145.9130577 126.5084918  72.1235989 146.7582113 126.9369766
  72.8000126 146.1149855 125.7450852  68.7457653 131.9922157 143.1699273
  68.3524599 131.4388355 143.8446918  69.5623794 132.3032735 143.5605791
  65.7119711 143.4306015 127.0812843  66.2244232 144.2249265 127.2318408
  66.3642424 142.7332305 127.0146445  67.5214596 146.5471771 129.1635596
  67.6981224 147.4689736 128.9756580  68.3171429 146.2330190 129.5929976
  71.6625614 133.4080036 140.7619530  72.4035328 134.0087189 140.6823992
  71.8943537 132.6657674 140.2037572  66.8066952 138.5936403 139.0397760
  66.6920468 137.6921660 139.3404858  65.9511470 138.8400100 138.6882576
  68.6445911 148.0649945 135.1645939  69.1953336 147.9367008 134.3922933
  67.8057387 148.3644834 134.8140831  75.6082777 129.4361139 135.0383812
  75.2647047 130.3262780 134.9622922  75.9761740 129.2462796 134.1753397
  63.6768628 141.7594669 127.8572414  64.5143850 142.1691678 127.6406121
  63.8546896 140.8194111 127.8272608  75.5733060 139.4269750 123.5456247
  75.0579683 140.1974355 123.7844634  75.3010368 138.7534886 124.1689308
  73.1580171 134.2719451 128.6041485  72.3021767 133.8826301 128.4247124
  73.5707123 134.3511411 127.7441271  74.6879318 131.8065794 133.0033045
  74.1844113 131.7695929 132.1900850  74.9809925 132.7158537 133.0629701
  70.9322204 131.8904524 132.0099227  71.7975200 131.6947332 131.6505116
  70.9999713 131.6614875 132.9368583  80.5467334 142.1802105 125.4809420
  79.7696777 141.8413264 125.0364582  81.2258815 142.1854728 124.8064385
  75.3619363 137.2996842 125.3716028  75.0569499 137.6142991 126.2226171
  76.3149805 137.3778262 125.4143361  73.8065795 143.4587065 127.0208982
  73.2787157 142.7239825 126.7082219  73.3053298 144.2361742 126.7748950
  78.7858641 141.6536086 132.1376028  78.1282316 142.3435347 132.2256157
  79.5899040 142.0432518 132.4810014  68.5384523 134.1206732 129.3815593
  69.1128275 133.8981913 128.6488786  69.1255505 134.1895426 130.1344195
  77.5964100 140.0080458 130.1879970  78.1095982 140.6410450 130.6901680
  78.2465324 139.4081654 129.8223330  68.8654110 136.1511193 123.4011479
  68.0291422 136.4885879 123.7220753  68.7258879 136.0160172 122.4638616
  70.8407190 130.9947980 128.1090663  70.1871603 130.6796998 127.4847278
  70.7987665 130.3723721 128.8350486  71.9518395 141.2767276 120.0243955
  71.0445457 141.0456529 120.2235104  72.4489427 140.4804895 120.2117936
  74.8586474 149.9864783 122.9440641  74.1848173 150.2896480 123.5525599
  75.2452296 150.7893863 122.5946098  74.0744931 137.4829914 132.4338310
  73.1567492 137.7044861 132.2759998  74.4905074 137.5576225 131.5750018
  74.8579979 138.8821330 127.5640991  75.6051797 139.3942727 127.2548113
  75.1271568 138.5605382 128.4245384  73.1306629 141.3779870 124.5467945
  72.2217848 141.0938903 124.6440415  73.1601712 141.7978949 123.6871252
  78.3625896 144.9886460 128.3159112  77.9088223 144.1477370 128.3724303
  77.7319863 145.6247858 128.6533893  77.3058816 135.9178446 129.5459780
  76.5681572 135.4055832 129.8770023  77.5585589 135.4778828 128.7343057
  76.8058835 146.8262957 129.2508931  77.0981810 147.3868014 128.5321296
  77.3157456 147.1191518 130.0062090  77.4070443 128.6954698 130.1401549
  77.7129320 127.8352061 129.8527464  78.1323048 129.2872318 129.9400543
  63.6994799 139.0985385 128.5283147  63.5019199 138.5054745 127.8034214
  63.1441463 138.7937595 129.2459086  71.6791523 138.9908491 130.6477740
  71.7340133 138.0382327 130.5720217  70.8682725 139.1467930 131.1319039
  72.8282716 142.9188614 121.8856024  72.3902146 142.2024473 121.4261661
  73.5693157 143.1464729 121.3241115  69.6183883 137.6085551 128.4068119
  68.8051748 137.9079721 128.8133311  70.1142877 137.2141240 129.1242601
  71.7692461 147.6043308 130.3402384  71.7268639 147.8304154 129.4110916
  72.6855159 147.3706682 130.4888185  75.2158094 138.0727375 137.2383013
  75.5707482 138.2998848 138.0977479  75.8630226 138.4045752 136.6160268
  80.9455831 141.1945811 127.9432342  80.8073730 141.3847407 127.0153531
  80.5892050 141.9565194 128.4000393  69.1097957 135.1803906 134.0229354
  69.7497337 135.0392665 133.3252317  68.2775488 134.8938420 133.6467956
  80.9725211 143.2622338 132.9543614  81.4061718 143.1697627 133.8026668
  81.6856792 143.2379839 132.3163630  69.8858261 144.4806337 130.1364347
  70.6798860 143.9856657 129.9346922  69.1749954 143.9524200 129.7732052
  74.7053106 146.8624432 134.4876714  74.7590128 147.4315369 135.2554430
  73.8367887 147.0326317 134.1230751  66.1941025 138.6249418 126.2124099
  65.2638613 138.5633874 126.4294061  66.2898497 138.1025371 125.4160740
  66.1126574 135.1504231 128.8002341  66.3733391 136.0649565 128.6911501
  66.9343746 134.6828674 128.9498954  67.5851499 136.5641988 135.9701165
  68.2574553 136.3559351 135.3213814  66.7581286 136.3664074 135.5306398
  73.4877071 133.1903929 137.9866826  72.8404986 133.8893879 137.8931303
  74.2578087 133.6240073 138.3543075  73.6641206 141.0284694 136.0463646
  74.5933266 141.1795854 135.8732613  73.2432236 141.1168715 135.1912293
  72.4629537 145.0535359 133.8162184  72.3240623 144.6854143 134.6888122
  71.6744134 145.5682998 133.6446141  73.0577689 150.1544455 125.1587720
  73.2329445 149.6832498 125.9733343  72.3710477 150.7810221 125.3868981
  74.0134752 144.4316961 131.2051021  73.6784585 144.3917731 132.1008671
  73.5138698 143.7661677 130.7321432  67.9878996 139.8384591 136.7303603
  67.8498794 139.1064830 137.3315142  68.8983920 139.7493492 136.4487790
  76.9493944 141.7772996 121.4788081  76.3323115 141.0519824 121.3821134
  76.4810433 142.5382356 121.1355155  70.6161297 139.5504551 136.2187282
  71.3260916 138.9097743 136.1773901  70.5730605 139.8017446 137.1413463
  69.3290231 136.5369769 138.0382922  68.7927588 136.0860507 138.6904518
  68.7406940 136.6715677 137.2953386  67.6238775 153.3033818 131.9327580
  67.8635373 153.9352342 132.6106599  66.7807971 152.9521858 132.2192940
  68.7392490 135.9958420 120.6009385  67.8621956 135.8747221 120.2371632
  69.2150243 135.2044498 120.3488274  60.2594630 140.7835580 130.6950893
  60.9465670 140.4697310 130.1071908  60.1042759 141.6876944 130.4218144
  65.0629352 135.6725776 135.1235916  64.9787541 135.0651446 134.3886326
  64.2412059 136.1634795 135.1245413  72.1366636 149.1112940 134.3369084
  72.0636808 149.9167912 134.8488389  71.6944030 149.3104906 133.5117106
  71.9256416 148.3484710 127.8471906  71.1423938 148.8906391 127.9410130
  72.6249161 148.8658690 128.2466147  75.2353066 134.1579340 130.4906111
  75.7321766 133.4049302 130.1707181  74.4640048 134.1943657 129.9249321
  83.0882824 139.8619705 132.1324403  83.0772700 140.7444421 131.7618336
  82.2200203 139.5091256 131.9378940  76.3182847 142.9151027 128.0644535
  75.3839126 143.0352490 127.8949239  76.4959515 142.0123494 127.8004544
  71.8188035 136.2996723 130.2177796  71.4485822 135.7467763 130.9058701
  72.3147127 135.6954856 129.6652796  79.7055398 138.7568346 128.5994569
  80.1715850 139.5896338 128.5254871  80.1562899 138.2913328 129.3039827
  69.6477233 146.7594218 137.3132814  70.3486693 147.3930701 137.4662208
  69.1772348 147.1008949 136.5528453  77.7731629 145.1012168 125.5980721
  78.0491473 144.9868762 126.5074595  76.9036128 144.7029653 125.5592894
  77.6772061 131.1248933 132.6385470  76.7635141 131.3553160 132.8067677
  78.1065162 131.2087377 133.4899502  77.4478519 139.3138825 135.1385364
  76.7949970 139.5614733 134.4837817  77.8258899 138.5002964 134.8047841
  74.4085693 149.3498519 129.2413534  74.5908088 148.5320174 129.7041287
  75.2318679 149.5666211 128.8038424  74.7427859 148.2766704 126.5028583
  75.2715625 147.7659158 125.8898745  75.0056078 147.9609234 127.3674116
  65.2444952 146.2930573 134.2463916  65.8298388 145.5474261 134.3791821
  65.0469790 146.6034530 135.1300580  68.0983607 149.3281820 129.2626359
  67.4293982 149.8127948 128.7790399  67.9596476 149.5751041 130.1769737
  59.8362606 138.8636173 132.9668360  59.8746706 138.3299764 133.7605478
  59.3302899 138.3371379 132.3479337  67.2153369 133.7100714 136.4630902
  67.2794695 134.5715545 136.0508300  67.1520489 133.0974715 135.7303260
  66.6905641 135.7823846 140.1103936  67.3177680 135.4000924 140.7241461
  65.8333560 135.5638048 140.4759629  63.4671184 137.5900275 126.0422291
  63.7624625 136.6810954 125.9889345  62.5659220 137.5688015 125.7203293
  75.3757263 149.3107539 132.8472699  75.2508402 148.5097279 132.3383645
  76.0336354 149.8053733 132.3586669  66.9965431 135.6656272 132.0249840
  66.2752017 136.2792240 131.8857313  67.7858687 136.2014037 131.9466486
  77.4392171 147.1116559 134.4752249  76.4922507 146.9921911 134.4030576
  77.7874944 146.2239057 134.5578511  69.7991744 133.0010698 138.2990491
  70.3226146 133.2472995 139.0616801  69.5804078 133.8330733 137.8793629
  65.1959025 135.2714373 126.1661616  64.8671732 134.3911752 125.9836722
  65.5498396 135.2162042 127.0538005  74.4438604 146.9069276 130.6756602
  74.2963567 145.9785983 130.8564172  75.2692098 146.9289366 130.1913677
  68.3100849 135.5587343 126.5337094  68.6496921 136.0873264 125.8115702
  68.7572969 135.8967749 127.3095660  78.0472726 147.7297834 131.7621474
  78.9719274 147.5240696 131.6245926  77.8788030 147.4814236 132.6710816
  71.0044289 133.9424393 135.9840162  70.6641110 133.1432207 136.3860842
  70.2983296 134.2426104 135.4116995  71.6560761 131.0273706 134.4367485
  72.4786831 130.5534184 134.3146375  71.8998825 131.8064190 134.9366171
  70.2968996 134.0561964 124.7330387  71.0177358 134.4343217 124.2294103
  69.6734300 134.7750841 124.8365365  74.4400119 134.7607113 125.6688719
  74.6563733 135.6431751 125.3677547  73.9594186 134.3693327 124.9394361
  69.1799340 137.7192827 132.2459464  69.0343921 138.0333130 133.1383745
  68.7024544 138.3377727 131.6930362  71.0395723 134.7095375 132.2940353
  71.0257292 133.8136468 131.9572651  71.7568151 134.7166038 132.9278639
  72.8921854 135.1432715 134.3393481  72.6339631 136.0649785 134.3377811
  72.3606894 134.7463149 135.0293945  77.8368042 148.2483502 127.1183566
  78.0104920 147.6829924 126.3657418  78.3296934 149.0484397 126.9363056
  63.6545002 140.2598171 135.1847125  63.1098470 141.0357979 135.3167399
  64.5324352 140.6068975 135.0266246  70.4432619 133.5909755 127.5627923
  70.5648530 132.6626401 127.7618811  70.1534661 133.6048441 126.6506239
  73.3123809 131.2764665 130.6994643  73.3345506 131.3403998 129.7446623
  73.7291868 130.4369174 130.8935149  83.6907434 141.0119925 128.7373866
  84.1338580 140.2627250 128.3392989  82.8133944 141.0030061 128.3547598
  78.8243215 147.5650266 124.2180464  79.5194119 148.1856959 124.4367779
  79.1666365 146.7145617 124.4932842  64.4411024 139.3868067 138.0777282
  63.6992760 139.5350703 138.6641912  64.1203768 139.6476333 137.2144031
  80.7234638 145.0149972 125.7467795  81.2485962 145.3537245 125.0217115
  80.6356991 144.0796987 125.5630930  72.4075299 151.0821955 130.1063048
  71.9680289 150.5898334 130.7995905  73.1583416 150.5394923 129.8655123
  64.8867638 147.2733496 130.1087676  65.7125658 146.9737268 129.7286320
  64.5361690 146.5041118 130.5577465  69.8549171 146.6259964 132.1785350
  69.2329180 145.9630669 131.8787578  70.5254038 146.6521096 131.4958998
  63.0876243 145.1919822 131.0676610  62.2508151 144.7641997 130.8860611
  63.0599888 145.3852266 132.0047401  69.9273698 135.1041752 141.7717856
  69.9761854 135.9803875 141.3895625  70.4696213 134.5619145 141.1989499
  69.4162678 145.1763887 125.6543810  69.5650798 145.8599352 125.0010483
  70.2229121 145.1568978 126.1693266  72.1572987 135.8573125 138.5264214
  71.2876296 136.1506691 138.2546803  72.3932467 136.4413570 139.2471478
  83.2340298 142.4825163 131.1296313  84.0687190 142.9214967 131.2933874
  83.3699427 142.0063816 130.3104559  80.2831804 140.0404898 137.0773801
  80.7585926 140.2332544 136.2692652  79.3597370 140.0964084 136.8317185
  67.1715311 141.2029065 126.6604879  66.9261353 140.2991395 126.8585089
  67.3411225 141.2046216 125.7184357  74.8612021 132.0752742 136.0429635
  75.3793965 132.8113768 135.7176123  74.5067153 132.3816735 136.8776394
  66.4410958 136.9357423 124.1591041  65.7480203 137.0101778 123.5031077
  66.1962710 136.1717766 124.6812558  75.1124615 128.4953024 131.5630531
  75.3926369 127.8276213 132.1890958  75.8975222 128.6882120 131.0505195
  72.9158083 147.6712018 123.1255558  72.3432050 148.2902205 122.6726030
  73.4890877 148.2211380 123.6595480  78.9833473 136.9170658 135.3102107
  79.9350896 137.0168756 135.3314331  78.8136924 136.1248927 135.8200191
  77.0047853 134.0026241 135.4961508  76.4097785 134.2831254 134.8007996
  76.7197549 134.4920142 136.2678249  76.1355343 147.9549168 124.2564140
  77.0686016 147.8894730 124.4597016  76.0478556 148.7905435 123.7978673
  78.7643360 147.2715038 121.2168088  78.6856991 146.9374902 122.1103846
  79.5853027 147.7636806 121.2159560  81.4621551 140.1376778 134.4244406
  81.4297871 139.1992778 134.6104090  82.0722175 140.2160814 133.6910231
  73.3004882 139.0072831 120.4671610  74.2463987 138.8779039 120.5360028
  72.9219127 138.2687493 120.9441038  81.6116039 136.9287821 134.4702689
  81.0955088 136.1446278 134.2832618  82.4955988 136.6006538 134.6349209
  79.2726766 130.6728837 130.4298502  79.0751587 130.3643925 131.3141834
  79.8826472 131.3990476 130.5596432  87.2798101 141.1992785 133.5650443
  88.0101489 140.9378073 134.1258146  86.6705046 140.4621507 133.6052511
  85.3613398 139.3400647 134.1624894  84.6346561 139.2056612 133.5541386
  84.9460685 139.6477476 134.9681612  71.4847799 136.9322807 120.4026496
  70.5779254 136.6355920 120.4789209  71.7623780 136.6352625 119.5360782
  62.4025739 138.2529170 130.8525542  62.0828524 137.3994479 130.5599916
  61.8559168 138.4677749 131.6083509  66.1805647 140.9691611 134.5695048
  66.3991657 141.9008719 134.5883082  66.5931421 140.6099586 135.3549852
  73.1009865 131.4759697 126.5570737  72.2910593 131.1306782 126.9325983
  73.7894282 131.1667241 127.1458348  75.0300413 130.5537744 128.1795033
  75.5831452 130.9733197 128.8385057  75.2670499 129.6273492 128.2217989
  70.2546584 133.7909742 120.5438475  71.1165748 134.1164641 120.8034292
  70.4396928 133.0041238 120.0311540  62.2713999 141.8732082 132.8218663
  61.5777471 141.4586035 132.3088618  63.0186990 141.9152618 132.2252082
  78.4079220 132.6638269 127.6873698  77.8277889 133.3223073 127.3051750
  78.1415153 131.8415613 127.2761115  76.8582786 132.0643326 129.8895018
  77.3582565 132.1759861 129.0809337  77.5018394 131.7604379 130.5295826
  64.1850742 141.8050336 130.6984678  64.1621430 141.9038023 129.7466561
  64.4951378 142.6515487 131.0201844  66.8438120 143.8626491 134.8131293
  67.7981373 143.8310433 134.7461224  66.6450643 143.4017115 135.6281519
  67.4337502 142.4327607 137.3802090  68.2530391 142.9271686 137.4036928
  67.7074310 141.5159575 137.3519658  77.1904098 134.8238359 126.7430046
  76.3029953 135.1088010 126.5250241  77.6058087 134.6632123 125.8957323
  80.5418634 134.8484880 130.4584385  81.3179024 135.3381333 130.7309002
  79.8166768 135.2742934 130.9156255  82.9791193 135.5612499 131.5158326
  83.5735684 135.3208235 130.8051634  83.0517777 134.8419630 132.1431862
  65.1988349 149.4046110 131.8301491  65.0642816 148.6446511 131.2639489
  64.7820411 150.1287010 131.3630280  76.3347312 144.5883034 120.8378066
  77.0383162 144.7933036 121.4535722  75.6109960 145.1559796 121.1027149
  77.1645122 140.3392895 126.9580336  77.1080323 140.7961447 126.1187969
  77.7173464 139.5783580 126.7803179  80.9749928 136.1282627 127.7830456
  80.7186862 135.7279263 128.6138663  80.3502796 136.8426421 127.6580595
  85.2862266 138.8678700 130.2901747  84.7261824 138.9371890 131.0633309
  84.6805769 138.6919685 129.5701243  68.3557474 150.3015427 132.0419933
  68.2389859 151.2460860 131.9398624  67.5349921 149.9988989 132.4305733
  78.2434009 145.0265563 122.8876526  79.0779613 144.5946761 122.7054001
  78.0818352 144.8547577 123.8153420  77.8979901 141.5297676 124.2532865
  77.8428705 141.3641948 123.3121309  77.2725956 142.2373709 124.4095055
  62.6872416 136.7665741 138.0794288  63.3331280 136.2564695 138.5681513
  62.4789567 137.5034422 138.6537713  71.2076027 131.0305785 123.8318184
  71.1954696 131.9747625 123.9886455  72.0999448 130.8475931 123.5377645
  69.3811989 150.9543689 135.2575862  70.2839235 150.9867299 135.5742357
  69.1549359 150.0244140 135.2722198  71.1365591 149.7074676 131.9185940
  70.1861222 149.7076537 131.8050313  71.4398077 148.9607410 131.4021975
  75.0228146 127.6248562 128.0864120  74.2560542 127.0707049 128.2320803
  75.4338851 127.6970431 128.9478272  67.0269907 133.9133358 142.1769302
  67.8901369 133.5570163 142.3872626  66.4535318 133.5747253 142.8644706
  79.0449992 158.1058223 124.6191718  79.8180868 157.5587211 124.4804593
  79.3975391 158.9702473 124.8306179  81.3816270 154.2650890 122.2510168
  81.6341790 153.7432411 121.4893631  80.4440829 154.1017035 122.3536851
  81.1012558 156.1678996 124.4534543  80.9848817 155.4923899 125.1215627
  81.2114818 155.6811370 123.6366696  83.0849586 150.6579042 123.1542580
  83.2523989 151.5259279 123.5213051  82.8946755 150.8206324 122.2303870
  83.0638807 153.1136700 124.1389247  82.9438432 153.5593751 124.9774727
  82.3691396 153.4622018 123.5802785  88.7623873 153.5858173 124.9669581
  89.6741730 153.8185560 124.7917279  88.2533520 154.1695217 124.4044660
  81.8590304 154.4281552 126.4322813  82.5614347 154.8802596 126.8996739
  81.5270932 153.7865371 127.0602706  75.6015638 152.6865105 131.7339946
  74.8114692 152.9422633 131.2580057  76.0926885 153.5013442 131.8391987
  77.5530383 153.0509684 128.6923423  76.7561546 153.1628378 129.2106919
  77.3255975 153.3896336 127.8264314  76.5513466 158.7597933 127.0812843
  77.0637986 159.5541183 127.2318408  77.2036178 158.0624223 127.0146445
  74.5162382 157.0886587 127.8572414  75.3537604 157.4983595 127.6406121
  74.6940650 156.1486029 127.8272608  86.4126815 154.7561668 123.5456247
  85.8973438 155.5266272 123.7844634  86.1404123 154.0826804 124.1689308
  83.9973926 149.6011368 128.6041485  83.1415522 149.2118219 128.4247124
  84.4100877 149.6803329 127.7441271  81.7715958 147.2196441 132.0099227
  82.6368955 147.0239250 131.6505116  81.8393467 146.9906793 132.9368583
  86.2013118 152.6288760 125.3716028  85.8963253 152.9434909 126.2226171
  87.1543560 152.7070180 125.4143361  79.3778277 149.4498649 129.3815593
  79.9522029 149.2273831 128.6488786  79.9649260 149.5187344 130.1344195
  79.7047864 151.4803110 123.4011479  78.8685177 151.8177797 123.7220753
  79.5652634 151.3452090 122.4638616  81.6800945 146.3239898 128.1090663
  81.0265357 146.0088915 127.4847278  81.6381419 145.7015639 128.8350486
  82.7912150 156.6059193 120.0243955  81.8839211 156.3748447 120.2235104
  83.2883182 155.8096812 120.2117936  83.9700383 156.7071788 124.5467945
  83.0611602 156.4230821 124.6440415  83.9995467 157.1270867 123.6871252
  88.2464197 144.0246616 130.1401549  88.5523074 143.1643979 129.8527464
  88.9716802 144.6164236 129.9400543  74.5388554 154.4277302 128.5283147
  74.3412953 153.8346663 127.8034214  73.9835218 154.1229512 129.2459086
  83.6676471 158.2480532 121.8856024  83.2295901 157.5316391 121.4261661
  84.4086912 158.4756647 121.3241115  80.4577637 152.9377468 128.4068119
  79.6445503 153.2371639 128.8133311  80.9536631 152.5433157 129.1242601
  77.0334779 153.9541336 126.2124099  76.1032367 153.8925792 126.4294061
  77.1292251 153.4317289 125.4160740  76.9520328 150.4796149 128.8002341
  77.2127146 151.3941482 128.6911501  77.7737501 150.0120592 128.9498954
  87.7887699 157.1064913 121.4788081  87.1716869 156.3811742 121.3821134
  87.3204187 157.8674274 121.1355155  79.5786245 151.3250338 120.6009385
  78.7015711 151.2039139 120.2371632  80.0543998 150.5336416 120.3488274
  71.0988385 156.1127497 130.6950893  71.7859424 155.7989227 130.1071908
  70.9436513 157.0168862 130.4218144  86.0746821 149.4871258 130.4906111
  86.5715520 148.7341220 130.1707181  85.3033802 149.5235574 129.9249321
  82.6581789 151.6288641 130.2177796  82.2879577 151.0759681 130.9058701
  83.1540882 151.0246774 129.6652796  70.6756361 154.1928091 132.9668360
  70.7140460 153.6591682 133.7605478  70.1696654 153.6663296 132.3479337
  74.3064938 152.9192193 126.0422291  74.6018379 152.0102871 125.9889345
  73.4052974 152.8979932 125.7203293  77.8359185 150.9948190 132.0249840
  77.1145771 151.6084157 131.8857313  78.6252441 151.5305954 131.9466486
  76.0352780 150.6006291 126.1661616  75.7065486 149.7203670 125.9836722
  76.3892151 150.5453959 127.0538005  79.1494603 150.8879260 126.5337094
  79.4890676 151.4165182 125.8115702  79.5966724 151.2259667 127.3095660
  81.1362750 149.3853882 124.7330387  81.8571113 149.7635135 124.2294103
  80.5128054 150.1042759 124.8365365  85.2793873 150.0899031 125.6688719
  85.4957488 150.9723669 125.3677547  84.7987940 149.6985244 124.9394361
  81.2826373 148.9201672 127.5627923  81.4042285 147.9918319 127.7618811
  80.9928416 148.9340358 126.6506239  84.1517564 146.6056583 130.6994643
  84.1739261 146.6695916 129.7446623  84.5685623 145.7661092 130.8935149
  80.2556432 160.5055805 125.6543810  80.4044553 161.1891270 125.0010483
  81.0622876 160.4860895 126.1693266  78.0109065 156.5320983 126.6604879
  77.7655107 155.6283313 126.8585089  78.1804980 156.5338133 125.7184357
  77.2804713 152.2649340 124.1591041  76.5873958 152.3393695 123.5031077
  77.0356465 151.5009684 124.6812558  85.9518369 143.8244942 131.5630531
  86.2320123 143.1568131 132.1890958  86.7368976 144.0174037 131.0505195
  84.1398636 154.3364748 120.4671610  85.0857741 154.2070956 120.5360028
  83.7612881 153.5979410 120.9441038  82.3241553 152.2614725 120.4026496
  81.4173009 151.9647837 120.4789209  82.6017534 151.9644543 119.5360782
  73.2419494 153.5821088 130.8525542  72.9222278 152.7286396 130.5599916
  72.6952922 153.7969666 131.6083509  83.9403619 146.8051614 126.5570737
  83.1304347 146.4598699 126.9325983  84.6288036 146.4959158 127.1458348
  85.8694167 145.8829661 128.1795033  86.4225206 146.3025115 128.8385057
  86.1064254 144.9565409 128.2217989  81.0940338 149.1201660 120.5438475
  81.9559502 149.4456558 120.8034292  81.2790682 148.3333156 120.0311540
  89.2472975 147.9930186 127.6873698  88.6671644 148.6514990 127.3051750
  88.9808907 147.1707531 127.2761115  87.6976541 147.3935244 129.8895018
  88.1976319 147.5051779 129.0809337  88.3412149 147.0896297 130.5295826
  88.0297853 150.1530277 126.7430046  87.1423708 150.4379927 126.5250241
  88.4451842 149.9924040 125.8957323  87.1741066 159.9174951 120.8378066
  87.8776916 160.1224954 121.4535722  86.4503715 160.4851713 121.1027149
  88.7373656 156.8589594 124.2532865  88.6822459 156.6933865 123.3121309
  88.1119711 157.5665627 124.4095055  82.0469781 146.3597703 123.8318184
  82.0348451 147.3039543 123.9886455  82.9393203 146.1767848 123.5377645
  85.8621901 142.9540480 128.0864120  85.0954296 142.3998966 128.2320803
  86.2732606 143.0262348 128.9478272   9.2438085  30.7187785 110.9449890
   8.5926064  31.3041866 110.5583904  10.0382447  31.2493980 111.0044927
   3.1693712  27.8076922 111.3437024   3.9424588  27.2605909 111.2049900
   3.5219111  28.6721172 111.5551486   5.5059990  23.9669588 108.9755474
   5.7585510  23.4451110 108.2138937   4.5684549  23.8035734 109.0782158
  10.7213350  28.4078217 111.4818874  10.0859183  28.4812844 112.1939779
  10.3910756  28.9971816 110.8037953   5.2256278  25.8697694 111.1779849
   5.1092536  25.1942598 111.8460933   5.3358538  25.3830068 110.3612002
   7.2093306  20.3597741 109.8787887   7.3767709  21.2277978 110.2458358
   7.0190475  20.5225023 108.9549176   7.1882527  22.8155399 110.8634554
   7.0682152  23.2612449 111.7020034   6.4935115  23.1640716 110.3048092
   4.9489419  35.5859040 114.5124685   4.8713449  36.5366866 114.5913166
   4.3451063  35.2404913 115.1699611  12.8867593  23.2876872 111.6914888
  13.7985449  23.5204259 111.5162585  12.3777240  23.8713916 111.1289966
  15.3726407  29.2057128 116.4372833  14.6877446  29.5856030 115.8869866
  15.4570257  29.8152455 117.1704781  21.8329160  26.0727791 117.5575505
  21.0792868  25.5035189 117.4019510  21.9676701  26.0390456 118.5046140
   7.2227788  30.9441193 113.2330225   7.0873463  31.7892729 113.6615073
   7.7637601  31.1460471 112.4696158  10.5370534  24.4580366 110.2701553
  10.0217158  25.2284971 110.5089941  10.2647843  23.7845503 110.8934615
  15.5104809  27.2112721 112.2054727  14.7334251  26.8723881 111.7609889
  16.1896289  27.2165344 111.5309692  10.3256838  22.3307459 112.0961334
  10.0206973  22.6453608 112.9471478  11.2787280  22.4088878 112.1388667
   8.7703269  28.4897682 113.7454288   8.2424631  27.7550441 113.4327526
   8.2690772  29.2672358 113.4994257   6.9155870  26.3077892 106.7489261
   6.0082931  26.0767146 106.9480410   7.4126902  25.5115511 106.9363243
   9.8223948  35.0175399 109.6685948   9.1485647  35.3207096 110.2770905
  10.2089770  35.8204480 109.3191405   8.0944103  26.4090487 111.2713252
   7.1855322  26.1249520 111.3685721   8.1239187  26.8289566 110.4116558
  13.3263370  30.0197076 115.0404419  12.8725698  29.1787986 115.0969610
  12.6957337  30.6558475 115.3779199  11.7696310  31.8573573 115.9754237
  12.0619284  32.4178630 115.2566603  12.2794930  32.1502134 116.7307396
   7.7920191  27.9499231 108.6101330   7.3539621  27.2335090 108.1506967
   8.5330632  28.1775345 108.0486422   6.7329935  32.6353924 117.0647690
   6.6906114  32.8614771 116.1356222   7.6492634  32.4017299 117.2133492
  15.9093306  26.2256428 114.6677649  15.7711204  26.4158024 113.7398838
  15.5529524  26.9875811 115.1245700   8.0215164  35.1855072 111.8833027
   8.1966919  34.7143115 112.6978649   7.3347952  35.8120838 112.1114288
  11.9131418  26.8083612 108.2033388  11.2960589  26.0830440 108.1066440
  11.4447907  27.5692973 107.8600462   2.5876249  38.3344434 118.6572887
   2.8272847  38.9662959 119.3351906   1.7445445  37.9832475 118.9438246
   6.8893890  33.3795327 114.5717212   6.1061412  33.9217007 114.6655437
   7.5886636  33.8969307 114.9711454  11.2820321  27.9461644 114.7889841
  10.3476600  28.0663106 114.6194546  11.4596990  27.0434110 114.5249851
  14.6692873  23.7878963 115.3239875  15.1353325  24.6206955 115.2500178
  15.1200373  23.3223944 116.0285134  12.7369104  30.1322784 112.3226027
  13.0128948  30.0179379 113.2319902  11.8673602  29.7340269 112.2838201
   9.3723168  34.3809135 115.9658841   9.5545562  33.5630791 116.4286593
  10.1956154  34.5976827 115.5283731   9.7065333  33.3077320 113.2273890
  10.2353100  32.7969775 112.6144052   9.9693553  32.9919850 114.0919423
   3.0621081  34.3592437 115.9871665   2.3931456  34.8438564 115.5035706
   2.9233951  34.6061657 116.9015044  10.3394737  34.3418156 119.5718006
  10.2145876  33.5407896 119.0628952  10.9973828  34.8364349 119.0831976
   9.4076079  31.9379892 117.4001908   9.2601041  31.0096600 117.5809478
  10.2329572  31.9599983 116.9158984  13.0110200  32.7608451 118.4866781
  13.9356748  32.5551312 118.3491232  12.8425504  32.5124852 119.3956123
  12.8005517  33.2794118 113.8428873  12.9742394  32.7140541 113.0902725
  13.2934408  34.0795013 113.6608362  18.6544908  26.0430541 115.4619172
  19.0976054  25.2937867 115.0638296  17.7771418  26.0340678 115.0792904
  13.7880689  32.5960883 110.9425771  14.4831594  33.2167575 111.1613085
  14.1303839  31.7456234 111.2178149  15.6872112  30.0460588 112.4713102
  16.2123436  30.3847861 111.7462422  15.5994465  29.1107604 112.2876236
   7.3712773  36.1132572 116.8308355   6.9317763  35.6208950 117.5241211
   8.1220890  35.5705539 116.5900430   4.3800152  30.2074504 112.3789117
   4.5288272  30.8909968 111.7255790   5.1866596  30.1879594 112.8938573
  18.1977773  27.5135780 117.8541620  19.0324664  27.9525584 118.0179180
  18.3336901  27.0374433 117.0349866   7.8795558  32.7022634 109.8500864
   7.3069525  33.3212822 109.3971336   8.4528351  33.2521996 110.3840786
  11.0992817  32.9859785 110.9809447  12.0323491  32.9205346 111.1842322
  11.0116030  33.8216051 110.5223979  13.7280834  32.3025655 107.9413394
  13.6494466  31.9685519 108.8349152  14.5490501  32.7947423 107.9404867
   8.2642356  24.0383447 107.1916917   9.2101461  23.9089655 107.2605335
   7.8856601  23.2998109 107.6686345   6.4485273  21.9633424 107.1271802
   5.5416729  21.6666536 107.2034516   6.7261254  21.6663242 106.2606088
  11.2984786  29.6193650 107.5623373  12.0020636  29.8243653 108.1781028
  10.5747435  30.1870412 107.8272456  12.1282596  25.3703512 113.6825643
  12.0717798  25.8272063 112.8433275  12.6810939  24.6094196 113.5048486
  20.2499740  23.8989317 117.0147054  19.6899298  23.9682506 117.7878616
  19.6443243  23.7230301 116.2946550  13.2071483  30.0576180 109.6121833
  14.0417087  29.6257378 109.4299307  13.0455826  29.8858193 110.5398727
  12.8617375  26.5608293 110.9778172  12.8066179  26.3952564 110.0366616
  12.2363431  27.2684326 111.1340362   6.1003065  34.7385292 118.6431247
   5.1498696  34.7387154 118.5295619   6.4035551  33.9918027 118.1267282
  21.8355758  40.5745831 119.7077009  22.4734168  40.4552578 119.0040349
  21.7176601  41.5226675 119.7664962  18.6445465  40.5273259 119.6438534
  18.3063976  40.4114323 118.7559069  19.5135233  40.1264424 119.6239540
  14.5032280  42.3808735 115.6335425  13.9397145  42.2898672 114.8651713
  14.3884675  41.5608640 116.1137918  19.1265248  41.6808110 125.6024740
  19.1153888  41.2860909 124.7305243  19.2885887  40.9474183 126.1958511
  12.0496712  43.8759927 118.4719645  12.8418004  43.5350751 118.0565945
  12.2893362  43.9854902 119.3921799  20.0831839  46.0479703 110.9449890
  19.4319819  46.6333783 110.5583904  20.8776202  46.5785898 111.0044927
  14.0087466  43.1368840 111.3437024  14.7818342  42.5897827 111.2049900
  14.3612865  44.0013089 111.5551486  15.8472509  44.4645222 124.5503924
  15.5562375  45.3690853 124.4350590  16.4829493  44.5061750 125.2647993
  16.7728716  41.8422071 121.1405283  17.3692288  41.6178093 120.4262246
  16.8303687  41.1006816 121.7430731  16.3453744  39.2961506 108.9755474
  16.5979265  38.7743027 108.2138937  15.4078303  39.1327652 109.0782158
  21.3897027  38.2997285 116.7830217  22.1760116  37.8816708 116.4320634
  21.6535731  39.2043377 116.9511866  21.5607104  43.7370135 111.4818874
  20.9252937  43.8104761 112.1939779  21.2304511  44.3263734 110.8037953
  26.7905454  38.2372518 117.6863196  27.5230626  37.6671735 117.9201025
  26.0344810  37.8494118 118.1269702  16.0650033  41.1989612 111.1779849
  15.9486291  40.5234515 111.8460933  16.1752293  40.7121986 110.3612002
  18.4081574  40.6599759 114.8826538  18.0439781  40.1330380 115.5939460
  19.2648690  40.2698228 114.7093024  24.3130874  31.9494092 122.1457805
  23.9814199  32.8189503 121.9219020  23.7176488  31.6330376 122.8251835
  18.0487061  35.6889659 109.8787887  18.2161463  36.5569895 110.2458358
  17.8584230  35.8516941 108.9549176  20.8062394  44.1506638 121.5453717
  20.5063117  45.0531677 121.4369524  20.4613453  43.8838821 122.3974870
  14.2574875  40.6020435 117.5790422  13.3325372  40.4696649 117.7868113
  14.5059289  41.3814654 118.0760364  24.2059538  36.6689178 119.2251155
  23.2976415  36.6004586 118.9309916  24.1547133  37.1461123 120.0532980
  18.0276282  38.1447316 110.8634554  17.9075907  38.5904367 111.7020034
  17.3328870  38.4932634 110.3048092  11.6183686  40.2453708 118.4134211
  11.7476068  40.4988187 119.3273622  10.9381138  40.8381416 118.0938866
  15.7883174  50.9150958 114.5124685  15.7107203  51.8658783 114.5913166
  15.1844817  50.5696831 115.1699611  26.0721184  34.8705616 121.0029029
  25.4295564  35.1638150 120.3568823  25.5676113  34.7558537 121.8082225
  23.7261348  38.6168790 111.6914888  24.6379204  38.8496176 111.5162585
  23.2170995  39.2005834 111.1289966  16.5346776  40.8964277 126.7304019
  17.2761460  41.4349321 126.4538842  15.8283761  41.5230566 126.8875571
  22.0102115  43.0393417 125.3276180  22.4185471  42.5975828 124.5830813
  21.2879377  42.4646045 125.5810373  18.3633185  37.9766024 122.7009737
  19.2094381  38.4005438 122.8444386  18.3031823  37.3199648 123.3948300
  22.3330930  43.5994608 119.0828469  21.7039792  43.7640322 118.3804537
  21.9456592  44.0136218 119.8539433  26.2120162  44.5349046 116.4372833
  25.5271200  44.9147947 115.8869866  26.2964011  45.1444373 117.1704781
  21.5132631  35.6370393 124.3590911  21.2693563  36.3912453 123.8225187
  21.7892561  36.0155740 125.1938158  23.4671094  42.1809005 123.0368177
  23.6787989  42.8240765 122.3602558  23.4200842  41.3471321 122.5690107
  21.0697322  34.7926826 119.9404749  20.2081802  35.0908079 120.2321486
  21.0959757  35.0097224 119.0085781  17.8858892  43.3369016 116.3478554
  18.3497237  43.6156719 115.5583177  17.6215690  42.4352461 116.1651645
  14.7782973  42.8840498 119.2858318  15.3484330  43.3127766 118.6475802
  15.3691085  42.6023082 119.9842503  16.8227778  39.4592169 113.1568119
  17.5251821  39.9113212 113.6242046  16.4908406  38.8175987 113.7848013
  10.5653112  37.7175721 118.4585253   9.7752166  37.9733250 117.9825364
  11.0564359  38.5324059 118.5637294  24.5816921  45.0580960 121.2090534
  25.4034365  44.6561148 120.9273215  24.5779324  44.9549194 122.1606650
  12.5167857  38.0820300 115.4168730  11.7199021  38.1938995 115.9352225
  12.2893449  38.4206953 114.5509620  18.3473525  44.6065004 123.3651244
  18.4117957  45.0685411 124.2009416  17.6384449  43.9762369 123.4933554
   8.8490815  37.9706212 120.8900244   9.0998853  38.8553222 121.1557820
   9.3850363  37.7910813 120.1175336  32.6722915  41.4019709 117.5575505
  31.9186623  40.8327107 117.4019510  32.8070456  41.3682373 118.5046140
  18.0621543  46.2733111 113.2330225  17.9267217  47.1184647 113.6615073
  18.6031355  46.4752389 112.4696158  11.5150940  43.7908549 113.8058150
  12.0275461  44.5851799 113.9563714  12.1673653  43.0934840 113.7391751
  13.3245825  46.9074305 115.8880903  13.5012453  47.8292270 115.7001887
  14.1202658  46.5932725 116.3175283  19.6890019  46.8956678 127.3630567
  19.2453873  46.1093056 127.0451471  20.3507233  47.0835828 126.6974458
  14.4477140  48.4252479 121.8891245  14.9984565  48.2969543 121.1168239
  13.6088616  48.7247368 121.5386138  21.7871257  47.1759478 125.3911968
  21.7689732  47.9968359 124.8992237  22.7091177  47.0513553 125.6162109
  18.2444311  44.6903607 126.2335476  18.7772648  43.9291895 126.0034784
  17.7158392  44.3977259 126.9759631  21.4114006  29.7963673 121.7629118
  21.0678276  30.6865315 121.6868229  21.7792969  29.6065331 120.8998703
   9.4799857  42.1197203 114.5817720  10.3175079  42.5294212 114.3651428
   9.6578124  41.1796646 114.5517914  21.3764289  39.7872284 110.2701553
  20.8610912  40.5576889 110.5089941  21.1041597  39.1137420 110.8934615
  18.9611400  34.6321985 115.3286792  18.1052996  34.2428835 115.1492430
  19.3738352  34.7113946 114.4686577  20.4910547  32.1668328 119.7278351
  19.9875342  32.1298463 118.9146157  20.7841153  33.0761071 119.7875008
  16.7353432  32.2507058 118.7344533  17.6006429  32.0549867 118.3750423
  16.8030941  32.0217410 119.6613890  26.3498563  42.5404639 112.2054727
  25.5728006  42.2015798 111.7609889  27.0290044  42.5457262 111.5309692
  21.1650592  37.6599376 112.0961334  20.8600728  37.9745525 112.9471478
  22.1181034  37.7380796 112.1388667  19.6097024  43.8189600 113.7454288
  19.0818385  43.0842359 113.4327526  19.1084527  44.5964276 113.4994257
  24.5889870  42.0138620 118.8621335  23.9313544  42.7037881 118.9501463
  25.3930269  42.4035052 119.2055321  14.3415751  34.4809266 116.1060900
  14.9159503  34.2584447 115.3734093  14.9286734  34.5497960 116.8589501
  23.3995329  40.3682993 116.9125276  23.9127210  41.0012985 117.4146986
  24.0496553  39.7684188 116.5468636  14.6685339  36.5113727 110.1256785
  13.8322651  36.8488413 110.4466060  14.5290108  36.3762707 109.1883922
  16.6438419  31.3550515 114.8335969  15.9902832  31.0399532 114.2092584
  16.6018893  30.7326255 115.5595792  17.7549624  41.6369810 106.7489261
  16.8476686  41.4059063 106.9480410  18.2520656  40.8407429 106.9363243
  20.6617703  50.3467317 109.6685948  19.9879402  50.6499014 110.2770905
  21.0483525  51.1496397 109.3191405  19.8776160  37.8432448 119.1583617
  18.9598721  38.0647395 119.0005305  20.2936303  37.9178759 118.2995324
  20.6611207  39.2423864 114.2886297  21.4083026  39.7545261 113.9793419
  20.9302797  38.9207917 115.1490691  18.9337857  41.7382405 111.2713252
  18.0249077  41.4541437 111.3685721  18.9632941  42.1581483 110.4116558
  24.1657125  45.3488994 115.0404419  23.7119452  44.5079904 115.0969610
  23.5351092  45.9850393 115.3779199  23.1090044  36.2780980 116.2705087
  22.3712801  35.7658366 116.6015329  23.3616818  35.8381362 115.4588363
  22.6090064  47.1865491 115.9754237  22.9013039  47.7470548 115.2566603
  23.1188685  47.4794052 116.7307396  23.2101672  29.0557232 116.8646856
  23.5160549  28.1954596 116.5772771  23.9354277  29.6474852 116.6645850
   9.5026028  39.4587919 115.2528454   9.3050428  38.8657279 114.5279520
   8.9472692  39.1540129 115.9704393  17.4822752  39.3511025 117.3723047
  17.5371361  38.3984862 117.2965523  16.6713954  39.5070464 117.8564345
  18.6313945  43.2791148 108.6101330  18.1933375  42.5627007 108.1506967
  19.3724386  43.5067263 108.0486422  15.4215111  37.9688085 115.1313426
  14.6082977  38.2682256 115.5378618  15.9174106  37.5743774 115.8487908
  17.5723689  47.9645842 117.0647690  17.5299868  48.1906688 116.1356222
  18.4886388  47.7309217 117.2133492  21.0189323  38.4329909 123.9628320
  21.3738711  38.6601383 124.8222785  21.6661454  38.7648286 123.3405575
  26.7487060  41.5548345 114.6677649  26.6104959  41.7449941 113.7398838
  26.3923279  42.3167728 115.1245700  14.9129186  35.5406441 120.7474661
  15.5528566  35.3995200 120.0497624  14.0806717  35.2540954 120.3713263
  26.7756440  43.6224872 119.6788920  27.2092946  43.5300161 120.5271974
  27.4888020  43.5982373 119.0408936  15.6889490  44.8408871 116.8609653
  16.4830089  44.3459191 116.6592228  14.9781183  44.3126734 116.4977359
  20.5084335  47.2226966 121.2122021  20.5621357  47.7917903 121.9799737
  19.6399116  47.3928852 120.8476058  11.9972254  38.9851953 112.9369406
  11.0669842  38.9236408 113.1539368  12.0929726  38.4627905 112.1406047
  11.9157803  35.5106766 115.5247648  12.1764620  36.4252099 115.4156808
  12.7374975  35.0431208 115.6744260  13.3882728  36.9244523 122.6946472
  14.0605781  36.7161885 122.0459121  12.5612515  36.7266609 122.2551704
  27.6371989  43.6648573 122.2121806  27.8307879  44.5694384 122.4581081
  27.5372607  43.2055992 123.0460391  22.6987098  43.8155316 127.7862686
  22.5472604  43.5865867 126.8692770  22.6891777  44.7725917 127.7994031
  19.4672434  41.3887229 122.7708953  20.3964494  41.5398388 122.5977920
  19.0463464  41.4771249 121.9157599  18.2660766  45.4137893 120.5407490
  18.1271852  45.0456677 121.4133428  17.4775362  45.9285532 120.3691448
  18.8608918  50.5146989 111.8833027  19.0360674  50.0435033 112.6978649
  18.1741706  51.1412756 112.1114288  19.8165981  44.7919496 117.9296328
  19.4815814  44.7520266 118.8253978  19.3169927  44.1264212 117.4566738
  13.7910225  40.1987126 123.4548909  13.6530023  39.4667364 124.0560448
  14.7015149  40.1096026 123.1733097  22.7525173  42.1375530 108.2033388
  22.1354344  41.4122358 108.1066440  22.2841661  42.8984890 107.8600462
  16.4192526  39.9107085 122.9432589  17.1292144  39.2700277 122.9019207
  16.3761834  40.1619980 123.8658770  24.4079305  46.8474438 125.8639168
  24.3491851  46.1633658 125.1969751  24.8098823  47.5893428 125.4119794
  13.4270003  53.6636352 118.6572887  13.6666602  54.2954876 119.3351906
  12.5839200  53.3124392 118.9438246  14.5423719  36.3560954 107.3254692
  13.6653185  36.2349755 106.9616939  15.0181472  35.5647033 107.0733581
  24.4096712  44.8114022 124.0953148  23.5223491  44.4739944 124.2179547
  24.9795263  44.0797053 124.3321913   6.0625859  41.1438114 117.4196199
   6.7496899  40.8299844 116.8317214   5.9073988  42.0479479 117.1463451
  17.9397865  49.4715475 121.0614391  17.8668037  50.2770446 121.5733696
  17.4975258  49.6707440 120.2362412  17.7287645  48.7087245 114.5717212
  16.9455167  49.2508925 114.6655437  18.4280390  49.2261224 114.9711454
  21.0384295  34.5181874 117.2151418  21.5352995  33.7651836 116.8952488
  20.2671276  34.5546191 116.6494627  28.8914052  40.2222240 118.8569709
  28.8803929  41.1046955 118.4863642  28.0231432  39.8693790 118.6624246
  20.3996549  49.3702309 123.2172550  21.1124521  50.0049773 123.1448451
  19.9086577  49.4666175 122.4012551  22.1214076  43.2753561 114.7889841
  21.1870354  43.3955024 114.6194546  22.2990744  42.3726028 114.5249851
  17.6219264  36.6599257 116.9423102  17.2517051  36.1070297 117.6304008
  18.1178356  36.0557391 116.3898103  25.5086627  39.1170881 115.3239875
  25.9747079  39.9498872 115.2500178  25.9594128  38.6515862 116.0285134
  15.4508462  47.1196752 124.0378120  16.1517922  47.7533235 124.1907515
  14.9803577  47.4611484 123.2773760  23.5762858  45.4614702 112.3226027
  23.8522702  45.3471296 113.2319902  22.7067357  45.0632187 112.2838201
  23.4803290  31.4851468 119.3630777  22.5666370  31.7155694 119.5312984
  23.9096391  31.5689912 120.2144809  23.2509748  39.6741360 121.8630671
  22.5981198  39.9217267 121.2083124  23.6290128  38.8605498 121.5293148
  20.2116922  49.7101053 115.9658841  20.3939317  48.8922709 116.4286593
  21.0349908  49.9268745 115.5283731  20.5459088  48.6369238 113.2273890
  21.0746854  48.1261692 112.6144052  20.8087307  48.3211768 114.0919423
  11.0476180  46.6533107 120.9709223  11.6329617  45.9076795 121.1037127
  10.8501019  46.9637064 121.8545887  13.9014836  49.6884355 115.9871665
  13.2325211  50.1730482 115.5035706  13.7627705  49.9353575 116.9015044
   5.6393835  39.2238707 119.6913666   5.6777935  38.6902298 120.4850784
   5.1334128  38.6973913 119.0724643  18.0420104  51.7228098 122.5854324
  18.5938412  51.8859720 123.3503409  18.3826298  52.3132536 121.9134349
  22.8930978  46.5489356 128.4402978  23.4370882  47.1619314 127.9457933
  22.3117823  47.1068934 128.9569991   9.2702413  37.9502810 112.7667598
   9.5655854  37.0413488 112.7134651   8.3690448  37.9290549 112.4448600
  21.1788491  49.6710074 119.5718006  21.0539631  48.8699813 119.0628952
  21.8367583  50.1656267 119.0831976  12.7996660  36.0258806 118.7495146
  12.0783245  36.6394774 118.6102620  13.5889915  36.5616571 118.6711792
  23.2423400  47.4719094 121.1997556  22.2953735  47.3524445 121.1275883
  23.5906173  46.5841592 121.2823818  10.9990254  35.6316907 112.8906923
  10.6702960  34.7514286 112.7082029  11.3529625  35.5764576 113.7783312
  20.2469833  47.2671810 117.4001908  20.0994796  46.3388517 117.5809478
  21.0723327  47.2891901 116.9158984  14.1132077  35.9189877 113.2582400
  14.4528150  36.4475798 112.5361009  14.5604198  36.2570283 114.0340967
  23.8503955  48.0900369 118.4866781  24.7750502  47.8843230 118.3491232
  23.6819258  47.8416770 119.3956123  17.4591990  31.3876240 121.1612792
  18.2818059  30.9136718 121.0391682  17.7030054  32.1666724 121.6611478
  16.1000225  34.4164499 111.4575693  16.8208587  34.7945751 110.9539410
  15.4765529  35.1353375 111.5610671  20.2431347  35.1209648 112.3934026
  20.4594962  36.0034285 112.0922854  19.7625415  34.7295861 111.6639668
  14.9830569  38.0795361 118.9704770  14.8375150  38.3935664 119.8629052
  14.5055772  38.6980261 118.4175669  16.8426952  35.0697909 119.0185660
  16.8288520  34.1739002 118.6817958  17.5599380  35.0768572 119.6523946
  18.6953082  35.5035249 121.0638787  18.4370860  36.4252320 121.0623118
  18.1638123  35.1065683 121.7539251  23.6399271  48.6086036 113.8428873
  23.8136149  48.0432459 113.0902725  24.1328162  49.4086931 113.6608362
   9.4576231  40.6200705 121.9092431   8.9129699  41.3960513 122.0412706
  10.3355581  40.9671510 121.7511553  16.2463848  33.9512289 114.2873230
  16.3679759  33.0228935 114.4864117  15.9565890  33.9650975 113.3751545
  19.1155038  31.6367199 117.4239950  19.1376735  31.7006533 116.4691929
  19.5323097  30.7971708 117.6180456  29.4938662  41.3722459 115.4619172
  29.9369808  40.6229784 115.0638296  28.6165173  41.3632595 115.0792904
  24.6274444  47.9252800 110.9425771  25.3225348  48.5459493 111.1613085
  24.9697594  47.0748152 111.2178149  26.5265867  45.3752506 112.4713102
  27.0517191  45.7139779 111.7462422  26.4388219  44.4399521 112.2876236
  18.1885915  49.2886580 124.6002978  18.4973042  49.0435726 125.4725678
  18.9861398  49.4933218 124.1121848  18.2106528  51.4424489 116.8308355
  17.7711518  50.9500868 117.5241211  18.9614644  50.8997457 116.5900430
  10.6898867  47.6336030 116.8332983  11.5156886  47.3339802 116.4531626
  10.3392919  46.8643653 117.2822772  15.6580400  46.9862498 118.9030656
  15.0360409  46.3233203 118.6032884  16.3285267  47.0123630 118.2204304
   8.8907472  45.5522357 117.7921916   8.0539380  45.1244531 117.6105918
   8.8631117  45.7454800 118.7292708  26.2159773  46.0085410 127.7764300
  25.4255317  45.9909548 127.2368799  25.9793127  46.5473703 128.5313336
  26.3357648  42.8577876 125.0897028  26.3855653  42.6927883 126.0312551
  26.2271571  41.9905135 124.6994909  15.2193907  45.5366422 112.3789117
  15.3682027  46.2201886 111.7255790  16.0260350  45.5171512 112.8938573
  23.6261410  38.8408804 126.4056335  24.5271273  38.7015269 126.1140333
  23.7009385  39.0063259 127.3454512  27.8375845  45.2774818 125.3339050
  27.5460653  45.6404798 126.1702511  27.2247976  44.5641826 125.1552382
  29.0371527  42.8427697 117.8541620  29.8718418  43.2817501 118.0179180
  29.1730656  42.3666351 117.0349866  26.0863033  40.4007432 123.8019108
  26.5617155  40.5935078 122.9937959  25.1628598  40.4566618 123.5562491
  12.9746540  41.5631599 113.3850186  12.7292582  40.6593929 113.5830396
  13.1442454  41.5648750 112.4429664  20.6643249  32.4355276 122.7674942
  21.1825193  33.1716303 122.4421430  20.3098382  32.7419269 123.6021701
  12.2442187  37.2959957 110.8836347  11.5511432  37.3704312 110.2276383
  11.9993939  36.5320301 111.4057864  20.9155844  28.8555558 118.2875838
  21.1957597  28.1878747 118.9136265  21.7006451  29.0484654 117.7750502
  18.7189312  48.0314552 109.8500864  18.1463279  48.6504739 109.3971336
  19.2922106  48.5813914 110.3840786  24.7864702  37.2773192 122.0347413
  25.7382125  37.3771290 122.0559637  24.6168152  36.4851461 122.5445498
  22.8079081  34.3628775 122.2206814  22.2129014  34.6433788 121.5253303
  22.5228778  34.8522676 122.9923555  21.9386572  48.3151702 110.9809447
  22.8717245  48.2497264 111.1842322  21.8509785  49.1507969 110.5223979
  24.5674589  47.6317573 107.9413394  24.4888220  47.2977436 108.8349152
  25.3884255  48.1239341 107.9404867  27.2652780  40.4979312 121.1489713
  27.2329100  39.5595313 121.3349397  27.8753403  40.5763349 120.4155538
  19.1036111  39.3675365 107.1916917  20.0495215  39.2381573 107.2605335
  18.7250356  38.6290027 107.6686345  27.4147268  37.2890355 121.1947996
  26.8986317  36.5048812 121.0077925  28.2987217  36.9609072 121.3594516
  25.0757995  31.0331371 117.1543809  24.8782816  30.7246459 118.0387141
  25.6857701  31.7593010 117.2841739  33.0829330  41.5595319 120.2895750
  33.8132718  41.2980607 120.8503453  32.4736275  40.8224041 120.3297818
  31.1644627  39.7003181 120.8870201  30.4377790  39.5659146 120.2786692
  30.7491914  40.0080010 121.6926919  18.9874803  43.4193111 128.6517574
  19.9077813  43.5971710 128.8457620  18.9524386  42.4749156 128.4997273
  17.2879028  37.2925341 107.1271802  16.3810483  36.9958454 107.2034516
  17.5655009  36.9955159 106.2606088   8.2056968  38.6131705 117.5770849
   7.8859752  37.7597013 117.2845223   7.6590396  38.8280283 118.3328816
  11.9836876  41.3294146 121.2940355  12.2022885  42.2611254 121.3128389
  12.3962650  40.9702120 122.0795159  18.9041093  31.8362231 113.2816043
  18.0941822  31.4909316 113.6571290  19.5925510  31.5269775 113.8703655
  20.8331642  30.9140278 114.9040340  21.3862680  31.3335731 115.5630363
  21.0701728  29.9876026 114.9463296  16.0577812  34.1512277 107.2683781
  16.9196976  34.4767175 107.5279599  16.2428157  33.3643772 106.7556847
   8.0745228  42.2334616 119.5463970   7.3808700  41.8188569 119.0333925
   8.8218219  42.2755153 118.9497389  24.2110449  33.0240803 114.4119004
  23.6309118  33.6825607 114.0297057  23.9446382  32.2018148 114.0006422
  22.6614015  32.4245861 116.6140325  23.1613794  32.5362395 115.8054644
  23.3049623  32.1206914 117.2541133   9.9881971  42.1652870 117.4229985
   9.9652659  42.2640557 116.4711868  10.2982607  43.0118021 117.7447151
  12.6469349  44.2229025 121.5376599  13.6012602  44.1912967 121.4706531
  12.4481872  43.7619649 122.3526825  13.2368731  42.7930141 124.1047397
  14.0561620  43.2874220 124.1282234  13.5105538  41.8762109 124.0764965
  22.9935327  35.1840893 113.4675353  22.1061182  35.4690544 113.2495547
  23.4089316  35.0234657 112.6202629  26.3449863  35.2087414 117.1829692
  27.1210253  35.6983867 117.4554309  25.6197997  35.6345469 117.6401561
  28.7822422  35.9215034 118.2403632  29.3766912  35.6810770 117.5296941
  28.8549005  35.2022164 118.8677169  11.0019577  49.7648644 118.5546797
  10.8674045  49.0049045 117.9884795  10.5851640  50.4889544 118.0875586
  22.1378540  44.9485568 107.5623373  22.8414390  45.1535571 108.1781028
  21.4141189  45.5162330 107.8272456  22.9676351  40.6995429 113.6825643
  22.9111552  41.1563981 112.8433275  23.5204693  39.9386114 113.5048486
  26.7781157  36.4885161 114.5075762  26.5218091  36.0881797 115.3383970
  26.1534025  37.2028955 114.3825901  31.0893494  39.2281234 117.0147054
  30.5293052  39.2974424 117.7878616  30.4836998  39.0522219 116.2946550
  14.1588703  50.6617962 118.7665240  14.0421087  51.6063394 118.6643930
  13.3381149  50.3591523 119.1551039  24.0465238  45.3868097 109.6121833
  24.8810842  44.9549296 109.4299307  23.8849581  45.2150111 110.5398727
  23.7011130  41.8900211 110.9778172  23.6459934  41.7244482 110.0366616
  23.0757185  42.5976243 111.1340362  21.0157037  44.1949122 130.3031735
  21.8848197  44.3689775 129.9418370  20.5363789  45.0143539 130.1807464
  17.0107255  31.3908320 110.5563490  16.9985925  32.3350159 110.7131761
  17.9030677  31.2078465 110.2622952  15.1843217  51.3146223 121.9821168
  16.0870464  51.3469834 122.2987663  14.9580587  50.3846674 121.9967504
  16.9396819  50.0677210 118.6431247  15.9892450  50.0679072 118.5295619
  17.2429306  49.3209945 118.1267282  20.8259375  27.9851096 114.8109427
  20.0591771  27.4309583 114.9566109  21.2370080  28.0572965 115.6723579
  32.6749513  55.9037748 119.7077009  33.3127923  55.7844496 119.0040349
  32.5570356  56.8518592 119.7664962  29.4839219  55.8565176 119.6438534
  29.1457731  55.7406241 118.7559069  30.3528987  55.4556342 119.6239540
  25.3426035  57.7100653 115.6335425  24.7790900  57.6190590 114.8651713
  25.2278430  56.8900557 116.1137918  29.9659002  57.0100028 125.6024740
  29.9547643  56.6152826 124.7305243  30.1279642  56.2766101 126.1958511
  22.8890467  59.2051844 118.4719645  23.6811759  58.8642669 118.0565945
  23.1287117  59.3146820 119.3921799  30.9225594  61.3771621 110.9449890
  30.2713573  61.9625701 110.5583904  31.7169956  61.9077815 111.0044927
  24.8481221  58.4660758 111.3437024  25.6212097  57.9189745 111.2049900
  25.2006620  59.3305007 111.5551486  26.6866263  59.7937140 124.5503924
  26.3956129  60.6982771 124.4350590  27.3223248  59.8353668 125.2647993
  27.6122470  57.1713988 121.1405283  28.2086042  56.9470011 120.4262246
  27.6697442  56.4298734 121.7430731  27.1847499  54.6253424 108.9755474
  27.4373019  54.1034945 108.2138937  26.2472058  54.4619569 109.0782158
  32.2290781  53.6289202 116.7830217  33.0153871  53.2108625 116.4320634
  32.4929486  54.5335294 116.9511866  32.4000859  59.0662052 111.4818874
  31.7646692  59.1396679 112.1939779  32.0698265  59.6555651 110.8037953
  37.6299208  53.5664435 117.6863196  38.3624380  52.9963652 117.9201025
  36.8738564  53.1786036 118.1269702  26.9043787  56.5281530 111.1779849
  26.7880045  55.8526433 111.8460933  27.0146047  56.0413904 110.3612002
  29.2475328  55.9891677 114.8826538  28.8833535  55.4622298 115.5939460
  30.1042444  55.5990146 114.7093024  35.1524629  47.2786009 122.1457805
  34.8207954  48.1481420 121.9219020  34.5570242  46.9622293 122.8251835
  28.8880815  51.0181577 109.8787887  29.0555218  51.8861813 110.2458358
  28.6977984  51.1808858 108.9549176  31.6456148  59.4798555 121.5453717
  31.3456871  60.3823594 121.4369524  31.3007208  59.2130739 122.3974870
  25.0968630  55.9312352 117.5790422  24.1719126  55.7988566 117.7868113
  25.3453043  56.7106572 118.0760364  35.0453292  51.9981096 119.2251155
  34.1370169  51.9296504 118.9309916  34.9940888  52.4753041 120.0532980
  28.8670036  53.4739234 110.8634554  28.7469661  53.9196285 111.7020034
  28.1722624  53.8224552 110.3048092  22.4577441  55.5745626 118.4134211
  22.5869822  55.8280105 119.3273622  21.7774892  56.1673334 118.0938866
  26.6276928  66.2442876 114.5124685  26.5500958  67.1950701 114.5913166
  26.0238572  65.8988748 115.1699611  29.1194158  53.4170741 127.1686052
  28.3427492  53.9764661 127.1588917  29.7584721  53.9027524 127.6900922
  36.9114939  50.1997534 121.0029029  36.2689319  50.4930067 120.3568823
  36.4069867  50.0850454 121.8082225  34.5655102  53.9460707 111.6914888
  35.4772958  54.1788094 111.5162585  34.0564749  54.5297751 111.1289966
  27.3740530  56.2256195 126.7304019  28.1155215  56.7641239 126.4538842
  26.6677516  56.8522483 126.8875571  32.8495870  58.3685335 125.3276180
  33.2579226  57.9267746 124.5830813  32.1273131  57.7937963 125.5810373
  29.2026940  53.3057942 122.7009737  30.0488135  53.7297355 122.8444386
  29.1425578  52.6491566 123.3948300  33.1724685  58.9286526 119.0828469
  32.5433547  59.0932240 118.3804537  32.7850347  59.3428135 119.8539433
  37.0513916  59.8640964 116.4372833  36.3664955  60.2439865 115.8869866
  37.1357766  60.4736290 117.1704781  32.3526385  50.9662310 124.3590911
  32.1087317  51.7204371 123.8225187  32.6286316  51.3447658 125.1938158
  34.3064848  57.5100923 123.0368177  34.5181743  58.1532682 122.3602558
  34.2594596  56.6763239 122.5690107  31.9091077  50.1218743 119.9404749
  31.0475556  50.4199997 120.2321486  31.9353512  50.3389142 119.0085781
  28.7252646  58.6660934 116.3478554  29.1890992  58.9448637 115.5583177
  28.4609444  57.7644378 116.1651645  25.6176727  58.2132415 119.2858318
  26.1878085  58.6419684 118.6475802  26.2084839  57.9315000 119.9842503
  27.6621532  54.7884086 113.1568119  28.3645576  55.2405130 113.6242046
  27.3302161  54.1467905 113.7848013  26.1101894  53.3795843 127.5319329
  25.4800555  54.0612124 127.7654726  26.0037982  53.2678924 126.5872467
  21.4046866  53.0467639 118.4585253  20.6145920  53.3025167 117.9825364
  21.8958114  53.8615977 118.5637294  35.4210676  60.3872878 121.2090534
  36.2428120  59.9853065 120.9273215  35.4173079  60.2841112 122.1606650
  23.3561612  53.4112218 115.4168730  22.5592775  53.5230912 115.9352225
  23.1287204  53.7498870 114.5509620  29.1867279  59.9356921 123.3651244
  29.2511712  60.3977329 124.2009416  28.4778203  59.3054286 123.4933554
  19.6884569  53.2998129 120.8900244  19.9392608  54.1845139 121.1557820
  20.2244118  53.1202731 120.1175336  43.5116669  56.7311626 117.5575505
  42.7580377  56.1619025 117.4019510  43.6464210  56.6974291 118.5046140
  28.9015297  61.6025029 113.2330225  28.7660972  62.4476565 113.6615073
  29.4425110  61.8044306 112.4696158  25.3882637  47.6816609 129.8944580
  24.9949582  47.1282807 130.5692224  26.2048777  47.9927187 130.2851097
  22.3544694  59.1200467 113.8058150  22.8669215  59.9143717 113.9563714
  23.0067407  58.4226757 113.7391751  24.1639579  62.2366223 115.8880903
  24.3406207  63.1584188 115.7001887  24.9596413  61.9224642 116.3175283
  28.3050598  49.0974488 127.4864836  29.0460311  49.6981641 127.4069299
  28.5368521  48.3552126 126.9282879  23.4491936  54.2830855 125.7643066
  23.3345451  53.3816112 126.0650165  22.5936453  54.5294552 125.4127883
  30.5283773  62.2248595 127.3630567  30.0847628  61.4384974 127.0451471
  31.1900987  62.4127746 126.6974458  25.2870895  63.7544397 121.8891245
  25.8378320  63.6261460 121.1168239  24.4482371  64.0539286 121.5386138
  32.6265012  62.5051395 125.3911968  32.6083487  63.3260276 124.8992237
  33.5484932  62.3805470 125.6162109  29.0838066  60.0195525 126.2335476
  29.6166402  59.2583813 126.0034784  28.5552147  59.7269177 126.9759631
  32.2507761  45.1255591 121.7629118  31.9072030  46.0157232 121.6868229
  32.6186723  44.9357248 120.8998703  20.3193611  57.4489121 114.5817720
  21.1568833  57.8586129 114.3651428  20.4971879  56.5088563 114.5517914
  32.2158043  55.1164202 110.2701553  31.7004667  55.8868806 110.5089941
  31.9435352  54.4429338 110.8934615  29.8005154  49.9613903 115.3286792
  28.9446751  49.5720753 115.1492430  30.2132106  50.0405863 114.4686577
  31.3304301  47.4960246 119.7278351  30.8269097  47.4590381 118.9146157
  31.6234908  48.4052989 119.7875008  27.5747187  47.5798976 118.7344533
  28.4400184  47.3841784 118.3750423  27.6424696  47.3509327 119.6613890
  37.1892317  57.8696556 112.2054727  36.4121760  57.5307716 111.7609889
  37.8683798  57.8749180 111.5309692  32.0044347  52.9891294 112.0961334
  31.6994482  53.3037443 112.9471478  32.9574789  53.0672714 112.1388667
  30.4490778  59.1481517 113.7454288  29.9212140  58.4134277 113.4327526
  29.9478281  59.9256194 113.4994257  35.4283624  57.3430538 118.8621335
  34.7707299  58.0329799 118.9501463  36.2324024  57.7326970 119.2055321
  25.1809506  49.8101183 116.1060900  25.7553258  49.5876365 115.3734093
  25.7680488  49.8789878 116.8589501  34.2389083  55.6974910 116.9125276
  34.7520965  56.3304902 117.4146986  34.8890307  55.0976106 116.5468636
  25.5079093  51.8405645 110.1256785  24.6716405  52.1780331 110.4466060
  25.3683863  51.7054624 109.1883922  27.4832174  46.6842432 114.8335969
  26.8296586  46.3691450 114.2092584  27.4412648  46.0618173 115.5595792
  28.5943379  56.9661727 106.7489261  27.6870440  56.7350981 106.9480410
  29.0914411  56.1699347 106.9363243  31.5011457  65.6759235 109.6685948
  30.8273156  65.9790931 110.2770905  31.8877279  66.4788315 109.3191405
  30.7169914  53.1724366 119.1583617  29.7992475  53.3939313 119.0005305
  31.1330058  53.2470676 118.2995324  31.5004962  54.5715782 114.2886297
  32.2476781  55.0837179 113.9793419  31.7696551  54.2499834 115.1490691
  29.7731612  57.0674322 111.2713252  28.8642831  56.7833355 111.3685721
  29.8026696  57.4873401 110.4116558  35.0050879  60.6780912 115.0404419
  34.5513207  59.8371822 115.0969610  34.3744846  61.3142310 115.3779199
  33.9483799  51.6072898 116.2705087  33.2106556  51.0950284 116.6015329
  34.2010573  51.1673279 115.4588363  33.4483819  62.5157409 115.9754237
  33.7406793  63.0762466 115.2566603  33.9582439  62.8085970 116.7307396
  34.0495426  44.3849150 116.8646856  34.3554303  43.5246513 116.5772771
  34.7748031  44.9766770 116.6645850  20.3419782  54.7879836 115.2528454
  20.1444182  54.1949197 114.5279520  19.7866446  54.4832047 115.9704393
  28.3216506  54.6802943 117.3723047  28.3765116  53.7276779 117.2965523
  27.5107708  54.8362382 117.8564345  29.4707700  58.6083066 108.6101330
  29.0327130  57.8918925 108.1506967  30.2118141  58.8359181 108.0486422
  26.2608866  53.2980003 115.1313426  25.4476731  53.5974173 115.5378618
  26.7567860  52.9035691 115.8487908  28.4117444  63.2937760 117.0647690
  28.3693623  63.5198606 116.1356222  29.3280143  63.0601134 117.2133492
  31.8583078  53.7621827 123.9628320  32.2132465  53.9893300 124.8222785
  32.5055209  54.0940204 123.3405575  37.5880815  56.8840263 114.6677649
  37.4498713  57.0741859 113.7398838  37.2317033  57.6459646 115.1245700
  25.7522941  50.8698358 120.7474661  26.3922320  50.7287117 120.0497624
  24.9200471  50.5832872 120.3713263  37.6150194  58.9516790 119.6788920
  38.0486701  58.8592079 120.5271974  38.3281775  58.9274291 119.0408936
  26.5283245  60.1700789 116.8609653  27.3223843  59.6751109 116.6592228
  25.8174937  59.6418652 116.4977359  31.3478089  62.5518884 121.2122021
  31.4015111  63.1209820 121.9799737  30.4792870  62.7220769 120.8476058
  22.8366008  54.3143870 112.9369406  21.9063596  54.2528326 113.1539368
  22.9323480  53.7919823 112.1406047  22.7551557  50.8398683 115.5247648
  23.0158374  51.7544016 115.4156808  23.5768729  50.3723126 115.6744260
  24.2276482  52.2536440 122.6946472  24.8999536  52.0453802 122.0459121
  23.4006269  52.0558526 122.2551704  38.4765744  58.9940491 122.2121806
  38.6701634  59.8986301 122.4581081  38.3766362  58.5347910 123.0460391
  30.1302054  48.8798381 124.7112133  29.4829970  49.5788331 124.6176609
  30.9003070  49.3134525 125.0788381  33.5380852  59.1447233 127.7862686
  33.3866359  58.9157785 126.8692770  33.5285532  60.1017835 127.7994031
  30.3066189  56.7179146 122.7708953  31.2358249  56.8690306 122.5977920
  29.8857219  56.8063167 121.9157599  29.1054521  60.7429811 120.5407490
  28.9665606  60.3748595 121.4133428  28.3169117  61.2577450 120.3691448
  29.7002673  65.8438907 111.8833027  29.8754428  65.3726950 112.6978649
  29.0135461  66.4704673 112.1114288  30.6559736  60.1211413 117.9296328
  30.3209568  60.0812183 118.8253978  30.1563681  59.4556129 117.4566738
  24.6303980  55.5279043 123.4548909  24.4923778  54.7959282 124.0560448
  25.5408903  55.4387943 123.1733097  33.5918927  57.4667448 108.2033388
  32.9748098  56.7414276 108.1066440  33.1235416  58.2276808 107.8600462
  27.2586280  55.2399003 122.9432589  27.9685899  54.5992195 122.9019207
  27.2155589  55.4911898 123.8658770  35.2473059  62.1766356 125.8639168
  35.1885605  61.4925576 125.1969751  35.6492577  62.9185346 125.4119794
  25.9715214  52.2264221 124.7628228  25.4352571  51.7754959 125.4149825
  25.3831923  52.3610129 124.0198693  24.2663758  68.9928270 118.6572887
  24.5060356  69.6246794 119.3351906  23.4232954  68.6416310 118.9438246
  25.3817473  51.6852872 107.3254692  24.5046940  51.5641673 106.9616939
  25.8575226  50.8938950 107.0733581  35.2490466  60.1405940 124.0953148
  34.3617245  59.8031862 124.2179547  35.8189017  59.4088971 124.3321913
  16.9019613  56.4730032 117.4196199  17.5890653  56.1591762 116.8317214
  16.7467742  57.3771396 117.1463451  21.7054336  51.3620228 121.8481223
  21.6212524  50.7545898 121.1131633  20.8837042  51.8529247 121.8490719
  28.7791620  64.8007392 121.0614391  28.7061791  65.6062364 121.5733696
  28.3369013  64.9999358 120.2362412  28.5681399  64.0379162 114.5717212
  27.7848921  64.5800842 114.6655437  29.2674145  64.5553142 114.9711454
  31.8778049  49.8473792 117.2151418  32.3746749  49.0943754 116.8952488
  31.1065031  49.8838108 116.6494627  39.7307807  55.5514157 118.8569709
  39.7197683  56.4338873 118.4863642  38.8625186  55.1985708 118.6624246
  31.2390303  64.6994226 123.2172550  31.9518275  65.3341691 123.1448451
  30.7480332  64.7958092 122.4012551  32.9607830  58.6045479 114.7889841
  32.0264109  58.7246941 114.6194546  33.1384499  57.7017946 114.5249851
  28.4613018  51.9891175 116.9423102  28.0910806  51.4362215 117.6304008
  28.9572111  51.3849308 116.3898103  36.3480382  54.4462798 115.3239875
  36.8140834  55.2790790 115.2500178  36.7987882  53.9807780 116.0285134
  26.2902217  62.4488670 124.0378120  26.9911676  63.0825153 124.1907515
  25.8197332  62.7903401 123.2773760  34.4156613  60.7906620 112.3226027
  34.6916457  60.6763214 113.2319902  33.5461111  60.3924104 112.2838201
  34.3197044  46.8143385 119.3630777  33.4060124  47.0447612 119.5312984
  34.7490146  46.8981829 120.2144809  34.0903503  55.0033277 121.8630671
  33.4374953  55.2509185 121.2083124  34.4683883  54.1897415 121.5293148
  31.0510677  65.0392970 115.9658841  31.2333071  64.2214626 116.4286593
  31.8743663  65.2560663 115.5283731  31.3852842  63.9661156 113.2273890
  31.9140609  63.4553610 112.6144052  31.6481062  63.6503686 114.0919423
  30.1391076  55.7453088 128.3496708  29.4631713  55.6447218 129.0199083
  30.9618710  55.5892302 128.8132705  21.8869935  61.9825025 120.9709223
  22.4723372  61.2368713 121.1037127  21.6894773  62.2928982 121.8545887
  24.7408590  65.0176272 115.9871665  24.0718965  65.5022400 115.5035706
  24.6021460  65.2645493 116.9015044  16.4787590  54.5530625 119.6913666
  16.5171689  54.0194216 120.4850784  15.9727882  54.0265831 119.0724643
  28.8813859  67.0520016 122.5854324  29.4332167  67.2151637 123.3503409
  29.2220052  67.6424454 121.9134349  23.8578352  49.3995166 123.1876209
  23.9219678  50.2609996 122.7753606  23.7945472  48.7869167 122.4548567
  23.3330624  51.4718298 126.8349243  23.9602663  51.0895375 127.4486767
  22.4758543  51.2532500 127.2004935  33.7324733  61.8781273 128.4402978
  34.2764637  62.4911232 127.9457933  33.1511578  62.4360852 128.9569991
  20.1096167  53.2794727 112.7667598  20.4049608  52.3705406 112.7134651
  19.2084203  53.2582467 112.4448600  32.0182246  65.0001991 119.5718006
  31.8933385  64.1991731 119.0628952  32.6761337  65.4948185 119.0831976
  23.6390414  51.3550724 118.7495146  22.9177000  51.9686691 118.6102620
  24.4283670  51.8908489 118.6711792  34.0817154  62.8011011 121.1997556
  33.1347490  62.6816363 121.1275883  34.4299927  61.9133509 121.2823818
  26.4416728  48.6905150 125.0235798  26.9651129  48.9367447 125.7862107
  26.2229061  49.5225185 124.6038935  21.8384009  50.9608825 112.8906923
  21.5096715  50.0806204 112.7082029  22.1923379  50.9056494 113.7783312
  31.0863588  62.5963728 117.4001908  30.9388550  61.6680435 117.5809478
  31.9117081  62.6183818 116.9158984  24.9525832  51.2481795 113.2582400
  25.2921904  51.7767716 112.5361009  25.3997952  51.5862201 114.0340967
  34.6897709  63.4192286 118.4866781  35.6144257  63.2135148 118.3491232
  34.5213013  63.1708687 119.3956123  27.6469273  49.6318845 122.7085469
  27.3066093  48.8326658 123.1106148  26.9408279  49.9320556 122.1362302
  28.2985745  46.7168158 121.1612792  29.1211814  46.2428636 121.0391682
  28.5423808  47.4958642 121.6611478  26.9393979  49.7456416 111.4575693
  27.6602342  50.1237669 110.9539410  26.3159283  50.4645293 111.5610671
  31.0825102  50.4501565 112.3934026  31.2988716  51.3326203 112.0922854
  30.6019169  50.0587779 111.6639668  25.8224323  53.4087278 118.9704770
  25.6768904  53.7227581 119.8629052  25.3449527  54.0272179 118.4175669
  27.6820706  50.3989826 119.0185660  27.6682275  49.5030920 118.6817958
  28.3993134  50.4060490 119.6523946  29.5346837  50.8327167 121.0638787
  29.2764615  51.7544237 121.0623118  29.0031877  50.4357601 121.7539251
  34.4793026  63.9377954 113.8428873  34.6529903  63.3724376 113.0902725
  34.9721917  64.7378849 113.6608362  20.2969985  55.9492623 121.9092431
  19.7523454  56.7252431 122.0412706  21.1749335  56.2963427 121.7511553
  27.0857602  49.2804207 114.2873230  27.2073513  48.3520853 114.4864117
  26.7959644  49.2942893 113.3751545  29.9548793  46.9659117 117.4239950
  29.9770489  47.0298450 116.4691929  30.3716852  46.1263626 117.6180456
  40.3332417  56.7014377 115.4619172  40.7763563  55.9521702 115.0638296
  39.4558927  56.6924513 115.0792904  35.4668198  63.2544718 110.9425771
  36.1619103  63.8751411 111.1613085  35.8091348  62.4040069 111.2178149
  21.0836007  55.0762519 124.8022588  20.3417743  55.2245154 125.3887219
  20.7628752  55.3370785 123.9389338  37.3659621  60.7044424 112.4713102
  37.8910945  61.0431696 111.7462422  37.2781974  59.7691439 112.2876236
  29.0279670  64.6178497 124.6002978  29.3366796  64.3727644 125.4725678
  29.8255152  64.8225136 124.1121848  29.0500282  66.7716407 116.8308355
  28.6105272  66.2792786 117.5241211  29.8008399  66.2289375 116.5900430
  21.5292621  62.9627948 116.8332983  22.3550641  62.6631720 116.4531626
  21.1786673  62.1935570 117.2822772  26.4974154  62.3154416 118.9030656
  25.8754163  61.6525121 118.6032884  27.1679021  62.3415548 118.2204304
  19.7301226  60.8814274 117.7921916  18.8933134  60.4536449 117.6105918
  19.7024871  61.0746718 118.7292708  26.5698682  50.7936204 128.4963162
  26.6186837  51.6698327 128.1140932  27.1121196  50.2513597 127.9234806
  37.0553527  61.3377327 127.7764300  36.2649071  61.3201466 127.2368799
  36.8186882  61.8765621 128.5313336  37.1751402  58.1869794 125.0897028
  37.2249407  58.0219801 126.0312551  37.0665326  57.3197053 124.6994909
  26.0587661  60.8658339 112.3789117  26.2075781  61.5493804 111.7255790
  26.8654105  60.8463429 112.8938573  34.4655165  54.1700722 126.4056335
  35.3665028  54.0307187 126.1140333  34.5403139  54.3355177 127.3454512
  28.7997970  51.5467576 125.2509521  27.9301280  51.8401143 124.9792110
  29.0357450  52.1308021 125.9716785  38.6769599  60.6066735 125.3339050
  38.3854408  60.9696716 126.1702511  38.0641730  59.8933743 125.1552382
  39.8765282  58.1719615 117.8541620  40.7112173  58.6109419 118.0179180
  40.0124410  57.6958268 117.0349866  36.9256787  55.7299350 123.8019108
  37.4010909  55.9226996 122.9937959  36.0022353  55.7858536 123.5562491
  23.8140294  56.8923517 113.3850186  23.5686336  55.9885847 113.5830396
  23.9836209  56.8940667 112.4429664  31.5037004  47.7647193 122.7674942
  32.0218948  48.5008220 122.4421430  31.1492137  48.0711187 123.6021701
  23.0835942  52.6251875 110.8836347  22.3905187  52.6996230 110.2276383
  22.8387693  51.8612218 111.4057864  31.7549598  44.1847476 118.2875838
  32.0351352  43.5170665 118.9136265  32.5400205  44.3776572 117.7750502
  29.5583067  63.3606470 109.8500864  28.9857034  63.9796657 109.3971336
  30.1315860  63.9105832 110.3840786  35.6258456  52.6065110 122.0347413
  36.5775879  52.7063208 122.0559637  35.4561907  51.8143378 122.5445498
  33.6472836  49.6920693 122.2206814  33.0522768  49.9725706 121.5253303
  33.3622533  50.1814594 122.9923555  32.7780326  63.6443620 110.9809447
  33.7111000  63.5789182 111.1842322  32.6903539  64.4799887 110.5223979
  35.4068343  62.9609490 107.9413394  35.3281975  62.6269354 108.8349152
  36.2278010  63.4531258 107.9404867  38.1046534  55.8271230 121.1489713
  38.0722854  54.8887230 121.3349397  38.7147158  55.9055266 120.4155538
  29.9429865  54.6967283 107.1916917  30.8888970  54.5673491 107.2605335
  29.5644110  53.9581944 107.6686345  38.2541023  52.6182273 121.1947996
  37.7380071  51.8340730 121.0077925  39.1380971  52.2900990 121.3594516
  35.9151750  46.3623289 117.1543809  35.7176571  46.0538377 118.0387141
  36.5251455  47.0884928 117.2841739  43.9223084  56.8887236 120.2895750
  44.6526473  56.6272525 120.8503453  43.3130030  56.1515958 120.3297818
  42.0038381  55.0295099 120.8870201  41.2771545  54.8951064 120.2786692
  41.5885668  55.3371928 121.6926919  29.8268558  58.7485029 128.6517574
  30.7471567  58.9263628 128.8457620  29.7918141  57.8041074 128.4997273
  28.1272782  52.6217259 107.1271802  27.2204238  52.3250372 107.2034516
  28.4048763  52.3247077 106.2606088  19.0450723  53.9423622 117.5770849
  18.7253507  53.0888931 117.2845223  18.4984151  54.1572201 118.3328816
  22.8230630  56.6586063 121.2940355  23.0416640  57.5903171 121.3128389
  23.2356404  56.2994038 122.0795159  29.7434848  47.1654149 113.2816043
  28.9335576  46.8201234 113.6571290  30.4319265  46.8561692 113.8703655
  31.6725396  46.2432196 114.9040340  32.2256435  46.6627649 115.5630363
  31.9095483  45.3167944 114.9463296  27.6958496  52.2319269 130.6843104
  27.5955222  53.1813626 130.6155195  27.4780038  51.9037508 129.8119174
  26.8971567  49.4804194 107.2683781  27.7590731  49.8059093 107.5279599
  27.0821911  48.6935690 106.7556847  18.9138983  57.5626534 119.5463970
  18.2202454  57.1480487 119.0333925  19.6611974  57.6047070 118.9497389
  35.0504203  48.3532721 114.4119004  34.4702872  49.0117525 114.0297057
  34.7840136  47.5310065 114.0006422  33.5007770  47.7537778 116.6140325
  34.0007548  47.8654313 115.8054644  34.1443378  47.4498831 117.2541133
  27.5589766  55.6616408 129.5008166  27.0756847  56.4616768 129.7072055
  27.6450705  55.6724353 128.5475610  20.8275725  57.4944788 117.4229985
  20.8046413  57.5932475 116.4711868  21.1376362  58.3409938 117.7447151
  23.4863103  59.5520943 121.5376599  24.4406357  59.5204885 121.4706531
  23.2875627  59.0911566 122.3526825  24.0762485  58.1222059 124.1047397
  24.8955374  58.6166137 124.1282234  24.3499293  57.2054027 124.0764965
  33.8329081  50.5132811 113.4675353  32.9454936  50.7982462 113.2495547
  34.2483070  50.3526574 112.6202629  37.1843618  50.5379332 117.1829692
  37.9604008  51.0275784 117.4554309  36.4591752  50.9637386 117.6401561
  39.6216176  51.2506951 118.2403632  40.2160667  51.0102687 117.5296941
  39.6942760  50.5314082 118.8677169  21.8413332  65.0940562 118.5546797
  21.7067800  64.3340963 117.9884795  21.4245394  65.8181462 118.0875586
  32.9772295  60.2777486 107.5623373  33.6808145  60.4827488 108.1781028
  32.2534944  60.8454248 107.8272456  33.8070105  56.0287347 113.6825643
  33.7505307  56.4855898 112.8433275  34.3598448  55.2678032 113.5048486
  37.6174911  51.8177079 114.5075762  37.3611845  51.4173715 115.3383970
  36.9927779  52.5320873 114.3825901  41.9287249  54.5573152 117.0147054
  41.3686807  54.6266341 117.7878616  41.3230752  54.3814137 116.2946550
  24.9982458  65.9909879 118.7665240  24.8814842  66.9355312 118.6643930
  24.1774904  65.6883441 119.1551039  34.8858992  60.7160015 109.6121833
  35.7204596  60.2841213 109.4299307  34.7243335  60.5442029 110.5398727
  34.5404884  57.2192128 110.9778172  34.4853688  57.0536400 110.0366616
  33.9150940  57.9268161 111.1340362  19.3297399  52.4560193 124.8039594
  19.9756263  51.9459147 125.2926819  19.1214551  53.1928874 125.3783019
  31.8550792  59.5241040 130.3031735  32.7241951  59.6981692 129.9418370
  31.3757543  60.3435457 130.1807464  27.8501010  46.7200237 110.5563490
  27.8379680  47.6642077 110.7131761  28.7424432  46.5370383 110.2622952
  26.0236972  66.6438141 121.9821168  26.9264219  66.6761751 122.2987663
  25.7974342  65.7138592 121.9967504  27.7790574  65.3969128 118.6431247
  26.8286205  65.3970989 118.5295619  28.0823060  64.6501862 118.1267282
  31.6653129  43.3143014 114.8109427  30.8985525  42.7601501 114.9566109
  32.0763834  43.3864883 115.6723579  23.6694890  49.6027810 128.9014608
  24.5326352  49.2464615 129.1117933  23.0960301  49.2641704 129.5890013
  43.5143267  71.2329666 119.7077009  44.1521677  71.1136413 119.0040349
  43.3964110  72.1810510 119.7664962  40.3232974  71.1857094 119.6438534
  39.9851485  71.0698159 118.7559069  41.1922742  70.7848259 119.6239540
  36.1819789  73.0392571 115.6335425  35.6184654  72.9482507 114.8651713
  36.0672184  72.2192475 116.1137918  40.8052757  72.3391946 125.6024740
  40.7941397  71.9444744 124.7305243  40.9673396  71.6058018 126.1958511
  33.7284221  74.5343762 118.4719645  34.5205513  74.1934587 118.0565945
  33.9680871  74.6438737 119.3921799  41.7619348  76.7063538 110.9449890
  41.1107328  77.2917619 110.5583904  42.5563711  77.2369733 111.0044927
  35.6874975  73.7952675 111.3437024  36.4605851  73.2481662 111.2049900
  36.0400374  74.6596925 111.5551486  37.5260018  75.1229058 124.5503924
  37.2349884  76.0274688 124.4350590  38.1617002  75.1645585 125.2647993
  38.4516225  72.5005906 121.1405283  39.0479797  72.2761929 120.4262246
  38.5091196  71.7590652 121.7430731  38.0241253  69.9545342 108.9755474
  38.2766774  69.4326863 108.2138937  37.0865812  69.7911487 109.0782158
  43.0684536  68.9581120 116.7830217  43.8547625  68.5400543 116.4320634
  43.3323240  69.8627212 116.9511866  43.2394613  74.3953970 111.4818874
  42.6040446  74.4688597 112.1939779  42.9092020  74.9847569 110.8037953
  48.4692963  68.8956353 117.6863196  49.2018135  68.3255570 117.9201025
  47.7132319  68.5077954 118.1269702  37.7437542  71.8573447 111.1779849
  37.6273800  71.1818351 111.8460933  37.8539802  71.3705821 110.3612002
  40.0869083  71.3183595 114.8826538  39.7227290  70.7914216 115.5939460
  40.9436199  70.9282064 114.7093024  45.9918383  62.6077927 122.1457805
  45.6601708  63.4773338 121.9219020  45.3963997  62.2914211 122.8251835
  39.7274570  66.3473494 109.8787887  39.8948972  67.2153731 110.2458358
  39.5371739  66.5100776 108.9549176  42.4849903  74.8090473 121.5453717
  42.1850626  75.7115512 121.4369524  42.1400962  74.5422656 122.3974870
  35.9362384  71.2604270 117.5790422  35.0112881  71.1280484 117.7868113
  36.1846798  72.0398489 118.0760364  45.8847047  67.3273013 119.2251155
  44.9763924  67.2588422 118.9309916  45.8334642  67.8044958 120.0532980
  39.7063791  68.8031152 110.8634554  39.5863416  69.2488203 111.7020034
  39.0116379  69.1516469 110.3048092  33.2971195  70.9037544 118.4134211
  33.4263577  71.1572022 119.3273622  32.6168647  71.4965252 118.0938866
  37.4670683  81.5734794 114.5124685  37.3894712  82.5242619 114.5913166
  36.8632326  81.2280666 115.1699611  39.9587912  68.7462659 127.1686052
  39.1821246  69.3056579 127.1588917  40.5978475  69.2319442 127.6900922
  47.7508693  65.5289452 121.0029029  47.1083073  65.8221985 120.3568823
  47.2463622  65.4142372 121.8082225  45.4048857  69.2752625 111.6914888
  46.3166713  69.5080012 111.5162585  44.8958504  69.8589669 111.1289966
  38.2134285  71.5548112 126.7304019  38.9548969  72.0933156 126.4538842
  37.5071270  72.1814401 126.8875571  43.6889624  73.6977253 125.3276180
  44.0972980  73.2559663 124.5830813  42.9666886  73.1229880 125.5810373
  40.0420694  68.6349860 122.7009737  40.8881890  69.0589273 122.8444386
  39.9819332  67.9783484 123.3948300  44.0118439  74.2578443 119.0828469
  43.3827301  74.4224158 118.3804537  43.6244101  74.6720053 119.8539433
  47.8907671  75.1932881 116.4372833  47.2058709  75.5731783 115.8869866
  47.9751520  75.8028208 117.1704781  43.1920140  66.2954228 124.3590911
  42.9481072  67.0496288 123.8225187  43.4680070  66.6739576 125.1938158
  45.1458603  72.8392840 123.0368177  45.3575498  73.4824600 122.3602558
  45.0988351  72.0055157 122.5690107  42.7484831  65.4510661 119.9404749
  41.8869310  65.7491914 120.2321486  42.7747266  65.6681060 119.0085781
  39.5646401  73.9952851 116.3478554  40.0284746  74.2740554 115.5583177
  39.3003199  73.0936296 116.1651645  36.4570482  73.5424333 119.2858318
  37.0271839  73.9711601 118.6475802  37.0478594  73.2606918 119.9842503
  38.5015287  70.1176004 113.1568119  39.2039330  70.5697048 113.6242046
  38.1695915  69.4759823 113.7848013  36.9495648  68.7087760 127.5319329
  36.3194309  69.3904041 127.7654726  36.8431736  68.5970842 126.5872467
  32.2440621  68.3759557 118.4585253  31.4539675  68.6317085 117.9825364
  32.7351868  69.1907894 118.5637294  46.2604430  75.7164796 121.2090534
  47.0821874  75.3144983 120.9273215  46.2566833  75.6133030 122.1606650
  34.1955366  68.7404136 115.4168730  33.3986530  68.8522830 115.9352225
  33.9680958  69.0790788 114.5509620  40.0261034  75.2648839 123.3651244
  40.0905466  75.7269246 124.2009416  39.3171958  74.6346204 123.4933554
  30.5278324  68.6290047 120.8900244  30.7786362  69.5137057 121.1557820
  31.0637872  68.4494648 120.1175336  54.3510424  72.0603544 117.5575505
  53.5974132  71.4910942 117.4019510  54.4857965  72.0266209 118.5046140
  39.7409052  76.9316946 113.2330225  39.6054726  77.7768482 113.6615073
  40.2818864  77.1336224 112.4696158  36.2276391  63.0108526 129.8944580
  35.8343337  62.4574725 130.5692224  37.0442532  63.3219105 130.2851097
  33.1938449  74.4492385 113.8058150  33.7062970  75.2435635 113.9563714
  33.8461162  73.7518675 113.7391751  35.0033334  77.5658141 115.8880903
  35.1799962  78.4876105 115.7001887  35.7990167  77.2516560 116.3175283
  39.1444352  64.4266405 127.4864836  39.8854066  65.0273559 127.4069299
  39.3762275  63.6844043 126.9282879  34.2885690  69.6122773 125.7643066
  34.1739205  68.7108030 126.0650165  33.4330208  69.8586469 125.4127883
  41.3677528  77.5540513 127.3630567  40.9241382  76.7676892 127.0451471
  42.0294742  77.7419663 126.6974458  36.1264649  79.0836315 121.8891245
  36.6772074  78.9553378 121.1168239  35.2876125  79.3831204 121.5386138
  43.4658766  77.8343313 125.3911968  43.4477241  78.6552194 124.8992237
  44.3878686  77.7097388 125.6162109  39.9231820  75.3487442 126.2335476
  40.4560157  74.5875731 126.0034784  39.3945901  75.0561094 126.9759631
  43.0901515  60.4547508 121.7629118  42.7465785  61.3449150 121.6868229
  43.4580478  60.2649166 120.8998703  31.1587366  72.7781039 114.5817720
  31.9962588  73.1878047 114.3651428  31.3365633  71.8380481 114.5517914
  43.0551798  70.4456119 110.2701553  42.5398421  71.2160724 110.5089941
  42.7829106  69.7721256 110.8934615  40.6398909  65.2905820 115.3286792
  39.7840505  64.9012671 115.1492430  41.0525861  65.3697781 114.4686577
  42.1698056  62.8252164 119.7278351  41.6662851  62.7882299 118.9146157
  42.4628662  63.7344906 119.7875008  38.4140941  62.9090893 118.7344533
  39.2793938  62.7133702 118.3750423  38.4818450  62.6801245 119.6613890
  48.0286072  73.1988474 112.2054727  47.2515515  72.8599634 111.7609889
  48.7077553  73.2041097 111.5309692  42.8438101  68.3183212 112.0961334
  42.5388237  68.6329361 112.9471478  43.7968543  68.3964631 112.1388667
  41.2884533  74.4773435 113.7454288  40.7605894  73.7426194 113.4327526
  40.7872036  75.2548111 113.4994257  46.2677379  72.6722455 118.8621335
  45.6101053  73.3621717 118.9501463  47.0717778  73.0618887 119.2055321
  36.0203260  65.1393101 116.1060900  36.5947012  64.9168283 115.3734093
  36.6074243  65.2081796 116.8589501  45.0782838  71.0266828 116.9125276
  45.5914719  71.6596820 117.4146986  45.7284062  70.4268024 116.5468636
  36.3472848  67.1697562 110.1256785  35.5110160  67.5072249 110.4466060
  36.2077617  67.0346542 109.1883922  38.3225928  62.0134350 114.8335969
  37.6690341  61.6983367 114.2092584  38.2806402  61.3910091 115.5595792
  39.4337133  72.2953645 106.7489261  38.5264195  72.0642899 106.9480410
  39.9308165  71.4991264 106.9363243  42.3405212  81.0051152 109.6685948
  41.6666911  81.3082849 110.2770905  42.7271034  81.8080233 109.3191405
  41.5563669  68.5016284 119.1583617  40.6386230  68.7231231 119.0005305
  41.9723812  68.5762594 118.2995324  42.3398716  69.9007699 114.2886297
  43.0870535  70.4129096 113.9793419  42.6090306  69.5791752 115.1490691
  40.6125366  72.3966240 111.2713252  39.7036586  72.1125273 111.3685721
  40.6420450  72.8165319 110.4116558  45.8444634  76.0072830 115.0404419
  45.3906961  75.1663739 115.0969610  45.2138601  76.6434228 115.3779199
  44.7877553  66.9364816 116.2705087  44.0500310  66.4242202 116.6015329
  45.0404327  66.4965197 115.4588363  44.2877573  77.8449326 115.9754237
  44.5800548  78.4054383 115.2566603  44.7976194  78.1377887 116.7307396
  44.8889181  59.7141068 116.8646856  45.1948058  58.8538431 116.5772771
  45.6141786  60.3058688 116.6645850  31.1813537  70.1171754 115.2528454
  30.9837937  69.5241115 114.5279520  30.6260201  69.8123964 115.9704393
  39.1610261  70.0094861 117.3723047  39.2158870  69.0568697 117.2965523
  38.3501463  70.1654300 117.8564345  40.3101454  73.9374984 108.6101330
  39.8720884  73.2210843 108.1506967  41.0511895  74.1651098 108.0486422
  37.1002620  68.6271920 115.1313426  36.2870486  68.9266091 115.5378618
  37.5961615  68.2327609 115.8487908  39.2511198  78.6229677 117.0647690
  39.2087377  78.8490524 116.1356222  40.1673897  78.3893052 117.2133492
  42.6976832  69.0913745 123.9628320  43.0526220  69.3185218 124.8222785
  43.3448963  69.4232122 123.3405575  48.4274569  72.2132181 114.6677649
  48.2892468  72.4033777 113.7398838  48.0710788  72.9751564 115.1245700
  36.5916695  66.1990276 120.7474661  37.2316075  66.0579035 120.0497624
  35.7594226  65.9124789 120.3713263  48.4543949  74.2808708 119.6788920
  48.8880455  74.1883997 120.5271974  49.1675529  74.2566208 119.0408936
  37.3676999  75.4992706 116.8609653  38.1617598  75.0043026 116.6592228
  36.6568691  74.9710569 116.4977359  42.1871844  77.8810802 121.2122021
  42.2408866  78.4501738 121.9799737  41.3186625  78.0512687 120.8476058
  33.6759763  69.6435788 112.9369406  32.7457351  69.5820244 113.1539368
  33.7717235  69.1211741 112.1406047  33.5945312  66.1690601 115.5247648
  33.8552129  67.0835934 115.4156808  34.4162484  65.7015043 115.6744260
  35.0670237  67.5828358 122.6946472  35.7393290  67.3745720 122.0459121
  34.2400023  67.3850444 122.2551704  49.3159498  74.3232408 122.2121806
  49.5095388  75.2278219 122.4581081  49.2160116  73.8639827 123.0460391
  40.9695809  64.2090299 124.7112133  40.3223724  64.9080249 124.6176609
  41.7396824  64.6426443 125.0788381  44.3774607  74.4739151 127.7862686
  44.2260113  74.2449703 126.8692770  44.3679286  75.4309753 127.7994031
  41.1459943  72.0471064 122.7708953  42.0752003  72.1982223 122.5977920
  40.7250973  72.1355085 121.9157599  39.9448275  76.0721728 120.5407490
  39.8059361  75.7040513 121.4133428  39.1562871  76.5869368 120.3691448
  40.5396427  81.1730825 111.8833027  40.7148183  80.7018868 112.6978649
  39.8529215  81.7996591 112.1114288  41.4953490  75.4503331 117.9296328
  41.1603323  75.4104101 118.8253978  40.9957436  74.7848047 117.4566738
  35.4697734  70.8570961 123.4548909  35.3317532  70.1251200 124.0560448
  36.3802658  70.7679861 123.1733097  44.4312682  72.7959365 108.2033388
  43.8141853  72.0706193 108.1066440  43.9629170  73.5568726 107.8600462
  38.0980035  70.5690920 122.9432589  38.8079653  69.9284113 122.9019207
  38.0549343  70.8203815 123.8658770  46.0866814  77.5058274 125.8639168
  46.0279360  76.8217494 125.1969751  46.4886332  78.2477264 125.4119794
  36.8108969  67.5556138 124.7628228  36.2746326  67.1046877 125.4149825
  36.2225677  67.6902047 124.0198693  35.1057512  84.3220188 118.6572887
  35.3454111  84.9538712 119.3351906  34.2626709  83.9708228 118.9438246
  36.2211228  67.0144790 107.3254692  35.3440694  66.8933590 106.9616939
  36.6968981  66.2230868 107.0733581  46.0884221  75.4697858 124.0953148
  45.2011000  75.1323779 124.2179547  46.6582772  74.7380889 124.3321913
  27.7413368  71.8021949 117.4196199  28.4284408  71.4883679 116.8317214
  27.5861497  72.7063314 117.1463451  32.5448090  66.6912146 121.8481223
  32.4606279  66.0837815 121.1131633  31.7230796  67.1821164 121.8490719
  39.6185374  80.1299310 121.0614391  39.5455546  80.9354281 121.5733696
  39.1762767  80.3291276 120.2362412  39.4075154  79.3671080 114.5717212
  38.6242676  79.9092760 114.6655437  40.1067899  79.8845060 114.9711454
  42.7171804  65.1765709 117.2151418  43.2140503  64.4235672 116.8952488
  41.9458785  65.2130026 116.6494627  50.5701561  70.8806075 118.8569709
  50.5591438  71.7630790 118.4863642  49.7018941  70.5277626 118.6624246
  42.0784058  80.0286144 123.2172550  42.7912030  80.6633609 123.1448451
  41.5874086  80.1250010 122.4012551  43.8001585  73.9337397 114.7889841
  42.8657863  74.0538859 114.6194546  43.9778253  73.0309863 114.5249851
  39.3006773  67.3183092 116.9423102  38.9304560  66.7654133 117.6304008
  39.7965865  66.7141226 116.3898103  47.1874136  69.7754716 115.3239875
  47.6534588  70.6082708 115.2500178  47.6381636  69.3099698 116.0285134
  37.1295971  77.7780587 124.0378120  37.8305431  78.4117070 124.1907515
  36.6591086  78.1195319 123.2773760  45.2550367  76.1198537 112.3226027
  45.5310211  76.0055132 113.2319902  44.3854866  75.7216022 112.2838201
  45.1590799  62.1435303 119.3630777  44.2453879  62.3739530 119.5312984
  45.5883900  62.2273747 120.2144809  44.9297257  70.3325195 121.8630671
  44.2768707  70.5801102 121.2083124  45.3077637  69.5189333 121.5293148
  41.8904431  80.3684888 115.9658841  42.0726826  79.5506544 116.4286593
  42.7137417  80.5852580 115.5283731  42.2246597  79.2953073 113.2273890
  42.7534363  78.7845528 112.6144052  42.4874816  78.9795603 114.0919423
  40.9784830  71.0745006 128.3496708  40.3025467  70.9739135 129.0199083
  41.8012464  70.9184220 128.8132705  32.7263689  77.3116942 120.9709223
  33.3117126  76.5660630 121.1037127  32.5288528  77.6220899 121.8545887
  35.5802345  80.3468190 115.9871665  34.9112720  80.8314318 115.5035706
  35.4415214  80.5937410 116.9015044  27.3181344  69.8822543 119.6913666
  27.3565444  69.3486133 120.4850784  26.8121637  69.3557748 119.0724643
  39.7207613  82.3811933 122.5854324  40.2725921  82.5443555 123.3503409
  40.0613807  82.9716371 121.9134349  34.6972106  64.7287083 123.1876209
  34.7613433  65.5901914 122.7753606  34.6339227  64.1161085 122.4548567
  34.1724379  66.8010216 126.8349243  34.7996418  66.4187293 127.4486767
  33.3152298  66.5824418 127.2004935  44.5718487  77.2073191 128.4402978
  45.1158391  77.8203149 127.9457933  43.9905332  77.7652769 128.9569991
  30.9489922  68.6086645 112.7667598  31.2443363  67.6997323 112.7134651
  30.0477957  68.5874384 112.4448600  42.8576000  80.3293909 119.5718006
  42.7327140  79.5283649 119.0628952  43.5155092  80.8240102 119.0831976
  34.4784169  66.6842641 118.7495146  33.7570754  67.2978609 118.6102620
  35.2677424  67.2200406 118.6711792  44.9210909  78.1302929 121.1997556
  43.9741244  78.0108280 121.1275883  45.2693682  77.2425427 121.2823818
  37.2810482  64.0197068 125.0235798  37.8044884  64.2659364 125.7862107
  37.0622815  64.8517103 124.6038935  32.6777763  66.2900743 112.8906923
  32.3490469  65.4098121 112.7082029  33.0317134  66.2348411 113.7783312
  41.9257342  77.9255645 117.4001908  41.7782305  76.9972353 117.5809478
  42.7510836  77.9475736 116.9158984  35.7919586  66.5773712 113.2582400
  36.1315659  67.1059634 112.5361009  36.2391707  66.9154118 114.0340967
  45.5291464  78.7484204 118.4866781  46.4538011  78.5427065 118.3491232
  45.3606767  78.5000605 119.3956123  38.4863027  64.9610763 122.7085469
  38.1459848  64.1618576 123.1106148  37.7802033  65.2612474 122.1362302
  39.1379499  62.0460075 121.1612792  39.9605568  61.5720554 121.0391682
  39.3817563  62.8250559 121.6611478  37.7787734  65.0748334 111.4575693
  38.4996096  65.4529587 110.9539410  37.1553038  65.7937211 111.5610671
  41.9218856  65.7793483 112.3934026  42.1382471  66.6618121 112.0922854
  41.4412924  65.3879696 111.6639668  36.6618078  68.7379196 118.9704770
  36.5162659  69.0519499 119.8629052  36.1843281  69.3564096 118.4175669
  38.5214461  65.7281744 119.0185660  38.5076029  64.8322837 118.6817958
  39.2386889  65.7352408 119.6523946  40.3740591  66.1619084 121.0638787
  40.1158369  67.0836155 121.0623118  39.8425632  65.7649519 121.7539251
  45.3186780  79.2669871 113.8428873  45.4923658  78.7016294 113.0902725
  45.8115671  80.0670766 113.6608362  31.1363740  71.2784540 121.9092431
  30.5917208  72.0544348 122.0412706  32.0143090  71.6255345 121.7511553
  37.9251357  64.6096124 114.2873230  38.0467268  63.6812771 114.4864117
  37.6353399  64.6234810 113.3751545  40.7942547  62.2951035 117.4239950
  40.8164244  62.3590368 116.4691929  41.2110606  61.4555543 117.6180456
  51.1726171  72.0306294 115.4619172  51.6157317  71.2813620 115.0638296
  50.2952682  72.0216431 115.0792904  46.3061953  78.5836636 110.9425771
  47.0012857  79.2043328 111.1613085  46.6485103  77.7331987 111.2178149
  31.9229762  70.4054437 124.8022588  31.1811498  70.5537072 125.3887219
  31.6022506  70.6662702 123.9389338  48.2053376  76.0336341 112.4713102
  48.7304700  76.3723614 111.7462422  48.1175728  75.0983357 112.2876236
  39.8673424  79.9470415 124.6002978  40.1760551  79.7019562 125.4725678
  40.6648906  80.1517053 124.1121848  39.8894037  82.1008325 116.8308355
  39.4499027  81.6084703 117.5241211  40.6402153  81.5581292 116.5900430
  32.3686375  78.2919865 116.8332983  33.1944395  77.9923637 116.4531626
  32.0180427  77.5227488 117.2822772  37.3367909  77.6446334 118.9030656
  36.7147918  76.9817039 118.6032884  38.0072776  77.6707466 118.2204304
  30.5694981  76.2106192 117.7921916  29.7326889  75.7828366 117.6105918
  30.5418626  76.4038635 118.7292708  37.4092436  66.1228122 128.4963162
  37.4580592  66.9990245 128.1140932  37.9514950  65.5805515 127.9234806
  47.8947282  76.6669245 127.7764300  47.1042826  76.6493384 127.2368799
  47.6580636  77.2057539 128.5313336  48.0145157  73.5161711 125.0897028
  48.0643162  73.3511719 126.0312551  47.9059080  72.6488970 124.6994909
  36.8981416  76.1950257 112.3789117  37.0469536  76.8785721 111.7255790
  37.7047859  76.1755347 112.8938573  45.3048919  69.4992639 126.4056335
  46.2058782  69.3599104 126.1140333  45.3796894  69.6647094 127.3454512
  39.6391725  66.8759494 125.2509521  38.7695034  67.1693060 124.9792110
  39.8751205  67.4599939 125.9716785  49.5163354  75.9358653 125.3339050
  49.2248162  76.2988633 126.1702511  48.9035485  75.2225661 125.1552382
  50.7159036  73.5011533 117.8541620  51.5505927  73.9401337 118.0179180
  50.8518165  73.0250186 117.0349866  47.7650542  71.0591268 123.8019108
  48.2404664  71.2518914 122.9937959  46.8416107  71.1150453 123.5562491
  34.6534049  72.2215435 113.3850186  34.4080090  71.3177765 113.5830396
  34.8229963  72.2232585 112.4429664  42.3430758  63.0939111 122.7674942
  42.8612702  63.8300138 122.4421430  41.9885891  63.4003104 123.6021701
  33.9229696  67.9543792 110.8836347  33.2298941  68.0288147 110.2276383
  33.6781448  67.1904136 111.4057864  42.5943353  59.5139394 118.2875838
  42.8745106  58.8462583 118.9136265  43.3793960  59.7068489 117.7750502
  40.3976821  78.6898387 109.8500864  39.8250788  79.3088575 109.3971336
  40.9709615  79.2397749 110.3840786  46.4652211  67.9357028 122.0347413
  47.4169634  68.0355125 122.0559637  46.2955661  67.1435296 122.5445498
  44.4866590  65.0212611 122.2206814  43.8916523  65.3017624 121.5253303
  44.2016287  65.5106512 122.9923555  43.6174081  78.9735538 110.9809447
  44.5504754  78.9081099 111.1842322  43.5297294  79.8091804 110.5223979
  46.2462098  78.2901408 107.9413394  46.1675729  77.9561272 108.8349152
  47.0671764  78.7823176 107.9404867  48.9440289  71.1563147 121.1489713
  48.9116609  70.2179148 121.3349397  49.5540912  71.2347184 120.4155538
  40.7823620  70.0259200 107.1916917  41.7282724  69.8965408 107.2605335
  40.4037865  69.2873862 107.6686345  49.0934777  67.9474191 121.1947996
  48.5773826  67.1632647 121.0077925  49.9774726  67.6192907 121.3594516
  46.7545504  61.6915206 117.1543809  46.5570325  61.3830294 118.0387141
  47.3645210  62.4176845 117.2841739  54.7616839  72.2179154 120.2895750
  55.4920227  71.9564442 120.8503453  54.1523784  71.4807876 120.3297818
  52.8432136  70.3587017 120.8870201  52.1165299  70.2242982 120.2786692
  52.4279423  70.6663845 121.6926919  40.6662312  74.0776946 128.6517574
  41.5865322  74.2555545 128.8457620  40.6311895  73.1332992 128.4997273
  38.9666537  67.9509177 107.1271802  38.0597992  67.6542289 107.2034516
  39.2442518  67.6538995 106.2606088  29.8844477  69.2715540 117.5770849
  29.5647261  68.4180848 117.2845223  29.3377905  69.4864118 118.3328816
  33.6624385  71.9877981 121.2940355  33.8810394  72.9195089 121.3128389
  34.0750159  71.6285955 122.0795159  40.5828602  62.4946066 113.2816043
  39.7729331  62.1493151 113.6571290  41.2713019  62.1853610 113.8703655
  42.5119151  61.5724113 114.9040340  43.0650189  61.9919567 115.5630363
  42.7489237  60.6459861 114.9463296  38.5352250  67.5611187 130.6843104
  38.4348977  68.5105544 130.6155195  38.3173792  67.2329426 129.8119174
  37.7365321  64.8096112 107.2683781  38.5984485  65.1351010 107.5279599
  37.9215666  64.0227608 106.7556847  29.7532737  72.8918452 119.5463970
  29.0596209  72.4772404 119.0333925  30.5005728  72.9338988 118.9497389
  45.8897958  63.6824638 114.4119004  45.3096627  64.3409442 114.0297057
  45.6233891  62.8601983 114.0006422  44.3401524  63.0829696 116.6140325
  44.8401303  63.1946231 115.8054644  44.9837132  62.7790749 117.2541133
  38.3983520  70.9908326 129.5008166  37.9150602  71.7908686 129.7072055
  38.4844459  71.0016271 128.5475610  31.6669480  72.8236705 117.4229985
  31.6440168  72.9224393 116.4711868  31.9770116  73.6701856 117.7447151
  34.3256858  74.8812860 121.5376599  35.2800111  74.8496803 121.4706531
  34.1269381  74.4203484 122.3526825  34.9156240  73.4513976 124.1047397
  35.7349129  73.9458055 124.1282234  35.1893047  72.5345945 124.0764965
  44.6722836  65.8424729 113.4675353  43.7848691  66.1274379 113.2495547
  45.0876825  65.6818492 112.6202629  48.0237372  65.8671250 117.1829692
  48.7997762  66.3567702 117.4554309  47.2985506  66.2929304 117.6401561
  50.4609931  66.5798869 118.2403632  51.0554421  66.3394605 117.5296941
  50.5336514  65.8605999 118.8677169  32.6807086  80.4232480 118.5546797
  32.5461554  79.6632881 117.9884795  32.2639149  81.1473380 118.0875586
  43.8166049  75.6069403 107.5623373  44.5201899  75.8119406 108.1781028
  43.0928698  76.1746165 107.8272456  44.6463860  71.3579265 113.6825643
  44.5899061  71.8147816 112.8433275  45.1992202  70.5969949 113.5048486
  48.4568666  67.1468997 114.5075762  48.2005600  66.7465632 115.3383970
  47.8321534  67.8612790 114.3825901  52.7681003  69.8865070 117.0147054
  52.2080561  69.9558259 117.7878616  52.1624507  69.7106054 116.2946550
  35.8376212  81.3201797 118.7665240  35.7208596  82.2647229 118.6643930
  35.0168658  81.0175358 119.1551039  45.7252747  76.0451933 109.6121833
  46.5598351  75.6133131 109.4299307  45.5637090  75.8733946 110.5398727
  45.3798639  72.5484046 110.9778172  45.3247443  72.3828317 110.0366616
  44.7544694  73.2560079 111.1340362  30.1691154  67.7852110 124.8039594
  30.8150018  67.2751064 125.2926819  29.9608305  68.5220792 125.3783019
  42.6944546  74.8532958 130.3031735  43.5635706  75.0273610 129.9418370
  42.2151298  75.6727375 130.1807464  38.6894764  62.0492155 110.5563490
  38.6773434  62.9933995 110.7131761  39.5818186  61.8662300 110.2622952
  36.8630726  81.9730059 121.9821168  37.7657973  82.0053669 122.2987663
  36.6368096  81.0430510 121.9967504  38.6184328  80.7261045 118.6431247
  37.6679959  80.7262907 118.5295619  38.9216814  79.9793780 118.1267282
  42.5046884  58.6434932 114.8109427  41.7379280  58.0893418 114.9566109
  42.9157589  58.7156800 115.6723579  34.5088645  64.9319727 128.9014608
  35.3720106  64.5756532 129.1117933  33.9354056  64.5933622 129.5890013
  54.3537022  86.5621584 119.7077009  54.9915432  86.4428331 119.0040349
  54.2357865  87.5102428 119.7664962  51.1626728  86.5149012 119.6438534
  50.8245240  86.3990076 118.7559069  52.0316496  86.1140177 119.6239540
  47.0213544  88.3684488 115.6335425  46.4578409  88.2774425 114.8651713
  46.9065939  87.5484393 116.1137918  51.6446511  87.6683864 125.6024740
  51.6335152  87.2736662 124.7305243  51.8067151  86.9349936 126.1958511
  44.5677976  89.8635680 118.4719645  45.3599268  89.5226504 118.0565945
  44.8074626  89.9730655 119.3921799  52.6013103  92.0355456 110.9449890
  51.9501082  92.6209536 110.5583904  53.3957465  92.5661651 111.0044927
  46.5268730  89.1244593 111.3437024  47.2999606  88.5773580 111.2049900
  46.8794129  89.9888842 111.5551486  48.3653772  90.4520975 124.5503924
  48.0743638  91.3566606 124.4350590  49.0010757  90.4937503 125.2647993
  49.2909979  87.8297824 121.1405283  49.8873551  87.6053846 120.4262246
  49.3484951  87.0882569 121.7430731  48.8635008  85.2837259 108.9755474
  49.1160528  84.7618780 108.2138937  47.9259567  85.1203405 109.0782158
  53.9078290  84.2873038 116.7830217  54.6941380  83.8692461 116.4320634
  54.1716995  85.1919130 116.9511866  54.0788368  89.7245888 111.4818874
  53.4434201  89.7980514 112.1939779  53.7485774  90.3139487 110.8037953
  59.3086717  84.2248271 117.6863196  60.0411889  83.6547488 117.9201025
  58.5526073  83.8369871 118.1269702  48.5831296  87.1865365 111.1779849
  48.4667554  86.5110269 111.8460933  48.6933556  86.6997739 110.3612002
  50.9262837  86.6475512 114.8826538  50.5621044  86.1206133 115.5939460
  51.7829953  86.2573981 114.7093024  56.8312138  77.9369845 122.1457805
  56.4995463  78.8065256 121.9219020  56.2357751  77.6206129 122.8251835
  50.5668324  81.6765412 109.8787887  50.7342727  82.5445648 110.2458358
  50.3765493  81.8392694 108.9549176  53.3243657  90.1382391 121.5453717
  53.0244380  91.0407430 121.4369524  52.9794717  89.8714574 122.3974870
  46.7756139  86.5896188 117.5790422  45.8506635  86.4572402 117.7868113
  47.0240552  87.3690407 118.0760364  56.7240801  82.6564931 119.2251155
  55.8157678  82.5880339 118.9309916  56.6728397  83.1336876 120.0532980
  50.5457545  84.1323069 110.8634554  50.4257170  84.5780120 111.7020034
  49.8510133  84.4808387 110.3048092  44.1364950  86.2329461 118.4134211
  44.2657331  86.4863940 119.3273622  43.4562401  86.8257169 118.0938866
  48.3064437  96.9026711 114.5124685  48.2288467  97.8534536 114.5913166
  47.7026081  96.5572584 115.1699611  50.7981667  84.0754577 127.1686052
  50.0215001  84.6348497 127.1588917  51.4372230  84.5611360 127.6900922
  58.5902448  80.8581369 121.0029029  57.9476828  81.1513903 120.3568823
  58.0857376  80.7434290 121.8082225  56.2442611  84.6044543 111.6914888
  57.1560467  84.8371929 111.5162585  55.7352258  85.1881587 111.1289966
  49.0528039  86.8840030 126.7304019  49.7942724  87.4225074 126.4538842
  48.3465025  87.5106319 126.8875571  54.5283379  89.0269170 125.3276180
  54.9366735  88.5851581 124.5830813  53.8060640  88.4521798 125.5810373
  50.8814449  83.9641777 122.7009737  51.7275644  84.3881191 122.8444386
  50.8213087  83.3075402 123.3948300  54.8512193  89.5870361 119.0828469
  54.2221056  89.7516075 118.3804537  54.4637856  90.0011971 119.8539433
  58.7301425  90.5224799 116.4372833  58.0452464  90.9023700 115.8869866
  58.8145275  91.1320126 117.1704781  54.0313894  81.6246146 124.3590911
  53.7874826  82.3788206 123.8225187  54.3073825  82.0031493 125.1938158
  55.9852357  88.1684758 123.0368177  56.1969252  88.8116518 122.3602558
  55.9382105  87.3347074 122.5690107  53.5878586  80.7802579 119.9404749
  52.7263065  81.0783832 120.2321486  53.6141021  80.9972977 119.0085781
  50.4040155  89.3244769 116.3478554  50.8678501  89.6032472 115.5583177
  50.1396953  88.4228214 116.1651645  47.2964236  88.8716251 119.2858318
  47.8665593  89.3003519 118.6475802  47.8872348  88.5898835 119.9842503
  49.3409041  85.4467922 113.1568119  50.0433085  85.8988965 113.6242046
  49.0089670  84.8051740 113.7848013  47.7889403  84.0379678 127.5319329
  47.1588064  84.7195959 127.7654726  47.6825491  83.9262760 126.5872467
  43.0834375  83.7051474 118.4585253  42.2933429  83.9609003 117.9825364
  43.5745623  84.5199812 118.5637294  57.0998185  91.0456713 121.2090534
  57.9215629  90.6436901 120.9273215  57.0960588  90.9424948 122.1606650
  45.0349121  84.0696053 115.4168730  44.2380284  84.1814748 115.9352225
  44.8074713  84.4082706 114.5509620  50.8654788  90.5940757 123.3651244
  50.9299221  91.0561164 124.2009416  50.1565712  89.9638122 123.4933554
  41.3672078  83.9581965 120.8900244  41.6180117  84.8428975 121.1557820
  41.9031627  83.7786566 120.1175336  65.1904178  87.3895462 117.5575505
  64.4367886  86.8202860 117.4019510  65.3251719  87.3558126 118.5046140
  50.5802806  92.2608864 113.2330225  50.4448481  93.1060400 113.6615073
  51.1212619  92.4628142 112.4696158  47.0670146  78.3400444 129.8944580
  46.6737091  77.7866643 130.5692224  47.8836286  78.6511022 130.2851097
  44.0332203  89.7784302 113.8058150  44.5456724  90.5727552 113.9563714
  44.6854916  89.0810593 113.7391751  45.8427088  92.8950058 115.8880903
  46.0193716  93.8168023 115.7001887  46.6383922  92.5808478 116.3175283
  49.9838107  79.7558323 127.4864836  50.7247820  80.3565476 127.4069299
  50.2156029  79.0135961 126.9282879  45.1279445  84.9414690 125.7643066
  45.0132960  84.0399948 126.0650165  44.2723962  85.1878387 125.4127883
  52.2071282  92.8832431 127.3630567  51.7635137  92.0968809 127.0451471
  52.8688496  93.0711581 126.6974458  46.9658404  94.4128232 121.8891245
  47.5165829  94.2845296 121.1168239  46.1269880  94.7123121 121.5386138
  54.3052520  93.1635231 125.3911968  54.2870996  93.9844112 124.8992237
  55.2272441  93.0389306 125.6162109  50.7625575  90.6779360 126.2335476
  51.2953911  89.9167648 126.0034784  50.2339656  90.3853012 126.9759631
  53.9295270  75.7839426 121.7629118  53.5859539  76.6741068 121.6868229
  54.2974232  75.5941084 120.8998703  41.9981120  88.1072956 114.5817720
  42.8356342  88.5169965 114.3651428  42.1759388  87.1672399 114.5517914
  53.8945552  85.7748037 110.2701553  53.3792176  86.5452642 110.5089941
  53.6222861  85.1013173 110.8934615  51.4792663  80.6197738 115.3286792
  50.6234260  80.2304588 115.1492430  51.8919615  80.6989699 114.4686577
  53.0091810  78.1544081 119.7278351  52.5056606  78.1174216 118.9146157
  53.3022417  79.0636824 119.7875008  49.2534696  78.2382811 118.7344533
  50.1187693  78.0425620 118.3750423  49.3212205  78.0093163 119.6613890
  58.8679826  88.5280392 112.2054727  58.0909269  88.1891551 111.7609889
  59.5471307  88.5333015 111.5309692  53.6831856  83.6475129 112.0961334
  53.3781991  83.9621278 112.9471478  54.6362298  83.7256549 112.1388667
  52.1278287  89.8065353 113.7454288  51.5999649  89.0718112 113.4327526
  51.6265790  90.5840029 113.4994257  57.1071133  88.0014373 118.8621335
  56.4494808  88.6913634 118.9501463  57.9111533  88.3910805 119.2055321
  46.8597015  80.4685019 116.1060900  47.4340767  80.2460200 115.3734093
  47.4467997  80.5373713 116.8589501  55.9176592  86.3558746 116.9125276
  56.4308474  86.9888738 117.4146986  56.5677816  85.7559941 116.5468636
  47.1866602  82.4989480 110.1256785  46.3503914  82.8364166 110.4466060
  47.0471372  82.3638460 109.1883922  49.1619683  77.3426268 114.8335969
  48.5084095  77.0275285 114.2092584  49.1200157  76.7202008 115.5595792
  50.2730888  87.6245563 106.7489261  49.3657949  87.3934816 106.9480410
  50.7701920  86.8283182 106.9363243  53.1798966  96.3343070 109.6685948
  52.5060665  96.6374767 110.2770905  53.5664788  97.1372150 109.3191405
  52.3957423  83.8308201 119.1583617  51.4779984  84.0523148 119.0005305
  52.8117567  83.9054512 118.2995324  53.1792471  85.2299617 114.2886297
  53.9264290  85.7421014 113.9793419  53.4484060  84.9083670 115.1490691
  51.4519121  87.7258158 111.2713252  50.5430340  87.4417190 111.3685721
  51.4814205  88.1457236 110.4116558  56.6838388  91.3364747 115.0404419
  56.2300715  90.4955657 115.0969610  56.0532355  91.9726146 115.3779199
  55.6271308  82.2656733 116.2705087  54.8894065  81.7534119 116.6015329
  55.8798081  81.8257115 115.4588363  55.1271328  93.1741244 115.9754237
  55.4194302  93.7346301 115.2566603  55.6369948  93.4669805 116.7307396
  55.7282935  75.0432985 116.8646856  56.0341812  74.1830349 116.5772771
  56.4535540  75.6350605 116.6645850  42.0207291  85.4463672 115.2528454
  41.8231691  84.8533033 114.5279520  41.4653955  85.1415882 115.9704393
  50.0004015  85.3386778 117.3723047  50.0552625  84.3860615 117.2965523
  49.1895217  85.4946217 117.8564345  51.1495209  89.2666901 108.6101330
  50.7114639  88.5502760 108.1506967  51.8905650  89.4943016 108.0486422
  47.9396375  83.9563838 115.1313426  47.1264240  84.2558009 115.5378618
  48.4355369  83.5619527 115.8487908  50.0904953  93.9521595 117.0647690
  50.0481132  94.1782441 116.1356222  51.0067652  93.7184970 117.2133492
  53.5370587  84.4205663 123.9628320  53.8919974  84.6477136 124.8222785
  54.1842718  84.7524039 123.3405575  59.2668324  87.5424098 114.6677649
  59.1286222  87.7325694 113.7398838  58.9104542  88.3043481 115.1245700
  47.4310450  81.5282194 120.7474661  48.0709829  81.3870953 120.0497624
  46.5987980  81.2416707 120.3713263  59.2937703  89.6100625 119.6788920
  59.7274210  89.5175914 120.5271974  60.0069284  89.5858126 119.0408936
  48.2070754  90.8284624 116.8609653  49.0011352  90.3334944 116.6592228
  47.4962446  90.3002487 116.4977359  53.0265598  93.2102720 121.2122021
  53.0802620  93.7793656 121.9799737  52.1580379  93.3804605 120.8476058
  44.5153517  84.9727706 112.9369406  43.5851105  84.9112161 113.1539368
  44.6110989  84.4503658 112.1406047  44.4339066  81.4982519 115.5247648
  44.6945883  82.4127852 115.4156808  45.2556238  81.0306961 115.6744260
  45.9063991  82.9120276 122.6946472  46.5787045  82.7037638 122.0459121
  45.0793778  82.7142362 122.2551704  60.1553253  89.6524326 122.2121806
  60.3489143  90.5570137 122.4581081  60.0553871  89.1931745 123.0460391
  51.8089563  79.5382217 124.7112133  51.1617478  80.2372166 124.6176609
  52.5790579  79.9718361 125.0788381  55.2168361  89.8031069 127.7862686
  55.0653868  89.5741620 126.8692770  55.2073041  90.7601670 127.7994031
  51.9853698  87.3762982 122.7708953  52.9145758  87.5274141 122.5977920
  51.5644728  87.4647002 121.9157599  50.7842030  91.4013646 120.5407490
  50.6453115  91.0332430 121.4133428  49.9956626  91.9161285 120.3691448
  51.3790182  96.5022742 111.8833027  51.5541937  96.0310786 112.6978649
  50.6922970  97.1288509 112.1114288  52.3347245  90.7795249 117.9296328
  51.9997077  90.7396019 118.8253978  51.8351190  90.1139965 117.4566738
  46.3091489  86.1862879 123.4548909  46.1711287  85.4543118 124.0560448
  47.2196412  86.0971779 123.1733097  55.2706436  88.1251283 108.2033388
  54.6535607  87.3998111 108.1066440  54.8022925  88.8860643 107.8600462
  48.9373789  85.8982838 122.9432589  49.6473408  85.2576030 122.9019207
  48.8943098  86.1495733 123.8658770  56.9260568  92.8350191 125.8639168
  56.8673114  92.1509411 125.1969751  57.3280086  93.5769181 125.4119794
  47.6502723  82.8848056 124.7628228  47.1140080  82.4338794 125.4149825
  47.0619432  83.0193965 124.0198693  45.9451267  99.6512105 118.6572887
  46.1847865 100.2830629 119.3351906  45.1020463  99.3000145 118.9438246
  47.0604982  82.3436707 107.3254692  46.1834449  82.2225508 106.9616939
  47.5362735  81.5522786 107.0733581  56.9277975  90.7989775 124.0953148
  56.0404754  90.4615697 124.2179547  57.4976526  90.0672807 124.3321913
  38.5807122  87.1313867 117.4196199  39.2678162  86.8175597 116.8317214
  38.4255251  88.0355232 117.1463451  43.3841845  82.0204064 121.8481223
  43.3000033  81.4129733 121.1131633  42.5624551  82.5113082 121.8490719
  50.4579129  95.4591228 121.0614391  50.3849300  96.2646199 121.5733696
  50.0156522  95.6583193 120.2362412  50.2468908  94.6962998 114.5717212
  49.4636430  95.2384678 114.6655437  50.9461654  95.2136977 114.9711454
  53.5565558  80.5057627 117.2151418  54.0534258  79.7527589 116.8952488
  52.7852540  80.5421944 116.6494627  61.4095316  86.2097993 118.8569709
  61.3985192  87.0922708 118.4863642  60.5412695  85.8569543 118.6624246
  52.9177812  95.3578062 123.2172550  53.6305784  95.9925526 123.1448451
  52.4267841  95.4541928 122.4012551  54.6395339  89.2629314 114.7889841
  53.7051618  89.3830777 114.6194546  54.8172008  88.3601781 114.5249851
  50.1400527  82.6475010 116.9423102  49.7698315  82.0946050 117.6304008
  50.6359620  82.0433144 116.3898103  58.0267890  85.1046634 115.3239875
  58.4928343  85.9374625 115.2500178  58.4775391  84.6391615 116.0285134
  47.9689726  93.1072505 124.0378120  48.6699185  93.7408988 124.1907515
  47.4984841  93.4487237 123.2773760  56.0944122  91.4490455 112.3226027
  56.3703965  91.3347049 113.2319902  55.2248620  91.0507940 112.2838201
  55.9984553  77.4727221 119.3630777  55.0847633  77.7031447 119.5312984
  56.4277655  77.5565665 120.2144809  55.7691012  85.6617113 121.8630671
  55.1162462  85.9093020 121.2083124  56.1471392  84.8481251 121.5293148
  52.7298186  95.6976806 115.9658841  52.9120580  94.8798462 116.4286593
  53.5531172  95.9144498 115.5283731  53.0640351  94.6244991 113.2273890
  53.5928118  94.1137445 112.6144052  53.3268571  94.3087521 114.0919423
  51.8178585  86.4036924 128.3496708  51.1419222  86.3031053 129.0199083
  52.6406219  86.2476137 128.8132705  43.5657444  92.6408860 120.9709223
  44.1510881  91.8952548 121.1037127  43.3682282  92.9512817 121.8545887
  46.4196099  95.6760108 115.9871665  45.7506474  96.1606235 115.5035706
  46.2808969  95.9229328 116.9015044  38.1575099  85.2114460 119.6913666
  38.1959198  84.6778051 120.4850784  37.6515391  84.6849666 119.0724643
  50.5601368  97.7103851 122.5854324  51.1119676  97.8735473 123.3503409
  50.9007561  98.3008289 121.9134349  45.5365861  80.0579001 123.1876209
  45.6007187  80.9193832 122.7753606  45.4732981  79.4453003 122.4548567
  45.0118133  82.1302133 126.8349243  45.6390172  81.7479211 127.4486767
  44.1546052  81.9116335 127.2004935  55.4112242  92.5365109 128.4402978
  55.9552146  93.1495067 127.9457933  54.8299087  93.0944687 128.9569991
  41.7883676  83.9378563 112.7667598  42.0837117  83.0289241 112.7134651
  40.8871712  83.9166302 112.4448600  53.6969755  95.6585827 119.5718006
  53.5720894  94.8575566 119.0628952  54.3548846  96.1532020 119.0831976
  45.3177923  82.0134559 118.7495146  44.5964509  82.6270527 118.6102620
  46.1071179  82.5492324 118.6711792  55.7604663  93.4594847 121.1997556
  54.8134999  93.3400198 121.1275883  56.1087436  92.5717345 121.2823818
  48.1204237  79.3488986 125.0235798  48.6438638  79.5951282 125.7862107
  47.9016570  80.1809020 124.6038935  43.5171518  81.6192660 112.8906923
  43.1884224  80.7390039 112.7082029  43.8710888  81.5640329 113.7783312
  52.7651097  93.2547563 117.4001908  52.6176059  92.3264270 117.5809478
  53.5904590  93.2767654 116.9158984  46.6313341  81.9065630 113.2582400
  46.9709413  82.4351551 112.5361009  47.0785461  82.2446036 114.0340967
  56.3685218  94.0776122 118.4866781  57.2931766  93.8718983 118.3491232
  56.2000522  93.8292523 119.3956123  49.3256782  80.2902681 122.7085469
  48.9853602  79.4910494 123.1106148  48.6195788  80.5904392 122.1362302
  49.9773254  77.3751993 121.1612792  50.7999323  76.9012471 121.0391682
  50.2211317  78.1542477 121.6611478  48.6181488  80.4040252 111.4575693
  49.3389851  80.7821504 110.9539410  47.9946792  81.1229128 111.5610671
  52.7612611  81.1085401 112.3934026  52.9776225  81.9910038 112.0922854
  52.2806678  80.7171614 111.6639668  47.5011832  84.0671114 118.9704770
  47.3556413  84.3811417 119.8629052  47.0237036  84.6856014 118.4175669
  49.3608215  81.0573662 119.0185660  49.3469784  80.1614755 118.6817958
  50.0780643  81.0644326 119.6523946  51.2134346  81.4911002 121.0638787
  50.9552124  82.4128073 121.0623118  50.6819386  81.0941437 121.7539251
  56.1580535  94.5961789 113.8428873  56.3317412  94.0308212 113.0902725
  56.6509426  95.3962684 113.6608362  41.9757494  86.6076458 121.9092431
  41.4310963  87.3836266 122.0412706  42.8536844  86.9547263 121.7511553
  48.7645111  79.9388042 114.2873230  48.8861022  79.0104688 114.4864117
  48.4747153  79.9526728 113.3751545  51.6336301  77.6242952 117.4239950
  51.6557998  77.6882286 116.4691929  52.0504360  76.7847461 117.6180456
  62.0119926  87.3598212 115.4619172  62.4551072  86.6105537 115.0638296
  61.1346436  87.3508348 115.0792904  57.1455707  93.9128554 110.9425771
  57.8406612  94.5335246 111.1613085  57.4878857  93.0623905 111.2178149
  42.7623516  85.7346354 124.8022588  42.0205252  85.8828990 125.3887219
  42.4416261  85.9954620 123.9389338  59.0447130  91.3628259 112.4713102
  59.5698454  91.7015532 111.7462422  58.9569483  90.4275274 112.2876236
  50.7067179  95.2762333 124.6002978  51.0154305  95.0311479 125.4725678
  51.5042661  95.4808971 124.1121848  50.7287791  97.4300242 116.8308355
  50.2892781  96.9376621 117.5241211  51.4795908  96.8873210 116.5900430
  43.2080130  93.6211783 116.8332983  44.0338150  93.3215555 116.4531626
  42.8574182  92.8519406 117.2822772  48.1761663  92.9738251 118.9030656
  47.5541672  92.3108956 118.6032884  48.8466530  92.9999383 118.2204304
  41.4088735  91.5398110 117.7921916  40.5720643  91.1120284 117.6105918
  41.3812380  91.7330553 118.7292708  48.2486191  81.4520039 128.4963162
  48.2974346  82.3282162 128.1140932  48.7908705  80.9097432 127.9234806
  58.7341036  91.9961163 127.7764300  57.9436580  91.9785302 127.2368799
  58.4974391  92.5349456 128.5313336  58.8538911  88.8453629 125.0897028
  58.9036916  88.6803636 126.0312551  58.7452835  87.9780888 124.6994909
  47.7375170  91.5242175 112.3789117  47.8863290  92.2077639 111.7255790
  48.5441614  91.5047265 112.8938573  56.1442674  84.8284557 126.4056335
  57.0452537  84.6891022 126.1140333  56.2190648  84.9939012 127.3454512
  50.4785479  82.2051412 125.2509521  49.6088788  82.4984978 124.9792110
  50.7144959  82.7891857 125.9716785  60.3557108  91.2650571 125.3339050
  60.0641917  91.6280551 126.1702511  59.7429239  90.5517579 125.1552382
  61.5552791  88.8303450 117.8541620  62.3899682  89.2693254 118.0179180
  61.6911919  88.3542104 117.0349866  58.6044296  86.3883185 123.8019108
  59.0798418  86.5810831 122.9937959  57.6809862  86.4442371 123.5562491
  45.4927803  87.5507352 113.3850186  45.2473845  86.6469682 113.5830396
  45.6623718  87.5524503 112.4429664  53.1824513  78.4231029 122.7674942
  53.7006457  79.1592056 122.4421430  52.8279646  78.7295022 123.6021701
  44.7623451  83.2835710 110.8836347  44.0692696  83.3580065 110.2276383
  44.5175202  82.5196054 111.4057864  53.4337107  74.8431311 118.2875838
  53.7138861  74.1754500 118.9136265  54.2187714  75.0360407 117.7750502
  51.2370576  94.0190305 109.8500864  50.6644543  94.6380492 109.3971336
  51.8103369  94.5689667 110.3840786  57.3045965  83.2648945 122.0347413
  58.2563388  83.3647043 122.0559637  57.1349416  82.4727214 122.5445498
  55.3260345  80.3504528 122.2206814  54.7310277  80.6309541 121.5253303
  55.0410042  80.8398429 122.9923555  54.4567835  94.3027455 110.9809447
  55.3898509  94.2373017 111.1842322  54.3691048  95.1383722 110.5223979
  57.0855852  93.6193326 107.9413394  57.0069484  93.2853189 108.8349152
  57.9065519  94.1115094 107.9404867  59.7834043  86.4855065 121.1489713
  59.7510363  85.5471066 121.3349397  60.3934667  86.5639102 120.4155538
  51.6217374  85.3551118 107.1916917  52.5676479  85.2257326 107.2605335
  51.2431619  84.6165780 107.6686345  59.9328532  83.2766108 121.1947996
  59.4167580  82.4924565 121.0077925  60.8168480  82.9484825 121.3594516
  57.5939259  77.0207124 117.1543809  57.3964080  76.7122212 118.0387141
  58.2038964  77.7468763 117.2841739  65.6010593  87.5471072 120.2895750
  66.3313982  87.2856360 120.8503453  64.9917539  86.8099794 120.3297818
  63.6825890  85.6878934 120.8870201  62.9559054  85.5534899 120.2786692
  63.2673177  85.9955763 121.6926919  51.5056067  89.4068864 128.6517574
  52.4259076  89.5847463 128.8457620  51.4705650  88.4624909 128.4997273
  49.8060291  83.2801094 107.1271802  48.8991747  82.9834207 107.2034516
  50.0836272  82.9830912 106.2606088  40.7238232  84.6007458 117.5770849
  40.4041016  83.7472766 117.2845223  40.1771660  84.8156036 118.3328816
  44.5018139  87.3169899 121.2940355  44.7204149  88.2487007 121.3128389
  44.9143913  86.9577873 122.0795159  51.4222357  77.8237984 113.2816043
  50.6123085  77.4785069 113.6571290  52.1106774  77.5145528 113.8703655
  53.3512905  76.9016031 114.9040340  53.9043944  77.3211484 115.5630363
  53.5882992  75.9751779 114.9463296  49.3746004  82.8903104 130.6843104
  49.2742731  83.8397461 130.6155195  49.1567547  82.5621343 129.8119174
  48.5759076  80.1388030 107.2683781  49.4378240  80.4642928 107.5279599
  48.7609420  79.3519525 106.7556847  40.5926492  88.2210369 119.5463970
  39.8989963  87.8064322 119.0333925  41.3399483  88.2630906 118.9497389
  56.7291712  79.0116556 114.4119004  56.1490381  79.6701360 114.0297057
  56.4627645  78.1893901 114.0006422  55.1795279  78.4121614 116.6140325
  55.6795057  78.5238148 115.8054644  55.8230887  78.1082667 117.2541133
  49.2377275  86.3200243 129.5008166  48.7544356  87.1200603 129.7072055
  49.3238214  86.3308188 128.5475610  42.5063234  88.1528623 117.4229985
  42.4833922  88.2516310 116.4711868  42.8163871  88.9993774 117.7447151
  45.1650612  90.2104778 121.5376599  46.1193866  90.1788720 121.4706531
  44.9663136  89.7495402 122.3526825  45.7549994  88.7805894 124.1047397
  46.5742883  89.2749973 124.1282234  46.0286802  87.8637862 124.0764965
  55.5116590  81.1716646 113.4675353  54.6242445  81.4566297 113.2495547
  55.9270579  81.0110410 112.6202629  58.8631126  81.1963167 117.1829692
  59.6391517  81.6859620 117.4554309  58.1379261  81.6221222 117.6401561
  61.3003685  81.9090787 118.2403632  61.8948176  81.6686523 117.5296941
  61.3730269  81.1897917 118.8677169  43.5200841  95.7524398 118.5546797
  43.3855309  94.9924798 117.9884795  43.1032903  96.4765297 118.0875586
  54.6559804  90.9361321 107.5623373  55.3595654  91.1411324 108.1781028
  53.9322453  91.5038083 107.8272456  55.4857614  86.6871182 113.6825643
  55.4292816  87.1439734 112.8433275  56.0385957  85.9261867 113.5048486
  59.2962420  82.4760914 114.5075762  59.0399354  82.0757550 115.3383970
  58.6715288  83.1904708 114.3825901  63.6074758  85.2156987 117.0147054
  63.0474316  85.2850177 117.7878616  63.0018261  85.0397972 116.2946550
  46.6769967  96.6493715 118.7665240  46.5602351  97.5939147 118.6643930
  45.8562413  96.3467276 119.1551039  56.5646501  91.3743850 109.6121833
  57.3992105  90.9425049 109.4299307  56.4030844  91.2025864 110.5398727
  56.2192393  87.8775964 110.9778172  56.1641197  87.7120235 110.0366616
  55.5938449  88.5851996 111.1340362  41.0084908  83.1144028 124.8039594
  41.6543772  82.6042982 125.2926819  40.8002060  83.8512710 125.3783019
  53.5338301  90.1824875 130.3031735  54.4029460  90.3565528 129.9418370
  53.0545052  91.0019292 130.1807464  49.5288519  77.3784073 110.5563490
  49.5167189  78.3225912 110.7131761  50.4211941  77.1954218 110.2622952
  47.7024481  97.3021976 121.9821168  48.6051728  97.3345587 122.2987663
  47.4761851  96.3722427 121.9967504  49.4578083  96.0552963 118.6431247
  48.5073714  96.0554825 118.5295619  49.7610569  95.3085698 118.1267282
  53.3440638  73.9726849 114.8109427  52.5773034  73.4185336 114.9566109
  53.7551343  74.0448718 115.6723579  45.3482399  80.2611645 128.9014608
  46.2113861  79.9048450 129.1117933  44.7747810  79.9225540 129.5890013
  65.1930776 101.8913501 119.7077009  65.8309186 101.7720249 119.0040349
  65.0751619 102.8394345 119.7664962  62.0020483 101.8440929 119.6438534
  61.6638994 101.7281994 118.7559069  62.8710251 101.4432095 119.6239540
  57.8607298 103.6976406 115.6335425  57.2972163 103.6066343 114.8651713
  57.7459693 102.8776310 116.1137918  62.4840266 102.9975781 125.6024740
  62.4728906 102.6028579 124.7305243  62.6460905 102.2641854 126.1958511
  55.4071730 105.1927597 118.4719645  56.1993022 104.8518422 118.0565945
  55.6468380 105.3022573 119.3921799  63.4406857 107.3647374 110.9449890
  62.7894837 107.9501454 110.5583904  64.2351220 107.8953568 111.0044927
  57.3662484 104.4536511 111.3437024  58.1393360 103.9065498 111.2049900
  57.7187883 105.3180760 111.5551486  59.2047527 105.7812893 124.5503924
  58.9137393 106.6858524 124.4350590  59.8404511 105.8229421 125.2647993
  60.1303734 103.1589742 121.1405283  60.7267306 102.9345764 120.4262246
  60.1878705 102.4174487 121.7430731  59.7028762 100.6129177 108.9755474
  59.9554283 100.0910698 108.2138937  58.7653321 100.4495322 109.0782158
  64.7472045  99.6164955 116.7830217  65.5335134  99.1984378 116.4320634
  65.0110749 100.5211047 116.9511866  64.9182122 105.0537806 111.4818874
  64.2827955 105.1272432 112.1939779  64.5879529 105.6431404 110.8037953
  70.1480472  99.5540188 117.6863196  70.8805644  98.9839405 117.9201025
  69.3919828  99.1661789 118.1269702  59.4225051 102.5157283 111.1779849
  59.3061309 101.8402186 111.8460933  59.5327311 102.0289657 110.3612002
  61.7656592 101.9767430 114.8826538  61.4014799 101.4498051 115.5939460
  62.6223708 101.5865899 114.7093024  67.6705892  93.2661763 122.1457805
  67.3389217  94.1357173 121.9219020  67.0751506  92.9498047 122.8251835
  61.4062079  97.0057330 109.8787887  61.5736481  97.8737566 110.2458358
  61.2159248  97.1684611 108.9549176  64.1637412 105.4674309 121.5453717
  63.8638135 106.3699347 121.4369524  63.8188471 105.2006492 122.3974870
  57.6149893 101.9188105 117.5790422  56.6900390 101.7864319 117.7868113
  57.8634307 102.6982325 118.0760364  67.5634556  97.9856849 119.2251155
  66.6551433  97.9172257 118.9309916  67.5122151  98.4628794 120.0532980
  61.3851300  99.4614987 110.8634554  61.2650925  99.9072038 111.7020034
  60.6903888  99.8100305 110.3048092  54.9758704 101.5621379 118.4134211
  55.1051086 101.8155858 119.3273622  54.2956156 102.1549087 118.0938866
  59.1458192 112.2318629 114.5124685  59.0682221 113.1826454 114.5913166
  58.5419835 111.8864501 115.1699611  61.6375421  99.4046494 127.1686052
  60.8608755  99.9640414 127.1588917  62.2765984  99.8903277 127.6900922
  69.4296202  96.1873287 121.0029029  68.7870582  96.4805820 120.3568823
  68.9251131  96.0726207 121.8082225  67.0836366  99.9336460 111.6914888
  67.9954222 100.1663847 111.5162585  66.5746013 100.5173505 111.1289966
  59.8921794 102.2131948 126.7304019  60.6336478 102.7516992 126.4538842
  59.1858779 102.8398236 126.8875571  65.3677133 104.3561088 125.3276180
  65.7760489 103.9143499 124.5830813  64.6454395 103.7813716 125.5810373
  61.7208203  99.2933695 122.7009737  62.5669399  99.7173108 122.8444386
  61.6606841  98.6367319 123.3948300  65.6905948 104.9162279 119.0828469
  65.0614810 105.0807993 118.3804537  65.3031610 105.3303888 119.8539433
  69.5695180 105.8516717 116.4372833  68.8846218 106.2315618 115.8869866
  69.6539029 106.4612043 117.1704781  64.8707649  96.9538063 124.3590911
  64.6268581  97.7080124 123.8225187  65.1467579  97.3323411 125.1938158
  66.8246111 103.4976676 123.0368177  67.0363007 104.1408436 122.3602558
  66.7775860 102.6638992 122.5690107  64.4272340  96.1094496 119.9404749
  63.5656819  96.4075750 120.2321486  64.4534775  96.3264895 119.0085781
  61.2433910 104.6536687 116.3478554  61.7072255 104.9324390 115.5583177
  60.9790708 103.7520131 116.1651645  58.1357991 104.2008168 119.2858318
  58.7059348 104.6295437 118.6475802  58.7266103 103.9190753 119.9842503
  60.1802796 100.7759839 113.1568119  60.8826839 101.2280883 113.6242046
  59.8483424 100.1343658 113.7848013  58.6283157  99.3671596 127.5319329
  57.9981818 100.0487877 127.7654726  58.5219245  99.2554677 126.5872467
  53.9228130  99.0343392 118.4585253  53.1327184  99.2900920 117.9825364
  54.4139377  99.8491730 118.5637294  67.9391939 106.3748631 121.2090534
  68.7609383 105.9728818 120.9273215  67.9354342 106.2716865 122.1606650
  55.8742875  99.3987971 115.4168730  55.0774039  99.5106665 115.9352225
  55.6468467  99.7374623 114.5509620  61.7048543 105.9232674 123.3651244
  61.7692975 106.3853082 124.2009416  60.9959467 105.2930039 123.4933554
  52.2065833  99.2873882 120.8900244  52.4573871 100.1720892 121.1557820
  52.7425381  99.1078484 120.1175336  76.0297932 102.7187380 117.5575505
  75.2761641 102.1494778 117.4019510  76.1645474 102.6850044 118.5046140
  61.4196561 107.5900782 113.2330225  61.2842235 108.4352318 113.6615073
  61.9606373 107.7920059 112.4696158  57.9063900  93.6692362 129.8944580
  57.5130846  93.1158560 130.5692224  58.7230040  93.9802940 130.2851097
  54.8725958 105.1076220 113.8058150  55.3850478 105.9019470 113.9563714
  55.5248671 104.4102510 113.7391751  56.6820843 108.2241976 115.8880903
  56.8587471 109.1459941 115.7001887  57.4777676 107.9100395 116.3175283
  60.8231861  95.0850241 127.4864836  61.5641575  95.6857394 127.4069299
  61.0549784  94.3427879 126.9282879  55.9673199 100.2706608 125.7643066
  55.8526714  99.3691865 126.0650165  55.1117717 100.5170305 125.4127883
  63.0465037 108.2124348 127.3630567  62.6028891 107.4260727 127.0451471
  63.7082250 108.4003499 126.6974458  57.8052158 109.7420150 121.8891245
  58.3559583 109.6137213 121.1168239  56.9663634 110.0415039 121.5386138
  65.1446275 108.4927148 125.3911968  65.1264750 109.3136029 124.8992237
  66.0666195 108.3681223 125.6162109  61.6019329 106.0071278 126.2335476
  62.1347666 105.2459566 126.0034784  61.0733410 105.7144930 126.9759631
  64.7689024  91.1131344 121.7629118  64.4253293  92.0032985 121.6868229
  65.1367987  90.9233001 120.8998703  52.8374875 103.4364874 114.5817720
  53.6750097 103.8461883 114.3651428  53.0153142 102.4964316 114.5517914
  64.7339307 101.1039955 110.2701553  64.2185930 101.8744559 110.5089941
  64.4616615 100.4305091 110.8934615  62.3186418  95.9489656 115.3286792
  61.4628014  95.5596506 115.1492430  62.7313370  96.0281616 114.4686577
  63.8485564  93.4835999 119.7278351  63.3450360  93.4466134 118.9146157
  64.1416171  94.3928742 119.7875008  60.0928450  93.5674729 118.7344533
  60.9581447  93.3717537 118.3750423  60.1605959  93.3385080 119.6613890
  69.7073581 103.8572309 112.2054727  68.9303024 103.5183469 111.7609889
  70.3865062 103.8624933 111.5309692  64.5225610  98.9767047 112.0961334
  64.2175746  99.2913196 112.9471478  65.4756052  99.0548467 112.1388667
  62.9672042 105.1357270 113.7454288  62.4393403 104.4010030 113.4327526
  62.4659545 105.9131947 113.4994257  67.9464888 103.3306291 118.8621335
  67.2888562 104.0205552 118.9501463  68.7505287 103.7202723 119.2055321
  57.6990769  95.7976937 116.1060900  58.2734521  95.5752118 115.3734093
  58.2861752  95.8665631 116.8589501  66.7570347 101.6850663 116.9125276
  67.2702228 102.3180655 117.4146986  67.4071571 101.0851859 116.5468636
  58.0260357  97.8281398 110.1256785  57.1897669  98.1656084 110.4466060
  57.8865126  97.6930377 109.1883922  60.0013437  92.6718185 114.8335969
  59.3477850  92.3567203 114.2092584  59.9593911  92.0493926 115.5595792
  61.1124642 102.9537480 106.7489261  60.2051704 102.7226734 106.9480410
  61.6095674 102.1575100 106.9363243  64.0192721 111.6634988 109.6685948
  63.3454420 111.9666684 110.2770905  64.4058543 112.4664068 109.3191405
  63.2351178  99.1600119 119.1583617  62.3173739  99.3815066 119.0005305
  63.6511321  99.2346429 118.2995324  64.0186225 100.5591535 114.2886297
  64.7658044 101.0712932 113.9793419  64.2877815 100.2375587 115.1490691
  62.2912875 103.0550075 111.2713252  61.3824095 102.7709108 111.3685721
  62.3207959 103.4749154 110.4116558  67.5232143 106.6656665 115.0404419
  67.0694470 105.8247575 115.0969610  66.8926110 107.3018063 115.3779199
  66.4665062  97.5948651 116.2705087  65.7287819  97.0826037 116.6015329
  66.7191836  97.1549032 115.4588363  65.9665082 108.5033162 115.9754237
  66.2588056 109.0638219 115.2566603  66.4763703 108.7961723 116.7307396
  66.5676690  90.3724903 116.8646856  66.8735567  89.5122266 116.5772771
  67.2929295  90.9642523 116.6645850  52.8601046 100.7755589 115.2528454
  52.6625446 100.1824950 114.5279520  52.3047710 100.4707800 115.9704393
  60.8397769 100.6678696 117.3723047  60.8946379  99.7152532 117.2965523
  60.0288972 100.8238135 117.8564345  61.9888963 104.5958819 108.6101330
  61.5508393 103.8794678 108.1506967  62.7299404 104.8234934 108.0486422
  58.7790129  99.2855756 115.1313426  57.9657995  99.5849926 115.5378618
  59.2749124  98.8911444 115.8487908  60.9298707 109.2813513 117.0647690
  60.8874886 109.5074359 116.1356222  61.8461406 109.0476887 117.2133492
  64.3764341  99.7497580 123.9628320  64.7313729  99.9769053 124.8222785
  65.0236472 100.0815957 123.3405575  70.1062078 102.8716016 114.6677649
  69.9679977 103.0617612 113.7398838  69.7498297 103.6335399 115.1245700
  58.2704204  96.8574111 120.7474661  58.9103583  96.7162870 120.0497624
  57.4381735  96.5708625 120.3713263  70.1331458 104.9392543 119.6788920
  70.5667964 104.8467832 120.5271974  70.8463038 104.9150044 119.0408936
  59.0464508 106.1576542 116.8609653  59.8405107 105.6626862 116.6592228
  58.3356200 105.6294405 116.4977359  63.8659353 108.5394637 121.2122021
  63.9196375 109.1085573 121.9799737  62.9974134 108.7096522 120.8476058
  55.3547272 100.3019623 112.9369406  54.4244860 100.2404079 113.1539368
  55.4504744  99.7795576 112.1406047  55.2732821  96.8274436 115.5247648
  55.5339638  97.7419769 115.4156808  56.0949993  96.3598879 115.6744260
  56.7457746  98.2412193 122.6946472  57.4180799  98.0329556 122.0459121
  55.9187532  98.0434279 122.2551704  70.9947007 104.9816244 122.2121806
  71.1882897 105.8862054 122.4581081  70.8947625 104.5223663 123.0460391
  62.6483318  94.8674134 124.7112133  62.0011233  95.5664084 124.6176609
  63.4184333  95.3010278 125.0788381  66.0562116 105.1322986 127.7862686
  65.9047622 104.9033538 126.8692770  66.0466795 106.0893588 127.7994031
  62.8247452 102.7054899 122.7708953  63.7539512 102.8566059 122.5977920
  62.4038482 102.7938920 121.9157599  61.6235784 106.7305564 120.5407490
  61.4846870 106.3624348 121.4133428  60.8350380 107.2453203 120.3691448
  62.2183936 111.8314660 111.8833027  62.3935692 111.3602703 112.6978649
  61.5316724 112.4580426 112.1114288  63.1740999 106.1087166 117.9296328
  62.8390832 106.0687936 118.8253978  62.6744945 105.4431882 117.4566738
  57.1485243 101.5154796 123.4548909  57.0105041 100.7835035 124.0560448
  58.0590167 101.4263696 123.1733097  66.1100191 103.4543201 108.2033388
  65.4929362 102.7290029 108.1066440  65.6416679 104.2152561 107.8600462
  59.7767544 101.2274756 122.9432589  60.4867162 100.5867948 122.9019207
  59.7336852 101.4787651 123.8658770  67.7654323 108.1642109 125.8639168
  67.7066869 107.4801329 125.1969751  68.1673841 108.9061099 125.4119794
  58.4896478  98.2139974 124.7628228  57.9533835  97.7630712 125.4149825
  57.9013186  98.3485882 124.0198693  56.7845021 114.9804023 118.6572887
  57.0241620 115.6122547 119.3351906  55.9414218 114.6292063 118.9438246
  57.8998737  97.6728625 107.3254692  57.0228203  97.5517426 106.9616939
  58.3756490  96.8814703 107.0733581  67.7671730 106.1281693 124.0953148
  66.8798509 105.7907615 124.2179547  68.3370281 105.3964724 124.3321913
  49.4200877 102.4605785 117.4196199  50.1071917 102.1467515 116.8317214
  49.2649006 103.3647149 117.1463451  54.2235599  97.3495981 121.8481223
  54.1393788  96.7421651 121.1131633  53.4018305  97.8405000 121.8490719
  61.2972883 110.7883145 121.0614391  61.2243055 111.5938117 121.5733696
  60.8550276 110.9875111 120.2362412  61.0862663 110.0254915 114.5717212
  60.3030185 110.5676596 114.6655437  61.7855408 110.5428895 114.9711454
  64.3959313  95.8349545 117.2151418  64.8928012  95.0819507 116.8952488
  63.6246294  95.8713861 116.6494627  72.2489070 101.5389910 118.8569709
  72.2378947 102.4214626 118.4863642  71.3806450 101.1861461 118.6624246
  63.7571567 110.6869979 123.2172550  64.4699539 111.3217444 123.1448451
  63.2661595 110.7833845 122.4012551  65.4789094 104.5921232 114.7889841
  64.5445372 104.7122694 114.6194546  65.6565762 103.6893699 114.5249851
  60.9794282  97.9766928 116.9423102  60.6092069  97.4237968 117.6304008
  61.4753374  97.3725061 116.3898103  68.8661645 100.4338551 115.3239875
  69.3322097 101.2666543 115.2500178  69.3169145  99.9683533 116.0285134
  58.8083480 108.4364423 124.0378120  59.5092940 109.0700906 124.1907515
  58.3378595 108.7779154 123.2773760  66.9337876 106.7782373 112.3226027
  67.2097720 106.6638967 113.2319902  66.0642375 106.3799857 112.2838201
  66.8378308  92.8019138 119.3630777  65.9241388  93.0323365 119.5312984
  67.2671409  92.8857582 120.2144809  66.6084766 100.9909030 121.8630671
  65.9556216 101.2384938 121.2083124  66.9865146 100.1773168 121.5293148
  63.5691940 111.0268723 115.9658841  63.7514335 110.2090379 116.4286593
  64.3924926 111.2436416 115.5283731  63.9034106 109.9536909 113.2273890
  64.4321872 109.4429363 112.6144052  64.1662325 109.6379439 114.0919423
  62.6572339 101.7328841 128.3496708  61.9812976 101.6322971 129.0199083
  63.4799973 101.5768055 128.8132705  54.4051198 107.9700778 120.9709223
  54.9904635 107.2244466 121.1037127  54.2076037 108.2804735 121.8545887
  57.2589854 111.0052025 115.9871665  56.5900229 111.4898153 115.5035706
  57.1202723 111.2521246 116.9015044  48.9968853 100.5406378 119.6913666
  49.0352953 100.0069969 120.4850784  48.4909146 100.0141584 119.0724643
  61.3995122 113.0395769 122.5854324  61.9513430 113.2027390 123.3503409
  61.7401316 113.6300207 121.9134349  56.3759615  95.3870919 123.1876209
  56.4400942  96.2485749 122.7753606  56.3126736  94.7744920 122.4548567
  55.8511888  97.4594051 126.8349243  56.4783927  97.0771128 127.4486767
  54.9939807  97.2408253 127.2004935  66.2505996 107.8657026 128.4402978
  66.7945900 108.4786985 127.9457933  65.6692841 108.4236605 128.9569991
  52.6277431  99.2670480 112.7667598  52.9230872  98.3581159 112.7134651
  51.7265466  99.2458220 112.4448600  64.5363509 110.9877744 119.5718006
  64.4114649 110.1867484 119.0628952  65.1942601 111.4823938 119.0831976
  56.1571678  97.3426477 118.7495146  55.4358263  97.9562445 118.6102620
  56.9464933  97.8784242 118.6711792  66.5998418 108.7886764 121.1997556
  65.6528753 108.6692116 121.1275883  66.9481191 107.9009262 121.2823818
  58.9597991  94.6780903 125.0235798  59.4832393  94.9243200 125.7862107
  58.7410324  95.5100938 124.6038935  54.3565272  96.9484578 112.8906923
  54.0277978  96.0681957 112.7082029  54.7104643  96.8932247 113.7783312
  63.6044851 108.5839481 117.4001908  63.4569814 107.6556188 117.5809478
  64.4298345 108.6059571 116.9158984  57.4707095  97.2357548 113.2582400
  57.8103168  97.7643469 112.5361009  57.9179216  97.5737954 114.0340967
  67.2078973 109.4068039 118.4866781  68.1325520 109.2010901 118.3491232
  67.0394276 109.1584440 119.3956123  60.1650536  95.6194598 122.7085469
  59.8247357  94.8202411 123.1106148  59.4589542  95.9196309 122.1362302
  60.8167008  92.7043911 121.1612792  61.6393077  92.2304389 121.0391682
  61.0605072  93.4834395 121.6611478  59.4575243  95.7332169 111.4575693
  60.1783605  96.1113422 110.9539410  58.8340547  96.4521046 111.5610671
  63.6006365  96.4377318 112.3934026  63.8169980  97.3201956 112.0922854
  63.1200433  96.0463532 111.6639668  58.3405587  99.3963031 118.9704770
  58.1950167  99.7103335 119.8629052  57.8630790 100.0147932 118.4175669
  60.2001970  96.3865579 119.0185660  60.1863538  95.4906673 118.6817958
  60.9174398  96.3936243 119.6523946  62.0528100  96.8202920 121.0638787
  61.7945878  97.7419990 121.0623118  61.5213141  96.4233354 121.7539251
  66.9974289 109.9253707 113.8428873  67.1711167 109.3600129 113.0902725
  67.4903180 110.7254602 113.6608362  52.8151249 101.9368376 121.9092431
  52.2704717 102.7128184 122.0412706  53.6930599 102.2839180 121.7511553
  59.6038866  95.2679960 114.2873230  59.7254777  94.3396606 114.4864117
  59.3140908  95.2818646 113.3751545  62.4730056  92.9534870 117.4239950
  62.4951753  93.0174203 116.4691929  62.8898115  92.1139379 117.6180456
  72.8513680 102.6890130 115.4619172  73.2944826 101.9397455 115.0638296
  71.9740191 102.6800266 115.0792904  67.9849462 109.2420471 110.9425771
  68.6800366 109.8627164 111.1613085  68.3272612 108.3915822 111.2178149
  53.6017271 101.0638272 124.8022588  52.8599007 101.2120907 125.3887219
  53.2810015 101.3246538 123.9389338  69.8840885 106.6920177 112.4713102
  70.4092209 107.0307449 111.7462422  69.7963237 105.7567192 112.2876236
  61.5460933 110.6054250 124.6002978  61.8548060 110.3603397 125.4725678
  62.3436415 110.8100889 124.1121848  61.5681545 112.7592160 116.8308355
  61.1286536 112.2668539 117.5241211  62.3189662 112.2165128 116.5900430
  54.0473884 108.9503701 116.8332983  54.8731904 108.6507473 116.4531626
  53.6967936 108.1811323 117.2822772  59.0155418 108.3030169 118.9030656
  58.3935427 107.6400874 118.6032884  59.6860285 108.3291301 118.2204304
  52.2482490 106.8690027 117.7921916  51.4114398 106.4412202 117.6105918
  52.2206135 107.0622471 118.7292708  59.0879945  96.7811957 128.4963162
  59.1368101  97.6574080 128.1140932  59.6302459  96.2389350 127.9234806
  69.5734791 107.3253080 127.7764300  68.7830335 107.3077219 127.2368799
  69.3368145 107.8641374 128.5313336  69.6932666 104.1745547 125.0897028
  69.7430671 104.0095554 126.0312551  69.5846589 103.3072806 124.6994909
  58.5768925 106.8534092 112.3789117  58.7257045 107.5369557 111.7255790
  59.3835368 106.8339182 112.8938573  66.9836428 100.1576475 126.4056335
  67.8846291 100.0182940 126.1140333  67.0584403 100.3230930 127.3454512
  61.3179234  97.5343330 125.2509521  60.4482543  97.8276896 124.9792110
  61.5538714  98.1183775 125.9716785  71.1950863 106.5942488 125.3339050
  70.9035671 106.9572469 126.1702511  70.5822994 105.8809497 125.1552382
  72.3946545 104.1595368 117.8541620  73.2293436 104.5985172 118.0179180
  72.5305674 103.6834021 117.0349866  69.4438051 101.7175103 123.8019108
  69.9192173 101.9102749 122.9937959  68.5203616 101.7734289 123.5562491
  56.3321558 102.8799270 113.3850186  56.0867599 101.9761600 113.5830396
  56.5017472 102.8816420 112.4429664  64.0218267  93.7522946 122.7674942
  64.5400211  94.4883973 122.4421430  63.6673400  94.0586940 123.6021701
  55.6017205  98.6127628 110.8836347  54.9086450  98.6871983 110.2276383
  55.3568957  97.8487971 111.4057864  64.2730862  90.1723229 118.2875838
  64.5532615  89.5046418 118.9136265  65.0581469  90.3652325 117.7750502
  62.0764330 109.3482223 109.8500864  61.5038297 109.9672410 109.3971336
  62.6497124 109.8981585 110.3840786  68.1439720  98.5940863 122.0347413
  69.0957143  98.6938961 122.0559637  67.9743170  97.8019132 122.5445498
  66.1654099  95.6796446 122.2206814  65.5704032  95.9601459 121.5253303
  65.8803796  96.1690347 122.9923555  65.2961590 109.6319373 110.9809447
  66.2292263 109.5664935 111.1842322  65.2084803 110.4675640 110.5223979
  67.9249607 108.9485243 107.9413394  67.8463238 108.6145107 108.8349152
  68.7459273 109.4407011 107.9404867  70.6227798 101.8146983 121.1489713
  70.5904118 100.8762983 121.3349397  71.2328421 101.8931019 120.4155538
  62.4611129 100.6843036 107.1916917  63.4070233 100.5549244 107.2605335
  62.0825374  99.9457698 107.6686345  70.7722286  98.6058026 121.1947996
  70.2561335  97.8216483 121.0077925  71.6562235  98.2776743 121.3594516
  68.4333013  92.3499042 117.1543809  68.2357834  92.0414130 118.0387141
  69.0432719  93.0760681 117.2841739  76.4404348 102.8762989 120.2895750
  77.1707736 102.6148278 120.8503453  75.8311293 102.1391711 120.3297818
  74.5219645 101.0170852 120.8870201  73.7952808 100.8826817 120.2786692
  74.1066932 101.3247681 121.6926919  62.3449821 104.7360782 128.6517574
  63.2652831 104.9139381 128.8457620  62.3099404 103.7916827 128.4997273
  60.6454046  98.6093012 107.1271802  59.7385501  98.3126125 107.2034516
  60.9230027  98.3122830 106.2606088  51.5631986  99.9299375 117.5770849
  51.2434770  99.0764684 117.2845223  51.0165414 100.1447954 118.3328816
  55.3411894 102.6461816 121.2940355  55.5597903 103.5778924 121.3128389
  55.7537667 102.2869791 122.0795159  62.2616111  93.1529902 113.2816043
  61.4516840  92.8076987 113.6571290  62.9500528  92.8437445 113.8703655
  64.1906660  92.2307949 114.9040340  64.7437698  92.6503402 115.5630363
  64.4276746  91.3043697 114.9463296  60.2139759  98.2195022 130.6843104
  60.1136486  99.1689379 130.6155195  59.9961301  97.8913261 129.8119174
  59.4152830  95.4679947 107.2683781  60.2771994  95.7934846 107.5279599
  59.6003175  94.6811443 106.7556847  51.4320246 103.5502287 119.5463970
  50.7383718 103.1356240 119.0333925  52.1793237 103.5922823 118.9497389
  67.5685467  94.3408474 114.4119004  66.9884136  94.9993278 114.0297057
  67.3021400  93.5185818 114.0006422  66.0189033  93.7413531 116.6140325
  66.5188812  93.8530066 115.8054644  66.6624641  93.4374584 117.2541133
  60.0771029 101.6492161 129.5008166  59.5938111 102.4492521 129.7072055
  60.1631968 101.6600106 128.5475610  53.3456989 103.4820541 117.4229985
  53.3227677 103.5808228 116.4711868  53.6557625 104.3285691 117.7447151
  56.0044367 105.5396696 121.5376599  56.9587620 105.5080638 121.4706531
  55.8056890 105.0787319 122.3526825  56.5943749 104.1097812 124.1047397
  57.4136638 104.6041890 124.1282234  56.8680556 103.1929780 124.0764965
  66.3510345  96.5008564 113.4675353  65.4636200  96.7858215 113.2495547
  66.7664334  96.3402327 112.6202629  69.7024881  96.5255085 117.1829692
  70.4785271  97.0151537 117.4554309  68.9773015  96.9513139 117.6401561
  72.1397440  97.2382704 118.2403632  72.7341930  96.9978440 117.5296941
  72.2124023  96.5189835 118.8677169  54.3594595 111.0816315 118.5546797
  54.2249063 110.3216716 117.9884795  53.9426658 111.8057215 118.0875586
  65.4953558 106.2653239 107.5623373  66.1989408 106.4703241 108.1781028
  64.7716207 106.8330001 107.8272456  66.3251369 102.0163100 113.6825643
  66.2686570 102.4731651 112.8433275  66.8779711 101.2553785 113.5048486
  70.1356175  97.8052832 114.5075762  69.8793109  97.4049468 115.3383970
  69.5109043  98.5196626 114.3825901  74.4468512 100.5448905 117.0147054
  73.8868070 100.6142094 117.7878616  73.8412016 100.3689890 116.2946550
  57.5163721 111.9785632 118.7665240  57.3996105 112.9231065 118.6643930
  56.6956167 111.6759194 119.1551039  67.4040256 106.7035768 109.6121833
  68.2385860 106.2716966 109.4299307  67.2424599 106.5317782 110.5398727
  67.0586148 103.2067881 110.9778172  67.0034952 103.0412153 110.0366616
  66.4332203 103.9143914 111.1340362  51.8478663  98.4435946 124.8039594
  52.4937526  97.9334900 125.2926819  51.6395814  99.1804627 125.3783019
  64.3732055 105.5116793 130.3031735  65.2423215 105.6857445 129.9418370
  63.8938807 106.3311210 130.1807464  60.3682273  92.7075990 110.5563490
  60.3560943  93.6517830 110.7131761  61.2605695  92.5246136 110.2622952
  58.5418235 112.6313894 121.9821168  59.4445482 112.6637504 122.2987663
  58.3155605 111.7014345 121.9967504  60.2971837 111.3844881 118.6431247
  59.3467468 111.3846742 118.5295619  60.6004323 110.6377615 118.1267282
  64.1834393  89.3018767 114.8109427  63.4166789  88.7477254 114.9566109
  64.5945098  89.3740636 115.6723579  56.1876154  95.5903563 128.9014608
  57.0507615  95.2340368 129.1117933  55.6141565  95.2517458 129.5890013
  76.0324531 117.2205419 119.7077009  76.6702941 117.1012166 119.0040349
  75.9145374 118.1686263 119.7664962  72.8414237 117.1732847 119.6438534
  72.5032749 117.0573912 118.7559069  73.7104005 116.7724012 119.6239540
  68.7001053 119.0268324 115.6335425  68.1365918 118.9358261 114.8651713
  68.5853448 118.2068228 116.1137918  73.3234020 118.3267699 125.6024740
  73.3122661 117.9320497 124.7305243  73.4854660 117.5933771 126.1958511
  66.2465485 120.5219515 118.4719645  67.0386777 120.1810340 118.0565945
  66.4862135 120.6314490 119.3921799  68.2056239 119.7828428 111.3437024
  68.9787115 119.2357416 111.2049900  68.5581638 120.6472678 111.5551486
  70.0441281 121.1104811 124.5503924  69.7531147 122.0150442 124.4350590
  70.6798266 121.1521338 125.2647993  70.9697488 118.4881659 121.1405283
  71.5661060 118.2637682 120.4262246  71.0272460 117.7466405 121.7430731
  70.5422516 115.9421095 108.9755474  70.7948037 115.4202616 108.2138937
  69.6047076 115.7787240 109.0782158  75.5865799 114.9456873 116.7830217
  76.3728889 114.5276296 116.4320634  75.8504504 115.8502965 116.9511866
  80.9874226 114.8832106 117.6863196  81.7199398 114.3131323 117.9201025
  80.2313582 114.4953707 118.1269702  70.2618805 117.8449200 111.1779849
  70.1455063 117.1694104 111.8460933  70.3721065 117.3581574 110.3612002
  72.6050346 117.3059348 114.8826538  72.2408553 116.7789969 115.5939460
  73.4617462 116.9157817 114.7093024  78.5099647 108.5953680 122.1457805
  78.1782972 109.4649091 121.9219020  77.9145260 108.2789964 122.8251835
  72.2455833 112.3349247 109.8787887  72.4130235 113.2029484 110.2458358
  72.0553002 112.4976529 108.9549176  75.0031166 120.7966226 121.5453717
  74.7031889 121.6991265 121.4369524  74.6582226 120.5298409 122.3974870
  68.4543648 117.2480023 117.5790422  67.5294144 117.1156237 117.7868113
  68.7028061 118.0274242 118.0760364  78.4028310 113.3148766 119.2251155
  77.4945187 113.2464175 118.9309916  78.3515906 113.7920711 120.0532980
  72.2245054 114.7906905 110.8634554  72.1044679 115.2363956 111.7020034
  71.5297642 115.1392222 110.3048092  65.8152459 116.8913297 118.4134211
  65.9444840 117.1447776 119.3273622  65.1349910 117.4841005 118.0938866
  69.9851946 127.5610547 114.5124685  69.9075976 128.5118372 114.5913166
  69.3813590 127.2156419 115.1699611  72.4769176 114.7338412 127.1686052
  71.7002510 115.2932332 127.1588917  73.1159739 115.2195195 127.6900922
  80.2689957 111.5165205 121.0029029  79.6264337 111.8097738 120.3568823
  79.7644885 111.4018125 121.8082225  77.9230120 115.2628378 111.6914888
  78.8347976 115.4955765 111.5162585  77.4139767 115.8465422 111.1289966
  70.7315548 117.5423865 126.7304019  71.4730233 118.0808909 126.4538842
  70.0252534 118.1690154 126.8875571  76.2070888 119.6853006 125.3276180
  76.6154244 119.2435416 124.5830813  75.4848149 119.1105633 125.5810373
  72.5601958 114.6225613 122.7009737  73.4063153 115.0465026 122.8444386
  72.5000596 113.9659237 123.3948300  76.5299702 120.2454196 119.0828469
  75.9008565 120.4099911 118.3804537  76.1425365 120.6595806 119.8539433
  80.4088934 121.1808634 116.4372833  79.7239973 121.5607536 115.8869866
  80.4932784 121.7903961 117.1704781  75.7101403 112.2829981 124.3590911
  75.4662335 113.0372041 123.8225187  75.9861334 112.6615329 125.1938158
  77.6639866 118.8268593 123.0368177  77.8756761 119.4700353 122.3602558
  77.6169614 117.9930910 122.5690107  75.2666095 111.4386414 119.9404749
  74.4050574 111.7367668 120.2321486  75.2928530 111.6556813 119.0085781
  72.0827664 119.9828605 116.3478554  72.5466010 120.2616307 115.5583177
  71.8184462 119.0812049 116.1651645  68.9751745 119.5300086 119.2858318
  69.5453102 119.9587354 118.6475802  69.5659857 119.2482671 119.9842503
  71.0196550 116.1051757 113.1568119  71.7220594 116.5572801 113.6242046
  70.6877179 115.4635576 113.7848013  69.4676912 114.6963514 127.5319329
  68.8375573 115.3779794 127.7654726  69.3613000 114.5846595 126.5872467
  64.7621884 114.3635310 118.4585253  63.9720938 114.6192838 117.9825364
  65.2533132 115.1783647 118.5637294  78.7785694 121.7040549 121.2090534
  79.6003138 121.3020736 120.9273215  78.7748097 121.6008783 122.1606650
  66.7136630 114.7279889 115.4168730  65.9167793 114.8398583 115.9352225
  66.4862222 115.0666541 114.5509620  72.5442297 121.2524592 123.3651244
  72.6086730 121.7144999 124.2009416  71.8353221 120.6221957 123.4933554
  63.0459587 114.6165800 120.8900244  63.2967626 115.5012810 121.1557820
  63.5819136 114.4370402 120.1175336  86.8691687 118.0479297 117.5575505
  86.1155395 117.4786695 117.4019510  87.0039228 118.0141962 118.5046140
  72.2590315 122.9192700 113.2330225  72.1235990 123.7644235 113.6615073
  72.8000128 123.1211977 112.4696158  68.7457655 108.9984279 129.8944580
  68.3524600 108.4450478 130.5692224  69.5623795 109.3094858 130.2851097
  65.7119712 120.4368138 113.8058150  66.2244233 121.2311388 113.9563714
  66.3642425 119.7394428 113.7391751  67.5214597 123.5533894 115.8880903
  67.6981225 124.4751859 115.7001887  68.3171431 123.2392313 116.3175283
  71.6625616 110.4142158 127.4864836  72.4035329 111.0149312 127.4069299
  71.8943538 109.6719796 126.9282879  66.8066954 115.5998526 125.7643066
  66.6920469 114.6983783 126.0650165  65.9511471 115.8462222 125.4127883
  73.8858791 123.5416266 127.3630567  73.4422646 122.7552645 127.0451471
  74.5476005 123.7295417 126.6974458  68.6445913 125.0712068 121.8891245
  69.1953338 124.9429131 121.1168239  67.8057388 125.3706957 121.5386138
  75.9840029 123.8219066 125.3911968  75.9658505 124.6427947 124.8992237
  76.9059950 123.6973141 125.6162109  72.4413084 121.3363195 126.2335476
  72.9741420 120.5751484 126.0034784  71.9127165 121.0436847 126.9759631
  75.6082779 106.4423261 121.7629118  75.2647048 107.3324903 121.6868229
  75.9761741 106.2524919 120.8998703  63.6768629 118.7656792 114.5817720
  64.5143851 119.1753800 114.3651428  63.8546897 117.8256234 114.5517914
  75.5733061 116.4331872 110.2701553  75.0579685 117.2036477 110.5089941
  75.3010370 115.7597009 110.8934615  73.1580172 111.2781573 115.3286792
  72.3021769 110.8888424 115.1492430  73.5707124 111.3573534 114.4686577
  74.6879319 108.8127917 119.7278351  74.1844115 108.7758052 118.9146157
  74.9809926 109.7220659 119.7875008  70.9322205 108.8966646 118.7344533
  71.7975202 108.7009455 118.3750423  70.9999714 108.6676998 119.6613890
  75.3619364 114.3058965 112.0961334  75.0569500 114.6205114 112.9471478
  76.3149807 114.3840384 112.1388667  73.8065796 120.4649188 113.7454288
  73.2787158 119.7301947 113.4327526  73.3053299 121.2423864 113.4994257
  78.7858642 118.6598208 118.8621335  78.1282317 119.3497470 118.9501463
  79.5899042 119.0494640 119.2055321  68.5384524 111.1268854 116.1060900
  69.1128276 110.9044036 115.3734093  69.1255506 111.1957549 116.8589501
  77.5964101 117.0142581 116.9125276  78.1095983 117.6472573 117.4146986
  78.2465325 116.4143777 116.5468636  68.8654111 113.1573315 110.1256785
  68.0291423 113.4948002 110.4466060  68.7258881 113.0222295 109.1883922
  70.8407192 108.0010103 114.8335969  70.1871604 107.6859120 114.2092584
  70.7987666 107.3785844 115.5595792  71.9518397 118.2829398 106.7489261
  71.0445458 118.0518652 106.9480410  72.4489428 117.4867017 106.9363243
  74.8586475 126.9926905 109.6685948  74.1848174 127.2958602 110.2770905
  75.2452297 127.7955986 109.3191405  74.0744932 114.4892037 119.1583617
  73.1567493 114.7106984 119.0005305  74.4905076 114.5638347 118.2995324
  74.8579980 115.8883452 114.2886297  75.6051799 116.4004850 113.9793419
  75.1271569 115.5667505 115.1490691  73.1306630 118.3841993 111.2713252
  72.2217849 118.1001026 111.3685721  73.1601714 118.8041072 110.4116558
  78.3625897 121.9948583 115.0404419  77.9088224 121.1539492 115.0969610
  77.7319864 122.6309981 115.3779199  77.3058817 112.9240569 116.2705087
  76.5681574 112.4117955 116.6015329  77.5585590 112.4840950 115.4588363
  76.8058837 123.8325079 115.9754237  77.0981811 124.3930136 115.2566603
  77.3157457 124.1253640 116.7307396  77.4070444 105.7016821 116.8646856
  77.7129321 104.8414184 116.5772771  78.1323049 106.2934441 116.6645850
  63.6994800 116.1047507 115.2528454  63.5019200 115.5116868 114.5279520
  63.1441464 115.7999717 115.9704393  71.6791524 115.9970614 117.3723047
  71.7340134 115.0444450 117.2965523  70.8682726 116.1530053 117.8564345
  72.8282718 119.9250737 108.6101330  72.3902148 119.2086596 108.1506967
  73.5693159 120.1526852 108.0486422  69.6183884 114.6147673 115.1313426
  68.8051749 114.9141844 115.5378618  70.1142878 114.2203362 115.8487908
  71.7692462 124.6105430 117.0647690  71.7268641 124.8366277 116.1356222
  72.6855161 124.3768805 117.2133492  75.2158096 115.0789498 123.9628320
  75.5707483 115.3060971 124.8222785  75.8630227 115.4107875 123.3405575
  80.9455833 118.2007934 114.6677649  80.8073731 118.3909530 113.7398838
  80.5892051 118.9627317 115.1245700  69.1097959 112.1866029 120.7474661
  69.7497338 112.0454788 120.0497624  68.2775489 111.9000542 120.3713263
  80.9725212 120.2684461 119.6788920  81.4061719 120.1759750 120.5271974
  81.6856793 120.2441961 119.0408936  69.8858263 121.4868459 116.8609653
  70.6798861 120.9918779 116.6592228  69.1749955 120.9586322 116.4977359
  74.7053107 123.8686555 121.2122021  74.7590129 124.4377491 121.9799737
  73.8367888 124.0388440 120.8476058  66.1941026 115.6311541 112.9369406
  65.2638614 115.5695997 113.1539368  66.2898498 115.1087494 112.1406047
  66.1126575 112.1566354 115.5247648  66.3733392 113.0711687 115.4156808
  66.9343747 111.6890796 115.6744260  67.5851500 113.5704111 122.6946472
  68.2574554 113.3621473 122.0459121  66.7581287 113.3726197 122.2551704
  81.8340762 120.3108161 122.2121806  82.0276652 121.2153972 122.4581081
  81.7341380 119.8515580 123.0460391  73.4877072 110.1966052 124.7112133
  72.8404987 110.8956002 124.6176609  74.2578088 110.6302196 125.0788381
  76.8955870 120.4614904 127.7862686  76.7441377 120.2325456 126.8692770
  76.8860550 121.4185506 127.7994031  73.6641207 118.0346817 122.7708953
  74.5933267 118.1857977 122.5977920  73.2432237 118.1230838 121.9157599
  72.4629539 122.0597481 120.5407490  72.3240624 121.6916266 121.4133428
  71.6744135 122.5745121 120.3691448  73.0577691 127.1606578 111.8833027
  73.2329446 126.6894621 112.6978649  72.3710479 127.7872344 112.1114288
  74.0134754 121.4379084 117.9296328  73.6784586 121.3979854 118.8253978
  73.5138699 120.7723800 117.4566738  67.9878998 116.8446714 123.4548909
  67.8498796 116.1126953 124.0560448  68.8983921 116.7555614 123.1733097
  70.6161298 116.5566673 122.9432589  71.3260917 115.9159866 122.9019207
  70.5730607 116.8079568 123.8658770  78.6048077 123.4934027 125.8639168
  78.5460623 122.8093247 125.1969751  79.0067595 124.2353017 125.4119794
  69.3290232 113.5431891 124.7628228  68.7927589 113.0922630 125.4149825
  68.7406941 113.6777800 124.0198693  67.6238776 130.3095941 118.6572887
  67.8635374 130.9414465 119.3351906  66.7807972 129.9583981 118.9438246
  68.7392491 113.0020543 107.3254692  67.8621958 112.8809343 106.9616939
  69.2150244 112.2106621 107.0733581  78.6065484 121.4573611 124.0953148
  77.7192263 121.1199532 124.2179547  79.1764035 120.7256642 124.3321913
  60.2594631 117.7897702 117.4196199  60.9465671 117.4759432 116.8317214
  60.1042760 118.6939067 117.1463451  65.0629354 112.6787899 121.8481223
  64.9787542 112.0713568 121.1131633  64.2412060 113.1696917 121.8490719
  72.1366638 126.1175063 121.0614391  72.0636809 126.9230034 121.5733696
  71.6944031 126.3167029 120.2362412  71.9256417 125.3546833 114.5717212
  71.1423939 125.8968513 114.6655437  72.6249162 125.8720813 114.9711454
  75.2353067 111.1641462 117.2151418  75.7321767 110.4111425 116.8952488
  74.4640049 111.2005779 116.6494627  83.0882825 116.8681828 118.8569709
  83.0772701 117.7506543 118.4863642  82.2200204 116.5153379 118.6624246
  74.5965321 126.0161897 123.2172550  75.3093293 126.6509362 123.1448451
  74.1055350 126.1125763 122.4012551  76.3182848 119.9213150 114.7889841
  75.3839127 120.0414612 114.6194546  76.4959517 119.0185616 114.5249851
  71.8188036 113.3058845 116.9423102  71.4485824 112.7529886 117.6304008
  72.3147129 112.7016979 116.3898103  79.7055399 115.7630469 115.3239875
  80.1715852 116.5958461 115.2500178  80.1562900 115.2975451 116.0285134
  69.6477235 123.7656340 124.0378120  70.3486694 124.3992823 124.1907515
  69.1772350 124.1071072 123.2773760  77.7731631 122.1074290 112.3226027
  78.0491474 121.9930885 113.2319902  76.9036129 121.7091775 112.2838201
  77.6772062 108.1311056 119.3630777  76.7635142 108.3615283 119.5312984
  78.1065164 108.2149500 120.2144809  77.4478521 116.3200948 121.8630671
  76.7949971 116.5676855 121.2083124  77.8258901 115.5065086 121.5293148
  74.4085695 126.3560641 115.9658841  74.5908089 125.5382297 116.4286593
  75.2318681 126.5728333 115.5283731  74.7427860 125.2828826 113.2273890
  75.2715627 124.7721281 112.6144052  75.0056080 124.9671356 114.0919423
  73.4966094 117.0620759 128.3496708  72.8206731 116.9614888 129.0199083
  74.3193728 116.9059973 128.8132705  65.2444953 123.2992696 120.9709223
  65.8298390 122.5536383 121.1037127  65.0469791 123.6096652 121.8545887
  68.0983608 126.3343943 115.9871665  67.4293983 126.8190071 115.5035706
  67.9596478 126.5813163 116.9015044  59.8362608 115.8698296 119.6913666
  59.8746707 115.3361886 120.4850784  59.3302900 115.3433501 119.0724643
  72.2388877 128.3687686 122.5854324  72.7907185 128.5319308 123.3503409
  72.5795070 128.9592124 121.9134349  67.2153370 110.7162836 123.1876209
  67.2794696 111.5777667 122.7753606  67.1520490 110.1036838 122.4548567
  66.6905642 112.7885969 126.8349243  67.3177681 112.4063046 127.4486767
  65.8333561 112.5700171 127.2004935  77.0899751 123.1948944 128.4402978
  77.6339655 123.8078902 127.9457933  76.5086596 123.7528522 128.9569991
  63.4671185 114.5962398 112.7667598  63.7624626 113.6873076 112.7134651
  62.5659221 114.5750137 112.4448600  75.3757264 126.3169662 119.5718006
  75.2508403 125.5159402 119.0628952  76.0336355 126.8115855 119.0831976
  66.9965432 112.6718394 118.7495146  66.2752018 113.2854362 118.6102620
  67.7858688 113.2076159 118.6711792  77.4392172 124.1178682 121.1997556
  76.4922508 123.9984033 121.1275883  77.7874945 123.2301180 121.2823818
  69.7991746 110.0072821 125.0235798  70.3226147 110.2535118 125.7862107
  69.5804079 110.8392856 124.6038935  65.1959027 112.2776496 112.8906923
  64.8671733 111.3973874 112.7082029  65.5498397 112.2224164 113.7783312
  74.4438606 123.9131398 117.4001908  74.2963568 122.9848106 117.5809478
  75.2692099 123.9351489 116.9158984  68.3100850 112.5649465 113.2582400
  68.6496922 113.0935387 112.5361009  68.7572970 112.9029871 114.0340967
  78.0472727 124.7359957 118.4866781  78.9719275 124.5302818 118.3491232
  77.8788031 124.4876358 119.3956123  71.0044291 110.9486516 122.7085469
  70.6641111 110.1494329 123.1106148  70.2983297 111.2488227 122.1362302
  71.6560763 108.0335828 121.1612792  72.4786832 107.5596307 121.0391682
  71.8998826 108.8126312 121.6611478  70.2968997 111.0624087 111.4575693
  71.0177359 111.4405340 110.9539410  69.6734301 111.7812964 111.5610671
  74.4400120 111.7669236 112.3934026  74.6563734 112.6493874 112.0922854
  73.9594187 111.3755449 111.6639668  69.1799341 114.7254949 118.9704770
  69.0343922 115.0395252 119.8629052  68.7024545 115.3439849 118.4175669
  71.0395724 111.7157497 119.0185660  71.0257293 110.8198590 118.6817958
  71.7568152 111.7228161 119.6523946  72.8921855 112.1494837 121.0638787
  72.6339633 113.0711908 121.0623118  72.3606895 111.7525272 121.7539251
  77.8368044 125.2545624 113.8428873  78.0104921 124.6892047 113.0902725
  78.3296935 126.0546519 113.6608362  63.6545003 117.2660294 121.9092431
  63.1098471 118.0420101 122.0412706  64.5324353 117.6131098 121.7511553
  70.4432620 110.5971877 114.2873230  70.5648531 109.6688524 114.4864117
  70.1534662 110.6110563 113.3751545  73.3123810 108.2826788 117.4239950
  73.3345507 108.3466121 116.4691929  73.7291869 107.4431296 117.6180456
  78.8243216 124.5712389 110.9425771  79.5194121 125.1919082 111.1613085
  79.1666366 123.7207740 111.2178149  64.4411025 116.3930190 124.8022588
  63.6992761 116.5412825 125.3887219  64.1203770 116.6538455 123.9389338
  80.7234639 122.0212094 112.4713102  81.2485963 122.3599367 111.7462422
  80.6356992 121.0859110 112.2876236  72.3854688 125.9346168 124.6002978
  72.6941814 125.6895315 125.4725678  73.1830170 126.1392806 124.1121848
  72.4075300 128.0884078 116.8308355  71.9680290 127.5960456 117.5241211
  73.1583417 127.5457045 116.5900430  64.8867639 124.2795619 116.8332983
  65.7125659 123.9799390 116.4531626  64.5361691 123.5103241 117.2822772
  69.8549172 123.6322087 118.9030656  69.2329181 122.9692792 118.6032884
  70.5254039 123.6583219 118.2204304  63.0876244 122.1981945 117.7921916
  62.2508152 121.7704119 117.6105918  63.0599889 122.3914388 118.7292708
  69.9273700 112.1103875 128.4963162  69.9761855 112.9865998 128.1140932
  70.4696214 111.5681268 127.9234806  80.4128545 122.6544998 127.7764300
  79.6224089 122.6369137 127.2368799  80.1761900 123.1933292 128.5313336
  80.5326420 119.5037464 125.0897028  80.5824425 119.3387472 126.0312551
  80.4240344 118.6364723 124.6994909  69.4162679 122.1826010 112.3789117
  69.5650799 122.8661474 111.7255790  70.2229122 122.1631100 112.8938573
  77.8230183 115.4868392 126.4056335  78.7240045 115.3474857 126.1140333
  77.8978157 115.6522847 127.3454512  72.1572988 112.8635247 125.2509521
  71.2876297 113.1568813 124.9792110  72.3932468 113.4475692 125.9716785
  82.0344617 121.9234406 125.3339050  81.7429425 122.2864386 126.1702511
  81.4216748 121.2101414 125.1552382  83.2340299 119.4887286 117.8541620
  84.0687191 119.9277090 118.0179180  83.3699428 119.0125939 117.0349866
  80.2831805 117.0467021 123.8019108  80.7585927 117.2394667 122.9937959
  79.3597371 117.1026206 123.5562491  67.1715312 118.2091188 113.3850186
  66.9261354 117.3053518 113.5830396  67.3411227 118.2108338 112.4429664
  74.8612022 109.0814864 122.7674942  75.3793966 109.8175891 122.4421430
  74.5067155 109.3878857 123.6021701  66.4410960 113.9419545 110.8836347
  65.7480204 114.0163900 110.2276383  66.1962711 113.1779889 111.4057864
  75.1124616 105.5015147 118.2875838  75.3926370 104.8338336 118.9136265
  75.8975223 105.6944242 117.7750502  72.9158085 124.6774141 109.8500864
  72.3432052 125.2964328 109.3971336  73.4890878 125.2273502 110.3840786
  78.9833474 113.9232781 122.0347413  79.9350897 114.0230878 122.0559637
  78.8136925 113.1311049 122.5445498  77.0047854 111.0088364 122.2206814
  76.4097786 111.2893377 121.5253303  76.7197551 111.4982265 122.9923555
  76.1355344 124.9611291 110.9809447  77.0686018 124.8956852 111.1842322
  76.0478557 125.7967558 110.5223979  81.4621552 117.1438900 121.1489713
  81.4297872 116.2054901 121.3349397  82.0722176 117.2222937 120.4155538
  73.3004883 116.0134953 107.1916917  74.2463988 115.8841161 107.2605335
  72.9219128 115.2749615 107.6686345  81.6116041 113.9349944 121.1947996
  81.0955089 113.1508400 121.0077925  82.4955989 113.6068660 121.3594516
  79.2726768 107.6790959 117.1543809  79.0751589 107.3706048 118.0387141
  79.8826473 108.4052598 117.2841739  87.2798102 118.2054907 120.2895750
  88.0101491 117.9440195 120.8503453  86.6705048 117.4683629 120.3297818
  85.3613399 116.3462770 120.8870201  84.6346563 116.2118735 120.2786692
  84.9460686 116.6539598 121.6926919  73.1843576 120.0652699 128.6517574
  74.1046585 120.2431298 128.8457620  73.1493159 119.1208745 128.4997273
  71.4847800 113.9384930 107.1271802  70.5779256 113.6418042 107.2034516
  71.7623781 113.6414748 106.2606088  62.4025741 115.2591293 117.5770849
  62.0828525 114.4056601 117.2845223  61.8559169 115.4739871 118.3328816
  66.1805648 117.9753734 121.2940355  66.3991658 118.9070842 121.3128389
  66.5931422 117.6161708 122.0795159  73.1009866 108.4821819 113.2816043
  72.2910594 108.1368904 113.6571290  73.7894283 108.1729363 113.8703655
  75.0300414 107.5599866 114.9040340  75.5831453 107.9795320 115.5630363
  75.2670501 106.6335614 114.9463296  71.0533513 113.5486940 130.6843104
  70.9530240 114.4981297 130.6155195  70.8355056 113.2205179 129.8119174
  70.2546585 110.7971865 107.2683781  71.1165749 111.1226763 107.5279599
  70.4396929 110.0103361 106.7556847  62.2714001 118.8794205 119.5463970
  61.5777472 118.4648157 119.0333925  63.0186992 118.9214741 118.9497389
  78.4079221 109.6700391 114.4119004  77.8277890 110.3285195 114.0297057
  78.1415154 108.8477736 114.0006422  76.8582788 109.0705449 116.6140325
  77.3582566 109.1821984 115.8054644  77.5018396 108.7666502 117.2541133
  70.9164784 116.9784079 129.5008166  70.4331865 117.7784439 129.7072055
  71.0025723 116.9892024 128.5475610  64.1850743 118.8112458 117.4229985
  64.1621431 118.9100146 116.4711868  64.4951380 119.6577609 117.7447151
  66.8438121 120.8688613 121.5376599  67.7981375 120.8372556 121.4706531
  66.6450645 120.4079237 122.3526825  67.4337503 119.4389729 124.1047397
  68.2530392 119.9333808 124.1282234  67.7074311 118.5221698 124.0764965
  77.1904099 111.8300482 113.4675353  76.3029954 112.1150132 113.2495547
  77.6058088 111.6694245 112.6202629  80.5418635 111.8547003 117.1829692
  81.3179026 112.3443455 117.4554309  79.8166770 112.2805057 117.6401561
  82.9791194 112.5674622 118.2403632  83.5735685 112.3270358 117.5296941
  83.0517778 111.8481753 118.8677169  65.1988350 126.4108233 118.5546797
  65.0642818 125.6508634 117.9884795  64.7820412 127.1349133 118.0875586
  77.1645123 117.3455018 113.6825643  77.1080324 117.8023569 112.8433275
  77.7173466 116.5845702 113.5048486  80.9749929 113.1344750 114.5075762
  80.7186863 112.7341385 115.3383970  80.3502797 113.8488543 114.3825901
  85.2862267 115.8740823 117.0147054  84.7261825 115.9434012 117.7878616
  84.6805770 115.6981807 116.2946550  68.3557476 127.3077550 118.7665240
  68.2389860 128.2522982 118.6643930  67.5349922 127.0051111 119.1551039
  62.6872417 113.7727863 124.8039594  63.3331281 113.2626817 125.2926819
  62.4789568 114.5096545 125.3783019  75.2125810 120.8408711 130.3031735
  76.0816969 121.0149363 129.9418370  74.7332561 121.6603128 130.1807464
  71.2076028 108.0367908 110.5563490  71.1954698 108.9809748 110.7131761
  72.0999450 107.8538053 110.2622952  69.3811990 127.9605812 121.9821168
  70.2839237 127.9929422 122.2987663  69.1549360 127.0306263 121.9967504
  71.1365592 126.7136798 118.6431247  70.1861223 126.7138660 118.5295619
  71.4398078 125.9669533 118.1267282  75.0228147 104.6310685 114.8109427
  74.2560543 104.0769171 114.9566109  75.4338852 104.7032553 115.6723579
  67.0269908 110.9195480 128.9014608  67.8901370 110.5632285 129.1117933
  66.4535319 110.5809375 129.5890013  86.8718285 132.5497337 119.7077009
  87.5096695 132.4304084 119.0040349  86.7539128 133.4978181 119.7664962
  83.6807992 132.5024765 119.6438534  83.3426503 132.3865830 118.7559069
  84.5497760 132.1015930 119.6239540  79.5394807 134.3560241 115.6335425
  78.9759672 134.2650178 114.8651713  79.4247202 133.5360146 116.1137918
  84.1627775 133.6559617 125.6024740  84.1516415 133.2612415 124.7305243
  84.3248414 132.9225689 126.1958511  77.0859239 135.8511433 118.4719645
  77.8780531 135.5102257 118.0565945  77.3255889 135.9606408 119.3921799
  85.1194366 138.0231209 110.9449890  84.4682346 138.6085289 110.5583904
  85.9138729 138.5537404 111.0044927  79.0449993 135.1120346 111.3437024
  79.8180869 134.5649333 111.2049900  79.3975392 135.9764595 111.5551486
  80.8835036 136.4396728 124.5503924  80.5924902 137.3442359 124.4350590
  81.5192020 136.4813256 125.2647993  81.8091243 133.8173577 121.1405283
  82.4054815 133.5929599 120.4262246  81.8666214 133.0758322 121.7430731
  81.3816271 131.2713012 108.9755474  81.6341792 130.7494533 108.2138937
  80.4440830 131.1079158 109.0782158  86.4259554 130.2748791 116.7830217
  87.2122643 129.8568214 116.4320634  86.6898258 131.1794883 116.9511866
  86.5969631 135.7121641 111.4818874  85.9615464 135.7856267 112.1939779
  86.2667038 136.3015240 110.8037953  91.8267981 130.2124024 117.6863196
  92.5593153 129.6423241 117.9201025  91.0707337 129.8245624 118.1269702
  81.1012560 133.1741118 111.1779849  80.9848818 132.4986022 111.8460933
  81.2114820 132.6873492 110.3612002  83.4444101 132.6351265 114.8826538
  83.0802308 132.1081886 115.5939460  84.3011217 132.2449734 114.7093024
  89.3493401 123.9245598 122.1457805  89.0176726 124.7941009 121.9219020
  88.7539015 123.6081882 122.8251835  85.8424921 136.1258144 121.5453717
  85.5425644 137.0283183 121.4369524  85.4975980 135.8590327 122.3974870
  79.2937402 132.5771941 117.5790422  78.3687899 132.4448155 117.7868113
  79.5421815 133.3566160 118.0760364  89.2422065 128.6440684 119.2251155
  88.3338942 128.5756092 118.9309916  89.1909660 129.1212629 120.0532980
  83.0638808 130.1198822 110.8634554  82.9438434 130.5655873 111.7020034
  82.3691397 130.4684140 110.3048092  76.6546213 132.2205214 118.4134211
  76.7838594 132.4739693 119.3273622  75.9743665 132.8132922 118.0938866
  80.8245701 142.8902464 114.5124685  80.7469730 143.8410289 114.5913166
  80.2207344 142.5448337 115.1699611  83.3162930 130.0630330 127.1686052
  82.5396264 130.6224250 127.1588917  83.9553493 130.5487113 127.6900922
  91.1083711 126.8457122 121.0029029  90.4658091 127.1389656 120.3568823
  90.6038640 126.7310043 121.8082225  88.7623875 130.5920296 111.6914888
  89.6741731 130.8247682 111.5162585  88.2533522 131.1757340 111.1289966
  81.5709303 132.8715783 126.7304019  82.3123987 133.4100827 126.4538842
  80.8646288 133.4982072 126.8875571  87.0464642 135.0144923 125.3276180
  87.4547998 134.5727334 124.5830813  86.3241904 134.4397551 125.5810373
  83.3995712 129.9517530 122.7009737  84.2456908 130.3756944 122.8444386
  83.3394350 129.2951155 123.3948300  87.3693457 135.5746114 119.0828469
  86.7402319 135.7391828 118.3804537  86.9819119 135.9887724 119.8539433
  91.2482689 136.5100552 116.4372833  90.5633727 136.8899453 115.8869866
  91.3326538 137.1195879 117.1704781  86.5495158 127.6121899 124.3590911
  86.3056090 128.3663959 123.8225187  86.8255088 127.9907246 125.1938158
  88.5033620 134.1560511 123.0368177  88.7150516 134.7992271 122.3602558
  88.4563369 133.3222828 122.5690107  86.1059849 126.7678332 119.9404749
  85.2444328 127.0659585 120.2321486  86.1322284 126.9848731 119.0085781
  82.9221419 135.3120522 116.3478554  83.3859764 135.5908225 115.5583177
  82.6578217 134.4103967 116.1651645  79.8145500 134.8592004 119.2858318
  80.3846857 135.2879272 118.6475802  80.4053612 134.5774588 119.9842503
  81.8590305 131.4343675 113.1568119  82.5614348 131.8864718 113.6242046
  81.5270933 130.7927493 113.7848013  80.3070666 130.0255431 127.5319329
  79.6769327 130.7071712 127.7654726  80.2006754 129.9138513 126.5872467
  75.6015639 129.6927227 118.4585253  74.8114693 129.9484756 117.9825364
  76.0926886 130.5075565 118.5637294  89.6179448 137.0332466 121.2090534
  90.4396892 136.6312654 120.9273215  89.6141851 136.9300701 122.1606650
  77.5530384 130.0571806 115.4168730  76.7561548 130.1690501 115.9352225
  77.3255976 130.3958459 114.5509620  83.3836052 136.5816510 123.3651244
  83.4480484 137.0436917 124.2009416  82.6746976 135.9513875 123.4933554
  73.8853342 129.9457718 120.8900244  74.1361380 130.8304728 121.1557820
  74.4212890 129.7662319 120.1175336  97.7085441 133.3771215 117.5575505
  96.9549150 132.8078613 117.4019510  97.8432983 133.3433879 118.5046140
  83.0984070 138.2484617 113.2330225  82.9629744 139.0936153 113.6615073
  83.6393882 138.4503895 112.4696158  79.5851409 124.3276197 129.8944580
  79.1918355 123.7742396 130.5692224  80.4017549 124.6386776 130.2851097
  76.5513467 135.7660055 113.8058150  77.0637987 136.5603305 113.9563714
  77.2036180 135.0686346 113.7391751  78.3608352 138.8825811 115.8880903
  78.5374980 139.8043776 115.7001887  79.1565185 138.5684231 116.3175283
  82.5019370 125.7434076 127.4864836  83.2429084 126.3441229 127.4069299
  82.7337293 125.0011714 126.9282879  77.6460708 130.9290443 125.7643066
  77.5314223 130.0275701 126.0650165  76.7905226 131.1754140 125.4127883
  84.7252546 138.8708184 127.3630567  84.2816400 138.0844562 127.0451471
  85.3869759 139.0587334 126.6974458  79.4839667 140.4003985 121.8891245
  80.0347092 140.2721049 121.1168239  78.6451143 140.6998874 121.5386138
  86.8233784 139.1510984 125.3911968  86.8052259 139.9719865 124.8992237
  87.7453704 139.0265059 125.6162109  83.2806838 136.6655113 126.2335476
  83.8135175 135.9043401 126.0034784  82.7520919 136.3728765 126.9759631
  86.4476533 121.7715179 121.7629118  86.1040802 122.6616821 121.6868229
  86.8155496 121.5816837 120.8998703  74.5162384 134.0948710 114.5817720
  75.3537606 134.5045718 114.3651428  74.6940651 133.1548152 114.5517914
  86.4126816 131.7623790 110.2701553  85.8973439 132.5328395 110.5089941
  86.1404124 131.0888926 110.8934615  83.9973927 126.6073491 115.3286792
  83.1415523 126.2180341 115.1492430  84.4100879 126.6865452 114.4686577
  85.5273073 124.1419834 119.7278351  85.0237869 124.1049969 118.9146157
  85.8203680 125.0512577 119.7875008  81.7715959 124.2258564 118.7344533
  82.6368956 124.0301373 118.3750423  81.8393468 123.9968916 119.6613890
  91.3861090 134.5156145 112.2054727  90.6090533 134.1767304 111.7609889
  92.0652571 134.5208768 111.5309692  86.2013119 129.6350882 112.0961334
  85.8963255 129.9497031 112.9471478  87.1543561 129.7132302 112.1388667
  84.6459551 135.7941106 113.7454288  84.1180912 135.0593865 113.4327526
  84.1447054 136.5715782 113.4994257  89.6252397 133.9890126 118.8621335
  88.9676071 134.6789387 118.9501463  90.4292796 134.3786558 119.2055321
  79.3778278 126.4560772 116.1060900  79.9522030 126.2335953 115.3734093
  79.9649261 126.5249466 116.8589501  88.4357856 132.3434499 116.9125276
  88.9489737 132.9764491 117.4146986  89.0859080 131.7435694 116.5468636
  81.6800946 123.3302021 114.8335969  81.0265358 123.0151038 114.2092584
  81.6381420 122.7077761 115.5595792  82.7912151 133.6121316 106.7489261
  81.8839213 133.3810569 106.9480410  83.2883183 132.8158935 106.9363243
  85.6980230 142.3218823 109.6685948  85.0241929 142.6250520 110.2770905
  86.0846052 143.1247903 109.3191405  84.9138686 129.8183954 119.1583617
  83.9961248 130.0398901 119.0005305  85.3298830 129.8930265 118.2995324
  85.6973734 131.2175370 114.2886297  86.4445553 131.7296767 113.9793419
  85.9665324 130.8959423 115.1490691  83.9700384 133.7133911 111.2713252
  83.0611604 133.4292944 111.3685721  83.9995468 134.1332989 110.4116558
  89.2019652 137.3240500 115.0404419  88.7481979 136.4831410 115.0969610
  88.5713619 137.9601899 115.3779199  88.1452571 128.2532486 116.2705087
  87.4075328 127.7409872 116.6015329  88.3979345 127.8132868 115.4588363
  87.6452591 139.1616997 115.9754237  87.9375565 139.7222054 115.2566603
  88.1551212 139.4545558 116.7307396  88.2464199 121.0308738 116.8646856
  88.5523076 120.1706102 116.5772771  88.9716804 121.6226358 116.6645850
  74.5388555 131.4339425 115.2528454  74.3412955 130.8408786 114.5279520
  73.9835219 131.1291635 115.9704393  82.5185278 131.3262531 117.3723047
  82.5733888 130.3736368 117.2965523  81.7076481 131.4821970 117.8564345
  83.6676472 135.2542654 108.6101330  83.2295902 134.5378513 108.1506967
  84.4086913 135.4818769 108.0486422  80.4577638 129.9439591 115.1313426
  79.6445504 130.2433762 115.5378618  80.9536633 129.5495280 115.8487908
  82.6086216 139.9397348 117.0647690  82.5662395 140.1658194 116.1356222
  83.5248915 139.7060723 117.2133492  86.0551850 130.4081416 123.9628320
  86.4101238 130.6352889 124.8222785  86.7023981 130.7399792 123.3405575
  91.7849587 133.5299851 114.6677649  91.6467486 133.7201447 113.7398838
  91.4285806 134.2919234 115.1245700  79.9491713 127.5157947 120.7474661
  80.5891092 127.3746706 120.0497624  79.1169244 127.2292460 120.3713263
  91.8118967 135.5976378 119.6788920  92.2455473 135.5051668 120.5271974
  92.5250547 135.5733879 119.0408936  80.7252017 136.8160377 116.8609653
  81.5192616 136.3210697 116.6592228  80.0143709 136.2878240 116.4977359
  85.5446862 139.1978473 121.2122021  85.5983884 139.7669409 121.9799737
  84.6761643 139.3680358 120.8476058  77.0334781 130.9603459 112.9369406
  76.1032369 130.8987914 113.1539368  77.1292253 130.4379411 112.1406047
  76.9520330 127.4858272 115.5247648  77.2127147 128.4003605 115.4156808
  77.7737502 127.0182714 115.6744260  78.4245255 128.8996029 122.6946472
  79.0968308 128.6913391 122.0459121  77.5975041 128.7018115 122.2551704
  92.6734516 135.6400079 122.2121806  92.8670406 136.5445890 122.4581081
  92.5735134 135.1807498 123.0460391  84.3270827 125.5257970 124.7112133
  83.6798742 126.2247919 124.6176609  85.0971842 125.9594114 125.0788381
  87.7349625 135.7906822 127.7862686  87.5835131 135.5617374 126.8692770
  87.7254304 136.7477423 127.7994031  84.5034961 133.3638735 122.7708953
  85.4327021 133.5149894 122.5977920  84.0825991 133.4522755 121.9157599
  83.3023293 137.3889399 120.5407490  83.1634379 137.0208183 121.4133428
  82.5137889 137.9037038 120.3691448  83.8971445 142.4898495 111.8833027
  84.0723201 142.0186539 112.6978649  83.2104233 143.1164262 112.1114288
  84.8528508 136.7671002 117.9296328  84.5178341 136.7271772 118.8253978
  84.3532454 136.1015718 117.4566738  78.8272752 132.1738632 123.4548909
  78.6892550 131.4418871 124.0560448  79.7377676 132.0847532 123.1733097
  87.7887700 134.1127036 108.2033388  87.1716870 133.3873864 108.1066440
  87.3204188 134.8736396 107.8600462  81.4555053 131.8858591 122.9432589
  82.1654671 131.2451783 122.9019207  81.4124361 132.1371486 123.8658770
  89.4441832 138.8225944 125.8639168  89.3854378 138.1385165 125.1969751
  89.8461350 139.5644934 125.4119794  80.1683987 128.8723809 124.7628228
  79.6321344 128.4214547 125.4149825  79.5800695 129.0069718 124.0198693
  78.4632530 145.6387858 118.6572887  78.7029129 146.2706382 119.3351906
  77.6201727 145.2875898 118.9438246  89.4459239 136.7865528 124.0953148
  88.5586018 136.4491450 124.2179547  90.0157790 136.0548560 124.3321913
  71.0988386 133.1189620 117.4196199  71.7859426 132.8051350 116.8317214
  70.9436515 134.0230985 117.1463451  75.9023108 128.0079817 121.8481223
  75.8181297 127.4005486 121.1131633  75.0805814 128.4988835 121.8490719
  82.9760392 141.4466981 121.0614391  82.9030564 142.2521952 121.5733696
  82.5337785 141.6458946 120.2362412  82.7650172 140.6838751 114.5717212
  81.9817694 141.2260431 114.6655437  83.4642917 141.2012730 114.9711454
  86.0746822 126.4933380 117.2151418  86.5715521 125.7403342 116.8952488
  85.3033803 126.5297697 116.6494627  93.9276579 132.1973746 118.8569709
  93.9166456 133.0798461 118.4863642  93.0593959 131.8445297 118.6624246
  85.4359076 141.3453815 123.2172550  86.1487048 141.9801280 123.1448451
  84.9449104 141.4417681 122.4012551  87.1576603 135.2505067 114.7889841
  86.2232881 135.3706530 114.6194546  87.3353271 134.3477534 114.5249851
  82.6581791 128.6350763 116.9423102  82.2879578 128.0821804 117.6304008
  83.1540883 128.0308897 116.3898103  90.5449154 131.0922387 115.3239875
  91.0109606 131.9250378 115.2500178  90.9956654 130.6267368 116.0285134
  80.4870989 139.0948258 124.0378120  81.1880449 139.7284741 124.1907515
  80.0166104 139.4362990 123.2773760  88.6125385 137.4366208 112.3226027
  88.8885229 137.3222803 113.2319902  87.7429884 137.0383693 112.2838201
  88.5165817 123.4602974 119.3630777  87.6028896 123.6907200 119.5312984
  88.9458918 123.5441418 120.2144809  88.2872275 131.6492866 121.8630671
  87.6343725 131.8968773 121.2083124  88.6652655 130.8357004 121.5293148
  85.2479449 141.6852559 115.9658841  85.4301844 140.8674215 116.4286593
  86.0712435 141.9020251 115.5283731  85.5821615 140.6120744 113.2273890
  86.1109381 140.1013199 112.6144052  85.8449834 140.2963274 114.0919423
  84.3359848 132.3912677 128.3496708  83.6600485 132.2906806 129.0199083
  85.1587482 132.2351890 128.8132705  76.0838707 138.6284613 120.9709223
  76.6692144 137.8828301 121.1037127  75.8863546 138.9388570 121.8545887
  78.9377363 141.6635861 115.9871665  78.2687738 142.1481988 115.5035706
  78.7990232 141.9105081 116.9015044  70.6756362 131.1990213 119.6913666
  70.7140462 130.6653804 120.4850784  70.1696655 130.6725419 119.0724643
  83.0782631 143.6979604 122.5854324  83.6300939 143.8611226 123.3503409
  83.4188825 144.2884042 121.9134349  78.0547124 126.0454754 123.1876209
  78.1188451 126.9069585 122.7753606  77.9914245 125.4328756 122.4548567
  77.5299397 128.1177886 126.8349243  78.1571436 127.7354964 127.4486767
  76.6727316 127.8992088 127.2004935  87.9293505 138.5240862 128.4402978
  88.4733409 139.1370820 127.9457933  87.3480350 139.0820440 128.9569991
  74.3064940 129.9254316 112.7667598  74.6018381 129.0164994 112.7134651
  73.4052975 129.9042055 112.4448600  86.2151018 141.6461580 119.5718006
  86.0902158 140.8451319 119.0628952  86.8730109 142.1407773 119.0831976
  77.8359187 128.0010312 118.7495146  77.1145772 128.6146280 118.6102620
  78.6252442 128.5368077 118.6711792  88.2785927 139.4470600 121.1997556
  87.3316262 139.3275951 121.1275883  88.6268700 138.5593098 121.2823818
  80.6385500 125.3364739 125.0235798  81.1619902 125.5827035 125.7862107
  80.4197833 126.1684773 124.6038935  76.0352781 127.6068413 112.8906923
  75.7065487 126.7265792 112.7082029  76.3892152 127.5516082 113.7783312
  85.2832360 139.2423316 117.4001908  85.1357322 138.3140023 117.5809478
  86.1085854 139.2643407 116.9158984  79.1494604 127.8941383 113.2582400
  79.4890677 128.4227304 112.5361009  79.5966725 128.2321789 114.0340967
  88.8866482 140.0651875 118.4866781  89.8113029 139.8594736 118.3491232
  88.7181785 139.8168276 119.3956123  81.8438045 126.2778434 122.7085469
  81.5034866 125.4786247 123.1106148  81.1377051 126.5780145 122.1362302
  82.4954517 123.3627746 121.1612792  83.3180586 122.8888224 121.0391682
  82.7392581 124.1418230 121.6611478  81.1362751 126.3916005 111.4575693
  81.8571114 126.7697257 110.9539410  80.5128056 127.1104881 111.5610671
  85.2793874 127.0961154 112.3934026  85.4957489 127.9785791 112.0922854
  84.7987942 126.7047367 111.6639668  80.0193096 130.0546867 118.9704770
  79.8737676 130.3687170 119.8629052  79.5418299 130.6731767 118.4175669
  81.8789479 127.0449415 119.0185660  81.8651047 126.1490508 118.6817958
  82.5961907 127.0520079 119.6523946  83.7315609 127.4786755 121.0638787
  83.4733387 128.4003826 121.0623118  83.2000650 127.0817190 121.7539251
  88.6761798 140.5837542 113.8428873  88.8498676 140.0183965 113.0902725
  89.1690689 141.3838437 113.6608362  74.4938758 132.5952211 121.9092431
  73.9492226 133.3712019 122.0412706  75.3718108 132.9423016 121.7511553
  81.2826375 125.9263795 114.2873230  81.4042286 124.9980441 114.4864117
  80.9928417 125.9402481 113.3751545  84.1517565 123.6118706 117.4239950
  84.1739262 123.6758039 116.4691929  84.5685624 122.7723214 117.6180456
  94.5301189 133.3473965 115.4619172  94.9732335 132.5981290 115.0638296
  93.6527700 133.3384101 115.0792904  89.6636971 139.9004307 110.9425771
  90.3587875 140.5210999 111.1613085  90.0060121 139.0499658 111.2178149
  75.2804780 131.7222107 124.8022588  74.5386516 131.8704743 125.3887219
  74.9597524 131.9830373 123.9389338  91.5628394 137.3504012 112.4713102
  92.0879718 137.6891285 111.7462422  91.4750746 136.4151027 112.2876236
  83.2248442 141.2638086 124.6002978  83.5335569 141.0187232 125.4725678
  84.0223924 141.4684724 124.1121848  83.2469054 143.4175995 116.8308355
  82.8074045 142.9252374 117.5241211  83.9977171 142.8748963 116.5900430
  75.7261393 139.6087536 116.8332983  76.5519413 139.3091308 116.4531626
  75.3755445 138.8395159 117.2822772  80.6942927 138.9614004 118.9030656
  80.0722936 138.2984709 118.6032884  81.3647794 138.9875136 118.2204304
  73.9269998 137.5273863 117.7921916  73.0901907 137.0996037 117.6105918
  73.8993644 137.7206306 118.7292708  80.7667454 127.4395792 128.4963162
  80.8155610 128.3157915 128.1140932  81.3089968 126.8973185 127.9234806
  91.2522300 137.9836916 127.7764300  90.4617843 137.9661055 127.2368799
  91.0155654 138.5225209 128.5313336  91.3720175 134.8329382 125.0897028
  91.4218180 134.6679390 126.0312551  91.2634098 133.9656641 124.6994909
  80.2556434 137.5117928 112.3789117  80.4044554 138.1953392 111.7255790
  81.0622877 137.4923018 112.8938573  88.6623937 130.8160310 126.4056335
  89.5633800 130.6766775 126.1140333  88.7371912 130.9814765 127.3454512
  82.9966743 128.1927165 125.2509521  82.1270052 128.4860731 124.9792110
  83.2326223 128.7767610 125.9716785  92.8738372 137.2526324 125.3339050
  92.5823180 137.6156304 126.1702511  92.2610503 136.5393332 125.1552382
  94.0734054 134.8179203 117.8541620  94.9080945 135.2569007 118.0179180
  94.2093183 134.3417857 117.0349866  91.1225560 132.3758938 123.8019108
  91.5979682 132.5686585 122.9937959  90.1991125 132.4318124 123.5562491
  78.0109067 133.5383105 113.3850186  77.7655108 132.6345435 113.5830396
  78.1804981 133.5400256 112.4429664  85.7005776 124.4106782 122.7674942
  86.2187720 125.1467809 122.4421430  85.3460909 124.7170775 123.6021701
  77.2804714 129.2711463 110.8836347  76.5873959 129.3455818 110.2276383
  77.0356466 128.5071807 111.4057864  85.9518371 120.8307064 118.2875838
  86.2320124 120.1630253 118.9136265  86.7368977 121.0236160 117.7750502
  83.7551839 140.0066058 109.8500864  83.1825806 140.6256245 109.3971336
  84.3284633 140.5565420 110.3840786  89.8227229 129.2524698 122.0347413
  90.7744652 129.3522796 122.0559637  89.6530679 128.4602967 122.5445498
  87.8441608 126.3380282 122.2206814  87.2491540 126.6185294 121.5253303
  87.5591305 126.8274182 122.9923555  86.9749099 140.2903208 110.9809447
  87.9079772 140.2248770 111.1842322  86.8872312 141.1259475 110.5223979
  92.3015307 132.4730818 121.1489713  92.2691627 131.5346819 121.3349397
  92.9115930 132.5514855 120.4155538  84.1398638 131.3426871 107.1916917
  85.0857742 131.2133079 107.2605335  83.7612883 130.6041533 107.6686345
  92.4509795 129.2641861 121.1947996  91.9348844 128.4800318 121.0077925
  93.3349744 128.9360578 121.3594516  90.1120522 123.0082877 117.1543809
  89.9145343 122.6997965 118.0387141  90.7220228 123.7344516 117.2841739
  98.1191857 133.5346825 120.2895750  98.8495245 133.2732113 120.8503453
  97.5098802 132.7975547 120.3297818  96.2007154 131.6754687 120.8870201
  95.4740317 131.5410652 120.2786692  95.7854441 131.9831516 121.6926919
  84.0237330 135.3944617 128.6517574  84.9440340 135.5723216 128.8457620
  83.9886913 134.4500662 128.4997273  73.2419495 130.5883211 117.5770849
  72.9222279 129.7348519 117.2845223  72.6952923 130.8031789 118.3328816
  77.0199403 133.3045652 121.2940355  77.2385412 134.2362760 121.3128389
  77.4325176 132.9453626 122.0795159  83.9403620 123.8113737 113.2816043
  83.1304349 123.4660822 113.6571290  84.6288037 123.5021281 113.8703655
  85.8694169 122.8891784 114.9040340  86.4225207 123.3087237 115.5630363
  86.1064255 121.9627532 114.9463296  81.8927268 128.8778858 130.6843104
  81.7923995 129.8273214 130.6155195  81.6748810 128.5497096 129.8119174
  73.1107755 134.2086122 119.5463970  72.4171227 133.7940075 119.0333925
  73.8580746 134.2506659 118.9497389  89.2472976 124.9992309 114.4119004
  88.6671645 125.6577113 114.0297057  88.9808908 124.1769654 114.0006422
  87.6976542 124.3997367 116.6140325  88.1976321 124.5113901 115.8054644
  88.3412150 124.0958420 117.2541133  81.7558538 132.3075996 129.5008166
  81.2725620 133.1076356 129.7072055  81.8419477 132.3183941 128.5475610
  75.0244498 134.1404376 117.4229985  75.0015186 134.2392063 116.4711868
  75.3345134 134.9869527 117.7447151  77.6831875 136.1980531 121.5376599
  78.6375129 136.1664473 121.4706531  77.4844399 135.7371155 122.3526825
  78.2731258 134.7681647 124.1047397  79.0924147 135.2625726 124.1282234
  78.5468065 133.8513615 124.0764965  88.0297854 127.1592399 113.4675353
  87.1423709 127.4442050 113.2495547  88.4451843 126.9986163 112.6202629
  91.3812390 127.1838920 117.1829692  92.1572780 127.6735373 117.4554309
  90.6560524 127.6096975 117.6401561  93.8184949 127.8966540 118.2403632
  94.4129439 127.6562276 117.5296941  93.8911532 127.1773670 118.8677169
  76.0382104 141.7400151 118.5546797  75.9036572 140.9800551 117.9884795
  75.6214167 142.4641050 118.0875586  87.1741067 136.9237074 107.5623373
  87.8776917 137.1287077 108.1781028  86.4503716 137.4913836 107.8272456
  88.0038878 132.6746935 113.6825643  87.9474079 133.1315487 112.8433275
  88.5567220 131.9137620 113.5048486  91.8143683 128.4636667 114.5075762
  91.5580618 128.0633303 115.3383970  91.1896552 129.1780461 114.3825901
  96.1256021 131.2032740 117.0147054  95.5655579 131.2725930 117.7878616
  95.5199525 131.0273725 116.2946550  79.1951230 142.6369468 118.7665240
  79.0783614 143.5814900 118.6643930  78.3743676 142.3343029 119.1551039
  89.0827765 137.3619603 109.6121833  89.9173369 136.9300802 109.4299307
  88.9212108 137.1901617 110.5398727  88.7373657 133.8651717 110.9778172
  88.6822461 133.6995988 110.0366616  88.1119712 134.5727750 111.1340362
  73.5266172 129.1019781 124.8039594  74.1725035 128.5918735 125.2926819
  73.3183323 129.8388463 125.3783019  86.0519564 136.1700628 130.3031735
  86.9210724 136.3441281 129.9418370  85.5726316 136.9895045 130.1807464
  82.0469782 123.3659826 110.5563490  82.0348452 124.3101666 110.7131761
  82.9393204 123.1829971 110.2622952  80.2205744 143.2897729 121.9821168
  81.1232991 143.3221340 122.2987663  79.9943114 142.3598180 121.9967504
  81.9759346 142.0428716 118.6431247  81.0254977 142.0430578 118.5295619
  82.2791832 141.2961451 118.1267282  77.8663663 126.2487398 128.9014608
  78.7295124 125.8924203 129.1117933  77.2929074 125.9101293 129.5890013
  97.7112040 147.8789254 119.7077009  98.3490450 147.7596002 119.0040349
  97.5932883 148.8270098 119.7664962  94.5201746 147.8316683 119.6438534
  94.1820258 147.7157747 118.7559069  95.3891514 147.4307848 119.6239540
  90.3788562 149.6852159 115.6335425  89.8153427 149.5942096 114.8651713
  90.2640957 148.8652063 116.1137918  95.0021529 148.9851534 125.6024740
  94.9910170 148.5904333 124.7305243  95.1642169 148.2517607 126.1958511
  87.9252994 151.1803351 118.4719645  88.7174286 150.8394175 118.0565945
  88.1649644 151.2898326 119.3921799  95.9588120 153.3523127 110.9449890
  95.3076100 153.9377207 110.5583904  96.7532483 153.8829322 111.0044927
  89.8843748 150.4412264 111.3437024  90.6574624 149.8941251 111.2049900
  90.2369147 151.3056513 111.5551486  91.7228790 151.7688646 124.5503924
  91.4318656 152.6734277 124.4350590  92.3585775 151.8105174 125.2647993
  92.6484997 149.1465495 121.1405283  93.2448569 148.9221517 120.4262246
  92.7059969 148.4050240 121.7430731  92.2210025 146.6004930 108.9755474
  92.4735546 146.0786451 108.2138937  91.2834585 146.4371075 109.0782158
  97.2653308 145.6040708 116.7830217  98.0516398 145.1860131 116.4320634
  97.5292013 146.5086800 116.9511866  97.4363386 151.0413559 111.4818874
  96.8009219 151.1148185 112.1939779  97.1060792 151.6307157 110.8037953
 102.6661735 145.5415941 117.6863196 103.3986907 144.9715158 117.9201025
 101.9101091 145.1537542 118.1269702  91.9406314 148.5033036 111.1779849
  91.8242572 147.8277939 111.8460933  92.0508574 148.0165410 110.3612002
  94.2837855 147.9643183 114.8826538  93.9196062 147.4373804 115.5939460
  95.1404971 147.5741652 114.7093024 100.1887156 139.2537516 122.1457805
  99.8570481 140.1232927 121.9219020  99.5932769 138.9373800 122.8251835
  93.9243342 142.9933083 109.8787887  94.0917744 143.8613319 110.2458358
  93.7340511 143.1560364 108.9549176  96.6818675 151.4550062 121.5453717
  96.3819398 152.3575100 121.4369524  96.3369735 151.1882245 122.3974870
  90.1331157 147.9063858 117.5790422  89.2081653 147.7740072 117.7868113
  90.3815570 148.6858078 118.0760364 100.0815819 143.9732602 119.2251155
  99.1732696 143.9048010 118.9309916 100.0303415 144.4504547 120.0532980
  93.9032563 145.4490740 110.8634554  93.7832188 145.8947791 111.7020034
  93.2085151 145.7976058 110.3048092  87.4939968 147.5497132 118.4134211
  87.6232349 147.8031611 119.3273622  86.8137419 148.1424840 118.0938866
  91.6639455 158.2194382 114.5124685  91.5863485 159.1702207 114.5913166
  91.0601099 157.8740254 115.1699611  94.1556685 145.3922247 127.1686052
  93.3790019 145.9516167 127.1588917  94.7947248 145.8779030 127.6900922
 101.9477465 142.1749040 121.0029029 101.3051846 142.4681573 120.3568823
 101.4432394 142.0601960 121.8082225  99.6017629 145.9212213 111.6914888
 100.5135485 146.1539600 111.5162585  99.0927276 146.5049258 111.1289966
  92.4103057 148.2007701 126.7304019  93.1517742 148.7392745 126.4538842
  91.7040043 148.8273989 126.8875571  94.2389467 145.2809448 122.7009737
  95.0850662 145.7048861 122.8444386  94.1788105 144.6243072 123.3948300
  98.2087211 150.9038032 119.0828469  97.5796074 151.0683746 118.3804537
  97.8212874 151.3179641 119.8539433 102.0876443 151.8392470 116.4372833
 101.4027481 152.2191371 115.8869866 102.1720293 152.4487796 117.1704781
  97.3888912 142.9413816 124.3590911  97.1449844 143.6955877 123.8225187
  97.6648843 143.3199164 125.1938158  99.3427375 149.4852429 123.0368177
  99.5544270 150.1284189 122.3602558  99.2957123 148.6514745 122.5690107
  96.9453604 142.0970249 119.9404749  96.0838083 142.3951503 120.2321486
  96.9716039 142.3140648 119.0085781  93.7615173 150.6412440 116.3478554
  94.2253519 150.9200143 115.5583177  93.4971971 149.7395884 116.1651645
  90.6539254 150.1883921 119.2858318  91.2240611 150.6171190 118.6475802
  91.2447366 149.9066506 119.9842503  92.6984059 146.7635592 113.1568119
  93.4008103 147.2156636 113.6242046  92.3664688 146.1219411 113.7848013
  91.1464421 145.3547349 127.5319329  90.5163081 146.0363630 127.7654726
  91.0400509 145.2430430 126.5872467  86.4409393 145.0219145 118.4585253
  85.6508447 145.2776673 117.9825364  86.9320641 145.8367483 118.5637294
 100.4573203 152.3624384 121.2090534 101.2790647 151.9604571 120.9273215
 100.4535606 152.2592618 122.1606650  88.3924139 145.3863724 115.4168730
  87.5955302 145.4982418 115.9352225  88.1649731 145.7250376 114.5509620
  94.2229806 151.9108427 123.3651244  94.2874239 152.3728835 124.2009416
  93.5140730 151.2805792 123.4933554  84.7247096 145.2749635 120.8900244
  84.9755135 146.1596645 121.1557820  85.2606645 145.0954237 120.1175336
 108.5479196 148.7063133 117.5575505 107.7942904 148.1370531 117.4019510
 108.6826737 148.6725797 118.5046140  93.9377824 153.5776535 113.2330225
  93.8023499 154.4228071 113.6615073  94.4787637 153.7795812 112.4696158
  90.4245164 139.6568115 129.8944580  90.0312109 139.1034313 130.5692224
  91.2411304 139.9678693 130.2851097  87.3907221 151.0951973 113.8058150
  87.9031742 151.8895223 113.9563714  88.0429934 150.3978263 113.7391751
  89.2002106 154.2117729 115.8880903  89.3768734 155.1335694 115.7001887
  89.9958940 153.8976148 116.3175283  93.3413125 141.0725994 127.4864836
  94.0822838 141.6733147 127.4069299  93.5731047 140.3303632 126.9282879
  88.4854463 146.2582361 125.7643066  88.3707978 145.3567618 126.0650165
  87.6298980 146.5046058 125.4127883  90.3233422 155.7295903 121.8891245
  90.8740847 155.6012966 121.1168239  89.4844897 156.0290792 121.5386138
  97.2870288 137.1007097 121.7629118  96.9434557 137.9908738 121.6868229
  97.6549250 136.9108754 120.8998703  85.3556138 149.4240627 114.5817720
  86.1931360 149.8337636 114.3651428  85.5334406 148.4840069 114.5517914
  97.2520570 147.0915708 110.2701553  96.7367194 147.8620312 110.5089941
  96.9797879 146.4180844 110.8934615  94.8367681 141.9365409 115.3286792
  93.9809278 141.5472259 115.1492430  95.2494633 142.0157369 114.4686577
  96.3666828 139.4711752 119.7278351  95.8631624 139.4341887 118.9146157
  96.6597435 140.3804495 119.7875008  92.6109714 139.5550482 118.7344533
  93.4762711 139.3593290 118.3750423  92.6787223 139.3260833 119.6613890
 102.2254844 149.8448062 112.2054727 101.4484287 149.5059222 111.7609889
 102.9046325 149.8500686 111.5309692  97.0406873 144.9642800 112.0961334
  96.7357009 145.2788949 112.9471478  97.9937316 145.0424220 112.1388667
  95.4853305 151.1233023 113.7454288  94.9574667 150.3885783 113.4327526
  94.9840808 151.9007700 113.4994257 100.4646151 149.3182044 118.8621335
  99.8069826 150.0081305 118.9501463 101.2686551 149.7078476 119.2055321
  90.2172033 141.7852690 116.1060900  90.7915785 141.5627871 115.3734093
  90.8043015 141.8541384 116.8589501  99.2751610 147.6726416 116.9125276
  99.7883492 148.3056408 117.4146986  99.9252834 147.0727612 116.5468636
  92.5194701 138.6593938 114.8335969  91.8659113 138.3442956 114.2092584
  92.4775175 138.0369679 115.5595792  93.6305905 148.9413234 106.7489261
  92.7232967 148.7102487 106.9480410  94.1276937 148.1450853 106.9363243
  96.5373984 157.6510741 109.6685948  95.8635683 157.9542437 110.2770905
  96.9239806 158.4539821 109.3191405  95.7532441 145.1475872 119.1583617
  94.8355002 145.3690819 119.0005305  96.1692585 145.2222182 118.2995324
  96.5367489 146.5467288 114.2886297  97.2839308 147.0588685 113.9793419
  96.8059078 146.2251340 115.1490691  94.8094139 149.0425828 111.2713252
  93.9005358 148.7584861 111.3685721  94.8389223 149.4624907 110.4116558
 100.0413406 152.6532418 115.0404419  99.5875733 151.8123328 115.0969610
  99.4107373 153.2893816 115.3779199  98.9846326 143.5824404 116.2705087
  98.2469083 143.0701790 116.6015329  99.2373099 143.1424786 115.4588363
  98.4846346 154.4908915 115.9754237  98.7769320 155.0513972 115.2566603
  98.9944966 154.7837476 116.7307396  99.0857953 136.3600656 116.8646856
  99.3916830 135.4998019 116.5772771  99.8110558 136.9518276 116.6645850
  85.3782309 146.7631343 115.2528454  85.1806709 146.1700703 114.5279520
  84.8228973 146.4583553 115.9704393  93.3579033 146.6554449 117.3723047
  93.4127643 145.7028285 117.2965523  92.5470235 146.8113888 117.8564345
  94.5070227 150.5834572 108.6101330  94.0689657 149.8670431 108.1506967
  95.2480668 150.8110687 108.0486422  91.2971393 145.2731509 115.1313426
  90.4839258 145.5725679 115.5378618  91.7930387 144.8787198 115.8487908
  93.4479971 155.2689266 117.0647690  93.4056150 155.4950112 116.1356222
  94.3642670 155.0352640 117.2133492  96.8945605 145.7373333 123.9628320
  97.2494992 145.9644806 124.8222785  97.5417736 146.0691710 123.3405575
 102.6243342 148.8591769 114.6677649 102.4861240 149.0493365 113.7398838
 102.2679560 149.6211152 115.1245700  90.7885468 142.8449864 120.7474661
  91.4284847 142.7038623 120.0497624  89.9562998 142.5584378 120.3713263
 102.6512721 150.9268296 119.6788920 103.0849228 150.8343585 120.5271974
 103.3644302 150.9025797 119.0408936  91.5645772 152.1452295 116.8609653
  92.3586370 151.6502615 116.6592228  90.8537464 151.6170158 116.4977359
  96.3840616 154.5270390 121.2122021  96.4377638 155.0961327 121.9799737
  95.5155397 154.6972275 120.8476058  87.8728535 146.2895376 112.9369406
  86.9426123 146.2279832 113.1539368  87.9686007 145.7671329 112.1406047
  87.7914084 142.8150189 115.5247648  88.0520901 143.7295522 115.4156808
  88.6131256 142.3474632 115.6744260  89.2639009 144.2287946 122.6946472
  89.9362063 144.0205309 122.0459121  88.4368796 144.0310032 122.2551704
  95.1664581 140.8549887 124.7112133  94.5192496 141.5539837 124.6176609
  95.9365597 141.2886031 125.0788381  95.3428716 148.6930652 122.7708953
  96.2720776 148.8441812 122.5977920  94.9219746 148.7814673 121.9157599
  94.1417048 152.7181317 120.5407490  94.0028133 152.3500101 121.4133428
  93.3531644 153.2328956 120.3691448  94.7365200 157.8190413 111.8833027
  94.9116955 157.3478456 112.6978649  94.0497988 158.4456179 112.1114288
  95.6922263 152.0962919 117.9296328  95.3572095 152.0563689 118.8253978
  95.1926208 151.4307635 117.4566738  89.6666507 147.5030549 123.4548909
  89.5286305 146.7710788 124.0560448  90.5771430 147.4139449 123.1733097
  98.6281454 149.4418954 108.2033388  98.0110625 148.7165782 108.1066440
  98.1597943 150.2028314 107.8600462  92.2948807 147.2150509 122.9432589
  93.0048426 146.5743701 122.9019207  92.2518115 147.4663404 123.8658770
  91.0077741 144.2015727 124.7628228  90.4715098 143.7506465 125.4149825
  90.4194450 144.3361635 124.0198693  89.3026285 160.9679776 118.6572887
  89.5422883 161.5998300 119.3351906  88.4595481 160.6167816 118.9438246
  81.9382140 148.4481538 117.4196199  82.6253180 148.1343268 116.8317214
  81.7830269 149.3522902 117.1463451  86.7416863 143.3371734 121.8481223
  86.6575051 142.7297404 121.1131633  85.9199569 143.8280753 121.8490719
  93.8154147 156.7758898 121.0614391  93.7424318 157.5813870 121.5733696
  93.3731540 156.9750864 120.2362412  93.6043926 156.0130668 114.5717212
  92.8211448 156.5552349 114.6655437  94.3036671 156.5304648 114.9711454
  96.9140576 141.8225298 117.2151418  97.4109276 141.0695260 116.8952488
  96.1427558 141.8589614 116.6494627 104.7670334 147.5265663 118.8569709
 104.7560210 148.4090379 118.4863642 103.8987713 147.1737214 118.6624246
  97.9970357 150.5796985 114.7889841  97.0626636 150.6998448 114.6194546
  98.1747026 149.6769452 114.5249851  93.4975545 143.9642681 116.9423102
  93.1273333 143.4113721 117.6304008  93.9934638 143.3600814 116.3898103
 101.3842908 146.4214304 115.3239875 101.8503361 147.2542296 115.2500178
 101.8350409 145.9559286 116.0285134  91.3264744 154.4240176 124.0378120
  92.0274203 155.0576659 124.1907515  90.8559859 154.7654907 123.2773760
  99.4519140 152.7658126 112.3226027  99.7278983 152.6514720 113.2319902
  98.5823638 152.3675610 112.2838201  99.3559571 138.7894891 119.3630777
  98.4422651 139.0199118 119.5312984  99.7852673 138.8733335 120.2144809
  99.1266030 146.9784783 121.8630671  98.4737480 147.2260691 121.2083124
  99.5046410 146.1648921 121.5293148  96.0873204 157.0144476 115.9658841
  96.2695598 156.1966132 116.4286593  96.9106190 157.2312169 115.5283731
  96.4215369 155.9412662 113.2273890  96.9503135 155.4305116 112.6144052
  96.6843589 155.6255192 114.0919423  86.9232462 153.9576531 120.9709223
  87.5085899 153.2120219 121.1037127  86.7257300 154.2680488 121.8545887
  89.7771117 156.9927778 115.9871665  89.1081492 157.4773906 115.5035706
  89.6383987 157.2396999 116.9015044  81.5150117 146.5282131 119.6913666
  81.5534216 145.9945722 120.4850784  81.0090409 146.0017337 119.0724643
  88.8940879 141.3746672 123.1876209  88.9582205 142.2361502 122.7753606
  88.8307999 140.7620673 122.4548567  88.3693151 143.4469804 126.8349243
  88.9965190 143.0646881 127.4486767  87.5121070 143.2284006 127.2004935
  85.1458694 145.2546233 112.7667598  85.4412135 144.3456912 112.7134651
  84.2446730 145.2333973 112.4448600  97.0544773 156.9753497 119.5718006
  96.9295912 156.1743237 119.0628952  97.7123864 157.4699691 119.0831976
  88.6752941 143.3302230 118.7495146  87.9539527 143.9438198 118.6102620
  89.4646197 143.8659995 118.6711792  99.1179681 154.7762517 121.1997556
  98.1710017 154.6567869 121.1275883  99.4662454 153.8885015 121.2823818
  91.4779255 140.6656656 125.0235798  92.0013656 140.9118953 125.7862107
  91.2591588 141.4976691 124.6038935  86.8746536 142.9360331 112.8906923
  86.5459242 142.0557710 112.7082029  87.2285906 142.8808000 113.7783312
  96.1226115 154.5715234 117.4001908  95.9751077 153.6431941 117.5809478
  96.9479608 154.5935324 116.9158984  89.9888359 143.2233301 113.2582400
  90.3284431 143.7519222 112.5361009  90.4360479 143.5613707 114.0340967
  99.7260236 155.3943792 118.4866781 100.6506784 155.1886654 118.3491232
  99.5575540 155.1460194 119.3956123  92.6831800 141.6070351 122.7085469
  92.3428620 140.8078164 123.1106148  91.9770806 141.9072062 122.1362302
  93.3348271 138.6919664 121.1612792  94.1574341 138.2180142 121.0391682
  93.5786335 139.4710148 121.6611478  91.9756506 141.7207922 111.4575693
  92.6964868 142.0989175 110.9539410  91.3521810 142.4396799 111.5610671
  96.1187629 142.4253071 112.3934026  96.3351243 143.3077709 112.0922854
  95.6381696 142.0339285 111.6639668  90.8586850 145.3838784 118.9704770
  90.7131431 145.6979088 119.8629052  90.3812054 146.0023685 118.4175669
  92.7183233 142.3741332 119.0185660  92.7044802 141.4782426 118.6817958
  93.4355661 142.3811996 119.6523946  94.5709364 142.8078673 121.0638787
  94.3127142 143.7295743 121.0623118  94.0394404 142.4109107 121.7539251
  99.5155553 155.9129460 113.8428873  99.6892430 155.3475882 113.0902725
 100.0084444 156.7130355 113.6608362  85.3332512 147.9244129 121.9092431
  84.7885980 148.7003937 122.0412706  86.2111862 148.2714933 121.7511553
  92.1220129 141.2555713 114.2873230  92.2436040 140.3272359 114.4864117
  91.8322171 141.2694399 113.3751545  94.9911319 138.9410623 117.4239950
  95.0133016 139.0049956 116.4691929  95.4079378 138.1015132 117.6180456
 105.3694944 148.6765883 115.4619172 105.8126090 147.9273208 115.0638296
 104.4921454 148.6676019 115.0792904 100.5030725 155.2296224 110.9425771
 101.1981630 155.8502917 111.1613085 100.8453875 154.3791575 111.2178149
  86.1198534 147.0514025 124.8022588  85.3780270 147.1996661 125.3887219
  85.7991279 147.3122291 123.9389338 102.4022148 152.6795930 112.4713102
 102.9273472 153.0183202 111.7462422 102.3144501 151.7442945 112.2876236
  94.0862809 158.7467913 116.8308355  93.6467799 158.2544292 117.5241211
  94.8370926 158.2040881 116.5900430  86.5655148 154.9379454 116.8332983
  87.3913168 154.6383226 116.4531626  86.2149200 154.1687076 117.2822772
  91.5336681 154.2905922 118.9030656  90.9116690 153.6276627 118.6032884
  92.2041548 154.3167054 118.2204304  84.7663753 152.8565780 117.7921916
  83.9295661 152.4287955 117.6105918  84.7387398 153.0498224 118.7292708
  91.6061209 142.7687710 128.4963162  91.6549364 143.6449833 128.1140932
  92.1483723 142.2265103 127.9234806  91.0950188 152.8409845 112.3789117
  91.2438308 153.5245310 111.7255790  91.9016631 152.8214936 112.8938573
  93.8360497 143.5219083 125.2509521  92.9663806 143.8152649 124.9792110
  94.0719977 144.1059528 125.9716785 104.9127808 150.1471121 117.8541620
 105.7474700 150.5860925 118.0179180 105.0486937 149.6709774 117.0349866
 101.9619314 147.7050856 123.8019108 102.4373436 147.8978502 122.9937959
 101.0384880 147.7610042 123.5562491  88.8502821 148.8675023 113.3850186
  88.6048863 147.9637353 113.5830396  89.0198736 148.8692174 112.4429664
  96.5399531 139.7398699 122.7674942  97.0581475 140.4759726 122.4421430
  96.1854664 140.0462693 123.6021701  88.1198469 144.6003381 110.8836347
  87.4267713 144.6747736 110.2276383  87.8750220 143.8363724 111.4057864
  96.7912125 136.1598982 118.2875838  97.0713879 135.4922171 118.9136265
  97.5762732 136.3528078 117.7750502  94.5945594 155.3357976 109.8500864
  94.0219561 155.9548163 109.3971336  95.1678387 155.8857338 110.3840786
 100.6620983 144.5816616 122.0347413 101.6138406 144.6814714 122.0559637
 100.4924434 143.7894885 122.5445498  98.6835363 141.6672199 122.2206814
  98.0885295 141.9477212 121.5253303  98.3985060 142.1566100 122.9923555
  97.8142853 155.6195126 110.9809447  98.7473526 155.5540688 111.1842322
  97.7266066 156.4551393 110.5223979 100.4430870 154.9360996 107.9413394
 100.3644502 154.6020860 108.8349152 101.2640537 155.4282764 107.9404867
 103.1409061 147.8022736 121.1489713 103.1085381 146.8638736 121.3349397
 103.7509685 147.8806772 120.4155538  94.9792392 146.6718789 107.1916917
  95.9251497 146.5424997 107.2605335  94.6006637 145.9333451 107.6686345
 103.2903550 144.5933779 121.1947996 102.7742598 143.8092236 121.0077925
 104.1743498 144.2652496 121.3594516 100.9514277 138.3374795 117.1543809
 100.7539098 138.0289883 118.0387141 101.5613982 139.0636434 117.2841739
 108.9585611 148.8638743 120.2895750 109.6889000 148.6024031 120.8503453
 108.3492557 148.1267464 120.3297818 107.0400908 147.0046605 120.8870201
 106.3134072 146.8702570 120.2786692 106.6248195 147.3123434 121.6926919
  84.0813250 145.9175128 117.5770849  83.7616034 145.0640437 117.2845223
  83.5346678 146.1323707 118.3328816  87.8593157 148.6337569 121.2940355
  88.0779167 149.5654677 121.3128389  88.2718931 148.2745544 122.0795159
  94.7797375 139.1405655 113.2816043  93.9698103 138.7952740 113.6571290
  95.4681792 138.8313198 113.8703655  96.7087923 138.2183702 114.9040340
  97.2618962 138.6379155 115.5630363  96.9458010 137.2919450 114.9463296
  83.9501510 149.5378040 119.5463970  83.2564981 149.1231993 119.0333925
  84.6974501 149.5798576 118.9497389 100.0866730 140.3284227 114.4119004
  99.5065399 140.9869031 114.0297057  99.8202663 139.5061571 114.0006422
  98.5370297 139.7289284 116.6140325  99.0370075 139.8405819 115.8054644
  99.1805905 139.4250337 117.2541133  85.8638252 149.4696294 117.4229985
  85.8408940 149.5683981 116.4711868  86.1738889 150.3161445 117.7447151
  88.5225630 151.5272449 121.5376599  89.4768884 151.4956391 121.4706531
  88.3238154 151.0663072 122.3526825  89.1125012 150.0973565 124.1047397
  89.9317901 150.5917643 124.1282234  89.3861820 149.1805533 124.0764965
  98.8691608 142.4884317 113.4675353  97.9817463 142.7733968 113.2495547
  99.2845597 142.3278080 112.6202629 102.2206144 142.5130838 117.1829692
 102.9966535 143.0027291 117.4554309 101.4954279 142.9388892 117.6401561
 104.6578703 143.2258457 118.2403632 105.2523194 142.9854193 117.5296941
 104.7305287 142.5065588 118.8677169  86.8775859 157.0692068 118.5546797
  86.7430327 156.3092469 117.9884795  86.4607921 157.7932968 118.0875586
  98.0134822 152.2528992 107.5623373  98.7170672 152.4578994 108.1781028
  97.2897471 152.8205754 107.8272456  98.8432632 148.0038853 113.6825643
  98.7867833 148.4607404 112.8433275  99.3960975 147.2429538 113.5048486
 102.6537438 143.7928585 114.5075762 102.3974372 143.3925221 115.3383970
 102.0290306 144.5072379 114.3825901 106.9649776 146.5324658 117.0147054
 106.4049334 146.6017847 117.7878616 106.3593279 146.3565643 116.2946550
  90.0344985 157.9661385 118.7665240  89.9177369 158.9106818 118.6643930
  89.2137431 157.6634947 119.1551039  99.9221519 152.6911521 109.6121833
 100.7567123 152.2592719 109.4299307  99.7605862 152.5193535 110.5398727
  99.5767411 149.1943634 110.9778172  99.5216215 149.0287906 110.0366616
  98.9513467 149.9019667 111.1340362  84.3659926 144.4311699 124.8039594
  85.0118790 143.9210653 125.2926819  84.1577077 145.1680380 125.3783019
  92.8863537 138.6951743 110.5563490  92.8742207 139.6393583 110.7131761
  93.7786959 138.5121889 110.2622952  91.0599499 158.6189647 121.9821168
  91.9626745 158.6513257 122.2987663  90.8336869 157.6890098 121.9967504
  92.8153101 157.3720634 118.6431247  91.8648732 157.3722495 118.5295619
  93.1185587 156.6253368 118.1267282  96.7015656 135.2894520 114.8109427
  95.9348052 134.7353007 114.9566109  97.1126361 135.3616389 115.6723579
  88.7057417 141.5779316 128.9014608  89.5688879 141.2216121 129.1117933
  88.1322828 141.2393211 129.5890013 100.7237502 165.7704181 111.3437024
 101.4968378 165.2233169 111.2049900 101.0762901 166.6348431 111.5551486
 103.0603780 161.9296848 108.9755474 103.3129301 161.4078369 108.2138937
 102.1228339 161.7662993 109.0782158 102.7800069 163.8324954 111.1779849
 102.6636327 163.1569857 111.8460933 102.8902329 163.3457327 110.3612002
 104.7637097 158.3225000 109.8787887 104.9311499 159.1905237 110.2458358
 104.5734266 158.4852282 108.9549176 104.7426317 160.7782658 110.8634554
 104.6225943 161.2239709 111.7020034 104.0478906 161.1267975 110.3048092
 110.4411384 161.2504131 111.6914888 111.3529240 161.4831518 111.5162585
 109.9321031 161.8341175 111.1289966 103.5377814 162.0927510 113.1568119
 104.2401857 162.5448554 113.6242046 103.2058442 161.4511329 113.7848013
  97.2803148 160.3511063 118.4585253  96.4902202 160.6068591 117.9825364
  97.7714395 161.1659400 118.5637294  99.2317893 160.7155642 115.4168730
  98.4349056 160.8274336 115.9352225  99.0043485 161.0542294 114.5509620
  98.2300976 166.4243891 113.8058150  98.7425496 167.2187141 113.9563714
  98.8823689 165.7270181 113.7391751  96.1949893 164.7532545 114.5817720
  97.0325115 165.1629553 114.3651428  96.3728160 163.8131987 114.5517914
 108.0914325 162.4207626 110.2701553 107.5760948 163.1912230 110.5089941
 107.8191633 161.7472762 110.8934615 105.6761436 157.2657326 115.3286792
 104.8203032 156.8764177 115.1492430 106.0888388 157.3449287 114.4686577
 103.4503468 154.8842399 118.7344533 104.3156465 154.6885208 118.3750423
 103.5180977 154.6552751 119.6613890 107.8800628 160.2934718 112.0961334
 107.5750764 160.6080867 112.9471478 108.8331070 160.3716138 112.1388667
 101.0565787 157.1144607 116.1060900 101.6309539 156.8919789 115.3734093
 101.6436770 157.1833302 116.8589501 101.3835375 159.1449068 110.1256785
 100.5472687 159.4823755 110.4466060 101.2440144 159.0098048 109.1883922
 103.3588455 153.9885856 114.8335969 102.7052867 153.6734873 114.2092584
 103.3168929 153.3661597 115.5595792 104.4699660 164.2705151 106.7489261
 103.5626722 164.0394405 106.9480410 104.9670692 163.4742770 106.9363243
 105.6487893 164.3717746 111.2713252 104.7399113 164.0876779 111.3685721
 105.6782977 164.7916825 110.4116558 109.9251708 151.6892574 116.8646856
 110.2310585 150.8289937 116.5772771 110.6504313 152.2810194 116.6645850
  96.2176064 162.0923260 115.2528454  96.0200464 161.4992621 114.5279520
  95.6622728 161.7875470 115.9704393 105.3463981 165.9126490 108.6101330
 104.9083411 165.1962349 108.1506967 106.0874422 166.1402605 108.0486422
 102.1365147 160.6023426 115.1313426 101.3233013 160.9017597 115.5378618
 102.6324142 160.2079115 115.8487908  98.7122290 161.6187294 112.9369406
  97.7819878 161.5571750 113.1539368  98.8079761 161.0963247 112.1406047
  98.6307839 158.1442107 115.5247648  98.8914656 159.0587440 115.4156808
  99.4525011 157.6766549 115.6744260 109.4675209 164.7710871 108.2033388
 108.8504379 164.0457700 108.1066440 108.9991697 165.5320232 107.8600462
 101.2573755 158.9896296 107.3254692 100.3803221 158.8685096 106.9616939
 101.7331508 158.1982374 107.0733581  92.7775895 163.7773455 117.4196199
  93.4646935 163.4635185 116.8317214  92.6224024 164.6814820 117.1463451
 107.7534331 157.1517216 117.2151418 108.2503030 156.3987178 116.8952488
 106.9821312 157.1881532 116.6494627 104.3369300 159.2934598 116.9423102
 103.9667087 158.7405639 117.6304008 104.8328392 158.6892732 116.3898103
  92.3543871 161.8574049 119.6913666  92.3927971 161.3237639 120.4850784
  91.8484164 161.3309254 119.0724643  95.9852449 160.5838151 112.7667598
  96.2805890 159.6748829 112.7134651  95.0840484 160.5625890 112.4448600
  99.5146696 158.6594147 118.7495146  98.7933281 159.2730115 118.6102620
 100.3039951 159.1951912 118.6711792  97.7140290 158.2652249 112.8906923
  97.3852996 157.3849628 112.7082029  98.0679661 158.2099917 113.7783312
 100.8282113 158.5525218 113.2582400 101.1678186 159.0811140 112.5361009
 101.2754234 158.8905625 114.0340967 102.8150260 157.0499840 111.4575693
 103.5358623 157.4281093 110.9539410 102.1915565 157.7688717 111.5610671
 106.9581383 157.7544989 112.3934026 107.1744998 158.6369627 112.0922854
 106.4775451 157.3631202 111.6639668 102.9613884 156.5847630 114.2873230
 103.0829795 155.6564277 114.4864117 102.6715926 156.5986316 113.3751545
 105.8305074 154.2702541 117.4239950 105.8526771 154.3341874 116.4691929
 106.2473133 153.4307050 117.6180456 101.9343943 168.1701763 112.3789117
 102.0832063 168.8537228 111.7255790 102.7410386 168.1506853 112.8938573
  99.6896575 164.1966941 113.3850186  99.4442617 163.2929271 113.5830396
  99.8592490 164.1984091 112.4429664  98.9592223 159.9295298 110.8836347
  98.2661468 160.0039653 110.2276383  98.7143975 159.1655642 111.4057864
 107.6305880 151.4890900 118.2875838 107.9107633 150.8214089 118.9136265
 108.4156486 151.6819995 117.7750502 105.8186147 162.0010706 107.1916917
 106.7645251 161.8716914 107.2605335 105.4400391 161.2625368 107.6686345
 104.0029064 159.9260683 107.1271802 103.0960519 159.6293795 107.2034516
 104.2805045 159.6290501 106.2606088  94.9207004 161.2467046 117.5770849
  94.6009788 160.3932354 117.2845223  94.3740432 161.4615624 118.3328816
 105.6191129 154.4697572 113.2816043 104.8091858 154.1244657 113.6571290
 106.3075546 154.1605116 113.8703655 107.5481678 153.5475619 114.9040340
 108.1012716 153.9671073 115.5630363 107.7851764 152.6211367 114.9463296
 102.7727848 156.7847618 107.2683781 103.6347012 157.1102516 107.5279599
 102.9578192 155.9979114 106.7556847 110.9260485 155.6576144 114.4119004
 110.3459154 156.3160948 114.0297057 110.6596417 154.8353489 114.0006422
 109.3764051 155.0581202 116.6140325 109.8763830 155.1697737 115.8054644
 110.0199659 154.7542255 117.2541133 109.7085363 157.8176235 113.4675353
 108.8211218 158.1025885 113.2495547 110.1239352 157.6569998 112.6202629
 110.4161166 164.5235552 110.9778172 110.3609970 164.3579823 110.0366616
 109.7907221 165.2311585 111.1340362 103.7257291 154.0243661 110.5563490
 103.7135961 154.9685501 110.7131761 104.6180713 153.8413806 110.2622952
 107.5409411 150.6186438 114.8109427 106.7741807 150.0644924 114.9566109
 107.9520116 150.6908306 115.6723579  21.8355760  17.5807953 106.4322316
  22.4734170  17.4614701 105.7285656  21.7176603  18.5288797 106.4910268
  18.6445466  17.5335381 106.3683841  18.3063977  17.4176446 105.4804376
  19.5135234  17.1326546 106.3484847  14.5032282  19.3870858 102.3580732
  13.9397147  19.2960795 101.5897019  14.3884677  18.5670762 102.8383224
  19.1265249  18.6870233 112.3270046  19.1153890  18.2923031 111.4550550
  19.2885888  17.9536306 112.9203818  12.0496714  20.8822049 105.1964952
  12.8418005  20.5412874 104.7811251  12.2893364  20.9917024 106.1167105
  20.0831840  23.0541825  97.6695197  19.4319820  23.6395906  97.2829210
  20.8776203  23.5848020  97.7290234  14.0087467  20.1430963  98.0682331
  14.7818343  19.5959950  97.9295207  14.3612866  21.0075212  98.2796792
  15.8472510  21.4707345 111.2749230  15.5562376  22.3752976 111.1595897
  16.4829494  21.5123873 111.9893300  16.7728717  18.8484193 107.8650590
  17.3692289  18.6240216 107.1507553  16.8303688  18.1068939 108.4676038
  16.3453745  16.3023629  95.7000781  16.5979266  15.7805150  94.9384244
  15.4078304  16.1389774  95.8027464  21.3897028  15.3059407 103.5075524
  22.1760117  14.8878830 103.1565941  21.6535732  16.2105499 103.6757172
  21.5607105  20.7432257  98.2064181  20.9252938  20.8166884  98.9185086
  21.2304512  21.3325856  97.5283260  26.7905455  15.2434640 104.4108503
  27.5230627  14.6733857 104.6446332  26.0344811  14.8556241 104.8515008
  16.0650034  18.2051735  97.9025156  15.9486292  17.5296638  98.5706240
  16.1752294  17.7184109  97.0857309  18.4081575  17.6661882 101.6071845
  18.0439782  17.1392503 102.3184766  19.2648691  17.2760351 101.4338330
  24.3130876   8.9556214 108.8703111  23.9814200   9.8251625 108.6464326
  23.7176489   8.6392498 109.5497142  18.0487062  12.6951781  96.6033194
  18.2161464  13.5632018  96.9703665  17.8584231  12.8579063  95.6794483
  20.8062395  21.1568760 108.2699024  20.5063118  22.0593799 108.1614831
  20.4613455  20.8900944 109.1220177  14.2574877  17.6082557 104.3035728
  13.3325373  17.4758771 104.5113420  14.5059290  18.3876776 104.8005671
  24.2059539  13.6751301 105.9496461  23.2976416  13.6066709 105.6555222
  24.1547135  14.1523246 106.7778287  18.0276283  15.1509439  97.5879860
  17.9075908  15.5966490  98.4265341  17.3328871  15.4994757  97.0293399
  11.6183688  17.2515831 105.1379517  11.7476069  17.5050310 106.0518929
  10.9381139  17.8443539 104.8184172  15.7883175  27.9213081 101.2369992
  15.7107205  28.8720906 101.3158472  15.1844819  27.5758953 101.8944918
  26.0721185  11.8767739 107.7274335  25.4295566  12.1700272 107.0814130
  25.5676114  11.7620659 108.5327532  23.7261349  15.6230912  98.4160194
  24.6379205  15.8558299  98.2407892  23.2170996  16.2067956  97.8535273
  16.5346777  17.9026400 113.4549326  17.2761461  18.4411444 113.1784149
  15.8283762  18.5292688 113.6120877  22.0102117  20.0455540 112.0521487
  22.4185473  19.6037951 111.3076119  21.2879378  19.4708168 112.3055680
  18.3633187  14.9828147 109.4255044  19.2094382  15.4067560 109.5689693
  18.3031824  14.3261771 110.1193607  22.3330931  20.6056731 105.8073776
  21.7039794  20.7702445 105.1049844  21.9456593  21.0198340 106.5784740
  26.2120163  21.5411168 103.1618140  25.5271201  21.9210070 102.6115173
  26.2964012  22.1506495 103.8950087  21.5132632  12.6432515 111.0836218
  21.2693564  13.3974576 110.5470493  21.7892563  13.0217863 111.9183465
  23.4671095  19.1871128 109.7613483  23.6787990  19.8302887 109.0847864
  23.4200843  18.3533444 109.2935413  21.0697324  11.7988948 106.6650055
  20.2081803  12.0970202 106.9566793  21.0959758  12.0159347 105.7331088
  17.8858893  20.3431139 103.0723861  18.3497239  20.6218842 102.2828483
  17.6215691  19.4414583 102.8896952  14.7782974  19.8902620 106.0103624
  15.3484331  20.3189889 105.3721109  15.3691086  19.6085205 106.7087810
  16.8227779  16.4654291  99.8813426  17.5251823  16.9175335 100.3487352
  16.4908408  15.8238110 100.5093319  24.5816923  22.0643083 107.9335841
  25.4034366  21.6623270 107.6518522  24.5779326  21.9611317 108.8851956
  18.3473526  21.6127126 110.0896551  18.4117959  22.0747533 110.9254723
  17.6384450  20.9824491 110.2178861  32.6722916  18.4081831 104.2820812
  31.9186624  17.8389229 104.1264816  32.8070457  18.3744496 105.2291447
  18.0621544  23.2795234  99.9575531  17.9267219  24.1246769 100.3860379
  18.6031356  23.4814511  99.1941465  11.5150941  20.7970672 100.5303456
  12.0275462  21.5913922 100.6809021  12.1673654  20.0996962 100.4637058
  13.3245826  23.9136428 102.6126210  13.5012454  24.8354393 102.4247193
  14.1202659  23.5994847 103.0420589  19.6890020  23.9018800 114.0875873
  19.2453874  23.1155179 113.7696778  20.3507234  24.0897951 113.4219764
  14.4477141  25.4314602 108.6136552  14.9984567  25.3031665 107.8413546
  13.6088617  25.7309491 108.2631445  21.7871258  24.1821600 112.1157275
  21.7689734  25.0030481 111.6237544  22.7091178  24.0575675 112.3407416
  18.2444312  21.6965730 112.9580783  18.7772649  20.9354018 112.7280091
  17.7158394  21.4039381 113.7004938   9.4799858  19.1259326 101.3063027
  10.3175080  19.5356334 101.0896735   9.6578126  18.1858768 101.2763221
  21.3764290  16.7934407  96.9946860  20.8610914  17.5639011  97.2335247
  21.1041599  16.1199543  97.6179921  18.9611401  11.6384107 102.0532098
  18.1052997  11.2490958 101.8737737  19.3738353  11.7176068 101.1931884
  26.3498564  19.5466761  98.9300033  25.5728007  19.2077921  98.4855195
  27.0290045  19.5519385  98.2554998  21.1650593  14.6661499  98.8206641
  20.8600729  14.9807648  99.6716784  22.1181035  14.7442919  98.8633974
  19.6097025  20.8251722 100.4699595  19.0818387  20.0904482 100.1572833
  19.1084528  21.6026398 100.2239563  24.5889871  19.0200743 105.5866641
  23.9313546  19.7100004 105.6746770  25.3930270  19.4097175 105.9300628
  23.3995330  17.3745115 103.6370583  23.9127212  18.0075107 104.1392293
  24.0496554  16.7746311 103.2713943  17.7549625  18.6431932  93.4734568
  16.8476687  18.4121186  93.6725717  18.2520657  17.8469552  93.6608550
  20.6617704  27.3529440  96.3931254  19.9879403  27.6561136  97.0016212
  21.0483526  28.1558520  96.0436711  19.8776161  14.8494571 105.8828924
  18.9598722  15.0709518 105.7250612  20.2936304  14.9240881 105.0240631
  20.6611209  16.2485987 101.0131604  21.4083028  16.7607384 100.7038726
  20.9302798  15.9270039 101.8735997  18.9337859  18.7444527  97.9958558
  18.0249078  18.4603560  98.0931028  18.9632943  19.1643606  97.1361865
  24.1657126  22.3551117 101.7649726  23.7119453  21.5142027 101.8214916
  23.5351093  22.9912515 102.1024506  23.1090046  13.2843103 102.9950393
  22.3712803  12.7720489 103.3260636  23.3616819  12.8443484 102.1833670
  22.6090065  24.1927613 102.6999544  22.9013040  24.7532671 101.9811910
  23.1188686  24.4856174 103.4552703  17.4822753  16.3573148 104.0968354
  17.5371363  15.4046984 104.0210830  16.6713955  16.5132587 104.5809652
  18.6313947  20.2853271  95.3346637  18.1933376  19.5689130  94.8752274
  19.3724387  20.5129386  94.7731728  15.4215113  14.9750208 101.8558732
  14.6082978  15.2744378 102.2623925  15.9174107  14.5805896 102.5733215
  17.5723691  24.9707965 103.7892997  17.5299869  25.1968811 102.8601529
  18.4886389  24.7371339 103.9378798  21.0189324  15.4392032 110.6873626
  21.3738712  15.6663505 111.5468092  21.6661456  15.7710409 110.0650882
  26.7487061  18.5610468 101.3922955  26.6104960  18.7512064 100.4644145
  26.3923280  19.3229851 101.8491006  26.7756441  20.6286995 106.4034227
  27.2092948  20.5362284 107.2517281  27.4888022  20.6044495 105.7654243
  15.6889491  21.8470994 103.5854960  16.4830090  21.3521314 103.3837535
  14.9781184  21.3188857 103.2222665  20.5084336  24.2289089 107.9367327
  20.5621358  24.7980025 108.7045043  19.6399117  24.3990974 107.5721365
  27.6371991  20.6710696 108.9367112  27.8307881  21.5756506 109.1826387
  27.5372609  20.2118115 109.7705697  22.6987099  20.8217438 114.5107993
  22.5472606  20.5927990 113.5938077  22.6891779  21.7788040 114.5239338
  19.4672436  18.3949351 109.4954259  20.3964496  18.5460511 109.3223227
  19.0463466  18.4833372 108.6402906  18.2660767  22.4200016 107.2652797
  18.1271853  22.0518800 108.1378735  17.4775364  22.9347655 107.0936755
  18.8608919  27.5209112  98.6078333  19.0360675  27.0497155  99.4223956
  18.1741707  28.1474878  98.8359594  19.8165983  21.7981618 104.6541635
  19.4815815  21.7582388 105.5499285  19.3169928  21.1326334 104.1812045
  13.7910226  17.2049248 110.1794216  13.6530024  16.4729487 110.7805755
  14.7015150  17.1158148 109.8978404  22.7525174  19.1437653  94.9278694
  22.1354345  18.4184481  94.8311747  22.2841663  19.9047013  94.5845769
  16.4192527  16.9169208 109.6677896  17.1292146  16.2762400 109.6264514
  16.3761835  17.1682102 110.5904076  24.4079306  23.8536561 112.5884475
  24.3491852  23.1695781 111.9215058  24.8098824  24.5955551 112.1365101
  13.4270005  30.6698475 105.3818194  13.6666603  31.3016999 106.0597212
  12.5839201  30.3186515 105.6683553  24.4096713  21.8176145 110.8198454
  23.5223492  21.4802067 110.9424853  24.9795264  21.0859176 111.0567220
  17.9397867  26.4777597 107.7859698  17.8668038  27.2832569 108.2979002
  17.4975260  26.6769563 106.9607719  17.7287646  25.7149367 101.2962519
  16.9455168  26.2571047 101.3900744  18.4280391  26.2323347 101.6956760
  21.0384296  11.5243997 103.9396725  21.5352996  10.7713959 103.6197795
  20.2671278  11.5608313 103.3739934  28.8914054  17.2284362 105.5815016
  28.8803930  18.1109078 105.2108949  28.0231433  16.8755913 105.3869553
  20.3996550  26.3764431 109.9417856  21.1124522  27.0111896 109.8693758
  19.9086579  26.4728297 109.1257858  22.1214077  20.2815684 101.5135148
  21.1870356  20.4017146 101.3439852  22.2990745  19.3788151 101.2495158
  17.6219265  13.6661380 103.6668409  17.2517053  13.1132420 104.3549315
  18.1178357  13.0619513 103.1143409  25.5086628  16.1233003 102.0485182
  25.9747080  16.9560995 101.9745485  25.9594129  15.6577985 102.7530441
  15.4508464  24.1258875 110.7623427  16.1517923  24.7595358 110.9152821
  14.9803579  24.4673606 110.0019066  23.5762859  22.4676824  99.0471334
  23.8522703  22.3533419  99.9565208  22.7067358  22.0694309  99.0083507
  23.4803291   8.4913590 106.0876083  22.5666371   8.7217817 106.2558290
  23.9096392   8.5752034 106.9390116  23.2509750  16.6803482 108.5875977
  22.5981200  16.9279390 107.9328430  23.6290129  15.8667620 108.2538455
  20.2116923  26.7163175 102.6904148  20.3939318  25.8984831 103.1531900
  21.0349909  26.9330868 102.2529038  20.5459089  25.6431360  99.9519196
  21.0746855  25.1323815  99.3389358  20.8087308  25.3273891 100.8164729
  11.0476182  23.6595230 107.6954530  11.6329618  22.9138918 107.8282434
  10.8501020  23.9699186 108.5791194  13.9014837  26.6946477 102.7116972
  13.2325212  27.1792605 102.2281012  13.7627707  26.9415698 103.6260351
  18.0420105  28.7290221 109.3099631  18.5938413  28.8921842 110.0748716
  18.3826299  29.3194658 108.6379655  22.8930980  23.5551478 115.1648285
  23.4370884  24.1681436 114.6703240  22.3117825  24.1131057 115.6815298
  21.1788493  26.6772196 106.2963313  21.0539632  25.8761936 105.7874258
  21.8367584  27.1718390 105.8077283  23.2423401  24.4781216 107.9242863
  22.2953737  24.3586567 107.8521189  23.5906174  23.5903714 108.0069124
  20.2469834  24.2733932 104.1247215  20.0994797  23.3450640 104.3054785
  21.0723328  24.2954023 103.6404290  23.8503956  25.0962491 105.2112088
  24.7750504  24.8905353 105.0736539  23.6819260  24.8478892 106.1201429
  20.2431349  12.1271770  99.1179332  20.4594963  13.0096408  98.8168160
  19.7625416  11.7357984  98.3884974  14.9830570  15.0857483 105.6950077
  14.8375151  15.3997786 106.5874358  14.5055774  15.7042384 105.1420975
  18.6953084  12.5097372 107.7884094  18.4370862  13.4314442 107.7868424
  18.1638124  12.1127806 108.4784558  23.6399272  25.6148159 100.5674179
  23.8136150  25.0494581  99.8148032  24.1328164  26.4149054 100.3853669
   9.4576232  17.6262828 108.6337738   8.9129700  18.4022636 108.7658012
  10.3355582  17.9733632 108.4756859  29.4938664  18.3784582 102.1864479
  29.9369810  17.6291907 101.7883602  28.6165174  18.3694718 101.8038211
  24.6274445  24.9314923  97.6671077  25.3225350  25.5521616  97.8858392
  24.9697595  24.0810274  97.9423455  26.5265868  22.3814629  99.1958408
  27.0517192  22.7201901  98.4707728  26.4388221  21.4461644  99.0121543
  18.1885917  26.2948702 111.3248285  18.4973043  26.0497849 112.1970984
  18.9861399  26.4995341 110.8367155  18.2106529  28.4486612 103.5553661
  17.7711519  27.9562991 104.2486518  18.9614646  27.9059580 103.3145737
  10.6898868  24.6398153 103.5578289  11.5156888  24.3401925 103.1776933
  10.3392920  23.8705775 104.0068078  15.6580401  23.9924621 105.6275963
  15.0360410  23.3295326 105.3278191  16.3285268  24.0185753 104.9449611
   8.8907473  22.5584479 104.5167223   8.0539381  22.1306654 104.3351224
   8.8631118  22.7516923 105.4538014  26.2159774  23.0147532 114.5009606
  25.4255318  22.9971671 113.9614106  25.9793129  23.5535826 115.2558643
  26.3357649  19.8639999 111.8142335  26.3855654  19.6990006 112.7557858
  26.2271573  18.9967258 111.4240216  15.2193908  22.5428544  99.1034424
  15.3682028  23.2264009  98.4501096  16.0260351  22.5233634  99.6183879
  23.6261412  15.8470927 113.1301641  24.5271274  15.7077391 112.8385639
  23.7009386  16.0125381 114.0699819  27.8375846  22.2836940 112.0584356
  27.5460654  22.6466921 112.8947817  27.2247977  21.5703948 111.8797688
  29.0371528  19.8489820 104.5786926  29.8718420  20.2879624 104.7424487
  29.1730657  19.3728473 103.7595172  26.0863034  17.4069555 110.5264414
  26.5617156  17.5997201 109.7183266  25.1628600  17.4628741 110.2807798
  12.9746541  18.5693722 100.1095493  12.7292583  17.6656052 100.3075703
  13.1442455  18.5710872  99.1674971  20.6643251   9.4417398 109.4920248
  21.1825195  10.1778425 109.1666737  20.3098383   9.7481392 110.3267007
  18.7189313  25.0376675  96.5746171  18.1463280  25.6566862  96.1216643
  19.2922107  25.5876036  97.1086093  24.7864703  14.2835315 108.7592720
  25.7382126  14.3833413 108.7804944  24.6168154  13.4913583 109.2690804
  22.8079083  11.3690898 108.9452121  22.2129015  11.6495911 108.2498609
  22.5228779  11.8584799 109.7168862  21.9386573  25.3213825  97.7054753
  22.8717246  25.2559387  97.9087629  21.8509786  26.1570092  97.2469286
  24.5674590  24.6379695  94.6658701  24.4888221  24.3039559  95.5594459
  25.3884257  25.1301463  94.6650173  27.2652781  17.5041435 107.8735020
  27.2329101  16.5657435 108.0594703  27.8753405  17.5825471 107.1400844
  19.1036112  16.3737488  93.9162224  20.0495217  16.2443696  93.9850642
  18.7250357  15.6352149  94.3931652  27.4147270  14.2952478 107.9193303
  26.8986318  13.5110935 107.7323232  28.2987218  13.9671195 108.0839822
  25.0757996   8.0393494 103.8789115  24.8782818   7.7308582 104.7632447
  25.6857702   8.7655132 104.0087045  33.0829331  18.5657441 107.0141056
  33.8132719  18.3042730 107.5748760  32.4736276  17.8286163 107.0543124
  31.1644628  16.7065304 107.6115508  30.4377792  16.5721269 107.0031999
  30.7491915  17.0142133 108.4172226  18.9874804  20.4255234 115.3762881
  19.9077814  20.6033833 115.5702927  18.9524387  19.4811279 115.2242580
  17.2879029  14.2987464  93.8517109  16.3810484  14.0020577  93.9279822
  17.5655010  14.0017282  92.9851395  11.9836877  18.3356268 108.0185662
  12.2022887  19.2673376 108.0373696  12.3962651  17.9764243 108.8040466
   8.0745229  19.2396739 106.2709277   7.3808701  18.8250692 105.7579231
   8.8218220  19.2817275 105.6742696  24.2110450  10.0302926 101.1364311
  23.6309119  10.6887730 100.7542363  23.9446383   9.2080270 100.7251728
  22.6614016   9.4307983 103.3385631  23.1613795   9.5424518 102.5299950
  23.3049624   9.1269036 103.9786440   9.9881972  19.1714993 104.1475292
   9.9652660  19.2702680 103.1957175  10.2982608  20.0180143 104.4692458
  12.6469350  21.2291148 108.2621906  13.6012603  21.1975090 108.1951838
  12.4481873  20.7681771 109.0772132  13.2368732  19.7992264 110.8292704
  14.0561621  20.2936342 110.8527541  13.5105540  18.8824232 110.8010271
  22.9935328  12.1903016 100.1920659  22.1061183  12.4752667  99.9740854
  23.4089317  12.0296779  99.3447936  26.3449864  12.2149537 103.9074998
  27.1210254  12.7045989 104.1799615  25.6197998  12.6407591 104.3646868
  28.7822423  12.9277156 104.9648939  29.3766914  12.6872892 104.2542247
  28.8549007  12.2084287 105.5922475  11.0019579  26.7710767 105.2792104
  10.8674047  26.0111168 104.7130102  10.5851641  27.4951667 104.8120893
  22.1378542  21.9547691  94.2868679  22.8414392  22.1597693  94.9026335
  21.4141190  22.5224453  94.5517763  22.9676352  17.7057552 100.4070949
  22.9111553  18.1626103  99.5678582  23.5204694  16.9448236 100.2293792
  26.7781158  13.4947284 101.2321069  26.5218092  13.0943919 102.0629277
  26.1534026  14.2091078 101.1071208  31.0893496  16.2343357 103.7392360
  30.5293054  16.3036546 104.5123922  30.4836999  16.0584342 103.0191857
  14.1588704  27.6680084 105.4910547  14.0421089  28.6125517 105.3889237
  13.3381151  27.3653646 105.8796346  24.0465239  22.3930220  96.3367139
  24.8810843  21.9611418  96.1544614  23.8849582  22.2212234  97.2644034
  23.7011131  18.8962333  97.7023479  23.6459935  18.7306605  96.7611923
  23.0757186  19.6038366  97.8585668  21.0157038  21.2011245 117.0277041
  21.8848198  21.3751897 116.6663676  20.5363790  22.0205662 116.9052771
  15.1843219  28.3208346 108.7066475  16.0870465  28.3531956 109.0232970
  14.9580589  27.3908797 108.7212811  16.9396821  27.0739333 105.3676554
  15.9892452  27.0741194 105.2540926  17.2429307  26.3272067 104.8512588
  32.6749514  32.9099871 106.4322316  33.3127924  32.7906618 105.7285656
  32.5570357  33.8580715 106.4910268  29.4839220  32.8627299 106.3683841
  29.1457732  32.7468364 105.4804376  30.3528989  32.4618464 106.3484847
  25.3426036  34.7162775 102.3580732  24.7790901  34.6252712 101.5897019
  25.2278431  33.8962680 102.8383224  29.9659003  34.0162151 112.3270046
  29.9547644  33.6214949 111.4550550  30.1279643  33.2828223 112.9203818
  22.8890468  36.2113967 105.1964952  23.6811760  35.8704792 104.7811251
  23.1287118  36.3208942 106.1167105  30.9225595  38.3833743  97.6695197
  30.2713575  38.9687824  97.2829210  31.7169958  38.9139938  97.7290234
  24.8481222  35.4722880  98.0682331  25.6212098  34.9251867  97.9295207
  25.2006621  36.3367130  98.2796792  26.6866265  36.7999263 111.2749230
  26.3956131  37.7044893 111.1595897  27.3223249  36.8415790 111.9893300
  27.6122471  34.1776111 107.8650590  28.2086044  33.9532133 107.1507553
  27.6697443  33.4360857 108.4676038  27.1847500  31.6315546  95.7000781
  27.4373020  31.1097068  94.9384244  26.2472059  31.4681692  95.8027464
  32.2290783  30.6351325 103.5075524  33.0153872  30.2170748 103.1565941
  32.4929487  31.5397417 103.6757172  32.4000860  36.0724175  98.2064181
  31.7646693  36.1458802  98.9185086  32.0698266  36.6617774  97.5283260
  37.6299210  30.5726558 104.4108503  38.3624382  30.0025775 104.6446332
  36.8738565  30.1848158 104.8515008  26.9043789  33.5343652  97.9025156
  26.7880047  32.8588556  98.5706240  27.0146048  33.0476026  97.0857309
  29.2475329  32.9953799 101.6071845  28.8833537  32.4684420 102.3184766
  30.1042445  32.6052269 101.4338330  35.1524630  24.2848132 108.8703111
  34.8207955  25.1543543 108.6464326  34.5570243  23.9684416 109.5497142
  28.8880816  28.0243699  96.6033194  29.0555219  28.8923936  96.9703665
  28.6977986  28.1870981  95.6794483  31.6456150  36.4860678 108.2699024
  31.3456873  37.3885717 108.1614831  31.3007209  36.2192861 109.1220177
  25.0968631  32.9374475 104.3035728  24.1719128  32.8050689 104.5113420
  25.3453044  33.7168694 104.8005671  35.0453293  29.0043218 105.9496461
  34.1370171  28.9358627 105.6555222  34.9940889  29.4815163 106.7778287
  28.8670037  30.4801357  97.5879860  28.7469663  30.9258407  98.4265341
  28.1722626  30.8286674  97.0293399  22.4577442  32.5807748 105.1379517
  22.5869823  32.8342227 106.0518929  21.7774893  33.1735456 104.8184172
  26.6276929  43.2504998 101.2369992  26.5500959  44.2012824 101.3158472
  26.0238573  42.9050871 101.8944918  29.1194159  30.4232864 113.8931359
  28.3427493  30.9826784 113.8834223  29.7584722  30.9089647 114.4146229
  36.9114940  27.2059657 107.7274335  36.2689320  27.4992190 107.0814130
  36.4069868  27.0912577 108.5327532  34.5655103  30.9522830  98.4160194
  35.4772960  31.1850217  98.2407892  34.0564751  31.5359874  97.8535273
  27.3740531  33.2318317 113.4549326  28.1155216  33.7703361 113.1784149
  26.6677517  33.8584606 113.6120877  32.8495871  35.3747458 112.0521487
  33.2579227  34.9329868 111.3076119  32.1273133  34.8000085 112.3055680
  29.2026941  30.3120064 109.4255044  30.0488136  30.7359478 109.5689693
  29.1425579  29.6553689 110.1193607  33.1724686  35.9348648 105.8073776
  32.5433548  36.0994362 105.1049844  32.7850348  36.3490258 106.5784740
  37.0513918  36.8703086 103.1618140  36.3664956  37.2501988 102.6115173
  37.1357767  37.4798413 103.8950087  32.3526387  27.9724433 111.0836218
  32.1087318  28.7266493 110.5470493  32.6286317  28.3509780 111.9183465
  34.3064849  34.5163045 109.7613483  34.5181745  35.1594805 109.0847864
  34.2594598  33.6825362 109.2935413  31.9091078  27.1280866 106.6650055
  31.0475557  27.4262119 106.9566793  31.9353513  27.3451265 105.7331088
  28.7252648  35.6723056 103.0723861  29.1890993  35.9510759 102.2828483
  28.4609446  34.7706501 102.8896952  25.6176729  35.2194538 106.0103624
  26.1878086  35.6481806 105.3721109  26.2084841  34.9377123 106.7087810
  27.6621534  31.7946209  99.8813426  28.3645577  32.2467252 100.3487352
  27.3302162  31.1530028 100.5093319  26.1101895  30.3857965 114.2564636
  25.4800556  31.0674246 114.4900032  26.0037983  30.2741047 113.3117774
  21.4046868  30.0529761 105.1830560  20.6145922  30.3087290 104.7070670
  21.8958115  30.8678099 105.2882600  35.4210677  37.3935001 107.9335841
  36.2428121  36.9915188 107.6518522  35.4173080  37.2903235 108.8851956
  23.3561613  30.4174341 102.1414036  22.5592776  30.5293035 102.6597532
  23.1287205  30.7560993 101.2754927  29.1867281  36.9419044 110.0896551
  29.2511713  37.4039451 110.9254723  28.4778205  36.3116409 110.2178861
  19.6884571  30.3060252 107.6145550  19.9392609  31.1907262 107.8803126
  20.2244119  30.1264853 106.8420642  43.5116670  33.7373749 104.2820812
  42.7580379  33.1681147 104.1264816  43.6464211  33.7036414 105.2291447
  28.9015298  38.6087151  99.9575531  28.7660973  39.4538687 100.3860379
  29.4425111  38.8106429  99.1941465  25.3882638  24.6878731 116.6189887
  24.9949584  24.1344930 117.2937531  26.2048778  24.9989310 117.0096404
  22.3544696  36.1262589 100.5303456  22.8669216  36.9205840 100.6809021
  23.0067409  35.4288880 100.4637058  24.1639580  39.2428346 102.6126210
  24.3406209  40.1646310 102.4247193  24.9596414  38.9286765 103.0420589
  28.3050599  26.1036610 114.2110143  29.0460312  26.7043763 114.1314606
  28.5368522  25.3614248 113.6528186  23.4491937  31.2892978 112.4888373
  23.3345452  30.3878235 112.7895472  22.5936455  31.5356674 112.1373189
  30.5283775  39.2310718 114.0875873  30.0847629  38.4447096 113.7696778
  31.1900988  39.4189868 113.4219764  25.2870896  40.7606519 108.6136552
  25.8378321  40.6323583 107.8413546  24.4482372  41.0601409 108.2631445
  32.6265013  39.5113518 112.1157275  32.6083488  40.3322399 111.6237544
  33.5484933  39.3867593 112.3407416  29.0838067  37.0257647 112.9580783
  29.6166404  36.2645935 112.7280091  28.5552148  36.7331299 113.7004938
  32.2507762  22.1317713 108.4874425  31.9072031  23.0219355 108.4113535
  32.6186724  21.9419371 107.6244010  20.3193612  34.4551244 101.3063027
  21.1568835  34.8648252 101.0896735  20.4971880  33.5150686 101.2763221
  32.2158045  32.1226324  96.9946860  31.7004668  32.8930929  97.2335247
  31.9435353  31.4491461  97.6179921  29.8005156  26.9676025 102.0532098
  28.9446752  26.5782876 101.8737737  30.2132107  27.0467986 101.1931884
  31.3304302  24.5022368 106.4523658  30.8269098  24.4652504 105.6391463
  31.6234909  25.4115111 106.5120315  27.5747188  24.5861098 105.4589840
  28.4400185  24.3903907 105.0995729  27.6424697  24.3571450 106.3859197
  37.1892319  34.8758679  98.9300033  36.4121762  34.5369839  98.4855195
  37.8683800  34.8811302  98.2554998  32.0044348  29.9953416  98.8206641
  31.6994483  30.3099566  99.6716784  32.9574790  30.0734836  98.8633974
  30.4490780  36.1543640 100.4699595  29.9212141  35.4196399 100.1572833
  29.9478282  36.9318316 100.2239563  35.4283626  34.3492660 105.5866641
  34.7707300  35.0391922 105.6746770  36.2324025  34.7389092 105.9300628
  25.1809507  26.8163306 102.8306207  25.7553259  26.5938488 102.0979400
  25.7680490  26.8852001 103.5834808  34.2389084  32.7037033 103.6370583
  34.7520966  33.3367025 104.1392293  34.8890308  32.1038228 103.2713943
  25.5079094  28.8467767  96.8502092  24.6716407  29.1842454  97.1711367
  25.3683864  28.7116747  95.9129229  27.4832175  23.6904555 101.5581276
  26.8296587  23.3753572 100.9337891  27.4412649  23.0680295 102.2841099
  28.5943380  33.9723850  93.4734568  27.6870442  33.7413104  93.6725717
  29.0914412  33.1761469  93.6608550  31.5011459  42.6821357  96.3931254
  30.8273157  42.9853054  97.0016212  31.8877281  43.4850438  96.0436711
  30.7169915  30.1786489 105.8828924  29.7992477  30.4001436 105.7250612
  31.1330059  30.2532799 105.0240631  31.5004963  31.5777904 101.0131604
  32.2476782  32.0899301 100.7038726  31.7696553  31.2561957 101.8735997
  29.7731613  34.0736445  97.9958558  28.8642833  33.7895478  98.0931028
  29.8026697  34.4935523  97.1361865  35.0050881  37.6843034 101.7649726
  34.5513208  36.8433944 101.8214916  34.3744847  38.3204433 102.1024506
  33.9483800  28.6135020 102.9950393  33.2106557  28.1012407 103.3260636
  34.2010574  28.1735402 102.1833670  33.4483820  39.5219531 102.6999544
  33.7406794  40.0824588 101.9811910  33.9582440  39.8148092 103.4552703
  34.0495428  21.3911272 103.5892162  34.3554304  20.5308636 103.3018078
  34.7748032  21.9828893 103.3891156  20.3419784  31.7941959 101.9773760
  20.1444183  31.2011320 101.2524827  19.7866448  31.4894169 102.6949699
  28.3216507  31.6865066 104.0968354  28.3765117  30.7338902 104.0210830
  27.5107709  31.8424505 104.5809652  29.4707701  35.6145189  95.3346637
  29.0327131  34.8981048  94.8752274  30.2118142  35.8421303  94.7731728
  26.2608867  30.3042125 101.8558732  25.4476733  30.6036296 102.2623925
  26.7567861  29.9097814 102.5733215  28.4117445  40.2999882 103.7892997
  28.3693624  40.5260729 102.8601529  29.3280144  40.0663257 103.9378798
  31.8583079  30.7683950 110.6873626  32.2132467  30.9955423 111.5468092
  32.5055210  31.1002327 110.0650882  37.5880816  33.8902386 101.3922955
  37.4498714  34.0803982 100.4644145  37.2317035  34.6521768 101.8491006
  25.7522942  27.8760481 107.4719967  26.3922321  27.7349240 106.7742931
  24.9200473  27.5894994 107.0958569  37.6150195  35.9578913 106.4034227
  38.0486702  35.8654202 107.2517281  38.3281776  35.9336413 105.7654243
  26.5283246  37.1762911 103.5854960  27.3223844  36.6813231 103.3837535
  25.8174938  36.6480774 103.2222665  31.3478090  39.5581007 107.9367327
  31.4015113  40.1271943 108.7045043  30.4792872  39.7282892 107.5721365
  22.8366009  31.3205993  99.6614713  21.9063597  31.2590448  99.8784675
  22.9323481  30.7981946  98.8651354  22.7551558  27.8460806 102.2492954
  23.0158376  28.7606139 102.1402115  23.5768731  27.3785248 102.3989567
  24.2276484  29.2598563 109.4191779  24.8999537  29.0515925 108.7704428
  23.4006270  29.0620649 108.9797011  38.4765745  36.0002613 108.9367112
  38.6701635  36.9048424 109.1826387  38.3766363  35.5410032 109.7705697
  30.1302056  25.8860504 111.4357440  29.4829971  26.5850454 111.3421916
  30.9003071  26.3196648 111.8033688  33.5380854  36.1509356 114.5107993
  33.3866360  35.9219908 113.5938077  33.5285533  37.1079957 114.5239338
  30.3066190  33.7241269 109.4954259  31.2358250  33.8752428 109.3223227
  29.8857220  33.8125290 108.6402906  29.1054522  37.7491933 107.2652797
  28.9665608  37.3810718 108.1378735  28.3169118  38.2639573 107.0936755
  29.7002674  42.8501030  98.6078333  29.8754430  42.3789073  99.4223956
  29.0135462  43.4766796  98.8359594  30.6559737  37.1273536 104.6541635
  30.3209570  37.0874306 105.5499285  30.1563683  36.4618252 104.1812045
  24.6303981  32.5341166 110.1794216  24.4923779  31.8021405 110.7805755
  25.5408904  32.4450066 109.8978404  27.2586282  32.2461125 109.6677896
  27.9685900  31.6054317 109.6264514  27.2155590  32.4974020 110.5904076
  35.2473060  39.1828479 112.5884475  35.1885606  38.4987699 111.9215058
  35.6492579  39.9247469 112.1365101  25.9715216  29.2326343 111.4873535
  25.4352573  28.7817082 112.1395131  25.3831924  29.3672252 110.7443999
  24.2663759  45.9990392 105.3818194  24.5060357  46.6308917 106.0597212
  23.4232956  45.6478432 105.6683553  25.3817475  28.6914995  94.0499999
  24.5046941  28.5703795  93.6862245  25.8575228  27.9001073  93.7978887
  35.2490468  37.1468063 110.8198454  34.3617246  36.8093984 110.9424853
  35.8189019  36.4151094 111.0567220  16.9019615  33.4792154 104.1441506
  17.5890655  33.1653884 103.5562521  16.7467743  34.3833519 103.8708757
  21.7054337  28.3682351 108.5726529  21.6212526  27.7608020 107.8376939
  20.8837043  28.8591369 108.5736026  28.7791621  41.8069515 107.7859698
  28.7061792  42.6124486 108.2979002  28.3369014  42.0061481 106.9607719
  28.5681401  41.0441285 101.2962519  27.7848923  41.5862965 101.3900744
  29.2674146  41.5615265 101.6956760  31.8778051  26.8535914 103.9396725
  32.3746750  26.1005877 103.6197795  31.1065032  26.8900231 103.3739934
  39.7307808  32.5576280 105.5815016  39.7197684  33.4400995 105.2108949
  38.8625188  32.2047831 105.3869553  31.2390305  41.7056349 109.9417856
  31.9518277  42.3403814 109.8693758  30.7480333  41.8020215 109.1257858
  32.9607831  35.6107602 101.5135148  32.0264110  35.7309064 101.3439852
  33.1384500  34.7080068 101.2495158  28.4613019  28.9953297 103.6668409
  28.0910807  28.4424338 104.3549315  28.9572112  28.3911431 103.1143409
  36.3480383  31.4524921 102.0485182  36.8140835  32.2852912 101.9745485
  36.7987883  30.9869902 102.7530441  26.2902218  39.4550792 110.7623427
  26.9911678  40.0887275 110.9152821  25.8197333  39.7965524 110.0019066
  34.4156614  37.7968742  99.0471334  34.6916458  37.6825337  99.9565208
  33.5461113  37.3986227  99.0083507  34.3197046  23.8205508 106.0876083
  33.4060125  24.0509735 106.2558290  34.7490147  23.9043952 106.9390116
  34.0903504  32.0095400 108.5875977  33.4374954  32.2571307 107.9328430
  34.4683884  31.1959538 108.2538455  31.0510678  42.0455093 102.6904148
  31.2333072  41.2276749 103.1531900  31.8743664  42.2622785 102.2529038
  31.3852843  40.9723278  99.9519196  31.9140610  40.4615733  99.3389358
  31.6481063  40.6565808 100.8164729  30.1391077  32.7515211 115.0742015
  29.4631714  32.6509340 115.7444390  30.9618711  32.5954425 115.5378012
  21.8869936  38.9887147 107.6954530  22.4723373  38.2430835 107.8282434
  21.6894775  39.2991104 108.5791194  24.7408591  42.0238395 102.7116972
  24.0718967  42.5084522 102.2281012  24.6021461  42.2707615 103.6260351
  16.4787591  31.5592748 106.4158973  16.5171690  31.0256338 107.2096091
  15.9727884  31.0327953 105.7969950  28.8813860  44.0582138 109.3099631
  29.4332168  44.2213760 110.0748716  29.2220053  44.6486576 108.6379655
  23.8578353  26.4057288 109.9121515  23.9219680  27.2672119 109.4998913
  23.7945473  25.7931290 109.1793874  23.3330626  28.4780421 113.5594549
  23.9602664  28.0957498 114.1732074  22.4758545  28.2594623 113.9250242
  33.7324734  38.8843396 115.1648285  34.2764638  39.4973354 114.6703240
  33.1511579  39.4422974 115.6815298  20.1096168  30.2856850  99.4912904
  20.4049610  29.3767528  99.4379958  19.2084204  30.2644589  99.1693907
  32.0182247  42.0064114 106.2963313  31.8933387  41.2053854 105.7874258
  32.6761338  42.5010307 105.8077283  23.6390415  28.3612846 105.4740453
  22.9177001  28.9748814 105.3347926  24.4283671  28.8970611 105.3957099
  34.0817156  39.8073134 107.9242863  33.1347491  39.6878485 107.8521189
  34.4299929  38.9195632 108.0069124  26.4416729  25.6967273 111.7481105
  26.9651131  25.9429569 112.5107414  26.2229062  26.5287308 111.3284242
  21.8384010  27.9670947  99.6152229  21.5096716  27.0868326  99.4327335
  22.1923381  27.9118616 100.5028619  31.0863589  39.6025850 104.1247215
  30.9388551  38.6742558 104.3054785  31.9117082  39.6245941 103.6404290
  24.9525833  28.2543917  99.9827707  25.2921906  28.7829838  99.2606315
  25.3997954  28.5924323 100.7586274  34.6897711  40.4254409 105.2112088
  35.6144258  40.2197270 105.0736539  34.5213014  40.1770810 106.1201429
  27.6469274  26.6380968 109.4330775  27.3066094  25.8388781 109.8351455
  26.9408280  26.9382679 108.8607608  28.2985746  23.7230280 107.8858098
  29.1211815  23.2490759 107.7636989  28.5423809  24.5020764 108.3856784
  26.9393980  26.7518539  98.1821000  27.6602343  27.1299792  97.6784717
  26.3159284  27.4707416  98.2855978  31.0825103  27.4563688  99.1179332
  31.2988718  28.3388326  98.8168160  30.6019170  27.0649901  98.3884974
  25.8224325  30.4149401 105.6950077  25.6768905  30.7289704 106.5874358
  25.3449528  31.0334301 105.1420975  27.6820707  27.4051949 105.7430966
  27.6682276  26.5093042 105.4063264  28.3993136  27.4122613 106.3769252
  29.5346838  27.8389289 107.7884094  29.2764616  28.7606360 107.7868424
  29.0031879  27.4419724 108.4784558  34.4793027  40.9440076 100.5674179
  34.6529904  40.3786499  99.8148032  34.9721918  41.7440971 100.3853669
  20.2969987  32.9554745 108.6337738  19.7523455  33.7314553 108.7658012
  21.1749337  33.3025550 108.4756859  27.0857603  26.2866329 101.0118537
  27.2073515  25.3582975 101.2109424  26.7959646  26.3005015 100.0996852
  29.9548794  23.9721240 104.1485256  29.9770491  24.0360573 103.1937236
  30.3716853  23.1325748 104.3425763  40.3332418  33.7076499 102.1864479
  40.7763564  32.9583824 101.7883602  39.4558928  33.6986636 101.8038211
  35.4668199  40.2606841  97.6671077  36.1619104  40.8813533  97.8858392
  35.8091350  39.4102192  97.9423455  21.0836009  32.0824642 111.5267895
  20.3417745  32.2307277 112.1132525  20.7628753  32.3432907 110.6634644
  37.3659623  37.7106546  99.1958408  37.8910947  38.0493819  98.4707728
  37.2781975  36.7753562  99.0121543  29.0279671  41.6240620 111.3248285
  29.3366798  41.3789767 112.1970984  29.8255153  41.8287258 110.8367155
  29.0500283  43.7778530 103.5553661  28.6105274  43.2854908 104.2486518
  29.8008400  43.2351497 103.3145737  21.5292622  39.9690070 103.5578289
  22.3550642  39.6693842 103.1776933  21.1786674  39.1997693 104.0068078
  26.4974155  39.3216539 105.6275963  25.8754165  38.6587244 105.3278191
  27.1679022  39.3477671 104.9449611  19.7301227  37.8876397 104.5167223
  18.8933136  37.4598571 104.3351224  19.7024873  38.0808840 105.4538014
  26.5698683  27.7998327 115.2208469  26.6186838  28.6760449 114.8386239
  27.1121197  27.2575720 114.6480112  37.0553529  38.3439450 114.5009606
  36.2649072  38.3263589 113.9614106  36.8186883  38.8827744 115.2558643
  37.1751404  35.1931916 111.8142335  37.2249409  35.0281924 112.7557858
  37.0665327  34.3259175 111.4240216  26.0587662  37.8720462  99.1034424
  26.2075783  38.5555926  98.4501096  26.8654106  37.8525552  99.6183879
  34.4655166  31.1762844 113.1301641  35.3665029  31.0369309 112.8385639
  34.5403141  31.3417299 114.0699819  28.7997971  28.5529699 111.9754828
  27.9301281  28.8463265 111.7037416  29.0357452  29.1370144 112.6962091
  38.6769600  37.6128858 112.0584356  38.3854409  37.9758838 112.8947817
  38.0641732  36.8995866 111.8797688  39.8765283  35.1781738 104.5786926
  40.7112174  35.6171542 104.7424487  40.0124412  34.7020391 103.7595172
  36.9256789  32.7361472 110.5264414  37.4010910  32.9289119 109.7183266
  36.0022354  32.7920658 110.2807798  23.8140295  33.8985640 100.1095493
  23.5686337  32.9947970 100.3075703  23.9836210  33.9002790  99.1674971
  31.5037005  24.7709316 109.4920248  32.0218949  25.5070343 109.1666737
  31.1492138  25.0773309 110.3267007  23.0835943  29.6313997  97.6081654
  22.3905188  29.7058352  96.9521690  22.8387695  28.8674341  98.1303171
  31.7549599  21.1909599 105.0121145  32.0351353  20.5232788 105.6381571
  32.5400206  21.3838694 104.4995809  29.5583068  40.3668592  96.5746171
  28.9857035  40.9858780  96.1216643  30.1315862  40.9167954  97.1086093
  35.6258458  29.6127233 108.7592720  36.5775881  29.7125330 108.7804944
  35.4561908  28.8205501 109.2690804  33.6472837  26.6982816 108.9452121
  33.0522769  26.9787828 108.2498609  33.3622534  27.1876717 109.7168862
  32.7780328  40.6505743  97.7054753  33.7111001  40.5851304  97.9087629
  32.6903540  41.4862009  97.2469286  38.1046536  32.8333352 107.8735020
  38.0722856  31.8949353 108.0594703  38.7147159  32.9117389 107.1400844
  38.2541024  29.6244396 107.9193303  37.7380073  28.8402852 107.7323232
  39.1380973  29.2963112 108.0839822  35.9151751  23.3685411 103.8789115
  35.7176572  23.0600499 104.7632447  36.5251456  24.0947050 104.0087045
  43.9223085  33.8949359 107.0141056  44.6526474  33.6334647 107.5748760
  43.3130031  33.1578081 107.0543124  42.0038382  32.0357222 107.6115508
  41.2771546  31.9013187 107.0031999  41.5885669  32.3434050 108.4172226
  29.8268559  35.7547151 115.3762881  30.7471568  35.9325750 115.5702927
  29.7918142  34.8103197 115.2242580  28.1272784  29.6279382  93.8517109
  27.2204239  29.3312494  93.9279822  28.4048765  29.3309200  92.9851395
  19.0450724  30.9485745 104.3016155  18.7253508  30.0951053 104.0090529
  18.4984152  31.1634323 105.0574123  22.8230631  33.6648186 108.0185662
  23.0416641  34.5965294 108.0373696  23.2356405  33.3056160 108.8040466
  29.7434849  24.1716271 100.0061350  28.9335578  23.8263356 100.3816596
  30.4319266  23.8623815 100.5948962  31.6725398  23.2494318 101.6285647
  32.2256436  23.6689772 102.2875670  31.9095484  22.3230066 101.6708603
  27.6958497  29.2381392 117.4088411  27.5955224  30.1875749 117.3400502
  27.4780039  28.9099631 116.5364481  26.8971568  26.4866317  93.9929088
  27.7590732  26.8121215  94.2524905  27.0821912  25.6997813  93.4802154
  18.9138984  34.5688656 106.2709277  18.2202455  34.1542609 105.7579231
  19.6611975  34.6109193 105.6742696  35.0504205  25.3594843 101.1364311
  34.4702874  26.0179647 100.7542363  34.7840137  24.5372188 100.7251728
  33.5007771  24.7599901 103.3385631  34.0007549  24.8716435 102.5299950
  34.1443379  24.4560954 103.9786440  27.5589767  32.6678531 116.2253472
  27.0756849  33.4678891 116.4317361  27.6450706  32.6786475 115.2720916
  20.8275726  34.5006910 104.1475292  20.8046415  34.5994598 103.1957175
  21.1376363  35.3472061 104.4692458  23.4863104  36.5583065 108.2621906
  24.4406358  36.5267008 108.1951838  23.2875628  36.0973689 109.0772132
  24.0762486  35.1284181 110.8292704  24.8955375  35.6228260 110.8527541
  24.3499294  34.2116149 110.8010271  33.8329083  27.5194934 100.1920659
  32.9454938  27.8044584  99.9740854  34.2483072  27.3588697  99.3447936
  37.1843619  27.5441455 103.9074998  37.9604009  28.0337907 104.1799615
  36.4591753  27.9699509 104.3646868  39.6216177  28.2569074 104.9648939
  40.2160668  28.0164810 104.2542247  39.6942761  27.5376204 105.5922475
  21.8413333  42.1002685 105.2792104  21.7067801  41.3403086 104.7130102
  21.4245395  42.8243585 104.8120893  33.8070106  33.0349470 100.4070949
  33.7505308  33.4918021  99.5678582  34.3598449  32.2740154 100.2293792
  37.6174912  28.8239201 101.2321069  37.3611847  28.4235837 102.0629277
  36.9927780  29.5382995 101.1071208  41.9287250  31.5635275 103.7392360
  41.3686808  31.6328464 104.5123922  41.3230754  31.3876259 103.0191857
  24.9982459  42.9972002 105.4910547  24.8814843  43.9417434 105.3889237
  24.1774905  42.6945563 105.8796346  34.5404886  34.2254251  97.7023479
  34.4853689  34.0598522  96.7611923  33.9150941  34.9330284  97.8585668
  19.3297401  29.4622315 111.5284901  19.9756264  28.9521269 112.0172126
  19.1214552  30.1990997 112.1028326  31.8550793  36.5303163 117.0277041
  32.7241952  36.7043815 116.6663676  31.3757544  37.3497579 116.9052771
  27.8501011  23.7262360  97.2808797  27.8379681  24.6704200  97.4377068
  28.7424433  23.5432505  96.9868258  26.0236973  43.6500264 108.7066475
  26.9264220  43.6823874 109.0232970  25.7974343  42.7200715 108.7212811
  27.7790575  42.4031250 105.3676554  26.8286206  42.4033112 105.2540926
  28.0823061  41.6563985 104.8512588  31.6653131  20.3205136 101.5354734
  30.8985526  19.7663623 101.6811416  32.0763836  20.3927005 102.3968885
  23.6694892  26.6089932 115.6259915  24.5326353  26.2526737 115.8363240
  23.0960302  26.2703827 116.3135319  43.5143269  48.2391789 106.4322316
  44.1521679  48.1198536 105.7285656  43.3964111  49.1872633 106.4910268
  40.3232975  48.1919217 106.3683841  39.9851486  48.0760281 105.4804376
  41.1922743  47.7910382 106.3484847  36.1819791  50.0454693 102.3580732
  35.6184656  49.9544630 101.5897019  36.0672186  49.2254598 102.8383224
  40.8052758  49.3454068 112.3270046  40.7941399  48.9506867 111.4550550
  40.9673397  48.6120141 112.9203818  33.7284223  51.5405885 105.1964952
  34.5205514  51.1996709 104.7811251  33.9680873  51.6500860 106.1167105
  41.7619349  53.7125661  97.6695197  41.1107329  54.2979741  97.2829210
  42.5563712  54.2431856  97.7290234  35.6874976  50.8014798  98.0682331
  36.4605852  50.2543785  97.9295207  36.0400375  51.6659047  98.2796792
  37.5260019  52.1291180 111.2749230  37.2349885  53.0336811 111.1595897
  38.1617003  52.1707708 111.9893300  38.4516226  49.5068029 107.8650590
  39.0479798  49.2824051 107.1507553  38.5091197  48.7652774 108.4676038
  38.0241254  46.9607464  95.7000781  38.2766775  46.4388985  94.9384244
  37.0865813  46.7973610  95.8027464  43.0684537  45.9643242 103.5075524
  43.8547626  45.5462666 103.1565941  43.3323241  46.8689335 103.6757172
  43.2394614  51.4016093  98.2064181  42.6040447  51.4750719  98.9185086
  42.9092021  51.9909692  97.5283260  48.4692964  45.9018476 104.4108503
  49.2018136  45.3317692 104.6446332  47.7132320  45.5140076 104.8515008
  37.7437543  48.8635570  97.9025156  37.6273801  48.1880473  98.5706240
  37.8539803  48.3767944  97.0857309  40.0869084  48.3245717 101.6071845
  39.7227291  47.7976338 102.3184766  40.9436200  47.9344186 101.4338330
  45.9918385  39.6140050 108.8703111  45.6601709  40.4835461 108.6464326
  45.3963998  39.2976334 109.5497142  39.7274571  43.3535617  96.6033194
  39.8948973  44.2215853  96.9703665  39.5371740  43.5162899  95.6794483
  42.4849904  51.8152596 108.2699024  42.1850627  52.7177635 108.1614831
  42.1400964  51.5484779 109.1220177  35.9362386  48.2666393 104.3035728
  35.0112882  48.1342607 104.5113420  36.1846799  49.0460612 104.8005671
  45.8847048  44.3335136 105.9496461  44.9763925  44.2650544 105.6555222
  45.8334644  44.8107081 106.7778287  33.2971197  47.9099666 105.1379517
  33.4263578  48.1634145 106.0518929  32.6168648  48.5027374 104.8184172
  37.4670684  58.5796916 101.2369992  37.3894714  59.5304741 101.3158472
  36.8632327  58.2342789 101.8944918  39.9587914  45.7524782 113.8931359
  39.1821248  46.3118702 113.8834223  40.5978477  46.2381565 114.4146229
  47.7508694  42.5351574 107.7274335  47.1083075  42.8284108 107.0814130
  47.2463623  42.4204495 108.5327532  38.2134286  48.5610235 113.4549326
  38.9548970  49.0995279 113.1784149  37.5071271  49.1876524 113.6120877
  43.6889626  50.7039375 112.0521487  44.0972982  50.2621786 111.3076119
  42.9666887  50.1292003 112.3055680  40.0420696  45.6411982 109.4255044
  40.8881891  46.0651396 109.5689693  39.9819333  44.9845606 110.1193607
  44.0118440  51.2640566 105.8073776  43.3827303  51.4286280 105.1049844
  43.6244102  51.6782176 106.5784740  47.8907672  52.1995004 103.1618140
  47.2058710  52.5793905 102.6115173  47.9751521  52.8090330 103.8950087
  43.1920141  43.3016350 111.0836218  42.9481073  44.0558411 110.5470493
  43.4680072  43.6801698 111.9183465  45.1458604  49.8454963 109.7613483
  45.3575499  50.4886723 109.0847864  45.0988352  49.0117279 109.2935413
  42.7484833  42.4572784 106.6650055  41.8869312  42.7554037 106.9566793
  42.7747267  42.6743182 105.7331088  39.5646402  51.0014974 103.0723861
  40.0284748  51.2802677 102.2828483  39.3003200  50.0998419 102.8896952
  36.4570483  50.5486456 106.0103624  37.0271840  50.9773724 105.3721109
  37.0478595  50.2669040 106.7087810  38.5015288  47.1238126  99.8813426
  39.2039332  47.5759170 100.3487352  38.1695917  46.4821945 100.5093319
  36.9495650  45.7149883 114.2564636  36.3194310  46.3966164 114.4900032
  36.8431738  45.6032965 113.3117774  32.2440622  45.3821679 105.1830560
  31.4539676  45.6379208 104.7070670  32.7351870  46.1970017 105.2882600
  46.2604432  52.7226918 107.9335841  47.0821875  52.3207106 107.6518522
  46.2566835  52.6195152 108.8851956  34.1955368  45.7466258 102.1414036
  33.3986531  45.8584953 102.6597532  33.9680960  46.0852911 101.2754927
  40.0261035  52.2710962 110.0896551  40.0905468  52.7331369 110.9254723
  39.3171959  51.6408326 110.2178861  30.5278325  45.6352170 107.6145550
  30.7786364  46.5199179 107.8803126  31.0637874  45.4556771 106.8420642
  39.7409053  53.9379069  99.9575531  39.6054728  54.7830605 100.3860379
  40.2818865  54.1398347  99.1941465  36.2276392  40.0170649 116.6189887
  35.8343338  39.4636847 117.2937531  37.0442533  40.3281227 117.0096404
  33.1938450  51.4554507 100.5303456  33.7062971  52.2497757 100.6809021
  33.8461163  50.7580798 100.4637058  35.0033335  54.5720263 102.6126210
  35.1799963  55.4938228 102.4247193  35.7990168  54.2578683 103.0420589
  39.1444353  41.4328528 114.2110143  39.8854067  42.0335681 114.1314606
  39.3762276  40.6906166 113.6528186  34.2885691  46.6184895 112.4888373
  34.1739207  45.7170153 112.7895472  33.4330209  46.8648592 112.1373189
  41.3677529  54.5602636 114.0875873  40.9241383  53.7739014 113.7696778
  42.0294743  54.7481786 113.4219764  36.1264650  56.0898437 108.6136552
  36.6772075  55.9615501 107.8413546  35.2876126  56.3893326 108.2631445
  43.4658767  54.8405436 112.1157275  43.4477243  55.6614317 111.6237544
  44.3878687  54.7159511 112.3407416  39.9231821  52.3549565 112.9580783
  40.4560158  51.5937853 112.7280091  39.3945903  52.0623217 113.7004938
  43.0901516  37.4609631 108.4874425  42.7465786  38.3511273 108.4113535
  43.4580479  37.2711289 107.6244010  31.1587367  49.7843161 101.3063027
  31.9962589  50.1940170 101.0896735  31.3365635  48.8442604 101.2763221
  40.6398910  42.2967943 102.0532098  39.7840506  41.9074793 101.8737737
  41.0525862  42.3759904 101.1931884  42.1698057  39.8314286 106.4523658
  41.6662852  39.7944421 105.6391463  42.4628664  40.7407029 106.5120315
  38.4140943  39.9153016 105.4589840  39.2793939  39.7195825 105.0995729
  38.4818452  39.6863368 106.3859197  41.2884534  51.4835557 100.4699595
  40.7605896  50.7488317 100.1572833  40.7872037  52.2610234 100.2239563
  46.2677380  49.6784578 105.5866641  45.6101055  50.3683839 105.6746770
  47.0717779  50.0681010 105.9300628  36.0203262  42.1455224 102.8306207
  36.5947014  41.9230405 102.0979400  36.6074244  42.2143918 103.5834808
  45.0782839  48.0328951 103.6370583  45.5914721  48.6658942 104.1392293
  45.7284063  47.4330146 103.2713943  36.3472849  44.1759685  96.8502092
  35.5110161  44.5134371  97.1711367  36.2077618  44.0408665  95.9129229
  38.3225929  39.0196473 101.5581276  37.6690342  38.7045490 100.9337891
  38.2806404  38.3972213 102.2841099  41.5563670  45.5078406 105.8828924
  40.6386231  45.7293353 105.7250612  41.9723813  45.5824717 105.0240631
  42.3398718  46.9069822 101.0131604  43.0870537  47.4191219 100.7038726
  42.6090307  46.5853875 101.8735997  40.6125368  49.4028363  97.9958558
  39.7036587  49.1187395  98.0931028  40.6420452  49.8227441  97.1361865
  45.8444635  53.0134952 101.7649726  45.3906962  52.1725862 101.8214916
  45.2138602  53.6496350 102.1024506  44.7877555  43.9426938 102.9950393
  44.0500312  43.4304324 103.3260636  45.0404328  43.5027320 102.1833670
  44.2877574  54.8511449 102.6999544  44.5800549  55.4116506 101.9811910
  44.7976195  55.1440010 103.4552703  44.8889182  36.7203190 103.5892162
  45.1948059  35.8600554 103.3018078  45.6141787  37.3120810 103.3891156
  31.1813538  47.1233877 101.9773760  30.9837938  46.5303237 101.2524827
  30.6260202  46.8186087 102.6949699  39.1610262  47.0156983 104.0968354
  39.2158872  46.0630820 104.0210830  38.3501464  47.1716422 104.5809652
  37.1002622  45.6334043 101.8558732  36.2870487  45.9328213 102.2623925
  37.5961616  45.2389732 102.5733215  39.2511200  55.6291800 103.7892997
  39.2087378  55.8552646 102.8601529  40.1673898  55.3955174 103.9378798
  42.6976833  46.0975867 110.6873626  43.0526221  46.3247341 111.5468092
  43.3448965  46.4294244 110.0650882  36.5916696  43.2052398 107.4719967
  37.2316076  43.0641158 106.7742931  35.7594227  42.9186912 107.0958569
  48.4543950  51.2870830 106.4034227  48.8880457  51.1946119 107.2517281
  49.1675531  51.2628331 105.7654243  37.3677000  52.5054829 103.5854960
  38.1617599  52.0105149 103.3837535  36.6568693  51.9772692 103.2222665
  42.1871845  54.8872924 107.9367327  42.2408867  55.4563861 108.7045043
  41.3186626  55.0574809 107.5721365  33.6759764  46.6497911  99.6614713
  32.7457352  46.5882366  99.8784675  33.7717236  46.1273863  98.8651354
  33.5945313  43.1752723 102.2492954  33.8552130  44.0898057 102.1402115
  34.4162485  42.7077166 102.3989567  35.0670238  44.5890481 109.4191779
  35.7393292  44.3807843 108.7704428  34.2400025  44.3912567 108.9797011
  49.3159499  51.3294531 108.9367112  49.5095390  52.2340341 109.1826387
  49.2160118  50.8701950 109.7705697  40.9695810  41.2152422 111.4357440
  40.3223725  41.9142371 111.3421916  41.7396826  41.6488565 111.8033688
  44.3774608  51.4801274 114.5107993  44.2260115  51.2511825 113.5938077
  44.3679288  52.4371875 114.5239338  41.1459945  49.0533186 109.4954259
  42.0752005  49.2044346 109.3223227  40.7250975  49.1417207 108.6402906
  39.9448276  53.0783851 107.2652797  39.8059362  52.7102635 108.1378735
  39.1562873  53.5931490 107.0936755  40.5396428  58.1792947  98.6078333
  40.7148184  57.7080991  99.4223956  39.8529216  58.8058714  98.8359594
  41.4953492  52.4565454 104.6541635  41.1603324  52.4166224 105.5499285
  40.9957437  51.7910169 104.1812045  35.4697735  47.8633084 110.1794216
  35.3317533  47.1313322 110.7805755  36.3802659  47.7741984 109.8978404
  38.0980036  47.5753043 109.6677896  38.8079655  46.9346235 109.6264514
  38.0549344  47.8265938 110.5904076  46.0866815  54.5120396 112.5884475
  46.0279361  53.8279616 111.9215058  46.4886333  55.2539386 112.1365101
  36.8108970  44.5618261 111.4873535  36.2746327  44.1108999 112.1395131
  36.2225679  44.6964170 110.7443999  35.1057514  61.3282310 105.3818194
  35.3454112  61.9600834 106.0597212  34.2626710  60.9770350 105.6683553
  36.2211229  44.0206912  94.0499999  35.3440695  43.8995713  93.6862245
  36.6968982  43.2292991  93.7978887  46.0884222  52.4759980 110.8198454
  45.2011001  52.1385902 110.9424853  46.6582773  51.7443011 111.0567220
  27.7413369  48.8084072 104.1441506  28.4284409  48.4945802 103.5562521
  27.5861498  49.7125437 103.8708757  32.5448091  43.6974269 108.5726529
  32.4606280  43.0899938 107.8376939  31.7230798  44.1883287 108.5736026
  39.6185375  57.1361433 107.7859698  39.5455547  57.9416404 108.2979002
  39.1762769  57.3353398 106.9607719  39.4075155  56.3733203 101.2962519
  38.6242677  56.9154883 101.3900744  40.1067900  56.8907182 101.6956760
  42.7171805  42.1827832 103.9396725  43.2140505  41.4297794 103.6197795
  41.9458787  42.2192149 103.3739934  50.5701563  47.8868198 105.5815016
  50.5591439  48.7692913 105.2108949  49.7018942  47.5339748 105.3869553
  42.0784059  57.0348267 109.9417856  42.7912031  57.6695731 109.8693758
  41.5874088  57.1312133 109.1257858  43.8001586  50.9399519 101.5135148
  42.8657865  51.0600982 101.3439852  43.9778254  50.0371986 101.2495158
  39.3006774  44.3245215 103.6668409  38.9304561  43.7716255 104.3549315
  39.7965866  43.7203349 103.1143409  47.1874137  46.7816839 102.0485182
  47.6534589  47.6144830 101.9745485  47.6381638  46.3161820 102.7530441
  37.1295973  54.7842710 110.7623427  37.8305432  55.4179193 110.9152821
  36.6591088  55.1257442 110.0019066  45.1590800  39.1497426 106.0876083
  44.2453880  39.3801652 106.2558290  45.5883901  39.2335870 106.9390116
  44.9297259  47.3387317 108.5875977  44.2768709  47.5863225 107.9328430
  45.3077638  46.5251456 108.2538455  41.8904432  57.3747011 102.6904148
  42.0726827  56.5568667 103.1531900  42.7137418  57.5914703 102.2529038
  42.2246598  56.3015196  99.9519196  42.7534364  55.7907650  99.3389358
  42.4874817  55.9857726 100.8164729  40.9784832  48.0807129 115.0742015
  40.3025469  47.9801258 115.7444390  41.8012465  47.9246342 115.5378012
  32.7263691  54.3179065 107.6954530  33.3117127  53.5722753 107.8282434
  32.5288529  54.6283022 108.5791194  35.5802346  57.3530312 102.7116972
  34.9112721  57.8376440 102.2281012  35.4415216  57.5999533 103.6260351
  27.3181345  46.8884665 106.4158973  27.3565445  46.3548256 107.2096091
  26.8121638  46.3619871 105.7969950  39.7207614  59.3874056 109.3099631
  40.2725922  59.5505678 110.0748716  40.0613808  59.9778494 108.6379655
  34.6972108  41.7349206 109.9121515  34.7613434  42.5964037 109.4998913
  34.6339228  41.1223207 109.1793874  34.1724380  43.8072338 113.5594549
  34.7996419  43.4249416 114.1732074  33.3152299  43.5886540 113.9250242
  44.5718489  54.2135314 115.1648285  45.1158393  54.8265272 114.6703240
  43.9905334  54.7714892 115.6815298  30.9489923  45.6148767  99.4912904
  31.2443364  44.7059446  99.4379958  30.0477959  45.5936507  99.1693907
  42.8576002  57.3356032 106.2963313  42.7327141  56.5345771 105.7874258
  43.5155093  57.8302225 105.8077283  34.4784170  43.6904764 105.4740453
  33.7570756  44.3040732 105.3347926  35.2677426  44.2262529 105.3957099
  44.9210910  55.1365052 107.9242863  43.9741246  55.0170403 107.8521189
  45.2693683  54.2487550 108.0069124  37.2810483  41.0259191 111.7481105
  37.8044885  41.2721487 112.5107414  37.0622817  41.8579225 111.3284242
  32.6777764  43.2962865  99.6152229  32.3490471  42.4160244  99.4327335
  33.0317135  43.2410534 100.5028619  41.9257343  54.9317768 104.1247215
  41.7782306  54.0034475 104.3054785  42.7510837  54.9537859 103.6404290
  35.7919588  43.5835835  99.9827707  36.1315660  44.1121756  99.2606315
  36.2391708  43.9216241 100.7586274  45.5291465  55.7546327 105.2112088
  46.4538013  55.5489188 105.0736539  45.3606769  55.5062728 106.1201429
  38.4863028  41.9672886 109.4330775  38.1459849  41.1680699 109.8351455
  37.7802035  42.2674596 108.8607608  39.1379500  39.0522198 107.8858098
  39.9605570  38.5782676 107.7636989  39.3817564  39.8312682 108.3856784
  37.7787735  42.0810457  98.1821000  38.4996097  42.4591709  97.6784717
  37.1553039  42.7999333  98.2855978  36.6618079  45.7441319 105.6950077
  36.5162660  46.0581622 106.5874358  36.1843283  46.3626219 105.1420975
  38.5214462  42.7343867 105.7430966  38.5076031  41.8384960 105.4063264
  39.2386890  42.7414530 106.3769252  40.3740593  43.1681207 107.7884094
  40.1158370  44.0898278 107.7868424  39.8425633  42.7711641 108.4784558
  45.3186781  56.2731994 100.5674179  45.4923659  55.7078416  99.8148032
  45.8115673  57.0732889 100.3853669  31.1363741  48.2846663 108.6337738
  30.5917209  49.0606471 108.7658012  32.0143091  48.6317468 108.4756859
  37.9251358  41.6158247 101.0118537  38.0467269  40.6874893 101.2109424
  37.6353400  41.6296933 100.0996852  40.7942548  39.3013157 104.1485256
  40.8164245  39.3652490 103.1937236  41.2110607  38.4617666 104.3425763
  31.9229763  47.4116559 111.5267895  31.1811499  47.5599195 112.1132525
  31.6022507  47.6724825 110.6634644  39.8673426  56.9532538 111.3248285
  40.1760552  56.7081684 112.1970984  40.6648908  57.1579176 110.8367155
  39.8894038  59.1070447 103.5553661  39.4499028  58.6146826 104.2486518
  40.6402155  58.5643415 103.3145737  32.3686377  55.2981988 103.5578289
  33.1944397  54.9985760 103.1776933  32.0180429  54.5289611 104.0068078
  37.3367910  54.6508456 105.6275963  36.7147919  53.9879161 105.3278191
  38.0072777  54.6769588 104.9449611  30.5694982  53.2168315 104.5167223
  29.7326890  52.7890489 104.3351224  30.5418627  53.4100758 105.4538014
  37.4092437  43.1290244 115.2208469  37.4580593  44.0052367 114.8386239
  37.9514952  42.5867637 114.6480112  47.8947283  53.6731368 114.5009606
  47.1042827  53.6555506 113.9614106  47.6580638  54.2119661 115.2558643
  48.0145158  50.5223834 111.8142335  48.0643163  50.3573841 112.7557858
  47.9059081  49.6551093 111.4240216  36.8981417  53.2012380  99.1034424
  37.0469537  53.8847844  98.4501096  37.7047860  53.1817470  99.6183879
  45.3048921  46.5054762 113.1301641  46.2058783  46.3661227 112.8385639
  45.3796895  46.6709217 114.0699819  39.6391726  43.8821617 111.9754828
  38.7695035  44.1755183 111.7037416  39.8751206  44.4662062 112.6962091
  49.5163355  52.9420775 112.0584356  49.2248163  53.3050756 112.8947817
  48.9035486  52.2287784 111.8797688  47.7650543  48.0653390 110.5264414
  48.2404665  48.2581036 109.7183266  46.8416109  48.1212576 110.2807798
  34.6534050  49.2277557 100.1095493  34.4080092  48.3239887 100.3075703
  34.8229964  49.2294708  99.1674971  42.3430760  40.1001234 109.4920248
  42.8612704  40.8362261 109.1666737  41.9885892  40.4065227 110.3267007
  33.9229697  44.9605915  97.6081654  33.2298942  45.0350270  96.9521690
  33.6781449  44.1966259  98.1303171  42.5943354  36.5201516 105.0121145
  42.8745108  35.8524705 105.6381571  43.3793961  36.7130612 104.4995809
  40.3976822  55.6960510  96.5746171  39.8250789  56.3150697  96.1216643
  40.9709616  56.2459872  97.1086093  46.4652212  44.9419150 108.7592720
  47.4169635  45.0417248 108.7804944  46.2955663  44.1497419 109.2690804
  44.4866592  42.0274733 108.9452121  43.8916524  42.3079746 108.2498609
  44.2016288  42.5168634 109.7168862  43.6174082  55.9797660  97.7054753
  44.5504755  55.9143222  97.9087629  43.5297295  56.8153927  97.2469286
  48.9440290  48.1625270 107.8735020  48.9116610  47.2241271 108.0594703
  49.5540914  48.2409307 107.1400844  49.0934778  44.9536313 107.9193303
  48.5773827  44.1694770 107.7323232  49.9774727  44.6255030 108.0839822
  46.7545505  38.6977329 103.8789115  46.5570327  38.3892417 104.7632447
  47.3645211  39.4238968 104.0087045  52.8432137  47.3649139 107.6115508
  52.1165301  47.2305104 107.0031999  52.4279424  47.6725968 108.4172226
  40.6662313  51.0839069 115.3762881  41.5865323  51.2617668 115.5702927
  40.6311896  50.1395114 115.2242580  29.8844478  46.2777663 104.3016155
  29.5647263  45.4242971 104.0090529  29.3377907  46.4926241 105.0574123
  33.6624386  48.9940104 108.0185662  33.8810396  49.9257211 108.0373696
  34.0750160  48.6348078 108.8040466  40.5828604  39.5008189 100.0061350
  39.7729332  39.1555274 100.3816596  41.2713021  39.1915733 100.5948962
  42.5119152  38.5786236 101.6285647  43.0650191  38.9981689 102.2875670
  42.7489238  37.6521984 101.6708603  38.5352251  44.5673309 117.4088411
  38.4348978  45.5167666 117.3400502  38.3173793  44.2391548 116.5364481
  29.7532738  49.8980574 106.2709277  29.0596210  49.4834527 105.7579231
  30.5005729  49.9401111 105.6742696  45.8897959  40.6886761 101.1364311
  45.3096628  41.3471565 100.7542363  45.6233892  39.8664106 100.7251728
  44.3401525  40.0891819 103.3385631  44.8401304  40.2008353 102.5299950
  44.9837133  39.7852871 103.9786440  38.3983521  47.9970448 116.2253472
  37.9150603  48.7970808 116.4317361  38.4844460  48.0078393 115.2720916
  31.6669481  49.8298828 104.1475292  31.6440169  49.9286515 103.1957175
  31.9770117  50.6763979 104.4692458  34.3256859  51.8874983 108.2621906
  35.2800112  51.8558925 108.1951838  34.1269382  51.4265607 109.0772132
  34.9156241  50.4576099 110.8292704  35.7349130  50.9520178 110.8527541
  35.1893049  49.5408067 110.8010271  48.0237373  42.8733372 103.9074998
  48.7997763  43.3629825 104.1799615  47.2985507  43.2991426 104.3646868
  50.4609932  43.5860992 104.9648939  51.0554423  43.3456727 104.2542247
  50.5336516  42.8668122 105.5922475  32.6807088  57.4294602 105.2792104
  32.5461556  56.6695003 104.7130102  32.2639150  58.1535502 104.8120893
  48.4568667  44.1531119 101.2321069  48.2005601  43.7527755 102.0629277
  47.8321535  44.8674913 101.1071208  35.8376213  58.3263919 105.4910547
  35.7208598  59.2709352 105.3889237  35.0168660  58.0237481 105.8796346
  30.1691155  44.7914233 111.5284901  30.8150019  44.2813187 112.0172126
  29.9608306  45.5282915 112.1028326  42.6944547  51.8595080 117.0277041
  43.5635707  52.0335733 116.6663676  42.2151299  52.6789497 116.9052771
  38.6894766  39.0554277  97.2808797  38.6773435  39.9996117  97.4377068
  39.5818188  38.8724423  96.9868258  36.8630728  58.9792181 108.7066475
  37.7657974  59.0115792 109.0232970  36.6368098  58.0492632 108.7212811
  38.6184330  57.7323168 105.3676554  37.6679961  57.7325030 105.2540926
  38.9216816  56.9855902 104.8512588  42.5046885  35.6497054 101.5354734
  41.7379281  35.0955541 101.6811416  42.9157590  35.7218923 102.3968885
  34.5088646  41.9381850 115.6259915  35.3720108  41.5818655 115.8363240
  33.9354057  41.5995745 116.3135319  47.0213545  65.3746611 102.3580732
  46.4578410  65.2836548 101.5897019  46.9065940  64.5546515 102.8383224
  51.6446512  64.6745986 112.3270046  51.6335153  64.2798784 111.4550550
  51.8067152  63.9412059 112.9203818  44.5677977  66.8697802 105.1964952
  45.3599269  66.5288627 104.7811251  44.8074627  66.9792777 106.1167105
  52.6013104  69.0417579  97.6695197  51.9501084  69.6271659  97.2829210
  53.3957467  69.5723773  97.7290234  46.5268731  66.1306716  98.0682331
  47.2999607  65.5835703  97.9295207  46.8794130  66.9950965  98.2796792
  48.3653774  67.4583098 111.2749230  48.0743639  68.3628729 111.1595897
  49.0010758  67.4999626 111.9893300  49.2909980  64.8359946 107.8650590
  49.8873553  64.6115969 107.1507553  49.3484952  64.0944692 108.4676038
  56.8312139  54.9431967 108.8703111  56.4995464  55.8127378 108.6464326
  56.2357752  54.6268251 109.5497142  53.3243659  67.1444513 108.2699024
  53.0244382  68.0469552 108.1614831  52.9794718  66.8776697 109.1220177
  46.7756140  63.5958310 104.3035728  45.8506637  63.4634524 104.5113420
  47.0240553  64.3752530 104.8005671  44.1364951  63.2391584 105.1379517
  44.2657332  63.4926063 106.0518929  43.4562402  63.8319292 104.8184172
  48.3064438  73.9088834 101.2369992  48.2288468  74.8596659 101.3158472
  47.7026082  73.5634706 101.8944918  50.7981668  61.0816699 113.8931359
  50.0215002  61.6410619 113.8834223  51.4372231  61.5673482 114.4146229
  58.5902449  57.8643492 107.7274335  57.9476829  58.1576025 107.0814130
  58.0857377  57.7496412 108.5327532  49.0528040  63.8902153 113.4549326
  49.7942725  64.4287197 113.1784149  48.3465026  64.5168441 113.6120877
  54.5283380  66.0331293 112.0521487  54.9366736  65.5913704 111.3076119
  53.8060642  65.4583921 112.3055680  50.8814450  60.9703900 109.4255044
  51.7275645  61.3943313 109.5689693  50.8213088  60.3137524 110.1193607
  54.0313895  58.6308268 111.0836218  53.7874827  59.3850329 110.5470493
  54.3073826  59.0093616 111.9183465  55.9852358  65.1746881 109.7613483
  56.1969253  65.8178640 109.0847864  55.9382107  64.3409197 109.2935413
  53.5878587  57.7864701 106.6650055  52.7263066  58.0845955 106.9566793
  53.6141022  58.0035100 105.7331088  50.4040157  66.3306892 103.0723861
  50.8678502  66.6094595 102.2828483  50.1396955  65.4290336 102.8896952
  47.2964238  65.8778373 106.0103624  47.8665595  66.3065642 105.3721109
  47.8872350  65.5960958 106.7087810  47.7889404  61.0441801 114.2564636
  47.1588065  61.7258082 114.4900032  47.6825492  60.9324882 113.3117774
  43.0834377  60.7113597 105.1830560  42.2933431  60.9671125 104.7070670
  43.5745624  61.5261935 105.2882600  57.0998186  68.0518836 107.9335841
  57.9215630  67.6499023 107.6518522  57.0960589  67.9487070 108.8851956
  45.0349122  61.0758176 102.1414036  44.2380285  61.1876870 102.6597532
  44.8074714  61.4144828 101.2754927  50.8654790  67.6002879 110.0896551
  50.9299222  68.0623286 110.9254723  50.1565714  66.9700244 110.2178861
  41.3672080  60.9644087 107.6145550  41.6180118  61.8491097 107.8803126
  41.9031628  60.7848689 106.8420642  50.5802807  69.2670987  99.9575531
  50.4448482  70.1122522 100.3860379  51.1212620  69.4690264  99.1941465
  47.0670147  55.3462567 116.6189887  46.6737093  54.7928765 117.2937531
  47.8836287  55.6573145 117.0096404  44.0332205  66.7846425 100.5303456
  44.5456725  67.5789675 100.6809021  44.6854918  66.0872715 100.4637058
  45.8427089  69.9012181 102.6126210  46.0193718  70.8230146 102.4247193
  46.6383923  69.5870600 103.0420589  49.9838108  56.7620446 114.2110143
  50.7247821  57.3627599 114.1314606  50.2156031  56.0198083 113.6528186
  45.1279446  61.9476813 112.4888373  45.0132961  61.0462070 112.7895472
  44.2723964  62.1940510 112.1373189  52.2071284  69.8894553 114.0875873
  51.7635138  69.1030932 113.7696778  52.8688497  70.0773704 113.4219764
  46.9658405  71.4190355 108.6136552  47.5165830  71.2907418 107.8413546
  46.1269881  71.7185244 108.2631445  54.3052522  70.1697353 112.1157275
  54.2870997  70.9906234 111.6237544  55.2272442  70.0451428 112.3407416
  50.7625576  67.6841483 112.9580783  51.2953913  66.9229771 112.7280091
  50.2339657  67.3915134 113.7004938  53.9295271  52.7901549 108.4874425
  53.5859540  53.6803190 108.4113535  54.2974233  52.6003206 107.6244010
  41.9981121  65.1135079 101.3063027  42.8356343  65.5232087 101.0896735
  42.1759389  64.1734521 101.2763221  53.0091811  55.1606204 106.4523658
  52.5056607  55.1236339 105.6391463  53.3022418  56.0698946 106.5120315
  49.2534697  55.2444933 105.4589840  50.1187694  55.0487742 105.0995729
  49.3212206  55.0155285 106.3859197  46.8597016  57.4747141 102.8306207
  47.4340768  57.2522323 102.0979400  47.4467999  57.5435836 103.5834808
  53.1798968  73.3405193  96.3931254  52.5060666  73.6436889  97.0016212
  53.5664790  74.1434273  96.0436711  42.0207293  62.4525794 101.9773760
  41.8231692  61.8595155 101.2524827  41.4653957  62.1478005 102.6949699
  50.0904954  70.9583718 103.7892997  50.0481133  71.1844564 102.8601529
  51.0067653  70.7247092 103.9378798  53.5370588  61.4267785 110.6873626
  53.8919976  61.6539258 111.5468092  54.1842719  61.7586162 110.0650882
  47.4310451  58.5344316 107.4719967  48.0709830  58.3933075 106.7742931
  46.5987981  58.2478830 107.0958569  48.2070755  67.8346747 103.5854960
  49.0011353  67.3397067 103.3837535  47.4962447  67.3064610 103.2222665
  53.0265599  70.2164842 107.9367327  53.0802622  70.7855778 108.7045043
  52.1580381  70.3866727 107.5721365  44.5153518  61.9789828  99.6614713
  43.5851106  61.9174284  99.8784675  44.6110990  61.4565781  98.8651354
  44.4339067  58.5044641 102.2492954  44.6945885  59.4189974 102.1402115
  45.2556240  58.0369084 102.3989567  45.9063993  59.9182398 109.4191779
  46.5787046  59.7099760 108.7704428  45.0793779  59.7204484 108.9797011
  60.1553254  66.6586449 108.9367112  60.3489144  67.5632259 109.1826387
  60.0553872  66.1993868 109.7705697  51.8089565  56.5444339 111.4357440
  51.1617480  57.2434289 111.3421916  52.5790580  56.9780483 111.8033688
  55.2168363  66.8093191 114.5107993  55.0653869  66.5803743 113.5938077
  55.2073042  67.7663793 114.5239338  51.9853699  64.3825104 109.4954259
  52.9145759  64.5336264 109.3223227  51.5644729  64.4709125 108.6402906
  50.7842031  68.4075769 107.2652797  50.6453117  68.0394553 108.1378735
  49.9956627  68.9223408 107.0936755  51.3790183  73.5084865  98.6078333
  51.5541939  73.0372908  99.4223956  50.6922971  74.1350631  98.8359594
  46.3091490  63.1925001 110.1794216  46.1711288  62.4605240 110.7805755
  47.2196413  63.1033901 109.8978404  48.9373791  62.9044961 109.6677896
  49.6473409  62.2638153 109.6264514  48.8943099  63.1557855 110.5904076
  56.9260569  69.8412314 112.5884475  56.8673115  69.1571534 111.9215058
  57.3280088  70.5831304 112.1365101  47.6502725  59.8910178 111.4873535
  47.1140082  59.4400917 112.1395131  47.0619433  60.0256087 110.7443999
  45.9451268  76.6574228 105.3818194  46.1847866  77.2892752 106.0597212
  45.1020465  76.3062268 105.6683553  56.9277977  67.8051898 110.8198454
  56.0404755  67.4677820 110.9424853  57.4976528  67.0734929 111.0567220
  38.5807124  64.1375990 104.1441506  39.2678164  63.8237720 103.5562521
  38.4255252  65.0417354 103.8708757  43.3841846  59.0266186 108.5726529
  43.3000035  58.4191856 107.8376939  42.5624552  59.5175204 108.5736026
  50.4579130  72.4653350 107.7859698  50.3849301  73.2708322 108.2979002
  50.0156523  72.6645316 106.9607719  50.2468910  71.7025120 101.2962519
  49.4636431  72.2446800 101.3900744  50.9461655  72.2199100 101.6956760
  52.9177813  72.3640184 109.9417856  53.6305786  72.9987649 109.8693758
  52.4267842  72.4604050 109.1257858  47.9689727  70.1134628 110.7623427
  48.6699187  70.7471111 110.9152821  47.4984842  70.4549359 110.0019066
  55.7691013  62.6679235 108.5875977  55.1162463  62.9155143 107.9328430
  56.1471393  61.8543373 108.2538455  52.7298187  72.7038928 102.6904148
  52.9120581  71.8860584 103.1531900  53.5531173  72.9206621 102.2529038
  53.0640352  71.6307113  99.9519196  53.5928119  71.1199568  99.3389358
  53.3268572  71.3149644 100.8164729  51.8178586  63.4099046 115.0742015
  51.1419223  63.3093176 115.7444390  52.6406220  63.2538260 115.5378012
  43.5657445  69.6470983 107.6954530  44.1510882  68.9014671 107.8282434
  43.3682284  69.9574939 108.5791194  46.4196100  72.6822230 102.7116972
  45.7506476  73.1668358 102.2281012  46.2808970  72.9291451 103.6260351
  38.1575100  62.2176583 106.4158973  38.1959199  61.6840174 107.2096091
  37.6515393  61.6911788 105.7969950  50.5601369  74.7165974 109.3099631
  51.1119677  74.8797595 110.0748716  50.9007562  75.3070412 108.6379655
  45.5365862  57.0641123 109.9121515  45.6007189  57.9255954 109.4998913
  45.4732982  56.4515125 109.1793874  45.0118135  59.1364256 113.5594549
  45.6390173  58.7541333 114.1732074  44.1546054  58.9178458 113.9250242
  55.4112243  69.5427231 115.1648285  55.9552147  70.1557189 114.6703240
  54.8299088  70.1006810 115.6815298  41.7883677  60.9440685  99.4912904
  42.0837118  60.0351364  99.4379958  40.8871713  60.9228425  99.1693907
  53.6969756  72.6647949 106.2963313  53.5720896  71.8637689 105.7874258
  54.3548847  73.1594143 105.8077283  45.3177924  59.0196682 105.4740453
  44.5964510  59.6332649 105.3347926  46.1071180  59.5554447 105.3957099
  55.7604665  70.4656969 107.9242863  54.8135000  70.3462320 107.8521189
  56.1087438  69.5779467 108.0069124  48.1204238  56.3551108 111.7481105
  48.6438640  56.6013405 112.5107414  47.9016571  57.1871143 111.3284242
  43.5171519  58.6254783  99.6152229  43.1884225  57.7452162  99.4327335
  43.8710890  58.5702451 100.5028619  52.7651098  70.2609686 104.1247215
  52.6176060  69.3326393 104.3054785  53.5904591  70.2829776 103.6404290
  56.3685220  71.0838244 105.2112088  57.2931767  70.8781106 105.0736539
  56.2000523  70.8354645 106.1201429  49.3256783  57.2964803 109.4330775
  48.9853603  56.4972616 109.8351455  48.6195789  57.5966514 108.8607608
  49.9773255  54.3814116 107.8858098  50.7999324  53.9074594 107.7636989
  50.2211318  55.1604599 108.3856784  47.5011834  61.0733236 105.6950077
  47.3556414  61.3873539 106.5874358  47.0237037  61.6918137 105.1420975
  49.3608216  58.0635784 105.7430966  49.3469785  57.1676878 105.4063264
  50.0780645  58.0706448 106.3769252  51.2134347  58.4973125 107.7884094
  50.9552125  59.4190195 107.7868424  50.6819388  58.1003559 108.4784558
  56.1580536  71.6023912 100.5674179  56.3317413  71.0370334  99.8148032
  56.6509427  72.4024807 100.3853669  41.9757496  63.6138581 108.6337738
  41.4310964  64.3898389 108.7658012  42.8536846  63.9609385 108.4756859
  57.1455708  70.9190676  97.6671077  57.8406613  71.5397369  97.8858392
  57.4878859  70.0686027  97.9423455  42.7623518  62.7408477 111.5267895
  42.0205254  62.8891112 112.1132525  42.4416262  63.0016743 110.6634644
  50.7067180  72.2824455 111.3248285  51.0154307  72.0373602 112.1970984
  51.5042662  72.4871094 110.8367155  50.7287792  74.4362365 103.5553661
  50.2892783  73.9438744 104.2486518  51.4795909  73.8935333 103.3145737
  43.2080131  70.6273906 103.5578289  44.0338151  70.3277678 103.1776933
  42.8574183  69.8581528 104.0068078  48.1761664  69.9800374 105.6275963
  47.5541674  69.3171079 105.3278191  48.8466531  70.0061506 104.9449611
  41.4088736  68.5460232 104.5167223  40.5720645  68.1182407 104.3351224
  41.3812382  68.7392676 105.4538014  48.2486192  58.4582162 115.2208469
  48.2974347  59.3344285 114.8386239  48.7908706  57.9159555 114.6480112
  58.7341038  69.0023285 114.5009606  57.9436581  68.9847424 113.9614106
  58.4974392  69.5411579 115.2558643  58.8538913  65.8515752 111.8142335
  58.9036918  65.6865759 112.7557858  58.7452836  64.9843011 111.4240216
  47.7375171  68.5304297  99.1034424  47.8863292  69.2139762  98.4501096
  48.5441615  68.5109387  99.6183879  56.1442675  61.8346680 113.1301641
  57.0452538  61.6953145 112.8385639  56.2190650  62.0001135 114.0699819
  50.4785480  59.2113534 111.9754828  49.6088790  59.5047100 111.7037416
  50.7144961  59.7953979 112.6962091  60.3557109  68.2712693 112.0584356
  60.0641918  68.6342674 112.8947817  59.7429241  67.5579701 111.8797688
  58.6044298  63.3945308 110.5264414  59.0798419  63.5872954 109.7183266
  57.6809863  63.4504494 110.2807798  45.4927804  64.5569475 100.1095493
  45.2473846  63.6531805 100.3075703  45.6623719  64.5586625  99.1674971
  53.1824514  55.4293151 109.4920248  53.7006458  56.1654178 109.1666737
  52.8279647  55.7357145 110.3267007  51.2370577  71.0252428  96.5746171
  50.6644544  71.6442615  96.1216643  51.8103371  71.5751789  97.1086093
  57.3045967  60.2711068 108.7592720  58.2563390  60.3709166 108.7804944
  57.1349417  59.4789336 109.2690804  55.3260346  57.3566651 108.9452121
  54.7310278  57.6371664 108.2498609  55.0410043  57.8460552 109.7168862
  54.4567837  71.3089578  97.7054753  55.3898510  71.2435140  97.9087629
  54.3691049  72.1445845  97.2469286  59.9328533  60.2828231 107.9193303
  59.4167582  59.4986688 107.7323232  60.8168481  59.9546948 108.0839822
  51.5056068  66.4130987 115.3762881  52.4259077  66.5909586 115.5702927
  51.4705651  65.4687032 115.2242580  40.7238233  61.6069580 104.3016155
  40.4041017  60.7534889 104.0090529  40.1771661  61.8218158 105.0574123
  44.5018140  64.3232021 108.0185662  44.7204150  65.2549129 108.0373696
  44.9143914  63.9639996 108.8040466  49.3746006  59.8965227 117.4088411
  49.2742733  60.8459584 117.3400502  49.1567548  59.5683466 116.5364481
  40.5926493  65.2272492 106.2709277  39.8989964  64.8126445 105.7579231
  41.3399484  65.2693028 105.6742696  49.2377276  63.3262366 116.2253472
  48.7544358  64.1262726 116.4317361  49.3238215  63.3370311 115.2720916
  42.5063235  65.1590746 104.1475292  42.4833924  65.2578433 103.1957175
  42.8163872  66.0055896 104.4692458  45.1650613  67.2166901 108.2621906
  46.1193867  67.1850843 108.1951838  44.9663137  66.7557524 109.0772132
  45.7549995  65.7868017 110.8292704  46.5742884  66.2812095 110.8527541
  46.0286803  64.8699985 110.8010271  43.5200842  72.7586520 105.2792104
  43.3855310  71.9986921 104.7130102  43.1032904  73.4827420 104.8120893
  46.6769968  73.6555837 105.4910547  46.5602352  74.6001270 105.3889237
  45.8562414  73.3529399 105.8796346  41.0084910  60.1206151 111.5284901
  41.6543773  59.6105105 112.0172126  40.8002061  60.8574832 112.1028326
  53.5338302  67.1886998 117.0277041  54.4029461  67.3627650 116.6663676
  53.0545053  68.0081415 116.9052771  47.7024482  74.3084099 108.7066475
  48.6051729  74.3407709 109.0232970  47.4761852  73.3784550 108.7212811
  49.4578084  73.0615086 105.3676554  48.5073715  73.0616947 105.2540926
  49.7610570  72.3147820 104.8512588  45.3482401  57.2673768 115.6259915
  46.2113862  56.9110572 115.8363240  44.7747811  56.9287662 116.3135319
  62.4840267  80.0037904 112.3270046  62.4728908  79.6090702 111.4550550
  62.6460906  79.2703976 112.9203818  55.4071731  82.1989720 105.1964952
  56.1993023  81.8580545 104.7811251  55.6468382  82.3084695 106.1167105
  59.2047528  82.7875016 111.2749230  58.9137394  83.6920646 111.1595897
  59.8404512  82.8291543 111.9893300  70.1480473  76.5602311 104.4108503
  70.8805645  75.9901528 104.6446332  69.3919829  76.1723911 104.8515008
  61.4062080  74.0119452  96.6033194  61.5736482  74.8799689  96.9703665
  61.2159249  74.1746734  95.6794483  64.1637413  82.4736431 108.2699024
  63.8638136  83.3761470 108.1614831  63.8188473  82.2068614 109.1220177
  54.9758706  78.5683502 105.1379517  55.1051087  78.8217980 106.0518929
  54.2956157  79.1611210 104.8184172  59.1458193  89.2380751 101.2369992
  59.0682223  90.1888577 101.3158472  58.5419836  88.8926624 101.8944918
  61.6375423  76.4108617 113.8931359  60.8608757  76.9702537 113.8834223
  62.2765986  76.8965400 114.4146229  69.4296203  73.1935410 107.7274335
  68.7870584  73.4867943 107.0814130  68.9251132  73.0788330 108.5327532
  59.8921795  79.2194070 113.4549326  60.6336479  79.7579114 113.1784149
  59.1858780  79.8460359 113.6120877  65.3677135  81.3623211 112.0521487
  65.7760491  80.9205621 111.3076119  64.6454396  80.7875838 112.3055680
  61.7208205  76.2995817 109.4255044  62.5669400  76.7235231 109.5689693
  61.6606842  75.6429442 110.1193607  65.6905949  81.9224401 105.8073776
  65.0614812  82.0870115 105.1049844  65.3031611  82.3366011 106.5784740
  69.5695181  82.8578839 103.1618140  68.8846219  83.2377741 102.6115173
  69.6539030  83.4674166 103.8950087  64.8707650  73.9600186 111.0836218
  64.6268582  74.7142246 110.5470493  65.1467580  74.3385533 111.9183465
  66.8246113  80.5038798 109.7613483  67.0363008  81.1470558 109.0847864
  66.7775861  79.6701115 109.2935413  58.6283159  76.3733718 114.2564636
  57.9981819  77.0549999 114.4900032  58.5219247  76.2616800 113.3117774
  53.9228131  76.0405514 105.1830560  53.1327185  76.2963043 104.7070670
  54.4139379  76.8553852 105.2882600  67.9391941  83.3810754 107.9335841
  68.7609384  82.9790941 107.6518522  67.9354344  83.2778988 108.8851956
  55.8742877  76.4050094 102.1414036  55.0774040  76.5168788 102.6597532
  55.6468469  76.7436746 101.2754927  61.7048544  82.9294797 110.0896551
  61.7692977  83.3915204 110.9254723  60.9959468  82.2992162 110.2178861
  52.2065834  76.2936005 107.6145550  52.4573873  77.1783015 107.8803126
  52.7425383  76.1140606 106.8420642  76.0297934  79.7249502 104.2820812
  75.2761642  79.1556900 104.1264816  76.1645475  79.6912167 105.2291447
  57.9063901  70.6754484 116.6189887  57.5130847  70.1220683 117.2937531
  58.7230042  70.9865063 117.0096404  54.8725959  82.1138342 100.5303456
  55.3850480  82.9081593 100.6809021  55.5248672  81.4164633 100.4637058
  56.6820844  85.2304099 102.6126210  56.8587472  86.1522063 102.4247193
  57.4777677  84.9162518 103.0420589  60.8231862  72.0912363 114.2110143
  61.5641576  72.6919516 114.1314606  61.0549785  71.3490001 113.6528186
  55.9673200  77.2768731 112.4888373  55.8526716  76.3753988 112.7895472
  55.1117718  77.5232427 112.1373189  63.0465038  85.2186471 114.0875873
  62.6028892  84.4322849 113.7696778  63.7082252  85.4065621 113.4219764
  57.8052159  86.7482273 108.6136552  58.3559584  86.6199336 107.8413546
  56.9663635  87.0477162 108.2631445  65.1446276  85.4989271 112.1157275
  65.1264752  86.3198152 111.6237544  66.0666196  85.3743346 112.3407416
  61.6019330  83.0133400 112.9580783  62.1347667  82.2521689 112.7280091
  61.0733411  82.7207052 113.7004938  52.8374876  80.4426997 101.3063027
  53.6750098  80.8524005 101.0896735  53.0153144  79.5026439 101.2763221
  67.9464889  80.3368413 105.5866641  67.2888564  81.0267675 105.6746770
  68.7505288  80.7264845 105.9300628  57.6990771  72.8039059 102.8306207
  58.2734523  72.5814241 102.0979400  58.2861753  72.8727754 103.5834808
  58.0260358  74.8343520  96.8502092  57.1897670  75.1718207  97.1711367
  57.8865127  74.6992500  95.9129229  52.8601047  77.7817712 101.9773760
  52.6625447  77.1887073 101.2524827  52.3047711  77.4769922 102.6949699
  58.7790131  76.2917878 101.8558732  57.9657996  76.5912049 102.2623925
  59.2749125  75.8973567 102.5733215  64.3764342  76.7559703 110.6873626
  64.7313730  76.9831176 111.5468092  65.0236474  77.0878080 110.0650882
  58.2704205  73.8636234 107.4719967  58.9103585  73.7224993 106.7742931
  57.4381736  73.5770747 107.0958569  70.1331459  81.9454666 106.4034227
  70.5667966  81.8529955 107.2517281  70.8463040  81.9212166 105.7654243
  63.8659354  85.5456760 107.9367327  63.9196376  86.1147696 108.7045043
  62.9974135  85.7158645 107.5721365  55.3547273  77.3081746  99.6614713
  54.4244861  77.2466201  99.8784675  55.4504745  76.7857699  98.8651354
  55.2732822  73.8336559 102.2492954  55.5339639  74.7481892 102.1402115
  56.0949994  73.3661001 102.3989567  56.7457747  75.2474316 109.4191779
  57.4180801  75.0391678 108.7704428  55.9187534  75.0496402 108.9797011
  70.9947008  81.9878366 108.9367112  71.1882899  82.8924177 109.1826387
  70.8947627  81.5285785 109.7705697  62.6483319  71.8736257 111.4357440
  62.0011234  72.5726207 111.3421916  63.4184335  72.3072401 111.8033688
  66.0562117  82.1385109 114.5107993  65.9047624  81.9095661 113.5938077
  66.0466797  83.0955710 114.5239338  62.8247454  79.7117022 109.4954259
  63.7539514  79.8628181 109.3223227  62.4038484  79.8001043 108.6402906
  57.1485244  78.5216919 110.1794216  57.0105042  77.7897158 110.7805755
  58.0590168  78.4325819 109.8978404  59.7767545  78.2336878 109.6677896
  60.4867164  77.5930070 109.6264514  59.7336853  78.4849773 110.5904076
  67.7654324  85.1704232 112.5884475  67.7066870  84.4863452 111.9215058
  68.1673842  85.9123222 112.1365101  58.4896479  75.2202096 111.4873535
  57.9533836  74.7692835 112.1395131  57.9013188  75.3548005 110.7443999
  56.7845023  91.9866145 105.3818194  57.0241621  92.6184670 106.0597212
  55.9414219  91.6354185 105.6683553  57.8998738  74.6790748  94.0499999
  57.0228204  74.5579548  93.6862245  58.3756491  73.8876826  93.7978887
  67.7671731  83.1343816 110.8198454  66.8798510  82.7969737 110.9424853
  68.3370282  82.4026847 111.0567220  49.4200878  79.4667907 104.1441506
  50.1071918  79.1529637 103.5562521  49.2649007  80.3709272 103.8708757
  54.2235600  74.3558104 108.5726529  54.1393789  73.7483773 107.8376939
  53.4018307  74.8467122 108.5736026  61.2972884  87.7945268 107.7859698
  61.2243056  88.6000239 108.2979002  60.8550278  87.9937234 106.9607719
  61.0862664  87.0317038 101.2962519  60.3030186  87.5738718 101.3900744
  61.7855409  87.5491018 101.6956760  72.2489072  78.5452033 105.5815016
  72.2378948  79.4276748 105.2108949  71.3806451  78.1923584 105.3869553
  63.7571568  87.6932102 109.9417856  64.4699540  88.3279567 109.8693758
  63.2661597  87.7895968 109.1257858  58.8083482  85.4426545 110.7623427
  59.5092941  86.0763028 110.9152821  58.3378597  85.7841277 110.0019066
  63.5691941  88.0330846 102.6904148  63.7514336  87.2152502 103.1531900
  64.3924927  88.2498538 102.2529038  62.6572340  78.7390964 115.0742015
  61.9812978  78.6385093 115.7444390  63.4799974  78.5830178 115.5378012
  54.4051200  84.9762900 107.6954530  54.9904636  84.2306588 107.8282434
  54.2076038  85.2866857 108.5791194  57.2589855  88.0114148 102.7116972
  56.5900230  88.4960275 102.2281012  57.1202724  88.2583368 103.6260351
  48.9968854  77.5468501 106.4158973  49.0352954  77.0132091 107.2096091
  48.4909147  77.0203706 105.7969950  61.3995123  90.0457891 109.3099631
  61.9513431  90.2089513 110.0748716  61.7401317  90.6362329 108.6379655
  56.3759617  72.3933041 109.9121515  56.4400943  73.2547872 109.4998913
  56.3126737  71.7807043 109.1793874  55.8511889  74.4656174 113.5594549
  56.4783928  74.0833251 114.1732074  54.9939808  74.2470376 113.9250242
  66.2505998  84.8719149 115.1648285  66.7945902  85.4849107 114.6703240
  65.6692843  85.4298727 115.6815298  52.6277432  76.2732603  99.4912904
  52.9230873  75.3643281  99.4379958  51.7265468  76.2520342  99.1693907
  64.5363511  87.9939867 106.2963313  64.4114650  87.1929607 105.7874258
  65.1942602  88.4886060 105.8077283  56.1571679  74.3488599 105.4740453
  55.4358265  74.9624567 105.3347926  56.9464935  74.8846364 105.3957099
  66.5998419  85.7948887 107.9242863  65.6528755  85.6754238 107.8521189
  66.9481192  84.9071385 108.0069124  58.9597992  71.6843026 111.7481105
  59.4832394  71.9305322 112.5107414  58.7410326  72.5163061 111.3284242
  54.3565273  73.9546700  99.6152229  54.0277980  73.0744079  99.4327335
  54.7104644  73.8994369 100.5028619  57.4707097  74.2419670  99.9827707
  57.8103169  74.7705592  99.2606315  57.9179217  74.5800076 100.7586274
  67.2078974  86.4130162 105.2112088  68.1325522  86.2073023 105.0736539
  67.0394278  86.1646563 106.1201429  60.1650537  72.6256721 109.4330775
  59.8247358  71.8264534 109.8351455  59.4589544  72.9258432 108.8607608
  59.4575244  72.7394292  98.1821000  60.1783606  73.1175545  97.6784717
  58.8340548  73.4583169  98.2855978  58.3405588  76.4025154 105.6950077
  58.1950169  76.7165457 106.5874358  57.8630792  77.0210054 105.1420975
  52.8151250  78.9430498 108.6337738  52.2704718  79.7190306 108.7658012
  53.6930600  79.2901303 108.4756859  72.8513682  79.6952252 102.1864479
  73.2944828  78.9459578 101.7883602  71.9740192  79.6862389 101.8038211
  53.6017272  78.0700395 111.5267895  52.8599008  78.2183030 112.1132525
  53.2810016  78.3308660 110.6634644  61.5460935  87.6116373 111.3248285
  61.8548061  87.3665520 112.1970984  62.3436417  87.8163011 110.8367155
  61.5681547  89.7654283 103.5553661  61.1286537  89.2730661 104.2486518
  62.3189664  89.2227250 103.3145737  54.0473886  85.9565823 103.5578289
  54.8731906  85.6569595 103.1776933  53.6967938  85.1873446 104.0068078
  52.2482491  83.8752150 104.5167223  51.4114399  83.4474324 104.3351224
  52.2206136  84.0684593 105.4538014  59.0879946  73.7874080 115.2208469
  59.1368102  74.6636202 114.8386239  59.6302461  73.2451473 114.6480112
  69.5734792  84.3315203 114.5009606  68.7830336  84.3139342 113.9614106
  69.3368147  84.8703497 115.2558643  69.6932667  81.1807669 111.8142335
  69.7430672  81.0157677 112.7557858  69.5846590  80.3134928 111.4240216
  58.5768926  83.8596215  99.1034424  58.7257046  84.5431679  98.4501096
  59.3835369  83.8401305  99.6183879  66.9836430  77.1638597 113.1301641
  67.8846292  77.0245062 112.8385639  67.0584404  77.3293052 114.0699819
  61.3179235  74.5405452 111.9754828  60.4482544  74.8339018 111.7037416
  61.5538715  75.1245897 112.6962091  71.1950864  83.6004611 112.0584356
  70.9035672  83.9634591 112.8947817  70.5822995  82.8871619 111.8797688
  72.3946546  81.1657491 104.5786926  73.2293438  81.6047295 104.7424487
  72.5305675  80.6896144 103.7595172  69.4438052  78.7237225 110.5264414
  69.9192174  78.9164872 109.7183266  68.5203618  78.7796411 110.2807798
  56.3321559  79.8861393 100.1095493  56.0867601  78.9823723 100.3075703
  56.5017473  79.8878543  99.1674971  64.0218269  70.7585069 109.4920248
  64.5400213  71.4946096 109.1666737  63.6673401  71.0649062 110.3267007
  55.6017206  75.6189750  97.6081654  54.9086451  75.6934105  96.9521690
  55.3568958  74.8550094  98.1303171  68.1439721  75.6002986 108.7592720
  69.0957144  75.7001083 108.7804944  67.9743172  74.8081254 109.2690804
  66.1654101  72.6858569 108.9452121  65.5704033  72.9663581 108.2498609
  65.8803797  73.1752470 109.7168862  70.6227799  78.8209105 107.8735020
  70.5904119  77.8825106 108.0594703  71.2328423  78.8993142 107.1400844
  70.7722287  75.6120149 107.9193303  70.2561336  74.8278605 107.7323232
  71.6562236  75.2838865 108.0839822  76.4404349  79.8825112 107.0141056
  77.1707737  79.6210400 107.5748760  75.8311294  79.1453834 107.0543124
  74.5219646  78.0232975 107.6115508  73.7952810  77.8888940 107.0031999
  74.1066933  78.3309803 108.4172226  62.3449822  81.7422904 115.3762881
  63.2652832  81.9201503 115.5702927  62.3099405  80.7978950 115.2242580
  60.6454047  75.6155135  93.8517109  59.7385502  75.3188247  93.9279822
  60.9230028  75.3184953  92.9851395  51.5631987  76.9361498 104.3016155
  51.2434772  76.0826806 104.0090529  51.0165416  77.1510076 105.0574123
  55.3411895  79.6523939 108.0185662  55.5597905  80.5841047 108.0373696
  55.7537669  79.2931913 108.8040466  60.2139760  75.2257145 117.4088411
  60.1136487  76.1751502 117.3400502  59.9961302  74.8975384 116.5364481
  51.4320247  80.5564409 106.2709277  50.7383719  80.1418362 105.7579231
  52.1793238  80.5984946 105.6742696  60.0771030  78.6554284 116.2253472
  59.5938112  79.4554644 116.4317361  60.1631969  78.6662228 115.2720916
  53.3456990  80.4882663 104.1475292  53.3227678  80.5870351 103.1957175
  53.6557626  81.3347814 104.4692458  56.0044368  82.5458818 108.2621906
  56.9587621  82.5142761 108.1951838  55.8056891  82.0849442 109.0772132
  56.5943750  81.1159934 110.8292704  57.4136639  81.6104013 110.8527541
  56.8680558  80.1991902 110.8010271  72.1397441  74.2444827 104.9648939
  72.7341932  74.0040563 104.2542247  72.2124025  73.5251957 105.5922475
  54.3594597  88.0878438 105.2792104  54.2249064  87.3278839 104.7130102
  53.9426659  88.8119338 104.8120893  74.4468514  77.5511028 103.7392360
  73.8868072  77.6204217 104.5123922  73.8412017  77.3752012 103.0191857
  57.5163722  88.9847755 105.4910547  57.3996107  89.9293187 105.3889237
  56.6956169  88.6821316 105.8796346  51.8478664  75.4498068 111.5284901
  52.4937528  74.9397022 112.0172126  51.6395815  76.1866750 112.1028326
  64.3732056  82.5178916 117.0277041  65.2423216  82.6919568 116.6663676
  63.8938808  83.3373333 116.9052771  58.5418237  89.6376017 108.7066475
  59.4445483  89.6699627 109.0232970  58.3155607  88.7076468 108.7212811
  60.2971839  88.3907003 105.3676554  59.3467470  88.3908865 105.2540926
  60.6004325  87.6439738 104.8512588  56.1876155  72.5965685 115.6259915
  57.0507617  72.2402490 115.8363240  55.6141566  72.2579580 116.3135319
  76.0324532  94.2267542 106.4322316  76.6702942  94.1074289 105.7285656
  75.9145375  95.1748386 106.4910268  72.8414238  94.1794970 106.3683841
  72.5032750  94.0636034 105.4804376  73.7104007  93.7786135 106.3484847
  68.7001054  96.0330446 102.3580732  68.1365919  95.9420383 101.5897019
  68.5853449  95.2130351 102.8383224  73.3234021  95.3329821 112.3270046
  73.3122662  94.9382620 111.4550550  73.4854661  94.5995894 112.9203818
  66.2465486  97.5281638 105.1964952  67.0386778  97.1872462 104.7811251
  66.4862136  97.6376613 106.1167105  68.2056240  96.7890551  98.0682331
  68.9787116  96.2419538  97.9295207  68.5581639  97.6534800  98.2796792
  70.0441282  98.1166933 111.2749230  69.7531148  99.0212564 111.1595897
  70.6798267  98.1583461 111.9893300  70.9697489  95.4943782 107.8650590
  71.5661062  95.2699804 107.1507553  71.0272461  94.7528527 108.4676038
  75.5865801  91.9518995 103.5075524  76.3728890  91.5338419 103.1565941
  75.8504505  92.8565088 103.6757172  75.7575878  97.3891846  98.2064181
  75.1221711  97.4626472  98.9185086  75.4273284  97.9785445  97.5283260
  80.9874228  91.8894229 104.4108503  81.7199400  91.3193445 104.6446332
  80.2313583  91.5015829 104.8515008  70.2618806  94.8511323  97.9025156
  70.1455065  94.1756226  98.5706240  70.3721066  94.3643697  97.0857309
  72.6050347  94.3121470 101.6071845  72.2408555  93.7852091 102.3184766
  73.4617463  93.9219939 101.4338330  78.5099648  85.6015803 108.8703111
  78.1782973  86.4711214 108.6464326  77.9145261  85.2852087 109.5497142
  72.2455834  89.3411370  96.6033194  72.4130237  90.2091606  96.9703665
  72.0553003  89.5038652  95.6794483  75.0031168  97.8028349 108.2699024
  74.7031891  98.7053388 108.1614831  74.6582227  97.5360532 109.1220177
  68.4543649  94.2542146 104.3035728  67.5294146  94.1218360 104.5113420
  68.7028062  95.0336365 104.8005671  78.4028311  90.3210889 105.9496461
  77.4945189  90.2526297 105.6555222  78.3515907  90.7982834 106.7778287
  72.2245055  91.7969027  97.5879860  72.1044680  92.2426078  98.4265341
  71.5297644  92.1454345  97.0293399  65.8152460  93.8975419 105.1379517
  65.9444841  94.1509898 106.0518929  65.1349911  94.4903127 104.8184172
  72.4769177  91.7400535 113.8931359  71.7002511  92.2994455 113.8834223
  73.1159740  92.2257318 114.4146229  80.2689958  88.5227327 107.7274335
  79.6264338  88.8159861 107.0814130  79.7644886  88.4080248 108.5327532
  77.9230121  92.2690501  98.4160194  78.8347978  92.5017887  98.2407892
  77.4139768  92.8527545  97.8535273  70.7315549  94.5485988 113.4549326
  71.4730234  95.0871032 113.1784149  70.0252535  95.1752277 113.6120877
  76.2070889  96.6915128 112.0521487  76.6154245  96.2497539 111.3076119
  75.4848151  96.1167756 112.3055680  72.5601959  91.6287735 109.4255044
  73.4063154  92.0527149 109.5689693  72.5000597  90.9721359 110.1193607
  75.7101404  89.2892104 111.0836218  75.4662336  90.0434164 110.5470493
  75.9861335  89.6677451 111.9183465  77.6639867  95.8330716 109.7613483
  77.8756762  96.4762476 109.0847864  77.6169615  94.9993032 109.2935413
  75.2666096  88.4448537 106.6650055  74.4050575  88.7429790 106.9566793
  75.2928531  88.6618935 105.7331088  72.0827666  96.9890727 103.0723861
  72.5466011  97.2678430 102.2828483  71.8184464  96.0874172 102.8896952
  68.9751747  96.5362209 106.0103624  69.5453104  96.9649477 105.3721109
  69.5659859  96.2544793 106.7087810  71.0196552  93.1113879  99.8813426
  71.7220595  93.5634923 100.3487352  70.6877180  92.4697698 100.5093319
  69.4676913  91.7025636 114.2564636  68.8375574  92.3841917 114.4900032
  69.3613001  91.5908718 113.3117774  64.7621886  91.3697432 105.1830560
  63.9720940  91.6254961 104.7070670  65.2533133  92.1845770 105.2882600
  66.7136631  91.7342011 102.1414036  65.9167794  91.8460706 102.6597532
  66.4862223  92.0728664 101.2754927  72.5442299  98.2586715 110.0896551
  72.6086731  98.7207122 110.9254723  71.8353223  97.6284080 110.2178861
  63.0459589  91.6227923 107.6145550  63.2967627  92.5074932 107.8803126
  63.5819137  91.4432524 106.8420642  68.7457656  86.0046402 116.6189887
  68.3524601  85.4512600 117.2937531  69.5623796  86.3156980 117.0096404
  65.7119714  97.4430260 100.5303456  66.2244234  98.2373510 100.6809021
  66.3642427  96.7456551 100.4637058  67.5214598 100.5596016 102.6126210
  67.6981227 101.4813981 102.4247193  68.3171432 100.2454436 103.0420589
  71.6625617  87.4204281 114.2110143  72.4035330  88.0211434 114.1314606
  71.8943540  86.6781919 113.6528186  66.8066955  92.6060648 112.4888373
  66.6920470  91.7045906 112.7895472  65.9511473  92.8524345 112.1373189
  73.8858793 100.5478389 114.0875873  73.4422647  99.7614767 113.7696778
  74.5476006 100.7357539 113.4219764  68.6445914 102.0774190 108.6136552
  69.1953339 101.9491254 107.8413546  67.8057390 102.3769079 108.2631445
  75.9840031 100.8281189 112.1157275  75.9658506 101.6490070 111.6237544
  76.9059951 100.7035264 112.3407416  72.4413085  98.3425318 112.9580783
  72.9741422  97.5813606 112.7280091  71.9127166  98.0498970 113.7004938
  75.6082780  83.4485384 108.4874425  75.2647049  84.3387026 108.4113535
  75.9761742  83.2587042 107.6244010  63.6768630  95.7718914 101.3063027
  64.5143852  96.1815923 101.0896735  63.8546898  94.8318357 101.2763221
  73.1580174  88.2843696 102.0532098  72.3021770  87.8950546 101.8737737
  73.5707125  88.3635657 101.1931884  74.6879320  85.8190039 106.4523658
  74.1844116  85.7820174 105.6391463  74.9809927  86.7282782 106.5120315
  70.9322206  85.9028769 105.4589840  71.7975203  85.7071578 105.0995729
  70.9999715  85.6739121 106.3859197  80.5467337  96.1926350  98.9300033
  79.7696779  95.8537509  98.4855195  81.2258818  96.1978973  98.2554998
  75.3619366  91.3121087  98.8206641  75.0569501  91.6267236  99.6716784
  76.3149808  91.3902507  98.8633974  73.8065798  97.4711310 100.4699595
  73.2787159  96.7364070 100.1572833  73.3053300  98.2485987 100.2239563
  78.7858644  95.6660331 105.5866641  78.1282318  96.3559592 105.6746770
  79.5899043  96.0556763 105.9300628  68.5384525  88.1330977 102.8306207
  69.1128277  87.9106158 102.0979400  69.1255508  88.2019671 103.5834808
  77.5964102  94.0204704 103.6370583  78.1095984  94.6534696 104.1392293
  78.2465326  93.4205899 103.2713943  70.8407193  85.0072226 101.5581276
  70.1871605  84.6921243 100.9337891  70.7987667  84.3847966 102.2841099
  74.0744933  91.4954159 105.8828924  73.1567495  91.7169106 105.7250612
  74.4905077  91.5700470 105.0240631  74.8579981  92.8945575 101.0131604
  75.6051800  93.4066972 100.7038726  75.1271571  92.5729628 101.8735997
  73.1306631  95.3904116  97.9958558  72.2217850  95.1063148  98.0931028
  73.1601715  95.8103194  97.1361865  77.3058818  89.9302691 102.9950393
  76.5681575  89.4180077 103.3260636  77.5585592  89.4903073 102.1833670
  77.4070446  82.7078943 103.5892162  77.7129322  81.8476307 103.3018078
  78.1323050  83.2996563 103.3891156  63.6994802  93.1109630 101.9773760
  63.5019201  92.5178990 101.2524827  63.1441466  92.8061840 102.6949699
  71.6791525  93.0032736 104.0968354  71.7340135  92.0506573 104.0210830
  70.8682727  93.1592175 104.5809652  69.6183885  91.6209796 101.8558732
  68.8051751  91.9203967 102.2623925  70.1142879  91.2265485 102.5733215
  75.2158097  92.0851620 110.6873626  75.5707485  92.3123094 111.5468092
  75.8630228  92.4169997 110.0650882  69.1097960  89.1928151 107.4719967
  69.7497339  89.0516911 106.7742931  68.2775490  88.9062665 107.0958569
  69.8858264  98.4930582 103.5854960  70.6798862  97.9980902 103.3837535
  69.1749956  97.9648445 103.2222665  74.7053108 100.8748677 107.9367327
  74.7590131 101.4439614 108.7045043  73.8367890 101.0450562 107.5721365
  66.1941027  92.6373664  99.6614713  65.2638615  92.5758119  99.8784675
  66.2898499  92.1149616  98.8651354  66.1126576  89.1628476 102.2492954
  66.3733394  90.0773810 102.1402115  66.9343749  88.6952919 102.3989567
  67.5851502  90.5766234 109.4191779  68.2574555  90.3683596 108.7704428
  66.7581288  90.3788320 108.9797011  81.8340763  97.3170284 108.9367112
  82.0276653  98.2216094 109.1826387  81.7341381  96.8577703 109.7705697
  73.4877074  87.2028175 111.4357440  72.8404989  87.9018124 111.3421916
  74.2578089  87.6364318 111.8033688  76.8955872  97.4677027 114.5107993
  76.7441378  97.2387578 113.5938077  76.8860551  98.4247628 114.5239338
  73.6641208  95.0408939 109.4954259  74.5933268  95.1920099 109.3223227
  73.2432238  95.1292960 108.6402906  72.4629540  99.0659604 107.2652797
  72.3240626  98.6978388 108.1378735  71.6744136  99.5807243 107.0936755
  74.0134755  98.4441207 104.6541635  73.6784588  98.4041977 105.5499285
  73.5138701  97.7785923 104.1812045  67.9878999  93.8508837 110.1794216
  67.8498797  93.1189075 110.7805755  68.8983922  93.7617737 109.8978404
  70.6161300  93.5628796 109.6677896  71.3260918  92.9221988 109.6264514
  70.5730608  93.8141691 110.5904076  69.3290234  90.5494014 111.4873535
  68.7927591  90.0984752 112.1395131  68.7406942  90.6839923 110.7443999
  67.6238777 107.3158063 105.3818194  67.8635375 107.9476587 106.0597212
  66.7807974 106.9646103 105.6683553  60.2594633  94.7959825 104.1441506
  60.9465673  94.4821555 103.5562521  60.1042761  95.7001190 103.8708757
  65.0629355  89.6850022 108.5726529  64.9787544  89.0775691 107.8376939
  64.2412061  90.1759040 108.5736026  72.1366639 103.1237186 107.7859698
  72.0636810 103.9292157 108.2979002  71.6944032 103.3229151 106.9607719
  75.2353069  88.1703585 103.9396725  75.7321768  87.4173547 103.6197795
  74.4640050  88.2067902 103.3739934  74.5965322 103.0224020 109.9417856
  75.3093295 103.6571484 109.8693758  74.1055351 103.1187886 109.1257858
  76.3182849  96.9275272 101.5135148  75.3839128  97.0476735 101.3439852
  76.4959518  96.0247739 101.2495158  71.8188037  90.3120968 103.6668409
  71.4485825  89.7592008 104.3549315  72.3147130  89.7079102 103.1143409
  79.7055401  92.7692592 102.0485182  80.1715853  93.6020583 101.9745485
  80.1562901  92.3037573 102.7530441  69.6477236 100.7718463 110.7623427
  70.3486695 101.4054946 110.9152821  69.1772351 101.1133195 110.0019066
  77.7731632  99.1136413  99.0471334  78.0491476  98.9993007  99.9565208
  76.9036131  98.7153898  99.0083507  77.6772063  85.1373179 106.0876083
  76.7635143  85.3677405 106.2558290  78.1065165  85.2211623 106.9390116
  77.4478522  93.3263071 108.5875977  76.7949972  93.5738978 107.9328430
  77.8258902  92.5127209 108.2538455  73.4966095  94.0682882 115.0742015
  72.8206732  93.9677011 115.7444390  74.3193729  93.9122095 115.5378012
  65.2444954 100.3054818 107.6954530  65.8298391  99.5598506 107.8282434
  65.0469793 100.6158775 108.5791194  59.8362609  92.8760418 106.4158973
  59.8746708  92.3424009 107.2096091  59.3302902  92.3495624 105.7969950
  72.2388878 105.3749809 109.3099631  72.7907186 105.5381431 110.0748716
  72.5795071 105.9654247 108.6379655  67.2153371  87.7224959 109.9121515
  67.2794698  88.5839790 109.4998913  67.1520491  87.1098960 109.1793874
  66.6905644  89.7948091 113.5594549  67.3177682  89.4125169 114.1732074
  65.8333562  89.5762293 113.9250242  77.0899752 100.2011067 115.1648285
  77.6339656 100.8141025 114.6703240  76.5086597 100.7590645 115.6815298
  63.4671186  91.6024520  99.4912904  63.7624627  90.6935199  99.4379958
  62.5659222  91.5812260  99.1693907  66.9965433  89.6780517 105.4740453
  66.2752019  90.2916485 105.3347926  67.7858689  90.2138282 105.3957099
  69.7991747  87.0134944 111.7481105  70.3226149  87.2597240 112.5107414
  69.5804080  87.8454978 111.3284242  68.3100851  89.5711588  99.9827707
  68.6496924  90.0997509  99.2606315  68.7572972  89.9091994 100.7586274
  71.0044292  87.9548639 109.4330775  70.6641112  87.1556452 109.8351455
  70.2983298  88.2550350 108.8607608  71.6560764  85.0397951 107.8858098
  72.4786833  84.5658429 107.7636989  71.8998827  85.8188435 108.3856784
  70.2968998  88.0686210  98.1821000  71.0177361  88.4467462  97.6784717
  69.6734302  88.7875086  98.2855978  74.4400121  88.7731359  99.1179332
  74.6563736  89.6555996  98.8168160  73.9594188  88.3817572  98.3884974
  69.1799343  91.7317072 105.6950077  69.0343923  92.0457375 106.5874358
  68.7024546  92.3501972 105.1420975  71.0395725  88.7219620 105.7430966
  71.0257294  87.8260713 105.4063264  71.7568154  88.7290283 106.3769252
  72.8921856  89.1556960 107.7884094  72.6339634  90.0774031 107.7868424
  72.3606896  88.7587394 108.4784558  63.6545005  94.2722416 108.6337738
  63.1098473  95.0482224 108.7658012  64.5324355  94.6193221 108.4756859
  70.4432621  87.6034000 101.0118537  70.5648533  86.6750646 101.2109424
  70.1534664  87.6172686 100.0996852  73.3123812  85.2888910 104.1485256
  73.3345509  85.3528244 103.1937236  73.7291871  84.4493419 104.3425763
  64.4411027  93.3992312 111.5267895  63.6992763  93.5474948 112.1132525
  64.1203771  93.6600578 110.6634644  72.3854689 102.9408291 111.3248285
  72.6941816 102.6957437 112.1970984  73.1830171 103.1454929 110.8367155
  64.8867640 101.2857741 103.5578289  65.7125660 100.9861513 103.1776933
  64.5361692 100.5165364 104.0068078  69.8549173 100.6384209 105.6275963
  69.2329183  99.9754914 105.3278191  70.5254040 100.6645341 104.9449611
  63.0876245  99.2044068 104.5167223  62.2508154  98.7766242 104.3351224
  63.0599891  99.3976511 105.4538014  69.9273701  89.1165997 115.2208469
  69.9761856  89.9928120 114.8386239  70.4696215  88.5743390 114.6480112
  80.4128547  99.6607121 114.5009606  79.6224090  99.6431259 113.9614106
  80.1761901 100.1995414 115.2558643  80.5326422  96.5099587 111.8142335
  80.5824427  96.3449594 112.7557858  80.4240345  95.6426846 111.4240216
  69.4162680  99.1888133  99.1034424  69.5650801  99.8723597  98.4501096
  70.2229124  99.1693223  99.6183879  77.8230184  92.4930515 113.1301641
  78.7240047  92.3536980 112.8385639  77.8978159  92.6584970 114.0699819
  72.1572989  89.8697370 111.9754828  71.2876299  90.1630936 111.7037416
  72.3932470  90.4537815 112.6962091  80.2831807  94.0529143 110.5264414
  80.7585928  94.2456789 109.7183266  79.3597372  94.1088329 110.2807798
  67.1715313  95.2153310 100.1095493  66.9261355  94.3115640 100.3075703
  67.3411228  95.2170461  99.1674971  74.8612023  86.0876987 109.4920248
  75.3793967  86.8238014 109.1666737  74.5067156  86.3940980 110.3267007
  75.1124617  82.5077269 105.0121145  75.3926371  81.8400458 105.6381571
  75.8975224  82.7006365 104.4995809  78.9833476  90.9294903 108.7592720
  79.9350899  91.0293001 108.7804944  78.8136926  90.1373172 109.2690804
  77.0047855  88.0150486 108.9452121  76.4097787  88.2955499 108.2498609
  76.7197552  88.5044387 109.7168862  81.4621553  94.1501023 107.8735020
  81.4297874  93.2117024 108.0594703  82.0722177  94.2285060 107.1400844
  81.6116042  90.9412066 107.9193303  81.0955091  90.1570523 107.7323232
  82.4955990  90.6130783 108.0839822  79.2726769  84.6853082 103.8789115
  79.0751590  84.3768170 104.7632447  79.8826474  85.4114721 104.0087045
  87.2798103  95.2117030 107.0141056  88.0101492  94.9502318 107.5748760
  86.6705049  94.4745752 107.0543124  85.3613400  93.3524892 107.6115508
  84.6346564  93.2180857 107.0031999  84.9460687  93.6601721 108.4172226
  73.1843577  97.0714822 115.3762881  74.1046586  97.2493421 115.5702927
  73.1493160  96.1270867 115.2242580  62.4025742  92.2653416 104.3016155
  62.0828526  91.4118724 104.0090529  61.8559170  92.4801994 105.0574123
  66.1805649  94.9815857 108.0185662  66.3991659  95.9132964 108.0373696
  66.5931423  94.6223831 108.8040466  73.1009867  85.4883942 100.0061350
  72.2910596  85.1431027 100.3816596  73.7894284  85.1791486 100.5948962
  75.0300415  84.5661989 101.6285647  75.5831454  84.9857442 102.2875670
  75.2670502  83.6397737 101.6708603  71.0533515  90.5549062 117.4088411
  70.9530242  91.5043419 117.3400502  70.8355057  90.2267301 116.5364481
  62.2714002  95.8856327 106.2709277  61.5777473  95.4710280 105.7579231
  63.0186993  95.9276864 105.6742696  78.4079223  86.6762514 101.1364311
  77.8277892  87.3347318 100.7542363  78.1415155  85.8539859 100.7251728
  76.8582789  86.0767572 103.3385631  77.3582567  86.1884106 102.5299950
  77.5018397  85.7728625 103.9786440  70.9164785  93.9846201 116.2253472
  70.4331866  94.7846561 116.4317361  71.0025724  93.9954146 115.2720916
  64.1850744  95.8174581 104.1475292  64.1621432  95.9162268 103.1957175
  64.4951381  96.6639732 104.4692458  66.8438122  97.8750736 108.2621906
  67.7981376  97.8434678 108.1951838  66.6450646  97.4141360 109.0772132
  67.4337504  96.4451852 110.8292704  68.2530393  96.9395931 110.8527541
  67.7074312  95.5283820 110.8010271  77.1904101  88.8362604 100.1920659
  76.3029956  89.1212255  99.9740854  77.6058090  88.6756368  99.3447936
  80.5418637  88.8609125 103.9074998  81.3179027  89.3505578 104.1799615
  79.8166771  89.2867180 104.3646868  82.9791195  89.5736745 104.9648939
  83.5735686  89.3332480 104.2542247  83.0517779  88.8543875 105.5922475
  65.1988351 103.4170355 105.2792104  65.0642819 102.6570756 104.7130102
  64.7820413 104.1411255 104.8120893  77.1645124  94.3517140 100.4070949
  77.1080326  94.8085692  99.5678582  77.7173467  93.5907825 100.2293792
  80.9749930  90.1406872 101.2321069  80.7186864  89.7403508 102.0629277
  80.3502798  90.8550666 101.1071208  85.2862268  92.8802945 103.7392360
  84.7261826  92.9496135 104.5123922  84.6805771  92.7043930 103.0191857
  68.3557477 104.3139672 105.4910547  68.2389861 105.2585105 105.3889237
  67.5349923 104.0113234 105.8796346  78.2434011  99.0389808  96.3367139
  79.0779615  98.6071007  96.1544614  78.0818354  98.8671822  97.2644034
  77.8979904  95.5421922  97.7023479  77.8428707  95.3766193  96.7611923
  77.2725959  96.2497954  97.8585668  62.6872419  90.7789986 111.5284901
  63.3331282  90.2688940 112.0172126  62.4789570  91.5158668 112.1028326
  75.2125811  97.8470833 117.0277041  76.0816970  98.0211486 116.6663676
  74.7332562  98.6665250 116.9052771  69.3811991 104.9667934 108.7066475
  70.2839238 104.9991545 109.0232970  69.1549361 104.0368385 108.7212811
  75.0228149  81.6372807 101.5354734  74.2560544  81.0831294 101.6811416
  75.4338854  81.7094676 102.3968885  67.0269910  87.9257603 115.6259915
  67.8901371  87.5694408 115.8363240  66.4535320  87.5871498 116.3135319
  80.8835037 113.4458851 111.2749230  80.5924903 114.3504482 111.1595897
  81.5192021 113.4875379 111.9893300  83.3162932 107.0692452 113.8931359
  82.5396266 107.6286372 113.8834223  83.9553495 107.5549235 114.4146229
  81.5709304 109.8777906 113.4549326  82.3123988 110.4162950 113.1784149
  80.8646289 110.5044194 113.6120877  80.3070668 107.0317554 114.2564636
  79.6769328 107.7133835 114.4900032  80.2006756 106.9200635 113.3117774
  73.8853343 106.9519840 107.6145550  74.1361382 107.8366850 107.8803126
  74.4212891 106.7724442 106.8420642  79.5851410 101.3338320 116.6189887
  79.1918356 100.7804518 117.2937531  80.4017551 101.6448898 117.0096404
  82.5019371 102.7496199 114.2110143  83.2429085 103.3503352 114.1314606
  82.7337294 102.0073837 113.6528186  77.6460709 107.9352566 112.4888373
  77.5314225 107.0337823 112.7895472  76.7905227 108.1816263 112.1373189
  78.8272753 109.1800754 110.1794216  78.6892551 108.4480993 110.7805755
  79.7377677 109.0909654 109.8978404  75.9023109 105.0141939 108.5726529
  75.8181298 104.4067609 107.8376939  75.0805816 105.5050958 108.5736026
  80.4870990 116.1010381 110.7623427  81.1880450 116.7346864 110.9152821
  80.0166105 116.4425112 110.0019066  84.3359849 109.3974799 115.0742015
  83.6600486 109.2968929 115.7444390  85.1587483 109.2414013 115.5378012
  70.6756363 108.2052336 106.4158973  70.7140463 107.6715927 107.2096091
  70.1696656 107.6787542 105.7969950  77.5299398 105.1240009 113.5594549
  78.1571437 104.7417086 114.1732074  76.6727317 104.9054211 113.9250242
  74.4938759 109.6014334 108.6337738  73.9492227 110.3774142 108.7658012
  75.3718109 109.9485138 108.4756859  75.2804781 108.7284230 111.5267895
  74.5386517 108.8766865 112.1132525  74.9597525 108.9892496 110.6634644
  80.7667455 104.4457915 115.2208469  80.8155611 105.3220038 114.8386239
  81.3089970 103.9035308 114.6480112  84.0237331 112.4006740 115.3762881
  84.9440341 112.5785339 115.5702927  83.9886914 111.4562785 115.2242580
  81.8927269 105.8840980 117.4088411  81.7923996 106.8335337 117.3400502
  81.6748811 105.5559219 116.5364481  73.1107756 111.2148245 106.2709277
  72.4171228 110.8002198 105.7579231  73.8580747 111.2568781 105.6742696
  81.7558539 109.3138119 116.2253472  81.2725621 110.1138479 116.4317361
  81.8419478 109.3246064 115.2720916  78.2731259 111.7743770 110.8292704
  79.0924148 112.2687848 110.8527541  78.5468067 110.8575738 110.8010271
  73.5266173 106.1081904 111.5284901  74.1725037 105.5980858 112.0172126
  73.3183324 106.8450585 112.1028326  77.8663664 103.2549521 115.6259915
  78.7295126 102.8986325 115.8363240  77.2929075 102.9163415 116.3135319
  95.0021530 125.9913657 112.3270046  94.9910171 125.5966455 111.4550550
  95.1642170 125.2579729 112.9203818  91.7228791 128.7750769 111.2749230
  91.4318657 129.6796399 111.1595897  92.3585776 128.8167296 111.9893300
  92.6484998 126.1527617 107.8650590  93.2448571 125.9283640 107.1507553
  92.7059970 125.4112363 108.4676038  96.6818677 128.4612184 108.2699024
  96.3819400 129.3637223 108.1614831  96.3369736 128.1944367 109.1220177
  94.1556686 122.3984370 113.8931359  93.3790020 122.9578290 113.8834223
  94.7947249 122.8841153 114.4146229  92.4103058 125.2069823 113.4549326
  93.1517743 125.7454867 113.1784149  91.7040044 125.8336112 113.6120877
  97.8858398 127.3498964 112.0521487  98.2941754 126.9081374 111.3076119
  97.1635660 126.7751591 112.3055680  98.2087213 127.9100154 105.8073776
  97.5796075 128.0745868 105.1049844  97.8212875 128.3241764 106.5784740
 102.0876445 128.8454592 103.1618140 101.4027483 129.2253494 102.6115173
 102.1720294 129.4549919 103.8950087  99.3427376 126.4914551 109.7613483
  99.5544271 127.1346311 109.0847864  99.2957124 125.6576868 109.2935413
  90.6539256 127.1946044 106.0103624  91.2240613 127.6233312 105.3721109
  91.2447367 126.9128629 106.7087810  91.1464422 122.3609471 114.2564636
  90.5163083 123.0425752 114.4900032  91.0400510 122.2492553 113.3117774
 100.4573204 129.3686507 107.9335841 101.2790648 128.9666694 107.6518522
 100.4535607 129.2654741 108.8851956  94.2229808 128.9170550 110.0896551
  94.2874240 129.3790957 110.9254723  93.5140731 128.2867915 110.2178861
 108.5479197 125.7125255 104.2820812 107.7942906 125.1432653 104.1264816
 108.6826738 125.6787920 105.2291447  90.4245165 116.6630237 116.6189887
  90.0312110 116.1096436 117.2937531  91.2411305 116.9740816 117.0096404
  88.4854464 123.2644484 112.4888373  88.3707979 122.3629741 112.7895472
  87.6298982 123.5108180 112.1373189  95.5646302 131.2062224 114.0875873
  95.1210156 130.4198603 113.7696778  96.2263515 131.3941374 113.4219764
  90.3233423 132.7358026 108.6136552  90.8740848 132.6075089 107.8413546
  89.4844899 133.0352915 108.2631445  97.6627540 131.4865024 112.1157275
  97.6446015 132.3073905 111.6237544  98.5847460 131.3619099 112.3407416
  94.1200594 129.0009153 112.9580783  94.6528931 128.2397442 112.7280091
  93.5914675 128.7082805 113.7004938 102.2254846 126.8510185  98.9300033
 101.4484288 126.5121345  98.4855195 102.9046327 126.8562808  98.2554998
 100.4646153 126.3244166 105.5866641  99.8069827 127.0143428 105.6746770
 101.2686552 126.7140598 105.9300628 100.0413408 129.6594540 101.7649726
  99.5875735 128.8185450 101.8214916  99.4107374 130.2955939 102.1024506
 102.6243343 125.8653892 101.3922955 102.4861241 126.0555488 100.4644145
 102.2679562 126.6273275 101.8491006 102.6512722 127.9330419 106.4034227
 103.0849229 127.8405708 107.2517281 103.3644303 127.9087919 105.7654243
  96.3840617 131.5332513 107.9367327  96.4377640 132.1023449 108.7045043
  95.5155399 131.7034398 107.5721365 103.5128272 127.9754119 108.9367112
 103.7064162 128.8799930 109.1826387 103.4128890 127.5161538 109.7705697
  98.5743381 128.1260862 114.5107993  98.4228887 127.8971414 113.5938077
  98.5648060 129.0831464 114.5239338  94.1417049 129.7243439 107.2652797
  94.0028134 129.3562224 108.1378735  93.3531645 130.2391079 107.0936755
  89.6666508 124.5092672 110.1794216  89.5286306 123.7772911 110.7805755
  90.5771431 124.4201572 109.8978404  92.2948809 124.2212631 109.6677896
  93.0048427 123.5805824 109.6264514  92.2518117 124.4725526 110.5904076
 100.2835587 131.1579985 112.5884475 100.2248133 130.4739205 111.9215058
 100.6855106 131.8998975 112.1365101  91.0077743 121.2077849 111.4873535
  90.4715100 120.7568588 112.1395131  90.4194451 121.3423758 110.7443999
 100.2852995 129.1219569 110.8198454  99.3979773 128.7845490 110.9424853
 100.8551546 128.3902600 111.0567220  93.8154148 133.7821021 107.7859698
  93.7424319 134.5875992 108.2979002  93.3731541 133.9812987 106.9607719
 104.7670335 124.5327786 105.5815016 104.7560211 125.4152501 105.2108949
 103.8987714 124.1799337 105.3869553  96.2752831 133.6807855 109.9417856
  96.9880804 134.3155320 109.8693758  95.7842860 133.7771721 109.1257858
 101.3842910 123.4276427 102.0485182 101.8503362 124.2604419 101.9745485
 101.8350410 122.9621408 102.7530441  91.3264745 131.4302298 110.7623427
  92.0274204 132.0638781 110.9152821  90.8559860 131.7717030 110.0019066
  99.1266031 123.9846906 108.5875977  98.4737481 124.2322813 107.9328430
  99.5046411 123.1711044 108.2538455  95.1753604 124.7266717 115.0742015
  94.4994241 124.6260846 115.7444390  95.9981238 124.5705931 115.5378012
  86.9232463 130.9638653 107.6954530  87.5085900 130.2182341 107.8282434
  86.7257301 131.2742610 108.5791194  93.9176387 136.0333644 109.3099631
  94.4694695 136.1965266 110.0748716  94.2582580 136.6238082 108.6379655
  98.7687261 130.8594902 115.1648285  99.3127165 131.4724860 114.6703240
  98.1874106 131.4174480 115.6815298  97.0544774 133.9815620 106.2963313
  96.9295914 133.1805360 105.7874258  97.7123865 134.4761813 105.8077283
  99.1179683 131.7824640 107.9242863  98.1710018 131.6629991 107.8521189
  99.4662456 130.8947138 108.0069124  99.7260238 132.4005915 105.2112088
 100.6506785 132.1948776 105.0736539  99.5575541 132.1522316 106.1201429
 105.3694945 125.6828005 102.1864479 105.8126091 124.9335331 101.7883602
 104.4921455 125.6738142 101.8038211 100.5030726 132.2358347  97.6671077
 101.1981631 132.8565039  97.8858392 100.8453876 131.3853698  97.9423455
  86.1198536 124.0576148 111.5267895  85.3780272 124.2058783 112.1132525
  85.7991280 124.3184413 110.6634644 102.4022149 129.6858052  99.1958408
 102.9273474 130.0245325  98.4707728 102.3144502 128.7505068  99.0121543
  94.0642198 133.5992126 111.3248285  94.3729325 133.3541273 112.1970984
  94.8617680 133.8038764 110.8367155  91.5336682 131.2968045 105.6275963
  90.9116692 130.6338750 105.3278191  92.2041549 131.3229177 104.9449611
  91.6061210 119.7749833 115.2208469  91.6549365 120.6511956 114.8386239
  92.1483724 119.2327226 114.6480112 102.0916056 130.3190956 114.5009606
 101.3011599 130.3015095 113.9614106 101.8549410 130.8579250 115.2558643
 102.2113931 127.1683422 111.8142335 102.2611936 127.0033430 112.7557858
 102.1027854 126.3010681 111.4240216 103.7132127 129.5880364 112.0584356
 103.4216936 129.9510344 112.8947817 103.1004259 128.8747372 111.8797688
 104.9127810 127.1533244 104.5786926 105.7474701 127.5923048 104.7424487
 105.0486939 126.6771897 103.7595172 101.9619316 124.7112978 110.5264414
 102.4373437 124.9040625 109.7183266 101.0384881 124.7672164 110.2807798
 103.1409062 124.8084858 107.8735020 103.1085383 123.8700859 108.0594703
 103.7509686 124.8868895 107.1400844 108.9585612 125.8700865 107.0141056
 109.6889001 125.6086153 107.5748760 108.3492558 125.1329587 107.0543124
  94.8631086 127.7298657 115.3762881  95.7834095 127.9077256 115.5702927
  94.8280669 126.7854703 115.2242580  87.8593158 125.6399692 108.0185662
  88.0779168 126.5716800 108.0373696  88.2718932 125.2807666 108.8040466
  92.7321024 121.2132898 117.4088411  92.6317751 122.1627255 117.3400502
  92.5142566 120.8851137 116.5364481  92.5952294 124.6430037 116.2253472
  92.1119375 125.4430397 116.4317361  92.6813233 124.6537981 115.2720916
  88.5225631 128.5334571 108.2621906  89.4768885 128.5018514 108.1951838
  88.3238155 128.0725195 109.0772132  89.1125013 127.1035687 110.8292704
  89.9317902 127.5979766 110.8527541  89.3861821 126.1867656 110.8010271
  86.8775860 134.0754191 105.2792104  86.7430328 133.3154592 104.7130102
  86.4607922 134.7995091 104.8120893 106.9649777 123.5386781 103.7392360
 106.4049335 123.6079970 104.5123922 106.3593280 123.3627765 103.0191857
  96.8913320 128.5054669 117.0277041  97.7604479 128.6795321 116.6663676
  96.4120071 129.3249086 116.9052771  91.0599500 135.6251770 108.7066475
  91.9626747 135.6575380 109.0232970  90.8336870 134.6952221 108.7212811
  88.7057419 118.5841438 115.6259915  89.5688880 118.2278243 115.8363240
  88.1322829 118.2455333 116.3135319 108.5505796 140.2143295 106.4322316
 109.1884205 140.0950042 105.7285656 108.4326638 141.1624139 106.4910268
 105.3595502 140.1670723 106.3683841 105.0214013 140.0511787 105.4804376
 106.2285270 139.7661888 106.3484847 101.2182318 142.0206199 102.3580732
 100.6547183 141.9296136 101.5897019 101.1034713 141.2006104 102.8383224
 105.8415285 141.3205575 112.3270046 105.8303926 140.9258373 111.4550550
 106.0035924 140.5871647 112.9203818  98.7646749 143.5157391 105.1964952
  99.5568041 143.1748215 104.7811251  99.0043400 143.6252366 106.1167105
 106.7981876 145.6877167  97.6695197 106.1469856 146.2731247  97.2829210
 107.5926239 146.2183362  97.7290234 100.7237503 142.7766304  98.0682331
 101.4968379 142.2295291  97.9295207 101.0762902 143.6410553  98.2796792
 102.5622546 144.1042686 111.2749230 102.2712412 145.0088317 111.1595897
 103.1979530 144.1459214 111.9893300 103.4878753 141.4819535 107.8650590
 104.0842325 141.2575557 107.1507553 103.5453724 140.7404280 108.4676038
 103.0603781 138.9358970  95.7000781 103.3129302 138.4140491  94.9384244
 102.1228340 138.7725116  95.8027464 108.1047064 137.9394749 103.5075524
 108.8910153 137.5214172 103.1565941 108.3685768 138.8440841 103.6757172
 108.2757141 143.3767599  98.2064181 107.6402974 143.4502225  98.9185086
 107.9454548 143.9661198  97.5283260 113.5055491 137.8769982 104.4108503
 114.2380663 137.3069199 104.6446332 112.7494847 137.4891582 104.8515008
 102.7800070 140.8387076  97.9025156 102.6636328 140.1631979  98.5706240
 102.8902330 140.3519450  97.0857309 105.1231611 140.2997223 101.6071845
 104.7589818 139.7727844 102.3184766 105.9798727 139.9095692 101.4338330
 111.0280911 131.5891556 108.8703111 110.6964236 132.4586967 108.6464326
 110.4326525 131.2727840 109.5497142 104.7637098 135.3287123  96.6033194
 104.9311500 136.1967359  96.9703665 104.5734267 135.4914405  95.6794483
 107.5212431 143.7904102 108.2699024 107.2213154 144.6929141 108.1614831
 107.1763491 143.5236285 109.1220177 100.9724913 140.2417899 104.3035728
 100.0475409 140.1094113 104.5113420 101.2209326 141.0212118 104.8005671
 110.9209575 136.3086642 105.9496461 110.0126452 136.2402050 105.6555222
 110.8697171 136.7858587 106.7778287 104.7426319 137.7844780  97.5879860
 104.6225944 138.2301831  98.4265341 104.0478907 138.1330098  97.0293399
  98.3333724 139.8851172 105.1379517  98.4626105 140.1385651 106.0518929
  97.6531175 140.4778880 104.8184172 102.5033211 150.5548422 101.2369992
 102.4257241 151.5056247 101.3158472 101.8994854 150.2094295 101.8944918
 104.9950441 137.7276288 113.8931359 104.2183775 138.2870208 113.8834223
 105.6341004 138.2133071 114.4146229 112.7871221 134.5103080 107.7274335
 112.1445601 134.8035614 107.0814130 112.2826150 134.3956001 108.5327532
 110.4411385 138.2566254  98.4160194 111.3529241 138.4893640  98.2407892
 109.9321032 138.8403298  97.8535273 103.2496813 140.5361741 113.4549326
 103.9911497 141.0746785 113.1784149 102.5433798 141.1628030 113.6120877
 108.7252153 142.6790881 112.0521487 109.1335509 142.2373292 111.3076119
 108.0029414 142.1043509 112.3055680 105.0783223 137.6163488 109.4255044
 105.9244418 138.0402902 109.5689693 105.0181860 136.9597113 110.1193607
 109.0480967 143.2392072 105.8073776 108.4189830 143.4037786 105.1049844
 108.6606629 143.6533682 106.5784740 112.9270199 144.1746510 103.1618140
 112.2421237 144.5545411 102.6115173 113.0114048 144.7841837 103.8950087
 108.2282668 135.2767857 111.0836218 107.9843600 136.0309917 110.5470493
 108.5042598 135.6553204 111.9183465 110.1821131 141.8206469 109.7613483
 110.3938026 142.4638229 109.0847864 110.1350879 140.9868785 109.2935413
 107.7847360 134.4324290 106.6650055 106.9231839 134.7305543 106.9566793
 107.8109794 134.6494688 105.7331088 104.6008929 142.9766480 103.0723861
 105.0647275 143.2554183 102.2828483 104.3365727 142.0749925 102.8896952
 101.4933010 142.5237962 106.0103624 102.0634367 142.9525230 105.3721109
 102.0841122 142.2420546 106.7087810 103.5377815 139.0989633  99.8813426
 104.2401858 139.5510676 100.3487352 103.2058444 138.4573451 100.5093319
 101.9858177 137.6901389 114.2564636 101.3556837 138.3717670 114.4900032
 101.8794265 137.5784471 113.3117774  97.2803149 137.3573185 105.1830560
  96.4902203 137.6130714 104.7070670  97.7714396 138.1721523 105.2882600
 111.2966959 144.6978424 107.9335841 112.1184402 144.2958612 107.6518522
 111.2929362 144.5946659 108.8851956  99.2317894 137.7217764 102.1414036
  98.4349058 137.8336459 102.6597532  99.0043487 138.0604417 101.2754927
 105.0623562 144.2462468 110.0896551 105.1267995 144.7082875 110.9254723
 104.3534486 143.6159833 110.2178861  95.5640852 137.6103676 107.6145550
  95.8148890 138.4950686 107.8803126  96.1000400 137.4308277 106.8420642
 119.3872952 141.0417173 104.2820812 118.6336660 140.4724571 104.1264816
 119.5220493 141.0079837 105.2291447 104.7771580 145.9130575  99.9575531
 104.6417255 146.7582111 100.3860379 105.3181392 146.1149853  99.1941465
 101.2638919 131.9922155 116.6189887 100.8705865 131.4388354 117.2937531
 102.0805060 132.3032733 117.0096404  98.2300977 143.4306013 100.5303456
  98.7425498 144.2249263 100.6809021  98.8823690 142.7332304 100.4637058
 100.0395862 146.5471769 102.6126210 100.2162490 147.4689734 102.4247193
 100.8352695 146.2330189 103.0420589 104.1806880 133.4080034 114.2110143
 104.9216594 134.0087187 114.1314606 104.4124803 132.6657672 113.6528186
  99.3248218 138.5936401 112.4888373  99.2101734 137.6921659 112.7895472
  98.4692736 138.8400098 112.1373189 106.4040056 146.5354142 114.0875873
 105.9603910 145.7490520 113.7696778 107.0657270 146.7233292 113.4219764
 101.1627177 148.0649943 108.6136552 101.7134602 147.9367007 107.8413546
 100.3238653 148.3644832 108.2631445 108.5021294 146.8156942 112.1157275
 108.4839770 147.6365823 111.6237544 109.4241214 146.6911017 112.3407416
 104.9594348 144.3301071 112.9580783 105.4922685 143.5689359 112.7280091
 104.4308429 144.0374723 113.7004938 108.1264043 129.4361137 108.4874425
 107.7828313 130.3262779 108.4113535 108.4943006 129.2462795 107.6244010
 108.0914326 139.4269748  96.9946860 107.5760949 140.1974353  97.2335247
 107.8191634 138.7534884  97.6179921 105.6761437 134.2719449 102.0532098
 104.8203033 133.8826299 101.8737737 106.0888389 134.3511410 101.1931884
 107.2060584 131.8065792 106.4523658 106.7025379 131.7695927 105.6391463
 107.4991191 132.7158535 106.5120315 103.4503470 131.8904522 105.4589840
 104.3156466 131.6947331 105.0995729 103.5180978 131.6614874 106.3859197
 113.0648600 142.1802103  98.9300033 112.2878043 141.8413262  98.4855195
 113.7440081 142.1854726  98.2554998 107.8800629 137.2996840  98.8206641
 107.5750765 137.6142989  99.6716784 108.8331071 137.3778260  98.8633974
 106.3247061 143.4587064 100.4699595 105.7968423 142.7239823 100.1572833
 105.8234564 144.2361740 100.2239563 111.3039907 141.6536084 105.5866641
 110.6463582 142.3435345 105.6746770 112.1080306 142.0432516 105.9300628
 101.0565789 134.1206730 102.8306207 101.6309541 133.8981911 102.0979400
 101.6436771 134.1895424 103.5834808 110.1145366 140.0080457 103.6370583
 110.6277248 140.6410449 104.1392293 110.7646590 139.4081652 103.2713943
 101.3835376 136.1511191  96.8502092 100.5472688 136.4885877  97.1711367
 101.2440145 136.0160171  95.9129229 103.3588456 130.9947979 101.5581276
 102.7052869 130.6796996 100.9337891 103.3168931 130.3723719 102.2841099
 104.4699661 141.2767274  93.4734568 103.5626723 141.0456527  93.6725717
 104.9670693 140.4804893  93.6608550 107.3767740 149.9864781  96.3931254
 106.7029439 150.2896478  97.0016212 107.7633562 150.7893861  96.0436711
 106.5926197 137.4829912 105.8828924 105.6748758 137.7044859 105.7250612
 107.0086340 137.5576223 105.0240631 107.3761244 138.8821328 101.0131604
 108.1233063 139.3942725 100.7038726 107.6452834 138.5605381 101.8735997
 105.6487895 141.3779869  97.9958558 104.7399114 141.0938901  98.0931028
 105.6782978 141.7978947  97.1361865 110.8807162 144.9886458 101.7649726
 110.4269489 144.1477368 101.8214916 110.2501129 145.6247857 102.1024506
 109.8240082 135.9178444 102.9950393 109.0862838 135.4055830 103.3260636
 110.0766855 135.4778826 102.1833670 109.3240101 146.8262955 102.6999544
 109.6163076 147.3868012 101.9811910 109.8338722 147.1191516 103.4552703
 109.9251709 128.6954696 103.5892162 110.2310586 127.8352060 103.3018078
 110.6504314 129.2872316 103.3891156 104.1972789 138.9908489 104.0968354
 104.2521398 138.0382326 104.0210830 103.3863991 139.1467928 104.5809652
 105.3463982 142.9188612  95.3346637 104.9083412 142.2024471  94.8752274
 106.0874423 143.1464727  94.7731728 102.1365149 137.6085549 101.8558732
 101.3233014 137.9079720 102.2623925 102.6324143 137.2141238 102.5733215
 104.2873727 147.6043306 103.7892997 104.2449905 147.8304152 102.8601529
 105.2036425 147.3706681 103.9378798 107.7339360 138.0727373 110.6873626
 108.0888748 138.2998847 111.5468092 108.3811492 138.4045750 110.0650882
 113.4637097 141.1945809 101.3922955 113.3254996 141.3847405 100.4644145
 113.1073316 141.9565192 101.8491006 101.6279223 135.1803905 107.4719967
 102.2678603 135.0392664 106.7742931 100.7956754 134.8938418 107.0958569
 113.4906477 143.2622336 106.4034227 113.9242984 143.1697625 107.2517281
 114.2038058 143.2379837 105.7654243 102.4039527 144.4806335 103.5854960
 103.1980126 143.9856655 103.3837535 101.6931220 143.9524198 103.2222665
 107.2234372 146.8624430 107.9367327 107.2771394 147.4315367 108.7045043
 106.3549153 147.0326316 107.5721365  98.7122291 138.6249417  99.6614713
  97.7819879 138.5633872  99.8784675  98.8079763 138.1025369  98.8651354
  98.6307840 135.1504230 102.2492954  98.8914657 136.0649563 102.1402115
  99.4525012 134.6828672 102.3989567 100.1032765 136.5641987 109.4191779
 100.7755819 136.3559349 108.7704428  99.2762552 136.3664073 108.9797011
 114.3522026 143.3046037 108.9367112 114.5457917 144.2091848 109.1826387
 114.2522645 142.8453456 109.7705697 106.0058337 133.1903928 111.4357440
 105.3586252 133.8893877 111.3421916 106.7759353 133.6240072 111.8033688
 109.4137135 143.4552780 114.5107993 109.2622642 143.2263331 113.5938077
 109.4041815 144.4123381 114.5239338 106.1822472 141.0284693 109.4954259
 107.1114532 141.1795852 109.3223227 105.7613502 141.1168713 108.6402906
 104.9810803 145.0535357 107.2652797 104.8421889 144.6854141 108.1378735
 104.1925400 145.5682996 107.0936755 105.5758955 150.1544453  98.6078333
 105.7510711 149.6832497  99.4223956 104.8891743 150.7810220  98.8359594
 106.5316018 144.4316960 104.6541635 106.1965851 144.3917730 105.5499285
 106.0319964 143.7661676 104.1812045 100.5060262 139.8384590 110.1794216
 100.3680060 139.1064828 110.7805755 101.4165186 139.7493490 109.8978404
 109.4675210 141.7772994  94.9278694 108.8504381 141.0519822  94.8311747
 108.9991699 142.5382354  94.5845769 103.1342563 139.5504549 109.6677896
 103.8442182 138.9097741 109.6264514 103.0911871 139.8017444 110.5904076
 111.1229342 146.4871902 112.5884475 111.0641888 145.8031122 111.9215058
 111.5248860 147.2290892 112.1365101 101.8471497 136.5369767 111.4873535
 101.3108854 136.0860505 112.1395131 101.2588205 136.6715676 110.7443999
 100.1420041 153.3033816 105.3818194 100.3816639 153.9352340 106.0597212
  99.2989237 152.9521856 105.6683553 101.2573756 135.9958418  94.0499999
 100.3803222 135.8747219  93.6862245 101.7331509 135.2044497  93.7978887
 111.1246749 144.4511486 110.8198454 110.2373528 144.1137408 110.9424853
 111.6945300 143.7194517 111.0567220  97.5810618 135.6725775 108.5726529
  97.4968807 135.0651444 107.8376939  96.7593325 136.1634793 108.5736026
 104.6547902 149.1112939 107.7859698 104.5818074 149.9167910 108.2979002
 104.2125296 149.3104904 106.9607719 104.4437682 148.3484709 101.2962519
 103.6605204 148.8906389 101.3900744 105.1430427 148.8658688 101.6956760
 107.7534332 134.1579338 103.9396725 108.2503032 133.4049300 103.6197795
 106.9821314 134.1943655 103.3739934 115.6064090 139.8619704 105.5815016
 115.5953966 140.7444419 105.2108949 114.7381469 139.5091254 105.3869553
 107.1146586 149.0099773 109.9417856 107.8274558 149.6447237 109.8693758
 106.6236615 149.1063639 109.1257858 108.8364113 142.9151025 101.5135148
 107.9020392 143.0352488 101.3439852 109.0140781 142.0123492 101.2495158
 104.3369301 136.2996721 103.6668409 103.9667088 135.7467761 104.3549315
 104.8328393 135.6954855 103.1143409 112.2236664 138.7568345 102.0485182
 112.6897116 139.5896336 101.9745485 112.6744165 138.2913326 102.7530441
 102.1658499 146.7594216 110.7623427 102.8667959 147.3930699 110.9152821
 101.6953614 147.1008948 110.0019066 110.2912895 145.1012166  99.0471334
 110.5672739 144.9868760  99.9565208 109.4217394 144.7029651  99.0083507
 110.1953327 131.1248932 106.0876083 109.2816407 131.3553158 106.2558290
 110.6246428 131.2087376 106.9390116 109.9659785 139.3138824 108.5875977
 109.3131236 139.5614731 107.9328430 110.3440165 138.5002962 108.2538455
 106.9266959 149.3498517 102.6904148 107.1089354 148.5320173 103.1531900
 107.7499945 149.5666209 102.2529038 107.2609125 148.2766702  99.9519196
 107.7896891 147.7659156  99.3389358 107.5237344 147.9609232 100.8164729
 106.0147358 140.0558635 115.0742015 105.3387995 139.9552764 115.7444390
 106.8374992 139.8997848 115.5378012  97.7626218 146.2930571 107.6954530
  98.3479654 145.5474259 107.8282434  97.5651056 146.6034528 108.5791194
 100.6164873 149.3281819 102.7116972  99.9475248 149.8127946 102.2281012
 100.4777742 149.5751039 103.6260351 104.7570141 151.3625562 109.3099631
 105.3088449 151.5257184 110.0748716 105.0976335 151.9530000 108.6379655
  99.7334635 133.7100712 109.9121515  99.7975961 134.5715543 109.4998913
  99.6701755 133.0974714 109.1793874  99.2086907 135.7823844 113.5594549
  99.8358946 135.4000922 114.1732074  98.3514826 135.5638046 113.9250242
 109.6081016 146.1886820 115.1648285 110.1520920 146.8016778 114.6703240
 109.0267861 146.7466398 115.6815298 107.8938529 149.3107538 106.2963313
 107.7689668 148.5097277 105.7874258 108.5517620 149.8053731 105.8077283
  99.5146697 135.6656270 105.4740453  98.7933283 136.2792238 105.3347926
 100.3039953 136.2014035 105.3957099 109.9573437 147.1116558 107.9242863
 109.0103773 146.9921909 107.8521189 110.3056210 146.2239056 108.0069124
 102.3173010 133.0010697 111.7481105 102.8407412 133.2472993 112.5107414
 102.0985344 133.8330731 111.3284242 106.9619870 146.9069274 104.1247215
 106.8144833 145.9785981 104.3054785 107.7873364 146.9289365 103.6404290
 100.8282115 135.5587341  99.9827707 101.1678187 136.0873262  99.2606315
 101.2754235 135.8967747 100.7586274 110.5653992 147.7297833 105.2112088
 111.4900540 147.5240694 105.0736539 110.3969296 147.4814234 106.1201429
 103.5225555 133.9424392 109.4330775 103.1822376 133.1432205 109.8351455
 102.8164562 134.2426103 108.8607608 104.1742027 131.0273704 107.8858098
 104.9968097 130.5534182 107.7636989 104.4180091 131.8064188 108.3856784
 102.8150262 134.0561963  98.1821000 103.5358624 134.4343215  97.6784717
 102.1915566 134.7750839  98.2855978 106.9581385 134.7607112  99.1179332
 107.1744999 135.6431749  98.8168160 106.4775452 134.3693325  98.3884974
 101.6980606 137.7192825 105.6950077 101.5525187 138.0333128 106.5874358
 101.2205810 138.3377725 105.1420975 103.5576989 134.7095373 105.7430966
 103.5438558 133.8136466 105.4063264 104.2749417 134.7166036 106.3769252
 105.4103120 135.1432713 107.7884094 105.1520897 136.0649784 107.7868424
 104.8788160 134.7463147 108.4784558 110.3549308 148.2483500 100.5674179
 110.5286186 147.6829923  99.8148032 110.8478200 149.0484395 100.3853669
 102.9613885 133.5909753 101.0118537 103.0829796 132.6626399 101.2109424
 102.6715927 133.6048439 100.0996852 105.8305075 131.2764663 104.1485256
 105.8526772 131.3403997 103.1937236 106.2473134 130.4369172 104.3425763
 116.2088700 141.0119923 102.1864479 116.6519846 140.2627248 101.7883602
 115.3315210 141.0030059 101.8038211 111.3424481 147.5650264  97.6671077
 112.0375385 148.1856957  97.8858392 111.6847631 146.7145616  97.9423455
  96.9592290 139.3868065 111.5267895  96.2174026 139.5350701 112.1132525
  96.6385034 139.6476331 110.6634644 113.2415904 145.0149970  99.1958408
 113.7667228 145.3537243  98.4707728 113.1538257 144.0796985  99.0121543
 104.9035953 148.9284044 111.3248285 105.2123079 148.6833190 112.1970984
 105.7011435 149.1330682 110.8367155 104.9256565 151.0821953 103.5553661
 104.4861555 150.5898332 104.2486518 105.6764682 150.5394921 103.3145737
  97.4048904 147.2733494 103.5578289  98.2306924 146.9737266 103.1776933
  97.0542956 146.5041117 104.0068078 102.3730437 146.6259962 105.6275963
 101.7510446 145.9630667 105.3278191 103.0435304 146.6521094 104.9449611
  95.6057509 145.1919821 104.5167223  94.7689417 144.7641995 104.3351224
  95.5781154 145.3852264 105.4538014 102.4454964 135.1041750 115.2208469
 102.4943120 135.9803873 114.8386239 102.9877479 134.5619143 114.6480112
 112.9309810 145.6482874 114.5009606 112.1405354 145.6307012 113.9614106
 112.6943165 146.1871167 115.2558643 113.0507685 142.4975340 111.8142335
 113.1005690 142.3325347 112.7557858 112.9421608 141.6302599 111.4240216
 101.9343944 145.1763886  99.1034424 102.0832064 145.8599350  98.4501096
 102.7410387 145.1568976  99.6183879 110.3411447 138.4806268 113.1301641
 111.2421310 138.3412733 112.8385639 110.4159422 138.6460723 114.0699819
 104.6754253 135.8573123 111.9754828 103.8057562 136.1506689 111.7037416
 104.9113733 136.4413568 112.6962091 114.5525882 144.9172282 112.0584356
 114.2610690 145.2802262 112.8947817 113.9398013 144.2039290 111.8797688
 115.7521564 142.4825161 104.5786926 116.5868456 142.9214965 104.7424487
 115.8880693 142.0063815 103.7595172 112.8013070 140.0404896 110.5264414
 113.2767192 140.2332542 109.7183266 111.8778636 140.0964082 110.2807798
  99.6896577 141.2029063 100.1095493  99.4442619 140.2991393 100.3075703
  99.8592491 141.2046214  99.1674971 107.3793287 132.0752740 109.4920248
 107.8975230 132.8113767 109.1666737 107.0248419 132.3816733 110.3267007
  98.9592224 136.9357421  97.6081654  98.2661469 137.0101776  96.9521690
  98.7143976 136.1717765  98.1303171 107.6305881 128.4953022 105.0121145
 107.9107635 127.8276211 105.6381571 108.4156488 128.6882118 104.4995809
 105.4339349 147.6712016  96.5746171 104.8613316 148.2902203  96.1216643
 106.0072143 148.2211378  97.1086093 111.5014739 136.9170656 108.7592720
 112.4532162 137.0168754 108.7804944 111.3318190 136.1248925 109.2690804
 109.5229119 134.0026239 108.9452121 108.9279051 134.2831252 108.2498609
 109.2378815 134.4920140 109.7168862 108.6536609 147.9549166  97.7054753
 109.5867282 147.8894728  97.9087629 108.5659822 148.7905433  97.2469286
 111.2824626 147.2715037  94.6658701 111.2038257 146.9374900  95.5594459
 112.1034293 147.7636805  94.6650173 113.9802817 140.1376776 107.8735020
 113.9479137 139.1992777 108.0594703 114.5903441 140.2160813 107.1400844
 105.8186148 139.0072829  93.9162224 106.7645253 138.8779037  93.9850642
 105.4400393 138.2687491  94.3931652 114.1297305 136.9287819 107.9193303
 113.6136354 136.1446276 107.7323232 115.0137254 136.6006536 108.0839822
 111.7908032 130.6728835 103.8789115 111.5932853 130.3643923 104.7632447
 112.4007738 131.3990474 104.0087045 119.7979367 141.1992783 107.0141056
 120.5282755 140.9378071 107.5748760 119.1886312 140.4621505 107.0543124
 117.8794664 139.3400645 107.6115508 117.1527827 139.2056610 107.0031999
 117.4641951 139.6477474 108.4172226 105.7024840 143.0590575 115.3762881
 106.6227850 143.2369174 115.5702927 105.6674423 142.1146620 115.2242580
 104.0029065 136.9322805  93.8517109 103.0960520 136.6355918  93.9279822
 104.2805046 136.6352623  92.9851395  98.6986913 140.9691610 108.0185662
  98.9172923 141.9008718 108.0373696  99.1112687 140.6099584 108.8040466
 105.6191131 131.4759695 100.0061350 104.8091859 131.1306780 100.3816596
 106.3075548 131.1667239 100.5948962 107.5481679 130.5537742 101.6285647
 108.1012718 130.9733195 102.2875670 107.7851765 129.6273490 101.6708603
 103.5714778 136.5424815 117.4088411 103.4711505 137.4919172 117.3400502
 103.3536320 136.2143054 116.5364481 102.7727850 133.7909741  93.9929088
 103.6347014 134.1164639  94.2524905 102.9578194 133.0041236  93.4802154
 110.9260486 132.6638267 101.1364311 110.3459155 133.3223071 100.7542363
 110.6596419 131.8415612 100.7251728 109.3764052 132.0643325 103.3385631
 109.8763831 132.1759859 102.5299950 110.0199660 131.7604378 103.9786440
 103.4346048 139.9721954 116.2253472 102.9513130 140.7722314 116.4317361
 103.5206987 139.9829899 115.2720916  99.3619386 143.8626489 108.2621906
 100.3162639 143.8310431 108.1951838  99.1631909 143.4017113 109.0772132
  99.9518768 142.4327605 110.8292704 100.7711657 142.9271684 110.8527541
 100.2255576 141.5159573 110.8010271 109.7085364 134.8238357 100.1920659
 108.8211219 135.1088008  99.9740854 110.1239353 134.6632121  99.3447936
 113.0599900 134.8484878 103.9074998 113.8360290 135.3381331 104.1799615
 112.3348034 135.2742933 104.3646868 115.4972459 135.5612498 104.9648939
 116.0916950 135.3208234 104.2542247 115.5699043 134.8419628 105.5922475
  97.7169615 149.4046109 105.2792104  97.5824082 148.6446509 104.7130102
  97.3001677 150.1287008 104.8120893 108.8528578 144.5883032  94.2868679
 109.5564428 144.7933035  94.9026335 108.1291226 145.1559794  94.5517763
 109.6826388 140.3392893 100.4070949 109.6261589 140.7961445  99.5678582
 110.2354730 139.5783578 100.2293792 113.4931194 136.1282625 101.2321069
 113.2368128 135.7279261 102.0629277 112.8684062 136.8426419 101.1071208
 117.8043532 138.8678698 103.7392360 117.2443090 138.9371888 104.5123922
 117.1987035 138.6919683 103.0191857 100.8738740 150.3015426 105.4910547
 100.7571125 151.2460858 105.3889237 100.0531187 149.9988987 105.8796346
 110.7615275 145.0265561  96.3367139 111.5960879 144.5946760  96.1544614
 110.5999618 144.8547575  97.2644034 110.4161167 141.5297675  97.7023479
 110.3609971 141.3641946  96.7611923 109.7907222 142.2373707  97.8585668
  95.2053682 136.7665739 111.5284901  95.8512546 136.2564693 112.0172126
  94.9970833 137.5034421 112.1028326 107.7307074 143.8346586 117.0277041
 108.5998234 144.0087239 116.6663676 107.2513826 144.6541003 116.9052771
 103.7257293 131.0305784  97.2808797 103.7135962 131.9747623  97.4377068
 104.6180714 130.8475929  96.9868258 101.8993255 150.9543687 108.7066475
 102.8020501 150.9867298 109.0232970 101.6730625 150.0244138 108.7212811
 103.6546857 149.7074674 105.3676554 102.7042488 149.7076536 105.2540926
 103.9579343 148.9607409 104.8512588 107.5409412 127.6248560 101.5354734
 106.7741808 127.0707047 101.6811416 107.9520117 127.6970429 102.3968885
  99.5451173 133.9133356 115.6259915 100.4082635 133.5570161 115.8363240
  98.9716584 133.5747251 116.3135319 119.3899550 155.5435212 106.4322316
 120.0277960 155.4241960 105.7285656 119.2720393 156.4916056 106.4910268
 116.1989256 155.4962640 106.3683841 115.8607768 155.3803705 105.4804376
 117.0679025 155.0953806 106.3484847 112.0576072 157.3498117 102.3580732
 111.4940937 157.2588054 101.5897019 111.9428467 156.5298021 102.8383224
 116.6809039 156.6497492 112.3270046 116.6697680 156.2550290 111.4550550
 116.8429679 155.9163565 112.9203818 109.6040504 158.8449308 105.1964952
 110.3961796 158.5040133 104.7811251 109.8437154 158.9544284 106.1167105
 111.5631258 158.1058222  98.0682331 112.3362134 157.5587209  97.9295207
 111.9156657 158.9702471  98.2796792 113.4016300 159.4334604 111.2749230
 113.1106166 160.3380235 111.1595897 114.0373285 159.4751132 111.9893300
 114.3272507 156.8111453 107.8650590 114.9236080 156.5867475 107.1507553
 114.3847479 156.0696198 108.4676038 113.8997536 154.2650888  95.7000781
 114.1523056 153.7432409  94.9384244 112.9622095 154.1017033  95.8027464
 118.9440819 153.2686666 103.5075524 119.7303908 152.8506089 103.1565941
 119.2079523 154.1732758 103.6757172 119.1150896 158.7059517  98.2064181
 118.4796729 158.7794143  98.9185086 118.7848302 159.2953115  97.5283260
 124.3449246 153.2061899 104.4108503 125.0774418 152.6361116 104.6446332
 123.5888601 152.8183500 104.8515008 113.6193824 156.1678994  97.9025156
 113.5030083 155.4923897  98.5706240 113.7296084 155.6811368  97.0857309
 115.9625365 155.6289141 101.6071845 115.5983573 155.1019762 102.3184766
 116.8192481 155.2387610 101.4338330 121.8674666 146.9183474 108.8703111
 121.5357991 147.7878884 108.6464326 121.2720279 146.6019758 109.5497142
 115.6030852 150.6579041  96.6033194 115.7705255 151.5259277  96.9703665
 115.4128021 150.8206322  95.6794483 118.3606186 159.1196019 108.2699024
 118.0606909 160.0221058 108.1614831 118.0157245 158.8528203 109.1220177
 111.8118667 155.5709816 104.3035728 110.8869163 155.4386030 104.5113420
 112.0603080 156.3504036 104.8005671 121.7603329 151.6378560 105.9496461
 120.8520207 151.5693968 105.6555222 121.7090925 152.1150505 106.7778287
 115.5820073 153.1136698  97.5879860 115.4619698 153.5593749  98.4265341
 114.8872662 153.4622016  97.0293399 109.1727478 155.2143090 105.1379517
 109.3019859 155.4677569 106.0518929 108.4924929 155.8070798 104.8184172
 115.8344195 153.0568205 113.8931359 115.0577529 153.6162125 113.8834223
 116.4734758 153.5424988 114.4146229 123.6264976 149.8394998 107.7274335
 122.9839356 150.1327531 107.0814130 123.1219904 149.7247918 108.5327532
 121.2805139 153.5858171  98.4160194 122.1922995 153.8185558  98.2407892
 120.7714786 154.1695215  97.8535273 114.0890567 155.8653659 113.4549326
 114.8305252 156.4038703 113.1784149 113.3827553 156.4919947 113.6120877
 115.9176977 152.9455406 109.4255044 116.7638172 153.3694819 109.5689693
 115.8575615 152.2889030 110.1193607 119.8874722 158.5683990 105.8073776
 119.2583584 158.7329704 105.1049844 119.5000384 158.9825599 106.5784740
 119.0676422 150.6059774 111.0836218 118.8237354 151.3601835 110.5470493
 119.3436353 150.9845122 111.9183465 121.0214885 157.1498387 109.7613483
 121.2331780 157.7930146 109.0847864 120.9744633 156.3160703 109.2935413
 118.6241114 149.7616207 106.6650055 117.7625593 150.0597461 106.9566793
 118.6503549 149.9786606 105.7331088 115.4402684 158.3058398 103.0723861
 115.9041029 158.5846101 102.2828483 115.1759482 157.4041842 102.8896952
 112.3326765 157.8529879 106.0103624 112.9028122 158.2817148 105.3721109
 112.9234876 157.5712464 106.7087810 114.3771570 154.4281550  99.8813426
 115.0795613 154.8802594 100.3487352 114.0452198 153.7865369 100.5093319
 112.8251931 153.0193307 114.2564636 112.1950592 153.7009588 114.4900032
 112.7188019 152.9076388 113.3117774 108.1196904 152.6865103 105.1830560
 107.3295958 152.9422631 104.7070670 108.6108151 153.5013441 105.2882600
 110.0711649 153.0509682 102.1414036 109.2742812 153.1628376 102.6597532
 109.8437241 153.3896334 101.2754927 115.9017317 159.5754385 110.0896551
 115.9661749 160.0374793 110.9254723 115.1928240 158.9451750 110.2178861
 106.4034607 152.9395593 107.6145550 106.6542645 153.8242603 107.8803126
 106.9394155 152.7600195 106.8420642 115.6165334 161.2422493  99.9575531
 115.4811009 162.0874029 100.3860379 116.1575147 161.4441770  99.1941465
 112.1032674 147.3214073 116.6189887 111.7099619 146.7680271 117.2937531
 112.9198814 147.6324651 117.0096404 109.0694732 158.7597931 100.5303456
 109.5819252 159.5541181 100.6809021 109.7217444 158.0624221 100.4637058
 110.8789616 161.8763687 102.6126210 111.0556245 162.7981652 102.4247193
 111.6746450 161.5622106 103.0420589 115.0200635 148.7371952 114.2110143
 115.7610348 149.3379105 114.1314606 115.2518558 147.9949590 113.6528186
 110.1641973 153.9228319 112.4888373 110.0495488 153.0213576 112.7895472
 109.3086491 154.1692016 112.1373189 112.0020932 163.3941861 108.6136552
 112.5528357 163.2658924 107.8413546 111.1632408 163.6936750 108.2631445
 118.9657798 144.7653055 108.4874425 118.6222067 145.6554696 108.4113535
 119.3336760 144.5754712 107.6244010 107.0343648 157.0886585 101.3063027
 107.8718870 157.4983594 101.0896735 107.2121916 156.1486027 101.2763221
 118.9308081 154.7561666  96.9946860 118.4154704 155.5266270  97.2335247
 118.6585389 154.0826802  97.6179921 116.5155192 149.6011367 102.0532098
 115.6596788 149.2118217 101.8737737 116.9282143 149.6803327 101.1931884
 118.0454338 147.1357710 106.4523658 117.5419134 147.0987845 105.6391463
 118.3384945 148.0450453 106.5120315 114.2897224 147.2196440 105.4589840
 115.1550221 147.0239248 105.0995729 114.3574733 146.9906791 106.3859197
 118.7194384 152.6288758  98.8206641 118.4144519 152.9434907  99.6716784
 119.6724826 152.7070178  98.8633974 117.1640816 158.7878981 100.4699595
 116.6362177 158.0531741 100.1572833 116.6628318 159.5653658 100.2239563
 122.1433662 156.9828002 105.5866641 121.4857336 157.6727263 105.6746770
 122.9474061 157.3724434 105.9300628 111.8959543 149.4498647 102.8306207
 112.4703295 149.2273829 102.0979400 112.4830526 149.5187342 103.5834808
 120.9539120 155.3372374 103.6370583 121.4671002 155.9702366 104.1392293
 121.6040344 154.7373570 103.2713943 112.2229130 151.4803109  96.8502092
 111.3866443 151.8177795  97.1711367 112.0833900 151.3452088  95.9129229
 114.1982211 146.3239896 101.5581276 113.5446623 146.0088914 100.9337891
 114.1562685 145.7015637 102.2841099 115.3093416 156.6059191  93.4734568
 114.4020477 156.3748445  93.6725717 115.8064448 155.8096811  93.6608550
 117.4319951 152.8121830 105.8828924 116.5142513 153.0336777 105.7250612
 117.8480095 152.8868140 105.0240631 118.2154999 154.2113246 101.0131604
 118.9626818 154.7234643 100.7038726 118.4846589 153.8897298 101.8735997
 116.4881649 156.7071786  97.9958558 115.5792868 156.4230819  98.0931028
 116.5176733 157.1270865  97.1361865 120.6633836 151.2470362 102.9950393
 119.9256593 150.7347748 103.3260636 120.9160610 150.8070743 102.1833670
 120.7645463 144.0246614 103.5892162 121.0704340 143.1643977 103.3018078
 121.4898068 144.6164234 103.3891156 107.0569820 154.4277300 101.9773760
 106.8594219 153.8346661 101.2524827 106.5016484 154.1229511 102.6949699
 115.0366543 154.3200407 104.0968354 115.0915153 153.3674243 104.0210830
 114.2257745 154.4759846 104.5809652 116.1857737 158.2480530  95.3346637
 115.7477167 157.5316389  94.8752274 116.9268178 158.4756645  94.7731728
 112.9758903 152.9377467 101.8558732 112.1626769 153.2371637 102.2623925
 113.4717897 152.5433155 102.5733215 115.1267481 162.9335224 103.7892997
 115.0843660 163.1596070 102.8601529 116.0430180 162.6998598 103.9378798
 118.5733115 153.4019291 110.6873626 118.9282503 153.6290764 111.5468092
 119.2205246 153.7337668 110.0650882 124.3030852 156.5237727 101.3922955
 124.1648750 156.7139323 100.4644145 123.9467071 157.2857110 101.8491006
 112.4672978 150.5095822 107.4719967 113.1072357 150.3684581 106.7742931
 111.6350508 150.2230336 107.0958569 113.2433282 159.8098253 103.5854960
 114.0373880 159.3148573 103.3837535 112.5324974 159.2816116 103.2222665
 109.5516045 153.9541334  99.6614713 108.6213633 153.8925790  99.8784675
 109.6473517 153.4317287  98.8651354 109.4701594 150.4796147 102.2492954
 109.7308412 151.3941480 102.1402115 110.2918767 150.0120590 102.3989567
 110.9426520 151.8933904 109.4191779 111.6149573 151.6851266 108.7704428
 110.1156306 151.6955990 108.9797011 116.8452092 148.5195845 111.4357440
 116.1980007 149.2185795 111.3421916 117.6153107 148.9531989 111.8033688
 117.0216226 156.3576610 109.4954259 117.9508286 156.5087770 109.3223227
 116.6007256 156.4460631 108.6402906 115.8204558 160.3827275 107.2652797
 115.6815643 160.0146059 108.1378735 115.0319154 160.8974914 107.0936755
 117.3709773 159.7608877 104.6541635 117.0359606 159.7209647 105.5499285
 116.8713719 159.0953593 104.1812045 111.3454017 155.1676507 110.1794216
 111.2073815 154.4356746 110.7805755 112.2558940 155.0785407 109.8978404
 120.3068965 157.1064912  94.9278694 119.6898135 156.3811740  94.8311747
 119.8385453 157.8674272  94.5845769 113.9736318 154.8796467 109.6677896
 114.6835936 154.2389659 109.6264514 113.9305626 155.1309362 110.5904076
 112.6865252 151.8661685 111.4873535 112.1502609 151.4152423 112.1395131
 112.0981960 152.0007593 110.7443999 112.0967510 151.3250336  94.0499999
 111.2196977 151.2039137  93.6862245 112.5725264 150.5336414  93.7978887
 103.6169651 156.1127496 104.1441506 104.3040690 155.7989226 103.5562521
 103.4617779 157.0168860 103.8708757 108.4204373 151.0017692 108.5726529
 108.3362562 150.3943362 107.8376939 107.5987079 151.4926711 108.5736026
 118.5928087 149.4871256 103.9396725 119.0896786 148.7341218 103.6197795
 117.8215068 149.5235572 103.3739934 119.6757867 158.2442943 101.5135148
 118.7414146 158.3644405 101.3439852 119.8534536 157.3415410 101.2495158
 115.1763055 151.6288639 103.6668409 114.8060843 151.0759679 104.3549315
 115.6722148 151.0246772 103.1143409 123.0630419 154.0860262 102.0485182
 123.5290871 154.9188254 101.9745485 123.5137919 153.6205244 102.7530441
 113.0052254 162.0886134 110.7623427 113.7061713 162.7222617 110.9152821
 112.5347369 162.4300865 110.0019066 121.0347081 146.4540849 106.0876083
 120.1210161 146.6845076 106.2558290 121.4640183 146.5379293 106.9390116
 120.8053540 154.6430741 108.5875977 120.1524990 154.8906649 107.9328430
 121.1833920 153.8294879 108.2538455 108.6019972 161.6222489 107.6954530
 109.1873409 160.8766177 107.8282434 108.4044810 161.9326446 108.5791194
 111.4558627 164.6573736 102.7116972 110.7869003 165.1419864 102.2281012
 111.3171497 164.9042957 103.6260351 103.1937627 154.1928089 106.4158973
 103.2321726 153.6591680 107.2096091 102.6877920 153.6663295 105.7969950
 110.5728389 149.0392630 109.9121515 110.6369716 149.9007460 109.4998913
 110.5095509 148.4266631 109.1793874 110.0480662 151.1115762 113.5594549
 110.6752700 150.7292839 114.1732074 109.1908580 150.8929964 113.9250242
 106.8246204 152.9192191  99.4912904 107.1199645 152.0102870  99.4379958
 105.9234240 152.8979931  99.1693907 110.3540451 150.9948188 105.4740453
 109.6327037 151.6084155 105.3347926 111.1433707 151.5305953 105.3957099
 113.1566765 148.3302614 111.7481105 113.6801167 148.5764911 112.5107414
 112.9379098 149.1622649 111.3284242 108.5534046 150.6006289  99.6152229
 108.2246752 149.7203668  99.4327335 108.9073417 150.5453958 100.5028619
 111.6675869 150.8879259  99.9827707 112.0071942 151.4165180  99.2606315
 112.1147990 151.2259665 100.7586274 114.3619310 149.2716309 109.4330775
 114.0216130 148.4724122 109.8351455 113.6558316 149.5718020 108.8607608
 115.0135782 146.3565622 107.8858098 115.8361851 145.8826100 107.7636989
 115.2573845 147.1356106 108.3856784 113.6544016 149.3853880  98.1821000
 114.3752379 149.7635133  97.6784717 113.0309320 150.1042757  98.2855978
 117.7975139 150.0899029  99.1179332 118.0138753 150.9723667  98.8168160
 117.3169206 149.6985243  98.3884974 112.5374360 153.0484742 105.6950077
 112.3918941 153.3625046 106.5874358 112.0599564 153.6669643 105.1420975
 114.3970743 150.0387290 105.7430966 114.3832312 149.1428384 105.4063264
 115.1143171 150.0457954 106.3769252 116.2496874 150.4724631 107.7884094
 115.9914652 151.3941701 107.7868424 115.7181914 150.0755065 108.4784558
 107.0120023 155.5890087 108.6337738 106.4673491 156.3649895 108.7658012
 107.8899373 155.9360891 108.4756859 113.8007639 148.9201671 101.0118537
 113.9223550 147.9918317 101.2109424 113.5109682 148.9340357 100.0996852
 116.6698830 146.6056581 104.1485256 116.6920527 146.6695914 103.1937236
 117.0866889 145.7661090 104.3425763 107.7986045 154.7159983 111.5267895
 107.0567781 154.8642618 112.1132525 107.4778789 154.9768249 110.6634644
 108.2442658 162.6025412 103.5578289 109.0700678 162.3029184 103.1776933
 107.8936710 161.8333034 104.0068078 113.2124191 161.9551880 105.6275963
 112.5904201 161.2922585 105.3278191 113.8829058 161.9813012 104.9449611
 106.4451263 160.5211738 104.5167223 105.6083172 160.0933913 104.3351224
 106.4174909 160.7144182 105.4538014 113.2848719 150.4333668 115.2208469
 113.3336874 151.3095791 114.8386239 113.8271233 149.8911061 114.6480112
 112.7737698 160.5055803  99.1034424 112.9225819 161.1891268  98.4501096
 113.5804142 160.4860893  99.6183879 115.5148007 151.1865040 111.9754828
 114.6451317 151.4798607 111.7037416 115.7507488 151.7705485 112.6962091
 123.6406825 155.3696814 110.5264414 124.1160946 155.5624460 109.7183266
 122.7172390 155.4256000 110.2807798 110.5290331 156.5320981 100.1095493
 110.2836373 155.6283311 100.3075703 110.6986246 156.5338131  99.1674971
 118.2187041 147.4044657 109.4920248 118.7368985 148.1405684 109.1666737
 117.8642174 147.7108651 110.3267007 109.7985979 152.2649339  97.6081654
 109.1055224 152.3393694  96.9521690 109.5537731 151.5009682  98.1303171
 118.4699635 143.8244940 105.0121145 118.7501389 143.1568129 105.6381571
 119.2550242 144.0174036 104.4995809 122.3408494 152.2462574 108.7592720
 123.2925917 152.3460672 108.7804944 122.1711944 151.4540842 109.2690804
 120.3622873 149.3318157 108.9452121 119.7672805 149.6123170 108.2498609
 120.0772570 149.8212058 109.7168862 124.8196571 155.4668694 107.8735020
 124.7872892 154.5284694 108.0594703 125.4297195 155.5452730 107.1400844
 116.6579902 154.3364747  93.9162224 117.6039007 154.2070955  93.9850642
 116.2794147 153.5979408  94.3931652 124.9691060 152.2579737 107.9193303
 124.4530109 151.4738194 107.7323232 125.8531008 151.9298454 108.0839822
 122.6301787 146.0020753 103.8789115 122.4326608 145.6935841 104.7632447
 123.2401492 146.7282392 104.0087045 114.8422819 152.2614723  93.8517109
 113.9354275 151.9647836  93.9279822 115.1198800 151.9644541  92.9851395
 105.7600760 153.5821086 104.3016155 105.4403544 152.7286395 104.0090529
 105.2134188 153.7969665 105.0574123 109.5380667 156.2983527 108.0185662
 109.7566677 157.2300635 108.0373696 109.9506441 155.9391502 108.8040466
 116.4584885 146.8051613 100.0061350 115.6485613 146.4598698 100.3816596
 117.1469302 146.4959156 100.5948962 118.3875433 145.8829660 101.6285647
 118.9406472 146.3025113 102.2875670 118.6245520 144.9565408 101.6708603
 113.6121604 149.1201658  93.9929088 114.4740768 149.4456557  94.2524905
 113.7971948 148.3333154  93.4802154 105.6289020 157.2023998 106.2709277
 104.9352491 156.7877951 105.7579231 106.3762011 157.2444534 105.6742696
 121.7654241 147.9930185 101.1364311 121.1852910 148.6514989 100.7542363
 121.4990173 147.1707529 100.7251728 120.2157807 147.3935242 103.3385631
 120.7157585 147.5051777 102.5299950 120.8593415 147.0896295 103.9786440
 107.5425762 157.1342252 104.1475292 107.5196450 157.2329939 103.1957175
 107.8526399 157.9807402 104.4692458 110.2013140 159.1918407 108.2621906
 111.1556394 159.1602349 108.1951838 110.0025664 158.7309030 109.0772132
 110.7912522 157.7619523 110.8292704 111.6105411 158.2563601 110.8527541
 111.0649330 156.8451491 110.8010271 120.5479119 150.1530275 100.1920659
 119.6604974 150.4379926  99.9740854 120.9633108 149.9924038  99.3447936
 123.8993655 150.1776796 103.9074998 124.6754045 150.6673248 104.1799615
 123.1741789 150.6034850 104.3646868 126.3366213 150.8904415 104.9648939
 126.9310704 150.6500151 104.2542247 126.4092797 150.1711546 105.5922475
 108.5563369 164.7338026 105.2792104 108.4217837 163.9738427 104.7130102
 108.1395431 165.4578926 104.8120893 120.5220142 155.6684811 100.4070949
 120.4655344 156.1253362  99.5678582 121.0748485 154.9075496 100.2293792
 124.3324948 151.4574543 101.2321069 124.0761882 151.0571179 102.0629277
 123.7077816 152.1718337 101.1071208 121.2554922 156.8589592  97.7023479
 121.2003725 156.6933864  96.7611923 120.6300977 157.5665625  97.8585668
 106.0447437 152.0957657 111.5284901 106.6906300 151.5856611 112.0172126
 105.8364588 152.8326338 112.1028326 114.5651047 146.3597701  97.2808797
 114.5529717 147.3039541  97.4377068 115.4574469 146.1767847  96.9868258
 118.3803167 142.9540478 101.5354734 117.6135562 142.3998965 101.6811416
 118.7913871 143.0262347 102.3968885 110.3844928 149.2425274 115.6259915
 111.2476389 148.8862079 115.8363240 109.8110338 148.9039168 116.3135319
  32.6749515   9.9161994  93.1567623  33.3127925   9.7968741  92.4530963
  32.5570358  10.8642837  93.2155575  29.4839222   9.8689422  93.0929147
  29.1457733   9.7530486  92.2049682  30.3528990   9.4680587  93.0730153
  25.3426037  11.7224898  89.0826038  24.7790902  11.6314835  88.3142326
  25.2278432  10.9024803  89.5628531  29.9659005  11.0224273  99.0515353
  29.9547645  10.6277072  98.1795857  30.1279644  10.2890346  99.6449124
  22.8890469  13.2176090  91.9210259  23.6811761  12.8766914  91.5056558
  23.1287119  13.3271065  92.8412412  30.9225596  15.3895866  84.3940503
  30.2713576  15.9749946  84.0074517  31.7169959  15.9202061  84.4535541
  24.8481223  12.4785003  84.7927638  25.6212099  11.9313990  84.6540513
  25.2006622  13.3429252  85.0042099  26.6866266  13.8061385  97.9994537
  26.3956132  14.7107016  97.8841203  27.3223250  13.8477913  98.7138606
  27.6122473  11.1838234  94.5895897  28.2086045  10.9594256  93.8752859
  27.6697444  10.4422979  95.1921344  27.1847501   8.6377669  82.4246087
  27.4373022   8.1159190  81.6629550  26.2472060   8.4743814  82.5272771
  32.2290784   7.6413447  90.2320831  33.0153873   7.2232871  89.8811248
  32.4929488   8.5459540  90.4002479  32.4000861  13.0786298  84.9309488
  31.7646694  13.1520924  85.6430392  32.0698268  13.6679897  84.2528567
  37.6299211   7.5788681  91.1353809  38.3624383   7.0087897  91.3691639
  36.8738567   7.1910281  91.5760315  26.9043790  10.5405775  84.6270462
  26.7880048   9.8650678  85.2951547  27.0146050  10.0538149  83.8102615
  29.2475331  10.0015922  88.3317152  28.8833538   9.4746543  89.0430073
  30.1042447   9.6114391  88.1583637  35.1524631   1.2910255  95.5948418
  34.8207956   2.1605666  95.3709633  34.5570245   0.9746539  96.2742448
  28.8880818   5.0305822  83.3278500  29.0555220   5.8986058  83.6948971
  28.6977987   5.1933103  82.4039789  31.6456151  13.4922801  94.9944331
  31.3456874  14.3947839  94.8860138  31.3007210  13.2254984  95.8465483
  25.0968632   9.9436598  91.0281035  24.1719129   9.8112812  91.2358727
  25.3453046  10.7230817  91.5250977  35.0453295   6.0105341  92.6741768
  34.1370172   5.9420749  92.3800529  34.9940890   6.4877286  93.5023593
  28.8670039   7.4863479  84.3125167  28.7469664   7.9320530  85.1510647
  28.1722627   7.8348797  83.7538705  22.4577443   9.5869871  91.8624824
  22.5869825   9.8404350  92.7764236  21.7774895  10.1797579  91.5429479
  26.6276931  20.2567121  87.9615298  26.5500960  21.2074946  88.0403779
  26.0238574  19.9112994  88.6190225  29.1194160   7.4294986 100.6176665
  28.3427494   7.9888907 100.6079530  29.7584723   7.9151769 101.1391535
  36.9114941   4.2121779  94.4519642  36.2689321   4.5054312  93.8059436
  36.4069870   4.0974700  95.2572838  34.5655105   7.9584952  85.1405501
  35.4772961   8.1912339  84.9653199  34.0564752   8.5421997  84.5780580
  27.3740533  10.2380440 100.1794632  28.1155217  10.7765484  99.9029456
  26.6677518  10.8646729 100.3366184  32.8495872  12.3809580  98.7766794
  33.2579228  11.9391991  98.0321426  32.1273134  11.8062208  99.0300987
  29.2026942   7.3182187  96.1500351  30.0488138   7.7421601  96.2935000
  29.1425580   6.6615811  96.8438914  33.1724687  12.9410771  92.5319083
  32.5433549  13.1056485  91.8295150  32.7850349  13.3552380  93.3030047
  37.0513919  13.8765209  89.8863446  36.3664957  14.2564110  89.3360480
  37.1357768  14.4860535  90.6195394  32.3526388   4.9786555  97.8081524
  32.1087320   5.7328616  97.2715800  32.6286318   5.3571903  98.6428771
  34.3064851  11.5225168  96.4858790  34.5181746  12.1656928  95.8093171
  34.2594599  10.6887484  96.0180720  31.9091079   4.1342988  93.3895362
  31.0475559   4.4324242  93.6812100  31.9353514   4.3513387  92.4576395
  28.7252649  12.6785179  89.7969168  29.1890994  12.9572882  89.0073790
  28.4609447  11.7768624  89.6142258  25.6176730  12.2256661  92.7348931
  26.1878087  12.6543929  92.0966415  26.2084842  11.9439245  93.4333117
  27.6621535   8.8008331  86.6058733  28.3645578   9.2529375  87.0732659
  27.3302163   8.1592150  87.2338626  26.1101896   7.3920088 100.9809942
  25.4800557   8.0736369 101.2145339  26.0037984   7.2803170 100.0363080
  35.4210678  14.3997123  94.6581147  36.2428122  13.9977310  94.3763829
  35.4173081  14.2965357  95.6097263  29.1867282  13.9481166  96.8141858
  29.2511714  14.4101574  97.6500029  28.4778206  13.3178531  96.9424167
  43.5116672  10.7435872  91.0066119  42.7580380  10.1743270  90.8510123
  43.6464213  10.7098536  91.9536753  28.9015300  15.6149274  86.6820838
  28.7660974  16.4600810  87.1105686  29.4425112  15.8168552  85.9186772
  22.3544697  13.1324712  87.2548763  22.8669218  13.9267962  87.4054328
  23.0067410  12.4351002  87.1882365  24.1639582  16.2490468  89.3371516
  24.3406210  17.1708433  89.1492500  24.9596415  15.9348888  89.7665896
  30.5283776  16.2372840 100.8121180  30.0847630  15.4509219 100.4942085
  31.1900990  16.4251991 100.1465071  25.2870897  17.7668642  95.3381859
  25.8378322  17.6385705  94.5658853  24.4482373  18.0663531  94.9876751
  32.6265014  16.5175640  98.8402581  32.6083489  17.3384521  98.3482850
  33.5484934  16.3929716  99.0652722  29.0838068  14.0319770  99.6826090
  29.6166405  13.2708058  99.4525398  28.5552149  13.7393422 100.4250244
  20.3193614  11.4613366  88.0308334  21.1568836  11.8710375  87.8142041
  20.4971881  10.5212808  88.0008527  32.2158046   9.1288447  83.7192167
  31.7004669   9.8993052  83.9580554  31.9435354   8.4553583  84.3425228
  29.8005157   3.9738148  88.7777405  28.9446753   3.5844998  88.5983044
  30.2132109   4.0530109  87.9177190  37.1892320  11.8820802  85.6545340
  36.4121763  11.5431961  85.2100502  37.8683801  11.8873425  84.9800305
  32.0044349   7.0015539  85.5451948  31.6994485   7.3161688  86.3962091
  32.9574791   7.0796959  85.5879281  30.4490781  13.1605762  87.1944902
  29.9212142  12.4258522  86.8818139  29.9478284  13.9380439  86.9484870
  35.4283627  11.3554783  92.3111948  34.7707301  12.0454044  92.3992077
  36.2324026  11.7451215  92.6545934  34.2389086   9.7099156  90.3615890
  34.7520967  10.3429147  90.8637599  34.8890310   9.1100351  89.9959250
  28.5943381  10.9785973  80.1979875  27.6870443  10.7475226  80.3971024
  29.0914413  10.1823592  80.3853856  31.5011460  19.6883480  83.1176561
  30.8273159  19.9915177  83.7261519  31.8877282  20.4912560  82.7682018
  30.7169917   7.1848611  92.6074230  29.7992478   7.4063558  92.4495918
  31.1330060   7.2594922  91.7485938  31.5004964   8.5840027  87.7376911
  32.2476783   9.0961424  87.4284033  31.7696554   8.2624080  88.5981304
  29.7731615  11.0798568  84.7203865  28.8642834  10.7957600  84.8176335
  29.8026698  11.4997646  83.8607172  35.0050882  14.6905157  88.4895032
  34.5513209  13.8496067  88.5460223  34.3744849  15.3266555  88.8269813
  33.9483801   5.6197143  89.7195700  33.2106558   5.1074529  90.0505942
  34.2010575   5.1797525  88.9078977  33.4483821  16.5281654  89.4244851
  33.7406796  17.0886711  88.7057216  33.9582442  16.8210215  90.1798010
  28.3216509   8.6927188  90.8213660  28.3765118   7.7401025  90.7456137
  27.5107711   8.8486627  91.3054959  29.4707702  12.6207311  82.0591943
  29.0327132  11.9043170  81.5997581  30.2118143  12.8483426  81.4977035
  26.2608868   7.3104248  88.5804039  25.4476734   7.6098418  88.9869231
  26.7567863   6.9159937  89.2978521  28.4117446  17.3062005  90.5138304
  28.3693625  17.5322851  89.5846836  29.3280145  17.0725379  90.6624105
  31.8583080   7.7746072  97.4118933  32.2132468   8.0017545  98.2713399
  32.5055211   8.1064449  96.7896188  37.5880817  10.8964508  88.1168262
  37.4498716  11.0866104  87.1889451  37.2317036  11.6583891  88.5736313
  37.6150197  12.9641035  93.1279533  38.0486703  12.8716324  93.9762588
  38.3281777  12.9398536  92.4899549  26.5283247  14.1825034  90.3100266
  27.3223846  13.6875354  90.1082841  25.8174940  13.6542897  89.9467972
  31.3478092  16.5643129  94.6612634  31.4015114  17.1334066  95.4290350
  30.4792873  16.7345014  94.2966671  38.4765746  13.0064736  95.6612419
  38.6701636  13.9110546  95.9071694  38.3766364  12.5472155  96.4951004
  30.1302057   2.8922626  98.1602746  29.4829972   3.5912576  98.0667223
  30.9003072   3.3258770  98.5278994  33.5380855  13.1571479 101.2353299
  33.3866361  12.9282030 100.3183383  33.5285534  14.1142080 101.2484645
  30.3066191  10.7303391  96.2199566  31.2358251  10.8814551  96.0468533
  29.8857221  10.8187412  95.3648212  29.1054523  14.7554056  93.9898104
  28.9665609  14.3872840  94.8624042  28.3169119  15.2701695  93.8182061
  29.7002675  19.8563152  85.3323640  29.8754431  19.3851195  86.1469263
  29.0135463  20.4828918  85.5604901  30.6559738  14.1335658  91.3786941
  30.3209571  14.0936428  92.2744591  30.1563684  13.4680374  90.9057352
  24.6303982   9.5403289  96.9039522  24.4923780   8.8083527  97.5051062
  25.5408906   9.4512189  96.6223710  33.5918930  11.4791693  81.6524001
  32.9748101  10.7538521  81.5557054  33.1235418  12.2401053  81.3091075
  27.2586283   9.2523248  96.3923202  27.9685901   8.6116440  96.3509821
  27.2155591   9.5036143  97.3149383  35.2473062  16.1890601  99.3129781
  35.1885608  15.5049821  98.6460364  35.6492580  16.9309591  98.8610407
  24.2663760  23.0052515  92.1063500  24.5060359  23.6371039  92.7842519
  23.4232957  22.6540555  92.3928860  35.2490469  14.1530185  97.5443761
  34.3617248  13.8156107  97.6670160  35.8189020  13.4213216  97.7812526
  28.7791622  18.8131637  94.5105004  28.7061794  19.6186609  95.0224309
  28.3369015  19.0123603  93.6853026  28.5681402  18.0503407  88.0207826
  27.7848924  18.5925088  88.1146050  29.2674147  18.5677387  88.4202067
  31.8778052   3.8598037  90.6642031  32.3746752   3.1067999  90.3443101
  31.1065033   3.8962354  90.0985240  39.7307809   9.5638402  92.3060323
  39.7197686  10.4463118  91.9354256  38.8625189   9.2109953  92.1114860
  31.2390306  18.7118471  96.6663163  31.9518278  19.3465936  96.5939064
  30.7480334  18.8082337  95.8503165  32.9607833  12.6169724  88.2380455
  32.0264111  12.7371187  88.0685159  33.1384501  11.7142191  87.9740464
  28.4613021   6.0015420  90.3913716  28.0910808   5.4486460  91.0794621
  28.9572113   5.3973553  89.8388716  36.3480384   8.4587043  88.7730489
  36.8140836   9.2915035  88.6990791  36.7987885   7.9932025  89.4775747
  26.2902219  16.4612915  97.4868734  26.9911679  17.0949398  97.6398128
  25.8197334  16.8027647  96.7264373  34.4156615  14.8030865  85.7716641
  34.6916459  14.6887459  86.6810515  33.5461114  14.4048350  85.7328814
  34.3197047   0.8267630  92.8121390  33.4060127   1.0571857  92.9803597
  34.7490148   0.9106075  93.6635422  34.0903505   9.0157522  95.3121284
  33.4374956   9.2633430  94.6573737  34.4683885   8.2021661  94.9783761
  31.0510679  19.0517216  89.4149454  31.2333074  18.2338872  89.8777207
  31.8743665  19.2684908  88.9774344  31.3852845  17.9785401  86.6764503
  31.9140611  17.4677855  86.0634665  31.6481064  17.6627931  87.5410036
  30.1391078   9.7577333 101.7987321  29.4631715   9.6571463 102.4689696
  30.9618712   9.6016547 102.2623318  21.8869937  15.9949270  94.4199836
  22.4723374  15.2492958  94.5527741  21.6894776  16.3053227  95.3036500
  24.7408593  19.0300517  89.4362279  24.0718968  19.5146645  88.9526319
  24.6021462  19.2769738  90.3505657  28.8813861  21.0644261  96.0344937
  29.4332169  21.2275882  96.7994022  29.2220055  21.6548699  95.3624962
  33.7324735  15.8905518 101.8893592  34.2764639  16.5035477 101.3948546
  33.1511580  16.4485097 102.4060605  32.0182248  19.0126236  93.0208619
  31.8933388  18.2115976  92.5119565  32.6761340  19.5072430  92.5322589
  34.0817157  16.8135257  94.6488169  33.1347492  16.6940608  94.5766496
  34.4299930  15.9257755  94.7314431  31.0863590  16.6087973  90.8492522
  30.9388553  15.6804680  91.0300092  31.9117084  16.6308063  90.3649597
  34.6897712  17.4316531  91.9357394  35.6144259  17.2259393  91.7981846
  34.5213015  17.1832933  92.8446736  31.0825104   4.4625810  85.8424639
  31.2988719   5.3450448  85.5413467  30.6019172   4.0712024  85.1130281
  25.8224326   7.4211524  92.4195383  25.6768907   7.7351827  93.3119665
  25.3449529   8.0396424  91.8666282  29.5346839   4.8451412  94.5129400
  29.2764617   5.7668482  94.5113731  29.0031880   4.4481846  95.2029865
  34.4793028  17.9502199  87.2919486  34.6529906  17.3848621  86.5393338
  34.9721919  18.7503094  87.1098976  20.2969988   9.9616868  95.3583045
  19.7523456  10.7376676  95.4903319  21.1749338  10.3087672  95.2002166
  40.3332419  10.7138622  88.9109786  40.7763565   9.9645947  88.5128909
  39.4558930  10.7048758  88.5283518  35.4668201  17.2668963  84.3916384
  36.1619105  17.8875656  84.6103699  35.8091351  16.4164315  84.6668762
  37.3659624  14.7168669  85.9203715  37.8910948  15.0555942  85.1953035
  37.2781976  13.7815684  85.7366849  29.0279672  18.6302743  98.0493592
  29.3366799  18.3851889  98.9216291  29.8255155  18.8349381  97.5612462
  29.0500285  20.7840652  90.2798968  28.6105275  20.2917031  90.9731825
  29.8008401  20.2413620  90.0391043  21.5292624  16.9752193  90.2823596
  22.3550643  16.6755965  89.9022240  21.1786676  16.2059815  90.7313385
  26.4974157  16.3278661  92.3521270  25.8754166  15.6649366  92.0523498
  27.1679024  16.3539793  91.6694918  19.7301229  14.8938519  91.2412530
  18.8933137  14.4660694  91.0596531  19.7024874  15.0870963  92.1783321
  37.0553530  15.3501573 101.2254913  36.2649074  15.3325711 100.6859412
  36.8186884  15.8889866 101.9803949  37.1751405  12.1994039  98.5387641
  37.2249410  12.0344046  99.4803164  37.0665328  11.3321298  98.1485522
  26.0587664  14.8782585  85.8279730  26.2075784  15.5618049  85.1746403
  26.8654107  14.8587675  86.3429186  34.4655167   8.1824967  99.8546948
  35.3665030   8.0431432  99.5630946  34.5403142   8.3479422 100.7945126
  28.7997973   5.5591822  98.7000134  27.9301282   5.8525388  98.4282723
  29.0357453   6.1432267  99.4207398  38.6769602  14.6190980  98.7829663
  38.3854410  14.9820961  99.6193124  38.0641733  13.9057989  98.6042995
  39.8765284  12.1843860  91.3032233  40.7112175  12.6233664  91.4669793
  40.0124413  11.7082513  90.4840479  36.9256790   9.7423595  97.2509721
  37.4010912   9.9351241  96.4428572  36.0022355   9.7982781  97.0053105
  23.8140297  10.9047762  86.8340799  23.5686339  10.0010092  87.0321009
  23.9836211  10.9064913  85.8920277  31.5037006   1.7771439  96.2165555
  32.0218950   2.5132466  95.8912043  31.1492139   2.0835432  97.0512314
  29.5583069  17.3730715  83.2991478  28.9857036  17.9920902  82.8461950
  30.1315863  17.9230077  83.8331400  35.6258459   6.6189355  95.4838026
  36.5775882   6.7187453  95.5050251  35.4561909   5.8267624  95.9936111
  33.6472838   3.7044938  95.6697427  33.0522771   3.9849951  94.9743916
  33.3622535   4.1938839  96.4414169  32.7780329  17.6567865  84.4300060
  33.7111002  17.5913427  84.6332935  32.6903542  18.4924132  83.9714593
  35.4068346  16.9733735  81.3904008  35.3281977  16.6393599  82.2839765
  36.2278012  17.4655503  81.3895480  38.1046537   9.8395475  94.5980326
  38.0722857   8.9011476  94.7840010  38.7147160   9.9179512  93.8646151
  29.9429868   8.7091528  80.6407530  30.8888972   8.5797736  80.7095948
  29.5644113   7.9706190  81.1176958  38.2541025   6.6306518  94.6438609
  37.7380074   5.8464975  94.4568538  39.1380974   6.3025235  94.8085129
  35.9151752   0.3747534  90.6034422  35.7176573   0.0662622  91.4877754
  36.5251458   1.1009173  90.7332352  43.9223087  10.9011482  93.7386363
  44.6526475  10.6396770  94.2994066  43.3130032  10.1640204  93.7788431
  42.0038384   9.0419344  94.3360814  41.2771547   8.9075309  93.7277306
  41.5885671   9.3496173  95.1417532  29.8268560  12.7609274 102.1008187
  30.7471570  12.9387873 102.2948234  29.7918143  11.8165319 101.9487886
  28.1272785   6.6341504  80.5762415  27.2204240   6.3374617  80.6525129
  28.4048766   6.3371322  79.7096702  22.8230633  10.6710309  94.7430968
  23.0416642  11.6027416  94.7619002  23.2356407  10.3118283  95.5285772
  27.6958498   6.2443514 104.1333717  27.5955225   7.1937871 104.0645808
  27.4780040   5.9161753 103.2609787  18.9138985  11.5750779  92.9954583
  18.2202457  11.1604732  92.4824538  19.6611976  11.6171316  92.3988002
  35.0504206   2.3656966  87.8609618  34.4702875   3.0241770  87.4787670
  34.7840139   1.5434310  87.4497035  33.5007772   1.7662024  90.0630938
  34.0007551   1.8778558  89.2545257  34.1443380   1.4623076  90.7031746
  27.5589768   9.6740653 102.9498779  27.0756850  10.4741013 103.1562668
  27.6450707   9.6848598 101.9966223  20.8275728  11.5069033  90.8720598
  20.8046416  11.6056720  89.9202481  21.1376364  12.3534184  91.1937764
  23.4863106  13.5645188  94.9867213  24.4406359  13.5329130  94.9197144
  23.2875629  13.1035812  95.8017439  24.0762488  12.1346304  97.5538010
  24.8955377  12.6290383  97.5772848  24.3499295  11.2178272  97.5255578
  33.8329084   4.5257056  86.9165966  32.9454939   4.8106707  86.6986161
  34.2483073   4.3650820  86.0693243  37.1843620   4.5503577  90.6320305
  37.9604010   5.0400030  90.9044922  36.4591754   4.9761631  91.0892175
  39.6216179   5.2631196  91.6894246  40.2160669   5.0226932  90.9787554
  39.6942762   4.5438327  92.3167782  21.8413334  19.1064807  92.0037411
  21.7067802  18.3465208  91.4375409  21.4245397  19.8305707  91.5366199
  32.9772297  14.2901731  81.0113986  33.6808147  14.4951733  81.6271641
  32.2534946  14.8578493  81.2763069  33.8070108  10.0411592  87.1316256
  33.7505309  10.4980144  86.2923888  34.3598450   9.2802277  86.9539099
  37.6174914   5.8301324  87.9566376  37.3611848   5.4297960  88.7874583
  36.9927782   6.5445118  87.8316515  41.9287251   8.5697397  90.4637667
  41.3686809   8.6390587  91.2369229  41.3230755   8.3938382  89.7437163
  24.9982460  20.0034124  92.2155853  24.8814844  20.9479557  92.1134543
  24.1774906  19.7007686  92.6041652  34.8858995  14.7284260  83.0612446
  35.7204599  14.2965459  82.8789921  34.7243338  14.5566274  83.9889340
  34.5404887  11.2316373  84.4268785  34.4853691  11.0660645  83.4857229
  33.9150942  11.9392406  84.5830975  31.8550794  13.5365285 103.7522348
  32.7241954  13.7105938 103.3908983  31.3757546  14.3559702 103.6298077
  26.0236974  20.6562386  95.4311782  26.9264221  20.6885997  95.7478277
  25.7974344  19.7262837  95.4458117  27.7790576  19.4093373  92.0921860
  26.8286207  19.4095234  91.9786233  28.0823063  18.6626107  91.5757895
  43.5143270  25.2453911  93.1567623  44.1521680  25.1260659  92.4530963
  43.3964113  26.1934755  93.2155575  40.3232976  25.1981339  93.0929147
  39.9851488  25.0822404  92.2049682  41.1922744  24.7972504  93.0730153
  36.1819792  27.0516816  89.0826038  35.6184657  26.9606753  88.3142326
  36.0672187  26.2316720  89.5628531  40.8052759  26.3516191  99.0515353
  40.7941400  25.9568989  98.1795857  40.9673399  25.6182264  99.6449124
  33.7284224  28.5468007  91.9210259  34.5205516  28.2058832  91.5056558
  33.9680874  28.6562982  92.8412412  35.6874978  27.8076921  84.7927638
  36.4605854  27.2605908  84.6540513  36.0400377  28.6721170  85.0042099
  37.5260020  29.1353303  97.9994537  37.2349886  30.0398934  97.8841203
  38.1617005  29.1769830  98.7138606  38.4516227  26.5130151  94.5895897
  39.0479799  26.2886174  93.8752859  38.5091199  25.7714897  95.1921344
  38.0241256  23.9669587  82.4246087  38.2766776  23.4451108  81.6629550
  37.0865815  23.8035732  82.5272771  43.0684538  22.9705365  90.2320831
  43.8547628  22.5524788  89.8811248  43.3323243  23.8751457  90.4002479
  48.4692965  22.9080598  91.1353809  49.2018137  22.3379815  91.3691639
  47.7132321  22.5202199  91.5760315  37.7437544  25.8697693  84.6270462
  37.6273802  25.1942596  85.2951547  37.8539804  25.3830067  83.8102615
  40.0869085  25.3307840  88.3317152  39.7227292  24.8038461  89.0430073
  40.9436201  24.9406309  88.1583637  45.9918386  16.6202172  95.5948418
  45.6601711  17.4897583  95.3709633  45.3963999  16.3038456  96.2742448
  39.7274572  20.3597739  83.3278500  39.8948975  21.2277976  83.6948971
  39.5371741  20.5225021  82.4039789  42.4849905  28.8214718  94.9944331
  42.1850628  29.7239757  94.8860138  42.1400965  28.5546902  95.8465483
  35.9362387  25.2728515  91.0281035  35.0112883  25.1404729  91.2358727
  36.1846800  26.0522734  91.5250977  45.8847049  21.3397259  92.6741768
  44.9763926  21.2712667  92.3800529  45.8334645  21.8169203  93.5023593
  39.7063793  22.8155397  84.3125167  39.5863418  23.2612448  85.1510647
  39.0116381  23.1640715  83.7538705  33.2971198  24.9161789  91.8624824
  33.4263579  25.1696268  92.7764236  32.6168649  25.5089497  91.5429479
  39.9587915  22.7586904 100.6176665  39.1821249  23.3180824 100.6079530
  40.5978478  23.2443687 101.1391535  47.7508696  19.5413697  94.4519642
  47.1083076  19.8346230  93.8059436  47.2463624  19.4266617  95.2572838
  45.4048859  23.2876870  85.1405501  46.3166715  23.5204257  84.9653199
  44.8958506  23.8713914  84.5780580  38.2134287  25.5672357 100.1794632
  38.9548972  26.1057401  99.9029456  37.5071273  26.1938646 100.3366184
  43.6889627  27.7101498  98.7766794  44.0972983  27.2683908  98.0321426
  42.9666888  27.1354125  99.0300987  40.0420697  22.6474105  96.1500351
  40.8881892  23.0713518  96.2935000  39.9819335  21.9907729  96.8438914
  44.0118442  28.2702689  92.5319083  43.3827304  28.4348403  91.8295150
  43.6244104  28.6844298  93.3030047  43.1920142  20.3078473  97.8081524
  42.9481074  21.0620534  97.2715800  43.4680073  20.6863821  98.6428771
  42.7484834  19.4634906  93.3895362  41.8869313  19.7616160  93.6812100
  42.7747269  19.6805305  92.4576395  39.5646403  28.0077097  89.7969168
  40.0284749  28.2864800  89.0073790  39.3003202  27.1060541  89.6142258
  36.4570484  27.5548578  92.7348931  37.0271842  27.9835847  92.0966415
  37.0478596  27.2731163  93.4333117  38.5015289  24.1300249  86.6058733
  39.2039333  24.5821293  87.0732659  38.1695918  23.4884068  87.2338626
  36.9495651  22.7212006 100.9809942  36.3194312  23.4028287 101.2145339
  36.8431739  22.6095087 100.0363080  32.2440623  22.3883802  91.9075866
  31.4539677  22.6441330  91.4315977  32.7351871  23.2032140  92.0127907
  34.1955369  22.7528381  88.8659343  33.3986532  22.8647075  89.3842839
  33.9680961  23.0915033  88.0000234  40.0261036  29.2773084  96.8141858
  40.0905469  29.7393491  97.6500029  39.3171960  28.6470449  96.9424167
  30.5278326  22.6414292  94.3390857  30.7786365  23.5261302  94.6048433
  31.0637875  22.4618894  93.5665949  54.3510426  26.0727789  91.0066119
  53.5974134  25.5035187  90.8510123  54.4857967  26.0390454  91.9536753
  36.2276394  17.0232772 103.3435193  35.8343339  16.4698970 104.0182837
  37.0442534  17.3343350 103.7341711  33.1938451  28.4616630  87.2548763
  33.7062972  29.2559880  87.4054328  33.8461164  27.7642920  87.1882365
  35.0033336  31.5782386  89.3371516  35.1799964  32.5000351  89.1492500
  35.7990170  31.2640805  89.7665896  39.1444355  18.4390651 100.9355450
  39.8854068  19.0397804 100.8559912  39.3762278  17.6968288 100.3773492
  34.2885693  23.6247018  99.2133679  34.1739208  22.7232275  99.5140778
  33.4330210  23.8710715  98.8618496  41.3677530  31.5664758 100.8121180
  40.9241385  30.7801137 100.4942085  42.0294744  31.7543909 100.1465071
  36.1264652  33.0960560  95.3381859  36.6772077  32.9677623  94.5658853
  35.2876128  33.3955449  94.9876751  43.4658769  31.8467558  98.8402581
  43.4477244  32.6676439  98.3482850  44.3878689  31.7221633  99.0652722
  39.9231823  29.3611688  99.6826090  40.4560159  28.5999976  99.4525398
  39.3945904  29.0685339 100.4250244  43.0901518  14.4671754  95.2119731
  42.7465787  15.3573395  95.1358842  43.4580480  14.2773411  94.3489316
  31.1587368  26.7905284  88.0308334  31.9962590  27.2002292  87.8142041
  31.3365636  25.8504726  88.0008527  43.0551800  24.4580365  83.7192167
  42.5398424  25.2284969  83.9580554  42.7829109  23.7845501  84.3425228
  40.6398911  19.3030065  88.7777405  39.7840508  18.9136916  88.5983044
  41.0525863  19.3822026  87.9177190  42.1698058  16.8376409  93.1768965
  41.6662854  16.8006544  92.3636770  42.4628665  17.7469151  93.2365621
  38.4140944  16.9215138  92.1835146  39.2793941  16.7257947  91.8241036
  38.4818453  16.6925490  93.1104503  48.0286074  27.2112719  85.6545340
  47.2515517  26.8723879  85.2100502  48.7077555  27.2165342  84.9800305
  42.8438104  22.3307457  85.5451948  42.5388239  22.6453606  86.3962091
  43.7968546  22.4088877  85.5879281  36.0203263  19.1517346  89.5551513
  36.5947015  18.9292528  88.8224706  36.6074245  19.2206041  90.3080115
  45.0782840  25.0391073  90.3615890  45.5914722  25.6721065  90.8637599
  45.7284064  24.4392269  89.9959250  36.3472850  21.1821807  83.5747398
  35.5110162  21.5196494  83.8956673  36.2077620  21.0470787  82.6374535
  38.3225931  16.0258595  88.2826583  37.6690343  15.7107612  87.6583197
  38.2806405  15.4034336  89.0086406  39.4337136  26.3077890  80.1979875
  38.5264197  26.0767144  80.3971024  39.9308168  25.5115510  80.3853856
  41.5563671  22.5140529  92.6074230  40.6386232  22.7355476  92.4495918
  41.9723815  22.5886839  91.7485938  42.3398719  23.9131944  87.7376911
  43.0870538  24.4253342  87.4284033  42.6090308  23.5915997  88.5981304
  40.6125369  26.4090485  84.7203865  39.7036588  26.1249518  84.8176335
  40.6420453  26.8289564  83.8607172  44.7877556  20.9489061  89.7195700
  44.0500313  20.4366447  90.0505942  45.0404330  20.5089442  88.9078977
  44.8889183  13.7265313  90.3137469  45.1948060  12.8662676  90.0263384
  45.6141788  14.3182933  90.1136463  31.1813539  24.1295999  88.7019067
  30.9837939  23.5365360  87.9770134  30.6260203  23.8248210  89.4195006
  39.1610263  24.0219106  90.8213660  39.2158873  23.0692942  90.7456137
  38.3501465  24.1778545  91.3054959  37.1002623  22.6396166  88.5804039
  36.2870488  22.9390336  88.9869231  37.5961617  22.2451854  89.2978521
  42.6976835  23.1037990  97.4118933  43.0526222  23.3309463  98.2713399
  43.3448966  23.4356367  96.7896188  48.4274572  26.2256426  88.1168262
  48.2892470  26.4158022  87.1889451  48.0710790  26.9875809  88.5736313
  36.5916698  20.2114521  94.1965274  37.2316077  20.0703280  93.4988237
  35.7594228  19.9249034  93.8203876  37.3677002  29.5116951  90.3100266
  38.1617600  29.0167272  90.1082841  36.6568694  28.9834815  89.9467972
  33.6759765  23.6560033  86.3860019  32.7457353  23.5944489  86.6029981
  33.7717237  23.1335986  85.5896660  33.5945314  20.1814846  88.9738261
  33.8552131  21.0960179  88.8647421  34.4162486  19.7139289  89.1234874
  35.0670239  21.5952603  96.1437085  35.7393293  21.3869965  95.4949734
  34.2400026  21.3974689  95.7042318  40.9695811  18.2214544  98.1602746
  40.3223727  18.9204494  98.0667223  41.7396827  18.6550688  98.5278994
  44.3774609  28.4863396 101.2353299  44.2260116  28.2573948 100.3183383
  44.3679289  29.4433998 101.2484645  41.1459946  26.0595309  96.2199566
  42.0752006  26.2106469  96.0468533  40.7250976  26.1479330  95.3648212
  39.9448278  30.0845973  93.9898104  39.8059363  29.7164758  94.8624042
  39.1562874  30.5993613  93.8182061  41.4953493  29.4627576  91.3786941
  41.1603325  29.4228346  92.2744591  40.9957438  28.7972292  90.9057352
  35.4697737  24.8695206  96.9039522  35.3317535  24.1375445  97.5051062
  36.3802660  24.7804106  96.6223710  44.4312684  26.8083611  81.6524001
  43.8141855  26.0830439  81.5557054  43.9629173  27.5692971  81.3091075
  38.0980037  24.5815166  96.3923202  38.8079656  23.9408358  96.3509821
  38.0549346  24.8328060  97.3149383  46.0866816  31.5182519  99.3129781
  46.0279362  30.8341739  98.6460364  46.4886334  32.2601509  98.8610407
  36.8108971  21.5680383  98.2118842  36.2746328  21.1171122  98.8640438
  36.2225680  21.7026292  97.4689306  36.2211230  21.0269035  80.7745305
  35.3440697  20.9057836  80.4107552  36.6968983  20.2355113  80.5224194
  27.7413370  25.8146195  90.8686812  28.4284410  25.5007925  90.2807828
  27.5861499  26.7187559  90.5954064  32.5448093  20.7036391  95.2971836
  32.4606281  20.0962061  94.5622246  31.7230799  21.1945409  95.2981332
  39.6185377  34.1423555  94.5105004  39.5455548  34.9478527  95.0224309
  39.1762770  34.3415521  93.6853026  42.7171806  19.1889955  90.6642031
  43.2140506  18.4359917  90.3443101  41.9458788  19.2254271  90.0985240
  50.5701564  24.8930320  92.3060323  50.5591440  25.7755036  91.9354256
  49.7018943  24.5401871  92.1114860  43.8001587  27.9461642  88.2380455
  42.8657866  28.0663104  88.0685159  43.9778256  27.0434109  87.9740464
  39.3006775  21.3307338  90.3913716  38.9304563  20.7778378  91.0794621
  39.7965868  20.7265471  89.8388716  47.1874139  23.7878961  88.7730489
  47.6534591  24.6206953  88.6990791  47.6381639  23.3223943  89.4775747
  37.1295974  31.7904833  97.4868734  37.8305433  32.4241316  97.6398128
  36.6591089  32.1319564  96.7264373  45.1590801  16.1559548  92.8121390
  44.2453881  16.3863775  92.9803597  45.5883903  16.2397992  93.6635422
  44.9297260  24.3449440  95.3121284  44.2768710  24.5925348  94.6573737
  45.3077640  23.5313578  94.9783761  40.9784833  25.0869251 101.7987321
  40.3025470  24.9863380 102.4689696  41.8012467  24.9308465 102.2623318
  32.7263692  31.3241188  94.4199836  33.3117129  30.5784876  94.5527741
  32.5288530  31.6345144  95.3036500  27.3181347  23.8946788  93.1404280
  27.3565446  23.3610379  93.9341398  26.8121639  23.3681993  92.5215257
  34.6972109  18.7411328  96.6366822  34.7613435  19.6026159  96.2244220
  34.6339229  18.1285330  95.9039180  34.1724381  20.8134461 100.2839856
  34.7996420  20.4311538 100.8977380  33.3152300  20.5948663 100.6495549
  44.5718490  31.2197436 101.8893592  45.1158394  31.8327394 101.3948546
  43.9905335  31.7777015 102.4060605  30.9489924  22.6210890  86.2158211
  31.2443365  21.7121568  86.1625265  30.0477960  22.5998630  85.8939213
  34.4784171  20.6966887  92.1985760  33.7570757  21.3102854  92.0593233
  35.2677427  21.2324651  92.1202405  37.2810485  18.0321313  98.4726411
  37.8044886  18.2783610  99.2352721  37.0622818  18.8641348  98.0529549
  32.6777766  20.3024988  86.3397536  32.3490472  19.4222367  86.1572642
  33.0317136  20.2472656  87.2273925  35.7919589  20.5897958  86.7073014
  36.1315661  21.1183879  85.9851622  36.2391709  20.9278364  87.4831580
  38.4863030  18.9735008  96.1576082  38.1459850  18.1742821  96.5596762
  37.7802036  19.2736719  95.5852915  39.1379502  16.0584321  94.6103405
  39.9605571  15.5844799  94.4882295  39.3817565  16.8374804  95.1102091
  37.7787736  19.0872579  84.9066307  38.4996099  19.4653832  84.4030023
  37.1553040  19.8061456  85.0101284  41.9218859  19.7917728  85.8424639
  42.1382473  20.6742366  85.5413467  41.4412926  19.4003941  85.1130281
  36.6618080  22.7503441  92.4195383  36.5162661  23.0643744  93.3119665
  36.1843284  23.3688342  91.8666282  38.5214463  19.7405989  92.4676273
  38.5076032  18.8447083  92.1308571  39.2386891  19.7476653  93.1014559
  40.3740594  20.1743329  94.5129400  40.1158372  21.0960400  94.5113731
  39.8425634  19.7773764  95.2029865  31.1363742  25.2908786  95.3583045
  30.5917211  26.0668594  95.4903319  32.0143092  25.6379590  95.2002166
  37.9251359  18.6220370  87.7363843  38.0467270  17.6937016  87.9354731
  37.6353401  18.6359056  86.8242159  40.7942550  16.3075280  90.8730563
  40.8164246  16.3714613  89.9182543  41.2110609  15.4679789  91.0671069
  51.1726174  26.0430540  88.9109786  51.6157320  25.2937865  88.5128909
  50.2952684  26.0340676  88.5283518  31.9229764  24.4178682  98.2513201
  31.1811500  24.5661317  98.8377832  31.6022509  24.6786948  97.3879951
  39.8673427  33.9594660  98.0493592  40.1760553  33.7143807  98.9216291
  40.6648909  34.1641299  97.5612462  37.3367911  31.6570579  92.3521270
  36.7147920  30.9941284  92.0523498  38.0072778  31.6831711  91.6694918
  30.5694983  30.2230437  91.2412530  29.7326891  29.7952611  91.0596531
  30.5418628  30.4162880  92.1783321  37.4092439  20.1352367 101.9453776
  37.4580594  21.0114490 101.5631545  37.9514953  19.5929760 101.3725419
  47.8947284  30.6793490 101.2254913  47.1042828  30.6617629 100.6859412
  47.6580639  31.2181784 101.9803949  45.3048922  23.5116885  99.8546948
  46.2058785  23.3723349  99.5630946  45.3796896  23.6771339 100.7945126
  39.6391727  20.8883739  98.7000134  38.7695037  21.1817305  98.4282723
  39.8751207  21.4724184  99.4207398  34.6534051  26.2339680  86.8340799
  34.4080093  25.3302010  87.0321009  34.8229966  26.2356830  85.8920277
  42.3430761  17.1063356  96.2165555  42.8612705  17.8424383  95.8912043
  41.9885894  17.4127350  97.0512314  33.9229699  21.9668037  84.3326961
  33.2298944  22.0412392  83.6766997  33.6781451  21.2028381  84.8548478
  42.5943355  13.5263639  91.7366451  42.8745109  12.8586828  92.3626878
  43.3793962  13.7192734  91.2241115  46.4652213  21.9481273  95.4838026
  47.4169636  22.0479370  95.5050251  46.2955664  21.1559541  95.9936111
  44.4866593  19.0336856  95.6697427  43.8916525  19.3141869  94.9743916
  44.2016290  19.5230757  96.4414169  46.2462100  32.3025653  81.3904008
  46.1675732  31.9685517  82.2839765  47.0671767  32.7947421  81.3895480
  40.7823622  24.0383445  80.6407530  41.7282727  23.9089654  80.7095948
  40.4037867  23.2998107  81.1176958  49.0934780  21.9598436  94.6438609
  48.5773828  21.1756893  94.4568538  49.9774728  21.6317153  94.8085129
  46.7545507  15.7039451  90.6034422  46.5570328  15.3954540  91.4877754
  47.3645212  16.4301090  90.7332352  54.7616841  26.2303399  93.7386363
  55.4920230  25.9688687  94.2994066  54.1523787  25.4932121  93.7788431
  52.8432138  24.3711262  94.3360814  52.1165302  24.2367227  93.7277306
  52.4279425  24.6788091  95.1417532  40.6662315  28.0901192 102.1008187
  41.5865324  28.2679791 102.2948234  40.6311898  27.1457237 101.9487886
  38.9666539  21.9633422  80.5762415  38.0597995  21.6666535  80.6525129
  39.2442520  21.6663240  79.7096702  29.8844480  23.2839785  91.0261462
  29.5647264  22.4305093  90.7335836  29.3377908  23.4988363  91.7819429
  33.6624387  26.0002226  94.7430968  33.8810397  26.9319334  94.7619002
  34.0750161  25.6410201  95.5285772  40.5828605  16.5070312  86.7306657
  39.7729333  16.1617397  87.1061903  41.2713022  16.1977855  87.3194268
  42.5119153  15.5848358  88.3530953  43.0650192  16.0043812  89.0120976
  42.7489240  14.6584106  88.3953909  38.5352253  21.5735432 104.1333717
  38.4348979  22.5229789 104.0645808  38.3173795  21.2453671 103.2609787
  37.7365324  18.8220357  80.7174395  38.5984488  19.1475255  80.9770212
  37.9215668  18.0351853  80.2047460  29.7532740  26.9042697  92.9954583
  29.0596211  26.4896650  92.4824538  30.5005731  26.9463233  92.3988002
  45.8897960  17.6948884  87.8609618  45.3096629  18.3533688  87.4787670
  45.6233893  16.8726228  87.4497035  44.3401527  17.0953941  90.0630938
  44.8401305  17.2070476  89.2545257  44.9837135  16.7914994  90.7031746
  38.3983523  25.0032571 102.9498779  37.9150604  25.8032931 103.1562668
  38.4844462  25.0140516 101.9966223  31.6669482  26.8360951  90.8720598
  31.6440170  26.9348638  89.9202481  31.9770119  27.6826101  91.1937764
  34.3256860  28.8937106  94.9867213  35.2800114  28.8621048  94.9197144
  34.1269384  28.4327729  95.8017439  34.9156242  27.4638222  97.5538010
  35.7349131  27.9582300  97.5772848  35.1893050  26.5470190  97.5255578
  44.6722838  19.8548974  86.9165966  43.7848693  20.1398625  86.6986161
  45.0876827  19.6942737  86.0693243  48.0237375  19.8795495  90.6320305
  48.7997765  20.3691947  90.9044922  47.2985509  20.3053549  91.0892175
  50.4609933  20.5923114  91.6894246  51.0554424  20.3518850  90.9787554
  50.5336517  19.8730245  92.3167782  44.6463862  25.3703510  87.1316256
  44.5899064  25.8272061  86.2923888  45.1992205  24.6094194  86.9539099
  48.4568668  21.1593242  87.9566376  48.2005602  20.7589877  88.7874583
  47.8321536  21.8737036  87.8316515  52.7681006  23.8989315  90.4637667
  52.2080564  23.9682504  91.2369229  52.1624509  23.7230300  89.7437163
  45.3798641  26.5608291  84.4268785  45.3247445  26.3952563  83.4857229
  44.7544697  27.2684324  84.5830975  30.1691156  21.7976355  98.2530207
  30.8150020  21.2875309  98.7417433  29.9608308  22.5345037  98.8273633
  42.6944549  28.8657203 103.7522348  43.5635708  29.0397855 103.3908983
  42.2151300  29.6851620 103.6298077  38.6894767  16.0616400  84.0054104
  38.6773437  17.0058240  84.1622374  39.5818189  15.8786545  83.7113565
  42.5046886  12.6559177  88.2600040  41.7379282  12.1017663  88.4056723
  42.9157591  12.7281045  89.1214192  34.5088647  18.9443973 102.3505222
  35.3720109  18.5880777 102.5608546  33.9354058  18.6057867 103.0380626
  56.8312140  31.9494090  95.5948418  56.4995465  32.8189501  95.3709633
  56.2357754  31.6330374  96.2742448  50.7981669  38.0878822 100.6176665
  50.0215003  38.6472742 100.6079530  51.4372232  38.5735605 101.1391535
  58.5902450  34.8705615  94.4519642  57.9476830  35.1638148  93.8059436
  58.0857379  34.7558535  95.2572838  54.0313897  35.6370391  97.8081524
  53.7874829  36.3912451  97.2715800  54.3073827  36.0155738  98.6428771
  53.5878588  34.7926824  93.3895362  52.7263068  35.0908077  93.6812100
  53.6141023  35.0097223  92.4576395  47.7889405  38.0503923 100.9809942
  47.1588066  38.7320204 101.2145339  47.6825493  37.9387005 100.0363080
  65.1904181  41.4019707  91.0066119  64.4367889  40.8327105  90.8510123
  65.3251722  41.3682372  91.9536753  47.0670148  32.3524689 103.3435193
  46.6737094  31.7990888 104.0182837  47.8836289  32.6635268 103.7341711
  49.9838109  33.7682568 100.9355450  50.7247823  34.3689721 100.8559912
  50.2156032  33.0260206 100.3773492  53.9295272  29.7963671  95.2119731
  53.5859542  30.6865313  95.1358842  54.2974235  29.6065329  94.3489316
  55.9984556  31.4851466  92.8121390  55.0847636  31.7155693  92.9803597
  56.4277657  31.5689910  93.6635422  51.8178587  40.4161169 101.7987321
  51.1419224  40.3155298 102.4689696  52.6406221  40.2600383 102.2623318
  48.2486193  35.4644285 101.9453776  48.2974349  36.3406407 101.5631545
  48.7908707  34.9221678 101.3725419  57.3045968  37.2773190  95.4838026
  58.2563391  37.3771288  95.5050251  57.1349418  36.4851459  95.9936111
  55.3260347  34.3628774  95.6697427  54.7310280  34.6433786  94.9743916
  55.0410044  34.8522675  96.4414169  59.9328534  37.2890354  94.6438609
  59.4167583  36.5048810  94.4568538  60.8168483  36.9609070  94.8085129
  65.6010596  41.5595317  93.7386363  66.3313984  41.2980605  94.2994066
  64.9917541  40.8224039  93.7788431  63.6825893  39.7003180  94.3360814
  62.9559056  39.5659145  93.7277306  63.2673180  40.0080008  95.1417532
  49.3746007  36.9027350 104.1333717  49.2742734  37.8521707 104.0645808
  49.1567549  36.5745589 103.2609787  48.5759078  34.1512275  80.7174395
  49.4378242  34.4767173  80.9770212  48.7609423  33.3643771  80.2047460
  49.2377277  40.3324489 102.9498779  48.7544359  41.1324849 103.1562668
  49.3238216  40.3432433 101.9966223  63.6074760  39.2281233  90.4637667
  63.0474318  39.2974422  91.2369229  63.0018264  39.0522217  89.7437163
  45.3482402  34.2735890 102.3505222  46.2113863  33.9172695 102.5608546
  44.7747813  33.9349785 103.0380626  62.0020485  55.8565175  93.0929147
  61.6638997  55.7406239  92.2049682  62.8710253  55.4556340  93.0730153
  64.1637414  59.4798554  94.9944331  63.8638137  60.3823593  94.8860138
  63.8188474  59.2130737  95.8465483  61.1124645  56.9661726  80.1979875
  60.2051706  56.7350979  80.3971024  61.6095677  56.1699345  80.3853856
  62.4611131  54.6967281  80.6407530  63.4070236  54.5673489  80.7095948
  62.0825376  53.9581943  81.1176958  68.4333016  46.3623287  90.6034422
  68.2357837  46.0538375  91.4877754  69.0432721  47.0884926  90.7332352
  67.5685469  48.3532719  87.8609618  66.9884138  49.0117523  87.4787670
  67.3021402  47.5310063  87.4497035  70.0441284  75.1229056  97.9994537
  69.7531150  76.0274687  97.8841203  70.6798268  75.1645583  98.7138606
  73.8858794  77.5540511 100.8121180  73.4422648  76.7676890 100.4942085
  74.5476007  77.7419662 100.1465071  75.9840032  77.8343311  98.8402581
  75.9658507  78.6552192  98.3482850  76.9059952  77.7097386  99.0652722
  72.4413086  75.3487441  99.6826090  72.9741423  74.5875729  99.4525398
  71.9127167  75.0561092 100.4250244  78.6048080  77.5058272  99.3129781
  78.5460626  76.8217492  98.6460364  79.0067598  78.2477262  98.8610407
  73.4966096  71.0745004 101.7987321  72.8206733  70.9739134 102.4689696
  74.3193730  70.9184218 102.2623318  65.2444955  77.3116941  94.4199836
  65.8298392  76.5660629  94.5527741  65.0469794  77.6220897  95.3036500
  77.0899753  77.2073189 101.8893592  77.6339657  77.8203147 101.3948546
  76.5086598  77.7652768 102.4060605  77.4392175  78.1302927  94.6488169
  76.4922510  78.0108278  94.5766496  77.7874948  77.2425425  94.7314431
  64.8867641  78.2919864  90.2823596  65.7125661  77.9923636  89.9022240
  64.5361693  77.5227486  90.7313385  63.0876247  76.2106190  91.2412530
  62.2508155  75.7828365  91.0596531  63.0599892  76.4038634  92.1783321
  80.4128548  76.6669243 101.2254913  79.6224092  76.6493382 100.6859412
  80.1761902  77.2057537 101.9803949  82.0344620  75.9358651  98.7829663
  81.7429428  76.2988632  99.6193124  81.4216751  75.2225659  98.6042995
  73.1843578  74.0776945 102.1008187  74.1046588  74.2555544 102.2948234
  73.1493161  73.1332990 101.9487886  70.9164786  70.9908324 102.9498779
  70.4331868  71.7908684 103.1562668  71.0025725  71.0016269 101.9966223
  75.2125812  74.8532956 103.7522348  76.0816972  75.0273608 103.3908983
  74.7332564  75.6727373 103.6298077  84.1627777  87.6683862  99.0515353
  84.1516418  87.2736660  98.1795857  84.3248417  86.9349934  99.6449124
  80.8835038  90.4520974  97.9994537  80.5924904  91.3566604  97.8841203
  81.5192023  90.4937501  98.7138606  83.3162933  84.0754575 100.6176665
  82.5396267  84.6348495 100.6079530  83.9553496  84.5611358 101.1391535
  81.5709305  86.8840028 100.1794632  82.3123990  87.4225072  99.9029456
  80.8646291  87.5106317 100.3366184  86.5495160  81.6246144  97.8081524
  86.3056092  82.3788204  97.2715800  86.8255091  82.0031491  98.6428771
  80.3070669  84.0379676 100.9809942  79.6769330  84.7195957 101.2145339
  80.2006757  83.9262758 100.0363080  83.3836054  90.5940755  96.8141858
  83.4480487  91.0561162  97.6500029  82.6746978  89.9638120  96.9424167
  79.5851412  78.3400442 103.3435193  79.1918357  77.7866641 104.0182837
  80.4017552  78.6511021 103.7341711  82.5019373  79.7558321 100.9355450
  83.2429086  80.3565474 100.8559912  82.7337295  79.0135959 100.3773492
  84.7252548  92.8832429 100.8121180  84.2816403  92.0968807 100.4942085
  85.3869762  93.0711579 100.1465071  83.2806841  90.6779358  99.6826090
  83.8135177  89.9167646  99.4525398  82.7520922  90.3853010 100.4250244
  89.6252399  88.0014371  92.3111948  88.9676074  88.6913633  92.3992077
  90.4292799  88.3910803  92.6545934  91.8118969  89.6100624  93.1279533
  92.2455476  89.5175913  93.9762588  92.5250550  89.5858124  92.4899549
  84.5034964  87.3762980  96.2199566  85.4327024  87.5274139  96.0468533
  84.0825994  87.4647001  95.3648212  80.1683989  82.8848054  98.2118842
  79.6321346  82.4338793  98.8640438  79.5800698  83.0193963  97.4689306
  80.4870992  93.1072503  97.4868734  81.1880451  93.7408986  97.6398128
  80.0166107  93.4487235  96.7264373  84.3359851  86.4036922 101.7987321
  83.6600488  86.3031051 102.4689696  85.1587485  86.2476136 102.2623318
  78.0547127  80.0578999  96.6366822  78.1188453  80.9193830  96.2244220
  77.9914247  79.4453001  95.9039180  77.5299399  82.1302132 100.2839856
  78.1571438  81.7479209 100.8977380  76.6727318  81.9116334 100.6495549
  83.2248445  95.2762331  98.0493592  83.5335571  95.0311478  98.9216291
  84.0223927  95.4808969  97.5612462  80.7667457  81.4520038 101.9453776
  80.8155612  82.3282160 101.5631545  81.3089971  80.9097431 101.3725419
  89.8227231  83.2648943  95.4838026  90.7744654  83.3647041  95.5050251
  89.6530682  82.4727212  95.9936111  92.4509798  83.2766107  94.6438609
  91.9348846  82.4924563  94.4568538  93.3349746  82.9484823  94.8085129
  84.0237333  89.4068862 102.1008187  84.9440342  89.5847461 102.2948234
  83.9886916  88.4624908 101.9487886  81.8927270  82.8903103 104.1333717
  81.7923997  83.8397460 104.0645808  81.6748813  82.5621342 103.2609787
  81.7558541  86.3200242 102.9498779  81.2725622  87.1200602 103.1562668
  81.8419480  86.3308186 101.9966223  86.0519567  90.1824874 103.7522348
  86.9210726  90.3565526 103.3908983  85.5726318  91.0019290 103.6298077
  77.8663665  80.2611643 102.3505222  78.7295127  79.9048448 102.5608546
  77.2929076  79.9225538 103.0380626  89.8843750 104.4536509  84.7927638
  90.6574626 103.9065496  84.6540513  90.2369149 105.3180758  85.0042099
  92.2210028 100.6129175  82.4246087  92.4735549 100.0910696  81.6629550
  91.2834587 100.4495321  82.5272771  91.9406317 102.5157281  84.6270462
  91.8242575 101.8402184  85.2951547  92.0508577 102.0289655  83.8102615
  93.9032565  99.4614985  84.3125167  93.7832191  99.9072036  85.1510647
  93.2085154  99.8100303  83.7538705  93.9377827 107.5900780  86.6820838
  93.8023501 108.4352316  87.1105686  94.4787639 107.7920058  85.9186772
  89.2002109 108.2241974  89.3371516  89.3768737 109.1459939  89.1492500
  89.9958942 107.9100394  89.7665896  90.5441623  97.8281396  83.5747398
  89.7078935  98.1656082  83.8956673  90.4046392  97.6930376  82.6374535
  92.5194703  92.6718184  88.2826583  91.8659115  92.3567201  87.6583197
  92.4775177  92.0493924  89.0086406  94.8094141 103.0550074  84.7203865
  93.9005361 102.7709106  84.8176335  94.8389225 103.4749152  83.8607172
  93.4479973 109.2813511  90.5138304  93.4056152 109.5074357  89.5846836
  94.3642672 109.0476885  90.6624105  93.6043929 110.0254914  88.0207826
  92.8211451 110.5676594  88.1146050  94.3036674 110.5428893  88.4202067
  96.0873206 111.0268722  89.4149454  96.2695601 110.2090378  89.8777207
  96.9106192 111.2436414  88.9774344  96.4215372 109.9536907  86.6764503
  96.9503138 109.4429361  86.0634665  96.6843591 109.6379437  87.5410036
  96.1226117 108.5839479  90.8492522  95.9751079 107.6556186  91.0300092
  96.9479611 108.6059570  90.3649597  92.1220132  95.2679958  87.7363843
  92.2436043  94.3396604  87.9354731  91.8322174  95.2818644  86.8242159
  91.0950191 106.8534091  85.8279730  91.2438311 107.5369555  85.1746403
  91.9016634 106.8339181  86.3429186 101.2182319 119.0268322  89.0826038
 100.6547184 118.9358259  88.3142326 101.1034714 118.2068226  89.5628531
 103.4878754 118.4881657  94.5895897 104.0842326 118.2637680  93.8752859
 103.5453726 117.7466403  95.1921344 107.5212432 120.7966224  94.9944331
 107.2213155 121.6991263  94.8860138 107.1763492 120.5298408  95.8465483
 100.9724914 117.2480021  91.0281035 100.0475410 117.1156235  91.2358727
 101.2209327 118.0274240  91.5250977  98.3333725 116.8913295  91.8624824
  98.4626106 117.1447774  92.7764236  97.6531176 117.4841003  91.5429479
 104.6008930 119.9828603  89.7969168 105.0647276 120.2616306  89.0073790
 104.3365728 119.0812047  89.6142258  99.2317896 114.7279887  88.8659343
  98.4349059 114.8398581  89.3842839  99.0043488 115.0666539  88.0000234
 105.0623563 121.2524590  96.8141858 105.1267996 121.7144997  97.6500029
 104.3534487 120.6221955  96.9424167 104.7771581 122.9192698  86.6820838
 104.6417256 123.7644233  87.1105686 105.3181394 123.1211975  85.9186772
 106.4040057 123.5416264 100.8121180 105.9603912 122.7552643 100.4942085
 107.0657271 123.7295415 100.1465071 108.5021295 123.8219064  98.8402581
 108.4839771 124.6427945  98.3482850 109.4241216 123.6973139  99.0652722
 104.9594350 121.3363194  99.6826090 105.4922686 120.5751482  99.4525398
 104.4308431 121.0436845 100.4250244 102.4039529 121.4868458  90.3100266
 103.1980127 120.9918778  90.1082841 101.6931221 120.9586321  89.9467972
 107.2234373 123.8686553  94.6612634 107.2771395 124.4377489  95.4290350
 106.3549154 124.0388438  94.2966671  98.6307841 112.1566352  88.9738261
  98.8914658 113.0711685  88.8647421  99.4525013 111.6890795  89.1234874
 104.9810805 122.0597480  93.9898104 104.8421890 121.6916264  94.8624042
 104.1925401 122.5745119  93.8182061 106.5316020 121.4379082  91.3786941
 106.1965852 121.3979852  92.2744591 106.0319965 120.7723798  90.9057352
 111.1229343 123.4934025  99.3129781 111.0641889 122.8093245  98.6460364
 111.5248861 124.2353015  98.8610407 107.1146587 126.0161895  96.6663163
 107.8274559 126.6509360  96.5939064 106.6236616 126.1125761  95.8503165
 102.1658501 123.7656339  97.4868734 102.8667960 124.3992822  97.6398128
 101.6953616 124.1071070  96.7264373 106.9266961 126.3560639  89.4149454
 107.1089355 125.5382295  89.8777207 107.7499947 126.5728332  88.9774344
 104.7570143 128.3687685  96.0344937 105.3088451 128.5319306  96.7994022
 105.0976336 128.9592122  95.3624962 109.6081017 123.1948942 101.8893592
 110.1520921 123.8078900 101.3948546 109.0267862 123.7528521 102.4060605
 107.8938530 126.3169660  93.0208619 107.7689669 125.5159400  92.5119565
 108.5517621 126.8115854  92.5322589 109.9573438 124.1178680  94.6488169
 109.0103774 123.9984031  94.5766496 110.3056211 123.2301178  94.7314431
  97.7140293 112.2776494  86.3397536  97.3852999 111.3973873  86.1572642
  98.0679663 112.2224162  87.2273925 106.9619872 123.9131396  90.8492522
 106.8144834 122.9848104  91.0300092 107.7873365 123.9351487  90.3649597
  96.1726269 117.2660292  95.3583045  95.6279737 118.0420100  95.4903319
  97.0505619 117.6131096  95.2002166 104.9035954 125.9346166  98.0493592
 105.2123080 125.6895313  98.9216291 105.7011436 126.1392805  97.5612462
 112.9309811 122.6544996 101.2254913 112.1405355 122.6369135 100.6859412
 112.6943166 123.1933290 101.9803949 119.3899551 132.5497335  93.1567623
 120.0277961 132.4304082  92.4530963 119.2720394 133.4978179  93.2155575
 116.1989258 132.5024763  93.0929147 115.8607769 132.3865828  92.2049682
 117.0679026 132.1015928  93.0730153 112.0576073 134.3560239  89.0826038
 111.4940938 134.2650176  88.3142326 111.9428468 133.5360144  89.5628531
 116.6809041 133.6559615  99.0515353 116.6697681 133.2612413  98.1795857
 116.8429680 132.9225687  99.6449124 109.6040505 135.8511431  91.9210259
 110.3961797 135.5102256  91.5056558 109.8437155 135.9606406  92.8412412
 117.6375632 138.0231207  84.3940503 116.9863612 138.6085288  84.0074517
 118.4319995 138.5537402  84.4535541 111.5631259 135.1120344  84.7927638
 112.3362135 134.5649331  84.6540513 111.9156658 135.9764594  85.0042099
 113.4016302 136.4396727  97.9994537 113.1106168 137.3442357  97.8841203
 114.0373286 136.4813254  98.7138606 114.3272509 133.8173575  94.5895897
 114.9236081 133.5929598  93.8752859 114.3847480 133.0758321  95.1921344
 113.8997537 131.2713010  82.4246087 114.1523058 130.7494532  81.6629550
 112.9622096 131.1079156  82.5272771 118.9440820 130.2748789  90.2320831
 119.7303909 129.8568212  89.8811248 119.2079524 131.1794881  90.4002479
 119.1150897 135.7121639  84.9309488 118.4796730 135.7856266  85.6430392
 118.7848304 136.3015238  84.2528567 124.3449247 130.2124022  91.1353809
 125.0774419 129.6423239  91.3691639 123.5888603 129.8245622  91.5760315
 113.6193826 133.1741116  84.6270462 113.5030084 132.4986020  85.2951547
 113.7296086 132.6873490  83.8102615 115.9625367 132.6351263  88.3317152
 115.5983574 132.1081884  89.0430073 116.8192483 132.2449733  88.1583637
 121.8674667 123.9245596  95.5948418 121.5357992 124.7941007  95.3709633
 121.2720281 123.6081880  96.2742448 115.6030854 127.6641163  83.3278500
 115.7705256 128.5321400  83.6948971 115.4128023 127.8268445  82.4039789
 118.3606187 136.1258142  94.9944331 118.0606910 137.0283181  94.8860138
 118.0157246 135.8590325  95.8465483 111.8118668 132.5771939  91.0281035
 110.8869165 132.4448153  91.2358727 112.0603081 133.3566158  91.5250977
 121.7603331 128.6440682  92.6741768 120.8520208 128.5756091  92.3800529
 121.7090926 129.1212627  93.5023593 109.1727479 132.2205212  91.8624824
 109.3019860 132.4739691  92.7764236 108.4924931 132.8132920  91.5429479
 113.3426967 142.8902462  87.9615298 113.2650996 143.8410288  88.0403779
 112.7388610 142.5448335  88.6190225 115.8344196 130.0630328 100.6176665
 115.0577530 130.6224248 100.6079530 116.4734759 130.5487111 101.1391535
 123.6264977 126.8457121  94.4519642 122.9839357 127.1389654  93.8059436
 123.1219905 126.7310041  95.2572838 121.2805141 130.5920294  85.1405501
 122.1922997 130.8247681  84.9653199 120.7714788 131.1757338  84.5780580
 114.0890569 132.8715781 100.1794632 114.8305253 133.4100825  99.9029456
 113.3827554 133.4982070 100.3366184 119.5645908 135.0144922  98.7766794
 119.9729264 134.5727332  98.0321426 118.8423170 134.4397549  99.0300987
 115.9176978 129.9517528  96.1500351 116.7638174 130.3756942  96.2935000
 115.8575616 129.2951153  96.8438914 119.8874723 135.5746112  92.5319083
 119.2583585 135.7391826  91.8295150 119.5000385 135.9887722  93.3030047
 123.7663955 136.5100550  89.8863446 123.0814993 136.8899452  89.3360480
 123.8507804 137.1195877  90.6195394 119.0676424 127.6121897  97.8081524
 118.8237356 128.3663957  97.2715800 119.3436354 127.9907244  98.6428771
 121.0214886 134.1560509  96.4858790 121.2331782 134.7992269  95.8093171
 120.9744635 133.3222826  96.0180720 118.6241115 126.7678330  93.3895362
 117.7625594 127.0659583  93.6812100 118.6503550 126.9848729  92.4576395
 115.4402685 135.3120520  89.7969168 115.9041030 135.5908223  89.0073790
 115.1759483 134.4103965  89.6142258 112.3326766 134.8592002  92.7348931
 112.9028123 135.2879270  92.0966415 112.9234878 134.5774587  93.4333117
 114.3771571 131.4343673  86.6058733 115.0795614 131.8864716  87.0732659
 114.0452199 130.7927492  87.2338626 112.8251932 130.0255429 100.9809942
 112.1950593 130.7071710 101.2145339 112.7188020 129.9138511 100.0363080
 108.1196905 129.6927225  91.9075866 107.3295959 129.9484754  91.4315977
 108.6108152 130.5075563  92.0127907 122.1360714 137.0332465  94.6581147
 122.9578158 136.6312652  94.3763829 122.1323117 136.9300699  95.6097263
 110.0711650 130.0571805  88.8659343 109.2742813 130.1690499  89.3842839
 109.8437242 130.3958457  88.0000234 115.9017318 136.5816508  96.8141858
 115.9661750 137.0436915  97.6500029 115.1928242 135.9513873  96.9424167
 106.4034608 129.9457716  94.3390857 106.6542646 130.8304726  94.6048433
 106.9394156 129.7662317  93.5665949 130.2266707 133.3771213  91.0066119
 129.4730416 132.8078611  90.8510123 130.3614249 133.3433878  91.9536753
 115.6165335 138.2484615  86.6820838 115.4811010 139.0936151  87.1105686
 116.1575148 138.4503893  85.9186772 112.1032675 124.3276195 103.3435193
 111.7099621 123.7742394 104.0182837 112.9198815 124.6386774 103.7341711
 109.0694733 135.7660053  87.2548763 109.5819253 136.5603304  87.4054328
 109.7217446 135.0686344  87.1882365 110.8789618 138.8825810  89.3371516
 111.0556246 139.8043774  89.1492500 111.6746451 138.5684229  89.7665896
 115.0200636 125.7434074 100.9355450 115.7610349 126.3441227 100.8559912
 115.2518559 125.0011712 100.3773492 110.1641974 130.9290442  99.2133679
 110.0495489 130.0275699  99.5140778 109.3086492 131.1754138  98.8618496
 117.2433812 138.8708182 100.8121180 116.7997666 138.0844560 100.4942085
 117.9051025 139.0587332 100.1465071 112.0020933 140.4003983  95.3381859
 112.5528358 140.2721047  94.5658853 111.1632409 140.6998873  94.9876751
 119.3415050 139.1510982  98.8402581 119.3233525 139.9719863  98.3482850
 120.2634970 139.0265057  99.0652722 115.7988104 136.6655111  99.6826090
 116.3316441 135.9043400  99.4525398 115.2702185 136.3728763 100.4250244
 107.0343650 134.0948708  88.0308334 107.8718872 134.5045716  87.8142041
 107.2121917 133.1548150  88.0008527 118.9308082 131.7623788  83.7192167
 118.4154705 132.5328393  83.9580554 118.6585390 131.0888925  84.3425228
 123.9042356 134.5156143  85.6545340 123.1271799 134.1767303  85.2100502
 124.5833837 134.5208766  84.9800305 118.7194385 129.6350880  85.5451948
 118.4144521 129.9497030  86.3962091 119.6724827 129.7132300  85.5879281
 117.1640817 135.7941104  87.1944902 116.6362178 135.0593863  86.8818139
 116.6628320 136.5715780  86.9484870 122.1433663 133.9890124  92.3111948
 121.4857337 134.6789386  92.3992077 122.9474062 134.3786556  92.6545934
 120.9539122 132.3434497  90.3615890 121.4671003 132.9764489  90.8637599
 121.6040346 131.7435692  89.9959250 112.2229132 128.4865231  83.5747398
 111.3866444 128.8239918  83.8956673 112.0833901 128.3514211  82.6374535
 115.3093417 133.6121314  80.1979875 114.4020479 133.3810568  80.3971024
 115.8064449 132.8158933  80.3853856 118.2161496 142.3218821  83.1176561
 117.5423195 142.6250518  83.7261519 118.6027318 143.1247902  82.7682018
 117.4319952 129.8183953  92.6074230 116.5142514 130.0398900  92.4495918
 117.8480096 129.8930263  91.7485938 118.2155000 131.2175368  87.7376911
 118.9626819 131.7296765  87.4284033 118.4846590 130.8959421  88.5981304
 116.4881650 133.7133909  84.7203865 115.5792870 133.4292942  84.8176335
 116.5176734 134.1332987  83.8607172 121.7200918 137.3240498  88.4895032
 121.2663245 136.4831408  88.5460223 121.0894885 137.9601897  88.8269813
 120.6633837 128.2532484  89.7195700 119.9256594 127.7409871  90.0505942
 120.9160611 127.8132866  88.9078977 120.1633857 139.1616995  89.4244851
 120.4556831 139.7222052  88.7057216 120.6732478 139.4545556  90.1798010
 107.0569821 131.4339423  88.7019067 106.8594221 130.8408784  87.9770134
 106.5016485 131.1291633  89.4195006 115.0366544 131.3262530  90.8213660
 115.0915154 130.3736366  90.7456137 114.2257746 131.4821969  91.3054959
 116.1857738 135.2542653  82.0591943 115.7477168 134.5378512  81.5997581
 116.9268179 135.4818767  81.4977035 112.9758904 129.9439589  88.5804039
 112.1626770 130.2433760  88.9869231 113.4717899 129.5495278  89.2978521
 115.1267482 139.9397346  90.5138304 115.0843661 140.1658193  89.5846836
 116.0430181 139.7060721  90.6624105 118.5733116 130.4081414  97.4118933
 118.9282504 130.6352887  98.2713399 119.2205247 130.7399791  96.7896188
 124.3030853 133.5299850  88.1168262 124.1648752 133.7201446  87.1889451
 123.9467072 134.2919232  88.5736313 112.4672979 127.5157945  94.1965274
 113.1072358 127.3746704  93.4988237 111.6350510 127.2292458  93.8203876
 124.3300233 135.5976377  93.1279533 124.7636739 135.5051666  93.9762588
 125.0431813 135.5733877  92.4899549 113.2433283 136.8160375  90.3100266
 114.0373882 136.3210695  90.1082841 112.5324975 136.2878238  89.9467972
 118.0628128 139.1978471  94.6612634 118.1165150 139.7669407  95.4290350
 117.1942909 139.3680356  94.2966671 109.5516047 130.9603457  86.3860019
 108.6213635 130.8987912  86.6029981 109.6473519 130.4379410  85.5896660
 109.4701596 127.4858270  88.9738261 109.7308413 128.4003603  88.8647421
 110.2918768 127.0182712  89.1234874 110.9426521 128.8996027  96.1437085
 111.6149574 128.6913389  95.4949734 110.1156307 128.7018113  95.7042318
 125.1915782 135.6400077  95.6612419 125.3851672 136.5445888  95.9071694
 125.0916400 135.1807496  96.4951004 116.8452093 125.5257968  98.1602746
 116.1980008 126.2247918  98.0667223 117.6153108 125.9594112  98.5278994
 120.2530891 135.7906820 101.2353299 120.1016397 135.5617372 100.3183383
 120.2435570 136.7477421 101.2484645 117.0216227 133.3638733  96.2199566
 117.9508287 133.5149892  96.0468533 116.6007257 133.4522754  95.3648212
 115.8204559 137.3889397  93.9898104 115.6815645 137.0208182  94.8624042
 115.0319155 137.9037037  93.8182061 116.4152711 142.4898494  85.3323640
 116.5904467 142.0186537  86.1469263 115.7285499 143.1164260  85.5604901
 117.3709774 136.7671000  91.3786941 117.0359607 136.7271770  92.2744591
 116.8713720 136.1015716  90.9057352 111.3454018 132.1738630  96.9039522
 111.2073816 131.4418869  97.5051062 112.2558942 132.0847530  96.6223710
 120.3068966 134.1127034  81.6524001 119.6898136 133.3873862  81.5557054
 119.8385454 134.8736395  81.3091075 113.9736319 131.8858589  96.3923202
 114.6835937 131.2451781  96.3509821 113.9305627 132.1371484  97.3149383
 121.9623097 138.8225943  99.3129781 121.9035644 138.1385163  98.6460364
 122.3642616 139.5644933  98.8610407 112.6865253 128.8723807  98.2118842
 112.1502610 128.4214546  98.8640438 112.0981961 129.0069716  97.4689306
 110.9813796 145.6387856  92.1063500 111.2210395 146.2706381  92.7842519
 110.1382993 145.2875896  92.3928860 121.9640505 136.7865527  97.5443761
 121.0767284 136.4491448  97.6670160 122.5339056 136.0548558  97.7812526
 103.6169652 133.1189618  90.8686812 104.3040692 132.8051348  90.2807828
 103.4617781 134.0230983  90.5954064 108.4204374 128.0079815  95.2971836
 108.3362563 127.4005484  94.5622246 107.5987080 128.4988833  95.2981332
 115.4941658 141.4466979  94.5105004 115.4211830 142.2521950  95.0224309
 115.0519051 141.6458945  93.6853026 115.2831438 140.6838749  88.0207826
 114.4998960 141.2260429  88.1146050 115.9824183 141.2012729  88.4202067
 118.5928088 126.4933378  90.6642031 119.0896787 125.7403341  90.3443101
 117.8215069 126.5297695  90.0985240 126.4457845 132.1973744  92.3060323
 126.4347722 133.0798459  91.9354256 125.5775225 131.8445295  92.1114860
 117.9540342 141.3453813  96.6663163 118.6668314 141.9801278  96.5939064
 117.4630370 141.4417679  95.8503165 119.6757869 135.2505066  88.2380455
 118.7414147 135.3706528  88.0685159 119.8534537 134.3477532  87.9740464
 115.1763057 128.6350761  90.3913716 114.8060844 128.0821802  91.0794621
 115.6722149 128.0308895  89.8388716 123.0630420 131.0922385  88.7730489
 123.5290872 131.9250376  88.6990791 123.5137920 130.6267366  89.4775747
 113.0052255 139.0948256  97.4868734 113.7061715 139.7284739  97.6398128
 112.5347370 139.4362988  96.7264373 121.1306651 137.4366206  85.7716641
 121.4066495 137.3222801  86.6810515 120.2611150 137.0383691  85.7328814
 121.0347083 123.4602972  92.8121390 120.1210162 123.6907199  92.9803597
 121.4640184 123.5441416  93.6635422 120.8053541 131.6492864  95.3121284
 120.1524991 131.8968771  94.6573737 121.1833921 130.8357002  94.9783761
 117.7660715 141.6852557  89.4149454 117.9483110 140.8674213  89.8777207
 118.5893701 141.9020249  88.9774344 118.1002881 140.6120742  86.6764503
 118.6290647 140.1013197  86.0634665 118.3631100 140.2963272  87.5410036
 116.8541114 132.3912675 101.7987321 116.1781751 132.2906804 102.4689696
 117.6768748 132.2351889 102.2623318 108.6019973 138.6284611  94.4199836
 109.1873410 137.8828299  94.5527741 108.4044812 138.9388568  95.3036500
 111.4558628 141.6635859  89.4362279 110.7869004 142.1481986  88.9526319
 111.3171498 141.9105079  90.3505657 103.1937628 131.1990212  93.1404280
 103.2321728 130.6653802  93.9341398 102.6877921 130.6725417  92.5215257
 115.5963897 143.6979602  96.0344937 116.1482205 143.8611224  96.7994022
 115.9370091 144.2884040  95.3624962 110.5728390 126.0454752  96.6366822
 110.6369717 126.9069583  96.2244220 110.5095511 125.4328754  95.9039180
 110.0480663 128.1177885 100.2839856 110.6752702 127.7354962 100.8977380
 109.1908582 127.8992087 100.6495549 120.4474771 138.5240860 101.8893592
 120.9914675 139.1370818 101.3948546 119.8661616 139.0820438 102.4060605
 106.8246206 129.9254314  86.2158211 107.1199647 129.0164992  86.1625265
 105.9234241 129.9042053  85.8939213 118.7332284 141.6461578  93.0208619
 118.6083424 140.8451318  92.5119565 119.3911375 142.1407771  92.5322589
 110.3540453 128.0010310  92.1985760 109.6327038 128.6146278  92.0593233
 111.1433708 128.5368075  92.1202405 120.7967193 139.4470598  94.6488169
 119.8497528 139.3275949  94.5766496 121.1449966 138.5593096  94.7314431
 113.1566766 125.3364737  98.4726411 113.6801168 125.5827033  99.2352721
 112.9379099 126.1684772  98.0529549 108.5534047 127.6068411  86.3397536
 108.2246753 126.7265790  86.1572642 108.9073418 127.5516080  87.2273925
 117.8013626 139.2423314  90.8492522 117.6538588 138.3140022  91.0300092
 118.6267120 139.2643405  90.3649597 111.6675870 127.8941381  86.7073014
 112.0071943 128.4227302  85.9851622 112.1147991 128.2321787  87.4831580
 121.4047748 140.0651873  91.9357394 122.3294295 139.8594734  91.7981846
 121.2363051 139.8168274  92.8446736 114.3619311 126.2778432  96.1576082
 114.0216132 125.4786245  96.5596762 113.6558317 126.5780143  95.5852915
 112.5374362 130.0546865  92.4195383 112.3918942 130.3687168  93.3119665
 112.0599565 130.6731765  91.8666282 114.3970745 127.0449413  92.4676273
 114.3832313 126.1490506  92.1308571 115.1143173 127.0520077  93.1014559
 116.2496875 127.4786753  94.5129400 115.9914653 128.4003824  94.5113731
 115.7181916 127.0817188  95.2029865 121.1943064 140.5837540  87.2919486
 121.3679942 140.0183963  86.5393338 121.6871955 141.3838435  87.1098976
 107.0120024 132.5952209  95.3583045 106.4673492 133.3712017  95.4903319
 107.8899374 132.9423014  95.2002166 127.0482455 133.3473963  88.9109786
 127.4913601 132.5981288  88.5128909 126.1708966 133.3384100  88.5283518
 122.1818237 139.9004305  84.3916384 122.8769141 140.5210997  84.6103699
 122.5241387 139.0499656  84.6668762 107.7986046 131.7222106  98.2513201
 107.0567782 131.8704741  98.8377832 107.4778790 131.9830371  97.3879951
 124.0809660 137.3504010  85.9203715 124.6060984 137.6891283  85.1953035
 123.9932012 136.4151026  85.7366849 115.7429708 141.2638084  98.0493592
 116.0516835 141.0187231  98.9216291 116.5405190 141.4684722  97.5612462
 115.7650320 143.4175994  90.2798968 115.3255311 142.9252372  90.9731825
 116.5158437 142.8748961  90.0391043 108.2442659 139.6087534  90.2823596
 109.0700679 139.3091306  89.9022240 107.8936711 138.8395157  90.7313385
 113.2124193 138.9614003  92.3521270 112.5904202 138.2984708  92.0523498
 113.8829060 138.9875135  91.6694918 106.4451264 137.5273861  91.2412530
 105.6083173 137.0996035  91.0596531 106.4174910 137.7206304  92.1783321
 113.2848720 127.4395791 101.9453776 113.3336876 128.3157913 101.5631545
 113.8271234 126.8973184 101.3725419 123.7703566 137.9836914 101.2254913
 122.9799109 137.9661053 100.6859412 123.5336920 138.5225208 101.9803949
 123.8901441 134.8329380  98.5387641 123.9399446 134.6679388  99.4803164
 123.7815364 133.9656639  98.1485522 112.7737700 137.5117926  85.8279730
 112.9225820 138.1953390  85.1746403 113.5804143 137.4923016  86.3429186
 121.1805203 130.8160308  99.8546948 122.0815066 130.6766773  99.5630946
 121.2553178 130.9814763 100.7945126 115.5148009 128.1927163  98.7000134
 114.6451318 128.4860729  98.4282723 115.7507489 128.7767608  99.4207398
 125.3919638 137.2526322  98.7829663 125.1004446 137.6156302  99.6193124
 124.7791769 136.5393330  98.6042995 126.5915320 134.8179202  91.3032233
 127.4262211 135.2569006  91.4669793 126.7274449 134.3417855  90.4840479
 123.6406826 132.3758936  97.2509721 124.1160947 132.5686583  96.4428572
 122.7172391 132.4318122  97.0053105 110.5290332 133.5383104  86.8340799
 110.2836374 132.6345434  87.0321009 110.6986247 133.5400254  85.8920277
 118.2187042 124.4106780  96.2165555 118.7368986 125.1467807  95.8912043
 117.8642175 124.7170773  97.0512314 116.2733105 140.0066056  83.2991478
 115.7007072 140.6256244  82.8461950 116.8465899 140.5565418  83.8331400
 122.3408495 129.2524697  95.4838026 123.2925918 129.3522794  95.5050251
 122.1711945 128.4602965  95.9936111 120.3622874 126.3380280  95.6697427
 119.7672806 126.6185292  94.9743916 120.0772571 126.8274181  96.4414169
 119.4930365 140.2903207  84.4300060 120.4261038 140.2248768  84.6332935
 119.4053578 141.1259473  83.9714593 122.1218381 139.6069077  81.3904008
 122.0432013 139.2728941  82.2839765 122.9428048 140.0990845  81.3895480
 124.8196573 132.4730816  94.5980326 124.7872893 131.5346817  94.7840010
 125.4297196 132.5514853  93.8646151 116.6579904 131.3426869  80.6407530
 117.6039008 131.2133077  80.7095948 116.2794148 130.6041531  81.1176958
 124.9691061 129.2641860  94.6438609 124.4530110 128.4800316  94.4568538
 125.8531010 128.9360576  94.8085129 122.6301788 123.0082875  90.6034422
 122.4326609 122.6997963  91.4877754 123.2401494 123.7344514  90.7332352
 130.6373123 133.5346823  93.7386363 131.3676511 133.2732111  94.2994066
 130.0280068 132.7975545  93.7788431 128.7188420 131.6754686  94.3360814
 127.9921583 131.5410651  93.7277306 128.3035707 131.9831514  95.1417532
 116.5418596 135.3944615 102.1008187 117.4621606 135.5723214 102.2948234
 116.5068179 134.4500661 101.9487886 114.8422821 129.2676846  80.5762415
 113.9354276 128.9709958  80.6525129 115.1198802 128.9706664  79.7096702
 105.7600761 130.5883209  91.0261462 105.4403545 129.7348517  90.7335836
 105.2134189 130.8031787  91.7819429 109.5380669 133.3045650  94.7430968
 109.7566678 134.2362758  94.7619002 109.9506442 132.9453624  95.5285772
 114.4108534 128.8778856 104.1333717 114.3105261 129.8273213 104.0645808
 114.1930076 128.5497095 103.2609787 113.6121605 126.1263781  80.7174395
 114.4740769 126.4518679  80.9770212 113.7971949 125.3395277  80.2047460
 105.6289021 134.2086120  92.9954583 104.9352493 133.7940073  92.4824538
 106.3762012 134.2506657  92.3988002 114.2739804 132.3075995 102.9498779
 113.7906886 133.1076355 103.1562668 114.3600743 132.3183939 101.9966223
 107.5425764 134.1404374  90.8720598 107.5196452 134.2392062  89.9202481
 107.8526400 134.9869525  91.1937764 110.2013141 136.1980529  94.9867213
 111.1556395 136.1664472  94.9197144 110.0025665 135.7371153  95.8017439
 110.7912524 134.7681645  97.5538010 111.6105413 135.2625724  97.5772848
 111.0649331 133.8513613  97.5255578 120.5479120 127.1592398  86.9165966
 119.6604975 127.4442048  86.6986161 120.9633109 126.9986161  86.0693243
 123.8993656 127.1838919  90.6320305 124.6754046 127.6735371  90.9044922
 123.1741790 127.6096973  91.0892175 126.3366215 127.8966538  91.6894246
 126.9310705 127.6562274  90.9787554 126.4092798 127.1773668  92.3167782
 108.5563370 141.7400149  92.0037411 108.4217838 140.9800550  91.4375409
 108.1395433 142.4641049  91.5366199 119.6922333 136.9237072  81.0113986
 120.3958183 137.1287075  81.6271641 118.9684982 137.4913834  81.2763069
 120.5220144 132.6746934  87.1316256 120.4655345 133.1315485  86.2923888
 121.0748486 131.9137618  86.9539099 124.3324949 128.4636665  87.9566376
 124.0761884 128.0633301  88.7874583 123.7077818 129.1780459  87.8316515
 128.6437287 131.2032739  90.4637667 128.0836845 131.2725928  91.2369229
 128.0380791 131.0273723  89.7437163 111.7132496 142.6369466  92.2155853
 111.5964880 143.5814898  92.1134543 110.8924942 142.3343027  92.6041652
 121.6009031 137.3619602  83.0612446 122.4354635 136.9300800  82.8789921
 121.4393374 137.1901615  83.9889340 121.2554923 133.8651715  84.4268785
 121.2003727 133.6995986  83.4857229 120.6300978 134.5727748  84.5830975
 106.0447438 129.1019779  98.2530207 106.6906301 128.5918733  98.7417433
 105.8364589 129.8388461  98.8273633 118.5700830 136.1700627 103.7522348
 119.4391990 136.3441279 103.3908983 118.0907582 136.9895044 103.6298077
 112.7387010 143.2897728  95.4311782 113.6414257 143.3221338  95.7478277
 112.5124380 142.3598179  95.4458117 114.4940612 142.0428714  92.0921860
 113.5436243 142.0430576  91.9786233 114.7973098 141.2961449  91.5757895
 110.3844929 126.2487396 102.3505222 111.2476390 125.8924201 102.5608546
 109.8110340 125.9101291 103.0380626 130.2293306 147.8789253  93.1567623
 130.8671716 147.7596000  92.4530963 130.1114149 148.8270097  93.2155575
 127.0383012 147.8316681  93.0929147 126.7001524 147.7157745  92.2049682
 127.9072780 147.4307846  93.0730153 122.8969828 149.6852157  89.0826038
 122.3334693 149.5942094  88.3142326 122.7822223 148.8652062  89.5628531
 127.5202795 148.9851532  99.0515353 127.5091436 148.5904331  98.1795857
 127.6823435 148.2517605  99.6449124 120.4434260 151.1803349  91.9210259
 121.2355552 150.8394173  91.5056558 120.6830910 151.2898324  92.8412412
 122.4025014 150.4412262  84.7927638 123.1755890 149.8941249  84.6540513
 122.7550412 151.3056511  85.0042099 124.2410056 151.7688644  97.9994537
 123.9499922 152.6734275  97.8841203 124.8767041 151.8105172  98.7138606
 125.1666263 149.1465493  94.5895897 125.7629835 148.9221515  93.8752859
 125.2241235 148.4050238  95.1921344 124.7391291 146.6004928  82.4246087
 124.9916812 146.0786449  81.6629550 123.8015851 146.4371074  82.5272771
 129.7834574 145.6040706  90.2320831 130.5697663 145.1860130  89.8811248
 130.0473279 146.5086799  90.4002479 129.9544652 151.0413557  84.9309488
 129.3190485 151.1148183  85.6430392 129.6242058 151.6307156  84.2528567
 135.1843001 145.5415940  91.1353809 135.9168173 144.9715156  91.3691639
 134.4282357 145.1537540  91.5760315 124.4587580 148.5033034  84.6270462
 124.3423838 147.8277937  85.2951547 124.5689840 148.0165408  83.8102615
 126.8019121 147.9643181  88.3317152 126.4377328 147.4373802  89.0430073
 127.6586237 147.5741650  88.1583637 132.7068422 139.2537514  95.5948418
 132.3751747 140.1232925  95.3709633 132.1114035 138.9373798  96.2742448
 126.4424608 142.9933081  83.3278500 126.6099010 143.8613317  83.6948971
 126.2521777 143.1560363  82.4039789 129.1999941 151.4550060  94.9944331
 128.9000664 152.3575099  94.8860138 128.8551001 151.1882243  95.8465483
 122.6512423 147.9063857  91.0281035 121.7262919 147.7740071  91.2358727
 122.8996836 148.6858076  91.5250977 132.5997085 143.9732600  92.6741768
 131.6913962 143.9048008  92.3800529 132.5484681 144.4504545  93.5023593
 126.4213829 145.4490738  84.3125167 126.3013454 145.8947789  85.1510647
 125.7266417 145.7976056  83.7538705 120.0121234 147.5497130  91.8624824
 120.1413615 147.8031609  92.7764236 119.3318685 148.1424838  91.5429479
 126.6737951 145.3922246 100.6176665 125.8971285 145.9516166 100.6079530
 127.3128514 145.8779029 101.1391535 134.4658731 142.1749038  94.4519642
 133.8233112 142.4681572  93.8059436 133.9613660 142.0601959  95.2572838
 132.1198895 145.9212212  85.1405501 133.0316751 146.1539598  84.9653199
 131.6108542 146.5049256  84.5780580 124.9284323 148.2007699 100.1794632
 125.6699008 148.7392743  99.9029456 124.2221309 148.8273988 100.3366184
 130.4039663 150.3436839  98.7766794 130.8123019 149.9019250  98.0321426
 129.6816924 149.7689467  99.0300987 126.7570733 145.2809446  96.1500351
 127.6031928 145.7048860  96.2935000 126.6969371 144.6243070  96.8438914
 130.7268477 150.9038030  92.5319083 130.0977340 151.0683744  91.8295150
 130.3394140 151.3179640  93.3030047 129.9070178 142.9413814  97.8081524
 129.6631110 143.6955875  97.2715800 130.1830109 143.3199162  98.6428771
 131.8608641 149.4852427  96.4858790 132.0725536 150.1284187  95.8093171
 131.8138389 148.6514743  96.0180720 129.4634870 142.0970248  93.3895362
 128.6019349 142.3951501  93.6812100 129.4897305 142.3140646  92.4576395
 126.2796439 150.6412438  89.7969168 126.7434785 150.9200141  89.0073790
 126.0153237 149.7395883  89.6142258 123.1720520 150.1883920  92.7348931
 123.7421877 150.6171188  92.0966415 123.7628632 149.9066504  93.4333117
 125.2165325 146.7635590  86.6058733 125.9189369 147.2156634  87.0732659
 124.8845954 146.1219409  87.2338626 123.6645687 145.3547347 100.9809942
 123.0344347 146.0363628 101.2145339 123.5581775 145.2430429 100.0363080
 118.9590659 145.0219143  91.9075866 118.1689713 145.2776672  91.4315977
 119.4501907 145.8367481  92.0127907 120.9105405 145.3863722  88.8659343
 120.1136568 145.4982417  89.3842839 120.6830997 145.7250375  88.0000234
 126.7411072 151.9108426  96.8141858 126.8055505 152.3728833  97.6500029
 126.0321996 151.2805791  96.9424167 117.2428362 145.2749634  94.3390857
 117.4936401 146.1596643  94.6048433 117.7787911 145.0954235  93.5665949
 126.4559090 153.5776533  86.6820838 126.3204765 154.4228069  87.1105686
 126.9968902 153.7795811  85.9186772 122.9426430 139.6568113 103.3435193
 122.5493375 139.1034311 104.0182837 123.7592570 139.9678691 103.7341711
 119.9088487 151.0951971  87.2548763 120.4213008 151.8895221  87.4054328
 120.5611200 150.3978262  87.1882365 121.7183372 154.2117727  89.3371516
 121.8950000 155.1335692  89.1492500 122.5140206 153.8976147  89.7665896
 125.8594391 141.0725992 100.9355450 126.6004104 141.6733145 100.8559912
 126.0912313 140.3303630 100.3773492 121.0035729 146.2582359  99.2133679
 120.8889244 145.3567617  99.5140778 120.1480246 146.5046056  98.8618496
 122.8414688 155.7295901  95.3381859 123.3922113 155.6012965  94.5658853
 122.0026163 156.0290790  94.9876751 126.6381859 151.9947029  99.6826090
 127.1710195 151.2335317  99.4525398 126.1095940 151.7020681 100.4250244
 129.8051554 137.1007095  95.2119731 129.4615823 137.9908737  95.1358842
 130.1730516 136.9108753  94.3489316 117.8737404 149.4240625  88.0308334
 118.7112626 149.8337634  87.8142041 118.0515672 148.4840068  88.0008527
 129.7701836 147.0915706  83.7192167 129.2548460 147.8620311  83.9580554
 129.4979145 146.4180842  84.3425228 127.3548947 141.9365407  88.7777405
 126.4990544 141.5472257  88.5983044 127.7675899 142.0157368  87.9177190
 128.8848094 139.4711750  93.1768965 128.3812890 139.4341885  92.3636770
 129.1778701 140.3804493  93.2365621 125.1290980 139.5550480  92.1835146
 125.9943977 139.3593289  91.8241036 125.1968489 139.3260832  93.1104503
 129.5588139 144.9642798  85.5451948 129.2538275 145.2788947  86.3962091
 130.5118582 145.0424218  85.5879281 128.0034571 151.1233021  87.1944902
 127.4755933 150.3885781  86.8818139 127.5022074 151.9007698  86.9484870
 132.9827417 149.3182042  92.3111948 132.3251092 150.0081303  92.3992077
 133.7867817 149.7078474  92.6545934 122.7353299 141.7852688  89.5551513
 123.3097051 141.5627869  88.8224706 123.3224281 141.8541382  90.3080115
 131.7932876 147.6726415  90.3615890 132.3064758 148.3056406  90.8637599
 132.4434100 147.0727610  89.9959250 123.0622886 143.8157149  83.5747398
 122.2260198 144.1531835  83.8956673 122.9227656 143.6806129  82.6374535
 125.0375967 138.6593937  88.2826583 124.3840379 138.3442954  87.6583197
 124.9956441 138.0369677  89.0086406 126.1487171 148.9413232  80.1979875
 125.2414233 148.7102485  80.3971024 126.6458203 148.1450851  80.3853856
 128.2713707 145.1475870  92.6074230 127.3536268 145.3690817  92.4495918
 128.6873851 145.2222181  91.7485938 129.0548755 146.5467286  87.7376911
 129.8020574 147.0588683  87.4284033 129.3240344 146.2251339  88.5981304
 127.3275405 149.0425827  84.7203865 126.4186624 148.7584859  84.8176335
 127.3570489 149.4624905  83.8607172 131.5027592 143.5824402  89.7195700
 130.7650349 143.0701788  90.0505942 131.7554365 143.1424784  88.9078977
 131.6039219 136.3600654  90.3137469 131.9098096 135.4998018  90.0263384
 132.3291824 136.9518274  90.1136463 117.8963575 146.7631341  88.7019067
 117.6987975 146.1700701  87.9770134 117.3410239 146.4583551  89.4195006
 125.8760299 146.6554447  90.8213660 125.9308909 145.7028284  90.7456137
 125.0651501 146.8113886  91.3054959 127.0251493 150.5834570  82.0591943
 126.5870923 149.8670429  81.5997581 127.7661934 150.8110685  81.4977035
 123.8152659 145.2731507  88.5804039 123.0020524 145.5725678  88.9869231
 124.3111653 144.8787196  89.2978521 125.9661237 155.2689264  90.5138304
 125.9237416 155.4950110  89.5846836 126.8823936 155.0352638  90.6624105
 129.4126871 145.7373331  97.4118933 129.7676258 145.9644805  98.2713399
 130.0599002 146.0691708  96.7896188 135.1424607 148.8591767  88.1168262
 135.0042506 149.0493363  87.1889451 134.7860826 149.6211150  88.5736313
 123.3066734 142.8449862  94.1965274 123.9466113 142.7038622  93.4988237
 122.4744264 142.5584376  93.8203876 124.0827038 152.1452293  90.3100266
 124.8767636 151.6502613  90.1082841 123.3718730 151.6170156  89.9467972
 120.3909801 146.2895375  86.3860019 119.4607389 146.2279830  86.6029981
 120.4867273 145.7671327  85.5896660 120.3095350 142.8150187  88.9738261
 120.5702167 143.7295521  88.8647421 121.1312522 142.3474630  89.1234874
 121.7820275 144.2287945  96.1437085 122.4543329 144.0205307  95.4949734
 120.9550062 144.0310031  95.7042318 127.6845847 140.8549886  98.1602746
 127.0373762 141.5539835  98.0667223 128.4546863 141.2886029  98.5278994
 131.0924645 151.1198738 101.2353299 130.9410152 150.8909289 100.3183383
 131.0829325 152.0769339 101.2484645 127.8609982 148.6930650  96.2199566
 128.7902042 148.8441810  96.0468533 127.4401012 148.7814671  95.3648212
 126.6598314 152.7181315  93.9898104 126.5209399 152.3500099  94.8624042
 125.8712910 153.2328954  93.8182061 128.2103529 152.0962918  91.3786941
 127.8753361 152.0563688  92.2744591 127.7107474 151.4307633  90.9057352
 122.1847773 147.5030548  96.9039522 122.0467571 146.7710786  97.5051062
 123.0952696 147.4139448  96.6223710 131.1462720 149.4418952  81.6524001
 130.5291891 148.7165780  81.5557054 130.6779209 150.2028312  81.3091075
 124.8130073 147.2150507  96.3923202 125.5229692 146.5743699  96.3509821
 124.7699381 147.4663402  97.3149383 123.5259007 144.2015725  98.2118842
 122.9896364 143.7506463  98.8640438 122.9375716 144.3361634  97.4689306
 122.9361266 143.6604376  80.7745305 122.0590733 143.5393177  80.4107552
 123.4119019 142.8690455  80.5224194 114.4563406 148.4481536  90.8686812
 115.1434446 148.1343266  90.2807828 114.3011535 149.3522901  90.5954064
 119.2598129 143.3371733  95.2971836 119.1756317 142.7297402  94.5622246
 118.4380835 143.8280751  95.2981332 129.4321842 141.8225296  90.6642031
 129.9290542 141.0695258  90.3443101 128.6608824 141.8589613  90.0985240
 130.5151623 150.5796983  88.2380455 129.5807902 150.6998446  88.0685159
 130.6928292 149.6769450  87.9740464 126.0156811 143.9642679  90.3913716
 125.6454599 143.4113719  91.0794621 126.5115904 143.3600813  89.8388716
 133.9024174 146.4214303  88.7730489 134.3684627 147.2542294  88.6990791
 134.3531675 145.9559284  89.4775747 123.8446010 154.4240174  97.4868734
 124.5455469 155.0576657  97.6398128 123.3741125 154.7654906  96.7264373
 131.8740837 138.7894890  92.8121390 130.9603917 139.0199116  92.9803597
 132.3033939 138.8733334  93.6635422 131.6447296 146.9784782  95.3121284
 130.9918746 147.2260689  94.6573737 132.0227676 146.1648920  94.9783761
 127.6934869 147.7204593 101.7987321 127.0175506 147.6198722 102.4689696
 128.5162503 147.5643806 102.2623318 119.4413728 153.9576529  94.4199836
 120.0267165 153.2120217  94.5527741 119.2438566 154.2680486  95.3036500
 122.2952383 156.9927776  89.4362279 121.6262758 157.4773904  88.9526319
 122.1565253 157.2396997  90.3505657 114.0331383 146.5282129  93.1404280
 114.0715482 145.9945720  93.9341398 113.5271675 146.0017335  92.5215257
 121.4122145 141.3746670  96.6366822 121.4763471 142.2361501  96.2244220
 121.3489265 140.7620671  95.9039180 120.8874417 143.4469802 100.2839856
 121.5146456 143.0646880 100.8977380 120.0302336 143.2284004 100.6495549
 117.6639960 145.2546231  86.2158211 117.9593401 144.3456910  86.1625265
 116.7627996 145.2333971  85.8939213 121.1934207 143.3302228  92.1985760
 120.4720793 143.9438196  92.0593233 121.9827463 143.8659993  92.1202405
 123.9960521 140.6656655  98.4726411 124.5194922 140.9118951  99.2352721
 123.7772854 141.4976689  98.0529549 119.3927802 142.9360329  86.3397536
 119.0640508 142.0557708  86.1572642 119.7467172 142.8807998  87.2273925
 122.5069625 143.2233299  86.7073014 122.8465697 143.7519220  85.9851622
 122.9541745 143.5613705  87.4831580 125.2013066 141.6070350  96.1576082
 124.8609886 140.8078163  96.5596762 124.4952072 141.9072060  95.5852915
 125.8529537 138.6919662  94.6103405 126.6755607 138.2180140  94.4882295
 126.0967601 139.4710146  95.1102091 124.4937772 141.7207921  84.9066307
 125.2146134 142.0989173  84.4030023 123.8703076 142.4396797  85.0101284
 128.6368895 142.4253069  85.8424639 128.8532509 143.3077707  85.5413467
 128.1562962 142.0339283  85.1130281 123.3768116 145.3838783  92.4195383
 123.2312697 145.6979086  93.3119665 122.8993320 146.0023683  91.8666282
 125.2364499 142.3741331  92.4676273 125.2226068 141.4782424  92.1308571
 125.9536927 142.3811994  93.1014559 127.0890630 142.8078671  94.5129400
 126.8308408 143.7295742  94.5113731 126.5575670 142.4109105  95.2029865
 117.8513778 147.9244127  95.3583045 117.3067246 148.7003935  95.4903319
 118.7293128 148.2714932  95.2002166 124.6401395 141.2555711  87.7363843
 124.7617306 140.3272357  87.9354731 124.3503437 141.2694397  86.8242159
 127.5092585 138.9410621  90.8730563 127.5314282 139.0049955  89.9182543
 127.9260644 138.1015130  91.0671069 118.6379800 147.0514023  98.2513201
 117.8961536 147.1996659  98.8377832 118.3172545 147.3122289  97.3879951
 119.0836414 154.9379452  90.2823596 119.9094434 154.6383224  89.9022240
 118.7330466 154.1687075  90.7313385 124.0517947 154.2905920  92.3521270
 123.4297956 153.6276625  92.0523498 124.7222814 154.3167052  91.6694918
 117.2845019 152.8565779  91.2412530 116.4476927 152.4287953  91.0596531
 117.2568664 153.0498222  92.1783321 124.1242475 142.7687708 101.9453776
 124.1730630 143.6449831 101.5631545 124.6664989 142.2265101 101.3725419
 123.6131454 152.8409844  85.8279730 123.7619574 153.5245308  85.1746403
 124.4197897 152.8214934  86.3429186 132.0198958 146.1452226  99.8546948
 132.9208820 146.0058691  99.5630946 132.0946932 146.3106681 100.7945126
 126.3541763 143.5219081  98.7000134 125.4845072 143.8152647  98.4282723
 126.5901243 144.1059526  99.4207398 134.4800580 147.7050854  97.2509721
 134.9554702 147.8978500  96.4428572 133.5566146 147.7610040  97.0053105
 121.3684087 148.8675021  86.8340799 121.1230129 147.9637351  87.0321009
 121.5380002 148.8692172  85.8920277 129.0580797 139.7398698  96.2165555
 129.5762741 140.4759725  95.8912043 128.7035930 140.0462691  97.0512314
 120.6379735 144.6003379  84.3326961 119.9448979 144.6747734  83.6766997
 120.3931486 143.8363723  84.8548478 129.3093391 136.1598980  91.7366451
 129.5895145 135.4922169  92.3626878 130.0943998 136.3528076  91.2241115
 133.1802249 144.5816614  95.4838026 134.1319672 144.6814712  95.5050251
 133.0105700 143.7894883  95.9936111 131.2016629 141.6672197  95.6697427
 130.6066561 141.9477210  94.9743916 130.9166326 142.1566098  96.4414169
 135.6590327 147.8022734  94.5980326 135.6266647 146.8638735  94.7840010
 136.2690951 147.8806771  93.8646151 127.4973658 146.6718787  80.6407530
 128.4432763 146.5424995  80.7095948 127.1187903 145.9333449  81.1176958
 135.8084816 144.5933777  94.6438609 135.2923864 143.8092234  94.4568538
 136.6924764 144.2652494  94.8085129 133.4695543 138.3374793  90.6034422
 133.2720364 138.0289881  91.4877754 134.0795248 139.0636432  90.7332352
 127.3812351 150.7236533 102.1008187 128.3015360 150.9015132 102.2948234
 127.3461934 149.7792578 101.9487886 125.6816575 144.5968763  80.5762415
 124.7748031 144.3001876  80.6525129 125.9592556 144.2998581  79.7096702
 116.5994516 145.9175127  91.0261462 116.2797300 145.0640435  90.7335836
 116.0527944 146.1323705  91.7819429 120.3774423 148.6337568  94.7430968
 120.5960433 149.5654675  94.7619002 120.7900197 148.2745542  95.5285772
 127.2978641 139.1405653  86.7306657 126.4879369 138.7952738  87.1061903
 127.9863058 138.8313197  87.3194268 129.2269189 138.2183700  88.3530953
 129.7800228 138.6379153  89.0120976 129.4639276 137.2919448  88.3953909
 125.2502288 144.2070773 104.1333717 125.1499015 145.1565130 104.0645808
 125.0323830 143.8789012 103.2609787 124.4515360 141.4555698  80.7174395
 125.3134524 141.7810597  80.9770212 124.6365704 140.6687194  80.2047460
 116.4682776 149.5378038  92.9954583 115.7746247 149.1231991  92.4824538
 117.2155767 149.5798575  92.3988002 132.6047996 140.3284225  87.8609618
 132.0246665 140.9869029  87.4787670 132.3383929 139.5061570  87.4497035
 131.0551563 139.7289283  90.0630938 131.5551341 139.8405817  89.2545257
 131.6987171 139.4250335  90.7031746 125.1133558 147.6367912 102.9498779
 124.6300640 148.4368272 103.1562668 125.1994498 147.6475857 101.9966223
 118.3819518 149.4696292  90.8720598 118.3590206 149.5683979  89.9202481
 118.6920155 150.3161443  91.1937764 121.0406896 151.5272447  94.9867213
 121.9950150 151.4956389  94.9197144 120.8419420 151.0663071  95.8017439
 121.6306278 150.0973563  97.5538010 122.4499167 150.5917642  97.5772848
 121.9043086 149.1805531  97.5255578 131.3872874 142.4884315  86.9165966
 130.4998729 142.7733966  86.6986161 131.8026863 142.3278079  86.0693243
 134.7387410 142.5130836  90.6320305 135.5147801 143.0027289  90.9044922
 134.0135545 142.9388890  91.0892175 137.1759969 143.2258456  91.6894246
 137.7704460 142.9854191  90.9787554 137.2486553 142.5065586  92.3167782
 119.3957125 157.0692066  92.0037411 119.2611593 156.3092467  91.4375409
 118.9789187 157.7932966  91.5366199 131.3613898 148.0038851  87.1316256
 131.3049099 148.4607403  86.2923888 131.9142241 147.2429536  86.9539099
 135.1718704 143.7928583  87.9566376 134.9155638 143.3925219  88.7874583
 134.5471572 144.5072377  87.8316515 132.0948677 149.1943632  84.4268785
 132.0397481 149.0287904  83.4857229 131.4694733 149.9019665  84.5830975
 116.8841192 144.4311697  98.2530207 117.5300056 143.9210651  98.7417433
 116.6758343 145.1680379  98.8273633 129.4094585 151.4992544 103.7522348
 130.2785744 151.6733197 103.3908983 128.9301336 152.3186961 103.6298077
 125.4044803 138.6951742  84.0054104 125.3923473 139.6393581  84.1622374
 126.2968225 138.5121887  83.7113565 129.2196922 135.2894518  88.2600040
 128.4529318 134.7353005  88.4056723 129.6307627 135.3616387  89.1214192
 121.2238683 141.5779314 102.3505222 122.0870145 141.2216119 102.5608546
 120.6504094 141.2393209 103.0380626  43.5143271   2.2516034  79.8812929
  44.1521681   2.1322781  79.1776269  43.3964114   3.1996878  79.9400881
  40.3232977   2.2043462  79.8174454  39.9851489   2.0884527  78.9294989
  41.1922746   1.8034627  79.7975460  36.1819793   4.0578938  75.8071345
  35.6184658   3.9668875  75.0387633  36.0672188   3.2378843  76.2873837
  40.8052760   3.3578314  85.7760660  40.7941401   2.9631112  84.9041163
  40.9673400   2.6244386  86.3694431  33.7284225   5.5530130  78.6455565
  34.5205517   5.2120955  78.2301865  33.9680875   5.6625105  79.5657719
  41.7619352   7.7249906  71.1185810  41.1107332   8.3103986  70.7319824
  42.5563715   8.2556101  71.1780847  35.6874979   4.8139043  71.5172944
  36.4605855   4.2668030  71.3785820  36.0400378   5.6783292  71.7287406
  37.5260022   6.1415425  84.7239843  37.2349888   7.0461056  84.6086510
  38.1617006   6.1831953  85.4383913  38.4516228   3.5192274  81.3141203
  39.0479801   3.2948296  80.5998166  38.5091200   2.7777019  81.9166651
  38.0241257   0.9731709  69.1491394  38.2766777   0.4513231  68.3874857
  37.0865816   0.8097855  69.2518078  43.0684540  -0.0232512  76.9566137
  43.8547629  -0.4413089  76.6056554  43.3323244   0.8813580  77.1247786
  43.2394617   5.4140338  71.6554794  42.6040450   5.4874964  72.3675699
  42.9092023   6.0033937  70.9773873  48.4692967  -0.0857279  77.8599116
  49.2018139  -0.6558062  78.0936945  47.7132322  -0.4735679  78.3005621
  37.7437546   2.8759815  71.3515769  37.6273804   2.2004719  72.0196853
  37.8539805   2.3892189  70.5347922  40.0869086   2.3369962  75.0562458
  39.7227294   1.8100583  75.7675380  40.9436202   1.9468431  74.8828944
  45.9918387  -6.3735705  82.3193724  45.6601712  -5.5040294  82.0954939
  45.3964000  -6.6899421  82.9987755  39.7274573  -2.6340138  70.0523807
  39.8948976  -1.7659902  70.4194278  39.5371743  -2.4712856  69.1285096
  42.4849907   5.8276841  81.7189637  42.1850630   6.7301880  81.6105444
  42.1400966   5.5609024  82.5710790  35.9362388   2.2790638  77.7526342
  35.0112885   2.1466852  77.9604033  36.1846801   3.0584857  78.2496284
  45.8847050  -1.6540619  79.3987074  44.9763928  -1.7225210  79.1045835
  45.8334646  -1.1768674  80.2268900  39.7063794  -0.1782480  71.0370474
  39.5863420   0.2674570  71.8755954  39.0116383   0.1702837  70.4784012
  33.2971199   1.9223911  78.5870131  33.4263580   2.1758390  79.5009542
  32.6168650   2.5151619  78.2674786  37.4670686  12.5921161  74.6860605
  37.3894716  13.5428986  74.7649085  36.8632330  12.2467034  75.3435531
  39.9587916  -0.2350973  87.3421972  39.1821250   0.3242947  87.3324836
  40.5978479   0.2505810  87.8636842  47.7508697  -3.4524180  81.1764948
  47.1083077  -3.1591647  80.5304743  47.2463625  -3.5671260  81.9818145
  45.4048860   0.2938993  71.8650808  46.3166717   0.5266379  71.6898505
  44.8958508   0.8776037  71.3025886  38.2134288   2.5734480  86.9039939
  38.9548973   3.1119524  86.6274762  37.5071274   3.2000769  87.0611491
  43.6889628   4.7163621  85.5012100  44.0972984   4.2746031  84.7566733
  42.9666890   4.1416248  85.7546293  40.0420698  -0.3463773  82.8745657
  40.8881893   0.0775641  83.0180306  39.9819336  -1.0030148  83.5684220
  44.0118443   5.2764811  79.2564389  43.3827305   5.4410525  78.5540457
  43.6244105   5.6906421  80.0275353  47.8907675   6.2119249  76.6108753
  47.2058713   6.5918150  76.0605786  47.9751524   6.8214576  77.3440701
  43.1920144  -2.6859404  84.5326831  42.9481075  -1.9317344  83.9961107
  43.4680074  -2.3074057  85.3674078  45.1458606   3.8579208  83.2104096
  45.3575502   4.5010968  82.5338478  45.0988355   3.0241525  82.7426027
  42.7484835  -3.5302971  80.1140669  41.8869314  -3.2321718  80.4057406
  42.7747270  -3.3132572  79.1821701  39.5646405   5.0139219  76.5214474
  40.0284750   5.2926922  75.7319097  39.3003203   4.1122664  76.3387565
  36.4570486   4.5610701  79.4594237  37.0271843   4.9897969  78.8211722
  37.0478598   4.2793286  80.1578423  38.5015291   1.1362372  73.3304039
  39.2039334   1.5883415  73.7977966  38.1695919   0.4946190  73.9583933
  36.9495652  -0.2725872  87.7055249  36.3194313   0.4090409  87.9390646
  36.8431740  -0.3842790  86.7608387  46.2604434   6.7351163  81.3826454
  47.0821878   6.3331351  81.1009135  46.2566837   6.6319398  82.3342570
  40.0261038   6.2835207  83.5387164  40.0905470   6.7455614  84.3745336
  39.3171962   5.6532572  83.6669474  54.3510427   3.0789912  77.7311425
  53.5974136   2.5097310  77.5755430  54.4857968   3.0452576  78.6782060
  39.7409055   7.9503314  73.4066145  39.6054730   8.7954850  73.8350992
  40.2818868   8.1522592  72.6432078  33.1938453   5.4678752  73.9794070
  33.7062973   6.2622003  74.1299634  33.8461166   4.7705043  73.9127671
  35.0033337   8.5844509  76.0616823  35.1799966   9.5062473  75.8737807
  35.7990171   8.2702928  76.4911203  41.3677532   8.5726881  87.5366487
  40.9241386   7.7863259  87.2187391  42.0294745   8.7606031  86.8710377
  36.1264653  10.1022682  82.0627165  36.6772078   9.9739746  81.2904159
  35.2876129  10.4017571  81.7122058  43.4658770   8.8529681  85.5647888
  43.4477245   9.6738562  85.0728157  44.3878690   8.7283756  85.7898029
  39.9231824   6.3673810  86.4071396  40.4560161   5.6062098  86.1770704
  39.3945905   6.0747462  87.1495551  31.1587370   3.7967407  74.7553640
  31.9962592   4.2064415  74.5387348  31.3365637   2.8566849  74.7253834
  43.0551802   1.4642487  70.4437473  42.5398425   2.2347092  70.6825861
  42.7829110   0.7907623  71.0670535  40.6398913  -3.6907812  75.5022712
  39.7840509  -4.0800962  75.3228350  41.0525864  -3.6115851  74.6422497
  48.0286076   4.2174842  72.3790647  47.2515519   3.8786001  71.9345809
  48.7077557   4.2227465  71.7045612  42.8438105  -0.6630421  72.2697254
  42.5388240  -0.3484271  73.1207398  43.7968547  -0.5849001  72.3124587
  41.2884537   5.4959803  73.9190208  40.7605898   4.7612562  73.6063446
  40.7872039   6.2734479  73.6730177  46.2677383   3.6908823  79.0357255
  45.6101057   4.3808085  79.1237383  47.0717782   4.0805255  79.3791241
  45.0782841   2.0453196  77.0861196  45.5914723   2.6783188  77.5882906
  45.7284065   1.4454391  76.7204556  39.4337137   3.3140013  66.9225181
  38.5264199   3.0829266  67.1216330  39.9308169   2.5177632  67.1099163
  42.3405216  12.0237520  69.8421868  41.6666914  12.3269217  70.4506825
  42.7271038  12.8266600  69.4927325  41.5563672  -0.4797349  79.3319537
  40.6386234  -0.2582402  79.1741225  41.9723816  -0.4051038  78.4731244
  42.3398720   0.9194067  74.4622217  43.0870539   1.4315464  74.1529339
  42.6090310   0.5978120  75.3226611  40.6125370   3.4152608  71.4449171
  39.7036590   3.1311641  71.5421641  40.6420454   3.8351686  70.5852478
  45.8444638   7.0259197  75.2140339  45.3906965   6.1850107  75.2705530
  45.2138604   7.6620596  75.5515119  44.7877557  -2.0448817  76.4441006
  44.0500314  -2.5571430  76.7751249  45.0404331  -2.4848435  75.6324283
  44.2877577   8.8635694  76.1490157  44.5800551   9.4240751  75.4302523
  44.7976197   9.1564255  76.9043316  39.1610264   1.0281228  77.5458967
  39.2158874   0.0755065  77.4701443  38.3501466   1.1840667  78.0300265
  40.3101458   4.9561351  68.7837250  39.8720888   4.2397210  68.3242887
  41.0511899   5.1837466  68.2222341  37.1002624  -0.3541712  75.3049346
  36.2870490  -0.0547541  75.7114538  37.5961618  -0.7486023  76.0223828
  39.2511202   9.6416045  77.2383610  39.2087381   9.8676891  76.3092142
  40.1673901   9.4079420  77.3869412  42.6976836   0.1100113  84.1364240
  43.0526224   0.3371586  84.9958705  43.3448967   0.4418489  83.5141495
  48.4274573   3.2318548  74.8413569  48.2892471   3.4220144  73.9134758
  48.0710792   3.9937931  75.2981620  48.4543952   5.2995076  79.8524840
  48.8880459   5.2070365  80.7007894  49.1675533   5.2752576  79.2144856
  37.3677003   6.5179074  77.0345573  38.1617601   6.0229394  76.8328148
  36.6568695   5.9896937  76.6713279  42.1871847   8.8997170  81.3857941
  42.2408870   9.4688106  82.1535657  41.3186629   9.0699055  81.0211978
  49.3159502   5.3418776  82.3857726  49.5095392   6.2464587  82.6317000
  49.2160120   4.8826195  83.2196311  40.9695813  -4.7723333  84.8848053
  40.3223728  -4.0733384  84.7912529  41.7396828  -4.3387189  85.2524301
  44.3774611   5.4925519  87.9598606  44.2260117   5.2636071  87.0428690
  44.3679290   6.4496120  87.9729951  41.1459947   3.0657432  82.9444873
  42.0752007   3.2168591  82.7713840  40.7250977   3.1541452  82.0893519
  39.9448279   7.0908096  80.7143410  39.8059365   6.7226880  81.5869348
  39.1562875   7.6055735  80.5427368  40.5396431  12.1917193  72.0568947
  40.7148187  11.7205236  72.8714569  39.8529219  12.8182959  72.2850207
  41.4953494   6.4689699  78.1032248  41.1603327   6.4290469  78.9989898
  40.9957440   5.8034415  77.6302658  35.4697738   1.8757329  83.6284829
  35.3317536   1.1437568  84.2296368  36.3802661   1.7866229  83.3469017
  44.4312686   3.8145733  68.3769308  43.8141856   3.0892561  68.2802360
  43.9629174   4.5755093  68.0336382  38.0980039   1.5877288  83.1168509
  38.8079657   0.9470480  83.0755127  38.0549347   1.8390183  84.0394690
  46.0866817   8.5244641  86.0375088  46.0279363   7.8403862  85.3705671
  46.4886336   9.2663631  85.5855714  35.1057516  15.3406555  78.8308807
  35.3454114  15.9725079  79.5087825  34.2626713  14.9894595  79.1174166
  46.0884225   6.4884225  84.2689068  45.2011003   6.1510147  84.3915467
  46.6582776   5.7567257  84.5057833  39.6185378  11.1485678  81.2350311
  39.5455549  11.9540649  81.7469615  39.1762771  11.3477644  80.4098332
  39.4075158  10.3857448  74.7453132  38.6242680  10.9279128  74.8391357
  40.1067903  10.9031427  75.1447374  42.7171808  -3.8047923  77.3887338
  43.2140507  -4.5577960  77.0688408  41.9458789  -3.7683606  76.8230547
  50.5701565   1.8992443  79.0305629  50.5591441   2.7817158  78.6599562
  49.7018945   1.5463994  78.8360166  42.0784062  11.0472512  83.3908470
  42.7912034  11.6819977  83.3184371  41.5874090  11.1436378  82.5748471
  43.8001588   4.9523764  74.9625761  42.8657867   5.0725227  74.7930466
  43.9778257   4.0496231  74.6985771  39.3006776  -1.6630540  77.1159022
  38.9304564  -2.2159499  77.8039928  39.7965869  -2.2672406  76.5634022
  47.1874140   0.7941084  75.4975795  47.6534592   1.6269075  75.4236098
  47.6381640   0.3286065  76.2021054  37.1295975   8.7966955  84.2114040
  37.8305435   9.4303438  84.3643435  36.6591090   9.1381687  83.4509680
  45.2550371   7.1384905  72.4961947  45.5310215   7.0241500  73.4055821
  44.3854870   6.7402390  72.4574120  45.1590803  -6.8378329  79.5366697
  44.2453882  -6.6074102  79.7048904  45.5883904  -6.7539885  80.3880729
  44.9297261   1.3511563  82.0366591  44.2768711   1.5987470  81.3819043
  45.3077641   0.5375701  81.7029068  41.8904435  11.3871256  76.1394761
  42.0726829  10.5692912  76.6022513  42.7137421  11.6038948  75.7019651
  42.2246600  10.3139441  73.4009809  42.7534367   9.8031896  72.7879972
  42.4874820   9.9981971  74.2655343  40.9784834   2.0931374  88.5232628
  40.3025471   1.9925503  89.1935003  41.8012468   1.9370587  88.9868625
  32.7263693   8.3303310  81.1445143  33.3117130   7.5846998  81.2773047
  32.5288532   8.6407267  82.0281807  35.5802348  11.3654558  76.1607585
  34.9112724  11.8500685  75.6771625  35.4415218  11.6123778  77.0750964
  39.7207617  13.3998301  82.7590244  40.2725925  13.5629923  83.5239329
  40.0613810  13.9902739  82.0870269  44.5718491   8.2259559  88.6138898
  45.1158395   8.8389517  88.1193853  43.9905336   8.7839137  89.1305911
  42.8576004  11.3480277  79.7453926  42.7327144  10.5470017  79.2364871
  43.5155095  11.8426470  79.2567896  44.9210913   9.1489297  81.3733476
  43.9741248   9.0294648  81.3011803  45.2693686   8.2611795  81.4559737
  41.9257346   8.9442013  77.5737828  41.7782308   8.0158720  77.7545398
  42.7510839   8.9662104  77.0894903  45.5291468   9.7670572  78.6602701
  46.4538015   9.5613433  78.5227152  45.3606771   9.5186973  79.5692042
  41.9218860  -3.2020149  72.5669945  42.1382475  -2.3195511  72.2658774
  41.4412927  -3.5933936  71.8375587  36.6618082  -0.2434436  79.1440690
  36.5162662   0.0705867  80.0364972  36.1843285   0.3750464  78.5911589
  40.3740595  -2.8194548  81.2374707  40.1158373  -1.8977477  81.2359038
  39.8425636  -3.2164113  81.9275171  45.3186784  10.2856239  74.0164792
  45.4923661   9.7202662  73.2638645  45.8115675  11.0857134  73.8344282
  31.1363744   2.2970908  82.0828351  30.5917212   3.0730716  82.2148626
  32.0143094   2.6441713  81.9247473  51.1726175   3.0492662  75.6355092
  51.6157321   2.2999987  75.2374215  50.2952685   3.0402799  75.2528824
  46.3061956   9.6023004  71.1161691  47.0012861  10.2229696  71.3349005
  46.6485107   8.7518355  71.3914069  48.2053380   7.0522709  72.6449022
  48.7304704   7.3909982  71.9198342  48.1175732   6.1169724  72.4612156
  39.8673428  10.9656783  84.7738898  40.1760555  10.7205930  85.6461598
  40.6648910  11.1703421  84.2857768  39.8894040  13.1194692  77.0044275
  39.4499031  12.6271071  77.6977131  40.6402157  12.5767660  76.7636350
  32.3686379   9.3106233  77.0068903  33.1944399   9.0110005  76.6267546
  32.0180431   8.5413856  77.4558691  37.3367912   8.6632702  79.0766576
  36.7147922   8.0003407  78.7768804  38.0072779   8.6893833  78.3940224
  30.5694984   7.2292560  77.9657836  29.7326893   6.8014734  77.7841838
  30.5418630   7.4225003  78.9028628  47.8947286   7.6855613  87.9500219
  47.1042829   7.6679752  87.4104719  47.6580640   8.2243906  88.7049256
  48.0145161   4.5348079  85.2632948  48.0643166   4.3698087  86.2048471
  47.9059084   3.6675338  84.8730829  36.8981419   7.2136625  72.5525037
  37.0469540   7.8972089  71.8991710  37.7047863   7.1941715  73.0674493
  45.3048923   0.5179007  86.5792255  46.2058786   0.3785472  86.2876253
  45.3796898   0.6833462  87.5190432  39.6391728  -2.1054138  85.4245441
  38.7695038  -1.8120572  85.1528030  39.8751209  -1.5213693  86.1452705
  49.5163357   6.9545021  85.5074970  49.2248166   7.3175001  86.3438431
  48.9035489   6.2412029  85.3288302  50.7159040   4.5197900  78.0277540
  51.5505931   4.9587705  78.1915100  50.8518169   4.0436554  77.2085786
  47.7650546   2.0777635  83.9755028  48.2404667   2.2705282  83.1673879
  46.8416111   2.1336821  83.7298411  34.6534052   3.2401802  73.5586106
  34.4080094   2.3364132  73.7566316  34.8229967   3.2418953  72.6165584
  42.3430762  -5.8874521  82.9410861  42.8612706  -5.1513494  82.6157350
  41.9885895  -5.5810528  83.7757621  40.3976825   9.7084755  70.0236784
  39.8250792  10.3274942  69.5707256  40.9709619  10.2584117  70.5576706
  46.4652215  -1.0456605  82.2083333  47.4169638  -0.9458507  82.2295557
  46.2955665  -1.8378336  82.7181418  44.4866594  -3.9601021  82.3942734
  43.8916526  -3.6796009  81.6989223  44.2016291  -3.4707120  83.1659475
  43.6174085   9.9921905  71.1545367  44.5504758   9.9267467  71.3578242
  43.5297297  10.8278172  70.6959899  46.2462101   9.3087776  68.1149314
  46.1675733   8.9747639  69.0085072  47.0671768   9.8009544  68.1140787
  48.9440293   2.1749515  81.3225633  48.9116613   1.2365516  81.5085317
  49.5540916   2.2533552  80.5891458  40.7823623   1.0445568  67.3652837
  41.7282728   0.9151776  67.4341255  40.4037868   0.3060230  67.8422265
  49.0934781  -1.0339441  81.3683916  48.5773830  -1.8180985  81.1813845
  49.9774730  -1.3620725  81.5330435  46.7545508  -7.2898426  77.3279729
  46.5570329  -7.5983338  78.2123061  47.3645213  -6.5636787  77.4577659
  54.7616842   3.2365522  80.4631670  55.4920231   2.9750810  81.0239373
  54.1523788   2.4994244  80.5033738  52.8432139   1.3773385  81.0606121
  52.1165303   1.2429349  80.4522612  52.4279426   1.6850213  81.8662839
  40.6662316   5.0963314  88.8253494  41.5865325   5.2741913  89.0193540
  40.6311899   4.1519360  88.6733193  38.9666541  -1.0304456  67.3007722
  38.0597996  -1.3271343  67.3770436  39.2442522  -1.3274637  66.4342008
  33.6624388   3.0064349  81.4676275  33.8810398   3.9381457  81.4864309
  34.0750162   2.6472323  82.2531079  38.5352254  -1.4202445  90.8579024
  38.4348981  -0.4708088  90.7891115  38.3173796  -1.7484206  89.9855094
  29.7532741   3.9104819  79.7199890  29.0596212   3.4958772  79.2069844
  30.5005732   3.9525356  79.1233309  45.8897962  -5.2988994  74.5854924
  45.3096631  -4.6404190  74.2032977  45.6233894  -6.1211649  74.1742342
  44.3401528  -5.8983936  76.7876245  44.8401306  -5.7867402  75.9790563
  44.9837136  -6.2022883  77.4277053  38.3983524   2.0094693  89.6744086
  37.9150606   2.8095054  89.8807975  38.4844463   2.0202638  88.7211530
  31.6669483   3.8423073  77.5965905  31.6440172   3.9410760  76.6447788
  31.9770120   4.6888224  77.9183071  34.3256861   5.8999228  81.7112519
  35.2800115   5.8683170  81.6442451  34.1269385   5.4389852  82.5262745
  34.9156243   4.4700344  84.2783317  35.7349132   4.9644423  84.3018154
  35.1893051   3.5532312  84.2500885  44.6722840  -3.1388903  73.6411273
  43.7848695  -2.8539253  73.4231467  45.0876829  -3.2995140  72.7938549
  48.0237376  -3.1142383  77.3565612  48.7997766  -2.6245930  77.6290229
  47.2985510  -2.6884328  77.8137481  50.4609934  -2.4014763  78.4139552
  51.0554425  -2.6419027  77.7032861  50.5336518  -3.1207633  79.0413089
  32.6807090  11.4418848  78.7282717  32.5461558  10.6819249  78.1620715
  32.2639152  12.1659747  78.2611506  43.8166053   6.6255771  67.7359292
  44.5201903   6.8305774  68.3516948  43.0928702   7.1932533  68.0008376
  44.6463863   2.3765632  73.8561563  44.5899065   2.8334184  73.0169195
  45.1992206   1.6156317  73.6784405  48.4568669  -1.8344636  74.6811682
  48.2005604  -2.2348000  75.5119890  47.8321537  -1.1200842  74.5561821
  52.7681007   0.9051438  77.1882974  52.2080565   0.9744627  77.9614536
  52.1624511   0.7292422  76.4682470  35.8376216  12.3388165  78.9401160
  35.7208600  13.2833597  78.8379850  35.0168662  12.0361726  79.3286959
  45.7252751   7.0638300  69.7857753  46.5598354   6.6319499  69.6035227
  45.5637093   6.8920314  70.7134647  45.3798643   3.5670414  71.1514092
  45.3247446   3.4014685  70.2102536  44.7544698   4.2746447  71.3076282
  42.6944550   5.8719326  90.4767655  43.5635710   6.0459978  90.1154290
  42.2151301   6.6913742  90.3543384  36.8630730  12.9916427  82.1557088
  37.7657977  13.0240037  82.4723583  36.6368100  12.0616877  82.1703424
  38.6184332  11.7447413  78.8167167  37.6679963  11.7449275  78.7031539
  38.9216818  10.9980148  78.3003202  54.3537026  17.5807951  79.8812929
  54.9915436  17.4614699  79.1776269  54.2357868  18.5288795  79.9400881
  51.1626732  17.5335380  79.8174454  50.8245243  17.4176444  78.9294989
  52.0316500  17.1326545  79.7975460  47.0213548  19.3870856  75.8071345
  46.4578413  19.2960793  75.0387633  46.9065943  18.5670760  76.2873837
  51.6446515  18.6870231  85.7760660  51.6335156  18.2923030  84.9041163
  51.8067154  17.9536304  86.3694431  44.5677980  20.8822048  78.6455565
  45.3599271  20.5412872  78.2301865  44.8074630  20.9917023  79.5657719
  52.6013106  23.0541824  71.1185810  51.9501086  23.6395904  70.7319824
  53.3957469  23.5848019  71.1780847  46.5268733  20.1430961  71.5172944
  47.2999609  19.5959948  71.3785820  46.8794132  21.0075210  71.7287406
  48.3653776  21.4707343  84.7239843  48.0743642  22.3752974  84.6086510
  49.0010760  21.5123871  85.4383913  49.2909983  18.8484192  81.3141203
  49.8873555  18.6240214  80.5998166  49.3484954  18.1068937  81.9166651
  48.8635011  16.3023627  69.1491394  49.1160532  15.7805148  68.3874857
  47.9259570  16.1389772  69.2518078  53.9078294  15.3059405  76.9566137
  54.6941383  14.8878828  76.6056554  54.1716998  16.2105498  77.1247786
  54.0788371  20.7432256  71.6554794  53.4434204  20.8166882  72.3675699
  53.7485778  21.3325854  70.9773873  59.3086721  15.2434639  77.8599116
  60.0411893  14.6733855  78.0936945  58.5526077  14.8556239  78.3005621
  48.5831300  18.2051733  71.3515769  48.4667558  17.5296636  72.0196853
  48.6933560  17.7184107  70.5347922  50.9262841  17.6661880  75.0562458
  50.5621048  17.1392501  75.7675380  51.7829957  17.2760349  74.8828944
  56.8312142   8.9556213  82.3193724  56.4995466   9.8251624  82.0954939
  56.2357755   8.6392497  82.9987755  50.5668328  12.6951780  70.0523807
  50.7342730  13.5632016  70.4194278  50.3765497  12.8579061  69.1285096
  53.3243661  21.1568759  81.7189637  53.0244384  22.0593797  81.6105444
  52.9794721  20.8900942  82.5710790  46.7756143  17.6082555  77.7526342
  45.8506639  17.4758770  77.9604033  47.0240556  18.3876775  78.2496284
  56.7240805  13.6751299  79.3987074  55.8157682  13.6066707  79.1045835
  56.6728401  14.1523244  80.2268900  50.5457549  15.1509437  71.0370474
  50.4257174  15.5966488  71.8755954  49.8510137  15.4994755  70.4784012
  44.1364954  17.2515829  78.5870131  44.2657335  17.5050308  79.5009542
  43.4562405  17.8443537  78.2674786  48.3064441  27.9213079  74.6860605
  48.2288471  28.8720904  74.7649085  47.7026084  27.5758951  75.3435531
  50.7981671  15.0940944  87.3421972  50.0215005  15.6534865  87.3324836
  51.4372234  15.5797727  87.8636842  58.5902451  11.8767737  81.1764948
  57.9476832  12.1700270  80.5304743  58.0857380  11.7620658  81.9818145
  56.2442615  15.6230910  71.8650808  57.1560471  15.8558297  71.6898505
  55.7352262  16.2067955  71.3025886  49.0528043  17.9026398  86.9039939
  49.7942727  18.4411442  86.6274762  48.3465028  18.5292687  87.0611491
  54.5283383  20.0455538  85.5012100  54.9366739  19.6037949  84.7566733
  53.8060644  19.4708166  85.7546293  50.8814453  14.9828145  82.8745657
  51.7275648  15.4067559  83.0180306  50.8213090  14.3261769  83.5684220
  54.8512197  20.6056729  79.2564389  54.2221060  20.7702443  78.5540457
  54.4637859  21.0198338  80.0275353  58.7301429  21.5411167  76.6108753
  58.0452467  21.9210068  76.0605786  58.8145278  22.1506493  77.3440701
  54.0313898  12.6432513  84.5326831  53.7874830  13.3974574  83.9961107
  54.3073829  13.0217861  85.3674078  55.9852361  19.1871126  83.2104096
  56.1969256  19.8302886  82.5338478  55.9382109  18.3533442  82.7426027
  53.5878590  11.7988946  80.1140669  52.7263069  12.0970200  80.4057406
  53.6141024  12.0159345  79.1821701  50.4040159  20.3431137  76.5214474
  50.8678505  20.6218840  75.7319097  50.1396957  19.4414582  76.3387565
  47.2964240  19.8902618  79.4594237  47.8665597  20.3189887  78.8211722
  47.8872352  19.6085203  80.1578423  49.3409045  16.4654289  73.3304039
  50.0433089  16.9175333  73.7977966  49.0089674  15.8238108  73.9583933
  47.7889407  15.0566046  87.7055249  47.1588067  15.7382327  87.9390646
  47.6825495  14.9449128  86.7608387  43.0834379  14.7237842  78.6321173
  42.2933433  14.9795371  78.1561284  43.5745627  15.5386180  78.7373213
  57.0998189  22.0643081  81.3826454  57.9215632  21.6623268  81.1009135
  57.0960592  21.9611315  82.3342570  45.0349125  15.0882421  75.5904650
  44.2380288  15.2001115  76.1088145  44.8074717  15.4269073  74.7245540
  50.8654792  21.6127124  83.5387164  50.9299225  22.0747532  84.3745336
  50.1565716  20.9824489  83.6669474  41.3672082  14.9768332  81.0636164
  41.6180121  15.8615342  81.3293740  41.9031631  14.7972934  80.2911256
  65.1904182  18.4081830  77.7311425  64.4367890  17.8389228  77.5755430
  65.3251723  18.3744494  78.6782060  50.5802810  23.2795232  73.4066145
  50.4448485  24.1246768  73.8350992  51.1212622  23.4814510  72.6432078
  47.0670149   9.3586812  90.0680500  46.6737095   8.8053010  90.7428144
  47.8836290   9.6697390  90.4587017  44.0332207  20.7970670  73.9794070
  44.5456728  21.5913920  74.1299634  44.6854920  20.0996960  73.9127671
  45.8427092  23.9136426  76.0616823  46.0193720  24.8354391  75.8737807
  46.6383925  23.5994845  76.4911203  49.9838110  10.7744691  87.6600756
  50.7247824  11.3751844  87.5805219  50.2156033  10.0322329  87.1018799
  45.1279448  15.9601058  85.9378986  45.0132964  15.0586315  86.2386085
  44.2723966  16.2064755  85.5863803  52.2071286  23.9018798  87.5366487
  51.7635140  23.1155177  87.2187391  52.8688500  24.0897949  86.8710377
  46.9658407  25.4314600  82.0627165  47.5165832  25.3031663  81.2904159
  46.1269883  25.7309489  81.7122058  54.3052524  24.1821598  85.5647888
  54.2871000  25.0030479  85.0728157  55.2272444  24.0575674  85.7898029
  50.7625578  21.6965728  86.4071396  51.2953915  20.9354016  86.1770704
  50.2339660  21.4039380  87.1495551  53.9295273   6.8025794  81.9365038
  53.5859543   7.6927435  81.8604149  54.2974236   6.6127451  81.0734623
  41.9981124  19.1259324  74.7553640  42.8356346  19.5356333  74.5387348
  42.1759392  18.1858766  74.7253834  53.8945556  16.7934405  70.4437473
  53.3792180  17.5639010  70.6825861  53.6222865  16.1199541  71.0670535
  51.4792667  11.6384106  75.5022712  50.6234263  11.2490956  75.3228350
  51.8919619  11.7176067  74.6422497  53.0091814   9.1730449  79.9014271
  52.5056609   9.1360584  79.0882077  53.3022421  10.0823192  79.9610928
  49.2534700   9.2569179  78.9080453  50.1187696   9.0611987  78.5486343
  49.3212209   9.0279530  79.8349810  58.8679830  19.5466760  72.3790647
  58.0909273  19.2077919  71.9345809  59.5471311  19.5519383  71.7045612
  53.6831859  14.6661497  72.2697254  53.3781995  14.9807646  73.1207398
  54.6362301  14.7442917  72.3124587  52.1278291  20.8251720  73.9190208
  51.5999653  20.0904480  73.6063446  51.6265794  21.6026397  73.6730177
  57.1071137  19.0200741  79.0357255  56.4494812  19.7100002  79.1237383
  57.9111536  19.4097173  79.3791241  46.8597019  11.4871387  76.2796820
  47.4340771  11.2646568  75.5470013  47.4468001  11.5560081  77.0325421
  55.9176596  17.3745114  77.0861196  56.4308478  18.0075105  77.5882906
  56.5677820  16.7746309  76.7204556  47.1866606  13.5175848  70.2992705
  46.3503918  13.8550534  70.6201980  47.0471375  13.3824827  69.3619842
  49.1619686   8.3612636  75.0071889  48.5084099   8.0461653  74.3828504
  49.1200161   7.7388376  75.7331712  50.2730891  18.6431931  66.9225181
  49.3657953  18.4121184  67.1216330  50.7701923  17.8469550  67.1099163
  53.1798970  27.3529438  69.8421868  52.5060669  27.6561135  70.4506825
  53.5664792  28.1558518  69.4927325  52.3957427  14.8494569  79.3319537
  51.4779988  15.0709516  79.1741225  52.8117570  14.9240880  78.4731244
  53.1792475  16.2485985  74.4622217  53.9264294  16.7607382  74.1529339
  53.4484064  15.9270037  75.3226611  51.4519125  18.7444525  71.4449171
  50.5430344  18.4603558  71.5421641  51.4814209  19.1643604  70.5852478
  56.6838392  22.3551115  75.2140339  56.2300719  21.5142025  75.2705530
  56.0532359  22.9912513  75.5515119  55.6271312  13.2843101  76.4441006
  54.8894069  12.7720487  76.7751249  55.8798085  12.8443483  75.6324283
  55.1271331  24.1927612  76.1490157  55.4194306  24.7532669  75.4302523
  55.6369952  24.4856173  76.9043316  55.7282939   6.0619353  77.0382776
  56.0341816   5.2016716  76.7508691  56.4535544   6.6536973  76.8381770
  42.0207295  16.4650040  75.4264374  41.8231695  15.8719400  74.7015440
  41.4653959  16.1602250  76.1440312  50.0004019  16.3573146  77.5458967
  50.0552629  15.4046982  77.4701443  49.1895221  16.5132585  78.0300265
  51.1495213  20.2853269  68.7837250  50.7114642  19.5689128  68.3242887
  51.8905653  20.5129384  68.2222341  47.9396379  14.9750206  75.3049346
  47.1264244  15.2744376  75.7114538  48.4355373  14.5805895  76.0223828
  50.0904957  24.9707963  77.2383610  50.0481135  25.1968809  76.3092142
  51.0067655  24.7371337  77.3869412  53.5370590  15.4392030  84.1364240
  53.8919978  15.6663503  84.9958705  54.1842722  15.7710407  83.5141495
  59.2668327  18.5610466  74.8413569  59.1286226  18.7512062  73.9134758
  58.9104546  19.3229849  75.2981620  47.4310453  12.5468561  80.9210581
  48.0709833  12.4057320  80.2233544  46.5987984  12.2603075  80.5449183
  59.2937707  20.6286993  79.8524840  59.7274214  20.5362282  80.7007894
  60.0069288  20.6044494  79.2144856  48.2070757  21.8470992  77.0345573
  49.0011356  21.3521312  76.8328148  47.4962450  21.3188855  76.6713279
  53.0265602  24.2289087  81.3857941  53.0802624  24.7980024  82.1535657
  52.1580383  24.3990972  81.0211978  44.5153521  15.9914073  73.1105326
  43.5851109  15.9298529  73.3275288  44.6110993  15.4690026  72.3141967
  44.4339070  12.5168886  75.6983567  44.6945887  13.4314220  75.5892728
  45.2556242  12.0493329  75.8480180  45.9063995  13.9306643  82.8682392
  46.5787049  13.7224006  82.2195041  45.0793782  13.7328729  82.4287624
  60.1553257  20.6710694  82.3857726  60.3489147  21.5756504  82.6317000
  60.0553875  20.2118113  83.2196311  51.8089567  10.5568584  84.8848053
  51.1617482  11.2558534  84.7912529  52.5790583  10.9904728  85.2524301
  55.2168365  20.8217437  87.9598606  55.0653872  20.5927988  87.0428690
  55.2073045  21.7788038  87.9729951  51.9853702  18.3949349  82.9444873
  52.9145762  18.5460509  82.7713840  51.5644732  18.4833370  82.0893519
  50.7842033  22.4200014  80.7143410  50.6453119  22.0518798  81.5869348
  49.9956630  22.9347653  80.5427368  51.3790185  27.5209110  72.0568947
  51.5541941  27.0497153  72.8714569  50.6922973  28.1474876  72.2850207
  52.3347249  21.7981616  78.1032248  51.9997081  21.7582386  78.9989898
  51.8351194  21.1326332  77.6302658  46.3091492  17.2049246  83.6284829
  46.1711290  16.4729485  84.2296368  47.2196416  17.1158147  83.3469017
  55.2706440  19.1437651  68.3769308  54.6535611  18.4184479  68.2802360
  54.8022929  19.9047011  68.0336382  48.9373793  16.9169206  83.1168509
  49.6473412  16.2762398  83.0755127  48.8943101  17.1682101  84.0394690
  56.9260572  23.8536559  86.0375088  56.8673118  23.1695779  85.3705671
  57.3280090  24.5955549  85.5855714  47.6502727  13.9034424  84.9364148
  47.1140084  13.4525162  85.5885745  47.0619436  14.0380333  84.1934613
  45.9451271  30.6698473  78.8308807  46.1847869  31.3016997  79.5087825
  45.1020467  30.3186513  79.1174166  47.0604986  13.3623075  67.4990612
  46.1834452  13.2411876  67.1352859  47.5362739  12.5709153  67.2469501
  56.9277979  21.8176143  84.2689068  56.0404758  21.4802065  84.3915467
  57.4976530  21.0859174  84.5057833  38.5807126  18.1500235  77.5932119
  39.2678166  17.8361965  77.0053134  38.4255255  19.0541599  77.3199370
  43.3841848  13.0390431  82.0217143  43.3000037  12.4316101  81.2867553
  42.5624555  13.5299450  82.0226639  50.4579132  26.4777595  81.2350311
  50.3849304  27.2832567  81.7469615  50.0156526  26.6769561  80.4098332
  50.2468912  25.7149365  74.7453132  49.4636434  26.2571046  74.8391357
  50.9461657  26.2323345  75.1447374  53.5565562  11.5243995  77.3887338
  54.0534262  10.7713957  77.0688408  52.7852544  11.5608312  76.8230547
  61.4095320  17.2284360  79.0305629  61.3985196  18.1109076  78.6599562
  60.5412699  16.8755911  78.8360166  52.9177816  26.3764429  83.3908470
  53.6305788  27.0111894  83.3184371  52.4267845  26.4728295  82.5748471
  54.6395343  20.2815682  74.9625761  53.7051622  20.4017145  74.7930466
  54.8172011  19.3788149  74.6985771  50.1400531  13.6661378  77.1159022
  49.7698318  13.1132418  77.8039928  50.6359623  13.0619511  76.5634022
  58.0267894  16.1233001  75.4975795  58.4928346  16.9560993  75.4236098
  58.4775395  15.6577983  76.2021054  47.9689730  24.1258873  84.2114040
  48.6699189  24.7595356  84.3643435  47.4984845  24.4673604  83.4509680
  56.0944125  22.4676823  72.4961947  56.3703969  22.3533417  73.4055821
  55.2248624  22.0694308  72.4574120  55.9984557   8.4913588  79.5366697
  55.0847637   8.7217815  79.7048904  56.4277658   8.5752032  80.3880729
  55.7691016  16.6803480  82.0366591  55.1162466  16.9279388  81.3819043
  56.1471395  15.8667619  81.7029068  52.7298189  26.7163174  76.1394761
  52.9120584  25.8984829  76.6022513  53.5531175  26.9330866  75.7019651
  53.0640355  25.6431359  73.4009809  53.5928121  25.1323813  72.7879972
  53.3268574  25.3273889  74.2655343  51.8178589  17.4223291  88.5232628
  51.1419226  17.3217421  89.1935003  52.6406222  17.2662505  88.9868625
  43.5657448  23.6595228  81.1445143  44.1510884  22.9138916  81.2773047
  43.3682286  23.9699185  82.0281807  46.4196103  26.6946475  76.1607585
  45.7506478  27.1792603  75.6771625  46.2808973  26.9415696  77.0750964
  38.1575102  16.2300828  79.8649586  38.1959202  15.6964419  80.6586704
  37.6515395  15.7036034  79.2460563  45.5365865  11.0765369  83.3612128
  45.6007191  11.9380200  82.9489526  45.4732985  10.4639370  82.6284487
  45.0118137  13.1488501  87.0085163  45.6390176  12.7665579  87.6222687
  44.1546056  12.9302703  87.3740855  55.4112246  23.5551476  88.6138898
  55.9552150  24.1681435  88.1193853  54.8299091  24.1131055  89.1305911
  41.7883680  14.9564930  72.9403518  42.0837121  14.0475609  72.8870571
  40.8871716  14.9352670  72.6184520  53.6969759  26.6772194  79.7453926
  53.5720898  25.8761934  79.2364871  54.3548850  27.1718388  79.2567896
  45.3177927  13.0320927  78.9231066  44.5964513  13.6456895  78.7838539
  46.1071183  13.5678692  78.8447712  55.7604667  24.4781214  81.3733476
  54.8135003  24.3586566  81.3011803  56.1087440  23.5903713  81.4559737
  48.1204240  10.3675353  85.1971718  48.6438642  10.6137650  85.9598027
  47.9016574  11.1995388  84.7774855  43.5171522  12.6379028  73.0642843
  43.1884228  11.7576407  72.8817949  43.8710892  12.5826697  73.9519232
  52.7651100  24.2733931  77.5737828  52.6176063  23.3450638  77.7545398
  53.5904594  24.2954021  77.0894903  46.6313345  12.9251998  73.4318320
  46.9709417  13.4537919  72.7096929  47.0785465  13.2632404  74.2076887
  56.3685222  25.0962489  78.6602701  57.2931770  24.8905351  78.5227152
  56.2000526  24.8478891  79.5692042  49.3256785  11.3089049  82.8821388
  48.9853606  10.5096862  83.2842068  48.6195792  11.6090759  82.3098222
  49.9773257   8.3938361  81.3348711  50.7999327   7.9198839  81.2127602
  50.2211321   9.1728845  81.8347398  48.6181492  11.4226619  71.6311613
  49.3389854  11.8007872  71.1275330  47.9946796  12.1415496  71.7346591
  52.7612615  12.1271768  72.5669945  52.9776229  13.0096406  72.2658774
  52.2806682  11.7357982  71.8375587  47.5011836  15.0857482  79.1440690
  47.3556417  15.3997785  80.0364972  47.0237040  15.7042382  78.5911589
  49.3608219  12.0760030  79.1921580  49.3469788  11.1801123  78.8553878
  50.0780647  12.0830693  79.8259866  51.2134350  12.5097370  81.2374707
  50.9552127  13.4314440  81.2359038  50.6819390  12.1127804  81.9275171
  56.1580538  25.6148157  74.0164792  56.3317416  25.0494579  73.2638645
  56.6509430  26.4149052  73.8344282  41.9757498  17.6262826  82.0828351
  41.4310966  18.4022634  82.2148626  42.8536848  17.9733630  81.9247473
  48.7645115  10.9574410  74.4609150  48.8861026  10.0291056  74.6600037
  48.4747157  10.9713096  73.5487465  51.6336305   8.6429320  77.5975870
  51.6558002   8.7068653  76.6427849  52.0504364   7.8033829  77.7916376
  62.0119930  18.3784580  75.6355092  62.4551076  17.6291905  75.2374215
  61.1346440  18.3694716  75.2528824  57.1455711  24.9314921  71.1161691
  57.8406616  25.5521614  71.3349005  57.4878861  24.0810273  71.3914069
  42.7623520  16.7532722  84.9758508  42.0205256  16.9015358  85.5623139
  42.4416264  17.0140988  84.1125258  59.0447134  22.3814627  72.6449022
  59.5698458  22.7201900  71.9198342  58.9569487  21.4461642  72.4612156
  50.7067183  26.2948700  84.7738898  51.0154309  26.0497847  85.6461598
  51.5042665  26.4995339  84.2857768  43.2080134  24.6398151  77.0068903
  44.0338154  24.3401923  76.6267546  42.8574186  23.8705773  77.4558691
  48.1761667  23.9924619  79.0766576  47.5541676  23.3295324  78.7768804
  48.8466534  24.0185751  78.3940224  41.4088739  22.5584477  77.9657836
  40.5720647  22.1306652  77.7841838  41.3812384  22.7516921  78.9028628
  48.2486194  12.4706407  88.6699082  48.2974350  13.3468530  88.2876852
  48.7908709  11.9283800  88.0970726  58.7341040  23.0147530  87.9500219
  57.9436584  22.9971669  87.4104719  58.4974395  23.5535824  88.7049256
  58.8538915  19.8639997  85.2632948  58.9036920  19.6990004  86.2048471
  58.7452838  18.9967256  84.8730829  47.7375174  22.5428543  72.5525037
  47.8863294  23.2264007  71.8991710  48.5441617  22.5233633  73.0674493
  56.1442678  15.8470925  86.5792255  57.0452540  15.7077390  86.2876253
  56.2190652  16.0125380  87.5190432  50.4785483  13.2237780  85.4245441
  49.6088792  13.5171346  85.1528030  50.7144963  13.8078225  86.1452705
  60.3557112  22.2836938  85.5074970  60.0641920  22.6466919  86.3438431
  59.7429243  21.5703947  85.3288302  61.5552794  19.8489818  78.0277540
  62.3899686  20.2879622  78.1915100  61.6911923  19.3728471  77.2085786
  58.6044300  17.4069553  83.9755028  59.0798422  17.5997199  83.1673879
  57.6809866  17.4628739  83.7298411  45.4927807  18.5693720  73.5586106
  45.2473849  17.6656050  73.7566316  45.6623721  18.5710871  72.6165584
  53.1824517   9.4417397  82.9410861  53.7006461  10.1778423  82.6157350
  52.8279649   9.7481390  83.7757621  44.7623454  14.3022078  71.0572267
  44.0692699  14.3766433  70.4012303  44.5175206  13.5382421  71.5793784
  53.4337111   5.8617679  78.4611758  53.7138865   5.1940868  79.0872185
  54.2187718   6.0546775  77.9486422  51.2370579  25.0376673  70.0236784
  50.6644546  25.6566860  69.5707256  51.8103373  25.5876035  70.5576706
  57.3045969  14.2835313  82.2083333  58.2563392  14.3833411  82.2295557
  57.1349420  13.4913582  82.7181418  55.3260349  11.3690896  82.3942734
  54.7310281  11.6495909  81.6989223  55.0410045  11.8584797  83.1659475
  54.4567839  25.3213823  71.1545367  55.3898512  25.2559385  71.3578242
  54.3691052  26.1570090  70.6959899  57.0855856  24.6379693  68.1149314
  57.0069487  24.3039557  69.0085072  57.9065523  25.1301461  68.1140787
  59.7834047  17.5041433  81.3225633  59.7510367  16.5657433  81.5085317
  60.3934671  17.5825469  80.5891458  51.6217378  16.3737486  67.3652837
  52.5676483  16.2443694  67.4341255  51.2431623  15.6352148  67.8422265
  59.9328535  14.2952476  81.3683916  59.4167584  13.5110933  81.1813845
  60.8168484  13.9671193  81.5330435  57.5939262   8.0393492  77.3279729
  57.3964084   7.7308580  78.2123061  58.2038968   8.7655131  77.4577659
  65.6010597  18.5657440  80.4631670  66.3313985  18.3042728  81.0239373
  64.9917542  17.8286162  80.5033738  63.6825894  16.7065302  81.0606121
  62.9559058  16.5721267  80.4522612  63.2673181  17.0142131  81.8662839
  51.5056070  20.4255232  88.8253494  52.4259080  20.6033831  89.0193540
  51.4705653  19.4811277  88.6733193  49.8060295  14.2987462  67.3007722
  48.8991750  14.0020575  67.3770436  50.0836276  14.0017280  66.4342008
  40.7238235  15.6193826  77.7506768  40.4041020  14.7659134  77.4581142
  40.1771664  15.8342404  78.5064736  44.5018143  18.3356267  81.4676275
  44.7204153  19.2673374  81.4864309  44.9143917  17.9764241  82.2531079
  51.4222361   8.8424352  73.4551963  50.6123089   8.4971437  73.8307209
  52.1106778   8.5331896  74.0439575  53.3512909   7.9202399  75.0776260
  53.9043948   8.3397852  75.7366283  53.5882995   6.9938147  75.1199216
  49.3746008  13.9089472  90.8579024  49.2742735  14.8583829  90.7891115
  49.1567550  13.5807711  89.9855094  48.5759080  11.1574397  67.4419701
  49.4378244  11.4829296  67.7015519  48.7609424  10.3705893  66.9292767
  40.5926495  19.2396737  79.7199890  39.8989967  18.8250690  79.2069844
  41.3399486  19.2817274  79.1233309  56.7291716  10.0302924  74.5854924
  56.1490385  10.6887728  74.2032977  56.4627649   9.2080268  74.1742342
  55.1795282   9.4307982  76.7876245  55.6795061   9.5424516  75.9790563
  55.8230890   9.1269034  77.4277053  49.2377278  17.3386611  89.6744086
  48.7544360  18.1386971  89.8807975  49.3238217  17.3494556  88.7211530
  42.5063238  19.1714991  77.5965905  42.4833926  19.2702678  76.6447788
  42.8163874  20.0180142  77.9183071  45.1650616  21.2291146  81.7112519
  46.1193869  21.1975088  81.6442451  44.9663139  20.7681770  82.5262745
  45.7549998  19.7992262  84.2783317  46.5742887  20.2936341  84.3018154
  46.0286806  18.8824230  84.2500885  55.5116594  12.1903014  73.6411273
  54.6242449  12.4752665  73.4231467  55.9270583  12.0296778  72.7938549
  58.8631130  12.2149535  77.3565612  59.6391520  12.7045988  77.6290229
  58.1379264  12.6407589  77.8137481  61.3003689  12.9277154  78.4139552
  61.8948180  12.6872890  77.7032861  61.3730273  12.2084285  79.0413089
  43.5200845  26.7710765  78.7282717  43.3855313  26.0111166  78.1620715
  43.1032907  27.4951665  78.2611506  54.6559808  21.9547689  67.7359292
  55.3595658  22.1597691  68.3516948  53.9322456  22.5224451  68.0008376
  55.4857618  17.7057550  73.8561563  55.4292819  18.1626102  73.0169195
  56.0385960  16.9448235  73.6784405  59.2962424  13.4947282  74.6811682
  59.0399358  13.0943918  75.5119890  58.6715292  14.2091076  74.5561821
  63.6074762  16.2343355  77.1882974  63.0474320  16.3036545  77.9614536
  63.0018265  16.0584340  76.4682470  46.6769970  27.6680082  78.9401160
  46.5602355  28.6125515  78.8379850  45.8562417  27.3653644  79.3286959
  56.5646505  22.3930218  69.7857753  57.3992109  21.9611417  69.6035227
  56.4030848  22.2212232  70.7134647  56.2192397  18.8962331  71.1514092
  56.1641201  18.7306603  70.2102536  55.5938452  19.6038364  71.3076282
  41.0084912  14.1330396  84.9775514  41.6543776  13.6229350  85.4662739
  40.8002063  14.8699077  85.5518939  53.5338304  21.2011243  90.4767655
  54.4029464  21.3751896  90.1154290  53.0545056  22.0205660  90.3543384
  49.5288523   8.3970440  70.7299410  49.5167192   9.3412280  70.8867681
  50.4211945   8.2140586  70.4358871  47.7024485  28.3208344  82.1557088
  48.6051731  28.3531954  82.4723583  47.4761855  27.3908795  82.1703424
  49.4578087  27.0739331  78.8167167  48.5073718  27.0741192  78.7031539
  49.7610573  26.3272065  78.3003202  53.3440642   4.9913217  74.9845347
  52.5773038   4.4371704  75.1302029  53.7551347   5.0635086  75.8459499
  45.3482403  11.2798013  89.0750528  46.2113865  10.9234818  89.2853853
  44.7747814  10.9411908  89.7625933  65.1930780  32.9099869  79.8812929
  65.8309190  32.7906617  79.1776269  65.0751623  33.8580713  79.9400881
  62.0020486  32.8627297  79.8174454  61.6638998  32.7468362  78.9294989
  62.8710255  32.4618462  79.7975460  57.8607302  34.7162774  75.8071345
  57.2972167  34.6252711  75.0387633  57.7459697  33.8962678  76.2873837
  62.4840269  34.0162149  85.7760660  62.4728910  33.6214947  84.9041163
  62.6460909  33.2828222  86.3694431  63.4406861  38.3833741  71.1185810
  62.7894841  38.9687822  70.7319824  64.2351224  38.9139936  71.1780847
  57.3662488  35.4722879  71.5172944  58.1393364  34.9251866  71.3785820
  57.7187887  36.3367128  71.7287406  59.7028766  31.6315545  69.1491394
  59.9554286  31.1097066  68.3874857  58.7653325  31.4681690  69.2518078
  64.7472049  30.6351323  76.9566137  65.5335138  30.2170746  76.6056554
  65.0110753  31.5397415  77.1247786  64.9182126  36.0724173  71.6554794
  64.2827959  36.1458800  72.3675699  64.5879532  36.6617772  70.9773873
  70.1480476  30.5726556  77.8599116  70.8805648  30.0025773  78.0936945
  69.3919831  30.1848157  78.3005621  59.4225055  33.5343651  71.3515769
  59.3061313  32.8588554  72.0196853  59.5327314  33.0476025  70.5347922
  61.7656595  32.9953798  75.0562458  61.4014803  32.4684419  75.7675380
  62.6223711  32.6052267  74.8828944  67.6705896  24.2848130  82.3193724
  67.3389221  25.1543541  82.0954939  67.0751509  23.9684414  82.9987755
  61.4062082  28.0243697  70.0523807  61.5736485  28.8923934  70.4194278
  61.2159251  28.1870979  69.1285096  64.1637416  36.4860676  81.7189637
  63.8638139  37.3885715  81.6105444  63.8188475  36.2192860  82.5710790
  57.6149897  32.9374473  77.7526342  56.6900394  32.8050687  77.9604033
  57.8634310  33.7168692  78.2496284  67.5634559  29.0043217  79.3987074
  66.6551437  28.9358625  79.1045835  67.5122155  29.4815161  80.2268900
  61.3851303  30.4801355  71.0370474  61.2650928  30.9258406  71.8755954
  60.6903892  30.8286673  70.4784012  59.1458195  43.2504997  74.6860605
  59.0682225  44.2012822  74.7649085  58.5419839  42.9050869  75.3435531
  69.4296206  27.2059655  81.1764948  68.7870586  27.4992188  80.5304743
  68.9251134  27.0912575  81.9818145  67.0836369  30.9522828  71.8650808
  67.9954226  31.1850215  71.6898505  66.5746017  31.5359872  71.3025886
  65.3677137  35.3747456  85.5012100  65.7760493  34.9329866  84.7566733
  64.6454399  34.8000083  85.7546293  61.7208207  30.3120063  82.8745657
  62.5669402  30.7359476  83.0180306  61.6606845  29.6553687  83.5684220
  65.6905952  35.9348647  79.2564389  65.0614814  36.0994361  78.5540457
  65.3031614  36.3490256  80.0275353  69.5695184  36.8703084  76.6108753
  68.8846222  37.2501986  76.0605786  69.6539033  37.4798411  77.3440701
  64.8707652  27.9724431  84.5326831  64.6268584  28.7266492  83.9961107
  65.1467583  28.3509779  85.3674078  66.8246115  34.5163043  83.2104096
  67.0363010  35.1594803  82.5338478  66.7775864  33.6825360  82.7426027
  64.4272344  27.1280864  80.1140669  63.5656823  27.4262118  80.4057406
  64.4534779  27.3451263  79.1821701  61.2433914  35.6723055  76.5214474
  61.7072259  35.9510758  75.7319097  60.9790712  34.7706499  76.3387565
  60.1802800  31.7946207  73.3304039  60.8826843  32.2467251  73.7977966
  59.8483428  31.1530026  73.9583933  67.9391943  37.3934999  81.3826454
  68.7609387  36.9915186  81.1009135  67.9354346  37.2903233  82.3342570
  55.8742879  30.4174339  75.5904650  55.0774042  30.5293033  76.1088145
  55.6468471  30.7560991  74.7245540  76.0297936  33.7373747  77.7311425
  75.2761645  33.1681145  77.5755430  76.1645477  33.7036412  78.6782060
  61.4196564  38.6087150  73.4066145  61.2842239  39.4538685  73.8350992
  61.9606377  38.8106427  72.6432078  57.9063904  24.6878729  90.0680500
  57.5130850  24.1344928  90.7428144  58.7230044  24.9989308  90.4587017
  54.8725962  36.1262588  73.9794070  55.3850482  36.9205838  74.1299634
  55.5248675  35.4288878  73.9127671  60.8231865  26.1036609  87.6600756
  61.5641578  26.7043762  87.5805219  61.0549788  25.3614246  87.1018799
  63.0465041  39.2310716  87.5366487  62.6028895  38.4447095  87.2187391
  63.7082254  39.4189867  86.8710377  65.1446279  39.5113516  85.5647888
  65.1264754  40.3322397  85.0728157  66.0666199  39.3867591  85.7898029
  64.7689028  22.1317711  81.9365038  64.4253297  23.0219353  81.8604149
  65.1367990  21.9419369  81.0734623  52.8374878  34.4551242  74.7553640
  53.6750100  34.8648250  74.5387348  53.0153146  33.5150684  74.7253834
  64.7339311  32.1226323  70.4437473  64.2185934  32.8930927  70.6825861
  64.4616619  31.4491459  71.0670535  62.3186422  26.9676023  75.5022712
  61.4628018  26.5782874  75.3228350  62.7313373  27.0467984  74.6422497
  63.8485568  24.5022367  79.9014271  63.3450364  24.4652502  79.0882077
  64.1416175  25.4115109  79.9610928  60.0928454  24.5861096  78.9080453
  60.9581451  24.3903905  78.5486343  60.1605963  24.3571448  79.8349810
  69.7073585  34.8758677  72.3790647  68.9303027  34.5369837  71.9345809
  70.3865066  34.8811300  71.7045612  64.5225614  29.9953415  72.2697254
  64.2175749  30.3099564  73.1207398  65.4756056  30.0734835  72.3124587
  62.9672046  36.1543638  73.9190208  62.4393407  35.4196398  73.6063446
  62.4659548  36.9318314  73.6730177  67.9464892  34.3492659  79.0357255
  67.2888566  35.0391920  79.1237383  68.7505291  34.7389090  79.3791241
  57.6990773  26.8163304  76.2796820  58.2734525  26.5938486  75.5470013
  58.2861756  26.8851999  77.0325421  66.7570350  32.7037031  77.0861196
  67.2702232  33.3367023  77.5882906  67.4071574  32.1038227  76.7204556
  58.0260360  28.8467765  70.2992705  57.1897673  29.1842452  70.6201980
  57.8865130  28.7116745  69.3619842  60.0013441  23.6904553  75.0071889
  59.3477853  23.3753570  74.3828504  59.9593915  23.0680294  75.7331712
  61.1124646  33.9723848  66.9225181  60.2051708  33.7413102  67.1216330
  61.6095678  33.1761468  67.1099163  64.0192725  42.6821355  69.8421868
  63.3454423  42.9853052  70.4506825  64.4058547  43.4850436  69.4927325
  63.2351181  30.1786487  79.3319537  62.3173743  30.4001434  79.1741225
  63.6511325  30.2532797  78.4731244  64.0186229  31.5777902  74.4622217
  64.7658048  32.0899300  74.1529339  64.2877819  31.2561955  75.3226611
  62.2912879  34.0736443  71.4449171  61.3824098  33.7895476  71.5421641
  62.3207963  34.4935522  70.5852478  67.5232147  37.6843033  75.2140339
  67.0694474  36.8433943  75.2705530  66.8926113  38.3204431  75.5515119
  66.4665066  28.6135019  76.4441006  65.7287823  28.1012405  76.7751249
  66.7191840  28.1735400  75.6324283  65.9665086  39.5219529  76.1490157
  66.2588060  40.0824586  75.4302523  66.4763706  39.8148090  76.9043316
  66.5676694  21.3911271  77.0382776  66.8735570  20.5308634  76.7508691
  67.2929298  21.9828891  76.8381770  60.8397773  31.6865064  77.5458967
  60.8946383  30.7338900  77.4701443  60.0288975  31.8424503  78.0300265
  61.9888967  35.6145187  68.7837250  61.5508397  34.8981046  68.3242887
  62.7299408  35.8421302  68.2222341  58.7790133  30.3042123  75.3049346
  57.9657999  30.6036294  75.7114538  59.2749127  29.9097812  76.0223828
  60.9298711  40.2999880  77.2383610  60.8874890  40.5260727  76.3092142
  61.8461410  40.0663255  77.3869412  64.3764345  30.7683948  84.1364240
  64.7313733  30.9955421  84.9958705  65.0236476  31.1002325  83.5141495
  70.1062082  33.8902384  74.8413569  69.9679980  34.0803980  73.9134758
  69.7498301  34.6521767  75.2981620  58.2704208  27.8760479  80.9210581
  58.9103587  27.7349238  80.2233544  57.4381739  27.5894992  80.5449183
  70.1331461  35.9578911  79.8524840  70.5667968  35.8654200  80.7007894
  70.8463042  35.9336411  79.2144856  63.8659356  39.5581005  81.3857941
  63.9196379  40.1271941  82.1535657  62.9974138  39.7282890  81.0211978
  55.3547275  31.3205991  73.1105326  54.4244863  31.2590447  73.3275288
  55.4504747  30.7981944  72.3141967  55.2732824  27.8460804  75.6983567
  55.5339642  28.7606137  75.5892728  56.0949997  27.3785247  75.8480180
  70.9947011  36.0002612  82.3857726  71.1882901  36.9048422  82.6317000
  70.8947629  35.5410031  83.2196311  62.6483322  25.8860502  84.8848053
  62.0011237  26.5850452  84.7912529  63.4184337  26.3196646  85.2524301
  66.0562120  36.1509354  87.9598606  65.9047626  35.9219906  87.0428690
  66.0466799  37.1079956  87.9729951  62.8247456  33.7241267  82.9444873
  63.7539516  33.8752427  82.7713840  62.4038486  33.8125288  82.0893519
  61.6235788  37.7491931  80.7143410  61.4846874  37.3810716  81.5869348
  60.8350384  38.2639571  80.5427368  62.2183940  42.8501028  72.0568947
  62.3935696  42.3789071  72.8714569  61.5316728  43.4766794  72.2850207
  63.1741003  37.1273534  78.1032248  62.8390836  37.0874304  78.9989898
  62.6744949  36.4618250  77.6302658  66.1100195  34.4729568  68.3769308
  65.4929365  33.7476397  68.2802360  65.6416683  35.2338929  68.0336382
  67.7654326  39.1828477  86.0375088  67.7066872  38.4987697  85.3705671
  68.1673845  39.9247467  85.5855714  57.8998741  28.6914993  67.4990612
  57.0228207  28.5703794  67.1352859  58.3756494  27.9001071  67.2469501
  67.7671734  37.1468061  84.2689068  66.8798512  36.8093983  84.3915467
  68.3370285  36.4151092  84.5057833  49.4200881  33.4792152  77.5932119
  50.1071921  33.1653883  77.0053134  49.2649009  34.3833517  77.3199370
  61.0862667  41.0441283  74.7453132  60.3030188  41.5862963  74.8391357
  61.7855412  41.5615263  75.1447374  64.3959317  26.8535913  77.3887338
  64.8928016  26.1005875  77.0688408  63.6246298  26.8900229  76.8230547
  72.2489074  32.5576278  79.0305629  72.2378950  33.4400994  78.6599562
  71.3806454  32.2047829  78.8360166  63.7571570  41.7056347  83.3908470
  64.4699543  42.3403812  83.3184371  63.2661599  41.8020213  82.5748471
  65.4789097  35.6107600  74.9625761  64.5445376  35.7309062  74.7930466
  65.6565766  34.7080067  74.6985771  60.9794285  28.9953296  77.1159022
  60.6092073  28.4424336  77.8039928  61.4753378  28.3911429  76.5634022
  68.8661649  31.4524919  75.4975795  69.3322101  32.2852911  75.4236098
  69.3169149  30.9869901  76.2021054  66.9337880  37.7968740  72.4961947
  67.2097724  37.6825335  73.4055821  66.0642379  37.3986225  72.4574120
  66.8378311  23.8205506  79.5366697  65.9241391  24.0509733  79.7048904
  67.2671413  23.9043950  80.3880729  66.6084770  32.0095398  82.0366591
  65.9556220  32.2571305  81.3819043  66.9865150  31.1959536  81.7029068
  63.5691944  42.0455091  76.1394761  63.7514338  41.2276747  76.6022513
  64.3924930  42.2622783  75.7019651  63.9034109  40.9723276  73.4009809
  64.4321876  40.4615731  72.7879972  64.1662329  40.6565807  74.2655343
  62.6572343  32.7515209  88.5232628  61.9812980  32.6509338  89.1935003
  63.4799977  32.5954423  88.9868625  48.9968857  31.5592746  79.8649586
  49.0352956  31.0256337  80.6586704  48.4909150  31.0327951  79.2460563
  56.3759619  26.4057286  83.3612128  56.4400946  27.2672117  82.9489526
  56.3126739  25.7931288  82.6284487  66.2506000  38.8843394  88.6138898
  66.7945904  39.4973352  88.1193853  65.6692845  39.4422972  89.1305911
  52.6277434  30.2856848  72.9403518  52.9230875  29.3767526  72.8870571
  51.7265470  30.2644587  72.6184520  64.5363513  42.0064112  79.7453926
  64.4114653  41.2053852  79.2364871  65.1942604  42.5010305  79.2567896
  66.5998422  39.8073132  81.3733476  65.6528757  39.6878483  81.3011803
  66.9481195  38.9195630  81.4559737  58.9597995  25.6967271  85.1971718
  59.4832397  25.9429568  85.9598027  58.7410328  26.5287306  84.7774855
  54.3565276  27.9670946  73.0642843  54.0277982  27.0868325  72.8817949
  54.7104647  27.9118614  73.9519232  63.6044855  39.6025848  77.5737828
  63.4569817  38.6742556  77.7545398  64.4298348  39.6245939  77.0894903
  57.4707099  28.2543915  73.4318320  57.8103172  28.7829837  72.7096929
  57.9179220  28.5924322  74.2076887  67.2078977  40.4254407  78.6602701
  68.1325524  40.2197268  78.5227152  67.0394280  40.1770808  79.5692042
  60.1650540  26.6380966  82.8821388  59.8247360  25.8388779  83.2842068
  59.4589546  26.9382677  82.3098222  60.8167012  23.7230279  81.3348711
  61.6393081  23.2490757  81.2127602  61.0605075  24.5020762  81.8347398
  59.4575246  26.7518537  71.6311613  60.1783609  27.1299790  71.1275330
  58.8340550  27.4707414  71.7346591  63.6006369  27.4563686  72.5669945
  63.8169984  28.3388324  72.2658774  63.1200436  27.0649899  71.8375587
  58.3405591  30.4149399  79.1440690  58.1950171  30.7289702  80.0364972
  57.8630794  31.0334300  78.5911589  60.2001973  27.4051947  79.1921580
  60.1863542  26.5093041  78.8553878  60.9174402  27.4122611  79.8259866
  62.0528104  27.8389287  81.2374707  61.7945882  28.7606358  81.2359038
  61.5213145  27.4419722  81.9275171  66.9974293  40.9440075  74.0164792
  67.1711170  40.3786497  73.2638645  67.4903184  41.7440969  73.8344282
  59.6038869  26.2866328  74.4609150  59.7254781  25.3582974  74.6600037
  59.3140912  26.3005013  73.5487465  62.4730060  23.9721238  77.5975870
  62.4951757  24.0360571  76.6427849  62.8898119  23.1325747  77.7916376
  72.8513684  33.7076498  75.6355092  73.2944830  32.9583823  75.2374215
  71.9740194  33.6986634  75.2528824  67.9849465  40.2606839  71.1161691
  68.6800370  40.8813532  71.3349005  68.3272616  39.4102190  71.3914069
  69.8840889  37.7106544  72.6449022  70.4092213  38.0493817  71.9198342
  69.7963241  36.7753560  72.4612156  61.5681549  43.7778528  77.0044275
  61.1286540  43.2854906  77.6977131  62.3189666  43.2351495  76.7636350
  59.0879949  27.7998325  88.6699082  59.1368104  28.6760448  88.2876852
  59.6302463  27.2575718  88.0970726  69.5734795  38.3439448  87.9500219
  68.7830338  38.3263587  87.4104719  69.3368149  38.8827742  88.7049256
  69.6932670  35.1931915  85.2632948  69.7430675  35.0281922  86.2048471
  69.5846593  34.3259174  84.8730829  58.5768928  37.8720460  72.5525037
  58.7257049  38.5555925  71.8991710  59.3835372  37.8525550  73.0674493
  66.9836432  31.1762843  86.5792255  67.8846295  31.0369307  86.2876253
  67.0584407  31.3417297  87.5190432  61.3179237  28.5529697  85.4245441
  60.4482547  28.8463263  85.1528030  61.5538718  29.1370142  86.1452705
  71.1950866  37.6128856  85.5074970  70.9035675  37.9758837  86.3438431
  70.5822998  36.8995864  85.3288302  72.3946549  35.1781736  78.0277540
  73.2293440  35.6171540  78.1915100  72.5305678  34.7020389  77.2085786
  69.4438055  32.7361471  83.9755028  69.9192176  32.9289117  83.1673879
  68.5203620  32.7920656  83.7298411  56.3321561  33.8985638  73.5586106
  56.0867603  32.9947968  73.7566316  56.5017476  33.9002788  72.6165584
  64.0218271  24.7709314  82.9410861  64.5400215  25.5070341  82.6157350
  63.6673404  25.0773308  83.7757621  55.6017209  29.6313995  71.0572267
  54.9086454  29.7058350  70.4012303  55.3568961  28.8674339  71.5793784
  64.2730865  21.1909597  78.4611758  64.5532619  20.5232786  79.0872185
  65.0581472  21.3838692  77.9486422  62.0764334  40.3668591  70.0236784
  61.5038301  40.9858778  69.5707256  62.6497128  40.9167952  70.5576706
  68.1439724  29.6127231  82.2083333  69.0957147  29.7125328  82.2295557
  67.9743174  28.8205499  82.7181418  66.1654103  26.6982814  82.3942734
  65.5704035  26.9787827  81.6989223  65.8803800  27.1876715  83.1659475
  65.2961594  40.6505741  71.1545367  66.2292267  40.5851302  71.3578242
  65.2084806  41.4862008  70.6959899  67.9249610  39.9671611  68.1149314
  67.8463242  39.6331475  69.0085072  68.7459277  40.4593379  68.1140787
  70.6227801  32.8333350  81.3225633  70.5904122  31.8949351  81.5085317
  71.2328425  32.9117387  80.5891458  62.4611132  31.7029403  67.3652837
  63.4070237  31.5735612  67.4341255  62.0825377  30.9644065  67.8422265
  70.7722290  29.6244394  81.3683916  70.2561339  28.8402850  81.1813845
  71.6562238  29.2963110  81.5330435  68.4333017  23.3685409  77.3279729
  68.2357838  23.0600498  78.2123061  69.0432722  24.0947048  77.4577659
  76.4404351  33.8949357  80.4631670  77.1707740  33.6334645  81.0239373
  75.8311297  33.1578079  80.5033738  74.5219648  32.0357220  81.0606121
  73.7952812  31.9013185  80.4522612  74.1066935  32.3434048  81.8662839
  60.6454050  29.6279380  67.3007722  59.7385505  29.3312493  67.3770436
  60.9230031  29.3309198  66.4342008  62.2616115  24.1716270  73.4551963
  61.4516844  23.8263354  73.8307209  62.9500532  23.8623813  74.0439575
  64.1906664  23.2494316  75.0776260  64.7437702  23.6689770  75.7366283
  64.4276750  22.3230064  75.1199216  60.2139763  29.2381390  90.8579024
  60.1136490  30.1875747  90.7891115  59.9961305  28.9099629  89.9855094
  59.4152834  26.4866315  67.4419701  60.2771998  26.8121213  67.7015519
  59.6003178  25.6997811  66.9292767  67.5685471  25.3594841  74.5854924
  66.9884140  26.0179645  74.2032977  67.3021403  24.5372186  74.1742342
  66.0189037  24.7599899  76.7876245  66.5188815  24.8716434  75.9790563
  66.6624645  24.4560952  77.4277053  53.3456992  34.5006908  77.5965905
  53.3227681  34.5994596  76.6447788  53.6557629  35.3472059  77.9183071
  66.3510349  27.5194932  73.6411273  65.4636204  27.8044582  73.4231467
  66.7664338  27.3588695  72.7938549  69.7024885  27.5441453  77.3565612
  70.4785275  28.0337905  77.6290229  68.9773019  27.9699507  77.8137481
  72.1397443  28.2569072  78.4139552  72.7341934  28.0164808  77.7032861
  72.2124027  27.5376203  79.0413089  65.4953562  37.2839607  67.7359292
  66.1989412  37.4889609  68.3516948  64.7716211  37.8516368  68.0008376
  66.3251372  33.0349468  73.8561563  66.2686574  33.4918019  73.0169195
  66.8779715  32.2740152  73.6784405  70.1356178  28.8239200  74.6811682
  69.8793113  28.4235835  75.5119890  69.5109046  29.5382994  74.5561821
  74.4468516  31.5635273  77.1882974  73.8868074  31.6328462  77.9614536
  73.8412020  31.3876258  76.4682470  67.4040259  37.7222136  69.7857753
  68.2385863  37.2903334  69.6035227  67.2424602  37.5504149  70.7134647
  67.0586152  34.2254249  71.1514092  67.0034955  34.0598520  70.2102536
  66.4332207  34.9330282  71.3076282  64.3732059  36.5303161  90.4767655
  65.2423218  36.7043813  90.1154290  63.8938810  37.3497578  90.3543384
  60.3682277  23.7262358  70.7299410  60.3560947  24.6704198  70.8867681
  61.2605699  23.5432503  70.4358871  60.2971841  42.4031248  78.8167167
  59.3467472  42.4033110  78.7031539  60.6004327  41.6563983  78.3003202
  64.1834397  20.3205135  74.9845347  63.4166792  19.7663621  75.1302029
  64.5945102  20.3927003  75.8459499  56.1876158  26.6089930  89.0750528
  57.0507619  26.2526735  89.2853853  55.6141568  26.2703825  89.7625933
  70.5422520  46.9607462  69.1491394  70.7948041  46.4388984  68.3874857
  69.6047079  46.7973608  69.2518078  75.5865803  45.9643241  76.9566137
  76.3728892  45.5462664  76.6056554  75.8504507  46.8689333  77.1247786
  78.5099651  39.6140048  82.3193724  78.1782975  40.4835459  82.0954939
  77.9145264  39.2976332  82.9987755  72.2455837  43.3535615  70.0523807
  72.4130239  44.2215851  70.4194278  72.0553006  43.5162897  69.1285096
  68.4543652  48.2666391  77.7526342  67.5294148  48.1342605  77.9604033
  68.7028065  49.0460610  78.2496284  78.4028314  44.3335134  79.3987074
  77.4945191  44.2650543  79.1045835  78.3515910  44.8107079  80.2268900
  72.2245058  45.8093273  71.0370474  72.1044683  46.2550323  71.8755954
  71.5297646  46.1578590  70.4784012  72.4769180  45.7524780  87.3421972
  71.7002514  46.3118700  87.3324836  73.1159743  46.2381563  87.8636842
  80.2689960  42.5351573  81.1764948  79.6264341  42.8284106  80.5304743
  79.7644889  42.4204493  81.9818145  77.9230124  46.2814746  71.8650808
  78.8347980  46.5142133  71.6898505  77.4139771  46.8651790  71.3025886
  72.5601962  45.6411980  82.8745657  73.4063157  46.0651394  83.0180306
  72.5000599  44.9845605  83.5684220  75.7101407  43.3016349  84.5326831
  75.4662339  44.0558409  83.9961107  75.9861337  43.6801696  85.3674078
  75.2666099  42.4572782  80.1140669  74.4050578  42.7554035  80.4057406
  75.2928533  42.6743181  79.1821701  69.4676916  45.7149881  87.7055249
  68.8375576  46.3966162  87.9390646  69.3613004  45.6032963  86.7608387
  64.7621888  45.3821677  78.6321173  63.9720942  45.6379206  78.1561284
  65.2533136  46.1970015  78.7373213  66.7136634  45.7466257  75.5904650
  65.9167797  45.8584951  76.1088145  66.4862226  46.0852909  74.7245540
  86.8691691  49.0665665  77.7311425  86.1155399  48.4973063  77.5755430
  87.0039232  49.0328329  78.6782060  68.7457658  40.0170647  90.0680500
  68.3524604  39.4636846  90.7428144  69.5623799  40.3281226  90.4587017
  71.6625619  41.4328526  87.6600756  72.4035333  42.0335679  87.5805219
  71.8943542  40.6906164  87.1018799  75.6082782  37.4609629  81.9365038
  75.2647052  38.3511271  81.8604149  75.9761745  37.2711287  81.0734623
  63.6768633  49.7843160  74.7553640  64.5143855  50.1940168  74.5387348
  63.8546901  48.8442602  74.7253834  73.1580176  42.2967941  75.5022712
  72.3021772  41.9074791  75.3228350  73.5707128  42.3759902  74.6422497
  74.6879323  39.8314284  79.9014271  74.1844118  39.7944419  79.0882077
  74.9809930  40.7407027  79.9610928  70.9322209  39.9153014  78.9080453
  71.7975205  39.7195823  78.5486343  70.9999718  39.6863366  79.8349810
  80.5467339  50.2050595  72.3790647  79.7696782  49.8661754  71.9345809
  81.2258820  50.2103218  71.7045612  75.3619368  45.3245332  72.2697254
  75.0569504  45.6391482  73.1207398  76.3149810  45.4026752  72.3124587
  68.5384528  42.1455222  76.2796820  69.1128280  41.9230403  75.5470013
  69.1255510  42.2143916  77.0325421  68.8654115  44.1759683  70.2992705
  68.0291427  44.5134370  70.6201980  68.7258884  44.0408663  69.3619842
  70.8407195  39.0196471  75.0071889  70.1871608  38.7045488  74.3828504
  70.7987670  38.3972211  75.7331712  71.9518400  49.3015766  66.9225181
  71.0445462  49.0705019  67.1216330  72.4489432  48.5053385  67.1099163
  77.3058821  43.9426936  76.4441006  76.5681577  43.4304323  76.7751249
  77.5585594  43.5027318  75.6324283  77.4070448  36.7203188  77.0382776
  77.7129325  35.8600552  76.7508691  78.1323053  37.3120809  76.8381770
  63.6994804  47.1233875  75.4264374  63.5019204  46.5303236  74.7015440
  63.1441468  46.8186085  76.1440312  69.6183888  45.6334041  75.3049346
  68.8051753  45.9328212  75.7114538  70.1142882  45.2389730  76.0223828
  69.1097962  43.2052397  80.9210581  69.7497342  43.0641156  80.2233544
  68.2775493  42.9186910  80.5449183  66.1941030  46.6497909  73.1105326
  65.2638618  46.5882364  73.3275288  66.2898502  46.1273862  72.3141967
  66.1126579  43.1752722  75.6983567  66.3733396  44.0898055  75.5892728
  66.9343751  42.7077164  75.8480180  67.5851504  44.5890479  82.8682392
  68.2574558  44.3807841  82.2195041  66.7581291  44.3912565  82.4287624
  73.4877076  41.2152420  84.8848053  72.8404991  41.9142369  84.7912529
  74.2578092  41.6488564  85.2524301  67.9879001  47.8633082  83.6284829
  67.8498799  47.1313321  84.2296368  68.8983925  47.7741982  83.3469017
  76.9493949  49.8021486  68.3769308  76.3323120  49.0768314  68.2802360
  76.4810438  50.5630846  68.0336382  70.6161302  47.5753041  83.1168509
  71.3260921  46.9346233  83.0755127  70.5730610  47.8265936  84.0394690
  69.3290236  44.5618259  84.9364148  68.7927593  44.1108997  85.5885745
  68.7406945  44.6964168  84.1934613  68.7392495  44.0206910  67.4990612
  67.8621961  43.8995711  67.1352859  69.2150248  43.2292989  67.2469501
  60.2594635  48.8084070  77.5932119  60.9465675  48.4945800  77.0053134
  60.1042764  49.7125435  77.3199370  65.0629357  43.6974267  82.0217143
  64.9787546  43.0899936  81.2867553  64.2412064  44.1883285  82.0226639
  75.2353071  42.1827830  77.3887338  75.7321771  41.4297793  77.0688408
  74.4640053  42.2192147  76.8230547  71.8188040  44.3245213  77.1159022
  71.4485827  43.7716254  77.8039928  72.3147132  43.7203347  76.5634022
  77.6772066  39.1497424  79.5366697  76.7635146  39.3801651  79.7048904
  78.1065167  39.2335868  80.3880729  73.4966098  48.0807127  88.5232628
  72.8206735  47.9801256  89.1935003  74.3193731  47.9246341  88.9868625
  67.2153374  41.7349204  83.3612128  67.2794700  42.5964035  82.9489526
  67.1520494  41.1223206  82.6284487  63.4671189  45.6148766  72.9403518
  63.7624630  44.7059444  72.8870571  62.5659225  45.5936505  72.6184520
  66.9965436  43.6904762  78.9231066  66.2752022  44.3040730  78.7838539
  67.7858692  44.2262527  78.8447712  69.7991749  41.0259189  85.1971718
  70.3226151  41.2721485  85.9598027  69.5804083  41.8579224  84.7774855
  65.1959030  43.2962863  73.0642843  64.8671737  42.4160242  72.8817949
  65.5498401  43.2410532  73.9519232  68.3100854  43.5835833  73.4318320
  68.6496926  44.1121754  72.7096929  68.7572974  43.9216239  74.2076887
  71.0044294  41.9672884  82.8821388  70.6641115  41.1680697  83.2842068
  70.2983301  42.2674595  82.3098222  71.6560766  39.0522196  81.3348711
  72.4786836  38.5782674  81.2127602  71.8998830  39.8312680  81.8347398
  70.2969001  42.0810455  71.6311613  71.0177363  42.4591708  71.1275330
  69.6734305  42.7999332  71.7346591  74.4400124  42.7855604  72.5669945
  74.6563738  43.6680242  72.2658774  73.9594191  42.3941817  71.8375587
  69.1799345  45.7441317  79.1440690  69.0343926  46.0581620  80.0364972
  68.7024549  46.3626217  78.5911589  71.0395728  42.7343865  79.1921580
  71.0257297  41.8384958  78.8553878  71.7568156  42.7414529  79.8259866
  72.8921859  43.1681205  81.2374707  72.6339636  44.0898276  81.2359038
  72.3606899  42.7711640  81.9275171  70.4432624  41.6158245  74.4609150
  70.5648535  40.6874891  74.6600037  70.1534666  41.6296931  73.5487465
  73.3123814  39.3013156  77.5975870  73.3345511  39.3652489  76.6427849
  73.7291873  38.4617664  77.7916376  83.6907439  49.0368415  75.6355092
  84.1338585  48.2875740  75.2374215  82.8133949  49.0278552  75.2528824
  80.7234643  53.0398462  72.6449022  81.2485967  53.3785735  71.9198342
  80.6356996  52.1045477  72.4612156  63.0876248  53.2168313  77.9657836
  62.2508156  52.7890487  77.7841838  63.0599893  53.4100756  78.9028628
  69.9273703  43.1290243  88.6699082  69.9761859  44.0052365  88.2876852
  70.4696218  42.5867636  88.0970726  72.1572992  43.8821615  85.4245441
  71.2876301  44.1755181  85.1528030  72.3932472  44.4662060  86.1452705
  74.8612026  40.1001232  82.9410861  75.3793970  40.8362259  82.6157350
  74.5067158  40.4065225  83.7757621  66.4410963  44.9605913  71.0572267
  65.7480208  45.0350268  70.4012303  66.1962715  44.1966257  71.5793784
  75.1124620  36.5201514  78.4611758  75.3926374  35.8524703  79.0872185
  75.8975227  36.7130610  77.9486422  78.9833478  44.9419148  82.2083333
  79.9350901  45.0417246  82.2295557  78.8136929  44.1497417  82.7181418
  77.0047858  42.0274732  82.3942734  76.4097790  42.3079744  81.6989223
  76.7197554  42.5168633  83.1659475  78.7643365  55.2963529  68.1149314
  78.6856996  54.9623392  69.0085072  79.5853032  55.7885297  68.1140787
  73.3004887  47.0321321  67.3652837  74.2463992  46.9027529  67.4341255
  72.9219132  46.2935983  67.8422265  81.6116044  44.9536312  81.3683916
  81.0955093  44.1694768  81.1813845  82.4955993  44.6255028  81.5330435
  79.2726771  38.6977327  77.3279729  79.0751593  38.3892415  78.2123061
  79.8826477  39.4238966  77.4577659  87.2798106  49.2241275  80.4631670
  88.0101494  48.9626563  81.0239373  86.6705051  48.4869997  80.5033738
  85.3613403  47.3649138  81.0606121  84.6346567  47.2305102  80.4522612
  84.9460690  47.6725966  81.8662839  71.4847804  44.9571297  67.3007722
  70.5779259  44.6604410  67.3770436  71.7623785  44.6601116  66.4342008
  62.4025744  46.2777661  77.7506768  62.0828529  45.4242969  77.4581142
  61.8559173  46.4926239  78.5064736  73.1009870  39.5008187  73.4551963
  72.2910598  39.1555272  73.8307209  73.7894287  39.1915731  74.0439575
  75.0300418  38.5786234  75.0776260  75.5831457  38.9981687  75.7366283
  75.2670504  37.6521982  75.1199216  71.0533517  44.5673308  90.8579024
  70.9530244  45.5167665  90.7891115  70.8355059  44.2391547  89.9855094
  70.2546589  41.8158233  67.4419701  71.1165753  42.1413131  67.7015519
  70.4396933  41.0289729  66.9292767  78.4079225  40.6886759  74.5854924
  77.8277894  41.3471563  74.2032977  78.1415158  39.8664104  74.1742342
  76.8582791  40.0891817  76.7876245  77.3582570  40.2008351  75.9790563
  77.5018399  39.7852870  77.4277053  64.1850747  49.8298826  77.5965905
  64.1621435  49.9286513  76.6447788  64.4951383  50.6763977  77.9183071
  77.1904103  42.8486850  73.6411273  76.3029958  43.1336500  73.4231467
  77.6058092  42.6880613  72.7938549  80.5418639  42.8733371  77.3565612
  81.3179029  43.3629823  77.6290229  79.8166773  43.2991425  77.8137481
  82.9791198  43.5860990  78.4139552  83.5735689  43.3456726  77.7032861
  83.0517782  42.8668120  79.0413089  80.9749933  44.1531117  74.6811682
  80.7186867  43.7527753  75.5119890  80.3502801  44.8674911  74.5561821
  85.2862271  46.8927191  77.1882974  84.7261829  46.9620380  77.9614536
  84.6805774  46.7168175  76.4682470  71.2076032  39.0554276  70.7299410
  71.1954701  39.9996116  70.8867681  72.0999453  38.8724421  70.4358871
  75.0228151  35.6497052  74.9845347  74.2560547  35.0955539  75.1302029
  75.4338856  35.7218921  75.8459499  67.0269912  41.9381848  89.0750528
  67.8901374  41.5818653  89.2853853  66.4535323  41.5995743  89.7625933
  86.4476537  52.7901547  81.9365038  86.1040806  53.6803189  81.8604149
  86.8155499  52.6003204  81.0734623  86.2013123  60.6537250  72.2697254
  85.8963258  60.9683399  73.1207398  87.1543565  60.7318670  72.3124587
  81.6800950  54.3488389  75.0071889  81.0265362  54.0337406  74.3828504
  81.6381424  53.7264129  75.7331712  88.2464203  52.0495106  77.0382776
  88.5523079  51.1892469  76.7508691  88.9716807  52.6412726  76.8381770
  87.9293509  69.5427229  88.6138898  88.4733413  70.1557188  88.1193853
  87.3480354  70.1006808  89.1305911  81.1362755  57.4102372  71.6311613
  81.8571118  57.7883625  71.1275330  80.5128059  58.1291249  71.7346591
  85.2793878  58.1147521  72.5669945  85.4957493  58.9972159  72.2658774
  84.7987945  57.7233735  71.8375587  81.2826378  56.9450163  74.4609150
  81.4042290  56.0166809  74.6600037  80.9928421  56.9588849  73.5487465
  84.1517569  54.6305073  77.5975870  84.1739266  54.6944406  76.6427849
  84.5685628  53.7909582  77.7916376  91.2522304  69.0023283  87.9500219
  90.4617847  68.9847422  87.4104719  91.0155658  69.5411577  88.7049256
  85.9518374  51.8493432  78.4611758  86.2320128  51.1816621  79.0872185
  86.7368981  52.0422528  77.9486422  90.1120526  54.0269245  77.3279729
  89.9145347  53.7184333  78.2123061  90.7220231  54.7530884  77.4577659
  83.9403624  54.8300105  73.4551963  83.1304353  54.4847190  73.8307209
  84.6288041  54.5207649  74.0439575  85.8694172  53.9078152  75.0776260
  86.4225211  54.3273605  75.7366283  86.1064259  52.9813900  75.1199216
  89.2472980  56.0178677  74.5854924  88.6671649  56.6763481  74.2032977
  88.9808912  55.1956021  74.1742342  87.6976546  55.4183735  76.7876245
  88.1976324  55.5300269  75.9790563  88.3412154  55.1144787  77.4277053
  88.0297858  58.1778767  73.6411273  87.1423713  58.4628418  73.4231467
  88.4451847  58.0172531  72.7938549  82.0469786  54.3846193  70.7299410
  82.0348456  55.3288033  70.8867681  82.9393208  54.2016339  70.4358871
  85.8621906  50.9788970  74.9845347  85.0954301  50.4247457  75.1302029
  86.2732611  51.0510839  75.8459499  90.4245167  70.6754482  90.0680500
  90.0312113  70.1220681  90.7428144  91.2411308  70.9865061  90.4587017
  92.2948811  78.2336877  83.1168509  93.0048430  77.5930069  83.0755127
  92.2518119  78.4849771  84.0394690  88.7057421  72.5965684  89.0750528
  89.5688883  72.2402488  89.2853853  88.1322832  72.2579578  89.7625933
 119.3872954  95.0541418  77.7311425 118.6336663  94.4848816  77.5755430
 119.5220495  95.0204083  78.6782060 113.0648603  96.1926348  72.3790647
 112.2878045  95.8537507  71.9345809 113.7440084  96.1978971  71.7045612
 113.4637100  95.2070055  74.8413569 113.3254998  95.3971651  73.9134758
 113.1073319  95.9689437  75.2981620 115.7521567  96.4949407  78.0277540
 116.5868458  96.9339211  78.1915100 115.8880696  96.0188060  77.2085786
 111.2824628 101.2839282  68.1149314 111.2038260 100.9499145  69.0085072
 112.1034295 101.7761050  68.1140787 113.9802819  94.1501021  81.3225633
 113.9479140  93.2117022  81.5085317 114.5903443  94.2285058  80.5891458
 119.7979369  95.2117028  80.4631670 120.5282758  94.9502316  81.0239373
 119.1886315  94.4745750  80.5033738 113.8997538 108.2775133  69.1491394
 114.1523059 107.7556654  68.3874857 112.9622097 108.1141278  69.2518078
 119.1150898 112.7183762  71.6554794 118.4796731 112.7918388  72.3675699
 118.7848305 113.3077361  70.9773873 124.3449248 107.2186145  77.8599116
 125.0774420 106.6485361  78.0936945 123.5888604 106.8307745  78.3005621
 115.6030855 104.6703286  70.0523807 115.7705257 105.5383522  70.4194278
 115.4128024 104.8330567  69.1285096 121.7603332 105.6502805  79.3987074
 120.8520209 105.5818213  79.1045835 121.7090928 106.1274750  80.2268900
 115.5820076 107.1260943  71.0370474 115.4619701 107.5717994  71.8755954
 114.8872664 107.4746261  70.4784012 123.6264978 103.8519243  81.1764948
 122.9839358 104.1451776  80.5304743 123.1219907 103.7372164  81.9818145
 121.2805142 107.5982416  71.8650808 122.1922998 107.8309803  71.6898505
 120.7714789 108.1819461  71.3025886 123.7663956 113.5162673  76.6108753
 123.0814994 113.8961574  76.0605786 123.8507805 114.1257999  77.3440701
 122.1360716 114.0394587  81.3826454 122.9578159 113.6374774  81.1009135
 122.1323119 113.9362821  82.3342570 130.2266709 110.3833336  77.7311425
 129.4730417 109.8140734  77.5755430 130.3614250 110.3496000  78.6782060
 118.9657800  98.7777300  81.9365038 118.6222070  99.6678942  81.8604149
 119.3336763  98.5878958  81.0734623 118.9308083 108.7685911  70.4437473
 118.4154706 109.5390516  70.6825861 118.6585391 108.0951047  71.0670535
 123.9042357 111.5218266  72.3790647 123.1271800 111.1829425  71.9345809
 124.5833838 111.5270889  71.7045612 118.7194386 106.6413003  72.2697254
 118.4144522 106.9559152  73.1207398 119.6724828 106.7194423  72.3124587
 122.1433664 110.9952247  79.0357255 121.4857339 111.6851508  79.1237383
 122.9474063 111.3848679  79.3791241 120.9539123 109.3496620  77.0861196
 121.4671005 109.9826611  77.5882906 121.6040347 108.7497815  76.7204556
 112.2229133 105.4927354  70.2992705 111.3866445 105.8302040  70.6201980
 112.0833902 105.3576333  69.3619842 115.3093418 110.6183437  66.9225181
 114.4020480 110.3872690  67.1216330 115.8064450 109.8221056  67.1099163
 120.6633839 105.2594607  76.4441006 119.9256595 104.7471993  76.7751249
 120.9160612 104.8194989  75.6324283 120.7645466  98.0370859  77.0382776
 121.0704343  97.1768222  76.7508691 121.4898071  98.6288479  76.8381770
 116.1857739 112.2604775  68.7837250 115.7477169 111.5440634  68.3242887
 116.9268180 112.4880890  68.2222341 124.3030854 110.5361972  74.8413569
 124.1648753 110.7263568  73.9134758 123.9467073 111.2981355  75.2981620
 124.3300234 112.6038499  79.8524840 124.7636741 112.5113788  80.7007894
 125.0431815 112.5796000  79.2144856 120.3068967 111.1189157  68.3769308
 119.6898138 110.3935985  68.2802360 119.8385456 111.8798517  68.0336382
 112.0967513 105.3374581  67.4990612 111.2196979 105.2163382  67.1352859
 112.5725266 104.5460659  67.2469501 118.5928089 103.4995501  77.3887338
 119.0896789 102.7465463  77.0688408 117.8215071 103.5359818  76.8230547
 126.4457847 109.2035866  79.0305629 126.4347723 110.0860582  78.6599562
 125.5775226 108.8507417  78.8360166 123.0630421 108.0984507  75.4975795
 123.5290873 108.9312499  75.4236098 123.5137922 107.6329489  76.2021054
 121.1306652 114.4428329  72.4961947 121.4066496 114.3284923  73.4055821
 120.2611151 114.0445814  72.4574120 121.0347084 100.4665094  79.5366697
 120.1210164 100.6969321  79.7048904 121.4640185 100.5503539  80.3880729
 120.7967194 116.4532721  81.3733476 119.8497530 116.3338072  81.3011803
 121.1449967 115.5655219  81.4559737 121.4047749 117.0713995  78.6602701
 122.3294297 116.8656857  78.5227152 121.2363053 116.8230397  79.5692042
 113.6544019 103.3978125  71.6311613 114.3752381 103.7759378  71.1275330
 113.0309323 104.1167002  71.7346591 117.7975142 104.1023274  72.5669945
 118.0138756 104.9847912  72.2658774 117.3169209 103.7109488  71.8375587
 127.0482457 110.3536086  75.6355092 127.4913603 109.6043411  75.2374215
 126.1708967 110.3446222  75.2528824 124.0809661 114.3566133  72.6449022
 124.6060985 114.6953406  71.9198342 123.9932014 113.4213148  72.4612156
 126.5915321 111.8241324  78.0277540 127.4262213 112.2631128  78.1915100
 126.7274450 111.3479977  77.2085786 109.7985981 106.2773584  71.0572267
 109.1055226 106.3517939  70.4012303 109.5537733 105.5133927  71.5793784
 118.4699638  97.8369185  78.4611758 118.7501392  97.1692374  79.0872185
 119.2550245  98.0298281  77.9486422 122.1218383 116.6131200  68.1149314
 122.0432014 116.2791063  69.0085072 122.9428050 117.1052967  68.1140787
 116.6579905 108.3488992  67.3652837 117.6039010 108.2195200  67.4341255
 116.2794150 107.6103654  67.8422265 122.6301789 100.0144998  77.3279729
 122.4326610  99.7060086  78.2123061 123.2401495 100.7406637  77.4577659
 114.8422822 106.2738968  67.3007722 113.9354277 105.9772081  67.3770436
 115.1198803 105.9768786  66.4342008 116.4584888 100.8175858  73.4551963
 115.6485616 100.4722943  73.8307209 117.1469305 100.5083402  74.0439575
 118.3875436  99.8953905  75.0776260 118.9406475 100.3149358  75.7366283
 118.6245522  98.9689653  75.1199216 113.6121607 103.1325903  67.4419701
 114.4740771 103.4580802  67.7015519 113.7971951 102.3457399  66.9292767
 121.7654243 102.0054430  74.5854924 121.1852912 102.6639234  74.2032977
 121.4990176 101.1831774  74.1742342 120.2157809 101.4059488  76.7876245
 120.7157588 101.5176022  75.9790563 120.8593417 101.1020540  77.4277053
 120.5479121 104.1654520  73.6411273 119.6604976 104.4504171  73.4231467
 120.9633110 104.0048284  72.7938549 123.8993657 104.1901041  77.3565612
 124.6754047 104.6797494  77.6290229 123.1741791 104.6159095  77.8137481
 126.3366216 104.9028660  78.4139552 126.9310707 104.6624396  77.7032861
 126.4092800 104.1835791  79.0413089 119.6922335 113.9299195  67.7359292
 120.3958185 114.1349197  68.3516948 118.9684983 114.4975957  68.0008376
 120.5220145 109.6809056  73.8561563 120.4655346 110.1377608  73.0169195
 121.0748487 108.9199741  73.6784405 124.3324951 105.4698788  74.6811682
 124.0761885 105.0695424  75.5119890 123.7077819 106.1842582  74.5561821
 128.6437289 108.2094861  77.1882974 128.0836847 108.2788051  77.9614536
 128.0380792 108.0335846  76.4682470 121.6009032 114.3681724  69.7857753
 122.4354636 113.9362923  69.6035227 121.4393375 114.1963738  70.7134647
 121.2554924 110.8713837  71.1514092 121.2003728 110.7058109  70.2102536
 120.6300979 111.5789870  71.3076282 114.5651050 100.3721946  70.7299410
 114.5529719 101.3163786  70.8867681 115.4574471 100.1892092  70.4358871
 118.3803169  96.9664723  74.9845347 117.6135565  96.4123210  75.1302029
 118.7913874  97.0386592  75.8459499 130.2293307 124.8851375  79.8812929
 130.8671717 124.7658123  79.1776269 130.1114150 125.8332219  79.9400881
 127.0383013 124.8378803  79.8174454 126.7001525 124.7219868  78.9294989
 127.9072782 124.4369968  79.7975460 122.8969829 126.6914280  75.8071345
 122.3334694 126.6004217  75.0387633 122.7822224 125.8714184  76.2873837
 127.5202796 125.9913655  85.7760660 127.5091437 125.5966453  84.9041163
 127.6823436 125.2579728  86.3694431 120.4434261 128.1865471  78.6455565
 121.2355553 127.8456296  78.2301865 120.6830911 128.2960446  79.5657719
 128.4769388 130.3585247  71.1185810 127.8257367 130.9439328  70.7319824
 129.2713751 130.8891442  71.1780847 122.4025015 127.4474385  71.5172944
 123.1755891 126.9003372  71.3785820 122.7550414 128.3118634  71.7287406
 124.2410057 128.7750767  84.7239843 123.9499923 129.6796398  84.6086510
 124.8767042 128.8167294  85.4383913 125.1666264 126.1527615  81.3141203
 125.7629837 125.9283638  80.5998166 125.2241236 125.4112361  81.9166651
 124.7391293 123.6067051  69.1491394 124.9916813 123.0848572  68.3874857
 123.8015852 123.4433196  69.2518078 129.7834576 122.6102829  76.9566137
 130.5697665 122.1922252  76.6056554 130.0473280 123.5148921  77.1247786
 129.9544653 128.0475679  71.6554794 129.3190486 128.1210306  72.3675699
 129.6242059 128.6369278  70.9773873 135.1843003 122.5478062  77.8599116
 135.9168175 121.9777279  78.0936945 134.4282358 122.1599663  78.3005621
 124.4587581 125.5095157  71.3515769 124.3423840 124.8340060  72.0196853
 124.5689841 125.0227531  70.5347922 126.8019122 124.9705304  75.0562458
 126.4377330 124.4435925  75.7675380 127.6586238 124.5803773  74.8828944
 132.7068423 116.2599636  82.3193724 132.3751748 117.1295047  82.0954939
 132.1114036 115.9435920  82.9987755 126.4424609 119.9995203  70.0523807
 126.6099012 120.8675440  70.4194278 126.2521778 120.1622485  69.1285096
 129.1999943 128.4612182  81.7189637 128.9000666 129.3637221  81.6105444
 128.8551002 128.1944366  82.5710790 122.6512424 124.9125979  77.7526342
 121.7262920 124.7802193  77.9604033 122.8996837 125.6920198  78.2496284
 132.5997086 120.9794723  79.3987074 131.6913964 120.9110131  79.1045835
 132.5484682 121.4566667  80.2268900 126.4213830 122.4552861  71.0370474
 126.3013455 122.9009912  71.8755954 125.7266419 122.8038179  70.4784012
 120.0121235 124.5559253  78.5870131 120.1413616 124.8093732  79.5009542
 119.3318686 125.1486961  78.2674786 124.1820722 135.2256503  74.6860605
 124.1044752 136.1764328  74.7649085 123.5782366 134.8802375  75.3435531
 126.6737952 122.3984368  87.3421972 125.8971286 122.9578288  87.3324836
 127.3128515 122.8841151  87.8636842 134.4658733 119.1811161  81.1764948
 133.8233113 119.4743694  80.5304743 133.9613661 119.0664081  81.9818145
 132.1198896 122.9274334  71.8650808 133.0316752 123.1601721  71.6898505
 131.6108543 123.5111378  71.3025886 124.9284324 125.2069822  86.9039939
 125.6699009 125.7454865  86.6274762 124.2221310 125.8336110  87.0611491
 130.4039664 127.3498962  85.5012100 130.8123020 126.9081372  84.7566733
 129.6816926 126.7751589  85.7546293 126.7570734 122.2871569  82.8745657
 127.6031929 122.7110982  83.0180306 126.6969372 121.6305193  83.5684220
 130.7268479 127.9100153  79.2564389 130.0977341 128.0745867  78.5540457
 130.3394141 128.3241762  80.0275353 134.6057711 128.8454590  76.6108753
 133.9208749 129.2253492  76.0605786 134.6901560 129.4549917  77.3440701
 129.9070179 119.9475937  84.5326831 129.6631111 120.7017998  83.9961107
 130.1830110 120.3261285  85.3674078 131.8608642 126.4914549  83.2104096
 132.0725537 127.1346309  82.5338478 131.8138390 125.6576866  82.7426027
 129.4634871 119.1032370  80.1140669 128.6019350 119.4013624  80.4057406
 129.4897306 119.3202769  79.1821701 126.2796441 127.6474561  76.5214474
 126.7434786 127.9262264  75.7319097 126.0153239 126.7458005  76.3387565
 123.1720522 127.1946042  79.4594237 123.7421879 127.6233311  78.8211722
 123.7628633 126.9128627  80.1578423 125.2165327 123.7697713  73.3304039
 125.9189370 124.2218757  73.7977966 124.8845955 123.1281532  73.9583933
 132.9754470 129.3686505  81.3826454 133.7971914 128.9666692  81.1009135
 132.9716873 129.2654739  82.3342570 120.9105406 122.3925845  75.5904650
 120.1136569 122.5044539  76.1088145 120.6830998 122.7312497  74.7245540
 126.7411074 128.9170548  83.5387164 126.8055506 129.3790955  84.3745336
 126.0321997 128.2867913  83.6669474 141.0660463 125.7125253  77.7311425
 140.3124172 125.1432651  77.5755430 141.2008004 125.6787918  78.6782060
 126.4559091 130.5838656  73.4066145 126.3204766 131.4290191  73.8350992
 126.9968904 130.7857933  72.6432078 119.9088489 128.1014094  73.9794070
 120.4213009 128.8957344  74.1299634 120.5611201 127.4040384  73.9127671
 121.7183373 131.2179850  76.0616823 121.8950002 132.1397815  75.8737807
 122.5140207 130.9038269  76.4911203 128.0827568 131.2062222  87.5366487
 127.6391422 130.4198601  87.2187391 128.7444781 131.3941373  86.8710377
 122.8414689 132.7358024  82.0627165 123.3922114 132.6075087  81.2904159
 122.0026165 133.0352913  81.7122058 130.1808806 131.4865022  85.5647888
 130.1627281 132.3073903  85.0728157 131.1028726 131.3619097  85.7898029
 126.6381860 129.0009152  86.4071396 127.1710197 128.2397440  86.1770704
 126.1095941 128.7082803  87.1495551 129.7701838 124.0977829  70.4437473
 129.2548461 124.8682433  70.6825861 129.4979146 123.4242965  71.0670535
 127.3548949 118.9427529  75.5022712 126.4990545 118.5534380  75.3228350
 127.7675900 119.0219490  74.6422497 128.8848095 116.4773873  79.9014271
 128.3812891 116.4404008  79.0882077 129.1778702 117.3866615  79.9610928
 125.1290981 116.5612602  78.9080453 125.9943978 116.3655411  78.5486343
 125.1968490 116.3322954  79.8349810 134.7436112 126.8510183  72.3790647
 133.9665554 126.5121343  71.9345809 135.4227593 126.8562806  71.7045612
 129.5588141 121.9704921  72.2697254 129.2538276 122.2851070  73.1207398
 130.5118583 122.0486341  72.3124587 128.0034573 128.1295144  73.9190208
 127.4755934 127.3947904  73.6063446 127.5022075 128.9069820  73.6730177
 132.9827419 126.3244165  79.0357255 132.3251093 127.0143426  79.1237383
 133.7867818 126.7140596  79.3791241 131.7932877 124.6788537  77.0861196
 132.3064759 125.3118529  77.5882906 132.4434101 124.0789733  76.7204556
 123.0622887 120.8219271  70.2992705 122.2260200 121.1593958  70.6201980
 122.9227657 120.6868251  69.3619842 125.0375968 115.6656059  75.0071889
 124.3840380 115.3505076  74.3828504 124.9956442 115.0431800  75.7331712
 126.1487173 125.9475354  66.9225181 125.2414234 125.7164608  67.1216330
 126.6458205 125.1512974  67.1099163 129.0555252 134.6572862  69.8421868
 128.3816950 134.9604558  70.4506825 129.4421074 135.4601942  69.4927325
 128.2713708 122.1537993  79.3319537 127.3536270 122.3752940  79.1741225
 128.6873852 122.2284303  78.4731244 129.0548756 123.5529408  74.4622217
 129.8020575 124.0650806  74.1529339 129.3240346 123.2313461  75.3226611
 127.3275406 126.0487949  71.4449171 126.4186625 125.7646982  71.5421641
 127.3570490 126.4687028  70.5852478 132.5594674 129.6594539  75.2140339
 132.1057001 128.8185449  75.2705530 131.9288640 130.2955937  75.5515119
 131.5027593 120.5886525  76.4441006 130.7650350 120.0763911  76.7751249
 131.7554367 120.1486906  75.6324283 131.0027613 131.4971035  76.1490157
 131.2950587 132.0576092  75.4302523 131.5126233 131.7899596  76.9043316
 131.6039220 113.3662777  77.0382776 131.9098097 112.5060140  76.7508691
 132.3291825 113.9580397  76.8381770 125.8760300 123.6616570  77.5458967
 125.9308910 122.7090406  77.4701443 125.0651502 123.8176009  78.0300265
 127.0251494 127.5896693  68.7837250 126.5870924 126.8732552  68.3242887
 127.7661935 127.8172808  68.2222341 123.8152660 122.2793630  75.3049346
 123.0020526 122.5787800  75.7114538 124.3111654 121.8849318  76.0223828
 125.9661238 132.2751386  77.2383610 125.9237417 132.5012233  76.3092142
 126.8823937 132.0414761  77.3869412 129.4126872 122.7435454  84.1364240
 129.7676260 122.9706927  84.9958705 130.0599003 123.0753831  83.5141495
 135.1424609 125.8653890  74.8413569 135.0042507 126.0555486  73.9134758
 134.7860828 126.6273273  75.2981620 135.1693988 127.9330417  79.8524840
 135.6030495 127.8405706  80.7007894 135.8825569 127.9087917  79.2144856
 124.0827039 129.1514415  77.0345573 124.8767637 128.6564736  76.8328148
 123.3718731 128.6232279  76.6713279 128.9021883 131.5332511  81.3857941
 128.9558906 132.1023447  82.1535657 128.0336665 131.7034396  81.0211978
 121.7820277 121.2350067  82.8682392 122.4543330 121.0267429  82.2195041
 120.9550063 121.0372153  82.4287624 136.0309538 127.9754118  82.3857726
 136.2245428 128.8799928  82.6317000 135.9310156 127.5161537  83.2196311
 127.6845849 117.8612008  84.8848053 127.0373764 118.5601958  84.7912529
 128.4546864 118.2948152  85.2524301 131.0924647 128.1260860  87.9598606
 130.9410153 127.8971412  87.0428690 131.0829326 129.0831462  87.9729951
 127.8609983 125.6992773  82.9444873 128.7902043 125.8503933  82.7713840
 127.4401013 125.7876794  82.0893519 126.6598315 129.7243437  80.7143410
 126.5209400 129.3562222  81.5869348 125.8712911 130.2391077  80.5427368
 127.2546467 134.8252534  72.0568947 127.4298222 134.3540577  72.8714569
 126.5679255 135.4518300  72.2850207 128.2103530 129.1025040  78.1032248
 127.8753363 129.0625810  78.9989898 127.7107476 128.4369756  77.6302658
 122.1847774 124.5092670  83.6284829 122.0467572 123.7772909  84.2296368
 123.0952697 124.4201570  83.3469017 131.1462722 126.4481075  68.3769308
 130.5291892 125.7227903  68.2802360 130.6779210 127.2090435  68.0336382
 124.8130075 124.2212630  83.1168509 125.5229693 123.5805822  83.0755127
 124.7699383 124.4725524  84.0394690 132.8016853 131.1579983  86.0375088
 132.7429399 130.4739203  85.3705671 133.2036372 131.8998973  85.5855714
 121.8207552 137.9741897  78.8308807 122.0604150 138.6060421  79.5087825
 120.9776749 137.6229937  79.1174166 122.9361267 120.6666499  67.4990612
 122.0590734 120.5455300  67.1352859 123.4119021 119.8752577  67.2469501
 132.8034261 129.1219567  84.2689068 131.9161039 128.7845489  84.3915467
 133.3732812 128.3902598  84.5057833 114.4563408 125.4543659  77.5932119
 115.1434447 125.1405389  77.0053134 114.3011536 126.3585023  77.3199370
 126.3335414 133.7821019  81.2350311 126.2605585 134.5875991  81.7469615
 125.8912807 133.9812985  80.4098332 126.1225194 133.0192789  74.7453132
 125.3392715 133.5614469  74.8391357 126.8217939 133.5366769  75.1447374
 129.4321844 118.8287419  77.3887338 129.9290543 118.0757381  77.0688408
 128.6608825 118.8651735  76.8230547 137.2851601 124.5327784  79.0305629
 137.2741477 125.4152500  78.6599562 136.4168980 124.1799335  78.8360166
 128.7934097 133.6807853  83.3908470 129.5062070 134.3155318  83.3184371
 128.3024126 133.7771719  82.5748471 130.5151624 127.5859106  74.9625761
 129.5807903 127.7060568  74.7930466 130.6928293 126.6831573  74.6985771
 126.0156812 120.9704802  77.1159022 125.6454600 120.4175842  77.8039928
 126.5115905 120.3662935  76.5634022 133.9024176 123.4276425  75.4975795
 134.3684628 124.2604417  75.4236098 134.3531676 122.9621407  76.2021054
 123.8446011 131.4302297  84.2114040 124.5455470 132.0638780  84.3643435
 123.3741126 131.7717028  83.4509680 131.9700407 129.7720246  72.4961947
 132.2460251 129.6576841  73.4055821 131.1004906 129.3737731  72.4574120
 131.8740838 115.7957012  79.5366697 130.9603918 116.0261239  79.7048904
 132.3033940 115.8795456  80.3880729 131.6447297 123.9846904  82.0366591
 130.9918747 124.2322812  81.3819043 132.0227677 123.1711042  81.7029068
 128.6054471 134.0206597  76.1394761 128.7876865 133.2028253  76.6022513
 129.4287457 134.2374290  75.7019651 128.9396636 132.9474782  73.4009809
 129.4684403 132.4367237  72.7879972 129.2024856 132.6317313  74.2655343
 127.6934870 124.7266715  88.5232628 127.0175507 124.6260844  89.1935003
 128.5162504 124.5705929  88.9868625 119.4413729 130.9638652  81.1445143
 120.0267166 130.2182340  81.2773047 119.2438567 131.2742608  82.0281807
 122.2952384 133.9989899  76.1607585 121.6262760 134.4836027  75.6771625
 122.1565254 134.2459120  77.0750964 126.4357653 136.0333643  82.7590244
 126.9875961 136.1965264  83.5239329 126.7763846 136.6238080  82.0870269
 131.2868527 130.8594900  88.6138898 131.8308431 131.4724858  88.1193853
 130.7055372 131.4174479  89.1305911 129.5726040 133.9815618  79.7453926
 129.4477180 133.1805358  79.2364871 130.2305131 134.4761812  79.2567896
 121.1934208 120.3364351  78.9231066 120.4720794 120.9500318  78.7838539
 121.9827464 120.8722115  78.8447712 131.6360948 131.7824638  81.3733476
 130.6891284 131.6629989  81.3011803 131.9843722 130.8947136  81.4559737
 123.9960522 117.6718777  85.1971718 124.5194924 117.9181074  85.9598027
 123.7772855 118.5038812  84.7774855 128.6407382 131.5777354  77.5737828
 128.4932344 130.6494062  77.7545398 129.4660875 131.5997445  77.0894903
 132.2441504 132.4005913  78.6602701 133.1688051 132.1948775  78.5227152
 132.0756807 132.1522314  79.5692042 125.2013067 118.6132472  82.8821388
 124.8609887 117.8140285  83.2842068 124.4952073 118.9134183  82.3098222
 125.8529539 115.6981785  81.3348711 126.6755608 115.2242263  81.2127602
 126.0967602 116.4772268  81.8347398 124.4937773 118.7270043  71.6311613
 125.2146136 119.1051296  71.1275330 123.8703077 119.4458920  71.7346591
 128.6368896 119.4315192  72.5669945 128.8532510 120.3139830  72.2658774
 128.1562963 119.0401405  71.8375587 123.3768117 122.3900905  79.1440690
 123.2312698 122.7041208  80.0364972 122.8993321 123.0085806  78.5911589
 125.2364500 119.3803453  79.1921580 125.2226069 118.4844547  78.8553878
 125.9536928 119.3874117  79.8259866 127.0890631 119.8140793  81.2374707
 126.8308409 120.7357864  81.2359038 126.5575671 119.4171228  81.9275171
 132.0336820 132.9191581  74.0164792 132.2073697 132.3538003  73.2638645
 132.5265711 133.7192476  73.8344282 127.5092587 115.9472744  77.5975870
 127.5314284 116.0112077  76.6427849 127.9260646 115.1077253  77.7916376
 137.8876211 125.6828004  75.6355092 138.3307357 124.9335329  75.2374215
 137.0102721 125.6738140  75.2528824 133.0211992 132.2358345  71.1161691
 133.7162897 132.8565038  71.3349005 133.3635142 131.3853696  71.3914069
 134.9203415 129.6858051  72.6449022 135.4454740 130.0245323  71.9198342
 134.8325768 128.7505066  72.4612156 126.5823464 133.5992124  84.7738898
 126.8910591 133.3541271  85.6461598 127.3798946 133.8038763  84.2857768
 126.6044076 135.7530034  77.0044275 126.1649066 135.2606413  77.6977131
 127.3552193 135.2103001  76.7636350 119.0836415 131.9441575  77.0068903
 119.9094435 131.6445347  76.6267546 118.7330467 131.1749197  77.4558691
 124.0517948 131.2968043  79.0766576 123.4297958 130.6338748  78.7768804
 124.7222815 131.3229175  78.3940224 117.2845020 129.8627901  77.9657836
 116.4476929 129.4350076  77.7841838 117.2568666 130.0560344  78.9028628
 134.6097322 130.3190954  87.9500219 133.8192865 130.3015093  87.4104719
 134.3730676 130.8579248  88.7049256 134.7295197 127.1683421  85.2632948
 134.7793202 127.0033428  86.2048471 134.6209120 126.3010680  84.8730829
 123.6131455 129.8471966  72.5525037 123.7619576 130.5307431  71.8991710
 124.4197899 129.8277056  73.0674493 132.0198959 123.1514349  86.5792255
 132.9208822 123.0120813  86.2876253 132.0946933 123.3168803  87.5190432
 126.3541764 120.5281203  85.4245441 125.4845074 120.8214769  85.1528030
 126.5901245 121.1121648  86.1452705 136.2313393 129.5880362  85.5074970
 135.9398202 129.9510343  86.3438431 135.6185525 128.8747370  85.3288302
 137.4309076 127.1533242  78.0277540 138.2655967 127.5923046  78.1915100
 137.5668205 126.6771895  77.2085786 134.4800582 124.7112977  83.9755028
 134.9554703 124.9040623  83.1673879 133.5566147 124.7672163  83.7298411
 121.3684088 125.8737144  73.5586106 121.1230130 124.9699474  73.7566316
 121.5380003 125.8754294  72.6165584 129.0580798 116.7460820  82.9410861
 129.5762742 117.4821847  82.6157350 128.7035931 117.0524814  83.7757621
 129.3093392 113.1661103  78.4611758 129.5895146 112.4984292  79.0872185
 130.0943999 113.3590198  77.9486422 127.1126861 132.3420097  70.0236784
 126.5400828 132.9610284  69.5707256 127.6859654 132.8919458  70.5576706
 133.1802251 121.5878737  82.2083333 134.1319674 121.6876834  82.2295557
 133.0105701 120.7957005  82.7181418 131.2016630 118.6734320  82.3942734
 130.6066562 118.9539333  81.6989223 130.9166327 119.1628221  83.1659475
 130.3324121 132.6257247  71.1545367 131.2654794 132.5602809  71.3578242
 130.2447333 133.4613514  70.6959899 132.9612137 131.9423117  68.1149314
 132.8825769 131.6082981  69.0085072 133.7821804 132.4344885  68.1140787
 135.6590328 124.8084856  81.3225633 135.6266649 123.8700857  81.5085317
 136.2690952 124.8868893  80.5891458 127.4973659 123.6780909  67.3652837
 128.4432764 123.5487118  67.4341255 127.1187904 122.9395571  67.8422265
 135.8084817 121.5995900  81.3683916 135.2923866 120.8154357  81.1813845
 136.6924765 121.2714617  81.5330435 133.4695544 115.3436915  77.3279729
 133.2720365 115.0352004  78.2123061 134.0795249 116.0698554  77.4577659
 141.4766878 125.8700863  80.4631670 142.2070267 125.6086151  81.0239373
 140.8673824 125.1329585  80.5033738 139.5582175 124.0108726  81.0606121
 138.8315339 123.8764691  80.4522612 139.1429462 124.3185555  81.8662839
 127.3812352 127.7298656  88.8253494 128.3015361 127.9077255  89.0193540
 127.3461935 126.7854701  88.6733193 125.6816576 121.6030886  67.3007722
 124.7748032 121.3063999  67.3770436 125.9592557 121.3060704  66.4342008
 120.3774424 125.6399690  81.4676275 120.5960434 126.5716798  81.4864309
 120.7900198 125.2807665  82.2531079 127.2978642 116.1467776  73.4551963
 126.4879370 115.8014861  73.8307209 127.9863059 115.8375319  74.0439575
 129.2269190 115.2245822  75.0776260 129.7800229 115.6441276  75.7366283
 129.4639277 114.2981570  75.1199216 125.2502290 121.2132896  90.8579024
 125.1499017 122.1627253  90.7891115 125.0323832 120.8851135  89.9855094
 124.4515361 118.4617821  67.4419701 125.3134525 118.7872719  67.7015519
 124.6365705 117.6749317  66.9292767 116.4682777 126.5440161  79.7199890
 115.7746248 126.1294114  79.2069844 117.2155768 126.5860697  79.1233309
 132.6047998 117.3346348  74.5854924 132.0246667 117.9931152  74.2032977
 132.3383930 116.5123692  74.1742342 131.0551564 116.7351405  76.7876245
 131.5551342 116.8467940  75.9790563 131.6987172 116.4312458  77.4277053
 125.1133560 124.6430035  89.6744086 124.6300641 125.4430395  89.8807975
 125.1994499 124.6537980  88.7211530 118.3819519 126.4758415  77.5965905
 118.3590207 126.5746102  76.6447788 118.6920156 127.3223565  77.9183071
 121.0406897 128.5334570  81.7112519 121.9950151 128.5018512  81.6442451
 120.8419421 128.0725193  82.5262745 121.6306279 127.1035686  84.2783317
 122.4499168 127.5979764  84.3018154 121.9043087 126.1867654  84.2500885
 131.3872876 119.4946438  73.6411273 130.4998731 119.7796089  73.4231467
 131.8026865 119.3340201  72.7938549 134.7387412 119.5192959  77.3565612
 135.5147802 120.0089411  77.6290229 134.0135546 119.9451013  77.8137481
 137.1759970 120.2320578  78.4139552 137.7704461 119.9916314  77.7032861
 137.2486554 119.5127709  79.0413089 119.3957126 134.0754189  78.7282717
 119.2611594 133.3154590  78.1620715 118.9789188 134.7995089  78.2611506
 130.5316089 129.2591113  67.7359292 131.2351939 129.4641115  68.3516948
 129.8078738 129.8267874  68.0008376 131.3613899 125.0100974  73.8561563
 131.3049101 125.4669525  73.0169195 131.9142242 124.2491658  73.6784405
 135.1718705 120.7990706  74.6811682 134.9155639 120.3987341  75.5119890
 134.5471573 121.5134500  74.5561821 139.4831043 123.5386779  77.1882974
 138.9230601 123.6079968  77.9614536 138.8774546 123.3627764  76.4682470
 122.5526252 134.9723506  78.9401160 122.4358636 135.9168939  78.8379850
 121.7318698 134.6697068  79.3286959 132.4402786 129.6973642  69.7857753
 133.2748390 129.2654840  69.6035227 132.2787129 129.5255655  70.7134647
 132.0948679 126.2005755  71.1514092 132.0397482 126.0350027  70.2102536
 131.4694734 126.9081788  71.3076282 129.4094586 128.5054667  90.4767655
 130.2785745 128.6795319  90.1154290 128.9301337 129.3249084  90.3543384
 125.4044804 115.7013864  70.7299410 125.3923474 116.6455704  70.8867681
 126.2968226 115.5184010  70.4358871 123.5780766 135.6251768  82.1557088
 124.4808013 135.6575378  82.4723583 123.3518136 134.6952219  82.1703424
 125.3334368 134.3782755  78.8167167 124.3829999 134.3784616  78.7031539
 125.6366854 133.6315489  78.3003202 129.2196924 112.2956641  74.9845347
 128.4529319 111.7415127  75.1302029 129.6307628 112.3678509  75.8459499
 141.0687062 140.2143293  79.8812929 141.7065471 140.0950040  79.1776269
 140.9507904 141.1624137  79.9400881 137.8776768 140.1670721  79.8174454
 137.5395279 140.0511786  78.9294989 138.7466536 139.7661886  79.7975460
 133.7363583 142.0206197  75.8071345 133.1728449 141.9296134  75.0387633
 133.6215979 141.2006102  76.2873837 138.3596551 141.3205573  85.7760660
 138.3485192 140.9258371  84.9041163 138.5217190 140.5871645  86.3694431
 131.2828015 143.5157389  78.6455565 132.0749307 143.1748214  78.2301865
 131.5224666 143.6252364  79.5657719 133.2418769 142.7766302  71.5172944
 134.0149645 142.2295289  71.3785820 133.5944168 143.6410552  71.7287406
 135.0803812 144.1042685  84.7239843 134.7893678 145.0088315  84.6086510
 135.7160796 144.1459212  85.4383913 136.0060019 141.4819533  81.3141203
 136.6023591 141.2575555  80.5998166 136.0634990 140.7404279  81.9166651
 135.5785047 138.9358968  69.1491394 135.8310568 138.4140490  68.3874857
 134.6409606 138.7725114  69.2518078 140.6228330 137.9394747  76.9566137
 141.4091419 137.5214170  76.6056554 140.8867034 138.8440839  77.1247786
 140.7938407 143.3767597  71.6554794 140.1584240 143.4502224  72.3675699
 140.4635814 143.9661196  70.9773873 146.0236757 137.8769980  77.8599116
 146.7561929 137.3069197  78.0936945 145.2676113 137.4891580  78.3005621
 135.2981336 140.8387074  71.3515769 135.1817594 140.1631978  72.0196853
 135.4083596 140.3519448  70.5347922 137.6412877 140.2997221  75.0562458
 137.2771084 139.7727842  75.7675380 138.4979993 139.9095690  74.8828944
 143.5462177 131.5891554  82.3193724 143.2145502 132.4586965  82.0954939
 142.9507791 131.2727838  82.9987755 137.2818364 135.3287121  70.0523807
 137.4492766 136.1967358  70.4194278 137.0915533 135.4914403  69.1285096
 140.0393697 143.7904100  81.7189637 139.7394420 144.6929139  81.6105444
 139.6944757 143.5236283  82.5710790 133.4906178 140.2417897  77.7526342
 132.5656675 140.1094111  77.9604033 133.7390592 141.0212116  78.2496284
 143.4390841 136.3086640  79.3987074 142.5307718 136.2402049  79.1045835
 143.3878437 136.7858585  80.2268900 137.2607585 137.7844779  71.0370474
 137.1407210 138.2301829  71.8755954 136.5660173 138.1330096  70.4784012
 130.8514990 139.8851170  78.5870131 130.9807371 140.1385649  79.5009542
 130.1712441 140.4778878  78.2674786 137.5131707 137.7276286  87.3421972
 136.7365041 138.2870206  87.3324836 138.1522270 138.2133069  87.8636842
 145.3052487 134.5103079  81.1764948 144.6626867 134.8035612  80.5304743
 144.8007416 134.3955999  81.9818145 142.9592651 138.2566252  71.8650808
 143.8710507 138.4893639  71.6898505 142.4502298 138.8403296  71.3025886
 135.7678079 140.5361739  86.9039939 136.5092763 141.0746783  86.6274762
 135.0615064 141.1628028  87.0611491 141.2433419 142.6790880  85.5012100
 141.6516775 142.2373290  84.7566733 140.5210680 142.1043507  85.7546293
 137.5964489 137.6163486  82.8745657 138.4425684 138.0402900  83.0180306
 137.5363126 136.9597111  83.5684220 141.5662233 143.2392070  79.2564389
 140.9371096 143.4037784  78.5540457 141.1787895 143.6533680  80.0275353
 140.7463934 135.2767855  84.5326831 140.5024866 136.0309915  83.9961107
 141.0223864 135.6553202  85.3674078 142.7002397 141.8206467  83.2104096
 142.9119292 142.4638227  82.5338478 142.6532145 140.9868784  82.7426027
 140.3028626 134.4324288  80.1140669 139.4413105 134.7305541  80.4057406
 140.3291060 134.6494687  79.1821701 137.1190195 142.9766478  76.5214474
 137.5828541 143.2554181  75.7319097 136.8546993 142.0749923  76.3387565
 134.0114276 142.5237960  79.4594237 134.5815633 142.9525228  78.8211722
 134.6022388 142.2420545  80.1578423 136.0559081 139.0989631  73.3304039
 136.7583124 139.5510674  73.7977966 135.7239710 138.4573450  73.9583933
 134.5039443 137.6901387  87.7055249 133.8738103 138.3717668  87.9390646
 134.3975531 137.5784469  86.7608387 129.7984415 137.3573183  78.6321173
 129.0083469 137.6130712  78.1561284 130.2895662 138.1721521  78.7373213
 131.7499160 137.7217763  75.5904650 130.9530324 137.8336457  76.1088145
 131.5224753 138.0604415  74.7245540 137.5804828 144.2462466  83.5387164
 137.6449261 144.7082873  84.3745336 136.8715752 143.6159831  83.6669474
 128.0822118 137.6103674  81.0636164 128.3330156 138.4950684  81.3293740
 128.6181666 137.4308275  80.2911256 137.2952846 145.9130573  73.4066145
 137.1598521 146.7582109  73.8350992 137.8362658 146.1149851  72.6432078
 133.7820185 131.9922153  90.0680500 133.3887131 131.4388352  90.7428144
 134.5986326 132.3032732  90.4587017 130.7482243 143.4306011  73.9794070
 131.2606764 144.2249262  74.1299634 131.4004956 142.7332302  73.9127671
 132.5577128 146.5471768  76.0616823 132.7343756 147.4689732  75.8737807
 133.3533961 146.2330187  76.4911203 136.6988146 133.4080032  87.6600756
 137.4397860 134.0087185  87.5805219 136.9306069 132.6657670  87.1018799
 131.8429484 138.5936400  85.9378986 131.7283000 137.6921657  86.2386085
 130.9874002 138.8400096  85.5863803 133.6808443 148.0649941  82.0627165
 134.2315868 147.9367005  81.2904159 132.8419919 148.3644830  81.7122058
 137.4775614 144.3301069  86.4071396 138.0103951 143.5689357  86.1770704
 136.9489695 144.0374721  87.1495551 140.6445309 129.4361135  81.9365038
 140.3009579 130.3262777  81.8604149 141.0124272 129.2462793  81.0734623
 128.7131160 141.7594666  74.7553640 129.5506382 142.1691674  74.5387348
 128.8909428 140.8194108  74.7253834 140.6095592 139.4269746  70.4437473
 140.0942215 140.1974351  70.6825861 140.3372900 138.7534882  71.0670535
 138.1942703 134.2719447  75.5022712 137.3384299 133.8826298  75.3228350
 138.6069655 134.3511408  74.6422497 139.7241850 131.8065790  79.9014271
 139.2206645 131.7695926  79.0882077 140.0172457 132.7158533  79.9610928
 135.9684736 131.8904520  78.9080453 136.8337732 131.6947329  78.5486343
 136.0362244 131.6614872  79.8349810 140.3981895 137.2996838  72.2697254
 140.0932031 137.6142988  73.1207398 141.3512337 137.3778258  72.3124587
 138.8428327 143.4587062  73.9190208 138.3149689 142.7239821  73.6063446
 138.3415830 144.2361738  73.6730177 143.8221173 141.6536082  79.0357255
 143.1644847 142.3435344  79.1237383 144.6261572 142.0432514  79.3791241
 133.5747055 134.1206728  76.2796820 134.1490807 133.8981910  75.5470013
 134.1618037 134.1895423  77.0325421 142.6326632 140.0080455  77.0861196
 143.1458514 140.6410447  77.5882906 143.2827856 139.4081650  76.7204556
 133.9016642 136.1511189  70.2992705 133.0653954 136.4885876  70.6201980
 133.7621411 136.0160169  69.3619842 135.8769722 130.9947977  75.0071889
 135.2234135 130.6796994  74.3828504 135.8350197 130.3723717  75.7331712
 136.9880927 141.2767272  66.9225181 136.0807989 141.0456525  67.1216330
 137.4851959 140.4804891  67.1099163 139.1107463 137.4829910  79.3319537
 138.1930024 137.7044857  79.1741225 139.5267606 137.5576221  78.4731244
 139.8942510 138.8821326  74.4622217 140.6414329 139.3942723  74.1529339
 140.1634100 138.5605379  75.3226611 138.1669161 141.3779867  71.4449171
 137.2580380 141.0938900  71.5421641 138.1964244 141.7978945  70.5852478
 142.3421348 135.9178442  76.4441006 141.6044104 135.4055829  76.7751249
 142.5948121 135.4778824  75.6324283 142.4432975 128.6954694  77.0382776
 142.7491852 127.8352058  76.7508691 143.1685580 129.2872315  76.8381770
 128.7357331 139.0985381  75.4264374 128.5381731 138.5054742  74.7015440
 128.1803995 138.7937591  76.1440312 136.7154055 138.9908487  77.5458967
 136.7702664 138.0382324  77.4701443 135.9045257 139.1467927  78.0300265
 137.8645248 142.9188611  68.7837250 137.4264678 142.2024469  68.3242887
 138.6055689 143.1464725  68.2222341 134.6546415 137.6085547  75.3049346
 133.8414280 137.9079718  75.7114538 135.1505409 137.2141236  76.0223828
 136.8054993 147.6043304  77.2383610 136.7631171 147.8304150  76.3092142
 137.7217691 147.3706679  77.3869412 140.2520626 138.0727372  84.1364240
 140.6070014 138.2998845  84.9958705 140.8992758 138.4045748  83.5141495
 145.9818363 141.1945808  74.8413569 145.8436262 141.3847404  73.9134758
 145.6254582 141.9565190  75.2981620 134.1460489 135.1803903  80.9210581
 134.7859869 135.0392662  80.2233544 133.3138020 134.8938416  80.5449183
 134.9220793 144.4806333  77.0345573 135.7161392 143.9856653  76.8328148
 134.2112486 143.9524196  76.6713279 131.2303557 138.6249415  73.1105326
 130.3001145 138.5633870  73.3275288 131.3261029 138.1025368  72.3141967
 131.1489106 135.1504228  75.6983567 131.4095923 136.0649561  75.5892728
 131.9706278 134.6828670  75.8480180 132.6214031 136.5641985  82.8682392
 133.2937085 136.3559347  82.2195041 131.7943818 136.3664071  82.4287624
 138.5239603 133.1903926  84.8848053 137.8767518 133.8893875  84.7912529
 139.2940619 133.6240070  85.2524301 141.9318401 143.4552778  87.9598606
 141.7803907 143.2263330  87.0428690 141.9223081 144.4123379  87.9729951
 138.7003737 141.0284691  82.9444873 139.6295797 141.1795850  82.7713840
 138.2794768 141.1168712  82.0893519 137.4992069 145.0535355  80.7143410
 137.3603155 144.6854140  81.5869348 136.7106666 145.5682995  80.5427368
 139.0497284 144.4316958  78.1032248 138.7147117 144.3917728  78.9989898
 138.5501230 143.7661674  77.6302658 133.0241528 139.8384588  83.6284829
 132.8861326 139.1064827  84.2296368 133.9346452 139.7493488  83.3469017
 141.9856476 141.7772992  68.3769308 141.3685647 141.0519820  68.2802360
 141.5172965 142.5382352  68.0336382 135.6523829 139.5504547  83.1168509
 136.3623448 138.9097739  83.0755127 135.6093137 139.8017442  84.0394690
 134.3652763 136.5369765  84.9364148 133.8290120 136.0860504  85.5885745
 133.7769471 136.6715674  84.1934613 133.7755022 135.9958417  67.4990612
 132.8984488 135.8747217  67.1352859 134.2512775 135.2044495  67.2469501
 125.2957162 140.7835576  77.5932119 125.9828202 140.4697306  77.0053134
 125.1405291 141.6876941  77.3199370 130.0991884 135.6725773  82.0217143
 130.0150073 135.0651442  81.2867553 129.2774591 136.1634791  82.0226639
 140.2715598 134.1579336  77.3887338 140.7684298 133.4049299  77.0688408
 139.5002580 134.1943653  76.8230547 141.3545379 142.9151024  74.9625761
 140.4201658 143.0352486  74.7930466 141.5322047 142.0123490  74.6985771
 136.8550567 136.2996719  77.1159022 136.4848354 135.7467760  77.8039928
 137.3509659 135.6954853  76.5634022 144.7417930 138.7568343  75.4975795
 145.2078382 139.5896334  75.4236098 145.1925431 138.2913324  76.2021054
 134.6839765 146.7594214  84.2114040 135.3849225 147.3930697  84.3643435
 134.2134880 147.1008946  83.4509680 142.7134593 131.1248930  79.5366697
 141.7997673 131.3553157  79.7048904 143.1427694 131.2087374  80.3880729
 142.4841051 139.3138822  82.0366591 141.8312502 139.5614729  81.3819043
 142.8621431 138.5002960  81.7029068 138.5328624 140.0558633  88.5232628
 137.8569261 139.9552762  89.1935003 139.3556258 139.8997847  88.9868625
 130.2807484 146.2930569  81.1445143 130.8660920 145.5474257  81.2773047
 130.0832322 146.6034526  82.0281807 133.1346139 149.3281817  76.1607585
 132.4656514 149.8127944  75.6771625 132.9959008 149.5751037  77.0750964
 124.8725138 138.8636170  79.8649586 124.9109238 138.3299760  80.6586704
 124.3665431 138.3371375  79.2460563 132.2515901 133.7100710  83.3612128
 132.3157227 134.5715541  82.9489526 132.1883021 133.0974712  82.6284487
 131.7268173 135.7823843  87.0085163 132.3540212 135.4000920  87.6222687
 130.8696092 135.5638045  87.3740855 128.5033716 137.5900272  72.9403518
 128.7987157 136.6810950  72.8870571 127.6021752 137.5688011  72.6184520
 132.0327963 135.6656268  78.9231066 131.3114549 136.2792236  78.7838539
 132.8221219 136.2014033  78.8447712 134.8354276 133.0010695  85.1971718
 135.3588678 133.2472991  85.9598027 134.6166610 133.8330730  84.7774855
 130.2321557 135.2714369  73.0642843 129.9034264 134.3911748  72.8817949
 130.5860928 135.2162038  73.9519232 133.3463381 135.5587339  73.4318320
 133.6859453 136.0873260  72.7096929 133.7935501 135.8967745  74.2076887
 136.0406821 133.9424390  82.8821388 135.7003642 133.1432203  83.2842068
 135.3345828 134.2426101  82.3098222 136.6923293 131.0273702  81.3348711
 137.5149363 130.5534181  81.2127602 136.9361357 131.8064186  81.8347398
 135.3331528 134.0561961  71.6311613 136.0539890 134.4343214  71.1275330
 134.7096832 134.7750838  71.7346591 139.4762651 134.7607110  72.5669945
 139.6926265 135.6431748  72.2658774 138.9956718 134.3693323  71.8375587
 134.2161872 137.7192823  79.1440690 134.0706453 138.0333126  80.0364972
 133.7387076 138.3377723  78.5911589 136.0758255 134.7095371  79.1921580
 136.0619824 133.8136464  78.8553878 136.7930683 134.7166035  79.8259866
 137.9284386 135.1432711  81.2374707 137.6702163 136.0649782  81.2359038
 137.3969426 134.7463146  81.9275171 128.6907534 140.2598167  82.0828351
 128.1461002 141.0357975  82.2148626 129.5686884 140.6068972  81.9247473
 135.4795151 133.5909751  74.4609150 135.6011062 132.6626397  74.6600037
 135.1897193 133.6048437  73.5487465 138.3486341 131.2764662  77.5975870
 138.3708038 131.3403995  76.6427849 138.7654400 130.4369170  77.7916376
 129.4773556 139.3868064  84.9758508 128.7355292 139.5350699  85.5623139
 129.1566300 139.6476329  84.1125258 129.9230170 147.2733492  77.0068903
 130.7488190 146.9737264  76.6267546 129.5724222 146.5041115  77.4558691
 134.8911703 146.6259961  79.0766576 134.2691712 145.9630666  78.7768804
 135.5616570 146.6521092  78.3940224 128.1238775 145.1919819  77.9657836
 127.2870683 144.7641993  77.7841838 128.0962420 145.3852262  78.9028628
 134.9636230 135.1041749  88.6699082 135.0124386 135.9803871  88.2876852
 135.5058745 134.5619142  88.0970726 134.4525210 145.1763884  72.5525037
 134.6013330 145.8599348  71.8991710 135.2591653 145.1568974  73.0674493
 142.8592713 138.4806266  86.5792255 143.7602576 138.3412731  86.2876253
 142.9340688 138.6460721  87.5190432 137.1935519 135.8573121  85.4245441
 136.3238828 136.1506687  85.1528030 137.4294999 136.4413566  86.1452705
 145.3194336 140.0404894  83.9755028 145.7948458 140.2332541  83.1673879
 144.3959902 140.0964080  83.7298411 132.2077843 141.2029062  73.5586106
 131.9623885 140.2991392  73.7566316 132.3773757 141.2046212  72.6165584
 139.8974553 132.0752738  82.9410861 140.4156496 132.8113765  82.6157350
 139.5429685 132.3816731  83.7757621 131.4773490 136.9357419  71.0572267
 130.7842735 137.0101774  70.4012303 131.2325242 136.1717763  71.5793784
 140.1487147 128.4953020  78.4611758 140.4288901 127.8276210  79.0872185
 140.9337754 128.6882116  77.9486422 144.0196005 136.9170654  82.2083333
 144.9713428 137.0168752  82.2295557 143.8499456 136.1248923  82.7181418
 142.0410385 134.0026238  82.3942734 141.4460317 134.2831250  81.6989223
 141.7560081 134.4920139  83.1659475 146.4984083 140.1376774  81.3225633
 146.4660403 139.1992775  81.5085317 147.1084707 140.2160811  80.5891458
 138.3367414 139.0072827  67.3652837 139.2826519 138.8779035  67.4341255
 137.9581659 138.2687489  67.8422265 146.6478571 136.9287818  81.3683916
 146.1317620 136.1446274  81.1813845 147.5318520 136.6006534  81.5330435
 144.3089298 130.6728833  77.3279729 144.1114119 130.3643921  78.2123061
 144.9189004 131.3990472  77.4577659 138.2206106 143.0590573  88.8253494
 139.1409116 143.2369172  89.0193540 138.1855689 142.1146619  88.6733193
 136.5210331 136.9322804  67.3007722 135.6141786 136.6355916  67.3770436
 136.7986312 136.6352622  66.4342008 127.4388271 138.2529167  77.7506768
 127.1191056 137.3994475  77.4581142 126.8921699 138.4677745  78.5064736
 131.2168179 140.9691608  81.4676275 131.4354189 141.9008716  81.4864309
 131.6293953 140.6099582  82.2531079 138.1372397 131.4759693  73.4551963
 137.3273125 131.1306778  73.8307209 138.8256814 131.1667237  74.0439575
 140.0662945 130.5537740  75.0776260 140.6193984 130.9733193  75.7366283
 140.3033031 129.6273488  75.1199216 136.0896044 136.5424814  90.8579024
 135.9892771 137.4919171  90.7891115 135.8717586 136.2143053  89.9855094
 135.2909116 133.7909739  67.4419701 136.1528280 134.1164637  67.7015519
 135.4759460 133.0041235  66.9292767 127.3076531 141.8732078  79.7199890
 126.6140003 141.4586031  79.2069844 128.0549522 141.9152615  79.1233309
 143.4441752 132.6638265  74.5854924 142.8640421 133.3223069  74.2032977
 143.1777685 131.8415610  74.1742342 141.8945318 132.0643323  76.7876245
 142.3945097 132.1759857  75.9790563 142.5380926 131.7604376  77.4277053
 135.9527314 139.9721953  89.6744086 135.4694396 140.7722313  89.8807975
 136.0388253 139.9829897  88.7211530 129.2213274 141.8050332  77.5965905
 129.1983962 141.9038019  76.6447788 129.5313910 142.6515483  77.9183071
 131.8800652 143.8626487  81.7112519 132.8343905 143.8310430  81.6442451
 131.6813175 143.4017111  82.5262745 132.4700034 142.4327603  84.2783317
 133.2892923 142.9271682  84.3018154 132.7436842 141.5159571  84.2500885
 142.2266630 134.8238356  73.6411273 141.3392485 135.1088006  73.4231467
 142.6420619 134.6632119  72.7938549 145.5781166 134.8484877  77.3565612
 146.3541556 135.3381329  77.6290229 144.8529300 135.2742931  77.8137481
 148.0153725 135.5612496  78.4139552 148.6098216 135.3208232  77.7032861
 148.0880309 134.8419626  79.0413089 130.2350881 149.4046107  78.7282717
 130.1005348 148.6446508  78.1620715 129.8182943 150.1287007  78.2611506
 142.2007654 140.3392892  73.8561563 142.1442855 140.7961443  73.0169195
 142.7535996 139.5783576  73.6784405 146.0112460 136.1282623  74.6811682
 145.7549394 135.7279259  75.5119890 145.3865328 136.8426417  74.5561821
 142.9342433 141.5297673  71.1514092 142.8791237 141.3641944  70.2102536
 142.3088488 142.2373706  71.3076282 127.7234948 136.7665737  84.9775514
 128.3693812 136.2564691  85.4662739 127.5152099 137.5034419  85.5518939
 140.2488340 143.8346585  90.4767655 141.1179500 144.0087237  90.1154290
 139.7695092 144.6541001  90.3543384 136.2438559 131.0305782  70.7299410
 136.2317228 131.9747622  70.8867681 137.1361980 130.8475927  70.4358871
 140.0590678 127.6248558  74.9845347 139.2923074 127.0707045  75.1302029
 140.4701383 127.6970427  75.8459499 132.0632439 133.9133354  89.0750528
 132.9263901 133.5570159  89.2853853 131.4897850 133.5747249  89.7625933
  54.3537027  -5.4129926  66.6058236  54.9915437  -5.5323179  65.9021576
  54.2357870  -4.4649082  66.6646188  51.1626733  -5.4602498  66.5419761
  50.8245245  -5.5761433  65.6540295  52.0316501  -5.8611333  66.5220767
  47.0213549  -3.6067021  62.5316652  46.4578414  -3.6977084  61.7632939
  46.9065944  -4.4267117  63.0119144  51.6446516  -4.3067646  72.5005966
  51.6335157  -4.7014848  71.6286470  51.8067156  -5.0401573  73.0939738
  44.5677981  -2.1115830  65.3700872  45.3599273  -2.4525005  64.9547171
  44.8074631  -2.0020855  66.2903025  52.6013108   0.0603946  57.8431116
  51.9501087   0.6458027  57.4565130  53.3957470   0.5910141  57.9026154
  46.5268735  -2.8506917  58.2418251  47.2999611  -3.3977929  58.1031127
  46.8794134  -1.9862667  58.4532712  48.3653777  -1.5230534  71.4485150
  48.0743643  -0.6184903  71.3331816  49.0010762  -1.4814007  72.1629220
  49.2909984  -4.1453686  68.0386510  49.8873556  -4.3697663  67.3243473
  49.3484956  -4.8868940  68.6411958  48.8635013  -6.6914250  55.8736701
  49.1160533  -7.2132729  55.1120164  47.9259572  -6.8548105  55.9763384
  53.9078295  -7.6878472  63.6811444  54.6941385  -8.1059049  63.3301861
  54.1717000  -6.7832380  63.8493092  54.0788373  -2.2505622  58.3800101
  53.4434206  -2.1770995  59.0921005  53.7485779  -1.6612023  57.7019180
  59.3086722  -7.7503239  64.5844422  60.0411894  -8.3204022  64.8182252
  58.5526078  -8.1381638  65.0250928  48.5831301  -4.7886144  58.0761076
  48.4667559  -5.4641241  58.7442160  48.6933561  -5.2753771  57.2593229
  50.9262842  -5.3275997  61.7807765  50.5621049  -5.8545376  62.4920686
  51.7829958  -5.7177528  61.6074250  50.5668329 -10.2986098  56.7769113
  50.7342732  -9.4305861  57.1439585  50.3765498 -10.1358816  55.8530403
  53.3243662  -1.8369119  68.4434944  53.0244385  -0.9344080  68.3350751
  52.9794722  -2.1036936  69.2956097  46.7756144  -5.3855322  64.4771648
  45.8506640  -5.5179108  64.6849340  47.0240557  -4.6061103  64.9741591
  56.7240806  -9.3186579  66.1232381  55.8157683  -9.3871170  65.8291142
  56.6728402  -8.8414634  66.9514207  50.5457550  -7.8428440  57.7615780
  50.4257175  -7.3971389  58.6001261  49.8510138  -7.4943123  57.2029318
  44.1364955  -5.7422048  65.3115437  44.2657336  -5.4887569  66.2254849
  43.4562406  -5.1494340  64.9920092  48.3064442   4.9275202  61.4105912
  48.2288472   5.8783027  61.4894392  47.7026086   4.5821074  62.0680838
  50.7981672  -7.8996933  74.0667278  50.0215006  -7.3403013  74.0570143
  51.4372235  -7.4140150  74.5882149  56.2442616  -7.3706967  58.5896114
  57.1560472  -7.1379580  58.4143812  55.7352263  -6.7869923  58.0271193
  49.0528044  -5.0911480  73.6285245  49.7942729  -4.5526436  73.3520069
  48.3465030  -4.4645191  73.7856797  54.5283384  -2.9482339  72.2257407
  54.9366740  -3.3899929  71.4812039  53.8060645  -3.5229712  72.4791600
  50.8814454  -8.0109732  69.5990964  51.7275649  -7.5870319  69.7425613
  50.8213092  -8.6676108  70.2929527  54.8512199  -2.3881149  65.9809696
  54.2221061  -2.2235434  65.2785764  54.4637861  -1.9739539  66.7520660
  58.7301430  -1.4526711  63.3354060  58.0452469  -1.0727809  62.7851093
  58.8145280  -0.8431384  64.0686007  54.0313899 -10.3505364  71.2572137
  53.7874831  -9.5963304  70.7206413  54.3073830  -9.9720016  72.0919385
  55.9852362  -3.8066752  69.9349403  56.1969257  -3.1634992  69.2583784
  55.9382110  -4.6404435  69.4671333  53.5878591 -11.1948931  66.8385975
  52.7263070 -10.8967677  67.1302713  53.6141026 -10.9778532  65.9067008
  50.4040160  -2.6506740  63.2459781  50.8678506  -2.3719037  62.4564403
  50.1396959  -3.5523296  63.0632872  47.2964241  -3.1035259  66.1839544
  47.8665599  -2.6747991  65.5457029  47.8872353  -3.3852674  66.8823730
  49.3409046  -6.5283588  60.0549346  50.0433090  -6.0762544  60.5223272
  49.0089675  -7.1699769  60.6829239  47.7889408  -7.9371831  74.4300555
  47.1588069  -7.2555551  74.6635952  47.6825496  -8.0488750  73.4853694
  57.0998190  -0.9294796  68.1071760  57.9215634  -1.3314609  67.8254442
  57.0960593  -1.0326562  69.0587876  50.8654793  -1.3810753  70.2632471
  50.9299226  -0.9190346  71.0990643  50.1565717  -2.0113388  70.3914781
  65.1904183  -4.5856048  64.4556732  64.4367891  -5.1548650  64.3000736
  65.3251724  -4.6193383  65.4027367  50.5802811   0.2857355  60.1311451
  50.4448486   1.1308890  60.5596299  51.1212624   0.4876632  59.3677385
  44.0332208  -2.1967207  60.7039376  44.5456729  -1.4023957  60.8544941
  44.6854921  -2.8940917  60.6372978  45.8427093   0.9198549  62.7862130
  46.0193722   1.8416514  62.5983113  46.6383927   0.6056968  63.2156509
  52.2071287   0.9080921  74.2611793  51.7635142   0.1217300  73.9432698
  52.8688501   1.0960072  73.5955684  46.9658409   2.4376723  68.7872472
  47.5165834   2.3093786  68.0149466  46.1269885   2.7371612  68.4367365
  54.3052526   1.1883721  72.2893195  54.2871001   2.0092602  71.7973464
  55.2272446   1.0637796  72.5143336  50.7625580  -1.2972150  73.1316703
  51.2953916  -2.0583861  72.9016011  50.2339661  -1.5898498  73.8740857
  41.9981125  -3.8678553  61.4798947  42.8356347  -3.4581545  61.2632655
  42.1759393  -4.8079111  61.4499141  53.8945557  -6.2003472  57.1682780
  53.3792181  -5.4298868  57.4071167  53.6222866  -6.8738336  57.7915841
  51.4792668 -11.3553772  62.2268018  50.6234265 -11.7446921  62.0473657
  51.8919620 -11.2761811  61.3667804  58.8679831  -3.4471118  59.1035953
  58.0909274  -3.7859958  58.6591115  59.5471312  -3.4418495  58.4290918
  53.6831861  -8.3276380  58.9942561  53.3781996  -8.0130231  59.8452704
  54.6362303  -8.2494960  59.0369894  52.1278292  -2.1686157  60.6435515
  51.5999654  -2.9033397  60.3308752  51.6265795  -1.3911481  60.3975483
  57.1071138  -3.9737137  65.7602561  56.4494813  -3.2837875  65.8482690
  57.9111538  -3.5840705  66.1036548  55.9176597  -5.6192764  63.8106503
  56.4308479  -4.9862772  64.3128213  56.5677821  -6.2191568  63.4449863
  50.2730893  -4.3505947  53.6470488  49.3657954  -4.5816693  53.8461637
  50.7701925  -5.1468328  53.8344470  53.1798971   4.3591560  56.5667174
  52.5060670   4.6623257  57.1752132  53.5664793   5.1620641  56.2172631
  52.3957428  -8.1443308  66.0564844  51.4779989  -7.9228361  65.8986532
  52.8117572  -8.0696998  65.1976551  53.1792476  -6.7451893  61.1867524
  53.9264295  -6.2330495  60.8774646  53.4484065  -7.0667840  62.0471917
  51.4519126  -4.2493352  58.1694478  50.5430345  -4.5334319  58.2666948
  51.4814210  -3.8294273  57.3097785  56.6838393  -0.6386762  61.9385646
  56.2300721  -1.4795853  61.9950836  56.0532360  -0.0025364  62.2760426
  55.6271313  -9.7094776  63.1686313  54.8894070 -10.2217390  63.4996556
  55.8798087 -10.1494395  62.3569590  55.1271333   1.1989734  62.8735464
  55.4194307   1.7594791  62.1547829  55.6369953   1.4918295  63.6288623
  50.0004020  -6.6364731  64.2704273  50.0552630  -7.5890895  64.1946750
  49.1895222  -6.4805292  64.7545572  51.1495214  -2.7084608  55.5082557
  50.7114644  -3.4248749  55.0488194  51.8905655  -2.4808493  54.9467648
  47.9396380  -8.0187672  62.0294652  47.1264245  -7.7193501  62.4359844
  48.4355374  -8.4131983  62.7469135  50.0904958   1.9770085  63.9628917
  50.0481137   2.2030932  63.0337449  51.0067657   1.7433460  64.1114718
  53.5370592  -7.5545847  70.8609546  53.8919979  -7.3274374  71.7204012
  54.1842723  -7.2227470  70.2386802  59.2668329  -4.4327411  61.5658875
  59.1286227  -4.2425815  60.6380064  58.9104547  -3.6708028  62.0226926
  59.2937708  -2.3650884  66.5770147  59.7274215  -2.4575595  67.4253201
  60.0069289  -2.3893384  65.9390163  48.2070759  -1.1466886  63.7590880
  49.0011357  -1.6416566  63.5573455  47.4962451  -1.6749023  63.3958585
  53.0265603   1.2351210  68.1103247  53.0802625   1.8042146  68.8780963
  52.1580384   1.4053095  67.7457284  60.1553258  -2.3227184  69.1103032
  60.3489148  -1.4181373  69.3562307  60.0553876  -2.7819764  69.9441617
  51.8089568 -12.4369293  71.6093359  51.1617484 -11.7379343  71.5157836
  52.5790584 -12.0033149  71.9769608  55.2168366  -2.1720441  74.6843913
  55.0653873  -2.4009889  73.7673996  55.2073046  -1.2149839  74.6975258
  51.9853703  -4.5988528  69.6690179  52.9145763  -4.4477368  69.4959147
  51.5644733  -4.5104507  68.8138826  50.7842035  -0.5737864  67.4388717
  50.6453120  -0.9419079  68.3114655  49.9956631  -0.0590224  67.2672675
  51.3790187   4.5271233  58.7814253  51.5541942   4.0559276  59.5959876
  50.6922975   5.1536999  59.0095514  52.3347250  -1.1956261  64.8277555
  51.9997082  -1.2355491  65.7235205  51.8351195  -1.8611545  64.3547965
  46.3091494  -5.7888631  70.3530136  46.1711292  -6.5208392  70.9541675
  47.2196417  -5.8779731  70.0714324  55.2706441  -3.8500227  55.1014614
  54.6535612  -4.5753398  55.0047667  54.8022930  -3.0890866  54.7581689
  48.9373794  -6.0768672  69.8413815  49.6473413  -6.7175479  69.8000434
  48.8943103  -5.8255777  70.7639996  56.9260573   0.8598682  72.7620395
  56.8673119   0.1757902  72.0950978  57.3280091   1.6017672  72.3101021
  45.9451272   7.6760596  65.5554114  46.1847870   8.3079120  66.2333132
  45.1020468   7.3248636  65.8419473  56.9277980  -1.1761734  70.9934374
  56.0404759  -1.5135813  71.1160773  57.4976531  -1.9078703  71.2303140
  50.4579134   3.4839718  67.9595618  50.3849305   4.2894690  68.4714922
  50.0156527   3.6831684  67.1343639  50.2468913   2.7211488  61.4698439
  49.4636435   3.2633168  61.5636664  50.9461659   3.2385468  61.8692680
  53.5565563 -11.4693882  64.1132644  54.0534263 -12.2223920  63.7933715
  52.7852545 -11.4329566  63.5475854  61.4095321  -5.7653517  65.7550936
  61.3985197  -4.8828802  65.3844869  60.5412700  -6.1181966  65.5605473
  52.9177817   3.3826552  70.1153776  53.6305789   4.0174017  70.0429678
  52.4267846   3.4790418  69.2993778  54.6395344  -2.7122195  61.6871068
  53.7051623  -2.5920733  61.5175772  54.8172013  -3.6149729  61.4231078
  50.1400532  -9.3276500  63.8404329  49.7698320  -9.8805459  64.5285235
  50.6359625  -9.9318366  63.2879329  58.0267896  -6.8704876  62.2221102
  58.4928348  -6.0376884  62.1481405  58.4775396  -7.3359894  62.9266360
  47.9689731   1.1320996  70.9359347  48.6699190   1.7657478  71.0888741
  47.4984846   1.4735727  70.1754986  56.0944127  -0.5261055  59.2207254
  56.3703971  -0.6404460  60.1301128  55.2248625  -0.9243570  59.1819427
  55.7691017  -6.3134397  68.7611897  55.1162467  -6.0658490  68.1064350
  56.1471397  -7.1270259  68.4274375  52.7298191   3.7225296  62.8640068
  52.9120585   2.9046952  63.3267820  53.5531177   3.9392988  62.4264958
  53.0640356   2.6493481  60.1255116  53.5928123   2.1385936  59.5125278
  53.3268576   2.3336011  60.9900649  51.8178590  -5.5714586  75.2477934
  51.1419227  -5.6720457  75.9180310  52.6406224  -5.7275372  75.7113932
  43.5657449   0.6657351  67.8690450  44.1510886  -0.0798962  68.0018354
  43.3682287   0.9761307  68.7527114  46.4196104   3.7008598  62.8852892
  45.7506479   4.1854726  62.4016932  46.2808974   3.9477818  63.7996271
  50.5601373   5.7352341  69.4835550  51.1119681   5.8983963  70.2484636
  50.9007566   6.3256779  68.8115575  55.4112247   0.5613599  75.3384205
  55.9552151   1.1743557  74.8439160  54.8299092   1.1193177  75.8551218
  53.6969760   3.6834317  66.4699233  53.5720899   2.8824057  65.9610178
  54.3548851   4.1780510  65.9813203  55.7604668   1.4843337  68.0978783
  54.8135004   1.3648688  68.0257109  56.1087441   0.5965835  68.1805044
  52.7651102   1.2796053  64.2983135  52.6176064   0.3512761  64.4790705
  53.5904595   1.3016144  63.8140210  56.3685223   2.1024612  65.3848008
  57.2931771   1.8967473  65.2472459  56.2000527   1.8541013  66.2937349
  52.7612616 -10.8666109  59.2915252  52.9776230  -9.9841471  58.9904080
  52.2806683 -11.2579896  58.5620894  47.5011837  -7.9080396  65.8685997
  47.3556418  -7.5940093  66.7610278  47.0237041  -7.2895496  65.3156895
  51.2134351 -10.4840508  67.9620014  50.9552129  -9.5623437  67.9604344
  50.6819391 -10.8810073  68.6520478  56.1580540   2.6210279  60.7410099
  56.3317417   2.0556702  59.9883952  56.6509431   3.4211174  60.5589589
  41.9757499  -5.3675051  68.8073658  41.4310968  -4.5915243  68.9393932
  42.8536849  -5.0204247  68.6492779  62.0119931  -4.6153298  62.3600399
  62.4551077  -5.3645972  61.9619522  61.1346441  -4.6243161  61.9774131
  57.1455712   1.9377044  57.8406997  57.8406617   2.5583737  58.0594312
  57.4878862   1.0872395  58.1159375  59.0447135  -0.6123251  59.3694328
  59.5698459  -0.2735978  58.6443648  58.9569488  -1.5476235  59.1857463
  50.7067184   3.3010823  71.4984205  51.0154310   3.0559970  72.3706904
  51.5042666   3.5057462  71.0103075  50.7287796   5.4548733  63.7289581
  50.2892786   4.9625111  64.4222438  51.4795913   4.9121700  63.4881657
  43.2080135   1.6460274  63.7314209  44.0338155   1.3464045  63.3512853
  42.8574187   0.8767896  64.1803998  48.1761668   0.9986742  65.8011883
  47.5541677   0.3357447  65.5014111  48.8466535   1.0247874  65.1185531
  41.4088740  -0.4353400  64.6903143  40.5720648  -0.8631226  64.5087144
  41.3812385  -0.2420957  65.6273934  58.7341041   0.0209653  74.6745526
  57.9436585   0.0033792  74.1350026  58.4974396   0.5597947  75.4294563
  58.8538916  -3.1297881  71.9878255  58.9036921  -3.2947873  72.9293777
  58.7452840  -3.9970622  71.5976135  47.7375175  -0.4509335  59.2770344
  47.8863295   0.2326130  58.6237016  48.5441619  -0.4704245  59.7919799
  56.1442679  -7.1466953  73.3037561  57.0452542  -7.2860488  73.0121559
  56.2190653  -6.9812498  74.2435739  50.4785484  -9.7700098  72.1490748
  49.6088794  -9.4766532  71.8773336  50.7144964  -9.1859653  72.8698011
  60.3557113  -0.7100939  72.2320276  60.0641922  -0.3470959  73.0683737
  59.7429245  -1.4233931  72.0533608  61.5552796  -3.1448059  64.7522846
  62.3899687  -2.7058255  64.9160407  61.6911924  -3.6209406  63.9331092
  58.6044301  -5.5868324  70.7000334  59.0798423  -5.3940678  69.8919186
  57.6809867  -5.5309139  70.4543718  45.4927808  -4.4244157  60.2831412
  45.2473850  -5.3281827  60.4811623  45.6623723  -4.4227007  59.3410890
  51.2370581   2.0438796  56.7482091  50.6644548   2.6628983  56.2952563
  51.8103374   2.5938157  57.2822013  57.3045970  -8.7102564  68.9328640
  58.2563393  -8.6104467  68.9540864  57.1349421  -9.5024296  69.4426724
  55.3260350 -11.6246981  69.1188041  54.7310282 -11.3441968  68.4234529
  55.0410047 -11.1353080  69.8904782  54.4567840   2.3275946  57.8790673
  55.3898514   2.2621507  58.0823549  54.3691053   3.1632213  57.4205206
  57.0855857   1.6441816  54.8394621  57.0069489   1.3101680  55.7330379
  57.9065524   2.1363584  54.8386093  59.7834048  -5.4896445  68.0470939
  59.7510368  -6.4280444  68.2330623  60.3934672  -5.4112408  67.3136764
  51.6217379  -6.6200392  54.0898143  52.5676484  -6.7494184  54.1586562
  51.2431624  -7.3585730  54.5667572  59.9328537  -8.6985401  68.0929223
  59.4167585  -9.4826945  67.9059151  60.8168485  -9.0266685  68.2575742
  65.6010598  -4.4280438  67.1876976  66.3313987  -4.6895150  67.7484680
  64.9917544  -5.1651716  67.2279044  63.6825895  -6.2872575  67.7851427
  62.9559059  -6.4216610  67.1767919  63.2673182  -5.9795747  68.5908145
  51.5056072  -2.5682646  75.5498800  52.4259081  -2.3904047  75.7438847
  51.4705655  -3.5126600  75.3978500  49.8060296  -8.6950415  54.0253029
  48.8991752  -8.9917303  54.1015742  50.0836277  -8.9920597  53.1587315
  44.5018144  -4.6581611  68.1921582  44.7204154  -3.7264503  68.2109615
  44.9143918  -5.0173636  68.9776385  49.3746010  -9.0848405  77.5824331
  49.2742736  -8.1354048  77.5136422  49.1567552  -9.4130166  76.7100401
  40.5926497  -3.7541140  66.4445197  39.8989968  -4.1687188  65.9315151
  41.3399488  -3.7120604  65.8478616  49.2377280  -5.6551266  76.3989392
  48.7544361  -4.8550906  76.6053281  49.3238219  -5.6443321  75.4456836
  42.5063239  -3.8222887  64.3211212  42.4833927  -3.7235199  63.3693095
  42.8163876  -2.9757736  64.6428378  45.1650617  -1.7646732  68.4357826
  46.1193871  -1.7962789  68.3687758  44.9663141  -2.2256108  69.2508052
  45.7549999  -3.1945616  71.0028624  46.5742888  -2.7001537  71.0263461
  46.0286807  -4.1113647  70.9746191  55.5116595 -10.8034863  60.3656579
  54.6242450 -10.5185213  60.1476774  55.9270584 -10.9641100  59.5183856
  58.8631132 -10.7788342  64.0810918  59.6391522 -10.2891890  64.3535535
  58.1379266 -10.3530288  64.5382788  43.5200846   3.7772888  65.4528024
  43.3855314   3.0173289  64.8866022  43.1032908   4.5013788  64.9856813
  54.6559809  -1.0390189  54.4604599  55.3595659  -0.8340186  55.0762255
  53.9322458  -0.4713427  54.7253683  55.4857619  -5.2880327  60.5806869
  55.4292821  -4.8311776  59.7414502  56.0385962  -6.0489643  60.4029712
  59.2962425  -9.4990595  61.4056989  59.0399359  -9.8993960  62.2365197
  58.6715293  -8.7846801  61.2807128  63.6074763  -6.7594522  63.9128280
  63.0474321  -6.6901333  64.6859842  63.0018266  -6.9353538  63.1927776
  46.6769972   4.6742205  65.6646467  46.5602356   5.6187637  65.5625157
  45.8562418   4.3715766  66.0532266  56.5646506  -0.6007659  56.5103059
  57.3992110  -1.0326461  56.3280534  56.4030849  -0.7725646  57.4379954
  56.2192398  -4.0975546  57.8759399  56.1641202  -4.2631275  56.9347843
  55.5938454  -3.3899513  58.0321588  53.5338306  -1.7926634  77.2012961
  54.4029465  -1.6185982  76.8399596  53.0545057  -0.9732217  77.0788691
  47.7024486   5.3270467  68.8802395  48.6051733   5.3594077  69.1968890
  47.4761856   4.3970918  68.8948731  49.4578088   4.0801453  65.5412474
  48.5073719   4.0803315  65.4276846  49.7610574   3.3334188  65.0248508
  65.1930781   9.9161992  66.6058236  65.8309191   9.7968739  65.9021576
  65.0751624  10.8642836  66.6646188  62.0020488   9.8689420  66.5419761
  61.6638999   9.7530485  65.6540295  62.8710256   9.4680585  66.5220767
  57.8607303  11.7224896  62.5316652  57.2972168  11.6314833  61.7632939
  57.7459698  10.9024801  63.0119144  62.4840271  11.0224272  72.5005966
  62.4728911  10.6277070  71.6286470  62.6460910  10.2890344  73.0939738
  55.4071735  13.2176088  65.3700872  56.1993027  12.8766913  64.9547171
  55.6468385  13.3271063  66.2903025  63.4406862  15.3895864  57.8431116
  62.7894842  15.9749944  57.4565130  64.2351225  15.9202059  57.9026154
  57.3662489  12.4785001  58.2418251  58.1393365  11.9313988  58.1031127
  57.7187888  13.3429250  58.4532712  59.2047532  13.8061383  71.4485150
  58.9137398  14.7107014  71.3331816  59.8404516  13.8477911  72.1629220
  60.1303739  11.1838232  68.0386510  60.7267311  10.9594254  67.3243473
  60.1878710  10.4422977  68.6411958  59.7028767   8.6377667  55.8736701
  59.9554288   8.1159189  55.1120164  58.7653326   8.4743813  55.9763384
  64.7472050   7.6413446  63.6811444  65.5335139   7.2232869  63.3301861
  65.0110754   8.5459538  63.8493092  64.9182127  13.0786296  58.3800101
  64.2827960  13.1520922  59.0921005  64.5879534  13.6679895  57.7019180
  70.1480477   7.5788679  64.5844422  70.8805649   7.0087896  64.8182252
  69.3919833   7.1910279  65.0250928  59.4225056  10.5405773  58.0761076
  59.3061314   9.8650677  58.7442160  59.5327316  10.0538147  57.2593229
  61.7656597  10.0015920  61.7807765  61.4014804   9.4746541  62.4920686
  62.6223713   9.6114389  61.6074250  67.6705897   1.2910253  69.0439031
  67.3389222   2.1605664  68.8200246  67.0751511   0.9746537  69.7233061
  61.4062084   5.0305820  56.7769113  61.5736486   5.8986056  57.1439585
  61.2159253   5.1933102  55.8530403  64.1637417  13.4922799  68.4434944
  63.8638140  14.3947838  68.3350751  63.8188476  13.2254982  69.2956097
  57.6149898   9.9436596  64.4771648  56.6900395   9.8112810  64.6849340
  57.8634312  10.7230815  64.9741591  67.5634561   6.0105339  66.1232381
  66.6551438   5.9420748  65.8291142  67.5122156   6.4877284  66.9514207
  61.3851305   7.4863477  57.7615780  61.2650930   7.9320528  58.6001261
  60.6903893   7.8348795  57.2029318  54.9758709   9.5869869  65.3115437
  55.1051091   9.8404348  66.2254849  54.2956161  10.1797577  64.9920092
  59.1458197  20.2567119  61.4105912  59.0682226  21.2074944  61.4894392
  58.5419840  19.9112992  62.0680838  61.6375426   7.4294985  74.0667278
  60.8608760   7.9888905  74.0570143  62.2765989   7.9151768  74.5882149
  69.4296207   4.2121777  67.9010255  68.7870587   4.5054311  67.2550050
  68.9251136   4.0974698  68.7063452  67.0836371   7.9584951  58.5896114
  67.9954227   8.1912337  58.4143812  66.5746018   8.5421995  58.0271193
  59.8921799  10.2380438  73.6285245  60.6336483  10.7765482  73.3520069
  59.1858784  10.8646727  73.7856797  65.3677138  12.3809579  72.2257407
  65.7760494  11.9391989  71.4812039  64.6454400  11.8062206  72.4791600
  61.7208208   7.3182185  69.5990964  62.5669404   7.7421599  69.7425613
  61.6606846   6.6615810  70.2929527  65.6905953  12.9410769  65.9809696
  65.0614815  13.1056483  65.2785764  65.3031615  13.3552379  66.7520660
  69.5695185  13.8765207  63.3354060  68.8846223  14.2564108  62.7851093
  69.6539034  14.4860534  64.0686007  64.8707654   4.9786554  71.2572137
  64.6268586   5.7328614  70.7206413  65.1467584   5.3571901  72.0919385
  66.8246117  11.5225166  69.9349403  67.0363012  12.1656926  69.2583784
  66.7775865  10.6887483  69.4671333  64.4272345   4.1342987  66.8385975
  63.5656825   4.4324240  67.1302713  64.4534780   4.3513386  65.9067008
  61.2433915  12.6785177  63.2459781  61.7072260  12.9572880  62.4564403
  60.9790713  11.7768622  63.0632872  58.1357996  12.2256659  66.1839544
  58.7059353  12.6543927  65.5457029  58.7266108  11.9439243  66.8823730
  60.1802801   8.8008330  60.0549346  60.8826844   9.2529373  60.5223272
  59.8483429   8.1592148  60.6829239  58.6283162   7.3920086  74.4300555
  57.9981823   8.0736367  74.6635952  58.5219250   7.2803168  73.4853694
  53.9228135   7.0591882  65.3566480  53.1327189   7.3149411  64.8806590
  54.4139382   7.8740220  65.4618520  67.9391944  14.3997121  68.1071760
  68.7609388  13.9977309  67.8254442  67.9354347  14.2965356  69.0587876
  55.8742880   7.4236461  62.3149956  55.0774044   7.5355156  62.8333452
  55.6468472   7.7623114  61.4490847  61.7048548  13.9481165  70.2632471
  61.7692980  14.4101572  71.0990643  60.9959472  13.3178530  70.3914781
  52.2065838   7.3122373  67.7881470  52.4573876   8.1969383  68.0539046
  52.7425386   7.1326974  67.0156562  76.0297938  10.7435870  64.4556732
  75.2761646  10.1743268  64.3000736  76.1645479  10.7098534  65.4027367
  61.4196566  15.6149272  60.1311451  61.2842240  16.4600808  60.5596299
  61.9606378  15.8168550  59.3677385  57.9063905   1.6940852  76.7925806
  57.5130851   1.1407051  77.4673451  58.7230046   2.0051431  77.1832324
  54.8725963  13.1324710  60.7039376  55.3850484  13.9267960  60.8544941
  55.5248676  12.4351001  60.6372978  56.6820848  16.2490467  62.7862130
  56.8587476  17.1708431  62.5983113  57.4777681  15.9348886  63.2156509
  60.8231866   3.1098731  74.3846063  61.5641580   3.7105884  74.3050526
  61.0549789   2.3676369  73.8264106  55.9673204   8.2955098  72.6624293
  55.8526719   7.3940356  72.9631392  55.1117722   8.5418795  72.3109109
  63.0465042  16.2372839  74.2611793  62.6028896  15.4509217  73.9432698
  63.7082256  16.4251989  73.5955684  57.8052163  17.7668640  68.7872472
  58.3559588  17.6385704  68.0149466  56.9663639  18.0663529  68.4367365
  65.1446280  16.5175639  72.2893195  65.1264755  17.3384520  71.7973464
  66.0666200  16.3929714  72.5143336  61.6019334  14.0319768  73.1316703
  62.1347671  13.2708056  72.9016011  61.0733415  13.7393420  73.8740857
  64.7689029  -0.8620166  68.6610345  64.4253299   0.0281476  68.5849455
  65.1367992  -1.0518508  67.7979930  52.8374880  11.4613365  61.4798947
  53.6750102  11.8710373  61.2632655  53.0153147  10.5212807  61.4499141
  64.7339312   9.1288445  57.1682780  64.2185935   9.8993050  57.4071167
  64.4616620   8.4553581  57.7915841  62.3186423   3.9738146  62.2268018
  61.4628019   3.5844996  62.0473657  62.7313375   4.0530107  61.3667804
  63.8485570   1.5084489  66.6259578  63.3450365   1.4714624  65.8127383
  64.1416176   2.4177232  66.6856235  60.0928455   1.5923219  65.6325760
  60.9581452   1.3966028  65.2731649  60.1605964   1.3633571  66.5595116
  69.7073586  11.8820800  59.1035953  68.9303029  11.5431959  58.6591115
  70.3865067  11.8873423  58.4290918  64.5225615   7.0015537  58.9942561
  64.2175751   7.3161686  59.8452704  65.4756057   7.0796957  59.0369894
  62.9672047  13.1605761  60.6435515  62.4393408  12.4258520  60.3308752
  62.4659550  13.9380437  60.3975483  67.9464893  11.3554781  65.7602561
  67.2888567  12.0454042  65.8482690  68.7505292  11.7451213  66.1036548
  57.6990774   3.8225427  63.0042127  58.2734526   3.6000608  62.2715319
  58.2861757   3.8914121  63.7570728  66.7570352   9.7099154  63.8106503
  67.2702233  10.3429146  64.3128213  67.4071576   9.1100349  63.4449863
  58.0260362   5.8529888  57.0238012  57.1897674   6.1904574  57.3447287
  57.8865131   5.7178868  56.0865149  60.0013442   0.6966676  61.7317196
  59.3477855   0.3815693  61.1073811  59.9593916   0.0742416  62.4577019
  61.1124647  10.9785971  53.6470488  60.2051709  10.7475224  53.8461637
  61.6095679  10.1823590  53.8344470  64.0192726  19.6883478  56.5667174
  63.3454425  19.9915175  57.1752132  64.4058548  20.4912558  56.2172631
  63.2351183   7.1848609  66.0564844  62.3173744   7.4063556  65.8986532
  63.6511326   7.2594920  65.1976551  64.0186230   8.5840025  61.1867524
  64.7658049   9.0961422  60.8774646  64.2877820   8.2624078  62.0471917
  62.2912880  11.0798566  58.1694478  61.3824100  10.7957599  58.2666948
  62.3207964  11.4997644  57.3097785  67.5232148  14.6905155  61.9385646
  67.0694475  13.8496065  61.9950836  66.8926115  15.3266554  62.2760426
  66.4665067   5.6197141  63.1686313  65.7287824   5.1074527  63.4996556
  66.7191841   5.1797523  62.3569590  65.9665087  16.5281652  62.8735464
  66.2588062  17.0886709  62.1547829  66.4763708  16.8210213  63.6288623
  66.5676695  -1.6026607  63.7628082  66.8735572  -2.4629243  63.4753997
  67.2929300  -1.0108987  63.5627076  52.8601051   8.8004080  62.1509680
  52.6625451   8.2073441  61.4260747  52.3047715   8.4956290  62.8685619
  60.8397775   8.6927186  64.2704273  60.8946384   7.7401023  64.1946750
  60.0288977   8.8486625  64.7545572  61.9888968  12.6207309  55.5082557
  61.5508398  11.9043168  55.0488194  62.7299409  12.8483424  54.9467648
  58.7790134   7.3104246  62.0294652  57.9658000   7.6098417  62.4359844
  59.2749129   6.9159935  62.7469135  60.9298712  17.3062003  63.9628917
  60.8874891  17.5322849  63.0337449  61.8461411  17.0725378  64.1114718
  64.3764346   7.7746071  70.8609546  64.7313734   8.0017544  71.7204012
  65.0236477   8.1064447  70.2386802  70.1062083  10.8964506  61.5658875
  69.9679982  11.0866102  60.6380064  69.7498302  11.6583889  62.0226926
  58.2704209   4.8822602  67.6455887  58.9103589   4.7411361  66.9478851
  57.4381740   4.5957115  67.2694489  70.1331463  12.9641033  66.5770147
  70.5667969  12.8716323  67.4253201  70.8463043  12.9398534  65.9390163
  59.0464513  14.1825032  63.7590880  59.8405112  13.6875352  63.5573455
  58.3356206  13.6542895  63.3958585  63.8659358  16.5643128  68.1103247
  63.9196380  17.1334064  68.8780963  62.9974139  16.7345013  67.7457284
  55.3547277   8.3268114  59.8350632  54.4244865   8.2652569  60.0520595
  55.4504749   7.8044067  59.0387274  55.2732826   4.8522927  62.4228874
  55.5339643   5.7668260  62.3138035  56.0949998   4.3847369  62.5725487
  56.7457751   6.2660684  69.5927699  57.4180804   6.0578046  68.9440348
  55.9187537   6.0682770  69.1532931  70.9947012  13.0064734  69.1103032
  71.1882902  13.9110545  69.3562307  70.8947630  12.5472153  69.9441617
  62.6483323   2.8922625  71.6093359  62.0011238   3.5912574  71.5157836
  63.4184338   3.3258769  71.9769608  66.0562121  13.1571477  74.6843913
  65.9047627  12.9282029  73.7673996  66.0466800  14.1142078  74.6975258
  62.8247457  10.7303390  69.6690179  63.7539517  10.8814549  69.4959147
  62.4038487  10.8187410  68.8138826  61.6235789  14.7554054  67.4388717
  61.4846875  14.3872838  68.3114655  60.8350385  15.2701693  67.2672675
  62.2183941  19.8563150  58.7814253  62.3935697  19.3851194  59.5959876
  61.5316729  20.4828917  59.0095514  63.1741004  14.1335657  64.8277555
  62.8390837  14.0936427  65.7235205  62.6744950  13.4680373  64.3547965
  57.1485248   9.5403287  70.3530136  57.0105046   8.8083526  70.9541675
  58.0590172   9.4512187  70.0714324  66.1100196  11.4791691  55.1014614
  65.4929367  10.7538519  55.0047667  65.6416684  12.2401051  54.7581689
  59.7767549   9.2523246  69.8413815  60.4867167   8.6116438  69.8000434
  59.7336857   9.5036141  70.7639996  67.7654328  16.1890599  72.7620395
  67.7066874  15.5049820  72.0950978  68.1673846  16.9309589  72.3101021
  58.4896483   6.2388464  71.6609455  57.9533840   5.7879202  72.3131051
  57.9013191   6.3734373  70.9179919  56.7845026  23.0052513  65.5554114
  57.0241625  23.6371037  66.2333132  55.9414223  22.6540553  65.8419473
  57.8998742   5.6977115  54.2235919  57.0228208   5.5765916  53.8598165
  58.3756495   4.9063194  53.9714807  67.7671735  14.1530183  70.9934374
  66.8798514  13.8156105  71.1160773  68.3370286  13.4213215  71.2303140
  49.4200882  10.4854275  64.3177426  50.1071922  10.1716005  63.7298441
  49.2649011  11.3895640  64.0444677  54.2235604   5.3744472  68.7462449
  54.1393793   4.7670141  68.0112859  53.4018311   5.8653490  68.7471946
  61.2972888  18.8131636  67.9595618  61.2243060  19.6186607  68.4714922
  60.8550281  19.0123602  67.1343639  61.0862668  18.0503406  61.4698439
  60.3030190  18.5925086  61.5636664  61.7855413  18.5677385  61.8692680
  64.3959318   3.8598035  64.1132644  64.8928018   3.1067998  63.7933715
  63.6246299   3.8962352  63.5475854  72.2489075   9.5638401  65.7550936
  72.2378952  10.4463116  65.3844869  71.3806455   9.2109952  65.5605473
  63.7571572  18.7118470  70.1153776  64.4699544  19.3465935  70.0429678
  63.2661600  18.8082336  69.2993778  65.4789099  12.6169722  61.6871068
  64.5445377  12.7371185  61.5175772  65.6565767  11.7142189  61.4231078
  60.9794287   6.0015418  63.8404329  60.6092074   5.4486459  64.5285235
  61.4753379   5.3973552  63.2879329  68.8661650   8.4587042  62.2221102
  69.3322102   9.2915033  62.1481405  69.3169151   7.9932023  62.9266360
  58.8083485  16.4612913  70.9359347  59.5092945  17.0949396  71.0888741
  58.3378600  16.8027645  70.1754986  66.9337881  14.8030863  59.2207254
  67.2097725  14.6887458  60.1301128  66.0642380  14.4048348  59.1819427
  66.8378313   0.8267629  66.2612003  65.9241393   1.0571856  66.4294210
  67.2671414   0.9106073  67.1126036  66.6084771   9.0157521  68.7611897
  65.9556221   9.2633428  68.1064350  66.9865151   8.2021659  68.4274375
  63.5691945  19.0517214  62.8640068  63.7514340  18.2338870  63.3267820
  64.3924931  19.2684906  62.4264958  63.9034111  17.9785399  60.1255116
  64.4321877  17.4677854  59.5125278  64.1662330  17.6627929  60.9900649
  62.6572344   9.7577332  75.2477934  61.9812981   9.6571461  75.9180310
  63.4799978   9.6016545  75.7113932  54.4051203  15.9949268  67.8690450
  54.9904640  15.2492956  68.0018354  54.2076042  16.3053225  68.7527114
  57.2589859  19.0300516  62.8852892  56.5900234  19.5146643  62.4016932
  57.1202728  19.2769736  63.7996271  48.9968858   8.5654868  66.5894893
  49.0352958   8.0318459  67.3832011  48.4909151   8.0390074  65.9705870
  61.3995127  21.0644259  69.4835550  61.9513435  21.2275881  70.2484636
  61.7401321  21.6548697  68.8115575  56.3759620   3.4119409  70.0857435
  56.4400947   4.2734240  69.6734833  56.3126741   2.7993411  69.3529794
  55.8511893   5.4842541  73.7330469  56.4783932   5.1019619  74.3467994
  54.9939812   5.2656743  74.0986162  66.2506001  15.8905517  75.3384205
  66.7945905  16.5035475  74.8439160  65.6692846  16.4485095  75.8551218
  52.6277436   7.2918971  59.6648824  52.9230877   6.3829649  59.6115878
  51.7265471   7.2706710  59.3429827  64.5363514  19.0126235  66.4699233
  64.4114654  18.2115975  65.9610178  65.1942606  19.5072428  65.9813203
  56.1571683   5.3674967  65.6476373  55.4358268   5.9810935  65.5083846
  56.9464938   5.9032732  65.5693019  66.5998423  16.8135255  68.0978783
  65.6528758  16.6940606  68.0257109  66.9481196  15.9257753  68.1805044
  58.9597996   2.7029394  71.9217025  59.4832398   2.9491690  72.6843334
  58.7410329   3.5349428  71.5020162  54.3565277   4.9733068  59.7888149
  54.0277983   4.0930447  59.6063255  54.7104648   4.9180737  60.6764539
  63.6044856  16.6087971  64.2983135  63.4569819  15.6804678  64.4790705
  64.4298350  16.6308062  63.8140210  57.4707100   5.2606038  60.1563627
  57.8103173   5.7891959  59.4342235  57.9179221   5.5986444  60.9322194
  67.2078978  17.4316530  65.3848008  68.1325525  17.2259391  65.2472459
  67.0394281  17.1832931  66.2937349  60.1650541   3.6443089  69.6066695
  59.8247362   2.8450902  70.0087375  59.4589547   3.9444800  69.0343528
  60.8167013   0.7292401  68.0594018  61.6393082   0.2552879  67.9372908
  61.0605077   1.5082885  68.5592704  59.4575248   3.7580660  58.3556920
  60.1783610   4.1361912  57.8520637  58.8340552   4.4769536  58.4591898
  63.6006370   4.4625809  59.2915252  63.8169985   5.3450446  58.9904080
  63.1200438   4.0712022  58.5620894  58.3405592   7.4211522  65.8685997
  58.1950173   7.7351825  66.7610278  57.8630795   8.0396422  65.3156895
  60.2001975   4.4114070  65.9166886  60.1863543   3.5155163  65.5799184
  60.9174403   4.4184734  66.5505172  62.0528105   4.8451410  67.9620014
  61.7945883   5.7668481  67.9604344  61.5213146   4.4481845  68.6520478
  66.9974294  17.9502197  60.7410099  67.1711172  17.3848620  59.9883952
  67.4903185  18.7503092  60.5589589  52.8151254   9.9616866  68.8073658
  52.2704722  10.7376674  68.9393932  53.6930604  10.3087671  68.6492779
  59.6038871   3.2928450  61.1854456  59.7254782   2.3645096  61.3845344
  59.3140913   3.3067136  60.2732772  62.4730061   0.9783361  64.3221176
  62.4951758   1.0422694  63.3673156  62.8898120   0.1387869  64.5161682
  72.8513685  10.7138620  62.3600399  73.2944831   9.9645945  61.9619522
  71.9740196  10.7048756  61.9774131  67.9849467  17.2668962  57.8406997
  68.6800371  17.8875654  58.0594312  68.3272617  16.4164313  58.1159375
  53.6017276   9.0886763  71.7003815  52.8599012   9.2369398  72.2868445
  53.2810020   9.3495028  70.8370564  69.8840890  14.7168667  59.3694328
  70.4092214  15.0555940  58.6443648  69.7963242  13.7815682  59.1857463
  61.5460938  18.6302741  71.4984205  61.8548065  18.3851888  72.3706904
  62.3436420  18.8349379  71.0103075  61.5681551  20.7840650  63.7289581
  61.1286541  20.2917029  64.4222438  62.3189667  20.2413618  63.4881657
  54.0473890  16.9752191  63.7314209  54.8731909  16.6755963  63.3512853
  53.6967941  16.2059814  64.1803998  59.0155423  16.3278659  65.8011883
  58.3935432  15.6649364  65.5014111  59.6860290  16.3539791  65.1185531
  52.2482495  14.8938518  64.6903143  51.4114403  14.4660692  64.5087144
  52.2206140  15.0870961  65.6273934  59.0879950   4.8060447  75.3944389
  59.1368106   5.6822570  75.0122159  59.6302464   4.2637841  74.8216032
  69.5734796  15.3501571  74.6745526  68.7830340  15.3325710  74.1350026
  69.3368150  15.8889864  75.4294563  69.6932671  12.1994037  71.9878255
  69.7430676  12.0344045  72.9293777  69.5846594  11.3321296  71.5976135
  58.5768930  14.8782583  59.2770344  58.7257050  15.5618047  58.6237016
  59.3835373  14.8587673  59.7919799  66.9836433   8.1824965  73.3037561
  67.8846296   8.0431430  73.0121559  67.0584408   8.3479420  74.2435739
  61.3179239   5.5591820  72.1490748  60.4482548   5.8525386  71.8773336
  61.5538719   6.1432265  72.8698011  71.1950868  14.6190979  72.2320276
  70.9035676  14.9820959  73.0683737  70.5822999  13.9057987  72.0533608
  72.3946550  12.1843858  64.7522846  73.2293441  12.6233662  64.9160407
  72.5305679  11.7082512  63.9331092  69.4438056   9.7423593  70.7000334
  69.9192178   9.9351240  69.8919186  68.5203621   9.7982779  70.4543718
  56.3321563  10.9047760  60.2831412  56.0867605  10.0010090  60.4811623
  56.5017477  10.9064911  59.3410890  64.0218272   1.7771437  69.6656168
  64.5400216   2.5132464  69.3402657  63.6673405   2.0835430  70.5002927
  55.6017210   6.6376118  57.7817574  54.9086455   6.7120473  57.1257610
  55.3568962   5.8736462  58.3039091  64.2730867  -1.8028281  65.1857065
  64.5532620  -2.4705092  65.8117491  65.0581474  -1.6099185  64.6731729
  62.0764335  17.3730713  56.7482091  61.5038302  17.9920900  56.2952563
  62.6497129  17.9230075  57.2822013  68.1439725   6.6189353  68.9328640
  69.0957148   6.7187451  68.9540864  67.9743175   5.8267622  69.4426724
  66.1654104   3.7044937  69.1188041  65.5704037   3.9849949  68.4234529
  65.8803801   4.1938837  69.8904782  65.2961595  17.6567863  57.8790673
  66.2292268  17.5913425  58.0823549  65.2084808  18.4924130  57.4205206
  67.9249612  16.9733734  54.8394621  67.8463243  16.6393597  55.7330379
  68.7459278  17.4655502  54.8386093  70.6227803   9.8395473  68.0470939
  70.5904123   8.9011474  68.2330623  71.2328426   9.9179510  67.3136764
  62.4611134   8.7091526  54.0898143  63.4070238   8.5797734  54.1586562
  62.0825379   7.9706188  54.5667572  70.7722291   6.6306516  68.0929223
  70.2561340   5.8464973  67.9059151  71.6562240   6.3025233  68.2575742
  68.4333018   0.3747532  64.0525035  68.2357839   0.0662620  64.9368367
  69.0432724   1.1009171  64.1822965  76.4404353  10.9011480  67.1876976
  77.1707741  10.6396768  67.7484680  75.8311298  10.1640202  67.2279044
  74.5219650   9.0419342  67.7851427  73.7952813   8.9075307  67.1767919
  74.1066937   9.3496171  68.5908145  62.3449826  12.7609272  75.5498800
  63.2652836  12.9387871  75.7438847  62.3099409  11.8165317  75.3978500
  60.6454051   6.6341502  54.0253029  59.7385506   6.3374615  54.1015742
  60.9230032   6.3371320  53.1587315  51.5631991   7.9547866  64.4752075
  51.2434775   7.1013174  64.1826449  51.0165419   8.1696444  65.2310042
  55.3411899  10.6710307  68.1921582  55.5597908  11.6027415  68.2109615
  55.7537673  10.3118281  68.9776385  62.2616116   1.1778392  60.1797270
  61.4516845   0.8325477  60.5552516  62.9500533   0.8685936  60.7684882
  64.1906665   0.2556439  61.8021567  64.7437703   0.6751892  62.4611590
  64.4276751  -0.6707813  61.8444523  60.2139764   6.2443513  77.5824331
  60.1136491   7.1937870  77.5136422  59.9961306   5.9161751  76.7100401
  59.4152835   3.4928438  54.1665008  60.2771999   3.8183336  54.4260825
  59.6003180   2.7059934  53.6538074  51.4320251  11.5750777  66.4445197
  50.7383723  11.1604730  65.9315151  52.1793242  11.6171314  65.8478616
  67.5685472   2.3656964  61.3100231  66.9884141   3.0241768  60.9278283
  67.3021405   1.5434309  60.8987648  66.0189038   1.7662022  63.5121551
  66.5188817   1.8778556  62.7035870  66.6624646   1.4623075  64.1522360
  60.0771034   9.6740651  76.3989392  59.5938116  10.4741012  76.6053281
  60.1631973   9.6848596  75.4456836  53.3456994  11.5069031  64.3211212
  53.3227682  11.6056718  63.3693095  53.6557630  12.3534182  64.6428378
  56.0044372  13.5645186  68.4357826  56.9587625  13.5329128  68.3687758
  55.8056895  13.1035810  69.2508052  56.5943754  12.1346302  71.0028624
  57.4136643  12.6290381  71.0263461  56.8680561  11.2178270  70.9746191
  66.3510350   4.5257054  60.3656579  65.4636205   4.8106705  60.1476774
  66.7664339   4.3650818  59.5183856  69.7024886   4.5503575  64.0810918
  70.4785276   5.0400028  64.3535535  68.9773020   4.9761630  64.5382788
  72.1397445   5.2631195  65.1384859  72.7341935   5.0226931  64.4278167
  72.2124028   4.5438325  65.7658395  54.3594600  19.1064806  65.4528024
  54.2249068  18.3465206  64.8866022  53.9426663  19.8305705  64.9856813
  65.4953563  14.2901729  54.4604599  66.1989413  14.4951732  55.0762255
  64.7716212  14.8578491  54.7253683  66.3251374  10.0411590  60.5806869
  66.2686575  10.4980142  59.7414502  66.8779716   9.2802275  60.4029712
  70.1356180   5.8301322  61.4056989  69.8793114   5.4297958  62.2365197
  69.5109048   6.5445116  61.2807128  74.4468517   8.5697395  63.9128280
  73.8868075   8.6390585  64.6859842  73.8412021   8.3938380  63.1927776
  57.5163726  20.0034123  65.6646467  57.3996110  20.9479555  65.5625157
  56.6956172  19.7007684  66.0532266  67.4040261  14.7284258  56.5103059
  68.2385865  14.2965457  56.3280534  67.2424604  14.5566272  57.4379954
  67.0586153  11.2316372  57.8759399  67.0034957  11.0660643  56.9347843
  66.4332208  11.9392405  58.0321588  51.8478668   6.4684436  71.7020821
  52.4937532   5.9583390  72.1908046  51.6395819   7.2053118  72.2764246
  64.3732060  13.5365283  77.2012961  65.2423220  13.7105936  76.8399596
  63.8938812  14.3559700  77.0788691  60.3682278   0.7324481  57.4544717
  60.3560948   1.6766321  57.6112988  61.2605700   0.5494626  57.1604178
  58.5418240  20.6562384  68.8802395  59.4445487  20.6885995  69.1968890
  58.3155610  19.7262835  68.8948731  60.2971842  19.4093371  65.5412474
  59.3467473  19.4095233  65.4276846  60.6004329  18.6626106  65.0248508
  64.1834398  -2.6732743  61.7090654  63.4166794  -3.2274256  61.8547336
  64.5945103  -2.6010874  62.5704805  56.1876159   3.6152053  75.7995835
  57.0507620   3.2588858  76.0099160  55.6141570   3.2765948  76.4871239
  76.0324536  25.2453909  66.6058236  76.6702946  25.1260657  65.9021576
  75.9145379  26.1934753  66.6646188  72.8414242  25.1981338  66.5419761
  72.5032754  25.0822402  65.6540295  73.7104010  24.7972503  66.5220767
  68.7001058  27.0516814  62.5316652  68.1365923  26.9606751  61.7632939
  68.5853453  26.2316718  63.0119144  73.3234025  26.3516189  72.5005966
  73.3122666  25.9568988  71.6286470  73.4854665  25.6182262  73.0939738
  66.2465490  28.5468006  65.3700872  67.0386782  28.2058830  64.9547171
  66.4862140  28.6562981  66.2903025  74.2800617  30.7187782  57.8431116
  73.6288596  31.3041862  57.4565130  75.0744979  31.2493977  57.9026154
  68.2056244  27.8076919  58.2418251  68.9787120  27.2605906  58.1031127
  68.5581643  28.6721168  58.4532712  70.0441286  29.1353301  71.4485150
  69.7531152  30.0398932  71.3331816  70.6798271  29.1769829  72.1629220
  70.9697493  26.5130150  68.0386510  71.5661065  26.2886172  67.3243473
  71.0272465  25.7714895  68.6411958  70.5422522  23.9669585  55.8736701
  70.7948042  23.4451106  55.1120164  69.6047081  23.8035730  55.9763384
  75.5865804  22.9705363  63.6811444  76.3728894  22.5524786  63.3301861
  75.8504509  23.8751455  63.8493092  75.7575882  28.4078214  58.3800101
  75.1221715  28.4812840  59.0921005  75.4273288  28.9971812  57.7019180
  80.9874231  22.9080596  64.5844422  81.7199403  22.3379813  64.8182252
  80.2313587  22.5202197  65.0250928  70.2618810  25.8697691  58.0761076
  70.1455068  25.1942594  58.7442160  70.3721070  25.3830065  57.2593229
  72.6050351  25.3307838  61.7807765  72.2408558  24.8038459  62.4920686
  73.4617467  24.9406307  61.6074250  78.5099652  16.6202171  69.0439031
  78.1782977  17.4897582  68.8200246  77.9145265  16.3038455  69.7233061
  72.2455838  20.3597738  56.7769113  72.4130241  21.2277974  57.1439585
  72.0553007  20.5225019  55.8530403  75.0031171  28.8214717  68.4434944
  74.7031894  29.7239755  68.3350751  74.6582231  28.5546900  69.2956097
  68.4543653  25.2728513  64.4771648  67.5294149  25.1404728  64.6849340
  68.7028066  26.0522733  64.9741591  78.4028315  21.3397257  66.1232381
  77.4945192  21.2712665  65.8291142  78.3515911  21.8169202  66.9514207
  72.2245059  22.8155395  57.7615780  72.1044684  23.2612446  58.6001261
  71.5297647  23.1640713  57.2029318  65.8152464  24.9161787  65.3115437
  65.9444845  25.1696266  66.2254849  65.1349915  25.5089495  64.9920092
  69.9851951  35.5859037  61.4105912  69.9075981  36.5366862  61.4894392
  69.3813595  35.2404909  62.0680838  72.4769181  22.7586902  74.0667278
  71.7002515  23.3180822  74.0570143  73.1159744  23.2443685  74.5882149
  80.2689962  19.5413695  67.9010255  79.6264342  19.8346228  67.2550050
  79.7644890  19.4266615  68.7063452  77.9230125  23.2876868  58.5896114
  78.8347981  23.5204255  58.4143812  77.4139772  23.8713913  58.0271193
  70.7315553  25.5672356  73.6285245  71.4730238  26.1057400  73.3520069
  70.0252539  26.1938644  73.7856797  76.2070893  27.7101496  72.2257407
  76.6154249  27.2683907  71.4812039  75.4848154  27.1354124  72.4791600
  72.5601963  22.6474103  69.5990964  73.4063158  23.0713517  69.7425613
  72.5000601  21.9907727  70.2929527  76.5299708  28.2702687  65.9809696
  75.9008570  28.4348401  65.2785764  76.1425370  28.6844296  66.7520660
  80.4088939  29.2057125  63.3354060  79.7239978  29.5856026  62.7851093
  80.4932789  29.8152451  64.0686007  75.7101408  20.3078471  71.2572137
  75.4662340  21.0620532  70.7206413  75.9861339  20.6863819  72.0919385
  77.6639871  26.8517084  69.9349403  77.8756766  27.4948844  69.2583784
  77.6169619  26.0179400  69.4671333  75.2666100  19.4634904  66.8385975
  74.4050579  19.7616158  67.1302713  75.2928535  19.6805303  65.9067008
  72.0827669  28.0077095  63.2459781  72.5466015  28.2864798  62.4564403
  71.8184467  27.1060539  63.0632872  68.9751750  27.5548576  66.1839544
  69.5453108  27.9835845  65.5457029  69.5659862  27.2731161  66.8823730
  71.0196555  24.1300247  60.0549346  71.7220599  24.5821291  60.5223272
  70.6877184  23.4884066  60.6829239  69.4676917  22.7212004  74.4300555
  68.8375578  23.4028285  74.6635952  69.3613005  22.6095085  73.4853694
  64.7621889  22.3883800  65.3566480  63.9720943  22.6441328  64.8806590
  65.2533137  23.2032138  65.4618520  78.7785699  29.7289039  68.1071760
  79.6003143  29.3269226  67.8254442  78.7748102  29.6257273  69.0587876
  66.7136635  22.7528379  62.3149956  65.9167798  22.8647073  62.8333452
  66.4862227  23.0915031  61.4490847  72.5442302  29.2773082  70.2632471
  72.6086735  29.7393490  71.0990643  71.8353226  28.6470447  70.3914781
  63.0459592  22.6414290  67.7881470  63.2967631  23.5261300  68.0539046
  63.5819141  22.4618892  67.0156562  86.8691692  26.0727788  64.4556732
  86.1155400  25.5035186  64.3000736  87.0039233  26.0390452  65.4027367
  72.2590320  30.9441190  60.1311451  72.1235995  31.7892726  60.5596299
  72.8000133  31.1460468  59.3677385  68.7457660  17.0232770  76.7925806
  68.3524605  16.4698968  77.4673451  69.5623800  17.3343348  77.1832324
  65.7119717  28.4616628  60.7039376  66.2244238  29.2559878  60.8544941
  66.3642430  27.7642918  60.6372978  67.5214602  31.5782384  62.7862130
  67.6981230  32.5000349  62.5983113  68.3171436  31.2640803  63.2156509
  71.6625621  18.4390649  74.3846063  72.4035334  19.0397802  74.3050526
  71.8943544  17.6968287  73.8264106  66.8066959  23.6247016  72.6624293
  66.6920474  22.7232273  72.9631392  65.9511476  23.8710713  72.3109109
  73.8858796  31.5664756  74.2611793  73.4422651  30.7801135  73.9432698
  74.5476010  31.7543907  73.5955684  68.6445918  33.0960558  68.7872472
  69.1953343  32.9677621  68.0149466  67.8057394  33.3955447  68.4367365
  75.9840035  31.8467556  72.2893195  75.9658510  32.6676437  71.7973464
  76.9059955  31.7221632  72.5143336  72.4413089  29.3611686  73.1316703
  72.9741425  28.5999974  72.9016011  71.9127170  29.0685338  73.8740857
  75.6082784  14.4671752  68.6610345  75.2647053  15.3573393  68.5849455
  75.9761746  14.2773409  67.7979930  63.6768634  26.7905282  61.4798947
  64.5143856  27.2002291  61.2632655  63.8546902  25.8504724  61.4499141
  75.5733066  24.4580363  57.1682780  75.0579690  25.2284968  57.4071167
  75.3010375  23.7845499  57.7915841  73.1580177  19.3030064  62.2268018
  72.3021774  18.9136914  62.0473657  73.5707129  19.3822024  61.3667804
  74.6879324  16.8376407  66.6259578  74.1844120  16.8006542  65.8127383
  74.9809931  17.7469150  66.6856235  70.9322210  16.9215137  65.6325760
  71.7975207  16.7257945  65.2731649  70.9999719  16.6925488  66.5595116
  80.5467340  27.2112718  59.1035953  79.7696783  26.8723877  58.6591115
  81.2258821  27.2165341  58.4290918  75.3619370  22.3307455  58.9942561
  75.0569505  22.6453604  59.8452704  76.3149812  22.4088875  59.0369894
  73.8065801  28.4897678  60.6435515  73.2787163  27.7550438  60.3308752
  73.3053304  29.2672355  60.3975483  78.7858647  26.6846699  65.7602561
  78.1282322  27.3745960  65.8482690  79.5899047  27.0743131  66.1036548
  68.5384529  19.1517345  63.0042127  69.1128281  18.9292526  62.2715319
  69.1255511  19.2206039  63.7570728  77.5964106  25.0391071  63.8106503
  78.1095988  25.6721063  64.3128213  78.2465330  24.4392267  63.4449863
  68.8654116  21.1821806  57.0238012  68.0291428  21.5196492  57.3447287
  68.7258886  21.0470785  56.0865149  70.8407197  16.0258593  61.7317196
  70.1871609  15.7107611  61.1073811  70.7987671  15.4034334  62.4577019
  71.9518402  26.3077889  53.6470488  71.0445463  26.0767142  53.8461637
  72.4489434  25.5115508  53.8344470  74.8586480  35.0175396  56.5667174
  74.1848179  35.3207092  57.1752132  75.2452302  35.8204476  56.2172631
  74.0744937  22.5140527  66.0564844  73.1567498  22.7355474  65.8986532
  74.4905081  22.5886837  65.1976551  74.8579985  23.9131943  61.1867524
  75.6051804  24.4253340  60.8774646  75.1271574  23.5915995  62.0471917
  73.1306635  26.4090483  58.1694478  72.2217854  26.1249516  58.2666948
  73.1601719  26.8289562  57.3097785  78.3625902  30.0197073  61.9385646
  77.9088229  29.1787983  61.9950836  77.7319869  30.6558471  62.2760426
  77.3058822  20.9489059  63.1686313  76.5681579  20.4366445  63.4996556
  77.5585595  20.5089441  62.3569590  76.8058842  31.8573570  62.8735464
  77.0981816  32.4178627  62.1547829  77.3157462  32.1502131  63.6288623
  77.4070449  13.7265311  63.7628082  77.7129326  12.8662674  63.4753997
  78.1323054  14.3182931  63.5627076  63.6994805  24.1295998  62.1509680
  63.5019205  23.5365358  61.4260747  63.1441469  23.8248208  62.8685619
  71.6791529  24.0219104  64.2704273  71.7340139  23.0692940  64.1946750
  70.8682731  24.1778543  64.7545572  72.8282723  27.9499227  55.5082557
  72.3902153  27.2335086  55.0488194  73.5693164  28.1775342  54.9467648
  69.6183889  22.6396164  62.0294652  68.8051754  22.9390334  62.4359844
  70.1142883  22.2451853  62.7469135  71.7692467  32.6353921  63.9628917
  71.7268646  32.8614767  63.0337449  72.6855166  32.4017295  64.1114718
  75.2158101  23.1037988  70.8609546  75.5707488  23.3309461  71.7204012
  75.8630232  23.4356365  70.2386802  80.9455838  26.2256424  61.5658875
  80.8073736  26.4158020  60.6380064  80.5892056  26.9875807  62.0226926
  69.1097964  20.2114519  67.6455887  69.7497343  20.0703278  66.9478851
  68.2775494  19.9249033  67.2694489  80.9725217  28.2932951  66.5770147
  81.4061724  28.2008240  67.4253201  81.6856798  28.2690452  65.9390163
  69.8858268  29.5116950  63.7590880  70.6798866  29.0167270  63.5573455
  69.1749960  28.9834813  63.3958585  74.7053112  31.8935045  68.1103247
  74.7590134  32.4625982  68.8780963  73.8367893  32.0636930  67.7457284
  66.1941031  23.6560031  59.8350632  65.2638619  23.5944487  60.0520595
  66.2898503  23.1335984  59.0387274  66.1126580  20.1814844  62.4228874
  66.3733397  21.0960178  62.3138035  66.9343752  19.7139287  62.5725487
  67.5851505  21.5952601  69.5927699  68.2574559  21.3869964  68.9440348
  66.7581292  21.3974687  69.1532931  81.8340767  28.3356652  69.1103032
  82.0276657  29.2402462  69.3562307  81.7341385  27.8764071  69.9441617
  73.4877077  18.2214542  71.6093359  72.8404993  18.9204492  71.5157836
  74.2578093  18.6550686  71.9769608  76.8955875  28.4863395  74.6843913
  76.7441382  28.2573946  73.7673996  76.8860555  29.4433996  74.6975258
  73.6641212  26.0595307  69.6690179  74.5933272  26.2106467  69.4959147
  73.2432242  26.1479328  68.8138826  72.4629544  30.0845972  67.4388717
  72.3240629  29.7164756  68.3114655  71.6744140  30.5993611  67.2672675
  73.0577696  35.1855068  58.7814253  73.2329451  34.7143111  59.5959876
  72.3710484  35.8120834  59.0095514  74.0134759  29.4627574  64.8277555
  73.6784591  29.4228344  65.7235205  73.5138704  28.7972290  64.3547965
  67.9879003  24.8695204  70.3530136  67.8498801  24.1375443  70.9541675
  68.8983926  24.7804105  70.0714324  76.9493950  26.8083609  55.1014614
  76.3323121  26.0830437  55.0047667  76.4810439  27.5692969  54.7581689
  70.6161303  24.5815164  69.8413815  71.3260922  23.9408356  69.8000434
  70.5730612  24.8328059  70.7639996  78.6048082  31.5182517  72.7620395
  78.5460628  30.8341737  72.0950978  79.0067600  32.2601507  72.3101021
  69.3290237  21.5680382  71.6609455  68.7927594  21.1171120  72.3131051
  68.7406946  21.7026290  70.9179919  67.6238781  38.3344431  65.5554114
  67.8635379  38.9662955  66.2333132  66.7807977  37.9832471  65.8419473
  68.7392496  21.0269033  54.2235919  67.8621963  20.9057834  53.8598165
  69.2150249  20.2355111  53.9714807  78.6065489  29.4822101  70.9934374
  77.7192268  29.1448023  71.1160773  79.1764040  28.7505132  71.2303140
  60.2594636  25.8146193  64.3177426  60.9465676  25.5007923  63.7298441
  60.1042765  26.7187557  64.0444677  65.0629359  20.7036389  68.7462449
  64.9787547  20.0962059  68.0112859  64.2412065  21.1945408  68.7471946
  72.1366643  34.1423553  67.9595618  72.0636814  34.9478525  68.4714922
  71.6944036  34.3415519  67.1343639  71.9256422  33.3795323  61.4698439
  71.1423944  33.9217004  61.5636664  72.6249168  33.8969303  61.8692680
  75.2353072  19.1889953  64.1132644  75.7321772  18.4359915  63.7933715
  74.4640054  19.2254270  63.5475854  83.0882830  24.8930318  65.7550936
  83.0772706  25.7755034  65.3844869  82.2200209  24.5401869  65.5605473
  74.5965326  34.0410387  70.1153776  75.3093298  34.6757852  70.0429678
  74.1055355  34.1374253  69.2993778  76.3182853  27.9461640  61.6871068
  75.3839132  28.0663103  61.5175772  76.4959522  27.0434107  61.4231078
  71.8188041  21.3307336  63.8404329  71.4485829  20.7778376  64.5285235
  72.3147134  20.7265469  63.2879329  79.7055404  23.7878959  62.2221102
  80.1715857  24.6206951  62.1481405  80.1562905  23.3223941  62.9266360
  69.6477240  31.7904831  70.9359347  70.3486699  32.4241314  71.0888741
  69.1772355  32.1319562  70.1754986  77.7731636  30.1322781  59.2207254
  78.0491480  30.0179375  60.1301128  76.9036134  29.7340266  59.1819427
  77.6772067  16.1559546  66.2612003  76.7635147  16.3863773  66.4294210
  78.1065169  16.2397990  67.1126036  77.4478526  24.3449438  68.7611897
  76.7949976  24.5925346  68.1064350  77.8258906  23.5313577  68.4274375
  74.4085700  34.3809131  62.8640068  74.5908094  33.5630787  63.3267820
  75.2318686  34.5976824  62.4264958  74.7427865  33.3077317  60.1255116
  75.2715632  32.7969771  59.5125278  75.0056085  32.9919847  60.9900649
  73.4966099  25.0869249  75.2477934  72.8206736  24.9863379  75.9180310
  74.3193733  24.9308463  75.7113932  65.2444958  31.3241186  67.8690450
  65.8298395  30.5784874  68.0018354  65.0469796  31.6345143  68.7527114
  68.0983613  34.3592433  62.8852892  67.4293988  34.8438561  62.4016932
  67.9596483  34.6061654  63.7996271  59.8362613  23.8946786  66.5894893
  59.8746712  23.3610377  67.3832011  59.3302905  23.3681992  65.9705870
  72.2388882  36.3936177  69.4835550  72.7907190  36.5567798  70.2484636
  72.5795075  36.9840615  68.8115575  67.2153375  18.7411327  70.0857435
  67.2794701  19.6026158  69.6734833  67.1520495  18.1285328  69.3529794
  66.6905647  20.8134459  73.7330469  67.3177686  20.4311536  74.3467994
  65.8333566  20.5948661  74.0986162  77.0899756  31.2197434  75.3384205
  77.6339660  31.8327393  74.8439160  76.5086601  31.7777013  75.8551218
  63.4671190  22.6210888  59.6648824  63.7624631  21.7121567  59.6115878
  62.5659226  22.5998628  59.3429827  75.3757269  34.3418152  66.4699233
  75.2508408  33.5407892  65.9610178  76.0336360  34.8364346  65.9813203
  66.9965437  20.6966885  65.6476373  66.2752023  21.3102853  65.5083846
  67.7858693  21.2324650  65.5693019  77.4392177  32.1427172  68.0978783
  76.4922513  32.0232524  68.0257109  77.7874950  31.2549670  68.1805044
  69.7991751  18.0321311  71.9217025  70.3226152  18.2783608  72.6843334
  69.5804084  18.8641346  71.5020162  65.1959032  20.3024986  59.7888149
  64.8671738  19.4222365  59.6063255  65.5498402  20.2472655  60.6764539
  74.4438611  31.9379889  64.2983135  74.2963573  31.0096596  64.4790705
  75.2692104  31.9599979  63.8140210  68.3100855  20.5897956  60.1563627
  68.6496927  21.1183877  59.4342235  68.7572975  20.9278362  60.9322194
  78.0472732  32.7608447  65.3848008  78.9719280  32.5551309  65.2472459
  77.8788036  32.5124849  66.2937349  71.0044296  18.9735006  69.6066695
  70.6641116  18.1742820  70.0087375  70.2983302  19.2736717  69.0343528
  71.6560768  16.0584319  68.0594018  72.4786837  15.5844797  67.9372908
  71.8998831  16.8374803  68.5592704  70.2969002  19.0872577  58.3556920
  71.0177365  19.4653830  57.8520637  69.6734306  19.8061454  58.4591898
  74.4400125  19.7917726  59.2915252  74.6563739  20.6742364  58.9904080
  73.9594192  19.4003940  58.5620894  69.1799346  22.7503440  65.8685997
  69.0343927  23.0643743  66.7610278  68.7024550  23.3688340  65.3156895
  71.0395729  19.7405988  65.9166886  71.0257298  18.8447081  65.5799184
  71.7568157  19.7476651  66.5505172  72.8921860  20.1743328  67.9620014
  72.6339638  21.0960398  67.9604344  72.3606900  19.7773762  68.6520478
  77.8368049  33.2794115  60.7410099  78.0104926  32.7140537  59.9883952
  78.3296940  34.0795010  60.5589589  63.6545008  25.2908784  68.8073658
  63.1098477  26.0668592  68.9393932  64.5324358  25.6379588  68.6492779
  70.4432625  18.6220368  61.1854456  70.5648536  17.6937014  61.3845344
  70.1534667  18.6359054  60.2732772  73.3123816  16.3075278  64.3221176
  73.3345512  16.3714611  63.3673156  73.7291875  15.4679787  64.5161682
  83.6907440  26.0430538  62.3600399  84.1338586  25.2937863  61.9619522
  82.8133950  26.0340674  61.9774131  78.8243221  32.5960879  57.8406997
  79.5194126  33.2167572  58.0594312  79.1666371  31.7456230  58.1159375
  64.4411030  24.4178680  71.7003815  63.6992766  24.5661316  72.2868445
  64.1203775  24.6786946  70.8370564  80.7234644  30.0460585  59.3694328
  81.2485968  30.3847858  58.6443648  80.6356997  29.1107600  59.1857463
  72.3854693  33.9594658  71.4984205  72.6941819  33.7143805  72.3706904
  73.1830175  34.1641297  71.0103075  72.4075305  36.1132568  63.7289581
  71.9680295  35.6208947  64.4222438  73.1583422  35.5705536  63.4881657
  64.8867644  32.3044109  63.7314209  65.7125664  32.0047881  63.3512853
  64.5361696  31.5351731  64.1803998  69.8549177  31.6570577  65.8011883
  69.2329186  30.9941282  65.5014111  70.5254044  31.6831709  65.1185531
  63.0876249  30.2230435  64.6903143  62.2508157  29.7952610  64.5087144
  63.0599894  30.4162879  65.6273934  69.9273705  20.1352365  75.3944389
  69.9761860  21.0114488  75.0122159  70.4696219  19.5929758  74.8216032
  80.4128550  30.6793488  74.6745526  79.6224094  30.6617627  74.1350026
  80.1761905  31.2181782  75.4294563  80.5326425  27.5285955  71.9878255
  80.5824430  27.3635962  72.9293777  80.4240349  26.6613214  71.5976135
  69.4162684  30.2074500  59.2770344  69.5650804  30.8909965  58.6237016
  70.2229128  30.1879591  59.7919799  77.8230188  23.5116883  73.3037561
  78.7240051  23.3723348  73.0121559  77.8978162  23.6771338  74.2435739
  72.1572993  20.8883738  72.1490748  71.2876303  21.1817304  71.8773336
  72.3932473  21.4724183  72.8698011  82.0344622  29.9482896  72.2320276
  81.7429431  30.3112877  73.0683737  81.4216753  29.2349905  72.0533608
  83.2340305  27.5135776  64.7522846  84.0687196  27.9525580  64.9160407
  83.3699433  27.0374429  63.9331092  80.2831810  25.0715511  70.7000334
  80.7585932  25.2643157  69.8919186  79.3597376  25.1274697  70.4543718
  67.1715317  26.2339678  60.2831412  66.9261359  25.3302008  60.4811623
  67.3411232  26.2356829  59.3410890  74.8612027  17.1063354  69.6656168
  75.3793971  17.8424381  69.3402657  74.5067160  17.4127348  70.5002927
  66.4410965  21.9668036  57.7817574  65.7480210  22.0412391  57.1257610
  66.1962716  21.2028379  58.3039091  75.1124621  13.5263637  65.1857065
  75.3926375  12.8586826  65.8117491  75.8975228  13.7192733  64.6731729
  72.9158090  32.7022631  56.7482091  72.3432057  33.3212818  56.2952563
  73.4890883  33.2521993  57.2822013  78.9833479  21.9481271  68.9328640
  79.9350902  22.0479369  68.9540864  78.8136930  21.1559540  69.4426724
  77.0047859  19.0336854  69.1188041  76.4097791  19.3141867  68.4234529
  76.7197556  19.5230755  69.8904782  76.1355349  32.9859781  57.8790673
  77.0686023  32.9205343  58.0823549  76.0478562  33.8216048  57.4205206
  78.7643366  32.3025651  54.8394621  78.6856998  31.9685515  55.7330379
  79.5853033  32.7947419  54.8386093  81.4621557  25.1687391  68.0470939
  81.4297877  24.2303391  68.2330623  82.0722181  25.2471427  67.3136764
  73.3004888  24.0383444  54.0898143  74.2463993  23.9089652  54.1586562
  72.9219133  23.2998106  54.5667572  81.6116046  21.9598434  68.0929223
  81.0955094  21.1756891  67.9059151  82.4955994  21.6317151  68.2575742
  79.2726773  15.7039450  64.0525035  79.0751594  15.3954538  64.9368367
  79.8826478  16.4301089  64.1822965  87.2798107  26.2303398  67.1876976
  88.0101496  25.9688686  67.7484680  86.6705053  25.4932119  67.2279044
  85.3613404  24.3711260  67.7851427  84.6346568  24.2367225  67.1767919
  84.9460691  24.6788089  68.5908145  73.1843581  28.0901190  75.5498800
  74.1046590  28.2679789  75.7438847  73.1493164  27.1457235  75.3978500
  71.4847805  21.9633420  54.0253029  70.5779261  21.6666533  54.1015742
  71.7623786  21.6663238  53.1587315  62.4025746  23.2839783  64.4752075
  62.0828530  22.4305092  64.1826449  61.8559174  23.4988362  65.2310042
  66.1805653  26.0002224  68.1921582  66.3991663  26.9319332  68.2109615
  66.5931427  25.6410199  68.9776385  73.1009871  16.5070310  60.1797270
  72.2910599  16.1617395  60.5552516  73.7894288  16.1977854  60.7684882
  75.0300419  15.5848357  61.8021567  75.5831458  16.0043810  62.4611590
  75.2670506  14.6584105  61.8444523  71.0533518  21.5735430  77.5824331
  70.9530245  22.5229787  77.5136422  70.8355061  21.2453669  76.7100401
  70.2546590  18.8220355  54.1665008  71.1165754  19.1475254  54.4260825
  70.4396934  18.0351851  53.6538074  62.2714006  26.9042695  66.4445197
  61.5777477  26.4896648  65.9315151  63.0186997  26.9463231  65.8478616
  78.4079226  17.6948882  61.3100231  77.8277895  18.3533686  60.9278283
  78.1415159  16.8726226  60.8987648  76.8582793  17.0953939  63.5121551
  77.3582571  17.2070474  62.7035870  77.5018401  16.7914992  64.1522360
  70.9164789  25.0032569  76.3989392  70.4331870  25.8032929  76.6053281
  71.0025728  25.0140514  75.4456836  64.1850748  26.8360949  64.3211212
  64.1621436  26.9348636  63.3693095  64.4951385  27.6826100  64.6428378
  66.8438126  28.8937104  68.4357826  67.7981380  28.8621046  68.3687758
  66.6450650  28.4327728  69.2508052  67.4337508  27.4638220  71.0028624
  68.2530397  27.9582298  71.0263461  67.7074316  26.5470188  70.9746191
  77.1904104  19.8548972  60.3656579  76.3029959  20.1398623  60.1476774
  77.6058093  19.6942735  59.5183856  80.5418641  19.8795493  64.0810918
  81.3179031  20.3691946  64.3535535  79.8166775  20.3053547  64.5382788
  82.9791199  20.5923112  65.1384859  83.5735690  20.3518848  64.4278167
  83.0517783  19.8730243  65.7658395  65.1988355  34.4356723  65.4528024
  65.0642823  33.6757124  64.8866022  64.7820417  35.1597623  64.9856813
  76.3347318  29.6193647  54.4604599  77.0383168  29.8243649  55.0762255
  75.6109967  30.1870409  54.7253683  77.1645128  25.3703508  60.5806869
  77.1080330  25.8272059  59.7414502  77.7173471  24.6094193  60.4029712
  80.9749934  21.1593240  61.4056989  80.7186868  20.7589876  62.2365197
  80.3502802  21.8737034  61.2807128  85.2862272  23.8989313  63.9128280
  84.7261830  23.9682502  64.6859842  84.6805775  23.7230298  63.1927776
  68.3557481  35.3326040  65.6646467  68.2389865  36.2771473  65.5625157
  67.5349927  35.0299602  66.0532266  78.2434015  30.0576176  56.5103059
  79.0779619  29.6257374  56.3280534  78.0818358  29.8858190  57.4379954
  77.8979907  26.5608289  57.8759399  77.8428711  26.3952561  56.9347843
  77.2725963  27.2684322  58.0321588  62.6872422  21.7976354  71.7020821
  63.3331286  21.2875308  72.1908046  62.4789574  22.5345035  72.2764246
  75.2125815  28.8657201  77.2012961  76.0816974  29.0397853  76.8399596
  74.7332566  29.6851618  77.0788691  71.2076033  16.0616398  57.4544717
  71.1954703  17.0058238  57.6112988  72.0999455  15.8786544  57.1604178
  69.3811995  35.9854302  68.8802395  70.2839242  36.0177912  69.1968890
  69.1549365  35.0554753  68.8948731  71.1365597  34.7385289  65.5412474
  70.1861228  34.7387150  65.4276846  71.4398083  33.9918023  65.0248508
  75.0228152  12.6559175  61.7090654  74.2560548  12.1017662  61.8547336
  75.4338857  12.7281044  62.5704805  67.0269913  18.9443971  75.7995835
  67.8901375  18.5880776  76.0099160  66.4535324  18.6057866  76.4871239
  86.8718290  40.5745827  66.6058236  87.5096700  40.4552574  65.9021576
  86.7539133  41.5226671  66.6646188  83.6807997  40.5273255  66.5419761
  83.3426508  40.4114320  65.6540295  84.5497765  40.1264420  66.5220767
  79.5394812  42.3808732  62.5316652  78.9759677  42.2898669  61.7632939
  79.4247207  41.5608636  63.0119144  84.1627780  41.6808107  72.5005966
  84.1516420  41.2860905  71.6286470  84.3248419  40.9474180  73.0939738
  77.0859244  43.8759923  65.3700872  77.8780536  43.5350748  64.9547171
  77.3255894  43.9854898  66.2903025  85.1194371  46.0479699  57.8431116
  84.4682351  46.6333780  57.4565130  85.9138734  46.5785894  57.9026154
  79.0449998  43.1368836  58.2418251  79.8180874  42.5897824  58.1031127
  79.3975397  44.0013086  58.4532712  80.8835041  44.4645219  71.4485150
  80.5924907  45.3690850  71.3331816  81.5192025  44.5061746  72.1629220
  81.8091248  41.8422067  68.0386510  82.4054820  41.6178090  67.3243473
  81.8666219  41.1006813  68.6411958  81.3816276  39.2961503  55.8736701
  81.6341797  38.7743024  55.1120164  80.4440835  39.1327648  55.9763384
  86.4259559  38.2997281  63.6811444  87.2122648  37.8816704  63.3301861
  86.6898263  39.2043373  63.8493092  86.5969636  43.7370131  58.3800101
  85.9615469  43.8104758  59.0921005  86.2667043  44.3263730  57.7019180
  91.8267986  38.2372514  64.5844422  92.5593158  37.6671731  64.8182252
  91.0707342  37.8494115  65.0250928  81.1012565  41.1989609  58.0761076
  80.9848823  40.5234512  58.7442160  81.2114825  40.7121982  57.2593229
  83.4444106  40.6599756  61.7807765  83.0802313  40.1330377  62.4920686
  84.3011222  40.2698225  61.6074250  89.3493406  31.9494088  69.0439031
  89.0176731  32.8189499  68.8200246  88.7539020  31.6330372  69.7233061
  83.0849593  35.6889655  56.7769113  83.2523995  36.5569892  57.1439585
  82.8946762  35.8516937  55.8530403  85.8424926  44.1506634  68.4434944
  85.5425649  45.0531673  68.3350751  85.4975985  43.8838817  69.2956097
  79.2937407  40.6020431  64.4771648  78.3687904  40.4696645  64.6849340
  79.5421821  41.3814650  64.9741591  89.2422070  36.6689174  66.1232381
  88.3338947  36.6004583  65.8291142  89.1909665  37.1461119  66.9514207
  83.0638814  38.1447313  57.7615780  82.9438439  38.5904364  58.6001261
  82.3691402  38.4932631  57.2029318  76.6546218  40.2453705  65.3115437
  76.7838600  40.4988184  66.2254849  75.9743670  40.8381413  64.9920092
  80.8245706  50.9150955  61.4105912  80.7469735  51.8658780  61.4894392
  80.2207349  50.5696827  62.0680838  83.3162935  38.0878820  74.0667278
  82.5396269  38.6472740  74.0570143  83.9553498  38.5735603  74.5882149
  91.1083716  34.8705613  67.9010255  90.4658096  35.1638146  67.2550050
  90.6038645  34.7558533  68.7063452  88.7623880  38.6168786  58.5896114
  89.6741736  38.8496173  58.4143812  88.2533527  39.2005830  58.0271193
  81.5709308  40.8964273  73.6285245  82.3123992  41.4349317  73.3520069
  80.8646293  41.5230562  73.7856797  87.0464647  43.0393414  72.2257407
  87.4548003  42.5975824  71.4812039  86.3241909  42.4646041  72.4791600
  83.3995717  37.9766021  69.5990964  84.2456913  38.4005434  69.7425613
  83.3394355  37.3199645  70.2929527  87.3693462  43.5994604  65.9809696
  86.7402324  43.7640319  65.2785764  86.9819124  44.0136214  66.7520660
  91.2482694  44.5349042  63.3354060  90.5633732  44.9147944  62.7851093
  91.3326543  45.1444369  64.0686007  86.5495163  35.6370389  71.2572137
  86.3056095  36.3912450  70.7206413  86.8255093  36.0155737  72.0919385
  88.5033625  42.1809001  69.9349403  88.7150521  42.8240761  69.2583784
  88.4563374  41.3471318  69.4671333  86.1059854  34.7926822  66.8385975
  85.2444333  35.0908076  67.1302713  86.1322289  35.0097221  65.9067008
  82.9221424  43.3369013  63.2459781  83.3859769  43.6156716  62.4564403
  82.6578222  42.4352457  63.0632872  79.8145505  42.8840494  66.1839544
  80.3846862  43.3127762  65.5457029  80.4053617  42.6023079  66.8823730
  81.8590310  39.4592165  60.0549346  82.5614353  39.9113209  60.5223272
  81.5270938  38.8175984  60.6829239  80.3070671  38.0503922  74.4300555
  79.6769332  38.7320202  74.6635952  80.2006759  37.9387003  73.4853694
  75.6015644  37.7175718  65.3566480  74.8114698  37.9733246  64.8806590
  76.0926891  38.5324055  65.4618520  89.6179453  45.0580957  68.1071760
  90.4396897  44.6561144  67.8254442  89.6141856  44.9549191  69.0587876
  77.5530389  38.0820297  62.3149956  76.7561553  38.1938991  62.8333452
  77.3255981  38.4206949  61.4490847  83.3836057  44.6065000  70.2632471
  83.4480489  45.0685407  71.0990643  82.6746981  43.9762365  70.3914781
  73.8853347  37.9706208  67.7881470  74.1361385  38.8553218  68.0539046
  74.4212895  37.7910810  67.0156562  97.7085446  41.4019705  64.4556732
  96.9549155  40.8327103  64.3000736  97.8432988  41.3682370  65.4027367
  83.0984075  46.2733108  60.1311451  82.9629749  47.1184643  60.5596299
  83.6393887  46.4752385  59.3677385  79.5851414  32.3524687  76.7925806
  79.1918360  31.7990886  77.4673451  80.4017555  32.6635266  77.1832324
  76.5513472  43.7908546  60.7039376  77.0637993  44.5851796  60.8544941
  77.2036185  43.0934836  60.6372978  78.3608357  46.9074302  62.7862130
  78.5374985  47.8292267  62.5983113  79.1565190  46.5932721  63.2156509
  82.5019375  33.7682567  74.3846063  83.2429089  34.3689720  74.3050526
  82.7337298  33.0260204  73.8264106  77.6460713  38.9538934  72.6624293
  77.5314228  38.0524191  72.9631392  76.7905231  39.2002631  72.3109109
  84.7252551  46.8956674  74.2611793  84.2816405  46.1093053  73.9432698
  85.3869765  47.0835825  73.5955684  79.4839672  48.4252476  68.7872472
  80.0347097  48.2969539  68.0149466  78.6451148  48.7247365  68.4367365
  86.8233789  47.1759474  72.2893195  86.8052264  47.9968355  71.7973464
  87.7453709  47.0513549  72.5143336  83.2806843  44.6903603  73.1316703
  83.8135180  43.9291892  72.9016011  82.7520924  44.3977255  73.8740857
  86.4476538  29.7963669  68.6610345  86.1040808  30.6865311  68.5849455
  86.8155501  29.6065327  67.7979930  74.5162389  42.1197200  61.4798947
  75.3537611  42.5294208  61.2632655  74.6940656  41.1796642  61.4499141
  86.4126821  39.7872281  57.1682780  85.8973444  40.5576885  57.4071167
  86.1404129  39.1137417  57.7915841  83.9973932  34.6321981  62.2268018
  83.1415528  34.2428832  62.0473657  84.4100884  34.7113942  61.3667804
  85.5273079  32.1668325  66.6259578  85.0237874  32.1298460  65.8127383
  85.8203685  33.0761067  66.6856235  81.7715964  32.2507054  65.6325760
  82.6368961  32.0549863  65.2731649  81.8393473  32.0217406  66.5595116
  91.3861095  42.5404635  59.1035953  90.6090538  42.2015795  58.6591115
  92.0652576  42.5457258  58.4290918  86.2013124  37.6599373  58.9942561
  85.8963260  37.9745522  59.8452704  87.1543566  37.7380793  59.0369894
  84.6459556  43.8189596  60.6435515  84.1180917  43.0842356  60.3308752
  84.1447059  44.5964272  60.3975483  89.6252402  42.0138616  65.7602561
  88.9676076  42.7037878  65.8482690  90.4292801  42.4035048  66.1036548
  79.3778283  34.4809262  63.0042127  79.9522035  34.2584444  62.2715319
  79.9649266  34.5497957  63.7570728  88.4357861  40.3682989  63.8106503
  88.9489742  41.0012981  64.3128213  89.0859085  39.7684185  63.4449863
  79.7047871  36.5113723  57.0238012  78.8685183  36.8488410  57.3447287
  79.5652640  36.3762703  56.0865149  81.6800951  31.3550511  61.7317196
  81.0265364  31.0399528  61.1073811  81.6381425  30.7326252  62.4577019
  82.7912156  41.6369806  53.6470488  81.8839218  41.4059060  53.8461637
  83.2883188  40.8407425  53.8344470  85.6980235  50.3467313  56.5667174
  85.0241934  50.6499010  57.1752132  86.0846057  51.1496394  56.2172631
  84.9138692  37.8432445  66.0564844  83.9961253  38.0647392  65.8986532
  85.3298835  37.9178755  65.1976551  85.6973739  39.2423860  61.1867524
  86.4445558  39.7545258  60.8774646  85.9665329  38.9207913  62.0471917
  83.9700389  41.7382401  58.1694478  83.0611609  41.4541434  58.2666948
  83.9995473  42.1581480  57.3097785  89.2019657  45.3488991  61.9385646
  88.7481984  44.5079900  61.9950836  88.5713624  45.9850389  62.2760426
  88.1452576  36.2780977  63.1686313  87.4075333  35.7658363  63.4996556
  88.3979350  35.8381358  62.3569590  87.6452596  47.1865487  62.8735464
  87.9375571  47.7470544  62.1547829  88.1551217  47.4794048  63.6288623
  88.2464204  29.0557229  63.7628082  88.5523081  28.1954592  63.4753997
  88.9716809  29.6474849  63.5627076  74.5388560  39.4587915  62.1509680
  74.3412960  38.8657276  61.4260747  73.9835224  39.1540125  62.8685619
  82.5185284  39.3511022  64.2704273  82.5733893  38.3984858  64.1946750
  81.7076486  39.5070461  64.7545572  83.6676477  43.2791145  55.5082557
  83.2295907  42.5627004  55.0488194  84.4086918  43.5067260  54.9467648
  80.4577643  37.9688081  62.0294652  79.6445509  38.2682252  62.4359844
  80.9536638  37.5743770  62.7469135  82.6086221  47.9645838  63.9628917
  82.5662400  48.1906685  63.0337449  83.5248920  47.7309213  64.1114718
  86.0551855  38.4329906  70.8609546  86.4101243  38.6601379  71.7204012
  86.7023986  38.7648283  70.2386802  91.7849592  41.5548342  61.5658875
  91.6467491  41.7449938  60.6380064  91.4285811  42.3167725  62.0226926
  79.9491718  35.5406437  67.6455887  80.5891098  35.3995196  66.9478851
  79.1169249  35.2540950  67.2694489  91.8118972  43.6224869  66.5770147
  92.2455478  43.5300158  67.4253201  92.5250552  43.5982369  65.9390163
  80.7252022  44.8408867  63.7590880  81.5192621  44.3459188  63.5573455
  80.0143714  44.3126731  63.3958585  85.5446867  47.2226963  68.1103247
  85.5983889  47.7917899  68.8780963  84.6761648  47.3928848  67.7457284
  77.0334786  38.9851949  59.8350632  76.1032374  38.9236405  60.0520595
  77.1292258  38.4627902  59.0387274  76.9520335  35.5106762  62.4228874
  77.2127152  36.4252095  62.3138035  77.7737507  35.0431205  62.5725487
  78.4245260  36.9244519  69.5927699  79.0968313  36.7161881  68.9440348
  77.5975046  36.7266605  69.1532931  92.6734521  43.6648569  69.1103032
  92.8670411  44.5694380  69.3562307  92.5735139  43.2055989  69.9441617
  84.3270832  33.5506460  71.6093359  83.6798747  34.2496410  71.5157836
  85.0971847  33.9842604  71.9769608  87.7349630  43.8155312  74.6843913
  87.5835136  43.5865864  73.7673996  87.7254309  44.7725914  74.6975258
  84.5034966  41.3887225  69.6690179  85.4327026  41.5398385  69.4959147
  84.0825996  41.4771246  68.8138826  83.3023298  45.4137889  67.4388717
  83.1634384  45.0456674  68.3114655  82.5137894  45.9285529  67.2672675
  83.8971450  50.5146986  58.7814253  84.0723206  50.0435029  59.5959876
  83.2104238  51.1412752  59.0095514  84.8528513  44.7919492  64.8277555
  84.5178346  44.7520262  65.7235205  84.3532459  44.1264208  64.3547965
  78.8272757  40.1987122  70.3530136  78.6892555  39.4667361  70.9541675
  79.7377681  40.1096022  70.0714324  87.7887705  42.1375526  55.1014614
  87.1716876  41.4122355  55.0047667  87.3204193  42.8984887  54.7581689
  81.4555058  39.9107081  69.8413815  82.1654676  39.2700274  69.8000434
  81.4124366  40.1619976  70.7639996  89.4441837  46.8474435  72.7620395
  89.3854383  46.1633655  72.0950978  89.8461355  47.5893425  72.3101021
  80.1683992  36.8972299  71.6609455  79.6321349  36.4463038  72.3131051
  79.5800700  37.0318208  70.9179919  78.4632535  53.6636349  65.5554114
  78.7029134  54.2954873  66.2333132  77.6201732  53.3124389  65.8419473
  79.5786251  36.3560951  54.2235919  78.7015717  36.2349751  53.8598165
  80.0544004  35.5647029  53.9714807  89.4459244  44.8114019  70.9934374
  88.5586023  44.4739940  71.1160773  90.0157795  44.0797050  71.2303140
  71.0988391  41.1438110  64.3177426  71.7859431  40.8299840  63.7298441
  70.9436520  42.0479475  64.0444677  75.9023113  36.0328307  68.7462449
  75.8181302  35.4253977  68.0112859  75.0805819  36.5237325  68.7471946
  82.9760397  49.4715471  67.9595618  82.9030569  50.2770443  68.4714922
  82.5337790  49.6707437  67.1343639  82.7650177  48.7087241  61.4698439
  81.9817699  49.2508921  61.5636664  83.4642922  49.2261221  61.8692680
  86.0746827  34.5181871  64.1132644  86.5715526  33.7651833  63.7933715
  85.3033808  34.5546187  63.5475854  93.9276584  40.2222236  65.7550936
  93.9166461  41.1046951  65.3844869  93.0593964  39.8693787  65.5605473
  85.4359081  49.3702305  70.1153776  86.1487053  50.0049770  70.0429678
  84.9449109  49.4666171  69.2993778  87.1576608  43.2753558  61.6871068
  86.2232886  43.3955020  61.5175772  87.3353276  42.3726025  61.4231078
  82.6581796  36.6599254  63.8404329  82.2879583  36.1070294  64.5285235
  83.1540888  36.0557387  63.2879329  90.5449159  39.1170877  62.2221102
  91.0109611  39.9498869  62.1481405  90.9956659  38.6515859  62.9266360
  80.4870994  47.1196749  70.9359347  81.1880454  47.7533232  71.0888741
  80.0166109  47.4611480  70.1754986  88.6125390  45.4614698  59.2207254
  88.8885234  45.3471293  60.1301128  87.7429889  45.0632183  59.1819427
  88.5165822  31.4851464  66.2612003  87.6028902  31.7155691  66.4294210
  88.9458923  31.5689908  67.1126036  88.2872280  39.6741356  68.7611897
  87.6343730  39.9217263  68.1064350  88.6652660  38.8605494  68.4274375
  85.2479454  49.7101049  62.8640068  85.4301849  48.8922705  63.3267820
  86.0712440  49.9268741  62.4264958  85.5821620  48.6369234  60.1255116
  86.1109386  48.1261689  59.5125278  85.8449839  48.3211765  60.9900649
  84.3359853  40.4161167  75.2477934  83.6600490  40.3155296  75.9180310
  85.1587487  40.2600381  75.7113932  76.0838712  46.6533104  67.8690450
  76.6692149  45.9076791  68.0018354  75.8863551  46.9637060  68.7527114
  78.9377368  49.6884351  62.8852892  78.2687743  50.1730479  62.4016932
  78.7990237  49.9353571  63.7996271  70.6756367  39.2238704  66.5894893
  70.7140467  38.6902294  67.3832011  70.1696660  38.6973909  65.9705870
  83.0782636  51.7228095  69.4835550  83.6300944  51.8859716  70.2484636
  83.4188830  52.3132532  68.8115575  78.0547129  34.0703244  70.0857435
  78.1188456  34.9318075  69.6734833  77.9914250  33.4577246  69.3529794
  77.5299402  36.1426377  73.7330469  78.1571441  35.7603454  74.3467994
  76.6727321  35.9240579  74.0986162  87.9293510  46.5489352  75.3384205
  88.4733414  47.1619310  74.8439160  87.3480355  47.1068930  75.8551218
  74.3064945  37.9502806  59.6648824  74.6018386  37.0413484  59.6115878
  73.4052980  37.9290545  59.3429827  86.2151023  49.6710070  66.4699233
  86.0902163  48.8699810  65.9610178  86.8730115  50.1656263  65.9813203
  77.8359192  36.0258803  65.6476373  77.1145777  36.6394770  65.5083846
  78.6252447  36.5616567  65.5693019  88.2785932  47.4719090  68.0978783
  87.3316267  47.3524441  68.0257109  88.6268705  46.5841588  68.1805044
  80.6385505  33.3613229  71.9217025  81.1619907  33.6075526  72.6843334
  80.4197838  34.1933264  71.5020162  76.0352786  35.6316904  59.7888149
  75.7065492  34.7514283  59.6063255  76.3892157  35.5764572  60.6764539
  85.2832365  47.2671806  64.2983135  85.1357328  46.3388514  64.4790705
  86.1085859  47.2891897  63.8140210  79.1494609  35.9189873  60.1563627
  79.4890682  36.4475795  59.4342235  79.5966730  36.2570280  60.9322194
  88.8866487  48.0900365  65.3848008  89.8113034  47.8843226  65.2472459
  88.7181790  47.8416766  66.2937349  81.8438050  34.3026924  69.6066695
  81.5034871  33.5034737  70.0087375  81.1377056  34.6028635  69.0343528
  82.4954522  31.3876237  68.0594018  83.3180591  30.9136715  67.9372908
  82.7392586  32.1666720  68.5592704  81.1362757  34.4164495  58.3556920
  81.8571119  34.7945748  57.8520637  80.5128061  35.1353372  58.4591898
  85.2793879  35.1209644  59.2915252  85.4957494  36.0034282  58.9904080
  84.7987947  34.7295857  58.5620894  80.0193101  38.0795357  65.8685997
  79.8737682  38.3935660  66.7610278  79.5418304  38.6980258  65.3156895
  81.8789484  35.0697905  65.9166886  81.8651052  34.1738998  65.5799184
  82.5961912  35.0768569  66.5505172  83.7315614  35.5035245  67.9620014
  83.4733392  36.4252316  67.9604344  83.2000655  35.1065680  68.6520478
  88.6761803  48.6086033  60.7410099  88.8498681  48.0432455  59.9883952
  89.1690694  49.4086927  60.5589589  74.4938763  40.6200702  68.8073658
  73.9492231  41.3960510  68.9393932  75.3718113  40.9671506  68.6492779
  81.2826380  33.9512285  61.1854456  81.4042291  33.0228932  61.3845344
  80.9928422  33.9650971  60.2732772  84.1517570  31.6367196  64.3221176
  84.1739267  31.7006529  63.3673156  84.5685629  30.7971705  64.5161682
  94.5301194  41.3722455  62.3600399  94.9732340  40.6229781  61.9619522
  93.6527705  41.3632592  61.9774131  89.6636976  47.9252797  57.8406997
  90.3587880  48.5459490  58.0594312  90.0060126  47.0748148  58.1159375
  75.2804785  39.7470598  71.7003815  74.5386521  39.8953233  72.2868445
  74.9597529  40.0078863  70.8370564  91.5628399  45.3752502  59.3694328
  92.0879723  45.7139775  58.6443648  91.4750751  44.4399518  59.1857463
  83.2248447  49.2886576  71.4984205  83.5335574  49.0435723  72.3706904
  84.0223929  49.4933215  71.0103075  83.2469060  51.4424486  63.7289581
  82.8074050  50.9500864  64.4222438  83.9977176  50.8997453  63.4881657
  75.7261398  47.6336027  63.7314209  76.5519418  47.3339798  63.3512853
  75.3755450  46.8643649  64.1803998  80.6942932  46.9862495  65.8011883
  80.0722941  46.3233200  65.5014111  81.3647799  47.0123627  65.1185531
  73.9270004  45.5522353  64.6903143  73.0901912  45.1244527  64.5087144
  73.8993649  45.7454796  65.6273934  80.7667459  35.4644283  75.3944389
  80.8155615  36.3406406  75.0122159  81.3089973  34.9221676  74.8216032
  91.2522305  46.0085406  74.6745526  90.4617849  45.9909545  74.1350026
  91.0155659  46.5473700  75.4294563  91.3720180  42.8577872  71.9878255
  91.4218185  42.6927880  72.9293777  91.2634103  41.9905131  71.5976135
  80.2556439  45.5366418  59.2770344  80.4044559  46.2201883  58.6237016
  81.0622882  45.5171508  59.7919799  88.6623942  38.8408800  73.3037561
  89.5633805  38.7015265  73.0121559  88.7371917  39.0063255  74.2435739
  82.9966748  36.2175655  72.1490748  82.1270057  36.5109221  71.8773336
  83.2326228  36.8016100  72.8698011  92.8738377  45.2774814  72.2320276
  92.5823185  45.6404795  73.0683737  92.2610508  44.5641822  72.0533608
  94.0734059  42.8427694  64.7522846  94.9080950  43.2817498  64.9160407
  94.2093188  42.3666347  63.9331092  91.1225565  40.4007429  70.7000334
  91.5979687  40.5935075  69.8919186  90.1991130  40.4566614  70.4543718
  78.0109072  41.5631596  60.2831412  77.7655113  40.6593926  60.4811623
  78.1804986  41.5648746  59.3410890  85.7005781  32.4355272  69.6656168
  86.2187725  33.1716299  69.3402657  85.3460914  32.7419265  70.5002927
  77.2804719  37.2959953  57.7817574  76.5873964  37.3704308  57.1257610
  77.0356471  36.5320297  58.3039091  85.9518376  28.8555555  65.1857065
  86.2320129  28.1878744  65.8117491  86.7368983  29.0484650  64.6731729
  83.7551844  48.0314549  56.7482091  83.1825811  48.6504736  56.2952563
  84.3284638  48.5813910  57.2822013  89.8227234  37.2773189  68.9328640
  90.7744657  37.3771286  68.9540864  89.6530684  36.4851457  69.4426724
  87.8441613  34.3628772  69.1188041  87.2491546  34.6433785  68.4234529
  87.5591310  34.8522673  69.8904782  86.9749104  48.3151699  57.8790673
  87.9079777  48.2497260  58.0823549  86.8872317  49.1507966  57.4205206
  89.6037121  47.6317569  54.8394621  89.5250752  47.2977433  55.7330379
  90.4246787  48.1239337  54.8386093  92.3015312  40.4979308  68.0470939
  92.2691632  39.5595309  68.2330623  92.9115935  40.5763345  67.3136764
  84.1398643  39.3675361  54.0898143  85.0857747  39.2381569  54.1586562
  83.7612888  38.6290023  54.5667572  92.4509800  37.2890352  68.0929223
  91.9348849  36.5048808  67.9059151  93.3349749  36.9609068  68.2575742
  90.1120527  31.0331367  64.0525035  89.9145348  30.7246456  64.9368367
  90.7220233  31.7593006  64.1822965  98.1191862  41.5595315  67.1876976
  98.8495250  41.2980603  67.7484680  97.5098807  40.8224037  67.2279044
  96.2007159  39.7003178  67.7851427  95.4740322  39.5659143  67.1767919
  95.7854446  40.0080006  68.5908145  84.0237335  43.4193107  75.5498800
  84.9440345  43.5971706  75.7438847  83.9886918  42.4749153  75.3978500
  82.3241560  37.2925338  54.0253029  81.4173015  36.9958450  54.1015742
  82.6017541  36.9955156  53.1587315  73.2419500  38.6131701  64.4752075
  72.9222284  37.7597009  64.1826449  72.6952928  38.8280279  65.2310042
  77.0199408  41.3294142  68.1921582  77.2385417  42.2611250  68.2109615
  77.4325181  40.9702117  68.9776385  83.9403625  31.8362227  60.1797270
  83.1304354  31.4909312  60.5552516  84.6288042  31.5269771  60.7684882
  85.8694174  30.9140274  61.8021567  86.4225212  31.3335728  62.4611590
  86.1064260  29.9876022  61.8444523  81.8927273  36.9027348  77.5824331
  81.7924000  37.8521705  77.5136422  81.6748815  36.5745587  76.7100401
  81.0940344  34.1512273  54.1665008  81.9559508  34.4767171  54.4260825
  81.2790689  33.3643769  53.6538074  73.1107760  42.2334613  66.4445197
  72.4171232  41.8188565  65.9315151  73.8580751  42.2755149  65.8478616
  89.2472981  33.0240799  61.3100231  88.6671650  33.6825603  60.9278283
  88.9808914  32.2018144  60.8987648  87.6976547  32.4245857  63.5121551
  88.1976326  32.5362392  62.7035870  88.3412155  32.1206910  64.1522360
  81.7558543  40.3324487  76.3989392  81.2725625  41.1324847  76.6053281
  81.8419482  40.3432432  75.4456836  75.0244503  42.1652866  64.3211212
  75.0015191  42.2640554  63.3693095  75.3345139  43.0118017  64.6428378
  77.6831881  44.2229021  68.4357826  78.6375134  44.1912964  68.3687758
  77.4844404  43.7619645  69.2508052  78.2731263  42.7930137  71.0028624
  79.0924152  43.2874216  71.0263461  78.5468070  41.8762106  70.9746191
  88.0297859  35.1840890  60.3656579  87.1423714  35.4690540  60.1476774
  88.4451848  35.0234653  59.5183856  91.3812395  35.2087411  64.0810918
  92.1572785  35.6983863  64.3535535  90.6560529  35.6345465  64.5382788
  93.8184954  35.9215030  65.1384859  94.4129444  35.6810766  64.4278167
  93.8911537  35.2022161  65.7658395  76.0382109  49.7648641  65.4528024
  75.9036577  49.0049042  64.8866022  75.6214172  50.4889541  64.9856813
  87.1741072  44.9485564  54.4604599  87.8776922  45.1535567  55.0762255
  86.4503721  45.5162326  54.7253683  88.0038883  40.6995426  60.5806869
  87.9474084  41.1563977  59.7414502  88.5567225  39.9386110  60.4029712
  91.8143689  36.4885158  61.4056989  91.5580623  36.0881793  62.2365197
  91.1896557  37.2028952  61.2807128  96.1256026  39.2281231  63.9128280
  95.5655584  39.2974420  64.6859842  95.5199530  39.0522215  63.1927776
  79.1951235  50.6617958  65.6646467  79.0783619  51.6063390  65.5625157
  78.3743681  50.3591520  66.0532266  89.0827770  45.3868094  56.5103059
  89.9173374  44.9549292  56.3280534  88.9212113  45.2150107  57.4379954
  88.7373662  41.8900207  57.8759399  88.6822466  41.7244478  56.9347843
  88.1119717  42.5976240  58.0321588  73.5266177  37.1268271  71.7020821
  74.1725041  36.6167225  72.1908046  73.3183328  37.8636953  72.2764246
  86.0519569  44.1949119  77.2012961  86.9210729  44.3689771  76.8399596
  85.5726321  45.0143536  77.0788691  82.0469787  31.3908316  57.4544717
  82.0348457  32.3350156  57.6112988  82.9393209  31.2078461  57.1604178
  80.2205749  51.3146220  68.8802395  81.1232996  51.3469830  69.1968890
  79.9943119  50.3846671  68.8948731  81.9759351  50.0677206  65.5412474
  81.0254982  50.0679068  65.4276846  82.2791837  49.3209941  65.0248508
  85.8621907  27.9851093  61.7090654  85.0954303  27.4309579  61.8547336
  86.2732612  28.0572961  62.5704805  77.8663668  34.2735888  75.7995835
  78.7295129  33.9172693  76.0099160  77.2929079  33.9349783  76.4871239
  97.7112045  55.9037745  66.6058236  98.3490455  55.7844492  65.9021576
  97.5932888  56.8518589  66.6646188  94.5201751  55.8565173  66.5419761
  94.1820263  55.7406238  65.6540295  95.3891519  55.4556338  66.5220767
  90.3788567  57.7100649  62.5316652  89.8153432  57.6190586  61.7632939
  90.2640962  56.8900554  63.0119144  95.0021534  57.0100025  72.5005966
  94.9910175  56.6152823  71.6286470  95.1642174  56.2766097  73.0939738
  87.9252999  59.2051841  65.3700872  88.7174291  58.8642666  64.9547171
  88.1649649  59.3146816  66.2903025  95.9588126  61.3771617  57.8431116
  95.3076105  61.9625697  57.4565130  96.7532488  61.9077812  57.9026154
  89.8843753  58.4660754  58.2418251  90.6574629  57.9189741  58.1031127
  90.2369152  59.3305003  58.4532712  91.7228795  59.7937136  71.4485150
  91.4318661  60.6982767  71.3331816  92.3585780  59.8353664  72.1629220
  92.6485002  57.1713985  68.0386510  93.2448574  56.9470007  67.3243473
  92.7059974  56.4298730  68.6411958  92.2210030  54.6253420  55.8736701
  92.4735551  54.1034942  55.1120164  91.2834590  54.4619566  55.9763384
  97.2653313  53.6289199  63.6811444  98.0516403  53.2108622  63.3301861
  97.5292018  54.5335291  63.8493092  97.4363391  59.0662049  58.3800101
  96.8009224  59.1396675  59.0921005  97.1060797  59.6555648  57.7019180
 102.6661740  53.5664432  64.5844422 103.3986912  52.9963649  64.8182252
 101.9101096  53.1786032  65.0250928  91.9406319  56.5281526  58.0761076
  91.8242577  55.8526430  58.7442160  92.0508579  56.0413900  57.2593229
  94.2837860  55.9891673  61.7807765  93.9196067  55.4622294  62.4920686
  95.1404976  55.5990142  61.6074250 100.1887161  47.2786006  69.0439031
  99.8570486  48.1481417  68.8200246  99.5932774  46.9622290  69.7233061
  93.9243347  51.0181573  56.7769113  94.0917749  51.8861809  57.1439585
  93.7340516  51.1808855  55.8530403  96.6818680  59.4798552  68.4434944
  96.3819403  60.3823591  68.3350751  96.3369740  59.2130735  69.2956097
  90.1331162  55.9312349  64.4771648  89.2081658  55.7988563  64.6849340
  90.3815575  56.7106568  64.9741591 100.0815824  51.9981092  66.1232381
  99.1732701  51.9296501  65.8291142 100.0303420  52.4753037  66.9514207
  93.9032568  53.4739231  57.7615780  93.7832193  53.9196281  58.6001261
  93.2085156  53.8224548  57.2029318  87.4939973  55.5745622  65.3115437
  87.6232354  55.8280101  66.2254849  86.8137424  56.1673330  64.9920092
  91.6639460  66.2442872  61.4105912  91.5863490  67.1950697  61.4894392
  91.0601104  65.8988745  62.0680838  94.1556690  53.4170738  74.0667278
  93.3790024  53.9764658  74.0570143  94.7947253  53.9027521  74.5882149
 101.9477471  50.1997531  67.9010255 101.3051851  50.4930064  67.2550050
 101.4432399  50.0850451  68.7063452  99.6017634  53.9460704  58.5896114
 100.5135490  54.1788090  58.4143812  99.0927281  54.5297748  58.0271193
  92.4103062  56.2256191  73.6285245  93.1517747  56.7641235  73.3520069
  91.7040048  56.8522480  73.7856797  97.8858402  58.3685332  72.2257407
  98.2941758  57.9267742  71.4812039  97.1635663  57.7937959  72.4791600
  94.2389472  53.3057938  69.5990964  95.0850667  53.7297352  69.7425613
  94.1788110  52.6491563  70.2929527  98.2087216  58.9286522  65.9809696
  97.5796079  59.0932236  65.2785764  97.8212879  59.3428132  66.7520660
 102.0876448  59.8640960  63.3354060 101.4027487  60.2439861  62.7851093
 102.1720298  60.4736287  64.0686007  97.3888917  50.9662307  71.2572137
  97.1449849  51.7204367  70.7206413  97.6648848  51.3447654  72.0919385
  99.3427380  57.5100919  69.9349403  99.5544275  58.1532679  69.2583784
  99.2957128  56.6763236  69.4671333  96.9453609  50.1218740  66.8385975
  96.0838088  50.4199993  67.1302713  96.9716044  50.3389139  65.9067008
  93.7615178  58.6660930  63.2459781  94.2253524  58.9448633  62.4564403
  93.4971976  57.7644375  63.0632872  90.6539259  58.2132412  66.1839544
  91.2240616  58.6419680  65.5457029  91.2447371  57.9314996  66.8823730
  92.6984064  54.7884083  60.0549346  93.4008108  55.2405126  60.5223272
  92.3664693  54.1467901  60.6829239  91.1464426  53.3795839  74.4300555
  90.5163087  54.0612120  74.6635952  91.0400514  53.2678921  73.4853694
  86.4409398  53.0467635  65.3566480  85.6508452  53.3025164  64.8806590
  86.9320646  53.8615973  65.4618520 100.4573208  60.3872874  68.1071760
 101.2790652  59.9853062  67.8254442 100.4535611  60.2841109  69.0587876
  88.3924144  53.4112215  62.3149956  87.5955307  53.5230909  62.8333452
  88.1649736  53.7498867  61.4490847  94.2229811  59.9356918  70.2632471
  94.2874244  60.3977325  71.0990643  93.5140735  59.3054283  70.3914781
  84.7247101  53.2998126  67.7881470  84.9755140  54.1845136  68.0539046
  85.2606650  53.1202727  67.0156562 108.5479201  56.7311623  64.4556732
 107.7942909  56.1619021  64.3000736 108.6826742  56.6974287  65.4027367
  93.9377829  61.6025025  60.1311451  93.8023504  62.4476561  60.5596299
  94.4787642  61.8044303  59.3677385  90.4245169  47.6816605  76.7925806
  90.0312114  47.1282804  77.4673451  91.2411309  47.9927184  77.1832324
  87.3907226  59.1200463  60.7039376  87.9031747  59.9143714  60.8544941
  88.0429939  58.4226754  60.6372978  89.2002111  62.2366220  62.7862130
  89.3768739  63.1584184  62.5983113  89.9958945  61.9224639  63.2156509
  93.3413130  49.0974484  74.3846063  94.0822843  49.6981637  74.3050526
  93.5731052  48.3552122  73.8264106  88.4854468  54.2830851  72.6624293
  88.3707983  53.3816109  72.9631392  87.6298985  54.5294548  72.3109109
  97.2870293  45.1255587  68.6610345  96.9434562  46.0157229  68.5849455
  97.6549255  44.9357245  67.7979930  97.2520575  55.1164198  57.1682780
  96.7367199  55.8868803  57.4071167  96.9797884  54.4429334  57.7915841
  94.8367686  49.9613899  62.2268018  93.9809283  49.5720749  62.0473657
  95.2494638  50.0405860  61.3667804  96.3666833  47.4960242  66.6259578
  95.8631629  47.4590377  65.8127383  96.6597440  48.4052985  66.6856235
  92.6109719  47.5798972  65.6325760  93.4762716  47.3841781  65.2731649
  92.6787228  47.3509324  66.5595116 102.2254849  57.8696553  59.1035953
 101.4484292  57.5307712  58.6591115 102.9046330  57.8749176  58.4290918
  97.0406878  52.9891290  58.9942561  96.7357014  53.3037440  59.8452704
  97.9937321  53.0672710  59.0369894  95.4853310  59.1481514  60.6435515
  94.9574672  58.4134273  60.3308752  94.9840813  59.9256190  60.3975483
 100.4646156  57.3430534  65.7602561  99.8069831  58.0329796  65.8482690
 101.2686556  57.7326966  66.1036548  90.2172038  49.8101180  63.0042127
  90.7915790  49.5876361  62.2715319  90.8043020  49.8789874  63.7570728
  99.2751615  55.6974907  63.8106503  99.7883497  56.3304899  64.3128213
  99.9252839  55.0976102  63.4449863  90.5441625  51.8405641  57.0238012
  89.7078937  52.1780327  57.3447287  90.4046395  51.7054621  56.0865149
  92.5194706  46.6842429  61.7317196  91.8659118  46.3691446  61.1073811
  92.4775180  46.0618169  62.4577019  93.6305911  56.9661724  53.6470488
  92.7232972  56.7350977  53.8461637  94.1276943  56.1699343  53.8344470
  96.5373989  65.6759231  56.5667174  95.8635688  65.9790928  57.1752132
  96.9239811  66.4788311  56.2172631  95.7532446  53.1724362  66.0564844
  94.8355007  53.3939309  65.8986532  96.1692590  53.2470673  65.1976551
  96.5367494  54.5715778  61.1867524  97.2839313  55.0837175  60.8774646
  96.8059083  54.2499831  62.0471917  94.8094144  57.0674319  58.1694478
  93.9005363  56.7833352  58.2666948  94.8389228  57.4873397  57.3097785
 100.0413411  60.6780908  61.9385646  99.5875738  59.8371818  61.9950836
  99.4107378  61.3142307  62.2760426  98.9846331  51.6072894  63.1686313
  98.2469088  51.0950281  63.4996556  99.2373104  51.1673276  62.3569590
  98.4846351  62.5157405  62.8735464  98.7769325  63.0762462  62.1547829
  98.9944971  62.8085966  63.6288623  99.0857958  44.3849146  63.7628082
  99.3916835  43.5246510  63.4753997  99.8110563  44.9766766  63.5627076
  85.3782314  54.7879833  62.1509680  85.1806714  54.1949194  61.4260747
  84.8228978  54.4832043  62.8685619  93.3579038  54.6802939  64.2704273
  93.4127648  53.7276776  64.1946750  92.5470240  54.8362378  64.7545572
  94.5070232  58.6083062  55.5082557  94.0689662  57.8918921  55.0488194
  95.2480673  58.8359177  54.9467648  91.2971398  53.2979999  62.0294652
  90.4839263  53.5974170  62.4359844  91.7930392  52.9035688  62.7469135
  93.4479976  63.2937756  63.9628917  93.4056155  63.5198602  63.0337449
  94.3642675  63.0601131  64.1114718  96.8945610  53.7621824  70.8609546
  97.2494997  53.9893297  71.7204012  97.5417741  54.0940200  70.2386802
 102.6243347  56.8840259  61.5658875 102.4861245  57.0741855  60.6380064
 102.2679565  57.6459642  62.0226926  90.7885473  50.8698355  67.6455887
  91.4284852  50.7287114  66.9478851  89.9563003  50.5832868  67.2694489
 102.6512726  58.9516786  66.5770147 103.0849233  58.8592076  67.4253201
 103.3644307  58.9274287  65.9390163  91.5645777  60.1700785  63.7590880
  92.3586375  59.6751105  63.5573455  90.8537469  59.6418648  63.3958585
  96.3840621  62.5518881  68.1103247  96.4377643  63.1209817  68.8780963
  95.5155402  62.7220766  67.7457284  87.8728540  54.3143867  59.8350632
  86.9426128  54.2528322  60.0520595  87.9686012  53.7919820  59.0387274
  87.7914089  50.8398680  62.4228874  88.0520906  51.7544013  62.3138035
  88.6131261  50.3723122  62.5725487  89.2639014  52.2536437  69.5927699
  89.9362068  52.0453799  68.9440348  88.4368801  52.0558523  69.1532931
 103.5128276  58.9940487  69.1103032 103.7064166  59.8986298  69.3562307
 103.4128894  58.5347906  69.9441617  95.1664586  48.8798378  71.6093359
  94.5192501  49.5788327  71.5157836  95.9365602  49.3134522  71.9769608
  98.5743384  59.1447230  74.6843913  98.4228891  58.9157782  73.7673996
  98.5648064  60.1017831  74.6975258  95.3428721  56.7179143  69.6690179
  96.2720781  56.8690302  69.4959147  94.9219751  56.8063163  68.8138826
  94.1417053  60.7429807  67.4388717  94.0028138  60.3748591  68.3114655
  93.3531649  61.2577446  67.2672675  94.7365205  65.8438904  58.7814253
  94.9116960  65.3726947  59.5959876  94.0497993  66.4704670  59.0095514
  95.6922268  60.1211410  64.8277555  95.3572100  60.0812180  65.7235205
  95.1926213  59.4556126  64.3547965  89.6666512  55.5279040  70.3530136
  89.5286310  54.7959279  70.9541675  90.5771435  55.4387940  70.0714324
  98.6281459  57.4667444  55.1014614  98.0110630  56.7414272  55.0047667
  98.1597948  58.2276804  54.7581689  92.2948812  55.2398999  69.8413815
  93.0048431  54.5992191  69.8000434  92.2518121  55.4911894  70.7639996
 100.2835591  62.1766352  72.7620395 100.2248137  61.4925573  72.0950978
 100.6855109  62.9185342  72.3101021  91.0077746  52.2264217  71.6609455
  90.4715103  51.7754955  72.3131051  90.4194455  52.3610126  70.9179919
  90.4180005  51.6852868  54.2235919  89.5409472  51.5641669  53.8598165
  90.8937758  50.8938947  53.9714807 100.2852998  60.1405936  70.9934374
  99.3979777  59.8031858  71.1160773 100.8551549  59.4088968  71.2303140
  86.7416868  51.3620225  68.7462449  86.6575056  50.7545894  68.0112859
  85.9199574  51.8529243  68.7471946  93.6043931  64.0379159  61.4698439
  92.8211453  64.5800839  61.5636664  94.3036676  64.5553138  61.8692680
  96.9140581  49.8473788  64.1132644  97.4109281  49.0943751  63.7933715
  96.1427563  49.8838105  63.5475854 104.7670339  55.5514154  65.7550936
 104.7560215  56.4338869  65.3844869 103.8987718  55.1985705  65.5605473
  97.9970362  58.6045475  61.6871068  97.0626641  58.7246938  61.5175772
  98.1747031  57.7017942  61.4231078  93.4975550  51.9891171  63.8404329
  93.1273338  51.4362212  64.5285235  93.9934643  51.3849305  63.2879329
 101.3842913  54.4462795  62.2221102 101.8503366  55.2790786  62.1481405
 101.8350414  53.9807776  62.9266360  91.3264749  62.4488666  70.9359347
  92.0274208  63.0825149  71.0888741  90.8559864  62.7903398  70.1754986
  99.4519145  60.7906616  59.2207254  99.7278988  60.6763211  60.1301128
  98.5823643  60.3924101  59.1819427  99.3559576  46.8143382  66.2612003
  98.4422656  47.0447609  66.4294210  99.7852678  46.8981826  67.1126036
  99.1266035  55.0033274  68.7611897  98.4737485  55.2509181  68.1064350
  99.5046415  54.1897412  68.4274375  96.4215374  63.9661152  60.1255116
  96.9503141  63.4553607  59.5125278  96.6843594  63.6503682  60.9900649
  95.1753608  55.7453085  75.2477934  94.4994245  55.6447214  75.9180310
  95.9981242  55.5892298  75.7113932  86.9232467  61.9825021  67.8690450
  87.5085904  61.2368709  68.0018354  86.7257305  62.2928978  68.7527114
  81.5150122  54.5530621  66.5894893  81.5534221  54.0194212  67.3832011
  81.0090414  54.0265827  65.9705870  88.8940884  49.3995162  70.0857435
  88.9582210  50.2609993  69.6734833  88.8308004  48.7869164  69.3529794
  88.3693156  51.4718295  73.7330469  88.9965195  51.0895372  74.3467994
  87.5121075  51.2532496  74.0986162  98.7687265  61.8781270  75.3384205
  99.3127169  62.4911228  74.8439160  98.1874110  62.4360848  75.8551218
  85.1458699  53.2794724  59.6648824  85.4412140  52.3705402  59.6115878
  84.2446735  53.2582463  59.3429827  88.6752946  51.3550720  65.6476373
  87.9539532  51.9686688  65.5083846  89.4646202  51.8908485  65.5693019
  99.1179686  62.8011008  68.0978783  98.1710022  62.6816359  68.0257109
  99.4662459  61.9133506  68.1805044  91.4779260  48.6905147  71.9217025
  92.0013661  48.9367443  72.6843334  91.2591593  49.5225182  71.5020162
  86.8746541  50.9608821  59.7888149  86.5459247  50.0806200  59.6063255
  87.2285911  50.9056490  60.6764539  96.1226120  62.5963724  64.2983135
  95.9751082  61.6680431  64.4790705  96.9479613  62.6183815  63.8140210
  89.9888364  51.2481791  60.1563627  90.3284436  51.7767712  59.4342235
  90.4360484  51.5862197  60.9322194  99.7260241  63.4192283  65.3848008
 100.6506789  63.2135144  65.2472459  99.5575545  63.1708684  66.2937349
  92.6831805  49.6318842  69.6066695  92.3428625  48.8326655  70.0087375
  91.9770811  49.9320553  69.0343528  93.3348277  46.7168154  68.0594018
  94.1574346  46.2428632  67.9372908  93.5786340  47.4958638  68.5592704
  91.9756511  49.7456413  58.3556920  92.6964874  50.1237665  57.8520637
  91.3521815  50.4645289  58.4591898  96.1187634  50.4501562  59.2915252
  96.3351248  51.3326200  58.9904080  95.6381701  50.0587775  58.5620894
  90.8586855  53.4087275  65.8685997  90.7131436  53.7227578  66.7610278
  90.3812059  54.0272175  65.3156895  92.7183238  50.3989823  65.9166886
  92.7044807  49.5030916  65.5799184  93.4355666  50.4060487  66.5505172
  94.5709369  50.8327163  67.9620014  94.3127147  51.7544234  67.9604344
  94.0394409  50.4357598  68.6520478  99.5155558  63.9377950  60.7410099
  99.6892435  63.3724373  59.9883952 100.0084449  64.7378845  60.5589589
  85.3332517  55.9492619  68.8073658  84.7885986  56.7252427  68.9393932
  86.2111867  56.2963424  68.6492779  92.1220134  49.2804203  61.1854456
  92.2436045  48.3520849  61.3845344  91.8322176  49.2942889  60.2732772
  94.9911324  46.9659114  64.3221176  95.0133021  47.0298447  63.3673156
  95.4079383  46.1263622  64.5161682 105.3694949  56.7014373  62.3600399
 105.8126095  55.9521698  61.9619522 104.4921459  56.6924509  61.9774131
 100.5030730  63.2544715  57.8406997 101.1981635  63.8751407  58.0594312
 100.8453880  62.4040066  58.1159375  86.1198539  55.0762516  71.7003815
  85.3780275  55.2245151  72.2868445  85.7991284  55.3370781  70.8370564
 102.4022153  60.7044420  59.3694328 102.9273477  61.0431693  58.6443648
 102.3144506  59.7691435  59.1857463  86.5655153  62.9627944  63.7314209
  87.3913173  62.6631716  63.3512853  86.2149205  62.1935567  64.1803998
  91.5336686  62.3154412  65.8011883  90.9116695  61.6525118  65.5014111
  92.2041553  62.3415544  65.1185531  91.6061214  50.7936201  75.3944389
  91.6549369  51.6698323  75.0122159  92.1483728  50.2513594  74.8216032
 102.0916059  61.3377324  74.6745526 101.3011603  61.3201463  74.1350026
 101.8549414  61.8765617  75.4294563 102.2113934  58.1869790  71.9878255
 102.2611939  58.0219798  72.9293777 102.1027858  57.3197049  71.5976135
  91.0950193  60.8658336  59.2770344  91.2438313  61.5493800  58.6237016
  91.9016637  60.8463426  59.7919799  99.5017697  54.1700718  73.3037561
 100.4027560  54.0307183  73.0121559  99.5765671  54.3355173  74.2435739
  93.8360502  51.5467573  72.1490748  92.9663811  51.8401139  71.8773336
  94.0719982  52.1308018  72.8698011 103.7132131  60.6066732  72.2320276
 103.4216939  60.9696712  73.0683737 103.1004262  59.8933740  72.0533608
 104.9127814  58.1719611  64.7522846 105.7474705  58.6109415  64.9160407
 105.0486942  57.6958265  63.9331092 101.9619319  55.7299346  70.7000334
 102.4373441  55.9226993  69.8919186 101.0384885  55.7858532  70.4543718
  88.8502826  56.8923513  60.2831412  88.6048868  55.9885843  60.4811623
  89.0198741  56.8940664  59.3410890  96.5399536  47.7647190  69.6656168
  97.0581480  48.5008217  69.3402657  96.1854669  48.0711183  70.5002927
  88.1198474  52.6251871  57.7817574  87.4267719  52.6996226  57.1257610
  87.8750225  51.8612215  58.3039091  96.7912130  44.1847472  65.1857065
  97.0713884  43.5170661  65.8117491  97.5762737  44.3776568  64.6731729
  94.5945599  63.3606466  56.7482091  94.0219566  63.9796653  56.2952563
  95.1678392  63.9105828  57.2822013 100.6620988  52.6065106  68.9328640
 101.6138411  52.7063204  68.9540864 100.4924439  51.8143375  69.4426724
  98.6835368  49.6920690  69.1188041  98.0885300  49.9725702  68.4234529
  98.3985065  50.1814591  69.8904782  97.8142858  63.6443616  57.8790673
  98.7473532  63.5789178  58.0823549  97.7266071  64.4799883  57.4205206
 100.4430875  62.9609487  54.8394621 100.3644507  62.6269350  55.7330379
 101.2640542  63.4531255  54.8386093 103.1409066  55.8271226  68.0470939
 103.1085386  54.8887227  68.2330623 103.7509690  55.9055263  67.3136764
  94.9792397  54.6967279  54.0898143  95.9251502  54.5673487  54.1586562
  94.6006642  53.9581941  54.5667572 103.2903555  52.6182269  68.0929223
 102.7742603  51.8340726  67.9059151 104.1743503  52.2900986  68.2575742
 100.9514282  46.3623285  64.0525035 100.7539103  46.0538373  64.9368367
 101.5613987  47.0884924  64.1822965 108.9585616  56.8887233  67.1876976
 109.6889005  56.6272521  67.7484680 108.3492562  56.1515955  67.2279044
 107.0400913  55.0295095  67.7851427 106.3134077  54.8951060  67.1767919
 106.6248200  55.3371924  68.5908145  93.1635314  52.6217255  54.0253029
  92.2566770  52.3250368  54.1015742  93.4411295  52.3247073  53.1587315
  84.0813255  53.9423619  64.4752075  83.7616039  53.0888927  64.1826449
  83.5346683  54.1572197  65.2310042  87.8593162  56.6586060  68.1921582
  88.0779172  57.5903168  68.2109615  88.2718936  56.2994034  68.9776385
  94.7797380  47.1654145  60.1797270  93.9698108  46.8201230  60.5552516
  95.4681797  46.8561689  60.7684882  96.7087928  46.2432192  61.8021567
  97.2618967  46.6627645  62.4611590  96.9458015  45.3167940  61.8444523
  92.7321027  52.2319266  77.5824331  92.6317754  53.1813623  77.5136422
  92.5142570  51.9037504  76.7100401  91.9334099  49.4804191  54.1665008
  92.7953263  49.8059089  54.4260825  92.1184443  48.6935687  53.6538074
  83.9501515  57.5626530  66.4445197  83.2564986  57.1480483  65.9315151
  84.6974506  57.6047067  65.8478616 100.0866735  48.3532717  61.3100231
  99.5065404  49.0117521  60.9278283  99.8202668  47.5310062  60.8987648
  98.5370302  47.7537775  63.5121551  99.0370080  47.8654309  62.7035870
  99.1805910  47.4498828  64.1522360  85.8638257  57.4944784  64.3211212
  85.8408945  57.5932471  63.3693095  86.1738894  58.3409935  64.6428378
  88.5225635  59.5520939  68.4357826  89.4768889  59.5204881  68.3687758
  88.3238159  59.0911563  69.2508052  89.1125017  58.1222055  71.0028624
  89.9317906  58.6166134  71.0263461  89.3861825  57.2054023  70.9746191
  98.8691613  50.5132807  60.3656579  97.9817468  50.7982458  60.1476774
  99.2845602  50.3526571  59.5183856 102.2206149  50.5379328  64.0810918
 102.9966540  51.0275781  64.3535535 101.4954284  50.9637383  64.5382788
 104.6578708  51.2506948  65.1384859 105.2523199  51.0102684  64.4278167
 104.7305292  50.5314078  65.7658395  98.0134827  60.2777482  54.4604599
  98.7170677  60.4827485  55.0762255  97.2897476  60.8454244  54.7253683
  98.8432637  56.0287343  60.5806869  98.7867838  56.4855895  59.7414502
  99.3960980  55.2678028  60.4029712 102.6537443  51.8177075  61.4056989
 102.3974377  51.4173711  62.2365197 102.0290311  52.5320869  61.2807128
 106.9649781  54.5573149  63.9128280 106.4049339  54.6266338  64.6859842
 106.3593284  54.3814133  63.1927776  99.9221524  60.7160011  56.5103059
 100.7567128  60.2841210  56.3280534  99.7605867  60.5442025  57.4379954
  99.5767416  57.2192125  57.8759399  99.5216220  57.0536396  56.9347843
  98.9513472  57.9268158  58.0321588  84.3659931  52.4560189  71.7020821
  85.0118795  51.9459143  72.1908046  84.1577083  53.1928871  72.2764246
  92.8863542  46.7200234  57.4544717  92.8742212  47.6642074  57.6112988
  93.7786964  46.5370379  57.1604178  92.8153106  65.3969124  65.5412474
  91.8648737  65.3970986  65.4276846  93.1185592  64.6501859  65.0248508
  96.7015661  43.3143010  61.7090654  95.9348057  42.7601497  61.8547336
  97.1126366  43.3864879  62.5704805  88.7057422  49.6027806  75.7995835
  89.5688884  49.2464611  76.0099160  88.1322833  49.2641701  76.4871239
 101.2182321  73.0392567  62.5316652 100.6547186  72.9482504  61.7632939
 101.1034716  72.2192471  63.0119144 106.7981880  76.7063535  57.8431116
 106.1469860  77.2917615  57.4565130 107.5926243  77.2369730  57.9026154
 100.7237507  73.7952672  58.2418251 101.4968383  73.2481659  58.1031127
 101.0762906  74.6596921  58.4532712 103.0603785  69.9545338  55.8736701
 103.3129306  69.4326859  55.1120164 102.1228344  69.7911483  55.9763384
 108.1047068  68.9581116  63.6811444 108.8910157  68.5400539  63.3301861
 108.3685772  69.8627208  63.8493092 108.2757145  74.3953967  58.3800101
 107.6402978  74.4688593  59.0921005 107.9454552  74.9847565  57.7019180
 113.5055495  68.8956350  64.5844422 114.2380667  68.3255566  64.8182252
 112.7494851  68.5077950  65.0250928 102.7800074  71.8573444  58.0761076
 102.6636332  71.1818347  58.7442160 102.8902334  71.3705818  57.2593229
 111.0280915  62.6077924  69.0439031 110.6964240  63.4773335  68.8200246
 110.4326529  62.2914208  69.7233061 104.7637102  66.3473491  56.7769113
 104.9311504  67.2153727  57.1439585 104.5734271  66.5100772  55.8530403
 110.9209579  67.3273010  66.1232381 110.0126456  67.2588418  65.8291142
 110.8697174  67.8044955  66.9514207 104.7426323  68.8031148  57.7615780
 104.6225948  69.2488199  58.6001261 104.0478911  69.1516466  57.2029318
 112.7871225  65.5289448  67.9010255 112.1445605  65.8221981  67.2550050
 112.2826154  65.4142369  68.7063452 110.4411389  69.2752621  58.5896114
 111.3529245  69.5080008  58.4143812 109.9321036  69.8589666  58.0271193
 108.2282672  66.2954224  71.2572137 107.9843604  67.0496285  70.7206413
 108.5042602  66.6739572  72.0919385 107.7847363  65.4510657  66.8385975
 106.9231842  65.7491911  67.1302713 107.8109798  65.6681056  65.9067008
 103.5377819  70.1176000  60.0549346 104.2401862  70.5697044  60.5223272
 103.2058447  69.4759819  60.6829239  99.2317898  68.7404132  62.3149956
  98.4349062  68.8522826  62.8333452  99.0043490  69.0790784  61.4490847
 119.3872955  72.0603541  64.4556732 118.6336664  71.4910939  64.3000736
 119.5220497  72.0266205  65.4027367 104.7771584  76.9316943  60.1311451
 104.6417258  77.7768479  60.5596299 105.3181396  77.1336221  59.3677385
 101.2638923  63.0108523  76.7925806 100.8705869  62.4574721  77.4673451
 102.0805063  63.3219101  77.1832324  98.2300981  74.4492381  60.7039376
  98.7425501  75.2435631  60.8544941  98.8823694  73.7518671  60.6372978
 104.1806884  64.4266402  74.3846063 104.9216598  65.0273555  74.3050526
 104.4124807  63.6844040  73.8264106 108.1264047  60.4547505  68.6610345
 107.7828316  61.3449146  68.5849455 108.4943010  60.2649162  67.7979930
 108.0914330  70.4456116  57.1682780 107.5760953  71.2160721  57.4071167
 107.8191638  69.7721252  57.7915841 105.6761441  65.2905817  62.2268018
 104.8203037  64.9012667  62.0473657 106.0888393  65.3697777  61.3667804
 107.2060587  62.8252160  66.6259578 106.7025383  62.7882295  65.8127383
 107.4991194  63.7344903  66.6856235 103.4503473  62.9090890  65.6325760
 104.3156470  62.7133698  65.2731649 103.5180982  62.6801241  66.5595116
 113.0648604  73.1988471  59.1035953 112.2878047  72.8599630  58.6591115
 113.7440085  73.2041094  58.4290918 107.8800633  68.3183208  58.9942561
 107.5750769  68.6329357  59.8452704 108.8331075  68.3964628  59.0369894
 106.3247065  74.4773431  60.6435515 105.7968426  73.7426191  60.3308752
 105.8234568  75.2548108  60.3975483 101.0565792  65.1393098  63.0042127
 101.6309544  64.9168279  62.2715319 101.6436775  65.2081792  63.7570728
 101.3835380  67.1697559  57.0238012 100.5472692  67.5072245  57.3447287
 101.2440149  67.0346538  56.0865149 103.3588460  62.0134346  61.7317196
 102.7052872  61.6983364  61.1073811 103.3168934  61.3910087  62.4577019
 104.4699665  72.2953642  53.6470488 103.5626727  72.0642895  53.8461637
 104.9670697  71.4991261  53.8344470 106.5926201  68.5016280  66.0564844
 105.6748762  68.7231227  65.8986532 107.0086344  68.5762591  65.1976551
 107.3761248  69.9007696  61.1867524 108.1233067  70.4129093  60.8774646
 107.6452838  69.5791748  62.0471917 105.6487898  72.3966236  58.1694478
 104.7399118  72.1125269  58.2666948 105.6782982  72.8165315  57.3097785
 110.8807166  76.0072826  61.9385646 110.4269493  75.1663736  61.9950836
 110.2501133  76.6434224  62.2760426 109.8240085  66.9364812  63.1686313
 109.0862842  66.4242198  63.4996556 110.0766859  66.4965194  62.3569590
 109.9251713  59.7141064  63.7628082 110.2310590  58.8538427  63.4753997
 110.6504318  60.3058684  63.5627076 105.3463986  73.9374980  55.5082557
 104.9083416  73.2210839  55.0488194 106.0874427  74.1651095  54.9467648
 102.1365152  68.6271917  62.0294652 101.3233018  68.9266087  62.4359844
 102.6324147  68.2327606  62.7469135 107.7339364  69.0913741  70.8609546
 108.0888752  69.3185214  71.7204012 108.3811495  69.4232118  70.2386802
 113.4637101  72.2132177  61.5658875 113.3255000  72.4033773  60.6380064
 113.1073320  72.9751560  62.0226926 101.6279227  66.1990272  67.6455887
 102.2678606  66.0579031  66.9478851 100.7956758  65.9124786  67.2694489
 102.4039531  75.4992703  63.7590880 103.1980130  75.0043023  63.5573455
 101.6931223  74.9710566  63.3958585  98.7122295  69.6435784  59.8350632
  97.7819883  69.5820240  60.0520595  98.8079767  69.1211737  59.0387274
 106.0058341  64.2090295  71.6093359 105.3586256  64.9080245  71.5157836
 106.7759356  64.6426439  71.9769608 109.4675214  72.7959362  55.1014614
 108.8504385  72.0706190  55.0047667 108.9991702  73.5568722  54.7581689
 101.2573760  67.0144786  54.2235919 100.3803226  66.8933587  53.8598165
 101.7331513  66.2230864  53.9714807 104.4437686  79.3671076  61.4698439
 103.6605208  79.9092757  61.5636664 105.1430431  79.8845056  61.8692680
 107.7534336  65.1765706  64.1132644 108.2503035  64.4235668  63.7933715
 106.9821317  65.2130023  63.5475854 115.6064093  70.8806071  65.7550936
 115.5953970  71.7630787  65.3844869 114.7381473  70.5277622  65.5605473
 104.3369305  67.3183089  63.8404329 103.9667092  66.7654129  64.5285235
 104.8328397  66.7141222  63.2879329 112.2236668  69.7754712  62.2221102
 112.6897120  70.6082704  62.1481405 112.6744168  69.3099694  62.9266360
 110.2912899  76.1198534  59.2207254 110.5672743  76.0055128  60.1301128
 109.4217398  75.7216019  59.1819427 110.1953331  62.1435299  66.2612003
 109.2816411  62.3739526  66.4294210 110.6246432  62.2273743  67.1126036
 109.9659789  70.3325191  68.7611897 109.3131239  70.5801099  68.1064350
 110.3440169  69.5189330  68.4274375 107.2609129  79.2953070  60.1255116
 107.7896895  78.7845524  59.5125278 107.5237348  78.9795600  60.9900649
  95.9852454  68.6086641  59.6648824  96.2805895  67.6997320  59.6115878
  95.0840489  68.5874381  59.3429827 102.3173014  64.0197064  71.9217025
 102.8407416  64.2659361  72.6843334 102.0985347  64.8517099  71.5020162
  97.7140295  66.2900739  59.7888149  97.3853001  65.4098118  59.6063255
  98.0679666  66.2348408  60.6764539 100.8282118  66.5773709  60.1563627
 101.1678191  67.1059630  59.4342235 101.2754239  66.9154115  60.9322194
 103.5225559  64.9610759  69.6066695 103.1822380  64.1618573  70.0087375
 102.8164565  65.2612470  69.0343528 104.1742031  62.0460072  68.0594018
 104.9968100  61.5720550  67.9372908 104.4180095  62.8250556  68.5592704
 102.8150266  65.0748330  58.3556920 103.5358628  65.4529583  57.8520637
 102.1915570  65.7937207  58.4591898 106.9581388  65.7793479  59.2915252
 107.1745003  66.6618117  58.9904080 106.4775456  65.3879693  58.5620894
 103.5576993  65.7281741  65.9166886 103.5438561  64.8322834  65.5799184
 104.2749421  65.7352404  66.5505172 105.4103123  66.1619081  67.9620014
 105.1520901  67.0836151  67.9604344 104.8788164  65.7649515  68.6520478
 110.3549312  79.2669868  60.7410099 110.5286190  78.7016290  59.9883952
 110.8478203  80.0670763  60.5589589 102.9613889  64.6096121  61.1854456
 103.0829800  63.6812767  61.3845344 102.6715931  64.6234807  60.2732772
 105.8305079  62.2951031  64.3221176 105.8526776  62.3590364  63.3673156
 106.2473138  61.4555540  64.5161682 116.2088703  72.0306291  62.3600399
 116.6519849  71.2813616  61.9619522 115.3315214  72.0216427  61.9774131
 102.4454968  66.1228118  75.3944389 102.4943124  66.9990241  75.0122159
 102.9877482  65.5805511  74.8216032 101.9343948  76.1950254  59.2770344
 102.0832068  76.8785718  58.6237016 102.7410391  76.1755344  59.7919799
 104.6754257  66.8759491  72.1490748 103.8057566  67.1693057  71.8773336
 104.9113737  67.4599936  72.8698011  99.6896581  72.2215431  60.2831412
  99.4442622  71.3177761  60.4811623  99.8592495  72.2232582  59.3410890
 107.3793290  63.0939108  69.6656168 107.8975234  63.8300134  69.3402657
 107.0248423  63.4003101  70.5002927  98.9592228  67.9543789  57.7817574
  98.2661473  68.0288144  57.1257610  98.7143980  67.1904132  58.3039091
 107.6305885  59.5139390  65.1857065 107.9107638  58.8462579  65.8117491
 108.4156491  59.7068486  64.6731729 105.4339353  78.6898384  56.7482091
 104.8613320  79.3088571  56.2952563 106.0072147  79.2397746  57.2822013
 111.5014743  67.9357024  68.9328640 112.4532166  68.0355122  68.9540864
 111.3318193  67.1435293  69.4426724 109.5229122  65.0212607  69.1188041
 108.9279054  65.3017620  68.4234529 109.2378819  65.5106508  69.8904782
 108.6536613  78.9735534  57.8790673 109.5867286  78.9081096  58.0823549
 108.5659826  79.8091801  57.4205206 105.8186152  70.0259197  54.0898143
 106.7645256  69.8965405  54.1586562 105.4400397  69.2873859  54.5667572
 114.1297309  67.9474187  68.0929223 113.6136358  67.1632644  67.9059151
 115.0137258  67.6192904  68.2575742 111.7908036  61.6915203  64.0525035
 111.5932857  61.3830291  64.9368367 112.4007742  62.4176842  64.1822965
 119.7979371  72.2179151  67.1876976 120.5282759  71.9564439  67.7484680
 119.1886316  71.4807873  67.2279044 117.8794668  70.3587013  67.7851427
 117.1527831  70.2242978  67.1767919 117.4641955  70.6663842  68.5908145
 104.0029069  67.9509173  54.0253029 103.0960524  67.6542286  54.1015742
 104.2805050  67.6538991  53.1587315 105.6191134  62.4946063  60.1797270
 104.8091863  62.1493148  60.5552516 106.3075551  62.1853607  60.7684882
 107.5481683  61.5724110  61.8021567 108.1012721  61.9919563  62.4611590
 107.7851769  60.6459858  61.8444523 102.7727853  64.8096108  54.1665008
 103.6347017  65.1351007  54.4260825 102.9578198  64.0227604  53.6538074
 110.9260490  63.6824635  61.3100231 110.3459159  64.3409439  60.9278283
 110.6596423  62.8601979  60.8987648 109.3764056  63.0829692  63.5121551
 109.8763835  63.1946227  62.7035870 110.0199664  62.7790745  64.1522360
 109.7085368  65.8424725  60.3656579 108.8211223  66.1274376  60.1476774
 110.1239357  65.6818489  59.5183856 113.0599904  65.8671246  64.0810918
 113.8360294  66.3567699  64.3535535 112.3348038  66.2929300  64.5382788
 115.4972463  66.5798865  65.1384859 116.0916953  66.3394601  64.4278167
 115.5699046  65.8605996  65.7658395 108.8528581  75.6069400  54.4604599
 109.5564431  75.8119402  55.0762255 108.1291230  76.1746162  54.7253683
 109.6826392  71.3579261  60.5806869 109.6261593  71.8147813  59.7414502
 110.2354734  70.5969946  60.4029712 113.4931198  67.1468993  61.4056989
 113.2368132  66.7465629  62.2365197 112.8684066  67.8612787  61.2807128
 117.8043535  69.8865066  63.9128280 117.2443093  69.9558256  64.6859842
 117.1987039  69.7106051  63.1927776 103.7257296  62.0492151  57.4544717
 103.7135966  62.9933991  57.6112988 104.6180718  61.8662297  57.1604178
 107.5409416  58.6434928  61.7090654 106.7741812  58.0893415  61.8547336
 107.9520121  58.7156797  62.5704805 119.1150900  89.7245884  58.3800101
 118.4796733  89.7980511  59.0921005 118.7848306  90.3139483  57.7019180
 121.2805143  84.6044539  58.5896114 122.1922999  84.8371926  58.4143812
 120.7714790  85.1881583  58.0271193 123.7663957  90.5224795  63.3354060
 123.0814996  90.9023697  62.7851093 123.8507807  91.1320122  64.0686007
 130.2266710  87.3895458  64.4556732 129.4730418  86.8202856  64.3000736
 130.3614251  87.3558123  65.4027367 119.3415052  93.1635227  72.2893195
 119.3233528  93.9844108  71.7973464 120.2634973  93.0389302  72.5143336
 118.9308084  85.7748034  57.1682780 118.4154708  86.5452638  57.4071167
 118.6585393  85.1013170  57.7915841 123.9042358  88.5280388  59.1035953
 123.1271801  88.1891548  58.6591115 124.5833839  88.5333011  58.4290918
 118.7194387  83.6475126  58.9942561 118.4144523  83.9621275  59.8452704
 119.6724830  83.7256546  59.0369894 111.8959547  80.4685015  63.0042127
 112.4703299  80.2460197  62.2715319 112.4830529  80.5373710  63.7570728
 118.2155003  85.2299613  61.1867524 118.9626822  85.7421011  60.8774646
 118.4846592  84.9083666  62.0471917 116.4881653  87.7258154  58.1694478
 115.5792872  87.4417187  58.2666948 116.5176737  88.1457233  57.3097785
 121.7200920  91.3364744  61.9385646 121.2663247  90.4955654  61.9950836
 121.0894887  91.9726142  62.2760426 116.1857741  89.2666898  55.5082557
 115.7477171  88.5502757  55.0488194 116.9268182  89.4943013  54.9467648
 124.3030856  87.5424095  61.5658875 124.1648754  87.7325691  60.6380064
 123.9467074  88.3043478  62.0226926 120.3068968  88.1251279  55.1014614
 119.6898139  87.3998108  55.0047667 119.8385457  88.8860640  54.7581689
 121.9623100  92.8350188  72.7620395 121.9035646  92.1509408  72.0950978
 122.3642618  93.5769178  72.3101021 126.4457848  86.2097989  65.7550936
 126.4347724  87.0922705  65.3844869 125.5775227  85.8569540  65.5605473
 117.9540344  95.3578058  70.1153776 118.6668316  95.9925523  70.0429678
 117.4630373  95.4541924  69.2993778 119.6757871  89.2629311  61.6871068
 118.7414150  89.3830773  61.5175772 119.8534540  88.3601778  61.4231078
 113.0052258  93.1072502  70.9359347 113.7061717  93.7408985  71.0888741
 112.5347373  93.4487233  70.1754986 121.1306654  91.4490451  59.2207254
 121.4066497  91.3347046  60.1301128 120.2611152  91.0507936  59.1819427
 115.5963900  97.7103848  69.4835550 116.1482208  97.8735469  70.2484636
 115.9370093  98.3008285  68.8115575 120.4474774  92.5365105  75.3384205
 120.9914678  93.1495063  74.8439160 119.8661619  93.0944683  75.8551218
 120.7967195  93.4594843  68.0978783 119.8497531  93.3400194  68.0257109
 121.1449968  92.5717341  68.1805044 117.7975143  81.1085397  59.2915252
 118.0138757  81.9910035  58.9904080 117.3169210  80.7171610  58.5620894
 127.0482458  87.3598208  62.3600399 127.4913604  86.6105534  61.9619522
 126.1708968  87.3508345  61.9774131 122.1818239  93.9128550  57.8406997
 122.8769144  94.5335243  58.0594312 122.5241389  93.0623901  58.1159375
 124.0809662  91.3628255  59.3694328 124.6060986  91.7015528  58.6443648
 123.9932015  90.4275271  59.1857463 115.7429711  95.2762329  71.4984205
 116.0516837  95.0311476  72.3706904 116.5405193  95.4808968  71.0103075
 125.3919640  91.2650567  72.2320276 125.1004448  91.6280548  73.0683737
 124.7791771  90.5517575  72.0533608 126.5915322  88.8303447  64.7522846
 127.4262214  89.2693251  64.9160407 126.7274451  88.3542100  63.9331092
 122.1218384  93.6193322  54.8394621 122.0432016  93.2853186  55.7330379
 122.9428051  94.1115090  54.8386093 116.6579906  85.3551114  54.0898143
 117.6039011  85.2257322  54.1586562 116.2794151  84.6165776  54.5667572
 130.6373125  87.5471068  67.1876976 131.3676514  87.2856356  67.7484680
 130.0280071  86.8099790  67.2279044 128.7188422  85.6878931  67.7851427
 127.9921586  85.5534896  67.1767919 128.3035709  85.9955759  68.5908145
 120.5479122  81.1716643  60.3656579 119.6604977  81.4566293  60.1476774
 120.9633111  81.0110406  59.5183856 119.6922336  90.9361317  54.4604599
 120.3958186  91.1411320  55.0762255 118.9684985  91.5038079  54.7253683
 120.5220146  86.6871179  60.5806869 120.4655347  87.1439730  59.7414502
 121.0748489  85.9261863  60.4029712 124.3324952  82.4760911  61.4056989
 124.0761886  82.0757546  62.2365197 123.7077820  83.1904705  61.2807128
 128.6437290  85.2156984  63.9128280 128.0836848  85.2850173  64.6859842
 128.0380793  85.0397969  63.1927776 121.6009033  91.3743847  56.5103059
 122.4354637  90.9425045  56.3280534 121.4393376  91.2025860  57.4379954
 121.2554925  87.8775960  57.8759399 121.2003729  87.7120231  56.9347843
 120.6300981  88.5851993  58.0321588 112.7387013  97.3021973  68.8802395
 113.6414259  97.3345583  69.1968890 112.5124383  96.3722424  68.8948731
 130.2293308 101.8913498  66.6058236 130.8671718 101.7720245  65.9021576
 130.1114151 102.8394342  66.6646188 127.0383015 101.8440926  66.5419761
 126.7001526 101.7281991  65.6540295 127.9072783 101.4432091  66.5220767
 122.8969830 103.6976402  62.5316652 122.3334695 103.6066339  61.7632939
 122.7822225 102.8776307  63.0119144 127.5202798 102.9975778  72.5005966
 127.5091438 102.6028576  71.6286470 127.6823437 102.2641850  73.0939738
 120.4434262 105.1927594  65.3700872 121.2355554 104.8518419  64.9547171
 120.6830912 105.3022569  66.2903025 128.4769389 107.3647370  57.8431116
 127.8257369 107.9501450  57.4565130 129.2713752 107.8953565  57.9026154
 122.4025016 104.4536507  58.2418251 123.1755892 103.9065494  58.1031127
 122.7550415 105.3180757  58.4532712 124.2410059 105.7812889  71.4485150
 123.9499925 106.6858520  71.3331816 124.8767043 105.8229417  72.1629220
 125.1666266 103.1589738  68.0386510 125.7629838 102.9345760  67.3243473
 125.2241237 102.4174483  68.6411958 124.7391294 100.6129173  55.8736701
 124.9916815 100.0910695  55.1120164 123.8015853 100.4495319  55.9763384
 129.7834577  99.6164952  63.6811444 130.5697666  99.1984375  63.3301861
 130.0473281 100.5211044  63.8493092 129.9544654 105.0537802  58.3800101
 129.3190487 105.1272428  59.0921005 129.6242061 105.6431401  57.7019180
 135.1843004  99.5540185  64.5844422 135.9168176  98.9839402  64.8182252
 134.4282360  99.1661785  65.0250928 124.4587583 102.5157279  58.0761076
 124.3423841 101.8402183  58.7442160 124.5689843 102.0289653  57.2593229
 126.8019124 101.9767426  61.7807765 126.4377331 101.4498047  62.4920686
 127.6586240 101.5865895  61.6074250 132.7068424  93.2661759  69.0439031
 132.3751749  94.1357170  68.8200246 132.1114038  92.9498043  69.7233061
 126.4424611  97.0057326  56.7769113 126.6099013  97.8737562  57.1439585
 126.2521780  97.1684608  55.8530403 129.1999944 105.4674305  68.4434944
 128.9000667 106.3699344  68.3350751 128.8551003 105.2006488  69.2956097
 122.6512425 101.9188102  64.4771648 121.7262922 101.7864316  64.6849340
 122.8996838 102.6982321  64.9741591 132.5997088  97.9856845  66.1232381
 131.6913965  97.9172254  65.8291142 132.5484683  98.4628790  66.9514207
 126.4213831  99.4614984  57.7615780 126.3013457  99.9072034  58.6001261
 125.7266420  99.8100301  57.2029318 120.0121236 101.5621375  65.3115437
 120.1413617 101.8155854  66.2254849 119.3318688 102.1549083  64.9920092
 124.1820724 112.2318625  61.4105912 124.1044753 113.1826450  61.4894392
 123.5782367 111.8864498  62.0680838 126.6737953  99.4046491  74.0667278
 125.8971287  99.9640411  74.0570143 127.3128516  99.8903274  74.5882149
 134.4658734  96.1873284  67.9010255 133.8233114  96.4805817  67.2550050
 133.9613663  96.0726204  68.7063452 132.1198898  99.9336457  58.5896114
 133.0316754 100.1663843  58.4143812 131.6108545 100.5173501  58.0271193
 124.9284326 102.2131944  73.6285245 125.6699010 102.7516988  73.3520069
 124.2221311 102.8398233  73.7856797 130.4039665 104.3561085  72.2257407
 130.8123021 103.9143495  71.4812039 129.6816927 103.7813712  72.4791600
 126.7570735  99.2933691  69.5990964 127.6031931  99.7173105  69.7425613
 126.6969373  98.6367316  70.2929527 130.7268480 104.9162275  65.9809696
 130.0977342 105.0807989  65.2785764 130.3394142 105.3303885  66.7520660
 134.6057712 105.8516713  63.3354060 133.9208750 106.2315614  62.7851093
 134.6901561 106.4612040  64.0686007 129.9070181  96.9538060  71.2572137
 129.6631113  97.7080120  70.7206413 130.1830111  97.3323407  72.0919385
 131.8608643 103.4976672  69.9349403 132.0725539 104.1408432  69.2583784
 131.8138392 102.6638989  69.4671333 129.4634872  96.1094493  66.8385975
 128.6019351  96.4075746  67.1302713 129.4897307  96.3264892  65.9067008
 126.2796442 104.6536683  63.2459781 126.7434787 104.9324386  62.4564403
 126.0153240 103.7520128  63.0632872 123.1720523 104.2008165  66.1839544
 123.7421880 104.6295433  65.5457029 123.7628635 103.9190750  66.8823730
 125.2165328 100.7759836  60.0549346 125.9189371 101.2280879  60.5223272
 124.8845956 100.1343655  60.6829239 123.6645689  99.3671592  74.4300555
 123.0344350 100.0487873  74.6635952 123.5581777  99.2554674  73.4853694
 118.9590662  99.0343388  65.3566480 118.1689716  99.2900917  64.8806590
 119.4501909  99.8491726  65.4618520 132.9754471 106.3748627  68.1071760
 133.7971915 105.9728815  67.8254442 132.9716874 106.2716862  69.0587876
 120.9105407  99.3987968  62.3149956 120.1136570  99.5106662  62.8333452
 120.6830999  99.7374620  61.4490847 126.7411075 105.9232671  70.2632471
 126.8055507 106.3853078  71.0990643 126.0321999 105.2930036  70.3914781
 117.2428365  99.2873879  67.7881470 117.4936403 100.1720889  68.0539046
 117.7787913  99.1078480  67.0156562 141.0660464 102.7187376  64.4556732
 140.3124173 102.1494774  64.3000736 141.2008006 102.6850040  65.4027367
 126.4559092 107.5900778  60.1311451 126.3204767 108.4352314  60.5596299
 126.9968905 107.7920056  59.3677385 119.9088490 105.1076216  60.7039376
 120.4213010 105.9019467  60.8544941 120.5611203 104.4102507  60.6372978
 121.7183375 108.2241973  62.7862130 121.8950003 109.1459937  62.5983113
 122.5140208 107.9100392  63.2156509 125.8594393  95.0850237  74.3846063
 126.6004106  95.6857390  74.3050526 126.0912316  94.3427875  73.8264106
 121.0035731 100.2706604  72.6624293 120.8889246  99.3691862  72.9631392
 120.1480249 100.5170301  72.3109109 128.0827569 108.2124345  74.2611793
 127.6391423 107.4260723  73.9432698 128.7444782 108.4003495  73.5955684
 122.8414690 109.7420146  68.7872472 123.3922115 109.6137210  68.0149466
 122.0026166 110.0415035  68.4367365 130.1808807 108.4927145  72.2893195
 130.1627282 109.3136026  71.7973464 131.1028727 108.3681220  72.5143336
 126.6381861 106.0071274  73.1316703 127.1710198 105.2459562  72.9016011
 126.1095942 105.7144926  73.8740857 129.8051556  91.1131340  68.6610345
 129.4615825  92.0032982  68.5849455 130.1730519  90.9232998  67.7979930
 117.8737407 103.4364871  61.4798947 118.7112629 103.8461879  61.2632655
 118.0515674 102.4964313  61.4499141 129.7701839 101.1039951  57.1682780
 129.2548462 101.8744556  57.4071167 129.4979147 100.4305087  57.7915841
 127.3548950  95.9489652  62.2268018 126.4990546  95.5596502  62.0473657
 127.7675902  96.0281613  61.3667804 128.8848096  93.4835995  66.6259578
 128.3812892  93.4466130  65.8127383 129.1778703  94.3928738  66.6856235
 125.1290982  93.5674725  65.6325760 125.9943979  93.3717534  65.2731649
 125.1968491  93.3385077  66.5595116 134.7436113 103.8572306  59.1035953
 133.9665556 103.5183465  58.6591115 135.4227594 103.8624929  58.4290918
 129.5588142  98.9767043  58.9942561 129.2538278  99.2913193  59.8452704
 130.5118584  99.0548463  59.0369894 128.0034574 105.1357267  60.6435515
 127.4755935 104.4010026  60.3308752 127.5022077 105.9131943  60.3975483
 132.9827420 103.3306287  65.7602561 132.3251094 104.0205549  65.8482690
 133.7867819 103.7202719  66.1036548 122.7353301  95.7976933  63.0042127
 123.3097053  95.5752114  62.2715319 123.3224284  95.8665627  63.7570728
 131.7932879 101.6850660  63.8106503 132.3064760 102.3180652  64.3128213
 132.4434103 101.0851855  63.4449863 123.0622889  97.8281394  57.0238012
 122.2260201  98.1656081  57.3447287 122.9227658  97.6930374  56.0865149
 125.0375969  92.6718182  61.7317196 124.3840381  92.3567199  61.1073811
 124.9956443  92.0493922  62.4577019 126.1487174 102.9537477  53.6470488
 125.2414236 102.7226730  53.8461637 126.6458206 102.1575096  53.8344470
 129.0555253 111.6634984  56.5667174 128.3816952 111.9666681  57.1752132
 129.4421075 112.4664064  56.2172631 128.2713709  99.1600115  66.0564844
 127.3536271  99.3815062  65.8986532 128.6873853  99.2346426  65.1976551
 129.0548757 100.5591531  61.1867524 129.8020576 101.0712928  60.8774646
 129.3240347 100.2375584  62.0471917 127.3275407 103.0550072  58.1694478
 126.4186627 102.7709105  58.2666948 127.3570491 103.4749150  57.3097785
 132.5594675 106.6656661  61.9385646 132.1057002 105.8247571  61.9950836
 131.9288642 107.3018060  62.2760426 131.5027594  97.5948647  63.1686313
 130.7650351  97.0826034  63.4996556 131.7554368  97.1549029  62.3569590
 131.0027614 108.5033158  62.8735464 131.2950588 109.0638215  62.1547829
 131.5126235 108.7961719  63.6288623 131.6039222  90.3724899  63.7628082
 131.9098099  89.5122263  63.4753997 132.3291827  90.9642520  63.5627076
 117.8963578 100.7755586  62.1509680 117.6987978 100.1824947  61.4260747
 117.3410242 100.4707796  62.8685619 125.8760301 100.6678692  64.2704273
 125.9308911  99.7152529  64.1946750 125.0651503 100.8238131  64.7545572
 127.0251495 104.5958815  55.5082557 126.5870925 103.8794674  55.0488194
 127.7661936 104.8234930  54.9467648 123.8152661  99.2855752  62.0294652
 123.0020527  99.5849923  62.4359844 124.3111656  98.8911441  62.7469135
 125.9661239 109.2813509  63.9628917 125.9237418 109.5074355  63.0337449
 126.8823938 109.0476884  64.1114718 129.4126873  99.7497577  70.8609546
 129.7676261  99.9769050  71.7204012 130.0599004 100.0815953  70.2386802
 135.1424610 102.8716013  61.5658875 135.0042509 103.0617608  60.6380064
 134.7860829 103.6335395  62.0226926 123.3066736  96.8574108  67.6455887
 123.9466115  96.7162867  66.9478851 122.4744267  96.5708621  67.2694489
 135.1693990 104.9392540  66.5770147 135.6030496 104.8467829  67.4253201
 135.8825570 104.9150040  65.9390163 124.0827040 106.1576538  63.7590880
 124.8767639 105.6626858  63.5573455 123.3718732 105.6294401  63.3958585
 128.9021885 108.5394634  68.1103247 128.9558907 109.1085570  68.8780963
 128.0336666 108.7096519  67.7457284 120.3909804 100.3019620  59.8350632
 119.4607392 100.2404075  60.0520595 120.4867276  99.7795573  59.0387274
 121.7820278  98.2412190  69.5927699 122.4543331  98.0329552  68.9440348
 120.9550064  98.0434276  69.1532931 136.0309539 104.9816240  69.1103032
 136.2245429 105.8862051  69.3562307 135.9310157 104.5223659  69.9441617
 127.6845850  94.8674131  71.6093359 127.0373765  95.5664080  71.5157836
 128.4546865  95.3010275  71.9769608 131.0924648 105.1322983  74.6843913
 130.9410154 104.9033535  73.7673996 131.0829327 106.0893584  74.6975258
 127.8609984 102.7054896  69.6690179 128.7902044 102.8566055  69.4959147
 127.4401014 102.7938916  68.8138826 126.6598316 106.7305560  67.4388717
 126.5209402 106.3624344  68.3114655 125.8712912 107.2453200  67.2672675
 127.2546468 111.8314657  58.7814253 127.4298224 111.3602700  59.5959876
 126.5679256 112.4580423  59.0095514 128.2103531 106.1087163  64.8277555
 127.8753364 106.0687933  65.7235205 127.7107477 105.4431879  64.3547965
 122.1847775 101.5154793  70.3530136 122.0467573 100.7835032  70.9541675
 123.0952699 101.4263693  70.0714324 131.1462723 103.4543197  55.1014614
 130.5291893 102.7290025  55.0047667 130.6779211 104.2152557  54.7581689
 124.8130076 101.2274752  69.8413815 125.5229694 100.5867944  69.8000434
 124.7699384 101.4787647  70.7639996 132.8016855 108.1642105  72.7620395
 132.7429401 107.4801326  72.0950978 133.2036373 108.9061095  72.3101021
 123.5259010  98.2139970  71.6609455 122.9896367  97.7630708  72.3131051
 122.9375718  98.3485879  70.9179919 121.8207553 114.9804019  65.5554114
 122.0604152 115.6122543  66.2333132 120.9776750 114.6292059  65.8419473
 122.9361269  97.6728621  54.2235919 122.0590735  97.5517422  53.8598165
 123.4119022  96.8814700  53.9714807 132.8034262 106.1281689  70.9934374
 131.9161041 105.7907611  71.1160773 133.3732813 105.3964721  71.2303140
 114.4563409 102.4605781  64.3177426 115.1434449 102.1467511  63.7298441
 114.3011538 103.3647146  64.0444677 119.2598131  97.3495978  68.7462449
 119.1756320  96.7421647  68.0112859 118.4380837  97.8404996  68.7471946
 126.3335415 110.7883142  67.9595618 126.2605587 111.5938113  68.4714922
 125.8912808 110.9875108  67.1343639 126.1225195 110.0254912  61.4698439
 125.3392717 110.5676592  61.5636664 126.8217940 110.5428891  61.8692680
 129.4321845  95.8349541  64.1132644 129.9290544  95.0819504  63.7933715
 128.6608826  95.8713858  63.5475854 137.2851602 101.5389907  65.7550936
 137.2741479 102.4214622  65.3844869 136.4168982 101.1861458  65.5605473
 128.7934099 110.6869976  70.1153776 129.5062071 111.3217441  70.0429678
 128.3024127 110.7833842  69.2993778 130.5151626 104.5921228  61.6871068
 129.5807904 104.7122691  61.5175772 130.6928294 103.6893695  61.4231078
 126.0156814  97.9766924  63.8404329 125.6454601  97.4237965  64.5285235
 126.5115906  97.3725058  63.2879329 133.9024177 100.4338548  62.2221102
 134.3684629 101.2666539  62.1481405 134.3531677  99.9683529  62.9266360
 123.8446012 108.4364419  70.9359347 124.5455472 109.0700902  71.0888741
 123.3741127 108.7779151  70.1754986 131.9700408 106.7782369  59.2207254
 132.2460252 106.6638964  60.1301128 131.1004907 106.3799854  59.1819427
 131.8740840  92.8019135  66.2612003 130.9603919  93.0323362  66.4294210
 132.3033941  92.8857579  67.1126036 131.6447298 100.9909027  68.7611897
 130.9918748 101.2384934  68.1064350 132.0227678 100.1773165  68.4274375
 128.6054472 111.0268720  62.8640068 128.7876867 110.2090376  63.3267820
 129.4287458 111.2436412  62.4264958 128.9396638 109.9536905  60.1255116
 129.4684404 109.4429360  59.5125278 129.2024857 109.6379435  60.9900649
 127.6934871 101.7328838  75.2477934 127.0175508 101.6322967  75.9180310
 128.5162505 101.5768051  75.7113932 119.4413730 107.9700774  67.8690450
 120.0267167 107.2244462  68.0018354 119.2438569 108.2804731  68.7527114
 122.2952385 111.0052022  62.8852892 121.6262761 111.4898149  62.4016932
 122.1565255 111.2521242  63.7996271 114.0331385 100.5406375  66.5894893
 114.0715485 100.0069965  67.3832011 113.5271678 100.0141580  65.9705870
 126.4357654 113.0395765  69.4835550 126.9875962 113.2027387  70.2484636
 126.7763848 113.6300203  68.8115575 120.8874420  97.4594048  73.7330469
 121.5146459  97.0771125  74.3467994 120.0302339  97.2408249  74.0986162
 131.2868528 107.8657023  75.3384205 131.8308432 108.4786981  74.8439160
 130.7055373 108.4236601  75.8551218 129.5726041 110.9877741  66.4699233
 129.4477181 110.1867481  65.9610178 130.2305132 111.4823934  65.9813203
 131.6360950 108.7886761  68.0978783 130.6891285 108.6692112  68.0257109
 131.9843723 107.9009259  68.1805044 123.9960523  94.6780900  71.9217025
 124.5194925  94.9243196  72.6843334 123.7772856  95.5100935  71.5020162
 128.6407383 108.5839477  64.2983135 128.4932345 107.6556184  64.4790705
 129.4660877 108.6059568  63.8140210 132.2441505 109.4068036  65.3848008
 133.1688052 109.2010897  65.2472459 132.0756808 109.1584437  66.2937349
 125.2013068  95.6194595  69.6066695 124.8609889  94.8202408  70.0087375
 124.4952074  95.9196306  69.0343528 125.8529540  92.7043907  68.0594018
 126.6755609  92.2304385  67.9372908 126.0967604  93.4834391  68.5592704
 124.4937774  95.7332166  58.3556920 125.2146137  96.1113418  57.8520637
 123.8703079  96.4521043  58.4591898 128.6368897  96.4377315  59.2915252
 128.8532512  97.3201953  58.9904080 128.1562965  96.0463528  58.5620894
 123.3768119  99.3963028  65.8685997 123.2312699  99.7103331  66.7610278
 122.8993322 100.0147928  65.3156895 125.2364502  96.3865576  65.9166886
 125.2226070  95.4906669  65.5799184 125.9536930  96.3936240  66.5505172
 127.0890632  96.8202916  67.9620014 126.8308410  97.7419987  67.9604344
 126.5575673  96.4233351  68.6520478 132.0336821 109.9253703  60.7410099
 132.2073699 109.3600126  59.9883952 132.5265712 110.7254598  60.5589589
 117.8513781 101.9368372  68.8073658 117.3067249 102.7128180  68.9393932
 118.7293131 102.2839177  68.6492779 124.6401398  95.2679956  61.1854456
 124.7617309  94.3396602  61.3845344 124.3503440  95.2818642  60.2732772
 127.5092588  92.9534867  64.3221176 127.5314285  93.0174200  63.3673156
 127.9260647  92.1139375  64.5161682 137.8876212 102.6890126  62.3600399
 138.3307358 101.9397451  61.9619522 137.0102723 102.6800263  61.9774131
 133.0211994 109.2420468  57.8406997 133.7162898 109.8627160  58.0594312
 133.3635144 108.3915819  58.1159375 118.6379803 101.0638269  71.7003815
 117.8961539 101.2120904  72.2868445 118.3172547 101.3246534  70.8370564
 134.9203417 106.6920173  59.3694328 135.4454741 107.0307446  58.6443648
 134.8325769 105.7567188  59.1857463 126.5823465 110.6054247  71.4984205
 126.8910592 110.3603394  72.3706904 127.3798947 110.8100885  71.0103075
 126.6044077 112.7592156  63.7289581 126.1649068 112.2668535  64.4222438
 127.3552194 112.2165124  63.4881657 119.0836416 108.9503697  63.7314209
 119.9094436 108.6507469  63.3512853 118.7330468 108.1811320  64.1803998
 124.0517950 108.3030166  65.8011883 123.4297959 107.6400871  65.5014111
 124.7222817 108.3291297  65.1185531 117.2845021 106.8690024  64.6903143
 116.4476930 106.4412198  64.5087144 117.2568667 107.0622467  65.6273934
 124.1242477  96.7811954  75.3944389 124.1730633  97.6574076  75.0122159
 124.6664991  96.2389347  74.8216032 134.6097323 107.3253077  74.6745526
 133.8192866 107.3077216  74.1350026 134.3730677 107.8641370  75.4294563
 134.7295198 104.1745543  71.9878255 134.7793203 104.0095551  72.9293777
 134.6209121 103.3072802  71.5976135 123.6131457 106.8534089  59.2770344
 123.7619577 107.5369553  58.6237016 124.4197900 106.8339179  59.7919799
 132.0198960 100.1576471  73.3037561 132.9208823 100.0182936  73.0121559
 132.0946935 100.3230926  74.2435739 126.3541766  97.5343326  72.1490748
 125.4845075  97.8276892  71.8773336 126.5901246  98.1183771  72.8698011
 136.2313395 106.5942485  72.2320276 135.9398203 106.9572465  73.0683737
 135.6185526 105.8809493  72.0533608 137.4309077 104.1595364  64.7522846
 138.2655968 104.5985169  64.9160407 137.5668206 103.6834018  63.9331092
 134.4800583 101.7175099  70.7000334 134.9554704 101.9102746  69.8919186
 133.5566148 101.7734285  70.4543718 121.3684089 102.8799266  60.2831412
 121.1230131 101.9761596  60.4811623 121.5380004 102.8816417  59.3410890
 129.0580799  93.7522943  69.6656168 129.5762743  94.4883970  69.3402657
 128.7035932  94.0586936  70.5002927 129.3093394  90.1723225  65.1857065
 129.5895147  89.5046414  65.8117491 130.0944000  90.3652321  64.6731729
 127.1126862 109.3482219  56.7482091 126.5400829 109.9672406  56.2952563
 127.6859656 109.8981581  57.2822013 133.1802252  98.5940859  68.9328640
 134.1319675  98.6938957  68.9540864 133.0105702  97.8019128  69.4426724
 131.2016631  95.6796443  69.1188041 130.6066563  95.9601455  68.4234529
 130.9166328  96.1690344  69.8904782 130.3324122 109.6319369  57.8790673
 131.2654795 109.5664931  58.0823549 130.2447335 110.4675636  57.4205206
 132.9612139 108.9485240  54.8394621 132.8825770 108.6145103  55.7330379
 133.7821805 109.4407008  54.8386093 135.6590330 101.8146979  68.0470939
 135.6266650 100.8762980  68.2330623 136.2690953 101.8931016  67.3136764
 127.4973661 100.6843032  54.0898143 128.4432765 100.5549240  54.1586562
 127.1187905  99.9457694  54.5667572 135.8084818  98.6058023  68.0929223
 135.2923867  97.8216479  67.9059151 136.6924767  98.2776739  68.2575742
 133.4695545  92.3499038  64.0525035 133.2720366  92.0414126  64.9368367
 134.0795251  93.0760677  64.1822965 141.4766880 102.8762986  67.1876976
 142.2070268 102.6148274  67.7484680 140.8673825 102.1391708  67.2279044
 139.5582177 101.0170849  67.7851427 138.8315340 100.8826813  67.1767919
 139.1429464 101.3247677  68.5908145 127.3812353 104.7360778  75.5498800
 128.3015363 104.9139377  75.7438847 127.3461936 103.7916824  75.3978500
 125.6816578  98.6093008  54.0253029 124.7748033  98.3126121  54.1015742
 125.9592559  98.3122827  53.1587315 120.3774426 102.6461813  68.1921582
 120.5960435 103.5778921  68.2109615 120.7900199 102.2869787  68.9776385
 127.2978643  93.1529898  60.1797270 126.4879372  92.8076983  60.5552516
 127.9863060  92.8437442  60.7684882 129.2269192  92.2307945  61.8021567
 129.7800230  92.6503398  62.4611590 129.4639278  91.3043693  61.8444523
 125.2502291  98.2195019  77.5824331 125.1499018  99.1689376  77.5136422
 125.0323833  97.8913258  76.7100401 124.4515362  95.4679944  54.1665008
 125.3134526  95.7934842  54.4260825 124.6365706  94.6811440  53.6538074
 116.4682778 103.5502283  66.4445197 115.7746250 103.1356236  65.9315151
 117.2155769 103.5922820  65.8478616 132.6047999  94.3408470  61.3100231
 132.0246668  94.9993274  60.9278283 132.3383931  93.5185815  60.8987648
 131.0551565  93.7413528  63.5121551 131.5551344  93.8530062  62.7035870
 131.6987173  93.4374581  64.1522360 125.1133561 101.6492157  76.3989392
 124.6300643 102.4492518  76.6053281 125.1994500 101.6600102  75.4456836
 118.3819521 103.4820537  64.3211212 118.3590209 103.5808224  63.3693095
 118.6920157 104.3285688  64.6428378 121.0406898 105.5396692  68.4357826
 121.9950152 105.5080634  68.3687758 120.8419422 105.0787316  69.2508052
 121.6306281 104.1097808  71.0028624 122.4499170 104.6041887  71.0263461
 121.9043088 103.1929776  70.9746191 131.3872877  96.5008561  60.3656579
 130.4998732  96.7858211  60.1476774 131.8026866  96.3402324  59.5183856
 134.7387413  96.5255081  64.0810918 135.5147803  97.0151534  64.3535535
 134.0135547  96.9513136  64.5382788 137.1759972  97.2382701  65.1384859
 137.7704462  96.9978437  64.4278167 137.2486555  96.5189831  65.7658395
 119.3957127 111.0816312  65.4528024 119.2611595 110.3216713  64.8866022
 118.9789190 111.8057212  64.9856813 130.5316090 106.2653235  54.4604599
 131.2351940 106.4703238  55.0762255 129.8078739 106.8329997  54.7253683
 131.3613901 102.0163096  60.5806869 131.3049102 102.4731648  59.7414502
 131.9142243 101.2553781  60.4029712 135.1718706  97.8052828  61.4056989
 134.9155641  97.4049464  62.2365197 134.5471575  98.5196622  61.2807128
 139.4831044 100.5448902  63.9128280 138.9230602 100.6142091  64.6859842
 138.8774548 100.3689886  63.1927776 122.5526253 111.9785629  65.6646467
 122.4358637 112.9231061  65.5625157 121.7318699 111.6759190  66.0532266
 132.4402788 106.7035764  56.5103059 133.2748392 106.2716963  56.3280534
 132.2787131 106.5317778  57.4379954 132.0948680 103.2067878  57.8759399
 132.0397484 103.0412149  56.9347843 131.4694735 103.9143911  58.0321588
 116.8841195  98.4435942  71.7020821 117.5300058  97.9334896  72.1908046
 116.6758346  99.1804624  72.2764246 129.4094587 105.5116790  77.2012961
 130.2785747 105.6857442  76.8399596 128.9301339 106.3311206  77.0788691
 125.4044805  92.7075987  57.4544717 125.3923475  93.6517827  57.6112988
 126.2968227  92.5246132  57.1604178 123.5780767 112.6313891  68.8802395
 124.4808014 112.6637501  69.1968890 123.3518137 111.7014342  68.8948731
 125.3334369 111.3844877  65.5412474 124.3830000 111.3846739  65.4276846
 125.6366855 110.6377612  65.0248508 129.2196925  89.3018763  61.7090654
 128.4529321  88.7477250  61.8547336 129.6307630  89.3740632  62.5704805
 121.2238686  95.5903559  75.7995835 122.0870147  95.2340364  76.0099160
 120.6504097  95.2517454  76.4871239 141.0687063 117.2205415  66.6058236
 141.7065473 117.1012163  65.9021576 140.9507906 118.1686259  66.6646188
 137.8776769 117.1732844  66.5419761 137.5395281 117.0573908  65.6540295
 138.7466537 116.7724009  66.5220767 133.7363585 119.0268320  62.5316652
 133.1728450 118.9358257  61.7632939 133.6215980 118.2068224  63.0119144
 138.3596552 118.3267695  72.5005966 138.3485193 117.9320494  71.6286470
 138.5217192 117.5933768  73.0939738 131.2828017 120.5219512  65.3700872
 132.0749309 120.1810336  64.9547171 131.5224667 120.6314487  66.2903025
 139.3163143 122.6939288  57.8431116 138.6651123 123.2793368  57.4565130
 140.1107506 123.2245483  57.9026154 133.2418771 119.7828425  58.2418251
 134.0149647 119.2357412  58.1031127 133.5944170 120.6472674  58.4532712
 135.0803813 121.1104807  71.4485150 134.7893679 122.0150438  71.3331816
 135.7160798 121.1521335  72.1629220 136.0060020 118.4881656  68.0386510
 136.6023592 118.2637678  67.3243473 136.0634992 117.7466401  68.6411958
 135.5785048 115.9421091  55.8736701 135.8310569 115.4202612  55.1120164
 134.6409608 115.7787236  55.9763384 140.6228331 114.9456869  63.6811444
 141.4091420 114.5276293  63.3301861 140.8867036 115.8502962  63.8493092
 140.7938409 120.3829720  58.3800101 140.1584242 120.4564346  59.0921005
 140.4635815 120.9723318  57.7019180 146.0236758 114.8832103  64.5844422
 146.7561930 114.3131319  64.8182252 145.2676114 114.4953703  65.0250928
 135.2981337 117.8449197  58.0761076 135.1817595 117.1694100  58.7442160
 135.4083597 117.3581571  57.2593229 137.6412878 117.3059344  61.7807765
 137.2771085 116.7789965  62.4920686 138.4979994 116.9157813  61.6074250
 143.5462179 108.5953677  69.0439031 143.2145504 109.4649088  68.8200246
 142.9507792 108.2789961  69.7233061 137.2818365 112.3349244  56.7769113
 137.4492767 113.2029480  57.1439585 137.0915534 112.4976525  55.8530403
 140.0393698 120.7966223  68.4434944 139.7394421 121.6991261  68.3350751
 139.6944758 120.5298406  69.2956097 133.4906180 117.2480019  64.4771648
 132.5656676 117.1156234  64.6849340 133.7390593 118.0274239  64.9741591
 143.4390842 113.3148763  66.1232381 142.5307719 113.2464171  65.8291142
 143.3878438 113.7920708  66.9514207 137.2607586 114.7906901  57.7615780
 137.1407211 115.2363952  58.6001261 136.5660174 115.1392219  57.2029318
 130.8514991 116.8913293  65.3115437 130.9807372 117.1447772  66.2254849
 130.1712442 117.4841001  64.9920092 135.0214478 127.5610543  61.4105912
 134.9438508 128.5118368  61.4894392 134.4176122 127.2156415  62.0680838
 137.5131708 114.7338408  74.0667278 136.7365042 115.2932329  74.0570143
 138.1522271 115.2195191  74.5882149 145.3052488 111.5165201  67.9010255
 144.6626869 111.8097734  67.2550050 144.8007417 111.4018122  68.7063452
 142.9592652 115.2628374  58.5896114 143.8710508 115.4955761  58.4143812
 142.4502299 115.8465419  58.0271193 135.7678080 117.5423862  73.6285245
 136.5092765 118.0808906  73.3520069 135.0615066 118.1690151  73.7856797
 141.2433420 119.6853002  72.2257407 141.6516776 119.2435413  71.4812039
 140.5210681 119.1105630  72.4791600 137.5964490 114.6225609  69.5990964
 138.4425685 115.0465023  69.7425613 137.5363128 113.9659233  70.2929527
 141.5662234 120.2454193  65.9809696 140.9371097 120.4099907  65.2785764
 141.1787897 120.6595802  66.7520660 145.4451466 121.1808631  63.3354060
 144.7602504 121.5607532  62.7851093 145.5295316 121.7903957  64.0686007
 140.7463935 112.2829977  71.2572137 140.5024867 113.0372038  70.7206413
 141.0223866 112.6615325  72.0919385 142.7002398 118.8268590  69.9349403
 142.9119293 119.4700350  69.2583784 142.6532146 117.9930906  69.4671333
 140.3028627 111.4386410  66.8385975 139.4413106 111.7367664  67.1302713
 140.3291062 111.6556809  65.9067008 137.1190196 119.9828601  63.2459781
 137.5828542 120.2616304  62.4564403 136.8546994 119.0812046  63.0632872
 134.0114277 119.5300082  66.1839544 134.5815634 119.9587351  65.5457029
 134.6022389 119.2482667  66.8823730 136.0559082 116.1051753  60.0549346
 136.7583126 116.5572797  60.5223272 135.7239711 115.4635572  60.6829239
 134.5039444 114.6963510  74.4300555 133.8738104 115.3779791  74.6635952
 134.3975532 114.5846592  73.4853694 129.7984416 114.3635306  65.3566480
 129.0083470 114.6192835  64.8806590 130.2895664 115.1783644  65.4618520
 143.8148226 121.7040545  68.1071760 144.6365670 121.3020732  67.8254442
 143.8110629 121.6008779  69.0587876 131.7499162 114.7279885  62.3149956
 130.9530325 114.8398579  62.8333452 131.5224754 115.0666537  61.4490847
 137.5804829 121.2524588  70.2632471 137.6449262 121.7144996  71.0990643
 136.8715753 120.6221953  70.3914781 128.0822119 114.6165796  67.7881470
 128.3330158 115.5012806  68.0539046 128.6181668 114.4370398  67.0156562
 151.9054219 118.0479294  64.4556732 151.1517927 117.4786692  64.3000736
 152.0401760 118.0141958  65.4027367 137.2952847 122.9192696  60.1311451
 137.1598522 123.7644232  60.5596299 137.8362659 123.1211974  59.3677385
 133.7820187 108.9984276  76.7925806 133.3887132 108.4450474  77.4673451
 134.5986327 109.3094854  77.1832324 130.7482244 120.4368134  60.7039376
 131.2606765 121.2311384  60.8544941 131.4004957 119.7394424  60.6372978
 132.5577129 123.5533890  62.7862130 132.7343757 124.4751855  62.5983113
 133.3533963 123.2392309  63.2156509 136.6988148 110.4142155  74.3846063
 137.4397861 111.0149308  74.3050526 136.9306070 109.6719793  73.8264106
 131.8429486 115.5998522  72.6624293 131.7283001 114.6983779  72.9631392
 130.9874003 115.8462219  72.3109109 138.9221323 123.5416262  74.2611793
 138.4785178 122.7552641  73.9432698 139.5838537 123.7295413  73.5955684
 133.6808445 125.0712064  68.7872472 134.2315870 124.9429127  68.0149466
 132.8419920 125.3706953  68.4367365 141.0202561 123.8219062  72.2893195
 141.0021037 124.6427943  71.7973464 141.9422481 123.6973138  72.5143336
 137.4775616 121.3363192  73.1316703 138.0103952 120.5751480  72.9016011
 136.9489697 121.0436844  73.8740857 140.6445311 106.4423258  68.6610345
 140.3009580 107.3324900  68.5849455 141.0124273 106.2524915  67.7979930
 128.7131161 118.7656788  61.4798947 129.5506383 119.1753797  61.2632655
 128.8909429 117.8256230  61.4499141 140.6095593 116.4331869  57.1682780
 140.0942217 117.2036474  57.4071167 140.3372902 115.7597005  57.7915841
 138.1942704 111.2781570  62.2268018 137.3384301 110.8888420  62.0473657
 138.6069656 111.3573531  61.3667804 139.7241851 108.8127913  66.6259578
 139.2206647 108.7758048  65.8127383 140.0172458 109.7220656  66.6856235
 135.9684737 108.8966643  65.6325760 136.8337734 108.7009451  65.2731649
 136.0362246 108.6676994  66.5595116 145.5829867 119.1864224  59.1035953
 144.8059310 118.8475383  58.6591115 146.2621348 119.1916847  58.4290918
 140.3981896 114.3058961  58.9942561 140.0932032 114.6205110  59.8452704
 141.3512339 114.3840381  59.0369894 138.8428328 120.4649184  60.6435515
 138.3149690 119.7301944  60.3308752 138.3415831 121.2423861  60.3975483
 143.8221174 118.6598205  65.7602561 143.1644849 119.3497466  65.8482690
 144.6261574 119.0494637  66.1036548 133.5747056 111.1268851  63.0042127
 134.1490808 110.9044032  62.2715319 134.1618038 111.1957545  63.7570728
 142.6326633 117.0142578  63.8106503 143.1458515 117.6472569  64.3128213
 143.2827857 116.4143773  63.4449863 133.9016643 113.1573312  57.0238012
 133.0653955 113.4947998  57.3447287 133.7621413 113.0222291  56.0865149
 135.8769724 108.0010100  61.7317196 135.2234136 107.6859117  61.1073811
 135.8350198 107.3785840  62.4577019 136.9880928 118.2829395  53.6470488
 136.0807990 118.0518648  53.8461637 137.4851960 117.4867014  53.8344470
 139.8949007 126.9926902  56.5667174 139.2210706 127.2958599  57.1752132
 140.2814829 127.7955982  56.2172631 139.1107464 114.4892033  66.0564844
 138.1930025 114.7106980  65.8986532 139.5267608 114.5638344  65.1976551
 139.8942512 115.8883449  61.1867524 140.6414331 116.4004846  60.8774646
 140.1634101 115.5667501  62.0471917 138.1669162 118.3841989  58.1694478
 137.2580381 118.1001022  58.2666948 138.1964246 118.8041068  57.3097785
 143.3988429 121.9948579  61.9385646 142.9450756 121.1539489  61.9950836
 142.7682396 122.6309977  62.2760426 142.3421349 112.9240565  63.1686313
 141.6044106 112.4117951  63.4996556 142.5948122 112.4840947  62.3569590
 141.8421369 123.8325076  62.8735464 142.1344343 124.3930133  62.1547829
 142.3519989 124.1253637  63.6288623 142.4432976 105.7016817  63.7628082
 142.7491853 104.8414180  63.4753997 143.1685581 106.2934437  63.5627076
 128.7357332 116.1047504  62.1509680 128.5381732 115.5116864  61.4260747
 128.1803996 115.7999714  62.8685619 136.7154056 115.9970610  64.2704273
 136.7702666 115.0444446  64.1946750 135.9045258 116.1530049  64.7545572
 137.8645250 119.9250733  55.5082557 137.4264680 119.2086592  55.0488194
 138.6055691 120.1526848  54.9467648 134.6546416 114.6147670  62.0294652
 133.8414281 114.9141840  62.4359844 135.1505410 114.2203359  62.7469135
 136.8054994 124.6105427  63.9628917 136.7631173 124.8366273  63.0337449
 137.7217693 124.3768801  64.1114718 140.2520628 115.0789494  70.8609546
 140.6070015 115.3060967  71.7204012 140.8992759 115.4107871  70.2386802
 145.9818365 118.2007930  61.5658875 145.8436263 118.3909526  60.6380064
 145.6254583 118.9627313  62.0226926 134.1460491 112.1866025  67.6455887
 134.7859870 112.0454784  66.9478851 133.3138021 111.9000539  67.2694489
 146.0087744 120.2684457  66.5770147 146.4424251 120.1759746  67.4253201
 146.7219325 120.2441958  65.9390163 134.9220795 121.4868456  63.7590880
 135.7161393 120.9918776  63.5573455 134.2112487 120.9586319  63.3958585
 139.7415639 123.8686551  68.1103247 139.7952661 124.4377488  68.8780963
 138.8730420 124.0388436  67.7457284 131.2303558 115.6311538  59.8350632
 130.3001146 115.5695993  60.0520595 131.3261030 115.1087490  59.0387274
 131.1489107 112.1566350  62.4228874 131.4095924 113.0711684  62.3138035
 131.9706279 111.6890793  62.5725487 132.6214032 113.5704108  69.5927699
 133.2937086 113.3621470  68.9440348 131.7943819 113.3726194  69.1532931
 146.8703294 120.3108158  69.1103032 147.0639184 121.2153968  69.3562307
 146.7703912 119.8515577  69.9441617 138.5239604 110.1966048  71.6093359
 137.8767519 110.8955998  71.5157836 139.2940620 110.6302192  71.9769608
 141.9318402 120.4614901  74.6843913 141.7803909 120.2325452  73.7673996
 141.9223082 121.4185502  74.6975258 138.7003739 118.0346813  69.6690179
 139.6295799 118.1857973  69.4959147 138.2794769 118.1230834  68.8138826
 137.4992071 122.0597478  67.4388717 137.3603156 121.6916262  68.3114655
 136.7106667 122.5745117  67.2672675 138.0940223 127.1606574  58.7814253
 138.2691978 126.6894617  59.5959876 137.4073011 127.7872340  59.0095514
 139.0497286 121.4379080  64.8277555 138.7147118 121.3979850  65.7235205
 138.5501231 120.7723796  64.3547965 133.0241530 116.8446710  70.3530136
 132.8861328 116.1126949  70.9541675 133.9346453 116.7555611  70.0714324
 141.9856477 118.7835115  55.1014614 141.3685648 118.0581943  55.0047667
 141.5172966 119.5444475  54.7581689 135.6523830 116.5566670  69.8413815
 136.3623449 115.9159862  69.8000434 135.6093138 116.8079565  70.7639996
 143.6410609 123.4934023  72.7620395 143.5823155 122.8093243  72.0950978
 144.0430127 124.2353013  72.3101021 134.3652764 113.5431888  71.6609455
 133.8290121 113.0922626  72.3131051 133.7769473 113.6777797  70.9179919
 132.6601308 130.3095937  65.5554114 132.8997906 130.9414461  66.2333132
 131.8170504 129.9583977  65.8419473 133.7755023 113.0020539  54.2235919
 132.8984490 112.8809340  53.8598165 134.2512776 112.2106617  53.9714807
 143.6428016 121.4573607  70.9934374 142.7554795 121.1199529  71.1160773
 144.2126567 120.7256638  71.2303140 125.2957163 117.7897699  64.3177426
 125.9828203 117.4759429  63.7298441 125.1405292 118.6939063  64.0444677
 130.0991886 112.6787895  68.7462449 130.0150074 112.0713565  68.0112859
 129.2774592 113.1696914  68.7471946 137.1729170 126.1175059  67.9595618
 137.0999341 126.9230031  68.4714922 136.7306563 126.3167025  67.1343639
 136.9618949 125.3546829  61.4698439 136.1786471 125.8968510  61.5636664
 137.6611694 125.8720809  61.8692680 140.2715599 111.1641459  64.1132644
 140.7684299 110.4111421  63.7933715 139.5002581 111.2005776  63.5475854
 148.1245357 116.8681824  65.7550936 148.1135233 117.7506540  65.3844869
 147.2562736 116.5153375  65.5605473 139.6327853 126.0161893  70.1153776
 140.3455825 126.6509358  70.0429678 139.1417882 126.1125759  69.2993778
 141.3545380 119.9213146  61.6871068 140.4201659 120.0414609  61.5175772
 141.5322049 119.0185613  61.4231078 136.8550568 113.3058842  63.8404329
 136.4848356 112.7529882  64.5285235 137.3509661 112.7016975  63.2879329
 144.7417931 115.7630465  62.2221102 145.2078384 116.5958457  62.1481405
 145.1925432 115.2975447  62.9266360 134.6839767 123.7656337  70.9359347
 135.3849226 124.3992820  71.0888741 134.2134882 124.1071068  70.1754986
 142.8094163 122.1074287  59.2207254 143.0854006 121.9930881  60.1301128
 141.9398661 121.7091772  59.1819427 142.7134594 108.1311052  66.2612003
 141.7997674 108.3615279  66.4294210 143.1427696 108.2149496  67.1126036
 142.4841053 116.3200944  68.7611897 141.8312503 116.5676852  68.1064350
 142.8621433 115.5065083  68.4274375 139.4448227 126.3560638  62.8640068
 139.6270621 125.5382293  63.3267820 140.2681213 126.5728330  62.4264958
 139.7790392 125.2828823  60.1255116 140.3078158 124.7721277  59.5125278
 140.0418612 124.9671353  60.9900649 138.5328626 117.0620755  75.2477934
 137.8569263 116.9614885  75.9180310 139.3556260 116.9059969  75.7113932
 130.2807485 123.2992692  67.8690450 130.8660922 122.5536380  68.0018354
 130.0832323 123.6096649  68.7527114 133.1346140 126.3343939  62.8852892
 132.4656515 126.8190067  62.4016932 132.9959010 126.5813160  63.7996271
 124.8725140 115.8698292  66.5894893 124.9109239 115.3361883  67.3832011
 124.3665432 115.3433498  65.9705870 137.2751409 128.3687683  69.4835550
 137.8269717 128.5319304  70.2484636 137.6157602 128.9592121  68.8115575
 132.2515902 110.7162833  70.0857435 132.3157228 111.5777664  69.6734833
 132.1883022 110.1036834  69.3529794 131.7268174 112.7885965  73.7330469
 132.3540213 112.4063043  74.3467994 130.8696093 112.5700167  74.0986162
 142.1262283 123.1948940  75.3384205 142.6702187 123.8078899  74.8439160
 141.5449128 123.7528519  75.8551218 128.5033717 114.5962394  59.6648824
 128.7987158 113.6873073  59.6115878 127.6021753 114.5750134  59.3429827
 140.4119796 126.3169658  66.4699233 140.2870935 125.5159398  65.9610178
 141.0698887 126.8115852  65.9813203 132.0327964 112.6718391  65.6476373
 131.3114550 113.2854359  65.5083846 132.8221220 113.2076156  65.5693019
 142.4754704 124.1178678  68.0978783 141.5285040 123.9984030  68.0257109
 142.8237477 123.2301177  68.1805044 134.8354278 110.0072817  71.9217025
 135.3588679 110.2535114  72.6843334 134.6166611 110.8392852  71.5020162
 130.2321559 112.2776492  59.7888149 129.9034265 111.3973871  59.6063255
 130.5860929 112.2224161  60.6764539 139.4801138 123.9131395  64.2983135
 139.3326100 122.9848102  64.4790705 140.3054631 123.9351485  63.8140210
 133.3463382 112.5649462  60.1563627 133.6859454 113.0935383  59.4342235
 133.7935502 112.9029868  60.9322194 143.0835259 124.7359953  65.3848008
 144.0081807 124.5302815  65.2472459 142.9150563 124.4876355  66.2937349
 136.0406823 110.9486513  69.6066695 135.7003643 110.1494326  70.0087375
 135.3345829 111.2488223  69.0343528 136.6923294 108.0335825  68.0594018
 137.5149364 107.5596303  67.9372908 136.9361358 108.8126309  68.5592704
 135.3331529 111.0624083  58.3556920 136.0539891 111.4405336  57.8520637
 134.7096833 111.7812960  58.4591898 139.4762652 111.7669232  59.2915252
 139.6926266 112.6493870  58.9904080 138.9956719 111.3755446  58.5620894
 134.2161873 114.7254946  65.8685997 134.0706454 115.0395249  66.7610278
 133.7387077 115.3439846  65.3156895 136.0758256 111.7157494  65.9166886
 136.0619825 110.8198587  65.5799184 136.7930684 111.7228157  66.5505172
 137.9284387 112.1494834  67.9620014 137.6702165 113.0711904  67.9604344
 137.3969427 111.7525268  68.6520478 142.8730576 125.2545621  60.7410099
 143.0467453 124.6892043  59.9883952 143.3659467 126.0546516  60.5589589
 128.6907535 117.2660290  68.8073658 128.1461003 118.0420098  68.9393932
 129.5686885 117.6131094  68.6492779 135.4795152 110.5971874  61.1854456
 135.6011063 109.6688520  61.3845344 135.1897194 110.6110560  60.2732772
 138.3486342 108.2826784  64.3221176 138.3708039 108.3466117  63.3673156
 138.7654401 107.4431293  64.5161682 148.7269967 118.0182044  62.3600399
 149.1701113 117.2689369  61.9619522 147.8496477 118.0092180  61.9774131
 143.8605748 124.5712385  57.8406997 144.5556653 125.1919078  58.0594312
 144.2028898 123.7207737  58.1159375 129.4773557 116.3930186  71.7003815
 128.7355293 116.5412822  72.2868445 129.1566302 116.6538452  70.8370564
 145.7597171 122.0212091  59.3694328 146.2848495 122.3599364  58.6443648
 145.6719524 121.0859106  59.1857463 137.4217220 125.9346164  71.4984205
 137.7304346 125.6895311  72.3706904 138.2192702 126.1392803  71.0103075
 137.4437832 128.0884074  63.7289581 137.0042822 127.5960453  64.4222438
 138.1945949 127.5457042  63.4881657 129.9230171 124.2795615  63.7314209
 130.7488191 123.9799387  63.3512853 129.5724223 123.5103237  64.1803998
 134.8911704 123.6322083  65.8011883 134.2691713 122.9692788  65.5014111
 135.5616571 123.6583215  65.1185531 128.1238776 122.1981941  64.6903143
 127.2870684 121.7704116  64.5087144 128.0962421 122.3914385  65.6273934
 134.9636232 112.1103871  75.3944389 135.0124387 112.9865994  75.0122159
 135.5058746 111.5681264  74.8216032 145.4491077 122.6544994  74.6745526
 144.6586621 122.6369133  74.1350026 145.2124432 123.1933288  75.4294563
 145.5688952 119.5037461  71.9878255 145.6186957 119.3387468  72.9293777
 145.4602876 118.6364720  71.5976135 134.4525211 122.1826007  59.2770344
 134.6013331 122.8661471  58.6237016 135.2591654 122.1631097  59.7919799
 142.8592715 115.4868389  73.3037561 143.7602577 115.3474854  73.0121559
 142.9340689 115.6522844  74.2435739 137.1935520 112.8635244  72.1490748
 136.3238829 113.1568810  71.8773336 137.4295000 113.4475689  72.8698011
 147.0707149 121.9234402  72.2320276 146.7791957 122.2864383  73.0683737
 146.4579280 121.2101411  72.0533608 148.2702831 119.4887282  64.7522846
 149.1049723 119.9277086  64.9160407 148.4061960 119.0125935  63.9331092
 145.3194337 117.0467017  70.7000334 145.7948459 117.2394663  69.8919186
 144.3959903 117.1026203  70.4543718 132.2077844 118.2091184  60.2831412
 131.9623886 117.3053514  60.4811623 132.3773759 118.2108335  59.3410890
 139.8974554 109.0814861  69.6656168 140.4156498 109.8175887  69.3402657
 139.5429687 109.3878854  70.5002927 131.4773492 113.9419542  57.7817574
 130.7842736 114.0163897  57.1257610 131.2325243 113.1779885  58.3039091
 140.1487148 105.5015143  65.1857065 140.4288902 104.8338332  65.8117491
 140.9337755 105.6944239  64.6731729 137.9520617 124.6774137  56.7482091
 137.3794584 125.2964324  56.2952563 138.5253410 125.2273499  57.2822013
 144.0196006 113.9232777  68.9328640 144.9713429 114.0230875  68.9540864
 143.8499457 113.1311046  69.4426724 142.0410386 111.0088360  69.1188041
 141.4460318 111.2893373  68.4234529 141.7560083 111.4982261  69.8904782
 141.1717876 124.9611287  57.8790673 142.1048549 124.8956849  58.0823549
 141.0841089 125.7967554  57.4205206 143.8005893 124.2777157  54.8394621
 143.7219525 123.9437021  55.7330379 144.6215560 124.7698925  54.8386093
 146.4984084 117.1438897  68.0470939 146.4660404 116.2054897  68.2330623
 147.1084708 117.2222933  67.3136764 138.3367415 116.0134950  54.0898143
 139.2826520 115.8841158  54.1586562 137.9581660 115.2749612  54.5667572
 146.6478573 113.9349940  68.0929223 146.1317621 113.1508397  67.9059151
 147.5318521 113.6068657  68.2575742 144.3089300 107.6790956  64.0525035
 144.1114121 107.3706044  64.9368367 144.9189005 108.4052595  64.1822965
 152.3160634 118.2054904  67.1876976 153.0464022 117.9440192  67.7484680
 151.7067580 117.4683626  67.2279044 150.3975931 116.3462766  67.7851427
 149.6709095 116.2118731  67.1767919 149.9823218 116.6539595  68.5908145
 138.2206108 120.0652696  75.5498800 139.1409117 120.2431295  75.7438847
 138.1855691 119.1208741  75.3978500 136.5210332 113.9384926  54.0253029
 135.6141788 113.6418039  54.1015742 136.7986313 113.6414744  53.1587315
 127.4388273 115.2591290  64.4752075 127.1191057 114.4056598  64.1826449
 126.8921701 115.4739868  65.2310042 131.2168180 117.9753731  68.1921582
 131.4354190 118.9070838  68.2109615 131.6293954 117.6161705  68.9776385
 138.1372398 108.4821816  60.1797270 137.3273126 108.1368901  60.5552516
 138.8256815 108.1729360  60.7684882 140.0662946 107.5599863  61.8021567
 140.6193985 107.9795316  62.4611590 140.3033033 106.6335611  61.8444523
 136.0896045 113.5486936  77.5824331 135.9892772 114.4981293  77.5136422
 135.8717587 113.2205175  76.7100401 135.2909117 110.7971861  54.1665008
 136.1528281 111.1226760  54.4260825 135.4759461 110.0103357  53.6538074
 127.3076533 118.8794201  66.4445197 126.6140004 118.4648154  65.9315151
 128.0549524 118.9214738  65.8478616 143.4441753 109.6700388  61.3100231
 142.8640422 110.3285192  60.9278283 143.1777686 108.8477732  60.8987648
 141.8945320 109.0705446  63.5121551 142.3945098 109.1821980  62.7035870
 142.5380928 108.7666498  64.1522360 135.9527315 116.9784075  76.3989392
 135.4694397 117.7784435  76.6053281 136.0388255 116.9892020  75.4456836
 129.2213275 118.8112455  64.3211212 129.1983963 118.9100142  63.3693095
 129.5313912 119.6577606  64.6428378 131.8800653 120.8688610  68.4357826
 132.8343907 120.8372552  68.3687758 131.6813177 120.4079234  69.2508052
 132.4700035 119.4389726  71.0028624 133.2892924 119.9333805  71.0263461
 132.7436843 118.5221694  70.9746191 142.2266631 111.8300478  60.3656579
 141.3392486 112.1150129  60.1476774 142.6420620 111.6694242  59.5183856
 145.5781167 111.8546999  64.0810918 146.3541558 112.3443452  64.3535535
 144.8529302 112.2805053  64.5382788 148.0153726 112.5674618  65.1384859
 148.6098217 112.3270354  64.4278167 148.0880310 111.8481749  65.7658395
 130.2350882 126.4108229  65.4528024 130.1005350 125.6508630  64.8866022
 129.8182944 127.1349129  64.9856813 141.3709845 121.5945153  54.4604599
 142.0745695 121.7995155  55.0762255 140.6472494 122.1621915  54.7253683
 142.2007655 117.3455014  60.5806869 142.1442856 117.8023566  59.7414502
 142.7535998 116.5845699  60.4029712 146.0112461 113.1344746  61.4056989
 145.7549395 112.7341382  62.2365197 145.3865329 113.8488540  61.2807128
 150.3224799 115.8740819  63.9128280 149.7624357 115.9434009  64.6859842
 149.7168302 115.6981804  63.1927776 133.3920008 127.3077546  65.6646467
 133.2752392 128.2522979  65.5625157 132.5712454 127.0051108  66.0532266
 143.2796542 122.0327682  56.5103059 144.1142146 121.6008881  56.3280534
 143.1180885 121.8609696  57.4379954 142.9342434 118.5359795  57.8759399
 142.8791238 118.3704067  56.9347843 142.3088490 119.2435828  58.0321588
 127.7234949 113.7727860  71.7020821 128.3693813 113.2626814  72.1908046
 127.5152100 114.5096541  72.2764246 140.2488342 120.8408707  77.2012961
 141.1179501 121.0149360  76.8399596 139.7695093 121.6603124  77.0788691
 136.2438560 108.0367904  57.4544717 136.2317230 108.9809744  57.6112988
 137.1361982 107.8538050  57.1604178 134.4174522 127.9605808  68.8802395
 135.3201768 127.9929419  69.1968890 134.1911892 127.0306259  68.8948731
 136.1728124 126.7136795  65.5412474 135.2223755 126.7138656  65.4276846
 136.4760610 125.9669529  65.0248508 140.0590679 104.6310681  61.7090654
 139.2923075 104.0769168  61.8547336 140.4701384 104.7032550  62.5704805
 132.0632440 110.9195477  75.7995835 132.9263902 110.5632282  76.0099160
 131.4897851 110.5809372  76.4871239 151.9080817 132.5497333  66.6058236
 152.5459227 132.4304081  65.9021576 151.7901660 133.4978177  66.6646188
 148.7170524 132.5024761  66.5419761 148.3789035 132.3865826  65.6540295
 149.5860292 132.1015926  66.5220767 144.5757339 134.3560238  62.5316652
 144.0122204 134.2650175  61.7632939 144.4609734 133.5360142  63.0119144
 149.1990307 133.6559613  72.5005966 149.1878947 133.2612411  71.6286470
 149.3610946 132.9225686  73.0939738 142.1221771 135.8511429  65.3700872
 142.9143063 135.5102254  64.9547171 142.3618421 135.9606404  66.2903025
 144.0812525 135.1120343  58.2418251 144.8543401 134.5649330  58.1031127
 144.4337924 135.9764592  58.4532712 145.9197568 136.4396725  71.4485150
 145.6287434 137.3442356  71.3331816 146.5554552 136.4813252  72.1629220
 146.8453775 133.8173573  68.0386510 147.4417347 133.5929596  67.3243473
 146.9028746 133.0758319  68.6411958 146.4178803 131.2713009  55.8736701
 146.6704324 130.7494530  55.1120164 145.4803362 131.1079154  55.9763384
 151.4622086 130.2748787  63.6811444 152.2485175 129.8568210  63.3301861
 151.7260790 131.1794879  63.8493092 151.6332163 135.7121637  58.3800101
 150.9977996 135.7856264  59.0921005 151.3029570 136.3015236  57.7019180
 146.1375092 133.1741115  58.0761076 146.0211350 132.4986018  58.7442160
 146.2477352 132.6873489  57.2593229 148.4806633 132.6351262  61.7807765
 148.1164840 132.1081883  62.4920686 149.3373749 132.2449731  61.6074250
 154.3855933 123.9245594  69.0439031 154.0539258 124.7941005  68.8200246
 153.7901547 123.6081878  69.7233061 148.1212120 127.6641161  56.7769113
 148.2886522 128.5321398  57.1439585 147.9309289 127.8268443  55.8530403
 150.8787453 136.1258140  68.4434944 150.5788176 137.0283179  68.3350751
 150.5338512 135.8590324  69.2956097 144.3299934 132.5771937  64.4771648
 143.4050431 132.4448151  64.6849340 144.5784347 133.3566156  64.9741591
 154.2784597 128.6440681  66.1232381 153.3701474 128.5756089  65.8291142
 154.2272192 129.1212625  66.9514207 148.1001340 130.1198819  57.7615780
 147.9800966 130.5655870  58.6001261 147.4053929 130.4684137  57.2029318
 141.6908745 132.2205211  65.3115437 141.8201126 132.4739690  66.2254849
 141.0106197 132.8132919  64.9920092 148.3525462 130.0630326  74.0667278
 147.5758796 130.6224246  74.0570143 148.9916025 130.5487109  74.5882149
 156.1446243 126.8457119  67.9010255 155.5020623 127.1389652  67.2550050
 155.6401171 126.7310039  68.7063452 153.7986407 130.5920292  58.5896114
 154.7104263 130.8247679  58.4143812 153.2896054 131.1757336  58.0271193
 146.6071835 132.8715779  73.6285245 147.3486519 133.4100823  73.3520069
 145.9008820 133.4982068  73.7856797 152.0827174 135.0144920  72.2257407
 152.4910530 134.5727330  71.4812039 151.3604436 134.4397547  72.4791600
 148.4358244 129.9517527  69.5990964 149.2819440 130.3756940  69.7425613
 148.3756882 129.2951151  70.2929527 152.4055989 135.5746111  65.9809696
 151.7764851 135.7391825  65.2785764 152.0181651 135.9887720  66.7520660
 151.5857690 127.6121895  71.2572137 151.3418622 128.3663956  70.7206413
 151.8617620 127.9907243  72.0919385 153.5396152 134.1560507  69.9349403
 153.7513048 134.7992267  69.2583784 153.4925901 133.3222824  69.4671333
 151.1422381 126.7678328  66.8385975 150.2806860 127.0659582  67.1302713
 151.1684816 126.9848727  65.9067008 147.9583951 135.3120519  63.2459781
 148.4222296 135.5908222  62.4564403 147.6940749 134.4103963  63.0632872
 144.8508032 134.8592000  66.1839544 145.4209389 135.2879269  65.5457029
 145.4416144 134.5774585  66.8823730 146.8952837 131.4343671  60.0549346
 147.5976880 131.8864715  60.5223272 146.5633465 130.7927490  60.6829239
 145.3433198 130.0255428  74.4300555 144.7131859 130.7071708  74.6635952
 145.2369286 129.9138509  73.4853694 140.6378171 129.6927224  65.3566480
 139.8477225 129.9484752  64.8806590 141.1289418 130.5075562  65.4618520
 142.5892916 130.0571803  62.3149956 141.7924079 130.1690497  62.8333452
 142.3618508 130.3958455  61.4490847 148.4198584 136.5816506  70.2632471
 148.4843016 137.0436913  71.0990643 147.7109508 135.9513871  70.3914781
 138.9215874 129.9457714  67.7881470 139.1723912 130.8304724  68.0539046
 139.4575422 129.7662316  67.0156562 148.1346601 138.2484614  60.1311451
 147.9992276 139.0936149  60.5596299 148.6756414 138.4503891  59.3677385
 144.6213941 124.3276193  76.7925806 144.2280887 123.7742392  77.4673451
 145.4380081 124.6386772  77.1832324 141.5875999 135.7660052  60.7039376
 142.1000519 136.5603302  60.8544941 142.2398712 135.0686342  60.6372978
 143.3970884 138.8825808  62.7862130 143.5737512 139.8043773  62.5983113
 144.1927717 138.5684227  63.2156509 147.5381902 125.7434073  74.3846063
 148.2791615 126.3441226  74.3050526 147.7699825 125.0011710  73.8264106
 142.6823240 130.9290440  72.6624293 142.5676755 130.0275697  72.9631392
 141.8267758 131.1754137  72.3109109 144.5202199 140.4003982  68.7872472
 145.0709624 140.2721045  68.0149466 143.6813675 140.6998871  68.4367365
 148.3169370 136.6655110  73.1316703 148.8497707 135.9043398  72.9016011
 147.7883451 136.3728761  73.8740857 151.4839065 121.7715176  68.6610345
 151.1403334 122.6616817  68.5849455 151.8518028 121.5816833  67.7979930
 139.5524916 134.0948706  61.4798947 140.3900138 134.5045714  61.2632655
 139.7303183 133.1548148  61.4499141 151.4489348 131.7623787  57.1682780
 150.9335971 132.5328391  57.4071167 151.1766656 131.0888923  57.7915841
 149.0336459 126.6073487  62.2268018 148.1778055 126.2180338  62.0473657
 149.4463411 126.6865448  61.3667804 150.5635605 124.1419831  66.6259578
 150.0600401 124.1049966  65.8127383 150.8566212 125.0512573  66.6856235
 146.8078491 124.2258560  65.6325760 147.6731488 124.0301369  65.2731649
 146.8756000 123.9968912  66.5595116 151.2375651 129.6350879  58.9942561
 150.9325787 129.9497028  59.8452704 152.1906093 129.7132299  59.0369894
 149.6822083 135.7941102  60.6435515 149.1543444 135.0593862  60.3308752
 149.1809586 136.5715778  60.3975483 154.6614929 133.9890123  65.7602561
 154.0038603 134.6789384  65.8482690 155.4655328 134.3786554  66.1036548
 144.4140810 126.4560768  63.0042127 144.9884562 126.2335950  62.2715319
 145.0011793 126.5249463  63.7570728 153.4720388 132.3434495  63.8106503
 153.9852269 132.9764487  64.3128213 154.1221611 131.7435691  63.4449863
 144.7410398 128.4865229  57.0238012 143.9047710 128.8239916  57.3447287
 144.6015167 128.3514209  56.0865149 146.7163478 123.3302017  61.7317196
 146.0627890 123.0151034  61.1073811 146.6743952 122.7077758  62.4577019
 147.8274683 133.6121312  53.6470488 146.9201745 133.3810566  53.8461637
 148.3245715 132.8158932  53.8344470 149.9501218 129.8183951  66.0564844
 149.0323780 130.0398898  65.8986532 150.3661362 129.8930261  65.1976551
 150.7336266 131.2175366  61.1867524 151.4808085 131.7296764  60.8774646
 151.0027856 130.8959419  62.0471917 149.0062916 133.7133907  58.1694478
 148.0974136 133.4292940  58.2666948 149.0358000 134.1332986  57.3097785
 153.1815103 128.2532483  63.1686313 152.4437860 127.7409869  63.4996556
 153.4341877 127.8132864  62.3569590 153.2826731 121.0308735  63.7628082
 153.5885608 120.1706098  63.4753997 154.0079336 121.6226355  63.5627076
 139.5751087 131.4339421  62.1509680 139.3775487 130.8408782  61.4260747
 139.0197751 131.1291631  62.8685619 147.5547810 131.3262528  64.2704273
 147.6096420 130.3736364  64.1946750 146.7439012 131.4821967  64.7545572
 148.7039004 135.2542651  55.5082557 148.2658434 134.5378510  55.0488194
 149.4449445 135.4818766  54.9467648 145.4940170 129.9439587  62.0294652
 144.6808036 130.2433758  62.4359844 145.9899165 129.5495276  62.7469135
 147.6448748 139.9397344  63.9628917 147.6024927 140.1658191  63.0337449
 148.5611447 139.7060719  64.1114718 151.0914382 130.4081412  70.8609546
 151.4463770 130.6352885  71.7204012 151.7386513 130.7399789  70.2386802
 144.9854245 127.5157943  67.6455887 145.6253624 127.3746702  66.9478851
 144.1531776 127.2292456  67.2694489 145.7614549 136.8160373  63.7590880
 146.5555148 136.3210694  63.5573455 145.0506241 136.2878237  63.3958585
 142.0697312 130.9603455  59.8350632 141.1394901 130.8987911  60.0520595
 142.1654784 130.4379408  59.0387274 141.9882862 127.4858268  62.4228874
 142.2489679 128.4003601  62.3138035 142.8100034 127.0182711  62.5725487
 143.4607787 128.8996025  69.5927699 144.1330840 128.6913387  68.9440348
 142.6337573 128.7018111  69.1532931 149.3633359 125.5257966  71.6093359
 148.7161274 126.2247916  71.5157836 150.1334374 125.9594110  71.9769608
 152.7712157 135.7906818  74.6843913 152.6197663 135.5617370  73.7673996
 152.7616836 136.7477420  74.6975258 149.5397493 133.3638731  69.6690179
 150.4689553 133.5149891  69.4959147 149.1188523 133.4522752  68.8138826
 148.3385825 137.3889395  67.4388717 148.1996911 137.0208180  68.3114655
 147.5500421 137.9037035  67.2672675 149.8891040 136.7670998  64.8277555
 149.5540873 136.7271768  65.7235205 149.3894986 136.1015714  64.3547965
 143.8635284 132.1738628  70.3530136 143.7255082 131.4418867  70.9541675
 144.7740208 132.0847528  70.0714324 152.8250232 134.1127032  55.1014614
 152.2079402 133.3873861  55.0047667 152.3566720 134.8736393  54.7581689
 146.4917585 131.8858587  69.8413815 147.2017203 131.2451780  69.8000434
 146.4486893 132.1371482  70.7639996 145.2046519 128.8723805  71.6609455
 144.6683876 128.4214544  72.3131051 144.6163227 129.0069714  70.9179919
 144.6148778 128.3312457  54.2235919 143.7378244 128.2101258  53.8598165
 145.0906531 127.5398535  53.9714807 136.1350918 133.1189616  64.3177426
 136.8221958 132.8051347  63.7298441 135.9799047 134.0230981  64.0444677
 140.9385640 128.0079813  68.7462449 140.8543829 127.4005483  68.0112859
 140.1168346 128.4988831  68.7471946 151.1109354 126.4933377  64.1132644
 151.6078053 125.7403339  63.7933715 150.3396335 126.5297693  63.5475854
 152.1939135 135.2505064  61.6871068 151.2595413 135.3706526  61.5175772
 152.3715803 134.3477531  61.4231078 147.6944323 128.6350760  63.8404329
 147.3242110 128.0821800  64.5285235 148.1903415 128.0308893  63.2879329
 155.5811686 131.0922383  62.2221102 156.0472138 131.9250375  62.1481405
 156.0319186 130.6267365  62.9266360 145.5233521 139.0948255  70.9359347
 146.2242981 139.7284738  71.0888741 145.0528636 139.4362986  70.1754986
 153.5528349 123.4602970  66.2612003 152.6391428 123.6907197  66.4294210
 153.9821450 123.5441414  67.1126036 153.3234807 131.6492862  68.7611897
 152.6706257 131.8968769  68.1064350 153.7015187 130.8357000  68.4274375
 149.3722380 132.3912673  75.2477934 148.6963017 132.2906802  75.9180310
 150.1950014 132.2351887  75.7113932 141.1201239 138.6284610  67.8690450
 141.7054676 137.8828298  68.0018354 140.9226078 138.9388566  68.7527114
 143.9739894 141.6635857  62.8852892 143.3050270 142.1481985  62.4016932
 143.8352764 141.9105077  63.7996271 135.7118894 131.1990210  66.5894893
 135.7502994 130.6653801  67.3832011 135.2059187 130.6725415  65.9705870
 143.0909656 126.0454750  70.0857435 143.1550983 126.9069581  69.6734833
 143.0276777 125.4328752  69.3529794 142.5661929 128.1177883  73.7330469
 143.1933968 127.7354960  74.3467994 141.7089848 127.8992085  74.0986162
 139.3427472 129.9254312  59.6648824 139.6380913 129.0164990  59.6115878
 138.4415507 129.9042051  59.3429827 142.8721719 128.0010309  65.6476373
 142.1508304 128.6146276  65.5083846 143.6614974 128.5368073  65.5693019
 145.6748032 125.3364735  71.9217025 146.1982434 125.5827032  72.6843334
 145.4560365 126.1684770  71.5020162 141.0715313 127.6068410  59.7888149
 140.7428019 126.7265789  59.6063255 141.4254684 127.5516078  60.6764539
 144.1857136 127.8941379  60.1563627 144.5253209 128.4227301  59.4342235
 144.6329257 128.2321786  60.9322194 146.8800577 126.2778430  69.6066695
 146.5397398 125.4786243  70.0087375 146.1739583 126.5780141  69.0343528
 147.5317049 123.3627743  68.0594018 148.3543118 122.8888221  67.9372908
 147.7755112 124.1418226  68.5592704 146.1725283 126.3916001  58.3556920
 146.8933646 126.7697254  57.8520637 145.5490588 127.1104878  58.4591898
 150.3156406 127.0961150  59.2915252 150.5320021 127.9785788  58.9904080
 149.8350473 126.7047363  58.5620894 145.0555628 130.0546863  65.8685997
 144.9100208 130.3687166  66.7610278 144.5780831 130.6731764  65.3156895
 146.9152011 127.0449411  65.9166886 146.9013579 126.1490505  65.5799184
 147.6324439 127.0520075  66.5505172 148.7678141 127.4786751  67.9620014
 148.5095919 128.4003822  67.9604344 148.2363182 127.0817186  68.6520478
 139.5301290 132.5952208  68.8073658 138.9854758 133.3712016  68.9393932
 140.4080640 132.9423012  68.6492779 146.3188907 125.9263792  61.1854456
 146.4404818 124.9980438  61.3845344 146.0290949 125.9402477  60.2732772
 149.1880097 123.6118702  64.3221176 149.2101794 123.6758035  63.3673156
 149.6048156 122.7723211  64.5161682 140.3167312 131.7222104  71.7003815
 139.5749048 131.8704739  72.2868445 139.9960056 131.9830370  70.8370564
 140.7623925 139.6087533  63.7314209 141.5881945 139.3091305  63.3512853
 140.4117977 138.8395155  64.1803998 145.7305459 138.9614001  65.8011883
 145.1085468 138.2984706  65.5014111 146.4010325 138.9875133  65.1185531
 138.9632530 137.5273859  64.6903143 138.1264439 137.0996033  64.5087144
 138.9356176 137.7206302  65.6273934 145.8029986 127.4395789  75.3944389
 145.8518142 128.3157912  75.0122159 146.3452500 126.8973182  74.8216032
 145.2918965 137.5117924  59.2770344 145.4407086 138.1953389  58.6237016
 146.0985409 137.4923014  59.7919799 153.6986469 130.8160307  73.3037561
 154.5996332 130.6766771  73.0121559 153.7734444 130.9814761  74.2435739
 148.0329275 128.1927161  72.1490748 147.1632584 128.4860727  71.8773336
 148.2688755 128.7767606  72.8698011 156.1588092 132.3758935  70.7000334
 156.6342213 132.5686581  69.8919186 155.2353657 132.4318120  70.4543718
 143.0471598 133.5383102  60.2831412 142.8017640 132.6345432  60.4811623
 143.2167513 133.5400252  59.3410890 150.7368308 124.4106778  69.6656168
 151.2550252 125.1467805  69.3402657 150.3823441 124.7170772  70.5002927
 142.3167246 129.2711459  57.7817574 141.6236491 129.3455814  57.1257610
 142.0718998 128.5071803  58.3039091 150.9880903 120.8307061  65.1857065
 151.2682656 120.1630250  65.8117491 151.7731509 121.0236156  64.6731729
 154.8589761 129.2524695  68.9328640 155.8107184 129.3522792  68.9540864
 154.6893211 128.4602963  69.4426724 152.8804140 126.3380278  69.1188041
 152.2854072 126.6185291  68.4234529 152.5953837 126.8274179  69.8904782
 149.1761170 131.3426867  54.0898143 150.1220274 131.2133076  54.1586562
 148.7975414 130.6041529  54.5667572 155.1483054 123.0082873  64.0525035
 154.9507875 122.6997962  64.9368367 155.7582760 123.7344512  64.1822965
 149.0599862 135.3944614  75.5498800 149.9802872 135.5723213  75.7438847
 149.0249445 134.4500659  75.3978500 147.3604087 129.2676844  54.0253029
 146.4535542 128.9709957  54.1015742 147.6380068 128.9706662  53.1587315
 138.2782027 130.5883207  64.4752075 137.9584811 129.7348515  64.1826449
 137.7315455 130.8031785  65.2310042 142.0561935 133.3045648  68.1921582
 142.2747944 134.2362756  68.2109615 142.4687708 132.9453623  68.9776385
 148.9766152 123.8113734  60.1797270 148.1666881 123.4660818  60.5552516
 149.6650569 123.5021277  60.7684882 150.9056701 122.8891780  61.8021567
 151.4587739 123.3087234  62.4611590 151.1426787 121.9627528  61.8444523
 146.9289800 128.8778854  77.5824331 146.8286527 129.8273211  77.5136422
 146.7111342 128.5497093  76.7100401 146.1302871 126.1263779  54.1665008
 146.9922035 126.4518677  54.4260825 146.3153215 125.3395275  53.6538074
 138.1470287 134.2086119  66.4445197 137.4533758 133.7940071  65.9315151
 138.8943278 134.2506655  65.8478616 154.2835508 124.9992305  61.3100231
 153.7034177 125.6577110  60.9278283 154.0171440 124.1769650  60.8987648
 152.7339074 124.3997363  63.5121551 153.2338853 124.5113898  62.7035870
 153.3774682 124.0958416  64.1522360 146.7921070 132.3075993  76.3989392
 146.3088152 133.1076353  76.6053281 146.8782009 132.3183938  75.4456836
 140.0607030 134.1404372  64.3211212 140.0377718 134.2392060  63.3693095
 140.3707666 134.9869523  64.6428378 142.7194407 136.1980528  68.4357826
 143.6737661 136.1664470  68.3687758 142.5206931 135.7371151  69.2508052
 143.3093790 134.7681644  71.0028624 144.1286679 135.2625722  71.0263461
 143.5830597 133.8513612  70.9746191 153.0660386 127.1592396  60.3656579
 152.1786241 127.4442046  60.1476774 153.4814375 126.9986159  59.5183856
 141.0744636 141.7400147  65.4528024 140.9399104 140.9800548  64.8866022
 140.6576699 142.4641047  64.9856813 153.0401410 132.6746932  60.5806869
 152.9836611 133.1315483  59.7414502 153.5929752 131.9137616  60.4029712
 153.7736189 133.8651713  57.8759399 153.7184993 133.6995984  56.9347843
 153.1482244 134.5727746  58.0321588 138.5628704 129.1019777  71.7020821
 139.2087567 128.5918731  72.1908046 138.3545855 129.8388459  72.2764246
 151.0882096 136.1700625  77.2012961 151.9573256 136.3441277  76.8399596
 150.6088848 136.9895042  77.0788691 147.0832314 123.3659822  57.4544717
 147.0710984 124.3101662  57.6112988 147.9755736 123.1829967  57.1604178
 150.8984434 119.9602599  61.7090654 150.1316830 119.4061085  61.8547336
 151.3095139 120.0324467  62.5704805 142.9026195 126.2487394  75.7995835
 143.7657656 125.8924199  76.0099160 142.3291605 125.9101289  76.4871239
  55.4071737  -9.7761790  52.0946179  56.1993028 -10.1170965  51.6792478
  55.6468387  -9.6666814  53.0148332  63.4406863  -7.6042013  44.5676423
  62.7894843  -7.0187933  44.1810437  64.2351226  -7.0735819  44.6271461
  57.3662490 -10.5152876  44.9663557  58.1393366 -11.0623889  44.8276433
  57.7187889  -9.6508627  45.1778019  59.2047533  -9.1876494  58.1730457
  58.9137399  -8.2830863  58.0577123  59.8404517  -9.1459966  58.8874526
  59.1458198  -2.7370758  48.1351218  59.0682228  -1.7862933  48.2139699
  58.5419841  -3.0824886  48.7926144  61.7048549  -9.0456713  56.9877778
  61.7692982  -8.5836305  57.8235949  60.9959473  -9.6759348  57.1160087
  61.4196567  -7.3788605  46.8556758  61.2842242  -6.5337069  47.2841606
  61.9606379  -7.1769328  46.0922692  54.8725964  -9.8613167  47.4284683
  55.3850485  -9.0669917  47.5790248  55.5248677 -10.5586877  47.3618284
  56.6820849  -6.7447411  49.5107436  56.8587477  -5.8229446  49.3228420
  57.4777682  -7.0588992  49.9401816  63.0465043  -6.7565039  60.9857100
  62.6028897  -7.5428660  60.6678004  63.7082257  -6.5685888  60.3200991
  57.8052164  -5.2269237  55.5117778  58.3559590  -5.3552174  54.7394772
  56.9663640  -4.9274348  55.1612671  65.1446281  -6.4762239  59.0138501
  65.1264757  -5.6553358  58.5218770  66.0666201  -6.6008164  59.2388642
  52.8374881 -11.5324513  48.2044254  53.6750103 -11.1227504  47.9877961
  53.0153149 -12.4725071  48.1744447  64.0192727  -3.3054399  43.2912481
  63.3454426  -3.0022703  43.8997439  64.4058549  -2.5025319  42.9417938
  65.9665088  -6.4656225  49.5980770  66.2588063  -5.9051168  48.8793136
  66.4763709  -6.1727664  50.3533930  60.9298714  -5.6875874  50.6874224
  60.8874892  -5.4615028  49.7582756  61.8461412  -5.9212500  50.8360025
  59.0464514  -8.8112845  50.4836186  59.8405113  -9.3062525  50.2818761
  58.3356207  -9.3394982  50.1203892  63.8659359  -6.4294750  54.8348554
  63.9196381  -5.8603814  55.6026270  62.9974140  -6.2592865  54.4702591
  61.6235790  -8.2383823  54.1634023  61.4846876  -8.6065039  55.0359962
  60.8350387  -7.7236184  53.9917981  62.2183942  -3.1374727  45.5059560
  62.3935698  -3.6086684  46.3205183  61.5316730  -2.5108961  45.7340821
  67.7654329  -6.8047278  59.4865701  67.7066875  -7.4888058  58.8196284
  68.1673847  -6.0628288  59.0346327  56.7845028   0.0114636  52.2799420
  57.0241626   0.6433160  52.9578439  55.9414224  -0.3397324  52.5664779
  61.2972889  -4.1806242  54.6840924  61.2243061  -3.3751270  55.1960229
  60.8550283  -3.9814276  53.8588946  61.0862669  -4.9434472  48.1943746
  60.3030191  -4.4012791  48.2881970  61.7855414  -4.4260492  48.5937987
  63.7571573  -4.2819408  56.8399083  64.4699545  -3.6471943  56.7674984
  63.2661602  -4.1855542  56.0239085  58.8083487  -6.5324964  57.6604654
  59.5092946  -5.8988481  57.8134048  58.3378602  -6.1910233  56.9000293
  63.5691946  -3.9420664  49.5885374  63.7514341  -4.7599008  50.0513127
  64.3924932  -3.7252971  49.1510264  63.9034112  -5.0152478  46.8500423
  64.4321878  -5.5260024  46.2370585  64.1662331  -5.3309948  47.7145956
  54.4051205  -6.9988609  54.5935756  54.9904641  -7.7444921  54.7263661
  54.2076043  -6.6884652  55.4772420  57.2589860  -3.9637362  49.6098199
  56.5900235  -3.4791234  49.1262239  57.1202730  -3.7168141  50.5241577
  61.3995128  -1.9293618  56.2080857  61.9513436  -1.7661997  56.9729942
  61.7401322  -1.3389180  55.5360882  66.2506003  -7.1032361  62.0629511
  66.7945907  -6.4902402  61.5684466  65.6692848  -6.5452782  62.5796524
  64.5363516  -3.9811643  53.1944539  64.4114655  -4.7821903  52.6855485
  65.1942607  -3.4865449  52.7058509  66.5998424  -6.1802623  54.8224089
  65.6528760  -6.2997271  54.7502416  66.9481197  -7.0680125  54.9050351
  63.6044857  -6.3849906  51.0228442  63.4569820  -7.3133199  51.2036012
  64.4298351  -6.3629816  50.5385517  67.2078979  -5.5621348  52.1093314
  68.1325527  -5.7678486  51.9717765  67.0394283  -5.8104947  53.0182656
  66.9974295  -5.0435680  47.4655406  67.1711173  -5.6089258  46.7129258
  67.4903187  -4.2434785  47.2834896  67.9849468  -5.7268916  44.5652304
  68.6800373  -5.1062223  44.7839619  68.3272618  -6.5773565  44.8404682
  61.5460940  -4.3635137  58.2229511  61.8548066  -4.6085990  59.0952211
  62.3436422  -4.1588498  57.7348382  61.5681552  -2.2097227  50.4534888
  61.1286542  -2.7020848  51.1467745  62.3189669  -2.7524259  50.2126963
  54.0473891  -6.0185686  50.4559516  54.8731911  -6.3181914  50.0758160
  53.6967943  -6.7878064  50.9049305  59.0155424  -6.6659218  52.5257190
  58.3935433  -7.3288513  52.2259418  59.6860291  -6.6398086  51.8430837
  52.2482496  -8.0999360  51.4148450  51.4114404  -8.5277185  51.2332451
  52.2206141  -7.9066916  52.3519241  58.5768931  -8.1155295  46.0015650
  58.7257051  -7.4319830  45.3482323  59.3835374  -8.1350205  46.5165106
  62.0764336  -5.6207164  43.4727398  61.5038303  -5.0016977  43.0197869
  62.6497130  -5.0707802  44.0067320  65.2961596  -5.3370014  44.6035980
  66.2292269  -5.4024452  44.8068855  65.2084809  -4.5013747  44.1450513
  67.9249613  -6.0204144  41.5639927  67.8463244  -6.3544280  42.4575685
  68.7459280  -5.5282376  41.5631400  51.4320252 -11.4187100  53.1690503
  50.7383724 -11.8333147  52.6560458  52.1793243 -11.3766564  52.5723922
  53.3456995 -11.4868846  51.0456518  53.3227683 -11.3881159  50.0938401
  53.6557631 -10.6403696  51.3673684  56.0044373  -9.4292691  55.1603133
  56.9587626  -9.4608749  55.0933064  55.8056896  -9.8902068  55.9753359
  54.3594602  -3.8873072  52.1773330  54.2249070  -4.6472671  51.6111329
  53.9426664  -3.1632172  51.7102119  57.5163727  -2.9903755  52.3891773
  57.3996112  -2.0458322  52.2870463  56.6956174  -3.2930193  52.7777572
  58.5418242  -2.3375493  55.6047702  59.4445488  -2.3051883  55.9214197
  58.3155612  -3.2675042  55.6194037  60.2971844  -3.5844506  52.2657780
  59.3467475  -3.5842645  52.1522152  60.6004330  -4.3311772  51.7493815
  76.0324537   2.2516032  53.3303543  76.6702947   2.1322779  52.6266883
  75.9145380   3.1996876  53.3891495  72.8414243   2.2043460  53.2665067
  72.5032755   2.0884525  52.3785602  73.7104012   1.8034625  53.2466073
  68.7001059   4.0578937  49.2561958  68.1365924   3.9668873  48.4878246
  68.5853454   3.2378841  49.7364451  73.3234026   3.3578312  59.2251273
  73.3122667   2.9631110  58.3531776  73.4854666   2.6244384  59.8185044
  66.2465491   5.5530128  52.0946179  67.0386783   5.2120953  51.6792478
  66.4862141   5.6625103  53.0148332  74.2800618   7.7249904  44.5676423
  73.6288598   8.3103985  44.1810437  75.0744981   8.2556099  44.6271461
  68.2056245   4.8139041  44.9663557  68.9787121   4.2668028  44.8276433
  68.5581644   5.6783291  45.1778019  70.0441288   6.1415424  58.1730457
  69.7531153   7.0461055  58.0577123  70.6798272   6.1831951  58.8874526
  70.9697494   3.5192272  54.7631816  71.5661067   3.2948295  54.0488779
  71.0272466   2.7777018  55.3657264  70.5422523   0.9731708  42.5982007
  70.7948043   0.4513229  41.8365470  69.6047082   0.8097853  42.7008691
  75.5865806  -0.0232514  50.4056751  76.3728895  -0.4413091  50.0547168
  75.8504510   0.8813578  50.5738399  75.7575883   5.4140336  45.1045407
  75.1221716   5.4874963  45.8166312  75.4273289   6.0033935  44.4264487
  80.9874233  -0.0857281  51.3089729  81.7199405  -0.6558064  51.5427559
  80.2313588  -0.4735680  51.7496235  70.2618812   2.8759813  44.8006382
  70.1455070   2.2004717  45.4687467  70.3721071   2.3892187  43.9838535
  72.6050352   2.3369961  48.5053072  72.2408560   1.8100582  49.2165993
  73.4617468   1.9468430  48.3319557  72.2455839  -2.6340140  43.5014420
  72.4130242  -1.7659903  43.8684891  72.0553008  -2.4712858  42.5775709
  75.0031173   5.8276839  55.1680250  74.7031896   6.7301878  55.0596058
  74.6582232   5.5609022  56.0201403  68.4543654   2.2790636  51.2016955
  67.5294151   2.1466850  51.4094647  68.7028067   3.0584855  51.6986897
  78.4028316  -1.6540621  52.8477688  77.4945194  -1.7225212  52.5536449
  78.3515912  -1.1768676  53.6759513  72.2245060  -0.1782482  44.4861087
  72.1044685   0.2674569  45.3246567  71.5297649   0.1702835  43.9274625
  65.8152465   1.9223910  52.0360744  65.9444846   2.1758388  52.9500156
  65.1349916   2.5151618  51.7165399  69.9851952  12.5921160  48.1351218
  69.9075982  13.5428985  48.2139699  69.3813596  12.2467032  48.7926144
  72.4769182  -0.2350975  60.7912585  71.7002516   0.3242945  60.7815450
  73.1159745   0.2505808  61.3127455  77.9230126   0.2938991  45.3141421
  78.8347983   0.5266378  45.1389119  77.4139774   0.8776035  44.7516500
  70.7315554   2.5734478  60.3530552  71.4730239   3.1119522  60.0765376
  70.0252540   3.2000767  60.5102104  76.2070894   4.7163619  58.9502714
  76.6154250   4.2746029  58.2057346  75.4848156   4.1416246  59.2036906
  72.5601964  -0.3463774  56.3236270  73.4063159   0.0775639  56.4670919
  72.5000602  -1.0030150  57.0174834  76.5299709   5.2764809  52.7055002
  75.9008571   5.4410524  52.0031070  76.1425371   5.6906419  53.4765966
  80.4088941   6.2119247  50.0599366  79.7239979   6.5918149  49.5096400
  80.4932790   6.8214574  50.7931314  75.7101409  -2.6859406  57.9817444
  75.4662341  -1.9317346  57.4451720  75.9861340  -2.3074058  58.8164691
  77.6639872   3.8579206  56.6594710  77.8756768   4.5010966  55.9829091
  77.6169621   3.0241523  56.1916640  75.2666101  -3.5302973  53.5631282
  74.4050580  -3.2321720  53.8548019  75.2928536  -3.3132574  52.6312314
  72.0827671   5.0139217  49.9705088  72.5466016   5.2926920  49.1809710
  71.8184469   4.1122662  49.7878178  68.9751752   4.5610699  52.9084851
  69.5453109   4.9897967  52.2702335  69.5659864   4.2793284  53.6069036
  71.0196557   1.1362370  46.7794653  71.7220600   1.5883414  47.2468579
  70.6877185   0.4946189  47.4074546  69.4676918  -0.2725874  61.1545862
  68.8375579   0.4090407  61.3881259  69.3613006  -0.3842792  60.2099000
  64.7621891  -0.6054077  52.0811786  63.9720945  -0.3496549  51.6051897
  65.2533138   0.2094260  52.1863827  78.7785700   6.7351162  54.8317067
  79.6003144   6.3331349  54.5499749  78.7748103   6.6319396  55.7833183
  66.7136636  -0.2409498  49.0395263  65.9167799  -0.1290804  49.5578759
  66.4862228   0.0977154  48.1736153  72.5442304   6.2835205  56.9877778
  72.6086736   6.7455612  57.8235949  71.8353228   5.6532570  57.1160087
  63.0459594  -0.3523587  54.5126777  63.2967632   0.5323423  54.7784353
  63.5819142  -0.5318986  53.7401869  86.8691693   3.0789910  51.1802039
  86.1155402   2.5097308  51.0246043  87.0039234   3.0452575  52.1272673
  72.2590321   7.9503312  46.8556758  72.1235996   8.7954848  47.2841606
  72.8000134   8.1522590  46.0922692  68.7457661  -5.9705108  63.5171113
  68.3524607  -6.5238909  64.1918757  69.5623801  -5.6594529  63.9077631
  65.7119719   5.4678751  47.4284683  66.2244239   6.2622001  47.5790248
  66.3642432   4.7705041  47.3618284  67.5214603   8.5844507  49.5107436
  67.6981232   9.5062471  49.3228420  68.3171437   8.2702926  49.9401816
  71.6625622  -4.5547229  61.1091370  72.4035335  -3.9540075  61.0295832
  71.8943545  -5.2969591  60.5509412  66.8066960   0.6309139  59.3869599
  66.6920475  -0.2705604  59.6876698  65.9511478   0.8772835  59.0354416
  73.8858798   8.5726879  60.9857100  73.4422652   7.7863258  60.6678004
  74.5476011   8.7606029  60.3200991  68.6445919  10.1022681  55.5117778
  69.1953344   9.9739744  54.7394772  67.8057395  10.4017570  55.1612671
  75.9840036   8.8529679  59.0138501  75.9658511   9.6738560  58.5218770
  76.9059956   8.7283754  59.2388642  72.4413090   6.3673808  59.8562010
  72.9741427   5.6062097  59.6261318  71.9127171   6.0747460  60.5986164
  63.6768635   3.7967405  48.2044254  64.5143857   4.2064413  47.9877961
  63.8546903   2.8566847  48.1744447  75.5733068   1.4642485  43.8928086
  75.0579691   2.2347090  44.1316474  75.3010376   0.7907622  44.5161148
  73.1580179  -3.6907814  48.9513325  72.3021775  -4.0800963  48.7718964
  73.5707130  -3.6115853  48.0913110  70.9322211  -6.0722741  52.3571066
  71.7975208  -6.2679932  51.9976956  70.9999720  -6.3012389  53.2840423
  80.5467342   4.2174840  45.8281260  79.7696785   3.8786000  45.3836422
  81.2258823   4.2227463  45.1536225  75.3619371  -0.6630422  45.7187868
  75.0569506  -0.3484273  46.5698011  76.3149813  -0.5849003  45.7615201
  73.8065803   5.4959801  47.3680822  73.2787164   4.7612560  47.0554059
  73.3053305   6.2734477  47.1220790  78.7858649   3.6908821  52.4847868
  78.1282323   4.3808083  52.5727997  79.5899048   4.0805253  52.8281854
  68.5384530  -3.8420533  49.7287433  69.1128282  -4.0645351  48.9960626
  69.1255513  -3.7731838  50.4816034  77.5964107   2.0453194  50.5351810
  78.1095989   2.6783186  51.0373519  78.2465331   1.4454390  50.1695170
  68.8654117  -1.8116072  43.7483318  68.0291430  -1.4741385  44.0692593
  68.7258887  -1.9467092  42.8110455  71.9518403   3.3140011  40.3715795
  71.0445465   3.0829265  40.5706944  72.4489435   2.5177630  40.5589776
  74.8586482  12.0237518  43.2912481  74.1848180  12.3269215  43.8997439
  75.2452304  12.8266599  42.9417938  74.0744938  -0.4797350  52.7810150
  73.1567500  -0.2582403  52.6231838  74.4905082  -0.4051040  51.9221858
  74.8579986   0.9194065  47.9112830  75.6051805   1.4315463  47.6019953
  75.1271576   0.5978118  48.7717224  73.1306636   3.4152606  44.8939785
  72.2217855   3.1311639  44.9912254  73.1601720   3.8351685  44.0343092
  78.3625904   7.0259196  48.6630952  77.9088231   6.1850105  48.7196143
  77.7319870   7.6620594  49.0005732  77.3058823  -2.0448818  49.8931620
  76.5681580  -2.5571432  50.2241862  77.5585597  -2.4848437  49.0814897
  76.8058843   8.8635692  49.5980770  77.0981817   9.4240749  48.8793136
  77.3157463   9.1564253  50.3533930  63.6994807   1.1358120  48.8754987
  63.5019206   0.5427481  48.1506054  63.1441471   0.8310330  49.5930926
  71.6791530   1.0281227  50.9949580  71.7340140   0.0755063  50.9192057
  70.8682732   1.1840666  51.4790879  72.8282724   4.9561350  42.2327863
  72.3902154   4.2397209  41.7733501  73.5693165   5.1837465  41.6712955
  69.6183890  -0.3541714  48.7539959  68.8051756  -0.0547543  49.1605151
  70.1142884  -0.7486025  49.4714441  71.7692468   9.6416043  50.6874224
  71.7268647   9.8676890  49.7582756  72.6855167   9.4079418  50.8360025
  75.2158102   0.1100111  57.5854853  75.5707490   0.3371584  58.4449319
  75.8630233   0.4418488  56.9632108  80.9455839   3.2318547  48.2904182
  80.8073737   3.4220143  47.3625371  80.5892058   3.9937930  48.7472233
  69.1097965  -2.7823358  54.3701194  69.7497344  -2.9234599  53.6724157
  68.2775496  -3.0688845  53.9939796  80.9725218   5.2995074  53.3015453
  81.4061725   5.2070363  54.1498507  81.6856799   5.2752574  52.6635469
  69.8858269   6.5179072  50.4836186  70.6798867   6.0229392  50.2818761
  69.1749961   5.9896935  50.1203892  74.7053113   8.8997168  54.8348554
  74.7590136   9.4688104  55.6026270  73.8367895   9.0699053  54.4702591
  66.1941032   0.6622154  46.5595939  65.2638620   0.6006610  46.7765901
  66.2898504   0.1398107  45.7632580  66.1126581  -2.8123033  49.1474181
  66.3733399  -1.8977700  49.0383341  66.9343754  -3.2798591  49.2970794
  67.5851507  -1.3985276  56.3173005  68.2574560  -1.6067914  55.6685654
  66.7581293  -1.5963190  55.8778238  81.8340768   5.3418774  55.8348339
  82.0276658   6.2464585  56.0807614  81.7341386   4.8826193  56.6686924
  73.4877079  -4.7723335  58.3338666  72.8404994  -4.0733385  58.2403143
  74.2578094  -4.3387191  58.7014914  76.8955877   5.4925517  61.4089219
  76.7441383   5.2636069  60.4919303  76.8860556   6.4496119  61.4220564
  73.6641213   3.0657430  56.3935486  74.5933273   3.2168589  56.2204453
  73.2432243   3.1541451  55.5384132  72.4629545   7.0908094  54.1634023
  72.3240631   6.7226879  55.0359962  71.6744141   7.6055734  53.9917981
  73.0577697  12.1917191  45.5059560  73.2329453  11.7205234  46.3205183
  72.3710485  12.8182957  45.7340821  74.0134760   6.4689697  51.5522861
  73.6784593   6.4290467  52.4480511  73.5138706   5.8034413  51.0793271
  67.9879004   1.8757327  57.0775442  67.8498802   1.1437566  57.6786981
  68.8983927   1.7866227  56.7959630  76.9493952   3.8145731  41.8259921
  76.3323122   3.0892559  41.7292974  76.4810440   4.5755092  41.4826995
  70.6161305   1.5877286  56.5659122  71.3260923   0.9470479  56.5245740
  70.5730613   1.8390181  57.4885303  78.6048083   8.5244640  59.4865701
  78.5460629   7.8403860  58.8196284  79.0067602   9.2663630  59.0346327
  69.3290239  -1.4257496  58.3854762  68.7927596  -1.8766757  59.0376358
  68.7406947  -1.2911587  57.6425226  67.6238782  15.3406554  52.2799420
  67.8635380  15.9725078  52.9578439  66.7807979  14.9894594  52.5664779
  68.7392498  -1.9668844  40.9481225  67.8621964  -2.0880044  40.5843472
  69.2150251  -2.7582766  40.6960114  78.6065491   6.4884224  57.7179681
  77.7192269   6.1510145  57.8406080  79.1764042   5.7567255  57.9548446
  60.2594638   2.8208315  51.0422732  60.9465678   2.5070045  50.4543748
  60.1042766   3.7249680  50.7689984  65.0629360  -2.2901488  55.4707756
  64.9787549  -2.8975819  54.7358166  64.2412066  -1.7992470  55.4717252
  72.1366644  11.1485676  54.6840924  72.0636815  11.9540647  55.1960229
  71.6944037  11.3477642  53.8588946  71.9256424  10.3857446  48.1943746
  71.1423945  10.9279126  48.2881970  72.6249169  10.9031426  48.5937987
  75.2353074  -3.8047925  50.8377951  75.7321773  -4.5577962  50.5179021
  74.4640055  -3.7683608  50.2721160  83.0882831   1.8992441  52.4796243
  83.0772707   2.7817156  52.1090176  82.2200211   1.5463992  52.2850780
  74.5965327  11.0472510  56.8399083  75.3093300  11.6819975  56.7674984
  74.1055356  11.1436376  56.0239085  76.3182854   4.9523763  48.4116374
  75.3839133   5.0725225  48.2421079  76.4959523   4.0496229  48.1476384
  71.8188042  -1.6630542  50.5649636  71.4485830  -2.2159501  51.2530541
  72.3147135  -2.2672408  50.0124636  79.7055406   0.7941082  48.9466409
  80.1715858   1.6269074  48.8726711  80.1562906   0.3286064  49.6511667
  69.6477241   8.7966953  57.6604654  70.3486701   9.4303436  57.8134048
  69.1772356   9.1381685  56.9000293  77.7731637   7.1384903  45.9452561
  78.0491481   7.0241498  46.8546435  76.9036136   6.7402388  45.9064734
  77.4478527   1.3511561  55.4857204  76.7949977   1.5987468  54.8309657
  77.8258907   0.5375699  55.1519681  74.4085701  11.3871254  49.5885374
  74.5908095  10.5692910  50.0513127  75.2318687  11.6038946  49.1510264
  74.7427866  10.3139439  46.8500423  75.2715633   9.8031894  46.2370585
  75.0056086   9.9981969  47.7145956  73.4966100   2.0931372  61.9723241
  72.8206737   1.9925501  62.6425616  74.3193734   1.9370586  62.4359238
  65.2444959   8.3303309  54.5935756  65.8298396   7.5846996  54.7263661
  65.0469798   8.6407265  55.4772420  68.0983614  11.3654556  49.6098199
  67.4293990  11.8500684  49.1262239  67.9596484  11.6123776  50.5241577
  59.8362614   0.9008909  53.3140199  59.8746713   0.3672499  54.1077318
  59.3302907   0.3744114  52.6951177  72.2388883  13.3998299  56.2080857
  72.7907191  13.5629921  56.9729942  72.5795076  13.9902737  55.5360882
  67.2153376  -4.2526551  56.8102742  67.2794703  -3.3911720  56.3980139
  67.1520496  -4.8652549  56.0775100  66.6905649  -2.1803418  60.4575776
  67.3177687  -2.5626341  61.0713300  65.8333568  -2.3989216  60.8231469
  77.0899757   8.2259557  62.0629511  77.6339661   8.8389515  61.5684466
  76.5086602   8.7839135  62.5796524  63.4671191  -0.3726989  46.3894131
  63.7624632  -1.2816311  46.3361185  62.5659227  -0.3939250  46.0675133
  75.3757270  11.3480275  53.1944539  75.2508410  10.5470015  52.6855485
  76.0336361  11.8426468  52.7058509  66.9965438  -2.2970993  52.3721679
  66.2752024  -1.6835025  52.2329153  67.7858694  -1.7613228  52.2938325
  77.4392179   9.1489295  54.8224089  76.4922514   9.0294646  54.7502416
  77.7874952   8.2611793  54.9050351  69.7991752  -4.9616566  58.6462331
  70.3226154  -4.7154270  59.4088641  69.5804085  -4.1296531  58.2265469
  65.1959033  -2.6912891  46.5133456  64.8671739  -3.5715513  46.3308562
  65.5498404  -2.7465223  47.4009845  74.4438612   8.9442011  51.0228442
  74.2963574   8.0158719  51.2036012  75.2692105   8.9662102  50.5385517
  68.3100856  -2.4039922  46.8808934  68.6496929  -1.8754000  46.1587542
  68.7572977  -2.0659516  47.6567500  78.0472734   9.7670570  52.1093314
  78.9719281   9.5613431  51.9717765  77.8788037   9.5186971  53.0182656
  71.0044297  -4.0202871  56.3312002  70.6641117  -4.8195058  56.7332682
  70.2983303  -3.7201160  55.7588835  70.2969003  -3.9065300  45.0802226
  71.0177366  -3.5284047  44.5765943  69.6734307  -3.1876423  45.1837204
  74.4400126  -3.2020151  46.0160559  74.6563741  -2.3195513  45.7149387
  73.9594193  -3.5933938  45.2866201  69.1799348  -0.2434438  52.5931303
  69.0343928   0.0705865  53.4855585  68.7024551   0.3750462  52.0402202
  71.0395730  -3.2531890  52.6412193  71.0257299  -4.1490797  52.3044491
  71.7568159  -3.2461226  53.2750479  72.8921861  -2.8194550  54.6865320
  72.6339639  -1.8977479  54.6849651  72.3606902  -3.2164115  55.3765784
  77.8368050  10.2856237  47.4655406  78.0104927   9.7202660  46.7129258
  78.3296941  11.0857132  47.2834896  63.6545010   2.2970907  55.5318965
  63.1098478   3.0730714  55.6639239  64.5324360   2.6441711  55.3738086
  70.4432626  -4.3717510  47.9099763  70.5648538  -5.3000863  48.1090651
  70.1534669  -4.3578824  46.9978078  83.6907441   3.0492660  49.0845705
  84.1338587   2.2999986  48.6864829  82.8133951   3.0402797  48.7019437
  78.8243222   9.6023002  44.5652304  79.5194127  10.2229695  44.7839619
  79.1666373   8.7518353  44.8404682  64.4411032   1.4240803  58.4249121
  63.6992768   1.5723438  59.0113752  64.1203776   1.6849068  57.5615871
  80.7234646   7.0522707  46.0939635  81.2485970   7.3909980  45.3688955
  80.6356998   6.1169723  45.9102769  72.3854694  10.9656781  58.2229511
  72.6941821  10.7205928  59.0952211  73.1830176  11.1703419  57.7348382
  72.4075306  13.1194691  50.4534888  71.9680297  12.6271069  51.1467745
  73.1583423  12.5767658  50.2126963  64.8867645   9.3106231  50.4559516
  65.7125665   9.0110003  50.0758160  64.5361697   8.5413854  50.9049305
  69.8549178   8.6632700  52.5257190  69.2329188   8.0003405  52.2259418
  70.5254045   8.6893832  51.8430837  63.0876250   7.2292558  51.4148450
  62.2508159   6.8014732  51.2332451  63.0599896   7.4225001  52.3519241
  69.9273706  -2.8585512  62.1189696  69.9761861  -1.9823389  61.7367465
  70.4696220  -3.4008119  61.5461339  80.4128552   7.6855611  61.3990833
  79.6224095   7.6679750  60.8595332  80.1761906   8.2243905  62.1539869
  80.5326427   4.5348077  58.7123561  80.5824432   4.3698085  59.6539084
  80.4240350   3.6675336  58.3221442  69.4162685   7.2136623  46.0015650
  69.5650806   7.8972087  45.3482323  70.2229129   7.1941713  46.5165106
  77.8230189   0.5179005  60.0282868  78.7240052   0.3785470  59.7366866
  77.8978164   0.6833460  60.9681045  72.1572994  -2.1054140  58.8736054
  71.2876304  -1.8120574  58.6018643  72.3932475  -1.5213695  59.5943318
  82.0344623   6.9545019  58.9565583  81.7429432   7.3174999  59.7929044
  81.4216755   6.2412027  58.7778915  83.2340306   4.5197899  51.4768153
  84.0687197   4.9587703  51.6405713  83.3699435   4.0436552  50.6576399
  80.2831812   2.0777634  57.4245641  80.7585933   2.2705280  56.6164492
  79.3597377   2.1336819  57.1789024  67.1715318   3.2401801  47.0076719
  66.9261360   2.3364131  47.2056929  67.3411233   3.2418951  46.0656197
  66.4410966  -1.0269842  44.5062881  65.7480211  -0.9525487  43.8502917
  66.1962718  -1.7909498  45.0284397  72.9158091   9.7084754  43.4727398
  72.3432058  10.3274941  43.0197869  73.4890885  10.2584115  44.0067320
  78.9833481  -1.0456606  55.6573946  79.9350904  -0.9458509  55.6786170
  78.8136931  -1.8378338  56.1672031  77.0047860  -3.9601023  55.8433347
  76.4097792  -3.6796010  55.1479836  76.7197557  -3.4707122  56.6150088
  76.1355351   9.9921904  44.6035980  77.0686024   9.9267465  44.8068855
  76.0478563  10.8278170  44.1450513  78.7643367   9.3087774  41.5639927
  78.6856999   8.9747638  42.4575685  79.5853034   9.8009542  41.5631400
  81.4621558   2.1749513  54.7716246  81.4297879   1.2365514  54.9575930
  82.0722182   2.2533550  54.0382071  73.3004889   1.0445566  40.8143450
  74.2463994   0.9151774  40.8831868  72.9219134   0.3060228  41.2912878
  81.6116047  -1.0339443  54.8174529  81.0955096  -1.8180987  54.6304458
  82.4955996  -1.3620727  54.9821049  87.2798108   3.2365520  53.9122283
  88.0101497   2.9750808  54.4729986  86.6705054   2.4994242  53.9524351
  85.3613405   1.3773383  54.5096734  84.6346569   1.2429348  53.9013226
  84.9460692   1.6850211  55.3153452  73.1843582   5.0963312  62.2744107
  74.1046591   5.2741911  62.4684154  73.1493165   4.1519358  62.1223806
  71.4847807  -1.0304457  40.7498335  70.5779262  -1.3271345  40.8261049
  71.7623788  -1.3274639  39.8832622  62.4025747   0.2901906  51.1997382
  62.0828531  -0.5632786  50.9071756  61.8559175   0.5050484  51.9555349
  66.1805654   3.0064347  54.9166888  66.3991664   3.9381455  54.9354922
  66.5931428   2.6472321  55.7021692  71.0533520  -1.4202447  64.3069637
  70.9530247  -0.4708090  64.2381728  70.8355062  -1.7484208  63.4345707
  70.2546591  -4.1717522  40.8910315  71.1165755  -3.8462624  41.1506132
  70.4396935  -4.9586026  40.3783380  62.2714007   3.9104818  53.1690503
  61.5777478   3.4958770  52.6560458  63.0186998   3.9525354  52.5723922
  70.9164790   2.0094692  63.1234699  70.4331872   2.8095052  63.3298588
  71.0025729   2.0202637  62.1702143  64.1850749   3.8423071  51.0456518
  64.1621438   3.9410759  50.0938401  64.4951386   4.6888222  51.3673684
  66.8438127   5.8999226  55.1603133  67.7981381   5.8683169  55.0933064
  66.6450651   5.4389850  55.9753359  67.4337509   4.4700342  57.7273930
  68.2530398   4.9644421  57.7508768  67.7074317   3.5532311  57.6991498
  77.1904106  -3.1388905  47.0901886  76.3029961  -2.8539255  46.8722081
  77.6058095  -3.2995142  46.2429163  80.5418642  -3.1142384  50.8056225
  81.3179032  -2.6245932  51.0780842  79.8166776  -2.6884330  51.2628095
  65.1988356  11.4418846  52.1773330  65.0642824  10.6819247  51.6111329
  64.7820418  12.1659746  51.7102119  76.3347319   6.6255769  41.1849906
  77.0383169   6.8305772  41.8007561  75.6109968   7.1932531  41.4498989
  77.1645129   2.3765631  47.3052176  77.1080331   2.8334182  46.4659808
  77.7173472   1.6156315  47.1275019  80.9749935  -1.8344637  48.1302295
  80.7186870  -2.2348002  48.9610503  80.3502803  -1.1200844  48.0052435
  85.2862273   0.9051436  50.6373587  84.7261831   0.9744625  51.4105149
  84.6805777   0.7292420  49.9173083  68.3557482  12.3388163  52.3891773
  68.2389866  13.2833595  52.2870463  67.5349928  12.0361724  52.7777572
  78.2434016   7.0638299  43.2348366  79.0779620   6.6319497  43.0525841
  78.0818359   6.8920312  44.1625260  77.8979909   3.5670412  44.6004705
  77.8428712   3.4014683  43.6593149  77.2725964   4.2746445  44.7566895
  62.6872424  -1.1961524  58.4266127  63.3331287  -1.7062570  58.9153353
  62.4789575  -0.4592842  59.0009553  75.2125816   5.8719324  63.9258268
  76.0816975   6.0459976  63.5644903  74.7332567   6.6913741  63.8033997
  69.3811996  12.9916425  55.6047702  70.2839243  13.0240035  55.9214197
  69.1549366  12.0616876  55.6194037  71.1365598  11.7447411  52.2657780
  70.1861229  11.7449273  52.1522152  71.4398084  10.9980146  51.7493815
  67.0269915  -4.0493907  62.5241142  67.8901376  -4.4057102  62.7344466
  66.4535325  -4.3880012  63.2116546  86.8718292  17.5807950  53.3303543
  87.5096702  17.4614697  52.6266883  86.7539134  18.5288794  53.3891495
  83.6807998  17.5335378  53.2665067  83.3426509  17.4176443  52.3785602
  84.5497766  17.1326543  53.2466073  79.5394814  19.3870854  49.2561958
  78.9759679  19.2960791  48.4878246  79.4247209  18.5670759  49.7364451
  84.1627781  18.6870230  59.2251273  84.1516422  18.2923028  58.3531776
  84.3248420  17.9536302  59.8185044  77.0859246  20.8822046  52.0946179
  77.8780537  20.5412870  51.6792478  77.3255896  20.9917021  53.0148332
  85.1194372  23.0541822  44.5676423  84.4682352  23.6395902  44.1810437
  85.9138735  23.5848017  44.6271461  79.0449999  20.1430959  44.9663557
  79.8180875  19.5959946  44.8276433  79.3975398  21.0075208  45.1778019
  80.8835042  21.4707341  58.1730457  80.5924908  22.3752972  58.0577123
  81.5192026  21.5123869  58.8874526  81.8091249  18.8484190  54.7631816
  82.4054821  18.6240212  54.0488779  81.8666220  18.1068935  55.3657264
  81.3816277  16.3023625  42.5982007  81.6341798  15.7805146  41.8365470
  80.4440836  16.1389771  42.7008691  86.4259560  15.3059404  50.4056751
  87.2122649  14.8878827  50.0547168  86.6898264  16.2105496  50.5738399
  86.5969637  20.7432254  45.1045407  85.9615470  20.8166880  45.8166312
  86.2667044  21.3325853  44.4264487  91.8267987  15.2434637  51.3089729
  92.5593159  14.6733854  51.5427559  91.0707343  14.8556237  51.7496235
  81.1012566  18.2051731  44.8006382  80.9848824  17.5296635  45.4687467
  81.2114826  17.7184105  43.9838535  83.4444107  17.6661878  48.5053072
  83.0802314  17.1392499  49.2165993  84.3011223  17.2760347  48.3319557
  89.3493408   8.9556211  55.7684338  89.0176732   9.8251622  55.5445553
  88.7539021   8.6392495  56.4478368  83.0849594  12.6951778  43.5014420
  83.2523996  13.5632014  43.8684891  82.8946763  12.8579060  42.5775709
  85.8424927  21.1568757  55.1680250  85.5425650  22.0593796  55.0596058
  85.4975987  20.8900940  56.0201403  79.2937409  17.6082554  51.2016955
  78.3687905  17.4758768  51.4094647  79.5421822  18.3876773  51.6986897
  89.2422071  13.6751297  52.8477688  88.3338948  13.6066705  52.5536449
  89.1909667  14.1523242  53.6759513  83.0638815  15.1509435  44.4861087
  82.9438440  15.5966486  45.3246567  82.3691403  15.4994753  43.9274625
  76.6546220  17.2515827  52.0360744  76.7838601  17.5050306  52.9500156
  75.9743671  17.8443535  51.7165399  80.8245707  27.9213077  48.1351218
  80.7469737  28.8720902  48.2139699  80.2207350  27.5758950  48.7926144
  83.3162937  15.0940943  60.7912585  82.5396271  15.6534863  60.7815450
  83.9553500  15.5797726  61.3127455  91.1083717  11.8767735  54.6255562
  90.4658098  12.1700269  53.9795356  90.6038646  11.7620656  55.4308758
  88.7623881  15.6230909  45.3141421  89.6741737  15.8558295  45.1389119
  88.2533528  16.2067953  44.7516500  81.5709309  17.9026396  60.3530552
  82.3123993  18.4411440  60.0765376  80.8646294  18.5292685  60.5102104
  87.0464649  20.0455536  58.9502714  87.4548005  19.6037947  58.2057346
  86.3241910  19.4708164  59.2036906  83.3995719  14.9828143  56.3236270
  84.2456914  15.4067557  56.4670919  83.3394356  14.3261768  57.0174834
  87.3693463  20.6056727  52.7055002  86.7402326  20.7702441  52.0031070
  86.9819125  21.0198337  53.4765966  91.2482695  21.5411165  50.0599366
  90.5633733  21.9210066  49.5096400  91.3326544  22.1506492  50.7931314
  86.5495164  12.6432512  57.9817444  86.3056096  13.3974572  57.4451720
  86.8255094  13.0217859  58.8164691  88.5033627  19.1871124  56.6594710
  88.7150522  19.8302884  55.9829091  88.4563375  18.3533441  56.1916640
  86.1059856  11.7988945  53.5631282  85.2444335  12.0970198  53.8548019
  86.1322290  12.0159343  52.6312314  82.9221425  20.3431135  49.9705088
  83.3859771  20.6218838  49.1809710  82.6578223  19.4414580  49.7878178
  79.8145506  19.8902617  52.9084851  80.3846863  20.3189885  52.2702335
  80.4053618  19.6085201  53.6069036  81.8590311  16.4654288  46.7794653
  82.5614355  16.9175331  47.2468579  81.5270940  15.8238106  47.4074546
  80.3070673  15.0566044  61.1545862  79.6769333  15.7382325  61.3881259
  80.2006761  14.9449126  60.2099000  75.6015645  14.7237840  52.0811786
  74.8114699  14.9795369  51.6051897  76.0926893  15.5386178  52.1863827
  89.6179455  22.0643079  54.8317067  90.4396898  21.6623267  54.5499749
  89.6141858  21.9611314  55.7833183  77.5530391  15.0882419  49.0395263
  76.7561554  15.2001114  49.5578759  77.3255983  15.4269072  48.1736153
  83.3836058  21.6127123  56.9877778  83.4480491  22.0747530  57.8235949
  82.6746982  20.9824488  57.1160087  73.8853348  14.9768331  54.5126777
  74.1361387  15.8615341  54.7784353  74.4212897  14.7972932  53.7401869
  97.7085448  18.4081828  51.1802039  96.9549156  17.8389226  51.0246043
  97.8432989  18.3744492  52.1272673  83.0984076  23.2795230  46.8556758
  82.9629751  24.1246766  47.2841606  83.6393888  23.4814508  46.0922692
  79.5851415   9.3586810  63.5171113  79.1918361   8.8053009  64.1918757
  80.4017556   9.6697388  63.9077631  76.5513473  20.7970668  47.4284683
  77.0637994  21.5913918  47.5790248  77.2036186  20.0996959  47.3618284
  78.3608358  23.9136424  49.5107436  78.5374986  24.8354389  49.3228420
  79.1565191  23.5994844  49.9401816  82.5019376  10.7744689  61.1091370
  83.2429090  11.3751842  61.0295832  82.7337299  10.0322327  60.5509412
  77.6460714  15.9601056  59.3869599  77.5314230  15.0586314  59.6876698
  76.7905232  16.2064753  59.0354416  84.7252552  23.9018797  60.9857100
  84.2816406  23.1155175  60.6678004  85.3869766  24.0897947  60.3200991
  79.4839673  25.4314598  55.5117778  80.0347098  25.3031662  54.7394772
  78.6451149  25.7309487  55.1612671  86.8233790  24.1821597  59.0138501
  86.8052266  25.0030478  58.5218770  87.7453710  24.0575672  59.2388642
  83.2806844  21.6965726  59.8562010  83.8135181  20.9354014  59.6261318
  82.7520926  21.4039378  60.5986164  86.4476539   6.8025792  55.3855651
  86.1040809   7.6927434  55.3094762  86.8155502   6.6127450  54.5225236
  74.5162390  19.1259322  48.2044254  75.3537612  19.5356331  47.9877961
  74.6940658  18.1858765  48.1744447  86.4126822  16.7934403  43.8928086
  85.8973446  17.5639008  44.1316474  86.1404131  16.1199539  44.5161148
  83.9973933  11.6384104  48.9513325  83.1415529  11.2490954  48.7718964
  84.4100885  11.7176065  48.0913110  85.5273080   9.1730447  53.3504885
  85.0237875   9.1360582  52.5372690  85.8203687  10.0823190  53.4101541
  81.7715966   9.2569177  52.3571066  82.6368962   9.0611986  51.9976956
  81.8393475   9.0279529  53.2840423  91.3861096  19.5466758  45.8281260
  90.6090539  19.2077917  45.3836422  92.0652577  19.5519381  45.1536225
  86.2013125  14.6661495  45.7187868  85.8963261  14.9807644  46.5698011
  87.1543567  14.7442915  45.7615201  84.6459557  20.8251719  47.3680822
  84.1180919  20.0904478  47.0554059  84.1447060  21.6026395  47.1220790
  89.6252403  19.0200739  52.4847868  88.9676078  19.7100000  52.5727997
  90.4292802  19.4097171  52.8281854  79.3778285  11.4871385  49.7287433
  79.9522037  11.2646566  48.9960626  79.9649267  11.5560079  50.4816034
  88.4357862  17.3745112  50.5351810  88.9489744  18.0075104  51.0373519
  89.0859086  16.7746307  50.1695170  79.7047872  13.5175846  43.7483318
  78.8685184  13.8550532  44.0692593  79.5652641  13.3824826  42.8110455
  81.6800952   8.3612634  48.4562503  81.0265365   8.0461651  47.8319117
  81.6381427   7.7388374  49.1822326  82.7912157  18.6431929  40.3715795
  81.8839219  18.4121182  40.5706944  83.2883189  17.8469548  40.5589776
  85.6980236  27.3529436  43.2912481  85.0241935  27.6561133  43.8997439
  86.0846058  28.1558516  42.9417938  84.9138693  14.8494567  52.7810150
  83.9961254  15.0709514  52.6231838  85.3298836  14.9240878  51.9221858
  85.6973741  16.2485983  47.9112830  86.4445559  16.7607380  47.6019953
  85.9665330  15.9270036  48.7717224  83.9700391  18.7444524  44.8939785
  83.0611610  18.4603557  44.9912254  83.9995475  19.1643602  44.0343092
  89.2019658  22.3551113  48.6630952  88.7481985  21.5142023  48.7196143
  88.5713625  22.9912512  49.0005732  88.1452578  13.2843099  49.8931620
  87.4075335  12.7720485  50.2241862  88.3979351  12.8443481  49.0814897
  87.6452597  24.1927610  49.5980770  87.9375572  24.7532667  48.8793136
  88.1551218  24.4856171  50.3533930  88.2464205   6.0619351  50.4873389
  88.5523082   5.2016715  50.1999304  88.9716810   6.6536971  50.2872383
  74.5388561  16.4650038  48.8754987  74.3412961  15.8719399  48.1506054
  73.9835225  16.1602248  49.5930926  82.5185285  16.3573144  50.9949580
  82.5733895  15.4046981  50.9192057  81.7076487  16.5132583  51.4790879
  83.6676479  20.2853267  42.2327863  83.2295908  19.5689126  41.7733501
  84.4086919  20.5129382  41.6712955  80.4577645  14.9750204  48.7539959
  79.6445510  15.2744375  49.1605151  80.9536639  14.5805893  49.4714441
  82.6086223  24.9707961  50.6874224  82.5662401  25.1968807  49.7582756
  83.5248921  24.7371336  50.8360025  86.0551856  15.4392029  57.5854853
  86.4101244  15.6663502  58.4449319  86.7023988  15.7710405  56.9632108
  91.7849593  18.5610464  48.2904182  91.6467492  18.7512060  47.3625371
  91.4285812  19.3229847  48.7472233  79.9491719  12.5468560  54.3701194
  80.5891099  12.4057319  53.6724157  79.1169250  12.2603073  53.9939796
  91.8118973  20.6286991  53.3015453  92.2455480  20.5362281  54.1498507
  92.5250554  20.6044492  52.6635469  80.7252023  21.8470990  50.4836186
  81.5192622  21.3521310  50.2818761  80.0143716  21.3188853  50.1203892
  85.5446868  24.2289086  54.8348554  85.5983890  24.7980022  55.6026270
  84.6761649  24.3990971  54.4702591  77.0334787  15.9914072  46.5595939
  76.1032375  15.9298527  46.7765901  77.1292259  15.4690024  45.7632580
  76.9520336  12.5168885  49.1474181  77.2127153  13.4314218  49.0383341
  77.7737508  12.0493327  49.2970794  78.4245261  13.9306642  56.3173005
  79.0968315  13.7224004  55.6685654  77.5975048  13.7328728  55.8778238
  92.6734522  20.6710692  55.8348339  92.8670413  21.5756503  56.0807614
  92.5735141  20.2118111  56.6686924  84.3270833  10.5568583  58.3338666
  83.6798748  11.2558532  58.2403143  85.0971849  10.9904727  58.7014914
  87.7349631  20.8217435  61.4089219  87.5835138  20.5927986  60.4919303
  87.7254311  21.7788036  61.4220564  84.5034968  18.3949348  56.3935486
  85.4327028  18.5460507  56.2204453  84.0825998  18.4833368  55.5384132
  83.3023299  22.4200012  54.1634023  83.1634385  22.0518796  55.0359962
  82.5137896  22.9347651  53.9917981  83.8971451  27.5209108  45.5059560
  84.0723207  27.0497152  46.3205183  83.2104239  28.1474875  45.7340821
  84.8528514  21.7981615  51.5522861  84.5178347  21.7582385  52.4480511
  84.3532460  21.1326331  51.0793271  78.8272758  17.2049245  57.0775442
  78.6892556  16.4729484  57.6786981  79.7377682  17.1158145  56.7959630
  87.7887706  19.1437649  41.8259921  87.1716877  18.4184477  41.7292974
  87.3204195  19.9047009  41.4826995  81.4555059  16.9169204  56.5659122
  82.1654678  16.2762396  56.5245740  81.4124367  17.1682099  57.4885303
  89.4441838  23.8536557  59.4865701  89.3854384  23.1695777  58.8196284
  89.8461356  24.5955547  59.0346327  80.1683993  13.9034422  58.3854762
  79.6321350  13.4525160  59.0376358  79.5800702  14.0380331  57.6425226
  78.4632537  30.6698471  52.2799420  78.7029135  31.3016995  52.9578439
  77.6201733  30.3186511  52.5664779  79.5786252  13.3623073  40.9481225
  78.7015718  13.2411874  40.5843472  80.0544005  12.5709152  40.6960114
  89.4459245  21.8176141  57.7179681  88.5586024  21.4802063  57.8406080
  90.0157796  21.0859173  57.9548446  71.0988392  18.1500233  51.0422732
  71.7859432  17.8361963  50.4543748  70.9436521  19.0541598  50.7689984
  75.9023114  13.0390430  55.4707756  75.8181303  12.4316099  54.7358166
  75.0805821  13.5299448  55.4717252  82.9760398  26.4777594  54.6840924
  82.9030570  27.2832565  55.1960229  82.5337792  26.6769559  53.8588946
  82.7650178  25.7149364  48.1943746  81.9817700  26.2571044  48.2881970
  83.4642923  26.2323343  48.5937987  86.0746828  11.5243993  50.8377951
  86.5715528  10.7713955  50.5179021  85.3033810  11.5608310  50.2721160
  93.9276586  17.2284359  52.4796243  93.9166462  18.1109074  52.1090176
  93.0593965  16.8755909  52.2850780  85.4359082  26.3764428  56.8399083
  86.1487054  27.0111892  56.7674984  84.9449111  26.4728294  56.0239085
  87.1576609  20.2815680  48.4116374  86.2232888  20.4017143  48.2421079
  87.3353277  19.3788147  48.1476384  82.6581797  13.6661376  50.5649636
  82.2879584  13.1132417  51.2530541  83.1540889  13.0619510  50.0124636
  90.5449160  16.1233000  48.9466409  91.0109612  16.9560991  48.8726711
  90.9956661  15.6577981  49.6511667  80.4870996  24.1258871  57.6604654
  81.1880455  24.7595354  57.8134048  80.0166111  24.4673603  56.9000293
  88.6125391  22.4676821  45.9452561  88.8885235  22.3533416  46.8546435
  87.7429890  22.0694306  45.9064734  88.5165823   8.4913587  52.9857310
  87.6028903   8.7217813  53.1539517  88.9458924   8.5752031  53.8371342
  88.2872281  16.6803479  55.4857204  87.6343732  16.9279386  54.8309657
  88.6652661  15.8667617  55.1519681  85.2479455  26.7163172  49.5885374
  85.4301850  25.8984828  50.0513127  86.0712441  26.9330864  49.1510264
  85.5821621  25.6431357  46.8500423  86.1109387  25.1323811  46.2370585
  85.8449840  25.3273887  47.7145956  84.3359855  17.4223290  61.9723241
  83.6600492  17.3217419  62.6425616  85.1587488  17.2662503  62.4359238
  76.0838714  23.6595226  54.5935756  76.6692150  22.9138914  54.7263661
  75.8863552  23.9699183  55.4772420  78.9377369  26.6946474  49.6098199
  78.2687744  27.1792601  49.1262239  78.7990239  26.9415694  50.5241577
  70.6756368  16.2300826  53.3140199  70.7140468  15.6964417  54.1077318
  70.1696661  15.7036032  52.6951177  83.0782637  28.7290217  56.2080857
  83.6300945  28.8921839  56.9729942  83.4188831  29.3194655  55.5360882
  78.0547131  11.0765367  56.8102742  78.1188457  11.9380198  56.3980139
  77.9914251  10.4639369  56.0775100  77.5299403  13.1488499  60.4575776
  78.1571442  12.7665577  61.0713300  76.6727322  12.9302701  60.8231469
  87.9293512  23.5551475  62.0629511  88.4733416  24.1681433  61.5684466
  87.3480357  24.1131053  62.5796524  74.3064946  14.9564929  46.3894131
  74.6018387  14.0475607  46.3361185  73.4052982  14.9352668  46.0675133
  86.2151025  26.6772193  53.1944539  86.0902164  25.8761932  52.6855485
  86.8730116  27.1718386  52.7058509  77.8359193  13.0320925  52.3721679
  77.1145779  13.6456893  52.2329153  78.6252449  13.5678690  52.2938325
  88.2785933  24.4781213  54.8224089  87.3316269  24.3586564  54.7502416
  88.6268706  23.5903711  54.9050351  80.6385506  10.3675352  58.6462331
  81.1619908  10.6137648  59.4088641  80.4197840  11.1995386  58.2265469
  76.0352787  12.6379026  46.5133456  75.7065494  11.7576405  46.3308562
  76.3892158  12.5826695  47.4009845  85.2832366  24.2733929  51.0228442
  85.1357329  23.3450636  51.2036012  86.1085860  24.2954020  50.5385517
  79.1494611  12.9251996  46.8808934  79.4890683  13.4537917  46.1587542
  79.5966731  13.2632402  47.6567500  88.8866488  25.0962488  52.1093314
  89.8113036  24.8905349  51.9717765  88.7181792  24.8478889  53.0182656
  81.8438051  11.3089047  56.3312002  81.5034872  10.5096860  56.7332682
  81.1377058  11.6090758  55.7588835  82.4954523   8.3938359  54.7839325
  83.3180593   7.9198837  54.6618215  82.7392587   9.1728843  55.2838011
  81.1362758  11.4226618  45.0802226  81.8571120  11.8007870  44.5765943
  80.5128062  12.1415494  45.1837204  85.2793881  12.1271767  46.0160559
  85.4957495  13.0096404  45.7149387  84.7987948  11.7357980  45.2866201
  80.0193102  15.0857480  52.5931303  79.8737683  15.3997783  53.4855585
  79.5418306  15.7042380  52.0402202  81.8789485  12.0760028  52.6412193
  81.8651054  11.1801121  52.3044491  82.5961913  12.0830692  53.2750479
  83.7315616  12.5097368  54.6865320  83.4733393  13.4314439  54.6849651
  83.2000656  12.1127803  55.3765784  88.6761804  25.6148155  47.4655406
  88.8498682  25.0494578  46.7129258  89.1690696  26.4149050  47.2834896
  74.4938764  17.6262824  55.5318965  73.9492232  18.4022632  55.6639239
  75.3718114  17.9733629  55.3738086  81.2826381  10.9574408  47.9099763
  81.4042292  10.0291054  48.1090651  80.9928423  10.9713094  46.9978078
  84.1517571   8.6429318  51.0466483  84.1739268   8.7068652  50.0918462
  84.5685630   7.8033827  51.2406989  94.5301196  18.3784578  49.0845705
  94.9732342  17.6291903  48.6864829  93.6527706  18.3694714  48.7019437
  89.6636977  24.9314920  44.5652304  90.3587882  25.5521612  44.7839619
  90.0060127  24.0810271  44.8404682  75.2804786  16.7532720  58.4249121
  74.5386522  16.9015356  59.0113752  74.9597530  17.0140986  57.5615871
  91.5628400  22.3814625  46.0939635  92.0879724  22.7201898  45.3688955
  91.4750753  21.4461640  45.9102769  83.2248449  26.2948699  58.2229511
  83.5335575  26.0497845  59.0952211  84.0223931  26.4995337  57.7348382
  83.2469061  28.4486608  50.4534888  82.8074051  27.9562987  51.1467745
  83.9977178  27.9059576  50.2126963  75.7261400  24.6398149  50.4559516
  76.5519420  24.3401921  50.0758160  75.3755452  23.8705772  50.9049305
  80.6942933  23.9924617  52.5257190  80.0722942  23.3295322  52.2259418
  81.3647800  24.0185749  51.8430837  73.9270005  22.5584476  51.4148450
  73.0901913  22.1306650  51.2332451  73.8993650  22.7516919  52.3519241
  80.7667460  12.4706405  62.1189696  80.8155616  13.3468528  61.7367465
  81.3089975  11.9283798  61.5461339  91.2522306  23.0147529  61.3990833
  90.4617850  22.9971668  60.8595332  91.0155661  23.5535822  62.1539869
  91.3720181  19.8639995  58.7123561  91.4218186  19.6990002  59.6539084
  91.2634104  18.9967254  58.3221442  80.2556440  22.5428541  46.0015650
  80.4044560  23.2264005  45.3482323  81.0622883  22.5233631  46.5165106
  88.6623944  15.8470923  60.0282868  89.5633806  15.7077388  59.7366866
  88.7371918  16.0125378  60.9681045  82.9966749  13.2237778  58.8736054
  82.1270058  13.5171344  58.6018643  83.2326229  13.8078223  59.5943318
  92.8738378  22.2836937  58.9565583  92.5823186  22.6466917  59.7929044
  92.2610509  21.5703945  58.7778915  94.0734060  19.8489816  51.4768153
  94.9080952  20.2879620  51.6405713  94.2093189  19.3728470  50.6576399
  91.1225566  17.4069551  57.4245641  91.5979688  17.5997198  56.6164492
  90.1991132  17.4628737  57.1789024  78.0109073  18.5693718  47.0076719
  77.7655115  17.6656048  47.2056929  78.1804987  18.5710869  46.0656197
  85.7005783   9.4417395  56.3901475  86.2187727  10.1778422  56.0647963
  85.3460915   9.7481388  57.2248234  77.2804720  14.3022076  44.5062881
  76.5873965  14.3766431  43.8502917  77.0356472  13.5382420  45.0284397
  85.9518377   5.8617677  51.9102371  86.2320131   5.1940866  52.5362798
  86.7368984   6.0546773  51.3977035  83.7551845  25.0376671  43.4727398
  83.1825812  25.6566858  43.0197869  84.3284639  25.5876033  44.0067320
  89.8227235  14.2835311  55.6573946  90.7744658  14.3833409  55.6786170
  89.6530686  13.4913580  56.1672031  87.8441615  11.3690894  55.8433347
  87.2491547  11.6495907  55.1479836  87.5591311  11.8584795  56.6150088
  86.9749105  25.3213821  44.6035980  87.9079778  25.2559383  44.8068855
  86.8872318  26.1570088  44.1450513  89.6037122  24.6379692  41.5639927
  89.5250753  24.3039555  42.4575685  90.4246789  25.1301460  41.5631400
  92.3015313  17.5041431  54.7716246  92.2691633  16.5657432  54.9575930
  92.9115937  17.5825468  54.0382071  84.1398644  16.3737484  40.8143450
  85.0857749  16.2443692  40.8831868  83.7612889  15.6352146  41.2912878
  92.4509801  14.2952474  54.8174529  91.9348850  13.5110931  54.6304458
  93.3349750  13.9671191  54.9821049  90.1120528   8.0393490  50.7770342
  89.9145350   7.7308578  51.6613674  90.7220234   8.7655129  50.9068272
  98.1191863  18.5657438  53.9122283  98.8495251  18.3042726  54.4729986
  97.5098808  17.8286160  53.9524351  96.2007160  16.7065300  54.5096734
  95.4740324  16.5721265  53.9013226  95.7854447  17.0142129  55.3153452
  84.0237336  20.4255230  62.2744107  84.9440346  20.6033829  62.4684154
  83.9886919  19.4811275  62.1223806  82.3241561  14.2987460  40.7498335
  81.4173016  14.0020573  40.8261049  82.6017542  14.0017278  39.8832622
  73.2419501  15.6193824  51.1997382  72.9222286  14.7659132  50.9071756
  72.6952930  15.8342402  51.9555349  77.0199409  18.3356265  54.9166888
  77.2385419  19.2673373  54.9354922  77.4325183  17.9764239  55.7021692
  83.9403627   8.8424350  46.9042577  83.1304355   8.4971435  47.2797823
  84.6288044   8.5331894  47.4930188  85.8694175   7.9202397  48.5266873
  86.4225214   8.3397850  49.1856896  86.1064261   6.9938145  48.5689829
  81.8927274  13.9089470  64.3069637  81.7924001  14.8583827  64.2381728
  81.6748816  13.5807709  63.4345707  81.0940346  11.1574396  40.8910315
  81.9559510  11.4829294  41.1506132  81.2790690  10.3705891  40.3783380
  73.1107761  19.2396735  53.1690503  72.4171233  18.8250688  52.6560458
  73.8580752  19.2817272  52.5723922  89.2472982  10.0302922  48.0345538
  88.6671651  10.6887726  47.6523590  88.9808915   9.2080267  47.6232955
  87.6976548   9.4307980  50.2366858  88.1976327   9.5424514  49.4281177
  88.3412156   9.1269033  50.8767666  81.7558544  17.3386609  63.1234699
  81.2725626  18.1386969  63.3298588  81.8419483  17.3494554  62.1702143
  75.0244504  19.1714989  51.0456518  75.0015192  19.2702676  50.0938401
  75.3345140  20.0180140  51.3673684  77.6831882  21.2291144  55.1603133
  78.6375135  21.1975086  55.0933064  77.4844405  20.7681768  55.9753359
  78.2731264  19.7992260  57.7273930  79.0924153  20.2936339  57.7508768
  78.5468072  18.8824228  57.6991498  88.0297860  12.1903012  47.0901886
  87.1423715  12.4752663  46.8722081  88.4451849  12.0296776  46.2429163
  91.3812396  12.2149533  50.8056225  92.1572786  12.7045986  51.0780842
  90.6560530  12.6407588  51.2628095  93.8184955  12.9277153  51.8630166
  94.4129446  12.6872889  51.1523474  93.8911539  12.2084283  52.4903702
  76.0382111  26.7710764  52.1773330  75.9036579  26.0111164  51.6111329
  75.6214173  27.4951663  51.7102119  87.1741074  21.9547687  41.1849906
  87.8776924  22.1597690  41.8007561  86.4503722  22.5224449  41.4498989
  88.0038884  17.7057548  47.3052176  87.9474085  18.1626100  46.4659808
  88.5567226  16.9448233  47.1275019  91.8143690  13.4947280  48.1302295
  91.5580624  13.0943916  48.9610503  91.1896558  14.2091074  48.0052435
  96.1256028  16.2343353  50.6373587  95.5655586  16.3036543  51.4105149
  95.5199531  16.0584338  49.9173083  79.1951236  27.6680081  52.3891773
  79.0783621  28.6125513  52.2870463  78.3743683  27.3653642  52.7777572
  89.0827771  22.3930216  43.2348366  89.9173375  21.9611415  43.0525841
  88.9212114  22.2212230  44.1625260  88.7373663  18.8962330  44.6004705
  88.6822467  18.7306601  43.6593149  88.1119718  19.6038362  44.7566895
  73.5266178  14.1330394  58.4266127  74.1725042  13.6229348  58.9153353
  73.3183329  14.8699076  59.0009553  86.0519570  21.2011241  63.9258268
  86.9210730  21.3751894  63.5644903  85.5726322  22.0205658  63.8033997
  82.0469789   8.3970439  44.1790024  82.0348458   9.3412278  44.3358294
  82.9393211   8.2140584  43.8849485  80.2205751  28.3208342  55.6047702
  81.1232997  28.3531953  55.9214197  79.9943121  27.3908793  55.6194037
  81.9759353  27.0739329  52.2657780  81.0254984  27.0741191  52.1522152
  82.2791839  26.3272064  51.7493815  85.8621908   4.9913215  48.4335960
  85.0954304   4.4371702  48.5792643  86.2732613   5.0635084  49.2950112
  77.8663669  11.2798011  62.5241142  78.7295131  10.9234816  62.7344466
  77.2929080  10.9411906  63.2116546  97.7112046  32.9099867  53.3303543
  98.3490456  32.7906615  52.6266883  97.5932889  33.8580711  53.3891495
  94.5201752  32.8627295  53.2665067  94.1820264  32.7468360  52.3785602
  95.3891521  32.4618461  53.2466073  90.3788568  34.7162772  49.2561958
  89.8153433  34.6252709  48.4878246  90.2640963  33.8962676  49.7364451
  95.0021535  34.0162147  59.2251273  94.9910176  33.6214945  58.3531776
  95.1642175  33.2828220  59.8185044  87.9253000  36.2113963  52.0946179
  88.7174292  35.8704788  51.6792478  88.1649650  36.3208939  53.0148332
  95.9588127  38.3833740  44.5676423  95.3076107  38.9687820  44.1810437
  96.7532490  38.9139935  44.6271461  89.8843754  35.4722877  44.9663557
  90.6574630  34.9251864  44.8276433  90.2369153  36.3367126  45.1778019
  91.7228796  36.7999259  58.1730457  91.4318662  37.7044890  58.0577123
  92.3585781  36.8415787  58.8874526  92.6485003  34.1776108  54.7631816
  93.2448576  33.9532130  54.0488779  92.7059975  33.4360853  55.3657264
  92.2210032  31.6315543  42.5982007  92.4735552  31.1097064  41.8365470
  91.2834591  31.4681688  42.7008691  97.2653315  30.6351321  50.4056751
  98.0516404  30.2170744  50.0547168  97.5292019  31.5397413  50.5738399
  97.4363392  36.0724172  45.1045407  96.8009225  36.1458798  45.8166312
  97.1060798  36.6617770  44.4264487 102.6661742  30.5726554  51.3089729
 103.3986914  30.0025771  51.5427559 101.9101097  30.1848155  51.7496235
  91.9406320  33.5343649  44.8006382  91.8242579  32.8588552  45.4687467
  92.0508580  33.0476023  43.9838535  94.2837861  32.9953796  48.5053072
  93.9196069  32.4684417  49.2165993  95.1404977  32.6052265  48.3319557
 100.1887162  24.2848129  55.7684338  99.8570487  25.1543540  55.5445553
  99.5932775  23.9684413  56.4478368  93.9243348  28.0243696  43.5014420
  94.0917751  28.8923932  43.8684891  93.7340517  28.1870977  42.5775709
  96.6818682  36.4860675  55.1680250  96.3819405  37.3885713  55.0596058
  96.3369741  36.2192858  56.0201403  90.1331163  32.9374471  51.2016955
  89.2081660  32.8050685  51.4094647  90.3815576  33.7168691  51.6986897
 100.0815825  29.0043215  52.8477688  99.1732703  28.9358623  52.5536449
 100.0303421  29.4815160  53.6759513  93.9032569  30.4801353  44.4861087
  93.7832194  30.9258404  45.3246567  93.2085158  30.8286671  43.9274625
  87.4939974  32.5807745  52.0360744  87.6232355  32.8342224  52.9500156
  86.8137425  33.1735453  51.7165399  91.6639461  43.2504995  48.1351218
  91.5863491  44.2012820  48.2139699  91.0601105  42.9050867  48.7926144
  94.1556691  30.4232860  60.7912585  93.3790025  30.9826780  60.7815450
  94.7947254  30.9089643  61.3127455 101.9477472  27.2059653  54.6255562
 101.3051852  27.4992186  53.9795356 101.4432400  27.0912573  55.4308758
  99.6017635  30.9522826  45.3141421 100.5135492  31.1850213  45.1389119
  99.0927283  31.5359871  44.7516500  92.4103063  33.2318314  60.3530552
  93.1517748  33.7703358  60.0765376  91.7040049  33.8584602  60.5102104
  97.8858403  35.3747454  58.9502714  98.2941759  34.9329865  58.2057346
  97.1635665  34.8000082  59.2036906  94.2389473  30.3120061  56.3236270
  95.0850668  30.7359474  56.4670919  94.1788111  29.6553685  57.0174834
  98.2087218  35.9348645  52.7055002  97.5796080  36.0994359  52.0031070
  97.8212880  36.3490254  53.4765966 102.0876450  36.8703083  50.0599366
 101.4027488  37.2501984  49.5096400 102.1720299  37.4798409  50.7931314
  97.3888918  27.9724429  57.9817444  97.1449850  28.7266490  57.4451720
  97.6648849  28.3509777  58.8164691  99.3427381  34.5163042  56.6594710
  99.5544276  35.1594802  55.9829091  99.2957129  33.6825358  56.1916640
  96.9453610  27.1280862  53.5631282  96.0838089  27.4262116  53.8548019
  96.9716045  27.3451261  52.6312314  93.7615180  35.6723053  49.9705088
  94.2253525  35.9510756  49.1809710  93.4971978  34.7706497  49.7878178
  90.6539261  35.2194534  52.9084851  91.2240618  35.6481803  52.2702335
  91.2447373  34.9377119  53.6069036  92.6984066  31.7946205  46.7794653
  93.4008109  32.2467249  47.2468579  92.3664694  31.1530024  47.4074546
  91.1464427  30.3857962  61.1545862  90.5163088  31.0674243  61.3881259
  91.0400515  30.2741043  60.2099000  86.4409400  30.0529758  52.0811786
  85.6508454  30.3087286  51.6051897  86.9320647  30.8678096  52.1863827
 100.4573209  37.3934997  54.8317067 101.2790653  36.9915184  54.5499749
 100.4535612  37.2903231  55.7833183  88.3924145  30.4174337  49.0395263
  87.5955308  30.5293031  49.5578759  88.1649737  30.7560989  48.1736153
  94.2229813  36.9419040  56.9877778  94.2874245  37.4039448  57.8235949
  93.5140737  36.3116405  57.1160087  84.7247103  30.3060248  54.5126777
  84.9755141  31.1907258  54.7784353  85.2606651  30.1264850  53.7401869
 108.5479202  33.7373746  51.1802039 107.7942911  33.1681144  51.0246043
 108.6826743  33.7036410  52.1272673  93.9377830  38.6087148  46.8556758
  93.8023505  39.4538684  47.2841606  94.4787643  38.8106425  46.0922692
  90.4245170  24.6878728  63.5171113  90.0312115  24.1344926  64.1918757
  91.2411310  24.9989306  63.9077631  87.3907228  36.1262586  47.4284683
  87.9031748  36.9205836  47.5790248  88.0429941  35.4288876  47.3618284
  89.2002112  39.2428342  49.5107436  89.3768741  40.1646307  49.3228420
  89.9958946  38.9286761  49.9401816  93.3413131  26.1036607  61.1091370
  94.0822844  26.7043760  61.0295832  93.5731054  25.3614245  60.5509412
  88.4854469  31.2892974  59.3869599  88.3707984  30.3878231  59.6876698
  87.6298987  31.5356671  59.0354416  95.5646307  39.2310714  60.9857100
  95.1210161  38.4447093  60.6678004  96.2263520  39.4189865  60.3200991
  90.3233428  40.7606516  55.5117778  90.8740853  40.6323579  54.7394772
  89.4844904  41.0601405  55.1612671  97.6627545  39.5113514  59.0138501
  97.6446020  40.3322395  58.5218770  98.5847465  39.3867589  59.2388642
  94.1200599  37.0257644  59.8562010  94.6528936  36.2645932  59.6261318
  93.5914680  36.7331296  60.5986164  97.2870294  22.1317710  55.3855651
  96.9434563  23.0219351  55.3094762  97.6549256  21.9419367  54.5225236
  85.3556144  34.4551240  48.2044254  86.1931366  34.8648249  47.9877961
  85.5334412  33.5150682  48.1744447  97.2520577  32.1226321  43.8928086
  96.7367200  32.8930925  44.1316474  96.9797885  31.4491457  44.5161148
  94.8367688  26.9676022  48.9513325  93.9809284  26.5782872  48.7718964
  95.2494639  27.0467982  48.0913110  96.3666834  24.5022365  53.3504885
  95.8631630  24.4652500  52.5372690  96.6597441  25.4115108  53.4101541
  92.6109720  24.5861095  52.3571066  93.4762717  24.3903903  51.9976956
  92.6787229  24.3571446  53.2840423 102.2254851  34.8758675  45.8281260
 101.4484293  34.5369835  45.3836422 102.9046332  34.8811299  45.1536225
  97.0406880  29.9953413  45.7187868  96.7357015  30.3099562  46.5698011
  97.9937322  30.0734833  45.7615201  95.4853312  36.1543636  47.3680822
  94.9574673  35.4196396  47.0554059  94.9840814  36.9318313  47.1220790
 100.4646158  34.3492657  52.4847868  99.8069832  35.0391918  52.5727997
 101.2686557  34.7389089  52.8281854  90.2172039  26.8163303  49.7287433
  90.7915791  26.5938484  48.9960626  90.8043022  26.8851997  50.4816034
  99.2751616  32.7037029  50.5351810  99.7883498  33.3367021  51.0373519
  99.9252840  32.1038225  50.1695170  90.5441626  28.8467764  43.7483318
  89.7078939  29.1842450  44.0692593  90.4046396  28.7116743  42.8110455
  92.5194707  23.6904551  48.4562503  91.8659119  23.3753569  47.8319117
  92.4775181  23.0680292  49.1822326  93.6305912  33.9723846  40.3715795
  92.7232974  33.7413100  40.5706944  94.1276944  33.1761466  40.5589776
  96.5373991  42.6821354  43.2912481  95.8635689  42.9853050  43.8997439
  96.9239813  43.4850434  42.9417938  95.7532447  30.1786485  52.7810150
  94.8355009  30.4001432  52.6231838  96.1692591  30.2532795  51.9221858
  96.5367495  31.5777901  47.9112830  97.2839314  32.0899298  47.6019953
  96.8059085  31.2561953  48.7717224  94.8094145  34.0736441  44.8939785
  93.9005364  33.7895474  44.9912254  94.8389229  34.4935520  44.0343092
 100.0413413  37.6843031  48.6630952  99.5875740  36.8433941  48.7196143
  99.4107379  38.3204429  49.0005732  98.9846332  28.6135017  49.8931620
  98.2469089  28.1012403  50.2241862  99.2373106  28.1735399  49.0814897
  98.4846352  39.5219528  49.5980770  98.7769326  40.0824585  48.8793136
  98.9944972  39.8148089  50.3533930  99.0857960  21.3911269  50.4873389
  99.3916836  20.5308632  50.1999304  99.8110564  21.9828889  50.2872383
  85.3782316  31.7941955  48.8754987  85.1806715  31.2011316  48.1506054
  84.8228980  31.4894166  49.5930926  93.3579039  31.6865062  50.9949580
  93.4127649  30.7338898  50.9192057  92.5470241  31.8424501  51.4790879
  94.5070233  35.6145185  42.2327863  94.0689663  34.8981044  41.7733501
  95.2480674  35.8421300  41.6712955  91.2971399  30.3042122  48.7539959
  90.4839265  30.6036292  49.1605151  91.7930393  29.9097810  49.4714441
  93.4479977  40.2999879  50.6874224  93.4056156  40.5260725  49.7582756
  94.3642676  40.0663253  50.8360025  96.8945611  30.7683946  57.5854853
  97.2494999  30.9955419  58.4449319  97.5417742  31.1002323  56.9632108
 102.6243348  33.8902382  48.2904182 102.4861246  34.0803978  47.3625371
 102.2679567  34.6521765  48.7472233  90.7885474  27.8760477  54.3701194
  91.4284853  27.7349236  53.6724157  89.9563004  27.5894991  53.9939796
 102.6512727  35.9578909  53.3015453 103.0849234  35.8654198  54.1498507
 103.3644308  35.9336410  52.6635469  91.5645778  37.1762908  50.4836186
  92.3586376  36.6813228  50.2818761  90.8537470  36.6480771  50.1203892
  96.3840622  39.5581003  54.8348554  96.4377645  40.1271940  55.6026270
  95.5155404  39.7282888  54.4702591  87.8728541  31.3205989  46.5595939
  86.9426129  31.2590445  46.7765901  87.9686013  30.7981942  45.7632580
  87.7914090  27.8460802  49.1474181  88.0520908  28.7606135  49.0383341
  88.6131263  27.3785245  49.2970794  89.2639016  29.2598559  56.3173005
  89.9362069  29.0515922  55.6685654  88.4368802  29.0620645  55.8778238
 103.5128277  36.0002610  55.8348339 103.7064167  36.9048420  56.0807614
 103.4128895  35.5410029  56.6686924  95.1664588  25.8860500  58.3338666
  94.5192503  26.5850450  58.2403143  95.9365603  26.3196644  58.7014914
  98.5743386  36.1509352  61.4089219  98.4228892  35.9219904  60.4919303
  98.5648065  37.1079954  61.4220564  95.3428722  33.7241265  56.3935486
  96.2720782  33.8752425  56.2204453  94.9219752  33.8125286  55.5384132
  94.1417054  37.7491930  54.1634023  94.0028140  37.3810714  55.0359962
  93.3531650  38.2639569  53.9917981  94.7365206  42.8501026  45.5059560
  94.9116961  42.3789069  46.3205183  94.0497994  43.4766792  45.7340821
  95.6922269  37.1273532  51.5522861  95.3572102  37.0874302  52.4480511
  95.1926215  36.4618248  51.0793271  89.6666513  32.5341162  57.0775442
  89.5286311  31.8021401  57.6786981  90.5771436  32.4450062  56.7959630
  98.6281461  34.4729567  41.8259921  98.0110631  33.7476395  41.7292974
  98.1597949  35.2338927  41.4826995  92.2948814  32.2461122  56.5659122
  93.0048432  31.6054314  56.5245740  92.2518122  32.4974017  57.4885303
 100.2835592  39.1828475  59.4865701 100.2248138  38.4987695  58.8196284
 100.6855111  39.9247465  59.0346327  91.0077748  29.2326340  58.3854762
  90.4715105  28.7817078  59.0376358  90.4194456  29.3672248  57.6425226
  89.3026291  45.9990389  52.2799420  89.5422889  46.6308913  52.9578439
  88.4595488  45.6478429  52.5664779  90.4180007  28.6914991  40.9481225
  89.5409473  28.5703792  40.5843472  90.8937760  27.9001069  40.6960114
 100.2853000  37.1468059  57.7179681  99.3979778  36.8093981  57.8406080
 100.8551551  36.4151090  57.9548446  81.9382147  33.4792151  51.0422732
  82.6253187  33.1653881  50.4543748  81.7830275  34.3833515  50.7689984
  86.7416869  28.3682347  55.4707756  86.6575058  27.7608017  54.7358166
  85.9199575  28.8591366  55.4717252  93.8154153  41.8069511  54.6840924
  93.7424324  42.6124483  55.1960229  93.3731546  42.0061477  53.8588946
  93.6043933  41.0441281  48.1943746  92.8211454  41.5862962  48.2881970
  94.3036678  41.5615261  48.5937987  96.9140583  26.8535911  50.8377951
  97.4109282  26.1005873  50.5179021  96.1427564  26.8900227  50.2721160
 104.7670340  32.5576276  52.4796243 104.7560216  33.4400992  52.1090176
 103.8987720  32.2047827  52.2850780  96.2752836  41.7056345  56.8399083
  96.9880809  42.3403810  56.7674984  95.7842865  41.8020211  56.0239085
  97.9970363  35.6107598  48.4116374  97.0626642  35.7309060  48.2421079
  98.1747032  34.7080065  48.1476384  93.4975551  28.9953294  50.5649636
  93.1273339  28.4424334  51.2530541  93.9934644  28.3911427  50.0124636
 101.3842915  31.4524917  48.9466409 101.8503367  32.2852909  48.8726711
 101.8350415  30.9869899  49.6511667  91.3264750  39.4550789  57.6604654
  92.0274210  40.0887272  57.8134048  90.8559865  39.7965520  56.9000293
  99.4519146  37.7968739  45.9452561  99.7278990  37.6825333  46.8546435
  98.5823645  37.3986223  45.9064734  99.3559577  23.8205504  52.9857310
  98.4422657  24.0509731  53.1539517  99.7852679  23.9043948  53.8371342
  99.1266036  32.0095396  55.4857204  98.4737486  32.2571304  54.8309657
  99.5046416  31.1959534  55.1519681  96.0873210  42.0455089  49.5885374
  96.2695604  41.2276745  50.0513127  96.9106196  42.2622782  49.1510264
  96.4215375  40.9723275  46.8500423  96.9503142  40.4615729  46.2370585
  96.6843595  40.6565805  47.7145956  95.1753609  32.7515207  61.9723241
  94.4994246  32.6509337  62.6425616  95.9981243  32.5954421  62.4359238
  86.9232468  38.9887144  54.5935756  87.5085905  38.2430832  54.7263661
  86.7257307  39.2991101  55.4772420  89.7771123  42.0238391  49.6098199
  89.1081499  42.5084519  49.1262239  89.6383993  42.2707612  50.5241577
  81.5150123  31.5592744  53.3140199  81.5534222  31.0256335  54.1077318
  81.0090416  31.0327950  52.6951177  93.9176392  44.0582135  56.2080857
  94.4694700  44.2213756  56.9729942  94.2582585  44.6486573  55.5360882
  88.8940885  26.4057285  56.8102742  88.9582212  27.2672115  56.3980139
  88.8308005  25.7931286  56.0775100  88.3693158  28.4780417  60.4575776
  88.9965196  28.0957494  61.0713300  87.5121076  28.2594619  60.8231469
  98.7687266  38.8843392  62.0629511  99.3127170  39.4973351  61.5684466
  98.1874111  39.4422971  62.5796524  85.1458700  30.2856846  46.3894131
  85.4412141  29.3767525  46.3361185  84.2446736  30.2644586  46.0675133
  97.0544779  42.0064110  53.1944539  96.9295919  41.2053850  52.6855485
  97.7123870  42.5010304  52.7058509  88.6752947  28.3612843  52.3721679
  87.9539533  28.9748811  52.2329153  89.4646203  28.8970608  52.2938325
  99.1179688  39.8073130  54.8224089  98.1710023  39.6878482  54.7502416
  99.4662461  38.9195628  54.9050351  91.4779261  25.6967269  58.6462331
  92.0013663  25.9429566  59.4088641  91.2591594  26.5287304  58.2265469
  86.8746542  27.9670944  46.5133456  86.5459248  27.0868323  46.3308562
  87.2285913  27.9118613  47.4009845  96.1226121  39.6025847  51.0228442
  95.9751083  38.6742554  51.2036012  96.9479614  39.6245937  50.5385517
  89.9888365  28.2543914  46.8808934  90.3284438  28.7829835  46.1587542
  90.4360486  28.5924320  47.6567500  99.7260243  40.4254405  52.1093314
 100.6506790  40.2197267  51.9717765  99.5575546  40.1770806  53.0182656
  92.6831806  26.6380964  56.3312002  92.3428626  25.8388777  56.7332682
  91.9770812  26.9382675  55.7588835  93.3348278  23.7230277  54.7839325
  94.1574347  23.2490755  54.6618215  93.5786341  24.5020761  55.2838011
  91.9756512  26.7518535  45.0802226  92.6964875  27.1299788  44.5765943
  91.3521816  27.4707412  45.1837204  96.1187635  27.4563684  46.0160559
  96.3351250  28.3388322  45.7149387  95.6381702  27.0649898  45.2866201
  90.8586857  30.4149397  52.5931303  90.7131437  30.7289701  53.4855585
  90.3812060  31.0334298  52.0402202  92.7183239  27.4051945  52.6412193
  92.7044808  26.5093039  52.3044491  93.4355668  27.4122609  53.2750479
  94.5709370  27.8389286  54.6865320  94.3127148  28.7606356  54.6849651
  94.0394411  27.4419720  55.3765784  99.5155559  40.9440073  47.4655406
  99.6892436  40.3786495  46.7129258 100.0084450  41.7440968  47.2834896
  85.3332519  32.9554742  55.5318965  84.7885987  33.7314550  55.6639239
  86.2111869  33.3025546  55.3738086  92.1220135  26.2866326  47.9099763
  92.2436047  25.3582972  48.1090651  91.8322178  26.3005012  46.9978078
  94.9911326  23.9721236  51.0466483  95.0133023  24.0360569  50.0918462
  95.4079385  23.1325745  51.2406989 105.3694950  33.7076496  49.0845705
 105.8126096  32.9583821  48.6864829 104.4921460  33.6986632  48.7019437
 100.5030731  40.2606837  44.5652304 101.1981636  40.8813530  44.7839619
 100.8453882  39.4102188  44.8404682  86.1198541  32.0824638  58.4249121
  85.3780277  32.2307273  59.0113752  85.7991285  32.3432904  57.5615871
 102.4022155  37.7106543  46.0939635 102.9273479  38.0493815  45.3688955
 102.3144507  36.7753558  45.9102769  94.0642203  41.6240616  58.2229511
  94.3729330  41.3789763  59.0952211  94.8617685  41.8287255  57.7348382
  94.0862815  43.7778526  50.4534888  93.6467806  43.2854905  51.1467745
  94.8370932  43.2351494  50.2126963  86.5655154  39.9690067  50.4559516
  87.3913174  39.6693839  50.0758160  86.2149206  39.1997689  50.9049305
  91.5336687  39.3216535  52.5257190  90.9116697  38.6587240  52.2259418
  92.2041554  39.3477667  51.8430837  84.7663759  37.8876393  51.4148450
  83.9295668  37.4598568  51.2332451  84.7387405  38.0808837  52.3519241
  91.6061215  27.7998323  62.1189696  91.6549370  28.6760446  61.7367465
  92.1483729  27.2575716  61.5461339 102.0916061  38.3439446  61.3990833
 101.3011604  38.3263585  60.8595332 101.8549415  38.8827740  62.1539869
 102.2113936  35.1931913  58.7123561 102.2611941  35.0281920  59.6539084
 102.1027859  34.3259172  58.3221442  91.0950194  37.8720458  46.0015650
  91.2438315  38.5555923  45.3482323  91.9016638  37.8525548  46.5165106
  99.5017698  31.1762841  60.0282868 100.4027561  31.0369306  59.7366866
  99.5765673  31.3417296  60.9681045  93.8360503  28.5529696  58.8736054
  92.9663813  28.8463262  58.6018643  94.0719984  29.1370141  59.5943318
 103.7132132  37.6128854  58.9565583 103.4216941  37.9758835  59.7929044
 103.1004264  36.8995863  58.7778915 104.9127815  35.1781734  51.4768153
 105.7474706  35.6171538  51.6405713 105.0486944  34.7020387  50.6576399
 101.9619321  32.7361469  57.4245641 102.4373442  32.9289115  56.6164492
 101.0384886  32.7920655  57.1789024  88.8502827  33.8985636  47.0076719
  88.6048869  32.9947966  47.2056929  89.0198742  33.9002787  46.0656197
  96.5399537  24.7709312  56.3901475  97.0581481  25.5070339  56.0647963
  96.1854670  25.0773306  57.2248234  88.1198475  29.6313994  44.5062881
  87.4267720  29.7058349  43.8502917  87.8750227  28.8674337  45.0284397
  96.7912131  21.1909595  51.9102371  97.0713885  20.5232784  52.5362798
  97.5762738  21.3838691  51.3977035  94.5945600  40.3668589  43.4727398
  94.0219567  40.9858776  43.0197869  95.1678394  40.9167951  44.0067320
 100.6620990  29.6127229  55.6573946 101.6138413  29.7125327  55.6786170
 100.4924440  28.8205498  56.1672031  98.6835369  26.6982812  55.8433347
  98.0885301  26.9787825  55.1479836  98.3985066  27.1876713  56.6150088
  97.8142860  40.6505739  44.6035980  98.7473533  40.5851301  44.8068855
  97.7266072  41.4862006  44.1450513 100.4430876  39.9671609  41.5639927
 100.3644508  39.6331473  42.4575685 101.2640543  40.4593377  41.5631400
 103.1409067  32.8333349  54.7716246 103.1085388  31.8949349  54.9575930
 103.7509691  32.9117385  54.0382071  94.9792398  31.7029402  40.8143450
  95.9251503  31.5735610  40.8831868  94.6006643  30.9644064  41.2912878
 103.2903556  29.6244392  54.8174529 102.7742605  28.8402849  54.6304458
 104.1743504  29.2963109  54.9821049 100.9514283  23.3685408  50.7770342
 100.7539104  23.0600496  51.6613674 101.5613988  24.0947047  50.9068272
 108.9585617  33.8949355  53.9122283 109.6889006  33.6334644  54.4729986
 108.3492563  33.1578077  53.9524351 107.0400914  32.0357218  54.5096734
 106.3134078  31.9013183  53.9013226 106.6248201  32.3434047  55.3153452
  94.8631091  35.7547148  62.2744107  95.7834100  35.9325747  62.4684154
  94.8280674  34.8103193  62.1223806  93.1635315  29.6279378  40.7498335
  92.2566771  29.3312491  40.8261049  93.4411296  29.3309196  39.8832622
  84.0813256  30.9485741  51.1997382  83.7616040  30.0951050  50.9071756
  83.5346684  31.1634320  51.9555349  87.8593163  33.6648182  54.9166888
  88.0779173  34.5965290  54.9354922  88.2718937  33.3056157  55.7021692
  94.7797381  24.1716268  46.9042577  93.9698110  23.8263353  47.2797823
  95.4681798  23.8623811  47.4930188  96.7087929  23.2494315  48.5266873
  97.2618968  23.6689768  49.1856896  96.9458016  22.3230063  48.5689829
  92.7321029  29.2381388  64.3069637  92.6317756  30.1875745  64.2381728
  92.5142571  28.9099627  63.4345707  91.9334100  26.4866313  40.8910315
  92.7953264  26.8121212  41.1506132  92.1184444  25.6997809  40.3783380
  83.9501516  34.5688653  53.1690503  83.2564987  34.1542606  52.6560458
  84.6974507  34.6109189  52.5723922 100.0866737  25.3594840  48.0345538
  99.5065406  26.0179644  47.6523590  99.8202669  24.5372184  47.6232955
  98.5370303  24.7599897  50.2366858  99.0370081  24.8716432  49.4281177
  99.1805911  24.4560950  50.8767666  92.5952299  32.6678527  63.1234699
  92.1119380  33.4678887  63.3298588  92.6813238  32.6786472  62.1702143
  85.8638258  34.5006907  51.0456518  85.8408947  34.5994594  50.0938401
  86.1738895  35.3472057  51.3673684  88.5225636  36.5583062  55.1603133
  89.4768890  36.5267004  55.0933064  88.3238160  36.0973685  55.9753359
  89.1125018  35.1284178  57.7273930  89.9317907  35.6228256  57.7508768
  89.3861826  34.2116146  57.6991498  98.8691615  27.5194930  47.0901886
  97.9817470  27.8044581  46.8722081  99.2845604  27.3588693  46.2429163
 102.2206151  27.5441451  50.8056225 102.9966541  28.0337904  51.0780842
 101.4954285  27.9699505  51.2628095 104.6578709  28.2569070  51.8630166
 105.2523200  28.0164806  51.1523474 104.7305293  27.5376201  52.4903702
  86.8775865  42.1002681  52.1773330  86.7430333  41.3403082  51.6111329
  86.4607927  42.8243581  51.7102119  98.0134828  37.2839605  41.1849906
  98.7170678  37.4889607  41.8007561  97.2897477  37.8516367  41.4498989
  98.8432638  33.0349466  47.3052176  98.7867840  33.4918017  46.4659808
  99.3960981  32.2740151  47.1275019 102.6537444  28.8239198  48.1302295
 102.3974378  28.4235834  48.9610503 102.0290312  29.5382992  48.0052435
 106.9649782  31.5635271  50.6373587 106.4049340  31.6328460  51.4105149
 106.3593285  31.3876256  49.9173083  90.0344991  42.9971998  52.3891773
  89.9177375  43.9417431  52.2870463  89.2137437  42.6945560  52.7777572
  99.9221525  37.7222134  43.2348366 100.7567129  37.2903332  43.0525841
  99.7605868  37.5504148  44.1625260  99.5767418  34.2254247  44.6004705
  99.5216221  34.0598519  43.6593149  98.9513473  34.9330280  44.7566895
  84.3659933  29.4622312  58.4266127  85.0118796  28.9521266  58.9153353
  84.1577084  30.1990993  59.0009553  96.8913325  36.5303159  63.9258268
  97.7604484  36.7043811  63.5644903  96.4120076  37.3497576  63.8033997
  92.8863543  23.7262356  44.1790024  92.8742213  24.6704196  44.3358294
  93.7786965  23.5432502  43.8849485  91.0599505  43.6500260  55.6047702
  91.9626752  43.6823870  55.9214197  90.8336875  42.7200711  55.6194037
  92.8153107  42.4031247  52.2657780  91.8648738  42.4033108  52.1522152
  93.1185593  41.6563981  51.7493815  96.7015663  20.3205133  48.4335960
  95.9348058  19.7663620  48.5792643  97.1126368  20.3927002  49.2950112
  88.7057424  26.6089929  62.5241142  89.5688885  26.2526734  62.7344466
  88.1322834  26.2703824  63.2116546 108.5505801  48.2391785  53.3303543
 109.1884211  48.1198532  52.6266883 108.4326643  49.1872629  53.3891495
 105.3595507  48.1919213  53.2665067 105.0214018  48.0760278  52.3785602
 106.2285275  47.7910378  53.2466073 101.2182323  50.0454690  49.2561958
 100.6547188  49.9544627  48.4878246 101.1034718  49.2254594  49.7364451
 105.8415290  49.3454065  59.2251273 105.8303931  48.9506863  58.3531776
 106.0035929  48.6120138  59.8185044  98.7646754  51.5405881  52.0946179
  99.5568046  51.1996706  51.6792478  99.0043405  51.6500856  53.0148332
 106.7981881  53.7125657  44.5676423 106.1469861  54.2979738  44.1810437
 107.5926244  54.2431852  44.6271461 100.7237508  50.8014794  44.9663557
 101.4968384  50.2543782  44.8276433 101.0762907  51.6659044  45.1778019
 102.5622551  52.1291177  58.1730457 102.2712417  53.0336808  58.0577123
 103.1979535  52.1707704  58.8874526 103.4878758  49.5068025  54.7631816
 104.0842330  49.2824048  54.0488779 103.5453729  48.7652771  55.3657264
 103.0603786  46.9607461  42.5982007 103.3129307  46.4388982  41.8365470
 102.1228345  46.7973606  42.7008691 108.1047069  45.9643239  50.4056751
 108.8910158  45.5462662  50.0547168 108.3685773  46.8689331  50.5738399
 108.2757146  51.4016089  45.1045407 107.6402979  51.4750716  45.8166312
 107.9454553  51.9909688  44.4264487 113.5055496  45.9018472  51.3089729
 114.2380668  45.3317689  51.5427559 112.7494852  45.5140073  51.7496235
 102.7800075  48.8635567  44.8006382 102.6636333  48.1880470  45.4687467
 102.8902335  48.3767940  43.9838535 105.1231616  48.3245714  48.5053072
 104.7589823  47.7976335  49.2165993 105.9798732  47.9344183  48.3319557
 111.0280917  39.6140046  55.7684338 110.6964241  40.4835457  55.5445553
 110.4326530  39.2976330  56.4478368 104.7637103  43.3535613  43.5014420
 104.9311505  44.2215850  43.8684891 104.5734272  43.5162895  42.5775709
 107.5212436  51.8152592  55.1680250 107.2213159  52.7177631  55.0596058
 107.1763496  51.5484775  56.0201403 100.9724918  48.2666389  51.2016955
 100.0475414  48.1342603  51.4094647 101.2209331  49.0460608  51.6986897
 110.9209580  44.3335132  52.8477688 110.0126457  44.2650541  52.5536449
 110.8697176  44.8107077  53.6759513 104.7426324  45.8093271  44.4861087
 104.6225949  46.2550322  45.3246567 104.0478912  46.1578588  43.9274625
  98.3333729  47.9099663  52.0360744  98.4626110  48.1634142  52.9500156
  97.6531180  48.5027371  51.7165399 102.5033216  58.5796913  48.1351218
 102.4257246  59.5304738  48.2139699 101.8994859  58.2342785  48.7926144
 104.9950446  45.7524778  60.7912585 104.2183780  46.3118698  60.7815450
 105.6341009  46.2381561  61.3127455 112.7871226  42.5351571  54.6255562
 112.1445607  42.8284104  53.9795356 112.2826155  42.4204491  55.4308758
 110.4411390  46.2814744  45.3141421 111.3529246  46.5142131  45.1389119
 109.9321037  46.8651788  44.7516500 103.2496818  48.5610231  60.3530552
 103.9911502  49.0995275  60.0765376 102.5433803  49.1876520  60.5102104
 108.7252158  50.7039372  58.9502714 109.1335514  50.2621782  58.2057346
 108.0029419  50.1291999  59.2036906 105.0783228  45.6411979  56.3236270
 105.9244423  46.0651392  56.4670919 105.0181865  44.9845603  57.0174834
 109.0480972  51.2640562  52.7055002 108.4189835  51.4286277  52.0031070
 108.6606634  51.6782172  53.4765966 112.9270204  52.1995000  50.0599366
 112.2421242  52.5793902  49.5096400 113.0114053  52.8090327  50.7931314
 108.2282673  43.3016347  57.9817444 107.9843605  44.0558407  57.4451720
 108.5042603  43.6801695  58.8164691 110.1821136  49.8454959  56.6594710
 110.3938031  50.4886719  55.9829091 110.1350884  49.0117276  56.1916640
 107.7847365  42.4572780  53.5631282 106.9231844  42.7554034  53.8548019
 107.8109799  42.6743179  52.6312314 104.6008934  51.0014971  49.9705088
 105.0647280  51.2802674  49.1809710 104.3365732  50.0998415  49.7878178
 101.4933015  50.5486452  52.9084851 102.0634372  50.9773720  52.2702335
 102.0841127  50.2669037  53.6069036 103.5377820  47.1238123  46.7794653
 104.2401864  47.5759167  47.2468579 103.2058449  46.4821942  47.4074546
 101.9858182  45.7149880  61.1545862 101.3556842  46.3966160  61.3881259
 101.8794270  45.6032961  60.2099000  97.2803154  45.3821676  52.0811786
  96.4902208  45.6379204  51.6051897  97.7714401  46.1970013  52.1863827
 111.2966964  52.7226915  54.8317067 112.1184407  52.3207102  54.5499749
 111.2929367  52.6195149  55.7833183  99.2317900  45.7466255  49.0395263
  98.4349063  45.8584949  49.5578759  99.0043492  46.0852907  48.1736153
 105.0623567  52.2710958  56.9877778 105.1268000  52.7331365  57.8235949
 104.3534491  51.6408323  57.1160087  95.5640857  45.6352166  54.5126777
  95.8148896  46.5199176  54.7784353  96.1000406  45.4556768  53.7401869
 119.3872957  49.0665663  51.1802039 118.6336665  48.4973061  51.0246043
 119.5220498  49.0328328  52.1272673 104.7771585  53.9379066  46.8556758
 104.6417260  54.7830601  47.2841606 105.3181397  54.1398343  46.0922692
 101.2638924  40.0170645  63.5171113 100.8705870  39.4636844  64.1918757
 102.0805065  40.3281224  63.9077631  98.2300982  51.4554504  47.4284683
  98.7425503  52.2497754  47.5790248  98.8823695  50.7580794  47.3618284
 100.0395867  54.5720260  49.5107436 100.2162495  55.4938225  49.3228420
 100.8352700  54.2578679  49.9401816 104.1806885  41.4328524  61.1091370
 104.9216599  42.0335678  61.0295832 104.4124808  40.6906162  60.5509412
  99.3248223  46.6184892  59.3869599  99.2101739  45.7170149  59.6876698
  98.4692741  46.8648588  59.0354416 106.4040061  54.5602632  60.9857100
 105.9603915  53.7739011  60.6678004 107.0657275  54.7481783  60.3200991
 101.1627182  56.0898434  55.5117778 101.7134607  55.9615497  54.7394772
 100.3238658  56.3893323  55.1612671 108.5021299  54.8405432  59.0138501
 108.4839775  55.6614313  58.5218770 109.4241219  54.7159507  59.2388642
 104.9594353  52.3549561  59.8562010 105.4922690  51.5937850  59.6261318
 104.4308434  52.0623213  60.5986164 108.1264048  37.4609627  55.3855651
 107.7828318  38.3511269  55.3094762 108.4943011  37.2711285  54.5225236
  96.1949899  49.7843158  48.2044254  97.0325121  50.1940166  47.9877961
  96.3728167  48.8442600  48.1744447 108.0914331  47.4518238  43.8928086
 107.5760955  48.2222843  44.1316474 107.8191640  46.7783375  44.5161148
 105.6761442  42.2967939  48.9513325 104.8203038  41.9074790  48.7718964
 106.0888394  42.3759900  48.0913110 107.2060589  39.8314283  53.3504885
 106.7025384  39.7944418  52.5372690 107.4991196  40.7407025  53.4101541
 103.4503475  39.9153012  52.3571066 104.3156471  39.7195821  51.9976956
 103.5180984  39.6863364  53.2840423 113.0648605  50.2050593  45.8281260
 112.2878048  49.8661753  45.3836422 113.7440086  50.2103216  45.1536225
 107.8800634  45.3245331  45.7187868 107.5750770  45.6391480  46.5698011
 108.8331076  45.4026750  45.7615201 106.3247066  51.4835554  47.3680822
 105.7968428  50.7488313  47.0554059 105.8234569  52.2610230  47.1220790
 111.3039912  49.6784574  52.4847868 110.6463587  50.3683836  52.5727997
 112.1080311  50.0681006  52.8281854 101.0565794  42.1455220  49.7287433
 101.6309546  41.9230402  48.9960626 101.6436776  42.2143915  50.4816034
 110.1145371  48.0328947  50.5351810 110.6277253  48.6658939  51.0373519
 110.7646595  47.4330143  50.1695170 101.3835381  44.1759681  43.7483318
 100.5472693  44.5134368  44.0692593 101.2440150  44.0408661  42.8110455
 103.3588461  39.0196469  48.4562503 102.7052874  38.7045486  47.8319117
 103.3168936  38.3972210  49.1822326 104.4699666  49.3015764  40.3715795
 103.5626728  49.0705018  40.5706944 104.9670698  48.5053383  40.5589776
 107.3767745  58.0113271  43.2912481 106.7029444  58.3144968  43.8997439
 107.7633567  58.8142352  42.9417938 106.5926202  45.5078403  52.7810150
 105.6748763  45.7293350  52.6231838 107.0086345  45.5824713  51.9221858
 107.3761250  46.9069818  47.9112830 108.1233068  47.4191216  47.6019953
 107.6452839  46.5853871  48.7717224 105.6487900  49.4028359  44.8939785
 104.7399119  49.1187392  44.9912254 105.6782984  49.8227438  44.0343092
 110.8807167  53.0134949  48.6630952 110.4269494  52.1725858  48.7196143
 110.2501134  53.6496347  49.0005732 109.8240087  43.9426935  49.8931620
 109.0862843  43.4304321  50.2241862 110.0766860  43.5027316  49.0814897
 109.3240106  54.8511445  49.5980770 109.6163081  55.4116502  48.8793136
 109.8338727  55.1440006  50.3533930 109.9251714  36.7203187  50.4873389
 110.2310591  35.8600550  50.1999304 110.6504319  37.3120807  50.2872383
  96.2176070  47.1233873  48.8754987  96.0200470  46.5303234  48.1506054
  95.6622734  46.8186083  49.5930926 104.1972794  47.0156980  50.9949580
 104.2521404  46.0630816  50.9192057 103.3863996  47.1716419  51.4790879
 105.3463988  50.9437103  42.2327863 104.9083417  50.2272962  41.7733501
 106.0874428  51.1713218  41.6712955 102.1365154  45.6334039  48.7539959
 101.3233019  45.9328210  49.1605151 102.6324148  45.2389728  49.4714441
 104.2873732  55.6291796  50.6874224 104.2449910  55.8552643  49.7582756
 105.2036430  55.3955171  50.8360025 107.7339365  46.0975864  57.5854853
 108.0888753  46.3247337  58.4449319 108.3811497  46.4294241  56.9632108
 113.4637102  49.2194300  48.2904182 113.3255001  49.4095896  47.3625371
 113.1073321  49.9813683  48.7472233 101.6279228  43.2052395  54.3701194
 102.2678608  43.0641154  53.6724157 100.7956759  42.9186908  53.9939796
 113.4906482  51.2870827  53.3015453 113.9242989  51.1946116  54.1498507
 114.2038063  51.2628327  52.6635469 102.4039532  52.5054825  50.4836186
 103.1980131  52.0105145  50.2818761 101.6931225  51.9772688  50.1203892
 107.2234377  54.8872921  54.8348554 107.2771399  55.4563857  55.6026270
 106.3549158  55.0574806  54.4702591  98.7122296  46.6497907  46.5595939
  97.7819884  46.5882363  46.7765901  98.8079768  46.1273860  45.7632580
  98.6307845  43.1752720  49.1474181  98.8914662  44.0898053  49.0383341
  99.4525017  42.7077162  49.2970794 100.1032770  44.5890477  56.3173005
 100.7755824  44.3807839  55.6685654  99.2762557  44.3912563  55.8778238
 114.3522031  51.3294527  55.8348339 114.5457922  52.2340338  56.0807614
 114.2522650  50.8701946  56.6686924 106.0058342  41.2152418  58.3338666
 105.3586257  41.9142368  58.2403143 106.7759358  41.6488562  58.7014914
 109.4137140  51.4801270  61.4089219 109.2622647  51.2511822  60.4919303
 109.4041820  52.4371872  61.4220564 106.1822477  49.0533183  56.3935486
 107.1114537  49.2044343  56.2204453 105.7613507  49.1417204  55.5384132
 104.9810808  53.0783847  54.1634023 104.8421894  52.7102632  55.0359962
 104.1925405  53.5931487  53.9917981 105.5758960  58.1792944  45.5059560
 105.7510716  57.7080987  46.3205183 104.8891748  58.8058710  45.7340821
 106.5316023  52.4565450  51.5522861 106.1965856  52.4166220  52.4480511
 106.0319969  51.7910166  51.0793271 100.5060267  47.8633080  57.0775442
 100.3680065  47.1313319  57.6786981 101.4165191  47.7741980  56.7959630
 109.4675215  49.8021484  41.8259921 108.8504386  49.0768313  41.7292974
 108.9991704  50.5630845  41.4826995 103.1342568  47.5753039  56.5659122
 103.8442187  46.9346232  56.5245740 103.0911876  47.8265934  57.4885303
 111.1229347  54.5120393  59.4865701 111.0641893  53.8279613  58.8196284
 111.5248865  55.2539383  59.0346327 101.8471502  44.5618257  58.3854762
 101.3108859  44.1108996  59.0376358 101.2588211  44.6964166  57.6425226
 100.1420046  61.3282307  52.2799420 100.3816644  61.9600831  52.9578439
  99.2989242  60.9770347  52.5664779 101.2573761  44.0206909  40.9481225
 100.3803227  43.8995709  40.5843472 101.7331514  43.2292987  40.6960114
 111.1246754  52.4759977  57.7179681 110.2373533  52.1385898  57.8406080
 111.6945305  51.7443008  57.9548446  92.7775901  48.8084068  51.0422732
  93.4646941  48.4945798  50.4543748  92.6224030  49.7125433  50.7689984
  97.5810623  43.6974265  55.4707756  97.4968812  43.0899935  54.7358166
  96.7593330  44.1883283  55.4717252 104.6547907  57.1361429  54.6840924
 104.5818079  57.9416400  55.1960229 104.2125301  57.3353395  53.8588946
 104.4437687  56.3733199  48.1943746 103.6605209  56.9154879  48.2881970
 105.1430432  56.8907179  48.5937987 107.7534337  42.1827828  50.8377951
 108.2503037  41.4297791  50.5179021 106.9821319  42.2192145  50.2721160
 115.6064095  47.8868194  52.4796243 115.5953971  48.7692909  52.1090176
 114.7381474  47.5339745  52.2850780 107.1146591  57.0348263  56.8399083
 107.8274563  57.6695728  56.7674984 106.6236620  57.1312129  56.0239085
 108.8364118  50.9399516  48.4116374 107.9020397  51.0600978  48.2421079
 109.0140786  50.0371982  48.1476384 104.3369306  44.3245211  50.5649636
 103.9667093  43.7716252  51.2530541 104.8328398  43.7203345  50.0124636
 112.2236669  46.7816835  48.9466409 112.6897121  47.6144827  48.8726711
 112.6744170  46.3161817  49.6511667 102.1658505  54.7842706  57.6604654
 102.8667964  55.4179189  57.8134048 101.6953619  55.1257438  56.9000293
 110.2912900  53.1260656  45.9452561 110.5672744  53.0117251  46.8546435
 109.4217399  52.7278141  45.9064734 110.1953332  39.1497422  52.9857310
 109.2816412  39.3801649  53.1539517 110.6246433  39.2335866  53.8371342
 109.9659790  47.3387314  55.4857204 109.3131241  47.5863221  54.8309657
 110.3440170  46.5251452  55.1519681 106.9266964  57.3747007  49.5885374
 107.1089359  56.5568663  50.0513127 107.7499950  57.5914699  49.1510264
 107.2609130  56.3015192  46.8500423 107.7896896  55.7907647  46.2370585
 107.5237349  55.9857722  47.7145956 106.0147363  48.0807125  61.9723241
 105.3388001  47.9801254  62.6425616 106.8374997  47.9246339  62.4359238
  97.7626223  54.3179062  54.5935756  98.3479659  53.5722749  54.7263661
  97.5651061  54.6283018  55.4772420 100.6164878  57.3530309  49.6098199
  99.9475253  57.8376437  49.1262239 100.4777747  57.5999529  50.5241577
  92.3543877  46.8884662  53.3140199  92.3927977  46.3548252  54.1077318
  91.8484170  46.3619867  52.6951177 104.7570146  59.3874052  56.2080857
 105.3088454  59.5505674  56.9729942 105.0976340  59.9778490  55.5360882
  99.7334640  41.7349202  56.8102742  99.7975966  42.5964033  56.3980139
  99.6701760  41.1223204  56.0775100  99.2086912  43.8072335  60.4575776
  99.8358951  43.4249412  61.0713300  98.3514831  43.5886537  60.8231469
 109.6081021  54.2135310  62.0629511 110.1520925  54.8265268  61.5684466
 109.0267866  54.7714888  62.5796524  95.9852455  45.6148764  46.3894131
  96.2805896  44.7059442  46.3361185  95.0840491  45.5936503  46.0675133
 107.8938534  57.3356028  53.1944539 107.7689673  56.5345768  52.6855485
 108.5517625  57.8302221  52.7058509  99.5146702  43.6904760  52.3721679
  98.7933288  44.3040728  52.2329153 100.3039958  44.2262525  52.2938325
 109.9573442  55.1365048  54.8224089 109.0103778  55.0170399  54.7502416
 110.3056215  54.2487546  54.9050351 102.3173015  41.0259187  58.6462331
 102.8407417  41.2721484  59.4088641 102.0985349  41.8579222  58.2265469
  97.7140296  43.2962862  46.5133456  97.3853003  42.4160240  46.3308562
  98.0679667  43.2410530  47.4009845 106.9619875  54.9317764  51.0228442
 106.8144838  54.0034472  51.2036012 107.7873369  54.9537855  50.5385517
 100.8282120  43.5835831  46.8808934 101.1678192  44.1121753  46.1587542
 101.2754240  43.9216237  47.6567500 110.5653997  55.7546323  52.1093314
 111.4900545  55.5489184  51.9717765 110.3969301  55.5062724  53.0182656
 103.5225560  41.9672882  56.3312002 103.1822381  41.1680695  56.7332682
 102.8164567  42.2674593  55.7588835 104.1742032  39.0522194  54.7839325
 104.9968102  38.5782673  54.6618215 104.4180096  39.8312678  55.2838011
 102.8150267  42.0810453  45.0802226 103.5358629  42.4591706  44.5765943
 102.1915571  42.7999330  45.1837204 106.9581390  42.7855602  46.0160559
 107.1745004  43.6680240  45.7149387 106.4775457  42.3941815  45.2866201
 101.6980611  45.7441315  52.5931303 101.5525192  46.0581618  53.4855585
 101.2205815  46.3626215  52.0402202 103.5576994  42.7343863  52.6412193
 103.5438563  41.8384956  52.3044491 104.2749422  42.7414527  53.2750479
 105.4103125  43.1681203  54.6865320 105.1520902  44.0898274  54.6849651
 104.8788165  42.7711638  55.3765784 110.3549313  56.2731990  47.4655406
 110.5286191  55.7078413  46.7129258 110.8478205  57.0732885  47.2834896
  96.1726273  48.2846660  55.5318965  95.6279741  49.0606468  55.6639239
  97.0505623  48.6317464  55.3738086 102.9613890  41.6158243  47.9099763
 103.0829801  40.6874890  48.1090651 102.6715932  41.6296929  46.9978078
 105.8305080  39.3013154  51.0466483 105.8526777  39.3652487  50.0918462
 106.2473139  38.4617662  51.2406989 116.2088705  49.0368413  49.0845705
 116.6519851  48.2875739  48.6864829 115.3315215  49.0278550  48.7019437
 111.3424486  55.5898755  44.5652304 112.0375390  56.2105448  44.7839619
 111.6847636  54.7394106  44.8404682  96.9592295  47.4116556  58.4249121
  96.2174031  47.5599191  59.0113752  96.6385039  47.6724821  57.5615871
 113.2415909  53.0398460  46.0939635 113.7667233  53.3785733  45.3688955
 113.1538262  52.1045476  45.9102769 104.9035958  56.9532534  58.2229511
 105.2123084  56.7081681  59.0952211 105.7011440  57.1579173  57.7348382
 104.9256570  59.1070444  50.4534888 104.4861560  58.6146822  51.1467745
 105.6764687  58.5643411  50.2126963  97.4048909  55.2981985  50.4559516
  98.2306929  54.9985756  50.0758160  97.0542961  54.5289607  50.9049305
 102.3730442  54.6508453  52.5257190 101.7510451  53.9879158  52.2259418
 103.0435309  54.6769585  51.8430837  95.6057514  53.2168311  51.4148450
  94.7689422  52.7890485  51.2332451  95.5781159  53.4100754  52.3519241
 102.4454969  43.1290241  62.1189696 102.4943125  44.0052364  61.7367465
 102.9877484  42.5867634  61.5461339 112.9309815  53.6731364  61.3990833
 112.1405359  53.6555503  60.8595332 112.6943170  54.2119658  62.1539869
 113.0507690  50.5223830  58.7123561 113.1005695  50.3573838  59.6539084
 112.9421613  49.6551089  58.3221442 101.9343949  53.2012376  46.0015650
 102.0832069  53.8847840  45.3482323 102.7410392  53.1817466  46.5165106
 110.3411453  46.5054758  60.0282868 111.2421315  46.3661223  59.7366866
 110.4159427  46.6709213  60.9681045 104.6754258  43.8821613  58.8736054
 103.8057567  44.1755179  58.6018643 104.9113738  44.4662058  59.5943318
 114.5525887  52.9420772  58.9565583 114.2610695  53.3050752  59.7929044
 113.9398018  52.2287780  58.7778915 115.7521569  50.5073652  51.4768153
 116.5868461  50.9463456  51.6405713 115.8880698  50.0312305  50.6576399
 112.8013075  48.0653387  57.4245641 113.2767197  48.2581033  56.6164492
 111.8778641  48.1212572  57.1789024  99.6896582  49.2277554  47.0076719
  99.4442624  48.3239884  47.2056929  99.8592496  49.2294704  46.0656197
 107.3793292  40.1001230  56.3901475 107.8975236  40.8362257  56.0647963
 107.0248424  40.4065223  57.2248234  98.9592229  44.9605911  44.5062881
  98.2661474  45.0350266  43.8502917  98.7143981  44.1966255  45.0284397
 107.6305886  36.5201513  51.9102371 107.9107640  35.8524702  52.5362798
 108.4156493  36.7130608  51.3977035 105.4339354  55.6960507  43.4727398
 104.8613321  56.3150694  43.0197869 106.0072148  56.2459868  44.0067320
 111.5014744  44.9419147  55.6573946 112.4532167  45.0417244  55.6786170
 111.3318195  44.1497415  56.1672031 109.5229124  42.0274730  55.8433347
 108.9279056  42.3079743  55.1479836 109.2378820  42.5168631  56.6150088
 108.6536614  55.9797657  44.6035980 109.5867287  55.9143218  44.8068855
 108.5659827  56.8153924  44.1450513 111.2824631  55.2963527  41.5639927
 111.2038262  54.9623391  42.4575685 112.1034298  55.7885295  41.5631400
 113.9802822  48.1625266  54.7716246 113.9479142  47.2241267  54.9575930
 114.5903446  48.2409303  54.0382071 105.8186153  47.0321319  40.8143450
 106.7645258  46.9027527  40.8831868 105.4400398  46.2935981  41.2912878
 114.1297310  44.9536310  54.8174529 113.6136359  44.1694766  54.6304458
 115.0137259  44.6255026  54.9821049 111.7908037  38.6977325  50.7770342
 111.5932859  38.3892414  51.6613674 112.4007743  39.4238964  50.9068272
 119.7979372  49.2241273  53.9122283 120.5282760  48.9626561  54.4729986
 119.1886317  48.4869995  53.9524351 117.8794669  47.3649136  54.5096734
 117.1527833  47.2305101  53.9013226 117.4641956  47.6725964  55.3153452
 105.7024845  51.0839065  62.2744107 106.6227855  51.2617664  62.4684154
 105.6674428  50.1395111  62.1223806 104.0029070  44.9571296  40.7498335
 103.0960525  44.6604408  40.8261049 104.2805051  44.6601114  39.8832622
  94.9207010  46.2777659  51.1997382  94.6009795  45.4242967  50.9071756
  94.3740439  46.4926237  51.9555349  98.6986918  48.9940100  54.9166888
  98.9172928  49.9257208  54.9354922  99.1112692  48.6348074  55.7021692
 105.6191136  39.5008185  46.9042577 104.8091864  39.1555270  47.2797823
 106.3075553  39.1915729  47.4930188 107.5481684  38.5786232  48.5266873
 108.1012723  38.9981686  49.1856896 107.7851770  37.6521980  48.5689829
 103.5714783  44.5673306  64.3069637 103.4711510  45.5167663  64.2381728
 103.3536325  44.2391545  63.4345707 102.7727855  41.8158231  40.8910315
 103.6347019  42.1413129  41.1506132 102.9578199  41.0289727  40.3783380
  94.7895270  49.8980571  53.1690503  94.0958742  49.4834523  52.6560458
  95.5368261  49.9401107  52.5723922 110.9260491  40.6886757  48.0345538
 110.3459160  41.3471561  47.6523590 110.6596424  39.8664102  47.6232955
 109.3764057  40.0891815  50.2366858 109.8763836  40.2008350  49.4281177
 110.0199665  39.7852868  50.8767666 103.4346053  47.9970445  63.1234699
 102.9513135  48.7970805  63.3298588 103.5206992  48.0078390  62.1702143
  96.7032013  49.8298824  51.0456518  96.6802701  49.9286512  50.0938401
  97.0132649  50.6763975  51.3673684  99.3619391  51.8874979  55.1603133
 100.3162644  51.8558922  55.0933064  99.1631914  51.4265603  55.9753359
  99.9518773  50.4576095  57.7273930 100.7711662  50.9520174  57.7508768
 100.2255581  49.5408064  57.6991498 109.7085369  42.8486848  47.0901886
 108.8211224  43.1336498  46.8722081 110.1239358  42.6880611  46.2429163
 113.0599905  42.8733369  50.8056225 113.8360295  43.3629821  51.0780842
 112.3348039  43.2991423  51.2628095 115.4972464  43.5860988  51.8630166
 116.0916955  43.3456724  51.1523474 115.5699048  42.8668119  52.4903702
  97.7169620  57.4294599  52.1773330  97.5824087  56.6695000  51.6111329
  97.3001682  58.1535499  51.7102119 108.8528583  52.6131522  41.1849906
 109.5564433  52.8181525  41.8007561 108.1291231  53.1808284  41.4498989
 109.6826393  48.3641384  47.3052176 109.6261594  48.8209935  46.4659808
 110.2354735  47.6032068  47.1275019 113.4931199  44.1531116  48.1302295
 113.2368133  43.7527751  48.9610503 112.8684067  44.8674909  48.0052435
 117.8043537  46.8927189  50.6373587 117.2443095  46.9620378  51.4105149
 117.1987040  46.7168173  49.9173083 100.8738745  58.3263916  52.3891773
 100.7571130  59.2709348  52.2870463 100.0531192  58.0237477  52.7777572
 110.7615280  53.0514052  43.2348366 111.5960884  52.6195250  43.0525841
 110.5999623  52.8796065  44.1625260 110.4161172  49.5546165  44.6004705
 110.3609976  49.3890436  43.6593149 109.7907227  50.2622198  44.7566895
  95.2053687  44.7914229  58.4266127  95.8512551  44.2813183  58.9153353
  94.9970838  45.5282911  59.0009553 107.7307079  51.8595077  63.9258268
 108.5998239  52.0335729  63.5644903 107.2513831  52.6789494  63.8033997
 103.7257298  39.0554274  44.1790024 103.7135967  39.9996114  44.3358294
 104.6180719  38.8724419  43.8849485 101.8993260  58.9792178  55.6047702
 102.8020506  59.0115788  55.9214197 101.6730630  58.0492629  55.6194037
 103.6546862  57.7323164  52.2657780 102.7042493  57.7325026  52.1522152
 103.9579348  56.9855899  51.7493815 107.5409417  35.6497051  48.4335960
 106.7741813  35.0955537  48.5792643 107.9520122  35.7218919  49.2950112
  99.5451178  41.9381846  62.5241142 100.4082640  41.5818651  62.7344466
  98.9716589  41.5995741  63.2116546 119.3899555  63.5683703  53.3303543
 120.0277965  63.4490450  52.6266883 119.2720398  64.5164547  53.3891495
 116.1989261  63.5211131  53.2665067 115.8607773  63.4052196  52.3785602
 117.0679030  63.1202296  53.2466073 112.0576077  65.3746607  49.2561958
 111.4940942  65.2836544  48.4878246 111.9428472  64.5546512  49.7364451
 116.6809044  64.6745983  59.2251273 116.6697685  64.2798781  58.3531776
 116.8429684  63.9412055  59.8185044 109.6040509  66.8697799  52.0946179
 110.3961801  66.5288623  51.6792478 109.8437159  66.9792774  53.0148332
 117.6375636  69.0417575  44.5676423 116.9863616  69.6271655  44.1810437
 118.4319999  69.5723770  44.6271461 111.5631263  66.1306712  44.9663557
 112.3362139  65.5835699  44.8276433 111.9156662  66.9950961  45.1778019
 113.4016305  67.4583094  58.1730457 113.1106171  68.3628725  58.0577123
 114.0373290  67.4999622  58.8874526 114.3272512  64.8359943  54.7631816
 114.9236085  64.6115965  54.0488779 114.3847484  64.0944688  55.3657264
 113.8997541  62.2899378  42.5982007 114.1523061  61.7680899  41.8365470
 112.9622100  62.1265524  42.7008691 118.9440824  61.2935157  50.4056751
 119.7303913  60.8754580  50.0547168 119.2079528  62.1981249  50.5738399
 119.1150901  66.7308007  45.1045407 118.4796734  66.8042633  45.8166312
 118.7848307  67.3201606  44.4264487 124.3449251  61.2310390  51.3089729
 125.0774423  60.6609607  51.5427559 123.5888606  60.8431990  51.7496235
 113.6193829  64.1927484  44.8006382 113.5030088  63.5172388  45.4687467
 113.7296089  63.7059858  43.9838535 115.9625370  63.6537631  48.5053072
 115.5983578  63.1268252  49.2165993 116.8192486  63.2636100  48.3319557
 121.8674671  54.9431964  55.7684338 121.5357996  55.8127375  55.5445553
 121.2720284  54.6268248  56.4478368 115.6030857  58.6827531  43.5014420
 115.7705260  59.5507767  43.8684891 115.4128026  58.8454813  42.5775709
 118.3606191  67.1444510  55.1680250 118.0606914  68.0469549  55.0596058
 118.0157250  66.8776693  56.0201403 111.8118672  63.5958307  51.2016955
 110.8869169  63.4634521  51.4094647 112.0603085  64.3752526  51.6986897
 121.7603334  59.6627050  52.8477688 120.8520212  59.5942458  52.5536449
 121.7090930  60.1398995  53.6759513 115.5820078  61.1385188  44.4861087
 115.4619703  61.5842239  45.3246567 114.8872667  61.4870506  43.9274625
 109.1727483  63.2391580  52.0360744 109.3019864  63.4926059  52.9500156
 108.4924934  63.8319288  51.7165399 115.8344200  61.0816696  60.7912585
 115.0577534  61.6410616  60.7815450 116.4734763  61.5673479  61.3127455
 123.6264981  57.8643488  54.6255562 122.9839361  58.1576022  53.9795356
 123.1219909  57.7496409  55.4308758 121.2805144  61.6106662  45.3141421
 122.1923001  61.8434048  45.1389119 120.7714791  62.1943706  44.7516500
 114.0890572  63.8902149  60.3530552 114.8305257  64.4287193  60.0765376
 113.3827558  64.5168438  60.5102104 119.5645912  66.0331289  58.9502714
 119.9729268  65.5913700  58.2057346 118.8423174  65.4583917  59.2036906
 115.9176982  60.9703896  56.3236270 116.7638177  61.3943310  56.4670919
 115.8575620  60.3137521  57.0174834 119.8874727  66.5932480  52.7055002
 119.2583589  66.7578194  52.0031070 119.5000389  67.0074090  53.4765966
 123.7663959  67.5286918  50.0599366 123.0814997  67.9085819  49.5096400
 123.8507808  68.1382245  50.7931314 119.0676427  58.6308265  57.9817444
 118.8237359  59.3850325  57.4451720 119.3436358  59.0093612  58.8164691
 121.0214890  65.1746877  56.6594710 121.2331785  65.8178637  55.9829091
 120.9744638  64.3409194  56.1916640 118.6241119  57.7864698  53.5631282
 117.7625598  58.0845951  53.8548019 118.6503554  58.0035097  52.6312314
 115.4402689  66.3306888  49.9705088 115.9041034  66.6094591  49.1809710
 115.1759487  65.4290333  49.7878178 112.3326770  65.8778370  52.9084851
 112.9028127  66.3065638  52.2702335 112.9234882  65.5960954  53.6069036
 114.3771575  62.4530041  46.7794653 115.0795618  62.9051084  47.2468579
 114.0452203  61.8113859  47.4074546 112.8251936  61.0441797  61.1545862
 112.1950597  61.7258078  61.3881259 112.7188024  60.9324879  60.2099000
 108.1196909  60.7113593  52.0811786 107.3295963  60.9671122  51.6051897
 108.6108156  61.5261931  52.1863827 122.1360718  68.0518832  54.8317067
 122.9578162  67.6499020  54.5499749 122.1323121  67.9487067  55.7833183
 110.0711654  61.0758172  49.0395263 109.2742817  61.1876867  49.5578759
 109.8437246  61.4144825  48.1736153 106.4034612  60.9644084  54.5126777
 106.6542650  61.8491094  54.7784353 106.9394160  60.7848685  53.7401869
 130.2266711  64.3957581  51.1802039 129.4730420  63.8264979  51.0246043
 130.3614252  64.3620245  52.1272673 115.6165339  69.2670983  46.8556758
 115.4811014  70.1122519  47.2841606 116.1575152  69.4690261  46.0922692
 112.1032679  55.3462563  63.5171113 111.7099624  54.7928762  64.1918757
 112.9198819  55.6573142  63.9077631 109.0694737  66.7846421  47.4284683
 109.5819257  67.5789671  47.5790248 109.7217449  66.0872712  47.3618284
 110.8789621  69.9012178  49.5107436 111.0556250  70.8230142  49.3228420
 111.6746455  69.5870597  49.9401816 115.0200640  56.7620442  61.1091370
 115.7610353  57.3627595  61.0295832 115.2518563  56.0198080  60.5509412
 110.1641978  61.9476809  59.3869599 110.0495493  61.0462067  59.6876698
 109.3086496  62.1940506  59.0354416 112.0020937  71.4190351  55.5117778
 112.5528362  71.2907415  54.7394772 111.1632413  71.7185240  55.1612671
 115.7988108  67.6841479  59.8562010 116.3316445  66.9229767  59.6261318
 115.2702189  67.3915131  60.5986164 118.9657803  52.7901545  55.3855651
 118.6222072  53.6803187  55.3094762 119.3336765  52.6003203  54.5225236
 107.0343653  65.1135076  48.2044254 107.8718875  65.5232084  47.9877961
 107.2121921  64.1734518  48.1744447 118.9308086  62.7810156  43.8928086
 118.4154709  63.5514761  44.1316474 118.6585394  62.1075292  44.5161148
 116.5155197  57.6259857  48.9513325 115.6596793  57.2366707  48.7718964
 116.9282148  57.7051818  48.0913110 118.0454343  55.1606200  53.3504885
 117.5419139  55.1236335  52.5372690 118.3384950  56.0698943  53.4101541
 114.2897229  55.2444930  52.3571066 115.1550226  55.0487739  51.9976956
 114.3574738  55.0155282  53.2840423 123.9042360  65.5342511  45.8281260
 123.1271802  65.1953670  45.3836422 124.5833841  65.5395134  45.1536225
 118.7194389  60.6537248  45.7187868 118.4144524  60.9683397  46.5698011
 119.6724831  60.7318668  45.7615201 117.1640821  66.8127472  47.3680822
 116.6362182  66.0780231  47.0554059 116.6628323  67.5902148  47.1220790
 122.1433667  65.0076492  52.4847868 121.4857341  65.6975753  52.5727997
 122.9474066  65.3972924  52.8281854 111.8959548  57.4747138  49.7287433
 112.4703300  57.2522319  48.9960626 112.4830531  57.5435832  50.4816034
 120.9539125  63.3620865  50.5351810 121.4671007  63.9950857  51.0373519
 121.6040349  62.7622060  50.1695170 112.2229135  59.5051599  43.7483318
 111.3866448  59.8426285  44.0692593 112.0833905  59.3700579  42.8110455
 114.1982216  54.3488387  48.4562503 113.5446628  54.0337404  47.8319117
 114.1562690  53.7264127  49.1822326 115.3093421  64.6307682  40.3715795
 114.4020482  64.3996935  40.5706944 115.8064453  63.8345301  40.5589776
 118.2161500  73.3405189  43.2912481 117.5423198  73.6436886  43.8997439
 118.6027322  74.1434269  42.9417938 117.4319956  60.8370320  52.7810150
 116.5142518  61.0585267  52.6231838 117.8480100  60.9116631  51.9221858
 118.2155004  62.2361736  47.9112830 118.9626823  62.7483133  47.6019953
 118.4846594  61.9145789  48.7717224 116.4881654  64.7320277  44.8939785
 115.5792873  64.4479310  44.9912254 116.5176738  65.1519355  44.0343092
 121.7200922  68.3426866  48.6630952 121.2663249  67.5017776  48.7196143
 121.0894888  68.9788265  49.0005732 120.6633841  59.2718852  49.8931620
 119.9256598  58.7596238  50.2241862 120.9160615  58.8319234  49.0814897
 120.1633861  70.1803363  49.5980770 120.4556835  70.7408420  48.8793136
 120.6732481  70.4731924  50.3533930 120.7645468  52.0495104  50.4873389
 121.0704345  51.1892468  50.1999304 121.4898073  52.6412724  50.2872383
 107.0569825  62.4525791  48.8754987 106.8594224  61.8595152  48.1506054
 106.5016489  62.1478001  49.5930926 115.0366548  62.3448897  50.9949580
 115.0915158  61.3922734  50.9192057 114.2257750  62.5008336  51.4790879
 116.1857742  66.2729020  42.2327863 115.7477172  65.5564879  41.7733501
 116.9268183  66.5005135  41.6712955 112.9758908  60.9625957  48.7539959
 112.1626774  61.2620128  49.1605151 113.4717902  60.5681646  49.4714441
 118.5733120  61.4267782  57.5854853 118.9282508  61.6539255  58.4449319
 119.2205251  61.7586158  56.9632108 124.3030857  64.5486217  48.2904182
 124.1648755  64.7387813  47.3625371 123.9467076  65.3105600  48.7472233
 112.4672983  58.5344313  54.3701194 113.1072362  58.3933072  53.6724157
 111.6350513  58.2478826  53.9939796 124.3300236  66.6162744  53.3015453
 124.7636743  66.5238034  54.1498507 125.0431817  66.5920245  52.6635469
 113.2433287  67.8346743  50.4836186 114.0373885  67.3397063  50.2818761
 112.5324979  67.3064606  50.1203892 109.5516050  61.9789825  46.5595939
 108.6213638  61.9174280  46.7765901 109.6473522  61.4565778  45.7632580
 109.4701599  58.5044638  49.1474181 109.7308417  59.4189971  49.0383341
 110.2918772  58.0369080  49.2970794 110.9426525  59.9182395  56.3173005
 111.6149578  59.7099757  55.6685654 110.1156311  59.7204481  55.8778238
 125.1915786  66.6586445  55.8348339 125.3851676  67.5632256  56.0807614
 125.0916404  66.1993864  56.6686924 116.8452097  56.5444336  58.3338666
 116.1980012  57.2434285  58.2403143 117.6153112  56.9780480  58.7014914
 120.2530895  66.8093188  61.4089219 120.1016401  66.5803740  60.4919303
 120.2435574  67.7663789  61.4220564 117.0216231  64.3825101  56.3935486
 117.9508291  64.5336260  56.2204453 116.6007261  64.4709121  55.5384132
 115.8204563  68.4075765  54.1634023 115.6815649  68.0394549  55.0359962
 115.0319159  68.9223404  53.9917981 116.4152715  73.5084861  45.5059560
 116.5904470  73.0372905  46.3205183 115.7285503  74.1350628  45.7340821
 117.3709778  67.7857368  51.5522861 117.0359611  67.7458138  52.4480511
 116.8713724  67.1202084  51.0793271 111.3454022  63.1924998  57.0775442
 111.2073820  62.4605237  57.6786981 112.2558945  63.1033898  56.7959630
 120.3068970  65.1313402  41.8259921 119.6898140  64.4060230  41.7292974
 119.8385458  65.8922762  41.4826995 113.9736323  62.9044957  56.5659122
 114.6835941  62.2638149  56.5245740 113.9305631  63.1557852  57.4885303
 121.9623101  69.8412310  59.4865701 121.9035647  69.1571531  58.8196284
 122.3642620  70.5831300  59.0346327 112.6865257  59.8910175  58.3854762
 112.1502614  59.4400913  59.0376358 112.0981965  60.0256084  57.6425226
 112.0967516  59.3498826  40.9481225 111.2196982  59.2287627  40.5843472
 112.5725269  58.5584905  40.6960114 121.9640509  67.8051894  57.7179681
 121.0767287  67.4677816  57.8406080 122.5339060  67.0734926  57.9548446
 103.6169656  64.1375986  51.0422732 104.3040695  63.8237716  50.4543748
 103.4617784  65.0417351  50.7689984 108.4204378  59.0266183  55.4707756
 108.3362567  58.4191852  54.7358166 107.5987084  59.5175201  55.4717252
 118.5928092  57.5119746  50.8377951 119.0896791  56.7589708  50.5179021
 117.8215073  57.5484063  50.2721160 126.4457849  63.2160112  52.4796243
 126.4347725  64.0984827  52.1090176 125.5775229  62.8631663  52.2850780
 119.6757872  66.2691433  48.4116374 118.7414151  66.3892896  48.2421079
 119.8534541  65.3663900  48.1476384 115.1763060  59.6537129  50.5649636
 114.8060848  59.1008170  51.2530541 115.6722153  59.0495263  50.0124636
 123.0630424  62.1108753  48.9466409 123.5290876  62.9436744  48.8726711
 123.5137924  61.6453734  49.6511667 113.0052259  70.1134624  57.6604654
 113.7061718  70.7471107  57.8134048 112.5347374  70.4549356  56.9000293
 121.1306655  68.4552574  45.9452561 121.4066499  68.3409169  46.8546435
 120.2611154  68.0570059  45.9064734 121.0347086  54.4789340  52.9857310
 120.1210166  54.7093566  53.1539517 121.4640188  54.5627784  53.8371342
 120.8053545  62.6679232  55.4857204 120.1524995  62.9155139  54.8309657
 121.1833925  61.8543370  55.1519681 118.1002884  71.6307110  46.8500423
 118.6290651  71.1199565  46.2370585 118.3631104  71.3149640  47.7145956
 116.8541118  63.4099043  61.9723241 116.1781755  63.3093172  62.6425616
 117.6768752  63.2538256  62.4359238 108.6019977  69.6470979  54.5935756
 109.1873414  68.9014667  54.7263661 108.4044816  69.9574936  55.4772420
 103.1937632  62.2176579  53.3140199 103.2321731  61.6840170  54.1077318
 102.6877925  61.6911785  52.6951177 110.5728394  57.0641120  56.8102742
 110.6369721  57.9255951  56.3980139 110.5095514  56.4515122  56.0775100
 110.0480667  59.1364252  60.4575776 110.6752705  58.7541330  61.0713300
 109.1908585  58.9178454  60.8231469 120.4474775  69.5427228  62.0629511
 120.9914679  70.1557186  61.5684466 119.8661620  70.1006806  62.5796524
 106.8246209  60.9440682  46.3894131 107.1199650  60.0351360  46.3361185
 105.9234245  60.9228421  46.0675133 110.3540456  59.0196678  52.3721679
 109.6327042  59.6332646  52.2329153 111.1433712  59.5554443  52.2938325
 113.1566770  56.3551105  58.6462331 113.6801172  56.6013401  59.4088641
 112.9379103  57.1871139  58.2265469 108.5534051  58.6254779  46.5133456
 108.2246757  57.7452158  46.3308562 108.9073422  58.5702448  47.4009845
 111.6675874  58.9127749  46.8808934 112.0071947  59.4413670  46.1587542
 112.1147995  59.2508155  47.6567500 121.4047752  71.0838241  52.1093314
 122.3294299  70.8781102  51.9717765 121.2363055  70.8354642  53.0182656
 114.3619315  57.2964800  56.3312002 114.0216135  56.4972613  56.7332682
 113.6558321  57.5966511  55.7588835 115.0135787  54.3814112  54.7839325
 115.8361856  53.9074590  54.6618215 115.2573850  55.1604596  55.2838011
 113.6544021  57.4102371  45.0802226 114.3752384  57.7883623  44.5765943
 113.0309325  58.1291247  45.1837204 117.7975144  58.1147520  46.0160559
 118.0138759  58.9972157  45.7149387 117.3169211  57.7233733  45.2866201
 112.5374366  61.0733233  52.5931303 112.3918946  61.3873536  53.4855585
 112.0599569  61.6918133  52.0402202 114.3970748  58.0635781  52.6412193
 114.3832317  57.1676874  52.3044491 115.1143177  58.0706445  53.2750479
 116.2496879  58.4973121  54.6865320 115.9914657  59.4190192  54.6849651
 115.7181919  58.1003556  55.3765784 121.1943068  71.6023908  47.4655406
 121.3679945  71.0370331  46.7129258 121.6871959  72.4024803  47.2834896
 107.0120028  63.6138577  55.5318965 106.4673496  64.3898385  55.6639239
 107.8899378  63.9609382  55.3738086 113.8007644  56.9450161  47.9099763
 113.9223556  56.0166807  48.1090651 113.5109687  56.9588847  46.9978078
 116.6698835  54.6305072  51.0466483 116.6920532  54.6944405  50.0918462
 117.0866894  53.7909580  51.2406989 127.0482459  64.3660331  49.0845705
 127.4913605  63.6167656  48.6864829 126.1708969  64.3570467  48.7019437
 122.1818240  70.9190673  44.5652304 122.8769145  71.5397365  44.7839619
 122.5241391  70.0686024  44.8404682 107.7986050  62.7408473  58.4249121
 107.0567786  62.8891109  59.0113752 107.4778794  63.0016739  57.5615871
 124.0809663  68.3690378  46.0939635 124.6060988  68.7077651  45.3688955
 123.9932016  67.4337393  45.9102769 108.2442663  70.6273902  50.4559516
 109.0700683  70.3277674  50.0758160 107.8936715  69.8581525  50.9049305
 106.4451268  68.5460229  51.4148450 105.6083177  68.1182403  51.2332451
 106.4174914  68.7392672  52.3519241 113.2848724  58.4582158  62.1189696
 113.3336879  59.3344281  61.7367465 113.8271238  57.9159552  61.5461339
 123.7703570  69.0023282  61.3990833 122.9799113  68.9847421  60.8595332
 123.5336924  69.5411575  62.1539869 123.8901445  65.8515748  58.7123561
 123.9399450  65.6865756  59.6539084 123.7815368  64.9843007  58.3221442
 112.7737703  68.5304294  46.0015650 112.9225824  69.2139758  45.3482323
 113.5804147  68.5109384  46.5165106 121.1805207  61.8346676  60.0282868
 122.0815070  61.6953141  59.7366866 121.2553181  62.0001131  60.9681045
 115.5148012  59.2113531  58.8736054 114.6451322  59.5047097  58.6018643
 115.7507493  59.7953976  59.5943318 125.3919641  68.2712690  58.9565583
 125.1004450  68.6342670  59.7929044 124.7791773  67.5579698  58.7778915
 126.5915324  65.8365569  51.4768153 127.4262215  66.2755373  51.6405713
 126.7274453  65.3604223  50.6576399 123.6406830  63.3945304  57.4245641
 124.1160951  63.5872951  56.6164492 122.7172395  63.4504490  57.1789024
 110.5290336  64.5569471  47.0076719 110.2836378  63.6531801  47.2056929
 110.6986251  64.5586622  46.0656197 118.2187046  55.4293148  56.3901475
 118.7368990  56.1654175  56.0647963 117.8642179  55.7357141  57.2248234
 109.7985984  60.2897829  44.5062881 109.1055229  60.3642184  43.8502917
 109.5537736  59.5258173  45.0284397 118.4699640  51.8493430  51.9102371
 118.7501394  51.1816619  52.5362798 119.2550247  52.0422526  51.3977035
 116.2733109  71.0252424  43.4727398 115.7007076  71.6442611  43.0197869
 116.8465902  71.5751786  44.0067320 122.3408499  60.2711064  55.6573946
 123.2925922  60.3709162  55.6786170 122.1711949  59.4789333  56.1672031
 120.3622878  57.3566648  55.8433347 119.7672810  57.6371660  55.1479836
 120.0772575  57.8460548  56.6150088 119.4930369  71.3089574  44.6035980
 120.4261042  71.2435136  44.8068855 119.4053581  72.1445841  44.1450513
 122.1218385  70.6255445  41.5639927 122.0432017  70.2915308  42.4575685
 122.9428052  71.1177213  41.5631400 124.8196576  63.4917184  54.7716246
 124.7872897  62.5533185  54.9575930 125.4297200  63.5701221  54.0382071
 116.6579907  62.3613237  40.8143450 117.6039012  62.2319445  40.8831868
 116.2794152  61.6227899  41.2912878 124.9691065  60.2828227  54.8174529
 124.4530114  59.4986684  54.6304458 125.8531013  59.9546944  54.9821049
 122.6301792  54.0269243  50.7770342 122.4326613  53.7184331  51.6613674
 123.2401497  54.7530882  50.9068272 130.6373126  64.5533191  53.9122283
 131.3676515  64.2918479  54.4729986 130.0280072  63.8161913  53.9524351
 128.7188423  62.6941053  54.5096734 127.9921587  62.5597018  53.9013226
 128.3035710  63.0017882  55.3153452 116.5418600  66.4130983  62.2744107
 117.4621609  66.5909582  62.4684154 116.5068183  65.4687028  62.1223806
 114.8422824  60.2863213  40.7498335 113.9354280  59.9896326  40.8261049
 115.1198805  59.9893031  39.8832622 105.7600765  61.6069577  51.1997382
 105.4403549  60.7534885  50.9071756 105.2134193  61.8218155  51.9555349
 109.5380672  64.3232018  54.9166888 109.7566682  65.2549126  54.9354922
 109.9506446  63.9639992  55.7021692 116.4584890  54.8300103  46.9042577
 115.6485619  54.4847188  47.2797823 117.1469307  54.5207647  47.4930188
 118.3875438  53.9078150  48.5266873 118.9406477  54.3273603  49.1856896
 118.6245525  52.9813898  48.5689829 114.4108538  59.8965224  64.3069637
 114.3105265  60.8459580  64.2381728 114.1930080  59.5683462  63.4345707
 113.6121609  57.1450149  40.8910315 114.4740773  57.4705047  41.1506132
 113.7971953  56.3581644  40.3783380 105.6289025  65.2272488  53.1690503
 104.9352496  64.8126441  52.6560458 106.3762016  65.2693025  52.5723922
 121.7654246  56.0178675  48.0345538 121.1852915  56.6763479  47.6523590
 121.4990178  55.1956020  47.6232955 120.2157812  55.4183733  50.2366858
 120.7157590  55.5300267  49.4281177 120.8593420  55.1144786  50.8767666
 114.2739808  63.3262362  63.1234699 113.7906889  64.1262722  63.3298588
 114.3600747  63.3370307  62.1702143 107.5425767  65.1590742  51.0456518
 107.5196455  65.2578429  50.0938401 107.8526404  66.0055893  51.3673684
 110.2013145  67.2166897  55.1603133 111.1556399  67.1850839  55.0933064
 110.0025669  66.7557521  55.9753359 110.7912527  65.7868013  57.7273930
 111.6105416  66.2812092  57.7508768 111.0649335  64.8699981  57.6991498
 120.5479124  58.1778765  47.0901886 119.6604979  58.4628416  46.8722081
 120.9633113  58.0172529  46.2429163 123.8993660  58.2025286  50.8056225
 124.6754050  58.6921739  51.0780842 123.1741794  58.6283341  51.2628095
 126.3366218  58.9152906  51.8630166 126.9310709  58.6748642  51.1523474
 126.4092802  58.1960036  52.4903702 108.5563374  72.7586517  52.1773330
 108.4217842  71.9986917  51.6111329 108.1395436  73.4827416  51.7102119
 119.6922337  67.9423440  41.1849906 120.3958187  68.1473443  41.8007561
 118.9684986  68.5100202  41.4498989 120.5220147  63.6933301  47.3052176
 120.4655349  64.1501853  46.4659808 121.0748490  62.9323986  47.1275019
 124.3324953  59.4823033  48.1302295 124.0761887  59.0819669  48.9610503
 123.7077821  60.1966827  48.0052435 128.6437291  62.2219106  50.6373587
 128.0836849  62.2912296  51.4105149 128.0380794  62.0460091  49.9173083
 121.6009034  68.3805969  43.2348366 122.4354638  67.9487168  43.0525841
 121.4393377  68.2087983  44.1625260 121.2554927  64.8838083  44.6004705
 121.2003730  64.7182354  43.6593149 120.6300982  65.5914116  44.7566895
 106.0447442  60.1206147  58.4266127 106.6906305  59.6105101  58.9153353
 105.8364593  60.8574829  59.0009553 118.5700834  67.1886994  63.9258268
 119.4391993  67.3627647  63.5644903 118.0907585  68.0081411  63.8033997
 114.5651052  54.3846192  44.1790024 114.5529722  55.3288032  44.3358294
 115.4574474  54.2016337  43.8849485 118.3803172  50.9788968  48.4335960
 117.6135567  50.4247455  48.5792643 118.7913877  51.0510837  49.2950112
 110.3844933  57.2673764  62.5241142 111.2476394  56.9110569  62.7344466
 109.8110343  56.9287659  63.2116546 130.2293310  78.8975620  53.3303543
 130.8671720  78.7782368  52.6266883 130.1114152  79.8456464  53.3891495
 127.0383016  78.8503049  53.2665067 126.7001527  78.7344113  52.3785602
 127.9072784  78.4494214  53.2466073 122.8969832  80.7038525  49.2561958
 122.3334697  80.6128462  48.4878246 122.7822227  79.8838429  49.7364451
 127.5202799  80.0037900  59.2251273 127.5091440  79.6090699  58.3531776
 127.6823438  79.2703973  59.8185044 120.4434263  82.1989717  52.0946179
 121.2355555  81.8580541  51.6792478 120.6830914  82.3084692  53.0148332
 128.4769390  84.3709493  44.5676423 127.8257370  84.9563573  44.1810437
 129.2713753  84.9015688  44.6271461 122.4025017  81.4598630  44.9663557
 123.1755893  80.9127617  44.8276433 122.7550416  82.3242879  45.1778019
 124.2410060  82.7875012  58.1730457 123.9499926  83.6920643  58.0577123
 124.8767044  82.8291540  58.8874526 125.1666267  80.1651861  54.7631816
 125.7629839  79.9407883  54.0488779 125.2241238  79.4236606  55.3657264
 124.7391295  77.6191296  42.5982007 124.9916816  77.0972817  41.8365470
 123.8015854  77.4557441  42.7008691 129.7834578  76.6227074  50.4056751
 130.5697667  76.2046497  50.0547168 130.0473282  77.5273166  50.5738399
 129.9544655  82.0599925  45.1045407 129.3190488  82.1334551  45.8166312
 129.6242062  82.6493523  44.4264487 135.1843005  76.5602307  51.3089729
 135.9168177  75.9901524  51.5427559 134.4282361  76.1723908  51.7496235
 124.4587584  79.5219402  44.8006382 124.3423842  78.8464305  45.4687467
 124.5689844  79.0351776  43.9838535 126.8019125  78.9829549  48.5053072
 126.4377332  78.4560170  49.2165993 127.6586241  78.5928018  48.3319557
 132.7068426  70.2723882  55.7684338 132.3751750  71.1419293  55.5445553
 132.1114039  69.9560166  56.4478368 126.4424612  74.0119449  43.5014420
 126.6099014  74.8799685  43.8684891 126.2521781  74.1746730  42.5775709
 129.1999945  82.4736428  55.1680250 128.9000668  83.3761466  55.0596058
 128.8551005  82.2068611  56.0201403 122.6512427  78.9250224  51.2016955
 121.7262923  78.7926439  51.4094647 122.8996840  79.7044444  51.6986897
 132.5997089  74.9918968  52.8477688 131.6913966  74.9234376  52.5536449
 132.5484685  75.4690913  53.6759513 126.4213833  76.4677106  44.4861087
 126.3013458  76.9134157  45.3246567 125.7266421  76.8162424  43.9274625
 120.0121238  78.5683498  52.0360744 120.1413619  78.8217977  52.9500156
 119.3318689  79.1611206  51.7165399 124.1820725  89.2380748  48.1351218
 124.1044755  90.1888573  48.2139699 123.5782368  88.8926620  48.7926144
 126.6737955  76.4108613  60.7912585 125.8971289  76.9702533  60.7815450
 127.3128518  76.8965396  61.3127455 134.4658735  73.1935406  54.6255562
 133.8233115  73.4867939  53.9795356 133.9613664  73.0788326  55.4308758
 132.1198899  76.9398579  45.3141421 133.0316755  77.1725966  45.1389119
 131.6108546  77.5235624  44.7516500 124.9284327  79.2194067  60.3530552
 125.6699011  79.7579111  60.0765376 124.2221312  79.8460355  60.5102104
 130.4039667  81.3623207  58.9502714 130.8123023  80.9205618  58.2057346
 129.6816928  80.7875835  59.2036906 126.7570737  76.2995814  56.3236270
 127.6031932  76.7235227  56.4670919 126.6969374  75.6429438  57.0174834
 130.7268481  81.9224398  52.7055002 130.0977344  82.0870112  52.0031070
 130.3394143  82.3366007  53.4765966 134.6057713  82.8578836  50.0599366
 133.9208751  83.2377737  49.5096400 134.6901562  83.4674162  50.7931314
 129.9070182  73.9600182  57.9817444 129.6631114  74.7142243  57.4451720
 130.1830112  74.3385530  58.8164691 131.8608645  80.5038795  56.6594710
 132.0725540  81.1470555  55.9829091 131.8138393  79.6701111  56.1916640
 129.4634874  73.1156615  53.5631282 128.6019353  73.4137869  53.8548019
 129.4897308  73.3327014  52.6312314 126.2796443  81.6598806  49.9705088
 126.7434789  81.9386509  49.1809710 126.0153241  80.7582250  49.7878178
 123.1720524  81.2070287  52.9084851 123.7421881  81.6357556  52.2702335
 123.7628636  80.9252872  53.6069036 125.2165329  77.7821958  46.7794653
 125.9189372  78.2343002  47.2468579 124.8845958  77.1405777  47.4074546
 132.9754473  83.3810750  54.8317067 133.7971916  82.9790937  54.5499749
 132.9716876  83.2778984  55.7833183 120.9105408  76.4050090  49.0395263
 120.1136572  76.5168784  49.5578759 120.6831001  76.7436742  48.1736153
 126.7411076  82.9294793  56.9877778 126.8055509  83.3915201  57.8235949
 126.0322000  82.2992158  57.1160087 141.0660466  79.7249499  51.1802039
 140.3124174  79.1556897  51.0246043 141.2008007  79.6912163  52.1272673
 126.4559094  84.5962901  46.8556758 126.3204769  85.4414437  47.2841606
 126.9968906  84.7982179  46.0922692 122.9426433  70.6754481  63.5171113
 122.5493379  70.1220679  64.1918757 123.7592574  70.9865059  63.9077631
 119.9088491  82.1138339  47.4284683 120.4213012  82.9081589  47.5790248
 120.5611204  81.4164629  47.3618284 121.7183376  85.2304095  49.5107436
 121.8950004  86.1522060  49.3228420 122.5140209  84.9162514  49.9401816
 125.8594394  72.0912360  61.1091370 126.6004108  72.6919513  61.0295832
 126.0912317  71.3489998  60.5509412 128.0827570  85.2186467  60.9857100
 127.6391424  84.4322846  60.6678004 128.7444784  85.4065618  60.3200991
 122.8414691  86.7482269  55.5117778 123.3922116  86.6199332  54.7394772
 122.0026167  87.0477158  55.1612671 130.1808808  85.4989267  59.0138501
 130.1627284  86.3198148  58.5218770 131.1028728  85.3743343  59.2388642
 126.6381862  83.0133397  59.8562010 127.1710199  82.2521685  59.6261318
 126.1095943  82.7207049  60.5986164 129.8051557  68.1193463  55.3855651
 129.4615827  69.0095104  55.3094762 130.1730520  67.9295120  54.5225236
 117.8737408  80.4426993  48.2044254 118.7112630  80.8524002  47.9877961
 118.0515676  79.5026435  48.1744447 129.7701840  78.1102074  43.8928086
 129.2548463  78.8806678  44.1316474 129.4979148  77.4367210  44.5161148
 127.3548951  72.9551775  48.9513325 126.4990547  72.5658625  48.7718964
 127.7675903  73.0343735  48.0913110 128.8848098  70.4898118  53.3504885
 128.3812893  70.4528253  52.5372690 129.1778705  71.3990861  53.4101541
 125.1290984  70.5736848  52.3571066 125.9943980  70.3779656  51.9976956
 125.1968493  70.3447199  53.2840423 134.7436114  80.8634429  45.8281260
 133.9665557  80.5245588  45.3836422 135.4227595  80.8687052  45.1536225
 129.5588143  75.9829166  45.7187868 129.2538279  76.2975315  46.5698011
 130.5118585  76.0610586  45.7615201 128.0034575  82.1419389  47.3680822
 127.4755937  81.4072149  47.0554059 127.5022078  82.9194066  47.1220790
 132.9827421  80.3368410  52.4847868 132.3251096  81.0267671  52.5727997
 133.7867820  80.7264842  52.8281854 122.7353303  72.8039056  49.7287433
 123.3097055  72.5814237  48.9960626 123.3224285  72.8727750  50.4816034
 131.7932880  78.6912782  50.5351810 132.3064762  79.3242774  51.0373519
 132.4434104  78.0913978  50.1695170 123.0622890  74.8343517  43.7483318
 122.2260202  75.1718203  44.0692593 122.9227659  74.6992496  42.8110455
 125.0375970  69.6780304  48.4562503 124.3840383  69.3629322  47.8319117
 124.9956445  69.0556045  49.1822326 126.1487175  79.9599600  40.3715795
 125.2414237  79.7288853  40.5706944 126.6458207  79.1637219  40.5589776
 129.0555254  88.6697107  43.2912481 128.3816953  88.9728803  43.8997439
 129.4421076  89.4726187  42.9417938 128.2713711  76.1662238  52.7810150
 127.3536272  76.3877185  52.6231838 128.6873854  76.2408548  51.9221858
 129.0548759  77.5653654  47.9112830 129.8020577  78.0775051  47.6019953
 129.3240348  77.2437706  48.7717224 127.3275409  80.0612194  44.8939785
 126.4186628  79.7771227  44.9912254 127.3570492  80.4811273  44.0343092
 132.5594676  83.6718784  48.6630952 132.1057003  82.8309694  48.7196143
 131.9288643  84.3080182  49.0005732 131.5027596  74.6010770  49.8931620
 130.7650352  74.0888156  50.2241862 131.7554369  74.1611152  49.0814897
 131.0027615  85.5095281  49.5980770 131.2950590  86.0700338  48.8793136
 131.5126236  85.8023842  50.3533930 131.6039223  67.3787022  50.4873389
 131.9098100  66.5184385  50.1999304 132.3291828  67.9704642  50.2872383
 117.8963579  77.7817709  48.8754987 117.6987979  77.1887069  48.1506054
 117.3410243  77.4769919  49.5930926 125.8760303  77.6740815  50.9949580
 125.9308913  76.7214651  50.9192057 125.0651505  77.8300254  51.4790879
 127.0251496  81.6020938  42.2327863 126.5870926  80.8856797  41.7733501
 127.7661937  81.8297053  41.6712955 123.8152663  76.2917875  48.7539959
 123.0020528  76.5912045  49.1605151 124.3111657  75.8973564  49.4714441
 125.9661241  86.2875632  50.6874224 125.9237419  86.5136478  49.7582756
 126.8823939  86.0539006  50.8360025 129.4126874  76.7559699  57.5854853
 129.7676262  76.9831172  58.4449319 130.0599006  77.0878076  56.9632108
 135.1424611  79.8778135  48.2904182 135.0042510  80.0679731  47.3625371
 134.7860830  80.6397518  48.7472233 123.3066737  73.8636230  54.3701194
 123.9466117  73.7224989  53.6724157 122.4744268  73.5770744  53.9939796
 135.1693991  81.9454662  53.3015453 135.6030498  81.8529951  54.1498507
 135.8825572  81.9212163  52.6635469 124.0827041  83.1638661  50.4836186
 124.8767640  82.6688981  50.2818761 123.3718734  82.6356524  50.1203892
 128.9021886  85.5456756  54.8348554 128.9558908  86.1147693  55.6026270
 128.0336667  85.7158641  54.4702591 120.3909805  77.3081742  46.5595939
 119.4607393  77.2466198  46.7765901 120.4867277  76.7857695  45.7632580
 120.3095354  73.8336555  49.1474181 120.5702171  74.7481889  49.0383341
 121.1312526  73.3660998  49.2970794 121.7820279  75.2474312  56.3173005
 122.4543333  75.0391675  55.6685654 120.9550066  75.0496398  55.8778238
 136.0309540  81.9878363  55.8348339 136.2245431  82.8924173  56.0807614
 135.9310159  81.5285782  56.6686924 127.6845851  71.8736253  58.3338666
 127.0373766  72.5726203  58.2403143 128.4546867  72.3072397  58.7014914
 131.0924649  82.1385106  61.4089219 130.9410156  81.9095657  60.4919303
 131.0829329  83.0955707  61.4220564 127.8609986  79.7117018  56.3935486
 128.7902046  79.8628178  56.2204453 127.4401016  79.8001039  55.5384132
 126.6598317  83.7367683  54.1634023 126.5209403  83.3686467  55.0359962
 125.8712914  84.2515322  53.9917981 127.2546469  88.8376779  45.5059560
 127.4298225  88.3664822  46.3205183 126.5679257  89.4642545  45.7340821
 128.2103532  83.1149285  51.5522861 127.8753365  83.0750055  52.4480511
 127.7107478  82.4494001  51.0793271 122.1847776  78.5216915  57.0775442
 122.0467574  77.7897154  57.6786981 123.0952700  78.4325816  56.7959630
 131.1462724  80.4605320  41.8259921 130.5291895  79.7352148  41.7292974
 130.6779213  81.2214680  41.4826995 124.8130077  78.2336875  56.5659122
 125.5229696  77.5930067  56.5245740 124.7699385  78.4849770  57.4885303
 132.8016856  85.1704228  59.4865701 132.7429402  84.4863448  58.8196284
 133.2036374  85.9123218  59.0346327 123.5259011  75.2202093  58.3854762
 122.9896368  74.7692831  59.0376358 122.9375720  75.3548001  57.6425226
 121.8207555  91.9866142  52.2799420 122.0604153  92.6184666  52.9578439
 120.9776751  91.6354182  52.5664779 122.9361270  74.6790744  40.9481225
 122.0590736  74.5579545  40.5843472 123.4119023  73.8876822  40.6960114
 132.8034263  83.1343812  57.7179681 131.9161042  82.7969734  57.8406080
 133.3732814  82.4026843  57.9548446 126.3335416  87.7945264  54.6840924
 126.2605588  88.6000236  55.1960229 125.8912810  87.9937230  53.8588946
 126.1225196  87.0317034  48.1943746 125.3392718  87.5738715  48.2881970
 126.8217941  87.5491014  48.5937987 129.4321846  72.8411664  50.8377951
 129.9290546  72.0881626  50.5179021 128.6608828  72.8775980  50.2721160
 137.2851604  78.5452029  52.4796243 137.2741480  79.4276745  52.1090176
 136.4168983  78.1923580  52.2850780 128.7934100  87.6932098  56.8399083
 129.5062072  88.3279563  56.7674984 128.3024129  87.7895964  56.0239085
 130.5151627  81.5983351  48.4116374 129.5807906  81.7184814  48.2421079
 130.6928295  80.6955818  48.1476384 126.0156815  74.9829047  50.5649636
 125.6454602  74.4300087  51.2530541 126.5115907  74.3787180  50.0124636
 133.9024178  77.4400670  48.9466409 134.3684630  78.2728662  48.8726711
 134.3531679  76.9745652  49.6511667 123.8446013  85.4426542  57.6604654
 124.5455473  86.0763025  57.8134048 123.3741128  85.7841273  56.9000293
 131.9700409  83.7844492  45.9452561 132.2460253  83.6701086  46.8546435
 131.1004908  83.3861976  45.9064734 131.8740841  69.8081257  52.9857310
 130.9603921  70.0385484  53.1539517 132.3033942  69.8919701  53.8371342
 131.6447299  77.9971149  55.4857204 130.9918750  78.2447057  54.8309657
 132.0227679  77.1835287  55.1519681 128.6054473  88.0330842  49.5885374
 128.7876868  87.2152498  50.0513127 129.4287459  88.2498535  49.1510264
 128.9396639  86.9599028  46.8500423 129.4684405  86.4491482  46.2370585
 129.2024858  86.6441558  47.7145956 127.6934872  78.7390960  61.9723241
 127.0175509  78.6385090  62.6425616 128.5162506  78.5830174  62.4359238
 119.4413732  84.9762897  54.5935756 120.0267168  84.2306585  54.7263661
 119.2438570  85.2866854  55.4772420 122.2952387  88.0114144  49.6098199
 121.6262762  88.4960272  49.1262239 122.1565256  88.2583365  50.5241577
 126.4357655  90.0457888  56.2080857 126.9875963  90.2089509  56.9729942
 126.7763849  90.6362326  55.5360882 131.2868530  84.8719145  62.0629511
 131.8308434  85.4849104  61.5684466 130.7055375  85.4298724  62.5796524
 117.6639964  76.2732599  46.3894131 117.9593405  75.3643278  46.3361185
 116.7628000  76.2520339  46.0675133 129.5726043  87.9939863  53.1944539
 129.4477182  87.1929603  52.6855485 130.2305134  88.4886057  52.7058509
 121.1934211  74.3488596  52.3721679 120.4720797  74.9624564  52.2329153
 121.9827467  74.8846361  52.2938325 131.6360951  85.7948883  54.8224089
 130.6891287  85.6754235  54.7502416 131.9843724  84.9071381  54.9050351
 123.9960524  71.6843022  58.6462331 124.5194926  71.9305319  59.4088641
 123.7772858  72.5163057  58.2265469 119.3927805  73.9546697  46.5133456
 119.0640512  73.0744076  46.3308562 119.7467176  73.8994366  47.4009845
 128.6407384  85.5901600  51.0228442 128.4932347  84.6618307  51.2036012
 129.4660878  85.6121690  50.5385517 122.5069629  74.2419667  46.8808934
 122.8465701  74.7705588  46.1587542 122.9541749  74.5800073  47.6567500
 132.2441506  86.4130158  52.1093314 133.1688054  86.2073020  51.9717765
 132.0756810  86.1646560  53.0182656 125.2013069  72.6256717  56.3312002
 124.8609890  71.8264531  56.7332682 124.4952076  72.9258428  55.7588835
 125.8529541  69.7106030  54.7839325 126.6755611  69.2366508  54.6618215
 126.0967605  70.4896514  55.2838011 124.4937776  72.7394288  45.0802226
 125.2146138  73.1175541  44.5765943 123.8703080  73.4583165  45.1837204
 128.6368899  73.4439437  46.0160559 128.8532513  74.3264075  45.7149387
 128.1562966  73.0525651  45.2866201 123.3768120  76.4025151  52.5931303
 123.2312701  76.7165454  53.4855585 122.8993324  77.0210051  52.0402202
 125.2364503  73.3927698  52.6412193 125.2226072  72.4968792  52.3044491
 125.9536931  73.3998362  53.2750479 127.0890634  73.8265039  54.6865320
 126.8308411  74.7482109  54.6849651 126.5575674  73.4295473  55.3765784
 132.0336822  86.9315826  47.4655406 132.2073700  86.3662248  46.7129258
 132.5265714  87.7316721  47.2834896 124.6401399  72.2742079  47.9099763
 124.7617310  71.3458725  48.1090651 124.3503441  72.2880765  46.9978078
 127.5092589  69.9596989  51.0466483 127.5314286  70.0236322  50.0918462
 127.9260648  69.1201498  51.2406989 137.8876214  79.6952249  49.0845705
 138.3307360  78.9459574  48.6864829 137.0102724  79.6862385  48.7019437
 133.0211995  86.2482590  44.5652304 133.7162899  86.8689283  44.7839619
 133.3635145  85.3977941  44.8404682 134.9203418  83.6982296  46.0939635
 135.4454742  84.0369569  45.3688955 134.8325771  82.7629311  45.9102769
 126.5823467  87.6116369  58.2229511 126.8910593  87.3665516  59.0952211
 127.3798949  87.8163008  57.7348382 126.6044079  89.7654279  50.4534888
 126.1649069  89.2730658  51.1467745 127.3552196  89.2227247  50.2126963
 119.0836418  85.9565820  50.4559516 119.9094438  85.6569592  50.0758160
 118.7330470  85.1873442  50.9049305 124.0517951  85.3092288  52.5257190
 123.4297960  84.6462993  52.2259418 124.7222818  85.3353420  51.8430837
 117.2845023  83.8752146  51.4148450 116.4476931  83.4474321  51.2332451
 117.2568668  84.0684590  52.3519241 124.1242478  73.7874076  62.1189696
 124.1730634  74.6636199  61.7367465 124.6664993  73.2451469  61.5461339
 134.6097324  84.3315199  61.3990833 133.8192868  84.3139338  60.8595332
 134.3730679  84.8703493  62.1539869 134.7295199  81.1807666  58.7123561
 134.7793204  81.0157673  59.6539084 134.6209122  80.3134925  58.3221442
 123.6131458  83.8596211  46.0015650 123.7619578  84.5431676  45.3482323
 124.4197901  83.8401302  46.5165106 132.0198961  77.1638594  60.0282868
 132.9208824  77.0245059  59.7366866 132.0946936  77.3293049  60.9681045
 126.3541767  74.5405449  58.8736054 125.4845076  74.8339015  58.6018643
 126.5901247  75.1245894  59.5943318 136.2313396  83.6004607  58.9565583
 135.9398204  83.9634588  59.7929044 135.6185527  82.8871616  58.7778915
 137.4309078  81.1657487  51.4768153 138.2655970  81.6047291  51.6405713
 137.5668207  80.6896140  50.6576399 134.4800584  78.7237222  57.4245641
 134.9554706  78.9164868  56.6164492 133.5566150  78.7796408  57.1789024
 121.3684091  79.8861389  47.0076719 121.1230133  78.9823719  47.2056929
 121.5380005  79.8878540  46.0656197 129.0580801  70.7585065  56.3901475
 129.5762745  71.4946092  56.0647963 128.7035933  71.0649059  57.2248234
 120.6379738  75.6189747  44.5062881 119.9448983  75.6934102  43.8502917
 120.3931490  74.8550090  45.0284397 129.3093395  67.1785348  51.9102371
 129.5895149  66.5108537  52.5362798 130.0944002  67.3714444  51.3977035
 127.1126863  86.3544342  43.4727398 126.5400830  86.9734529  43.0197869
 127.6859657  86.9043704  44.0067320 133.1802253  75.6002982  55.6573946
 134.1319676  75.7001080  55.6786170 133.0105704  74.8081251  56.1672031
 131.2016633  72.6858565  55.8433347 130.6066565  72.9663578  55.1479836
 130.9166329  73.1752466  56.6150088 130.3324123  86.6381492  44.6035980
 131.2654796  86.5727054  44.8068855 130.2447336  87.4737759  44.1450513
 132.9612140  85.9547362  41.5639927 132.8825771  85.6207226  42.4575685
 133.7821807  86.4469130  41.5631400 135.6590331  78.8209102  54.7716246
 135.6266651  77.8825102  54.9575930 136.2690955  78.8993138  54.0382071
 127.4973662  77.6905155  40.8143450 128.4432767  77.5611363  40.8831868
 127.1187907  76.9519817  41.2912878 135.8084819  75.6120145  54.8174529
 135.2923868  74.8278602  54.6304458 136.6924768  75.2838862  54.9821049
 133.4695546  69.3561161  50.7770342 133.2720367  69.0476249  51.6613674
 134.0795252  70.0822800  50.9068272 141.4766881  79.8825109  53.9122283
 142.2070269  79.6210397  54.4729986 140.8673826  79.1453830  53.9524351
 139.5582178  78.0232971  54.5096734 138.8315341  77.8888936  53.9013226
 139.1429465  78.3309800  55.3153452 127.3812354  81.7422901  62.2744107
 128.3015364  81.9201500  62.4684154 127.3461937  80.7978946  62.1223806
 125.6816579  75.6155131  40.7498335 124.7748034  75.3188244  40.8261049
 125.9592560  75.3184949  39.8832622 120.3774427  79.6523935  54.9166888
 120.5960437  80.5841043  54.9354922 120.7900201  79.2931910  55.7021692
 127.2978645  70.1592021  46.9042577 126.4879373  69.8139106  47.2797823
 127.9863062  69.8499564  47.4930188 129.2269193  69.2370068  48.5266873
 129.7800232  69.6565521  49.1856896 129.4639279  68.3105816  48.5689829
 125.2502292  75.2257141  64.3069637 125.1499019  76.1751498  64.2381728
 125.0323834  74.8975380  63.4345707 124.4515364  72.4742066  40.8910315
 125.3134528  72.7996965  41.1506132 124.6365708  71.6873562  40.3783380
 132.6048000  71.3470593  48.0345538 132.0246669  72.0055397  47.6523590
 132.3383933  70.5247937  47.6232955 131.0551566  70.7475650  50.2366858
 131.5551345  70.8592185  49.4281177 131.6987174  70.4436703  50.8767666
 121.0406900  82.5458815  55.1603133 121.9950153  82.5142757  55.0933064
 120.8419423  82.0849438  55.9753359 121.6306282  81.1159931  57.7273930
 122.4499171  81.6104009  57.7508768 121.9043090  80.1991899  57.6991498
 131.3872878  73.5070683  47.0901886 130.4998733  73.7920334  46.8722081
 131.8026867  73.3464446  46.2429163 134.7387414  73.5317204  50.8056225
 135.5147804  74.0213657  51.0780842 134.0135548  73.9575258  51.2628095
 137.1759973  74.2444823  51.8630166 137.7704464  74.0040559  51.1523474
 137.2486557  73.5251954  52.4903702 119.3957129  88.0878434  52.1773330
 119.2611596  87.3278835  51.6111329 118.9789191  88.8119334  51.7102119
 130.5316092  83.2715358  41.1849906 131.2351942  83.4765360  41.8007561
 129.8078740  83.8392120  41.4498989 131.3613902  79.0225219  47.3052176
 131.3049103  79.4793770  46.4659808 131.9142244  78.2615904  47.1275019
 135.1718708  74.8114951  48.1302295 134.9155642  74.4111587  48.9610503
 134.5471576  75.5258745  48.0052435 139.4831046  77.5511024  50.6373587
 138.9230604  77.6204213  51.4105149 138.8774549  77.3752009  49.9173083
 122.5526254  88.9847751  52.3891773 122.4358639  89.9293184  52.2870463
 121.7318701  88.6821313  52.7777572 132.4402789  83.7097887  43.2348366
 133.2748393  83.2779085  43.0525841 132.2787132  83.5379901  44.1625260
 132.0948681  80.2130000  44.6004705 132.0397485  80.0474272  43.6593149
 131.4694736  80.9206033  44.7566895 129.4094588  82.5178912  63.9258268
 130.2785748  82.6919564  63.5644903 128.9301340  83.3373329  63.8033997
 125.4044807  69.7138109  44.1790024 125.3923476  70.6579949  44.3358294
 126.2968228  69.5308255  43.8849485 123.5780769  89.6376013  55.6047702
 124.4808015  89.6699623  55.9214197 123.3518139  88.7076464  55.6194037
 125.3334371  88.3907000  52.2657780 124.3830002  88.3908861  52.1522152
 125.6366857  87.6439734  51.7493815 129.2196926  66.3080886  48.4335960
 128.4529322  65.7539373  48.5792643 129.6307631  66.3802755  49.2950112
 121.2238687  72.5965682  62.5241142 122.0870149  72.2402487  62.7344466
 120.6504098  72.2579577  63.2116546 141.0687064  94.2267538  53.3303543
 141.7065474  94.1074285  52.6266883 140.9507907  95.1748382  53.3891495
 137.8776770  94.1794966  53.2665067 137.5395282  94.0636031  52.3785602
 138.7466539  93.7786131  53.2466073 133.7363586  96.0330443  49.2561958
 133.1728451  95.9420380  48.4878246 133.6215981  95.2130347  49.7364451
 138.3596553  95.3329818  59.2251273 138.3485194  94.9382616  58.3531776
 138.5217193  94.5995891  59.8185044 131.2828018  97.5281634  52.0946179
 132.0749310  97.1872459  51.6792478 131.5224668  97.6376609  53.0148332
 139.3163145  99.7001410  44.5676423 138.6651124 100.2855491  44.1810437
 140.1107508 100.2307605  44.6271461 133.2418772  96.7890547  44.9663557
 134.0149648  96.2419535  44.8276433 133.5944171  97.6534797  45.1778019
 135.0803814  98.1166930  58.1730457 134.7893680  99.0212561  58.0577123
 135.7160799  98.1583457  58.8874526 136.0060021  95.4943778  54.7631816
 136.6023594  95.2699801  54.0488779 136.0634993  94.7528524  55.3657264
 135.5785050  92.9483214  42.5982007 135.8310570  92.4264735  41.8365470
 134.6409609  92.7849359  42.7008691 140.6228333  91.9518992  50.4056751
 141.4091422  91.5338415  50.0547168 140.8867037  92.8565084  50.5738399
 140.7938410  97.3891842  45.1045407 140.1584243  97.4626469  45.8166312
 140.4635816  97.9785441  44.4264487 146.0236760  91.8894225  51.3089729
 146.7561932  91.3193442  51.5427559 145.2676115  91.5015826  51.7496235
 135.2981338  94.8511320  44.8006382 135.1817597  94.1756223  45.4687467
 135.4083598  94.3643693  43.9838535 137.6412879  94.3121467  48.5053072
 137.2771087  93.7852088  49.2165993 138.4979995  93.9219936  48.3319557
 143.5462180  85.6015799  55.7684338 143.2145505  86.4711210  55.5445553
 142.9507793  85.2852083  56.4478368 137.2818366  89.3411366  43.5014420
 137.4492769  90.2091603  43.8684891 137.0915535  89.5038648  42.5775709
 140.0393700  97.8028345  55.1680250 139.7394423  98.7053384  55.0596058
 139.6944759  97.5360528  56.0201403 133.4906181  94.2542142  51.2016955
 132.5656677  94.1218356  51.4094647 133.7390594  95.0336361  51.6986897
 143.4390843  90.3210885  52.8477688 142.5307721  90.2526294  52.5536449
 143.3878439  90.7982830  53.6759513 137.2607587  91.7969024  44.4861087
 137.1407212  92.2426075  45.3246567 136.5660176  92.1454342  43.9274625
 130.8514992  93.8975416  52.0360744 130.9807373  94.1509895  52.9500156
 130.1712443  94.4903124  51.7165399 135.0214479 104.5672666  48.1351218
 134.9438509 105.5180491  48.2139699 134.4176123 104.2218538  48.7926144
 137.5131709  91.7400531  60.7912585 136.7365043  92.2994451  60.7815450
 138.1522272  92.2257314  61.3127455 145.3052490  88.5227324  54.6255562
 144.6626870  88.8159857  53.9795356 144.8007418  88.4080244  55.4308758
 142.9592653  92.2690497  45.3141421 143.8710509  92.5017884  45.1389119
 142.4502300  92.8527541  44.7516500 135.7678081  94.5485984  60.3530552
 136.5092766  95.0871028  60.0765376 135.0615067  95.1752273  60.5102104
 141.2433421  96.6915125  58.9502714 141.6516777  96.2497535  58.2057346
 140.5210683  96.1167752  59.2036906 137.5964491  91.6287732  56.3236270
 138.4425686  92.0527145  56.4670919 137.5363129  90.9721356  57.0174834
 141.5662236  97.2516315  52.7055002 140.9371098  97.4162030  52.0031070
 141.1787898  97.6657925  53.4765966 145.4451468  98.1870753  50.0599366
 144.7602506  98.5669655  49.5096400 145.5295317  98.7966080  50.7931314
 140.7463936  89.2892100  57.9817444 140.5024868  90.0434160  57.4451720
 141.0223867  89.6677448  58.8164691 142.7002399  95.8330712  56.6594710
 142.9119294  96.4762472  55.9829091 142.6532147  94.9993029  56.1916640
 140.3028628  88.4448533  53.5631282 139.4413107  88.7429787  53.8548019
 140.3291063  88.6618932  52.6312314 137.1190198  96.9890724  49.9705088
 137.5828543  97.2678427  49.1809710 136.8546996  96.0874168  49.7878178
 134.0114279  96.5362205  52.9084851 134.5815636  96.9649473  52.2702335
 134.6022390  96.2544790  53.6069036 136.0559084  93.1113876  46.7794653
 136.7583127  93.5634920  47.2468579 135.7239712  92.4697695  47.4074546
 134.5039445  91.7025633  61.1545862 133.8738106  92.3841913  61.3881259
 134.3975533  91.5908714  60.2099000 129.7984418  91.3697429  52.0811786
 129.0083472  91.6254957  51.6051897 130.2895665  92.1845766  52.1863827
 143.8148227  98.7102668  54.8317067 144.6365671  98.3082855  54.5499749
 143.8110630  98.6070902  55.7833183 131.7499163  91.7342008  49.0395263
 130.9530326  91.8460702  49.5578759 131.5224755  92.0728660  48.1736153
 137.5804831  98.2586711  56.9877778 137.6449263  98.7207118  57.8235949
 136.8715754  97.6284076  57.1160087 128.0822121  91.6227919  54.5126777
 128.3330159  92.5074929  54.7784353 128.6181669  91.4432521  53.7401869
 151.9054220  95.0541416  51.1802039 151.1517929  94.4848814  51.0246043
 152.0401761  95.0204081  52.1272673 137.2952848  99.9254819  46.8556758
 137.1598523 100.7706354  47.2841606 137.8362661 100.1274096  46.0922692
 133.7820188  86.0046398  63.5171113 133.3887133  85.4512597  64.1918757
 134.5986328  86.3156977  63.9077631 130.7482246  97.4430257  47.4284683
 131.2606766  98.2373507  47.5790248 131.4004958  96.7456547  47.3618284
 132.5577130 100.5596013  49.5107436 132.7343759 101.4813978  49.3228420
 133.3533964 100.2454432  49.9401816 136.6988149  87.4204277  61.1091370
 137.4397862  88.0211431  61.0295832 136.9306072  86.6781915  60.5509412
 131.8429487  92.6060645  59.3869599 131.7283002  91.7045902  59.6876698
 130.9874005  92.8524342  59.0354416 138.9221325 100.5478385  60.9857100
 138.4785179  99.7614764  60.6678004 139.5838538 100.7357536  60.3200991
 133.6808446 102.0774187  55.5117778 134.2315871 101.9491250  54.7394772
 132.8419922 102.3769076  55.1612671 141.0202563 100.8281185  59.0138501
 141.0021038 101.6490066  58.5218770 141.9422483 100.7035260  59.2388642
 137.4775617  98.3425314  59.8562010 138.0103954  97.5813603  59.6261318
 136.9489698  98.0498966  60.5986164 140.6445312  83.4485380  55.3855651
 140.3009581  84.3387022  55.3094762 141.0124274  83.2587038  54.5225236
 128.7131162  95.7718911  48.2044254 129.5506384  96.1815919  47.9877961
 128.8909430  94.8318353  48.1744447 140.6095595  93.4393992  43.8928086
 140.0942218  94.2098596  44.1316474 140.3372903  92.7659128  44.5161148
 138.1942706  88.2843692  48.9513325 137.3384302  87.8950543  48.7718964
 138.6069657  88.3635653  48.0913110 139.7241852  85.8190036  53.3504885
 139.2206648  85.7820171  52.5372690 140.0172459  86.7282778  53.4101541
 135.9684738  85.9028765  52.3571066 136.8337735  85.7071574  51.9976956
 136.0362247  85.6739117  53.2840423 145.5829869  96.1926346  45.8281260
 144.8059311  95.8537506  45.3836422 146.2621350  96.1978969  45.1536225
 140.3981898  91.3121084  45.7187868 140.0932033  91.6267233  46.5698011
 141.3512340  91.3902504  45.7615201 138.8428330  97.4711307  47.3680822
 138.3149691  96.7364067  47.0554059 138.3415832  98.2485983  47.1220790
 143.8221176  95.6660327  52.4847868 143.1644850  96.3559589  52.5727997
 144.6261575  96.0556759  52.8281854 133.5747057  88.1330973  49.7287433
 134.1490809  87.9106155  48.9960626 134.1618040  88.2019668  50.4816034
 142.6326634  94.0204700  50.5351810 143.1458516  94.6534692  51.0373519
 143.2827858  93.4205896  50.1695170 133.9016644  90.1635434  43.7483318
 133.0653957  90.5010121  44.0692593 133.7621414  90.0284414  42.8110455
 135.8769725  85.0072222  48.4562503 135.2234137  84.6921239  47.8319117
 135.8350199  84.3847963  49.1822326 136.9880930  95.2891517  40.3715795
 136.0807991  95.0580771  40.5706944 137.4851962  94.4929136  40.5589776
 139.8949009 103.9989024  43.2912481 139.2210707 104.3020721  43.8997439
 140.2814831 104.8018105  42.9417938 139.1107465  91.4954156  52.7810150
 138.1930027  91.7169103  52.6231838 139.5267609  91.5700466  51.9221858
 139.8942513  92.8945571  47.9112830 140.6414332  93.4066969  47.6019953
 140.1634103  92.5729624  48.7717224 138.1669163  95.3904112  44.8939785
 137.2580382  95.1063145  44.9912254 138.1964247  95.8103191  44.0343092
 143.3988431  99.0010702  48.6630952 142.9450758  98.1601611  48.7196143
 142.7682397  99.6372100  49.0005732 142.3421350  89.9302688  49.8931620
 141.6044107  89.4180074  50.2241862 142.5948124  89.4903069  49.0814897
 141.8421370 100.8387198  49.5980770 142.1344344 101.3992255  48.8793136
 142.3519990 101.1315759  50.3533930 142.4432977  82.7078940  50.4873389
 142.7491854  81.8476303  50.1999304 143.1685582  83.2996560  50.2872383
 128.7357334  93.1109626  48.8754987 128.5381733  92.5178987  48.1506054
 128.1803998  92.8061836  49.5930926 136.7154057  93.0032733  50.9949580
 136.7702667  92.0506569  50.9192057 135.9045259  93.1592172  51.4790879
 137.8645251  96.9312856  42.2327863 137.4264681  96.2148715  41.7733501
 138.6055692  97.1588971  41.6712955 134.6546417  91.6209792  48.7539959
 133.8414283  91.9203963  49.1605151 135.1505411  91.2265481  49.4714441
 136.8054995 101.6167549  50.6874224 136.7631174 101.8428396  49.7582756
 137.7217694 101.3830924  50.8360025 140.2520629  92.0851617  57.5854853
 140.6070017  92.3123090  58.4449319 140.8992760  92.4169994  56.9632108
 145.9818366  95.2070053  48.2904182 145.8436264  95.3971649  47.3625371
 145.6254585  95.9689436  48.7472233 134.1460492  89.1928148  54.3701194
 134.7859871  89.0516907  53.6724157 133.3138022  88.9062661  53.9939796
 146.0087745  97.2746580  53.3015453 146.4424252  97.1821869  54.1498507
 146.7219326  97.2504080  52.6635469 134.9220796  98.4930578  50.4836186
 135.7161394  97.9980899  50.2818761 134.2112488  97.9648441  50.1203892
 139.7415640 100.8748674  54.8348554 139.7952663 101.4439610  55.6026270
 138.8730422 101.0450559  54.4702591 131.2303559  92.6373660  46.5595939
 130.3001147  92.5758116  46.7765901 131.3261031  92.1149613  45.7632580
 131.1489108  89.1628473  49.1474181 131.4095926  90.0773806  49.0383341
 131.9706281  88.6952915  49.2970794 132.6214034  90.5766230  56.3173005
 133.2937087  90.3683592  55.6685654 131.7943820  90.3788316  55.8778238
 146.8703295  97.3170280  55.8348339 147.0639185  98.2216091  56.0807614
 146.7703913  96.8577700  56.6686924 138.5239606  87.2028171  58.3338666
 137.8767521  87.9018121  58.2403143 139.2940621  87.6364315  58.7014914
 141.9318404  97.4677023  61.4089219 141.7803910  97.2387575  60.4919303
 141.9223083  98.4247625  61.4220564 138.7003740  95.0408936  56.3935486
 139.6295800  95.1920096  56.2204453 138.2794770  95.1292957  55.5384132
 137.4992072  99.0659600  54.1634023 137.3603157  98.6978385  55.0359962
 136.7106668  99.5807240  53.9917981 138.0940224 104.1668697  45.5059560
 138.2691979 103.6956740  46.3205183 137.4073012 104.7934463  45.7340821
 139.0497287  98.4441203  51.5522861 138.7147120  98.4041973  52.4480511
 138.5501233  97.7785919  51.0793271 133.0241531  93.8508833  57.0775442
 132.8861329  93.1189072  57.6786981 133.9346454  93.7617733  56.7959630
 141.9856479  95.7897237  41.8259921 141.3685649  95.0644066  41.7292974
 141.5172967  96.5506598  41.4826995 135.6523832  93.5628792  56.5659122
 136.3623450  92.9221985  56.5245740 135.6093140  93.8141687  57.4885303
 143.6410610 100.4996146  59.4865701 143.5823156  99.8155366  58.8196284
 144.0430129 101.2415136  59.0346327 134.3652766  90.5494010  58.3854762
 133.8290123  90.0984749  59.0376358 133.7769474  90.6839919  57.6425226
 132.6601309 107.3158060  52.2799420 132.8997907 107.9476584  52.9578439
 131.8170506 106.9646100  52.5664779 133.7755025  90.0082662  40.9481225
 132.8984491  89.8871462  40.5843472 134.2512778  89.2168740  40.6960114
 143.6428018  98.4635730  57.7179681 142.7554796  98.1261651  57.8406080
 144.2126569  97.7318761  57.9548446 125.2957165  94.7959821  51.0422732
 125.9828204  94.4821551  50.4543748 125.1405293  95.7001186  50.7689984
 130.0991887  89.6850018  55.4707756 130.0150076  89.0775688  54.7358166
 129.2774593  90.1759036  55.4717252 137.1729171 103.1237182  54.6840924
 137.0999342 103.9292154  55.1960229 136.7306564 103.3229148  53.8588946
 136.9618951 102.3608952  48.1943746 136.1786472 102.9030632  48.2881970
 137.6611696 102.8782932  48.5937987 140.2715601  88.1703582  50.8377951
 140.7684300  87.4173544  50.5179021 139.5002582  88.2067898  50.2721160
 148.1245358  93.8743947  52.4796243 148.1135234  94.7568662  52.1090176
 147.2562737  93.5215498  52.2850780 139.6327854 103.0224016  56.8399083
 140.3455827 103.6571481  56.7674984 139.1417883 103.1187882  56.0239085
 141.3545381  96.9275269  48.4116374 140.4201660  97.0476731  48.2421079
 141.5322050  96.0247736  48.1476384 136.8550569  90.3120965  50.5649636
 136.4848357  89.7592005  51.2530541 137.3509662  89.7079098  50.0124636
 144.7417933  92.7692588  48.9466409 145.2078385  93.6020580  48.8726711
 145.1925433  92.3037570  49.6511667 134.6839768 100.7718460  57.6604654
 135.3849227 101.4054942  57.8134048 134.2134883 101.1133191  56.9000293
 142.8094164  99.1136409  45.9452561 143.0854008  98.9993004  46.8546435
 141.9398663  98.7153894  45.9064734 142.7134595  85.1373175  52.9857310
 141.7997675  85.3677402  53.1539517 143.1427697  85.2211619  53.8371342
 142.4841054  93.3263067  55.4857204 141.8312504  93.5738974  54.8309657
 142.8621434  92.5127205  55.1519681 139.4448228 103.3622760  49.5885374
 139.6270622 102.5444416  50.0513127 140.2681214 103.5790452  49.1510264
 139.7790393 102.2890945  46.8500423 140.3078160 101.7783400  46.2370585
 140.0418613 101.9733475  47.7145956 138.5328627  94.0682878  61.9723241
 137.8569264  93.9677007  62.6425616 139.3556261  93.9122092  62.4359238
 130.2807486 100.3054815  54.5935756 130.8660923  99.5598502  54.7263661
 130.0832324 100.6158771  55.4772420 133.1346141 103.3406062  49.6098199
 132.4656517 103.8252190  49.1262239 132.9959011 103.5875282  50.5241577
 124.8725141  92.8760415  53.3140199 124.9109240  92.3424005  54.1077318
 124.3665434  92.3495620  52.6951177 137.2751410 105.3749805  56.2080857
 137.8269718 105.5381427  56.9729942 137.6157603 105.9654243  55.5360882
 132.2515903  87.7224955  56.8102742 132.3157230  88.5839786  56.3980139
 132.1883023  87.1098957  56.0775100 131.7268176  89.7948088  60.4575776
 132.3540214  89.4125165  61.0713300 130.8696094  89.5762290  60.8231469
 142.1262284 100.2011063  62.0629511 142.6702188 100.8141021  61.5684466
 141.5449129 100.7590641  62.5796524 128.5033718  91.6024517  46.3894131
 128.7987159  90.6935195  46.3361185 127.6021754  91.5812256  46.0675133
 140.4119797 103.3231781  53.1944539 140.2870937 102.5221521  52.6855485
 141.0698888 103.8177974  52.7058509 132.0327965  89.6780514  52.3721679
 131.3114551  90.2916481  52.2329153 132.8221221  90.2138278  52.2938325
 142.4754705 101.1240801  54.8224089 141.5285041 101.0046152  54.7502416
 142.8237479 100.2363299  54.9050351 134.8354279  87.0134940  58.6462331
 135.3588681  87.2597237  59.4088641 134.6166612  87.8454975  58.2265469
 130.2321560  89.2838615  46.5133456 129.9034266  88.4035994  46.3308562
 130.5860931  89.2286283  47.4009845 139.4801139 100.9193517  51.0228442
 139.3326101  99.9910225  51.2036012 140.3054632 100.9413608  50.5385517
 133.3463383  89.5711584  46.8808934 133.6859456  90.0997506  46.1587542
 133.7935504  89.9091991  47.6567500 143.0835261 101.7422076  52.1093314
 144.0081808 101.5364937  51.9717765 142.9150564 101.4938477  53.0182656
 136.0406824  87.9548635  56.3312002 135.7003644  87.1556448  56.7332682
 135.3345830  88.2550346  55.7588835 136.6923296  85.0397948  54.7839325
 137.5149365  84.5658426  54.6618215 136.9361359  85.8188431  55.2838011
 135.3331530  88.0686206  45.0802226 136.0539893  88.4467459  44.5765943
 134.7096834  88.7875083  45.1837204 139.4762653  88.7731355  46.0160559
 139.6926268  89.6555993  45.7149387 138.9956720  88.3817568  45.2866201
 134.2161874  91.7317068  52.5931303 134.0706455  92.0457371  53.4855585
 133.7387078  92.3501969  52.0402202 136.0758257  88.7219616  52.6412193
 136.0619826  87.8260709  52.3044491 136.7930685  88.7290280  53.2750479
 137.9284388  89.1556956  54.6865320 137.6702166  90.0774027  54.6849651
 137.3969428  88.7587391  55.3765784 142.8730577 102.2607743  47.4655406
 143.0467454 101.6954166  46.7129258 143.3659468 103.0608638  47.2834896
 128.6907537  94.2722413  55.5318965 128.1461005  95.0482221  55.6639239
 129.5686887  94.6193217  55.3738086 135.4795153  87.6033996  47.9099763
 135.6011065  86.6750643  48.1090651 135.1897196  87.6172682  46.9978078
 138.3486344  85.2888907  51.0466483 138.3708041  85.3528240  50.0918462
 138.7654403  84.4493416  51.2406989 148.7269968  95.0244166  49.0845705
 149.1701114  94.2751492  48.6864829 147.8496478  95.0154303  48.7019437
 143.8605749 101.5774508  44.5652304 144.5556654 102.1981201  44.7839619
 144.2028899 100.7269859  44.8404682 129.4773559  93.3992309  58.4249121
 128.7355295  93.5474944  59.0113752 129.1566303  93.6600574  57.5615871
 145.7597172  99.0274213  46.0939635 146.2848497  99.3661486  45.3688955
 145.6719525  98.0921229  45.9102769 137.4217221 102.9408287  58.2229511
 137.7304348 102.6957434  59.0952211 138.2192703 103.1454926  57.7348382
 137.4437833 105.0946197  50.4534888 137.0042824 104.6022575  51.1467745
 138.1945950 104.5519164  50.2126963 129.9230172 101.2857738  50.4559516
 130.7488192 100.9861509  50.0758160 129.5724224 100.5165360  50.9049305
 134.8911705 100.6384206  52.5257190 134.2691715  99.9754911  52.2259418
 135.5616572 100.6645338  51.8430837 128.1238777  99.2044064  51.4148450
 127.2870686  98.7766238  51.2332451 128.0962423  99.3976507  52.3519241
 134.9636233  89.1165994  62.1189696 135.0124388  89.9928117  61.7367465
 135.5058747  88.5743387  61.5461339 145.4491079  99.6607117  61.3990833
 144.6586622  99.6431256  60.8595332 145.2124433 100.1995411  62.1539869
 145.5688954  96.5099583  58.7123561 145.6186959  96.3449591  59.6539084
 145.4602877  95.6426842  58.3221442 134.4525212  99.1888129  46.0015650
 134.6013333  99.8723594  45.3482323 135.2591656  99.1693219  46.5165106
 142.8592716  92.4930511  60.0282868 143.7602579  92.3536976  59.7366866
 142.9340690  92.6584966  60.9681045 137.1935521  89.8697366  58.8736054
 136.3238831  90.1630932  58.6018643 137.4295002  90.4537811  59.5943318
 147.0707150  98.9296525  58.9565583 146.7791959  99.2926506  59.7929044
 146.4579282  98.2163533  58.7778915 148.2702833  96.4949405  51.4768153
 149.1049724  96.9339209  51.6405713 148.4061962  96.0188058  50.6576399
 145.3194339  94.0529140  57.4245641 145.7948460  94.2456786  56.6164492
 144.3959904  94.1088325  57.1789024 132.2077845  95.2153307  47.0076719
 131.9623887  94.3115637  47.2056929 132.3773760  95.2170457  46.0656197
 139.8974555  86.0876983  56.3901475 140.4156499  86.8238010  56.0647963
 139.5429688  86.3940976  57.2248234 131.4773493  90.9481664  44.5062881
 130.7842738  91.0226019  43.8502917 131.2325245  90.1842008  45.0284397
 140.1487149  82.5077266  51.9102371 140.4288903  81.8400455  52.5362798
 140.9337756  82.7006361  51.3977035 137.9520618 101.6836260  43.4727398
 137.3794585 102.3026447  43.0197869 138.5253411 102.2335621  44.0067320
 144.0196008  90.9294900  55.6573946 144.9713431  91.0292997  55.6786170
 143.8499458  90.1373168  56.1672031 142.0410387  88.0150483  55.8433347
 141.4460319  88.2955496  55.1479836 141.7560084  88.5044384  56.6150088
 141.1717878 101.9673410  44.6035980 142.1048551 101.9018971  44.8068855
 141.0841090 102.8029677  44.1450513 143.8005894 101.2839280  41.5639927
 143.7219526 100.9499144  42.4575685 144.6215561 101.7761048  41.5631400
 146.4984085  94.1501019  54.7716246 146.4660406  93.2117020  54.9575930
 147.1084709  94.2285056  54.0382071 138.3367416  93.0197072  40.8143450
 139.2826521  92.8903280  40.8831868 137.9581661  92.2811734  41.2912878
 146.6478574  90.9412063  54.8174529 146.1317623  90.1570519  54.6304458
 147.5318522  90.6130779  54.9821049 144.3089301  84.6853078  50.7770342
 144.1114122  84.3768167  51.6613674 144.9189006  85.4114717  50.9068272
 152.3160635  95.2117026  53.9122283 153.0464024  94.9502314  54.4729986
 151.7067581  94.4745748  53.9524351 150.3975932  93.3524889  54.5096734
 149.6709096  93.2180854  53.9013226 149.9823219  93.6601717  55.3153452
 138.2206109  97.0714818  62.2744107 139.1409118  97.2493417  62.4684154
 138.1855692  96.1270864  62.1223806 136.5210333  90.9447049  40.7498335
 135.6141789  90.6480161  40.8261049 136.7986314  90.6476867  39.8832622
 127.4388274  92.2653412  51.1997382 127.1191058  91.4118720  50.9071756
 126.8921702  92.4801990  51.9555349 131.2168181  94.9815853  54.9166888
 131.4354191  95.9132961  54.9354922 131.6293955  94.6223828  55.7021692
 138.1372399  85.4883938  46.9042577 137.3273127  85.1431023  47.2797823
 138.8256816  85.1791482  47.4930188 140.0662947  84.5661985  48.5266873
 140.6193986  84.9857439  49.1856896 140.3033034  83.6397733  48.5689829
 136.0896047  90.5549059  64.3069637 135.9892774  91.5043416  64.2381728
 135.8717589  90.2267298  63.4345707 135.2909118  87.8033984  40.8910315
 136.1528282  88.1288882  41.1506132 135.4759462  87.0165480  40.3783380
 127.3076534  95.8856324  53.1690503 126.6140005  95.4710276  52.6560458
 128.0549525  95.9276860  52.5723922 143.4441755  86.6762510  48.0345538
 142.8640424  87.3347314  47.6523590 143.1777687  85.8539855  47.6232955
 141.8945321  86.0767568  50.2366858 142.3945099  86.1884103  49.4281177
 142.5380929  85.7728621  50.8767666 135.9527317  93.9846198  63.1234699
 135.4694398  94.7846558  63.3298588 136.0388256  93.9954143  62.1702143
 129.2213276  95.8174577  51.0456518 129.1983964  95.9162265  50.0938401
 129.5313913  96.6639728  51.3673684 131.8800654  97.8750732  55.1603133
 132.8343908  97.8434675  55.0933064 131.6813178  97.4141356  55.9753359
 132.4700036  96.4451848  57.7273930 133.2892925  96.9395927  57.7508768
 132.7436844  95.5283817  57.6991498 142.2266633  88.8362601  47.0901886
 141.3392488  89.1212251  46.8722081 142.6420622  88.6756364  46.2429163
 145.5781169  88.8609122  50.8056225 146.3541559  89.3505574  51.0780842
 144.8529303  89.2867176  51.2628095 148.0153727  89.5736741  51.8630166
 148.6098218  89.3332477  51.1523474 148.0880311  88.8543872  52.4903702
 130.2350883 103.4170352  52.1773330 130.1005351 102.6570753  51.6111329
 129.8182945 104.1411252  51.7102119 141.3709846  98.6007275  41.1849906
 142.0745696  98.8057278  41.8007561 140.6472495  99.1684037  41.4498989
 142.2007656  94.3517137  47.3052176 142.1442858  94.8085688  46.4659808
 142.7535999  93.5907821  47.1275019 146.0112462  90.1406869  48.1302295
 145.7549396  89.7403504  48.9610503 145.3865330  90.8550663  48.0052435
 150.3224800  92.8802942  50.6373587 149.7624358  92.9496131  51.4105149
 149.7168303  92.7043926  49.9173083 133.3920009 104.3139669  52.3891773
 133.2752393 105.2585101  52.2870463 132.5712455 104.0113230  52.7777572
 143.2796543  99.0389805  43.2348366 144.1142147  98.6071003  43.0525841
 143.1180886  98.8671818  44.1625260 142.9342436  95.5421918  44.6004705
 142.8791239  95.3766189  43.6593149 142.3088491  96.2497951  44.7566895
 127.7234951  90.7789982  58.4266127 128.3693814  90.2688936  58.9153353
 127.5152102  91.5158664  59.0009553 140.2488343  97.8470830  63.9258268
 141.1179502  98.0211482  63.5644903 139.7695094  98.6665247  63.8033997
 136.2438561  85.0430027  44.1790024 136.2317231  85.9871867  44.3358294
 137.1361983  84.8600172  43.8849485 134.4174523 104.9667931  55.6047702
 135.3201770 104.9991541  55.9214197 134.1911893 104.0368382  55.6194037
 136.1728125 103.7198917  52.2657780 135.2223756 103.7200779  52.1522152
 136.4760611 102.9731652  51.7493815 140.0590681  81.6372804  48.4335960
 139.2923076  81.0831290  48.5792643 140.4701386  81.7094672  49.2950112
 132.0632442  87.9257599  62.5241142 132.9263903  87.5694404  62.7344466
 131.4897852  87.5871494  63.2116546 151.9080819 109.5559456  53.3303543
 152.5459228 109.4366203  52.6266883 151.7901661 110.5040300  53.3891495
 148.7170525 109.5086884  53.2665067 148.3789036 109.3927949  52.3785602
 149.5860293 109.1078049  53.2466073 144.5757340 111.3622360  49.2561958
 144.0122206 111.2712297  48.4878246 144.4609736 110.5422265  49.7364451
 149.1990308 110.6621736  59.2251273 149.1878949 110.2674534  58.3531776
 149.3610947 109.9287808  59.8185044 142.1221772 112.8573552  52.0946179
 142.9143064 112.5164377  51.6792478 142.3618423 112.9668527  53.0148332
 150.1556899 115.0293328  44.5676423 149.5044879 115.6147408  44.1810437
 150.9501262 115.5599523  44.6271461 144.0812526 112.1182465  44.9663557
 144.8543402 111.5711452  44.8276433 144.4337925 112.9826714  45.1778019
 145.9197569 113.4458847  58.1730457 145.6287435 114.3504478  58.0577123
 146.5554553 113.4875375  58.8874526 146.8453776 110.8235696  54.7631816
 147.4417348 110.5991718  54.0488779 146.9028747 110.0820441  55.3657264
 146.4178804 108.2775131  42.5982007 146.6704325 107.7556653  41.8365470
 145.4803363 108.1141277  42.7008691 151.4622087 107.2810910  50.4056751
 152.2485176 106.8630333  50.0547168 151.7260791 108.1857002  50.5738399
 151.6332164 112.7183760  45.1045407 150.9977997 112.7918386  45.8166312
 151.3029571 113.3077359  44.4264487 146.1375093 110.1803237  44.8006382
 146.0211351 109.5048141  45.4687467 146.2477353 109.6935611  43.9838535
 148.4806634 109.6413384  48.5053072 148.1164841 109.1144005  49.2165993
 149.3373750 109.2511853  48.3319557 154.3855934 100.9307717  55.7684338
 154.0539259 101.8003128  55.5445553 153.7901548 100.6144001  56.4478368
 148.1212121 104.6703284  43.5014420 148.2886523 105.5383520  43.8684891
 147.9309290 104.8330566  42.5775709 150.8787454 113.1320263  55.1680250
 150.5788177 114.0345302  55.0596058 150.5338514 112.8652446  56.0201403
 144.3299935 109.5834060  51.2016955 143.4050432 109.4510274  51.4094647
 144.5784349 110.3628279  51.6986897 154.2784598 105.6502803  52.8477688
 153.3701475 105.5818212  52.5536449 154.2272194 106.1274748  53.6759513
 148.1001342 107.1260942  44.4861087 147.9800967 107.5717992  45.3246567
 147.4053930 107.4746259  43.9274625 141.6908747 109.2267333  52.0360744
 141.8201128 109.4801812  52.9500156 141.0106198 109.8195041  51.7165399
 145.8608234 119.8964583  48.1351218 145.7832264 120.8472408  48.2139699
 145.2569877 119.5510456  48.7926144 148.3525464 107.0692449  60.7912585
 147.5758798 107.6286369  60.7815450 148.9916027 107.5549232  61.3127455
 156.1446244 103.8519241  54.6255562 155.5020624 104.1451775  53.9795356
 155.6401173 103.7372162  55.4308758 153.7986408 107.5982415  45.3141421
 154.7104264 107.8309801  45.1389119 153.2896055 108.1819459  44.7516500
 146.6071836 109.8777902  60.3530552 147.3486520 110.4162946  60.0765376
 145.9008821 110.5044191  60.5102104 152.0827176 112.0207043  58.9502714
 152.4910532 111.5789453  58.2057346 151.3604437 111.4459670  59.2036906
 148.4358246 106.9579649  56.3236270 149.2819441 107.3819063  56.4670919
 148.3756883 106.3013274  57.0174834 152.4055990 112.5808233  52.7055002
 151.7764853 112.7453947  52.0031070 152.0181652 112.9949843  53.4765966
 156.2845222 113.5162671  50.0599366 155.5996260 113.8961572  49.5096400
 156.3689071 114.1257998  50.7931314 151.5857691 104.6184018  57.9817444
 151.3418623 105.3726078  57.4451720 151.8617621 104.9969365  58.8164691
 153.5396154 111.1622630  56.6594710 153.7513049 111.8054390  55.9829091
 153.4925902 110.3284947  56.1916640 151.1422383 103.7740451  53.5631282
 150.2806862 104.0721704  53.8548019 151.1684817 103.9910850  52.6312314
 147.9583952 112.3182641  49.9705088 148.4222298 112.5970344  49.1809710
 147.6940750 111.4166086  49.7878178 144.8508033 111.8654123  52.9084851
 145.4209390 112.2941391  52.2702335 145.4416145 111.5836707  53.6069036
 146.8952838 108.4405794  46.7794653 147.5976881 108.8926837  47.2468579
 146.5633467 107.7989612  47.4074546 145.3433200 107.0317550  61.1545862
 144.7131860 107.7133831  61.3881259 145.2369288 106.9200632  60.2099000
 140.6378172 106.6989346  52.0811786 139.8477226 106.9546875  51.6051897
 141.1289419 107.5137684  52.1863827 154.6541982 114.0394585  54.8317067
 155.4759425 113.6374773  54.5499749 154.6504385 113.9362820  55.7833183
 142.5892917 107.0633926  49.0395263 141.7924081 107.1752620  49.5578759
 142.3618510 107.4020578  48.1736153 148.4198585 113.5878629  56.9877778
 148.4843018 114.0499036  57.8235949 147.7109509 112.9575994  57.1160087
 138.9215875 106.9519837  54.5126777 139.1723913 107.8366847  54.7784353
 139.4575423 106.7724438  53.7401869 148.1346603 115.2546736  46.8556758
 147.9992278 116.0998272  47.2841606 148.6756415 115.4566014  46.0922692
 144.6213942 101.3338316  63.5171113 144.2280888 100.7804515  64.1918757
 145.4380083 101.6448895  63.9077631 141.5876000 112.7722174  47.4284683
 142.1000521 113.5665425  47.5790248 142.2398713 112.0748465  47.3618284
 143.3970885 115.8887931  49.5107436 143.5737513 116.8105895  49.3228420
 144.1927718 115.5746350  49.9401816 147.5381903 102.7496195  61.1091370
 148.2791617 103.3503348  61.0295832 147.7699826 102.0073833  60.5509412
 142.6823241 107.9352562  59.3869599 142.5676757 107.0337820  59.6876698
 141.8267759 108.1816259  59.0354416 149.7615079 115.8770303  60.9857100
 149.3178933 115.0906681  60.6678004 150.4232293 116.0649453  60.3200991
 144.5202200 117.4066104  55.5117778 145.0709625 117.2783168  54.7394772
 143.6813676 117.7060993  55.1612671 151.8596317 116.1573103  59.0138501
 151.8414793 116.9781984  58.5218770 152.7816237 116.0327178  59.2388642
 148.3169371 113.6717232  59.8562010 148.8497708 112.9105520  59.6261318
 147.7883452 113.3790884  60.5986164 151.4839066  98.7777298  55.3855651
 151.1403336  99.6678940  55.3094762 151.8518029  98.5878956  54.5225236
 139.5524917 111.1010829  48.2044254 140.3900139 111.5107837  47.9877961
 139.7303185 110.1610271  48.1744447 151.4489349 108.7685909  43.8928086
 150.9335972 109.5390514  44.1316474 151.1766657 108.0951045  44.5161148
 149.0336460 103.6135610  48.9513325 148.1778056 103.2242460  48.7718964
 149.4463412 103.6927571  48.0913110 150.5635607 101.1481953  53.3504885
 150.0600402 101.1112088  52.5372690 150.8566214 102.0574696  53.4101541
 146.8078493 101.2320683  52.3571066 147.6731489 101.0363492  51.9976956
 146.8756001 101.0031035  53.2840423 151.2375652 106.6413001  45.7187868
 150.9325788 106.9559150  46.5698011 152.1906094 106.7194421  45.7615201
 149.6822084 112.8003225  47.3680822 149.1543446 112.0655984  47.0554059
 149.1809587 113.5777901  47.1220790 154.6614930 110.9952245  52.4847868
 154.0038605 111.6851506  52.5727997 155.4655329 111.3848677  52.8281854
 144.4140812 103.4622891  49.7287433 144.9884564 103.2398072  48.9960626
 145.0011794 103.5311585  50.4816034 153.4720389 109.3496618  50.5351810
 153.9852271 109.9826610  51.0373519 154.1221613 108.7497813  50.1695170
 144.7410399 105.4927352  43.7483318 143.9047711 105.8302038  44.0692593
 144.6015168 105.3576332  42.8110455 146.7163479 100.3364140  48.4562503
 146.0627892 100.0213157  47.8319117 146.6743954  99.7139880  49.1822326
 147.8274684 110.6183435  40.3715795 146.9201746 110.3872688  40.5706944
 148.3245716 109.8221054  40.5589776 150.7342763 119.3280942  43.2912481
 150.0604462 119.6312639  43.8997439 151.1208585 120.1310022  42.9417938
 149.9501220 106.8246073  52.7810150 149.0323781 107.0461020  52.6231838
 150.3661363 106.8992384  51.9221858 150.7336267 108.2237489  47.9112830
 151.4808086 108.7358886  47.6019953 151.0027857 107.9021542  48.7717224
 149.0062918 110.7196030  44.8939785 148.0974137 110.4355063  44.9912254
 149.0358001 111.1395108  44.0343092 154.2382185 114.3302619  48.6630952
 153.7844512 113.4893529  48.7196143 153.6076152 114.9664018  49.0005732
 153.1815105 105.2594605  49.8931620 152.4437861 104.7471991  50.2241862
 153.4341878 104.8194987  49.0814897 152.6815124 116.1679116  49.5980770
 152.9738099 116.7284173  48.8793136 153.1913745 116.4607677  50.3533930
 153.2826732  98.0370857  50.4873389 153.5885609  97.1768221  50.1999304
 154.0079337  98.6288477  50.2872383 139.5751088 108.4401544  48.8754987
 139.3775488 107.8470905  48.1506054 139.0197752 108.1353754  49.5930926
 147.5547812 108.3324650  50.9949580 147.6096421 107.3798487  50.9192057
 146.7439014 108.4884089  51.4790879 148.7039005 112.2604773  42.2327863
 148.2658435 111.5440632  41.7733501 149.4449446 112.4880888  41.6712955
 145.4940172 106.9501710  48.7539959 144.6808037 107.2495881  49.1605151
 145.9899166 106.5557399  49.4714441 147.6448750 116.9459467  50.6874224
 147.6024928 117.1720313  49.7582756 148.5611448 116.7122842  50.8360025
 151.0914383 107.4143535  57.5854853 151.4463771 107.6415008  58.4449319
 151.7386515 107.7461911  56.9632108 144.9854246 104.5220066  54.3701194
 145.6253626 104.3808825  53.6724157 144.1531777 104.2354579  53.9939796
 145.7614550 113.8222496  50.4836186 146.5555149 113.3272816  50.2818761
 145.0506243 113.2940359  50.1203892 150.5809395 116.2040592  54.8348554
 150.6346417 116.7731528  55.6026270 149.7124176 116.3742477  54.4702591
 142.0697314 107.9665578  46.5595939 141.1394902 107.9050033  46.7765901
 142.1654786 107.4441531  45.7632580 141.9882863 104.4920391  49.1474181
 142.2489680 105.4065724  49.0383341 142.8100035 104.0244833  49.2970794
 143.4607788 105.9058148  56.3173005 144.1330842 105.6975510  55.6685654
 142.6337575 105.7080234  55.8778238 149.3633360 102.5320089  58.3338666
 148.7161275 103.2310038  58.2403143 150.1334376 102.9656233  58.7014914
 152.7712158 112.7968941  61.4089219 152.6197665 112.5679493  60.4919303
 152.7616838 113.7539542  61.4220564 149.5397495 110.3700854  56.3935486
 150.4689555 110.5212013  56.2204453 149.1188525 110.4584874  55.5384132
 148.3385826 114.3951518  54.1634023 148.1996912 114.0270302  55.0359962
 147.5500423 114.9099157  53.9917981 148.9333978 119.4960614  45.5059560
 149.1085734 119.0248658  46.3205183 148.2466766 120.1226381  45.7340821
 149.8891041 113.7733121  51.5522861 149.5540874 113.7333891  52.4480511
 149.3894987 113.1077837  51.0793271 143.8635285 109.1800751  57.0775442
 143.7255083 108.4480990  57.6786981 144.7740209 109.0909651  56.7959630
 152.8250233 111.1189155  41.8259921 152.2079404 110.3935983  41.7292974
 152.3566722 111.8798515  41.4826995 146.4917586 108.8920710  56.5659122
 147.2017205 108.2513902  56.5245740 146.4486894 109.1433605  57.4885303
 154.4804365 115.8288063  59.4865701 154.4216911 115.1447284  58.8196284
 154.8823883 116.5707053  59.0346327 145.2046520 105.8785928  58.3854762
 144.6683877 105.4276666  59.0376358 144.6163228 106.0131837  57.6425226
 143.4995064 122.6449977  52.2799420 143.7391662 123.2768501  52.9578439
 142.6564260 122.2938017  52.5664779 144.6148779 105.3374579  40.9481225
 143.7378245 105.2163380  40.5843472 145.0906532 104.5460658  40.6960114
 154.4821772 113.7927647  57.7179681 153.5948551 113.4553569  57.8406080
 155.0520323 113.0610679  57.9548446 136.1350919 110.1251739  51.0422732
 136.8221959 109.8113469  50.4543748 135.9799048 111.0293104  50.7689984
 140.9385641 105.0141936  55.4707756 140.8543830 104.4067605  54.7358166
 140.1168348 105.5050954  55.4717252 148.0122925 118.4529100  54.6840924
 147.9393097 119.2584071  55.1960229 147.5700319 118.6521066  53.8588946
 147.8012705 117.6900870  48.1943746 147.0180227 118.2322550  48.2881970
 148.5005450 118.2074849  48.5937987 151.1109355 103.4995499  50.8377951
 151.6078055 102.7465462  50.5179021 150.3396337 103.5359816  50.2721160
 150.4721609 118.3515934  56.8399083 151.1849581 118.9863399  56.7674984
 149.9811638 118.4479800  56.0239085 152.1939136 112.2567186  48.4116374
 151.2595415 112.3768649  48.2421079 152.3715804 111.3539653  48.1476384
 147.6944324 105.6412882  50.5649636 147.3242111 105.0883923  51.2530541
 148.1903416 105.0371016  50.0124636 155.5811687 108.0984506  48.9466409
 156.0472139 108.9312497  48.8726711 156.0319188 107.6329487  49.6511667
 145.5233522 116.1010377  57.6604654 146.2242982 116.7346860  57.8134048
 145.0528637 116.4425109  56.9000293 153.6487918 114.4428327  45.9452561
 153.9247762 114.3284922  46.8546435 152.7792417 114.0445812  45.9064734
 153.5528350 100.4665093  52.9857310 152.6391430 100.6969320  53.1539517
 153.9821451 100.5503537  53.8371342 153.3234808 108.6554985  55.4857204
 152.6706259 108.9030892  54.8309657 153.7015188 107.8419123  55.1519681
 150.2841982 118.6914678  49.5885374 150.4664377 117.8736334  50.0513127
 151.1074968 118.9082370  49.1510264 150.6184148 117.6182863  46.8500423
 151.1471914 117.1075318  46.2370585 150.8812367 117.3025393  47.7145956
 149.3722381 109.3974796  61.9723241 148.6963018 109.2968925  62.6425616
 150.1950015 109.2414009  62.4359238 141.1201241 115.6346732  54.5935756
 141.7054677 114.8890420  54.7263661 140.9226079 115.9450689  55.4772420
 143.9739896 118.6697980  49.6098199 143.3050271 119.1544107  49.1262239
 143.8352765 118.9167200  50.5241577 135.7118895 108.2052332  53.3140199
 135.7502995 107.6715923  54.1077318 135.2059188 107.6787538  52.6951177
 148.1145164 120.7041723  56.2080857 148.6663472 120.8673345  56.9729942
 148.4551358 121.2946161  55.5360882 143.0909658 103.0516873  56.8102742
 143.1550984 103.9131704  56.3980139 143.0276778 102.4390875  56.0775100
 142.5661930 105.1240006  60.4575776 143.1933969 104.7417083  61.0713300
 141.7089849 104.9054207  60.8231469 152.9656039 115.5302981  62.0629511
 153.5095943 116.1432939  61.5684466 152.3842883 116.0882559  62.5796524
 139.3427473 106.9316435  46.3894131 139.6380914 106.0227113  46.3361185
 138.4415509 106.9104174  46.0675133 151.2513552 118.6523699  53.1944539
 151.1264691 117.8513439  52.6855485 151.9092643 119.1469892  52.7058509
 142.8721720 105.0072431  52.3721679 142.1508306 105.6208399  52.2329153
 143.6614976 105.5430196  52.2938325 153.3148460 116.4532719  54.8224089
 152.3678796 116.3338070  54.7502416 153.6631233 115.5655217  54.9050351
 145.6748033 102.3426858  58.6462331 146.1982435 102.5889154  59.4088641
 145.4560367 103.1746892  58.2265469 141.0715314 104.6130532  46.5133456
 140.7428021 103.7327911  46.3308562 141.4254685 104.5578201  47.4009845
 150.3194893 116.2485435  51.0228442 150.1719856 115.3202142  51.2036012
 151.1448387 116.2705526  50.5385517 144.1857138 104.9003502  46.8808934
 144.5253210 105.4289423  46.1587542 144.6329258 105.2383908  47.6567500
 153.9229015 117.0713994  52.1093314 154.8475563 116.8656855  51.9717765
 153.7544319 116.8230395  53.0182656 146.8800578 103.2840553  56.3312002
 146.5397399 102.4848366  56.7332682 146.1739585 103.5842264  55.7588835
 147.5317050 100.3689865  54.7839325 148.3543120  99.8950343  54.6618215
 147.7755114 101.1480349  55.2838011 146.1725285 103.3978124  45.0802226
 146.8933647 103.7759376  44.5765943 145.5490589 104.1167000  45.1837204
 150.3156408 104.1023273  46.0160559 150.5320022 104.9847911  45.7149387
 149.8350475 103.7109486  45.2866201 145.0555629 107.0608986  52.5931303
 144.9100210 107.3749289  53.4855585 144.5780833 107.6793886  52.0402202
 146.9152012 104.0511534  52.6412193 146.9013581 103.1552627  52.3044491
 147.6324440 104.0582198  53.2750479 148.7678143 104.4848874  54.6865320
 148.5095920 105.4065945  54.6849651 148.2363183 104.0879309  55.3765784
 153.7124331 117.5899661  47.4655406 153.8861209 117.0246084  46.7129258
 154.2053223 118.3900556  47.2834896 139.5301291 109.6014330  55.5318965
 138.9854759 110.3774138  55.6639239 140.4080641 109.9485135  55.3738086
 146.3188908 102.9325914  47.9099763 146.4404819 102.0042560  48.1090651
 146.0290950 102.9464600  46.9978078 149.1880098 100.6180825  51.0466483
 149.2101795 100.6820158  50.0918462 149.6048157  99.7785333  51.2406989
 154.6999504 116.9066426  44.5652304 155.3950408 117.5273118  44.7839619
 155.0422654 116.0561777  44.8404682 140.3167313 108.7284227  58.4249121
 139.5749049 108.8766862  59.0113752 139.9960057 108.9892492  57.5615871
 148.2610976 118.2700205  58.2229511 148.5698102 118.0249352  59.0952211
 149.0586458 118.4746843  57.7348382 148.2831588 120.4238114  50.4534888
 147.8436578 119.9314493  51.1467745 149.0339705 119.8811082  50.2126963
 140.7623927 116.6149655  50.4559516 141.5881947 116.3153427  50.0758160
 140.4117979 115.8457278  50.9049305 145.7305460 115.9676123  52.5257190
 145.1085469 115.3046828  52.2259418 146.4010327 115.9937255  51.8430837
 138.9632532 114.5335982  51.4148450 138.1264440 114.1058156  51.2332451
 138.9356177 114.7268425  52.3519241 145.8029987 104.4457911  62.1189696
 145.8518143 105.3220034  61.7367465 146.3452502 103.9035305  61.5461339
 156.2884833 114.9899035  61.3990833 155.4980377 114.9723174  60.8595332
 156.0518188 115.5287328  62.1539869 156.4082708 111.8391501  58.7123561
 156.4580713 111.6741509  59.6539084 156.2996631 110.9718760  58.3221442
 145.2918967 114.5180047  46.0015650 145.4407087 115.2015511  45.3482323
 146.0985410 114.4985137  46.5165106 153.6986470 107.8222429  60.0282868
 154.5996333 107.6828894  59.7366866 153.7734445 107.9876884  60.9681045
 148.0329276 105.1989284  58.8736054 147.1632585 105.4922850  58.6018643
 148.2688756 105.7829729  59.5943318 156.1588093 109.3821057  57.4245641
 156.6342215 109.5748704  56.6164492 155.2353659 109.4380243  57.1789024
 143.0471600 110.5445224  47.0076719 142.8017642 109.6407554  47.2056929
 143.2167514 110.5462375  46.0656197 150.7368310 101.4168901  56.3901475
 151.2550253 102.1529928  56.0647963 150.3823442 101.7232894  57.2248234
 142.3167247 106.2773582  44.5062881 141.6236492 106.3517937  43.8502917
 142.0718999 105.5133926  45.0284397 150.9880904  97.8369183  51.9102371
 151.2682658  97.1692372  52.5362798 151.7731511  98.0298279  51.3977035
 148.7914372 117.0128177  43.4727398 148.2188339 117.6318364  43.0197869
 149.3647166 117.5627539  44.0067320 154.8589762 106.2586817  55.6573946
 155.8107185 106.3584915  55.6786170 154.6893213 105.4665086  56.1672031
 152.8804142 103.3442401  55.8433347 152.2854074 103.6247413  55.1479836
 152.5953838 103.8336301  56.6150088 152.0111632 117.2965327  44.6035980
 152.9442305 117.2310889  44.8068855 151.9234845 118.1321594  44.1450513
 154.6399649 116.6131198  41.5639927 154.5613280 116.2791061  42.4575685
 155.4609316 117.1052966  41.5631400 149.1761171 108.3488990  40.8143450
 150.1220276 108.2195198  40.8831868 148.7975416 107.6103652  41.2912878
 155.1483055 100.0144996  50.7770342 154.9507876  99.7060084  51.6613674
 155.7582761 100.7406635  50.9068272 149.0599863 112.4006736  62.2744107
 149.9802873 112.5785335  62.4684154 149.0249446 111.4562781  62.1223806
 147.3604088 106.2738966  40.7498335 146.4535543 105.9772079  40.8261049
 147.6380069 105.9768784  39.8832622 138.2782028 107.5945330  51.1997382
 137.9584813 106.7410638  50.9071756 137.7315457 107.8093908  51.9555349
 142.0561936 110.3107771  54.9166888 142.2747946 111.2424879  54.9354922
 142.4687710 109.9515745  55.7021692 148.9766154 100.8175856  46.9042577
 148.1666882 100.4722941  47.2797823 149.6650571 100.5083400  47.4930188
 150.9056702  99.8953903  48.5266873 151.4587741 100.3149356  49.1856896
 151.1426788  98.9689651  48.5689829 146.9289801 105.8840977  64.3069637
 146.8286528 106.8335334  64.2381728 146.7111343 105.5559215  63.4345707
 146.1302873 103.1325902  40.8910315 146.9922037 103.4580800  41.1506132
 146.3153217 102.3457398  40.3783380 138.1470288 111.2148241  53.1690503
 137.4533760 110.8002194  52.6560458 138.8943279 111.2568778  52.5723922
 154.2835509 102.0054428  48.0345538 153.7034178 102.6639232  47.6523590
 154.0171442 101.1831773  47.6232955 152.7339075 101.4059486  50.2366858
 153.2338854 101.5176020  49.4281177 153.3774683 101.1020539  50.8767666
 146.7921071 109.3138115  63.1234699 146.3088153 110.1138476  63.3298588
 146.8782010 109.3246060  62.1702143 140.0607031 111.1466495  51.0456518
 140.0377719 111.2454182  50.0938401 140.3707667 111.9931646  51.3673684
 142.7194409 113.2042650  55.1603133 143.6737662 113.1726592  55.0933064
 142.5206932 112.7433274  55.9753359 143.3093791 111.7743766  57.7273930
 144.1286680 112.2687845  57.7508768 143.5830599 110.8575734  57.6991498
 153.0660387 104.1654518  47.0901886 152.1786242 104.4504169  46.8722081
 153.4814376 104.0048282  46.2429163 141.0744638 118.7462270  52.1773330
 140.9399105 117.9862670  51.6111329 140.6576700 119.4703169  51.7102119
 152.2103601 113.9299193  41.1849906 152.9139451 114.1349196  41.8007561
 151.4866249 114.4975955  41.4498989 153.0401411 109.6809054  47.3052176
 152.9836612 110.1377606  46.4659808 153.5929753 108.9199739  47.1275019
 144.2313763 119.6431587  52.3891773 144.1146148 120.5877019  52.2870463
 143.4106210 119.3405148  52.7777572 154.1190298 114.3681722  43.2348366
 154.9535902 113.9362921  43.0525841 153.9574641 114.1963736  44.1625260
 153.7736190 110.8713836  44.6004705 153.7184994 110.7058107  43.6593149
 153.1482245 111.5789869  44.7566895 138.5628705 106.1081900  58.4266127
 139.2087569 105.5980854  58.9153353 138.3545856 106.8450582  59.0009553
 151.0882097 113.1762747  63.9258268 151.9573257 113.3503400  63.5644903
 150.6088849 113.9957164  63.8033997 147.0832316 100.3721945  44.1790024
 147.0710985 101.3163785  44.3358294 147.9755737 100.1892090  43.8849485
 145.2568278 120.2959848  55.6047702 146.1595524 120.3283459  55.9214197
 145.0305648 119.3660299  55.6194037 147.0121880 119.0490835  52.2657780
 146.0617511 119.0492697  52.1522152 147.3154366 118.3023570  51.7493815
 150.8984435  96.9664721  48.4335960 150.1316831  96.4123208  48.5792643
 151.3095140  97.0386590  49.2950112 142.9026196 103.2549517  62.5241142
 143.7657658 102.8986322  62.7344466 142.3291607 102.9163412  63.2116546
 155.4151095 126.6914278  49.2561958 154.8515960 126.6004215  48.4878246
 155.3003490 125.8714182  49.7364451 152.9615527 128.1865470  52.0946179
 153.7536819 127.8456294  51.6792478 153.2012177 128.2960445  53.0148332
 154.9206281 127.4474383  44.9663557 155.6937157 126.9003370  44.8276433
 155.2731680 128.3118632  45.1778019 155.1693690 124.9125977  51.2016955
 154.2444186 124.7802192  51.4094647 155.4178103 125.6920197  51.6986897
 152.5302501 124.5559251  52.0360744 152.6594882 124.8093730  52.9500156
 151.8499952 125.1486959  51.7165399 155.6901788 127.1946040  52.9084851
 156.2603145 127.6233309  52.2702335 156.2809899 126.9128625  53.6069036
 156.1826954 122.3609468  61.1545862 155.5525615 123.0425749  61.3881259
 156.0763042 122.2492550  60.2099000 151.4771927 122.0281264  52.0811786
 150.6870981 122.2838792  51.6051897 151.9683174 122.8429602  52.1863827
 153.4286672 122.3925843  49.0395263 152.6317835 122.5044537  49.5578759
 153.2012264 122.7312495  48.1736153 149.7609630 122.2811754  54.5126777
 150.0117668 123.1658764  54.7784353 150.2969178 122.1016356  53.7401869
 155.4607697 116.6630234  63.5171113 155.0674642 116.1096432  64.1918757
 156.2773837 116.9740812  63.9077631 152.4269755 128.1014092  47.4284683
 152.9394275 128.8957342  47.5790248 153.0792467 127.4040382  47.3618284
 154.2364639 131.2179848  49.5107436 154.4131268 132.1397813  49.3228420
 155.0321473 130.9038267  49.9401816 153.5216996 123.2644480  59.3869599
 153.4070511 122.3629737  59.6876698 152.6661514 123.5108177  59.0354416
 155.3595955 132.7358022  55.5117778 155.9103380 132.6075085  54.7394772
 154.5207431 133.0352911  55.1612671 150.3918671 126.4302746  48.2044254
 151.2293893 126.8399755  47.9877961 150.5696939 125.4902188  48.1744447
 155.2534566 118.7914809  49.7287433 155.8278318 118.5689990  48.9960626
 155.8405549 118.8603503  50.4816034 155.5804153 120.8219270  43.7483318
 154.7441466 121.1593956  44.0692593 155.4408923 120.6868249  42.8110455
 150.4144843 123.7693462  48.8754987 150.2169242 123.1762822  48.1506054
 149.8591507 123.4645672  49.5930926 155.8248001 119.8511983  54.3701194
 156.4647380 119.7100742  53.6724157 154.9925531 119.5646497  53.9939796
 152.9091068 123.2957495  46.5595939 151.9788656 123.2341951  46.7765901
 153.0048540 122.7733448  45.7632580 152.8276617 119.8212308  49.1474181
 153.0883435 120.7357642  49.0383341 153.6493790 119.3536751  49.2970794
 154.3001543 121.2350065  56.3173005 154.9724596 121.0267428  55.6685654
 153.4731329 121.0372151  55.8778238 154.7029040 124.5092668  57.0775442
 154.5648838 123.7772907  57.6786981 155.6133963 124.4201569  56.7959630
 156.0440275 121.2077846  58.3854762 155.5077632 120.7568584  59.0376358
 155.4556983 121.3423754  57.6425226 155.4542533 120.6666497  40.9481225
 154.5772000 120.5455298  40.5843472 155.9300287 119.8752575  40.6960114
 146.9744674 125.4543657  51.0422732 147.6615713 125.1405387  50.4543748
 146.8192802 126.3585021  50.7689984 151.7779396 120.3433853  55.4707756
 151.6937584 119.7359523  54.7358166 150.9562102 120.8342872  55.4717252
 151.9594995 130.9638650  54.5935756 152.5448432 130.2182338  54.7263661
 151.7619833 131.2742607  55.4772420 154.8133650 133.9989897  49.6098199
 154.1444025 134.4836025  49.1262239 154.6746520 134.2459118  50.5241577
 146.5512650 123.5344250  53.3140199 146.5896749 123.0007841  54.1077318
 146.0452943 123.0079456  52.6951177 153.9303412 118.3808791  56.8102742
 153.9944739 119.2423622  56.3980139 153.8670532 117.7682792  56.0775100
 153.4055685 120.4531923  60.4575776 154.0327723 120.0709000  61.0713300
 152.5483603 120.2346125  60.8231469 150.1821227 122.2608352  46.3894131
 150.4774668 121.3519031  46.3361185 149.2809263 122.2396092  46.0675133
 153.7115474 120.3364349  52.3721679 152.9902060 120.9500317  52.2329153
 154.5008730 120.8722114  52.2938325 151.9109069 119.9422450  46.5133456
 151.5821775 119.0619829  46.3308562 152.2648440 119.8870119  47.4009845
 155.0250892 120.2295420  46.8808934 155.3646965 120.7581341  46.1587542
 155.4723013 120.5675826  47.6567500 155.8949383 122.3900904  52.5931303
 155.7493964 122.7041207  53.4855585 155.4174587 123.0085804  52.0402202
 150.3695046 124.9306248  55.5318965 149.8248514 125.7066056  55.6639239
 151.2474396 125.2777052  55.3738086 151.1561068 124.0576144  58.4249121
 150.4142804 124.2058780  59.0113752 150.8353812 124.3184410  57.5615871
 151.6017681 131.9441573  50.4559516 152.4275701 131.6445345  50.0758160
 151.2511733 131.1749195  50.9049305 149.8026286 129.8627899  51.4148450
 148.9658195 129.4350074  51.2332451 149.7749932 130.0560343  52.3519241
 153.8865354 125.8737142  47.0076719 153.6411396 124.9699472  47.2056929
 154.0561269 125.8754293  46.0656197 153.1561002 121.6065500  44.5062881
 152.4630247 121.6809855  43.8502917 152.9112754 120.8425843  45.0284397
 149.1175783 122.9237247  51.1997382 148.7978567 122.0702556  50.9071756
 148.5709211 123.1385826  51.9555349 152.8955690 125.6399688  54.9166888
 153.1141700 126.5716796  54.9354922 153.3081464 125.2807663  55.7021692
 148.9864043 126.5440159  53.1690503 148.2927514 126.1294112  52.6560458
 149.7337034 126.5860695  52.5723922 150.9000785 126.4758413  51.0456518
 150.8771473 126.5746100  50.0938401 151.2101422 127.3223564  51.3673684
 153.5588163 128.5334568  55.1603133 154.5131417 128.5018510  55.0933064
 153.3600687 128.0725192  55.9753359 154.1487545 127.1035684  57.7273930
 154.9680434 127.5979762  57.7508768 154.4224353 126.1867652  57.6991498
 151.9138392 134.0754187  52.1773330 151.7792860 133.3154588  51.6111329
 151.4970454 134.7995087  51.7102119 149.4022460 121.4373818  58.4266127
 150.0481323 120.9272772  58.9153353 149.1939611 122.1742499  59.0009553
 153.7419951 118.5841435  62.5241142 154.6051412 118.2278240  62.7344466
 153.1685361 118.2455330  63.2116546  67.6238783  -7.6531324  39.0044727
  67.8635382  -7.0212800  39.6823745  66.7807980  -8.0043284  39.2910086
  77.0859247  -2.1115832  38.8191485  77.8780539  -2.4525007  38.4037785
  77.3255897  -2.0020857  39.7393639  85.1194374   0.0603945  31.2921730
  84.4682353   0.6458025  30.9055744  85.9138736   0.5910139  31.3516767
  79.0450001  -2.8506918  31.6908864  79.8180877  -3.3977931  31.5521740
  79.3975400  -1.9862669  31.9023325  80.8835043  -1.5230536  44.8975763
  80.5924909  -0.6184905  44.7822430  81.5192028  -1.4814008  45.6119833
  80.8245708   4.9275200  34.8596525  80.7469738   5.8783025  34.9385005
  80.2207352   4.5821072  35.5171451  83.3836059  -1.3810755  43.7123084
  83.4480492  -0.9190348  44.5481256  82.6746983  -2.0113390  43.8405394
  83.0984077   0.2857353  33.5802065  82.9629752   1.1308888  34.0086912
  83.6393890   0.4876630  32.8167998  76.5513474  -2.1967209  34.1529990
  77.0637995  -1.4023959  34.3035554  77.2036187  -2.8940919  34.0863591
  78.3608359   0.9198547  36.2352743  78.5374987   1.8416512  36.0473727
  79.1565193   0.6056966  36.6647123  84.7252553   0.9080919  47.7102407
  84.2816408   0.1217298  47.3923311  85.3869767   1.0960070  47.0446297
  79.4839675   2.4376721  42.2363085  80.0347100   2.3093784  41.4640079
  78.6451151   2.7371610  41.8857978  86.8233792   1.1883719  45.7383808
  86.8052267   2.0092600  45.2464077  87.7453712   1.0637794  45.9633949
  74.5162391  -3.8678555  34.9289560  75.3537613  -3.4581547  34.7123268
  74.6940659  -4.8079113  34.8989754  85.6980237   4.3591559  30.0157787
  85.0241936   4.6623255  30.6242745  86.0846059   5.1620639  29.6663245
  87.6452599   1.1989732  36.3226077  87.9375573   1.7594790  35.6038443
  88.1551219   1.4918293  37.0779236  82.6086224   1.9770084  37.4119530
  82.5662403   2.2030930  36.4828062  83.5248923   1.7433458  37.5605331
  80.7252025  -1.1466887  37.2081493  81.5192623  -1.6416567  37.0064068
  80.0143717  -1.6749024  36.8449199  85.5446869   1.2351208  41.5593861
  85.5983891   1.8042144  42.3271577  84.6761650   1.4053093  41.1947898
  83.3023301  -0.5737865  40.8879330  83.1634386  -0.9419081  41.7605268
  82.5137897  -0.0590226  40.7163288  83.8971453   4.5271231  32.2304867
  84.0723208   4.0559274  33.0450489  83.2104241   5.1536997  32.4586127
  89.4441839   0.8598680  46.2111008  89.3854385   0.1757900  45.5441591
  89.8461357   1.6017670  45.7591634  78.4632538   7.6760594  39.0044727
  78.7029136   8.3079118  39.6823745  77.6201734   7.3248634  39.2910086
  71.0988393  -4.8437644  37.7668039  71.7859433  -5.1575914  37.1789054
  70.9436522  -3.9396280  37.4935290  82.9760400   3.4839716  41.4086231
  82.9030571   4.2894688  41.9205535  82.5337793   3.6831682  40.5834252
  82.7650179   2.7211486  34.9189052  81.9817701   3.2633166  35.0127277
  83.4642925   3.2385466  35.3183294  85.4359083   3.3826550  43.5644389
  86.1487055   4.0174015  43.4920291  84.9449112   3.4790416  42.7484391
  80.4870997   1.1320994  44.3849960  81.1880456   1.7657477  44.5379354
  80.0166112   1.4735725  43.6245600  85.2479457   3.7225294  36.3130681
  85.4301851   2.9046950  36.7758433  86.0712443   3.9392987  35.8755571
  85.5821622   2.6493479  33.5745729  86.1109389   2.1385934  32.9615891
  85.8449842   2.3336010  34.4391262  76.0838715   0.6657349  41.3181063
  76.6692152  -0.0798963  41.4508967  75.8863553   0.9761305  42.2017727
  78.9377370   3.7008596  36.3343505  78.2687745   4.1854724  35.8507545
  78.7990240   3.9477817  37.2486884  83.0782639   5.7352340  42.9326164
  83.6300947   5.8983961  43.6975249  83.4188832   6.3256778  42.2606189
  87.9293513   0.5613597  48.7874818  88.4733417   1.1743555  48.2929773
  87.3480358   1.1193176  49.3041831  86.2151026   3.6834315  39.9189846
  86.0902165   2.8824055  39.4100791  86.8730117   4.1780509  39.4303816
  88.2785934   1.4843335  41.5469396  87.3316270   1.3648686  41.4747723
  88.6268707   0.5965833  41.6295657  85.2832368   1.2796052  37.7473748
  85.1357330   0.3512759  37.9281318  86.1085861   1.3016142  37.2630823
  88.8866489   2.1024610  38.8338621  89.8113037   1.8967472  38.6963072
  88.7181793   1.8541011  39.7427962  88.6761806   2.6210278  34.1900712
  88.8498683   2.0556700  33.4374565  89.1690697   3.4211173  34.0080202
  89.6636978   1.9377042  31.2897611  90.3587883   2.5583735  31.5084925
  90.0060128   1.0872393  31.5649989  83.2248450   3.3010821  44.9474818
  83.5335576   3.0559968  45.8197518  84.0223932   3.5057460  44.4593688
  83.2469062   5.4548731  37.1780195  82.8074052   4.9625110  37.8713051
  83.9977179   4.9121699  36.9372270  75.7261401   1.6460272  37.1804823
  76.5519421   1.3464044  36.8003466  75.3755453   0.8767894  37.6294611
  80.6942934   0.9986740  39.2502496  80.0722943   0.3357445  38.9504724
  81.3647801   1.0247872  38.5676144  73.9270006  -0.4353402  38.1393756
  73.0901914  -0.8631227  37.9577758  73.8993651  -0.2420958  39.0764547
  80.2556441  -0.4509337  32.7260957  80.4044561   0.2326128  32.0727630
  81.0622885  -0.4704247  33.2410413  83.7551847   2.0438794  30.1972704
  83.1825814   2.6628981  29.7443176  84.3284640   2.5938155  30.7312626
  86.9749106   2.3275944  31.3281287  87.9079780   2.2621506  31.5314162
  86.8872319   3.1632211  30.8695819  89.6037123   1.6441814  28.2885234
  89.5250755   1.3101678  29.1820992  90.4246790   2.1363582  28.2876706
  73.1107763  -3.7541142  39.8935810  72.4171234  -4.1687189  39.3805764
  73.8580754  -3.7120606  39.2969229  75.0244505  -3.8222888  37.7701825
  75.0015193  -3.7235201  36.8183708  75.3345142  -2.9757738  38.0918991
  77.6831883  -1.7646733  41.8848439  78.6375137  -1.7962791  41.8178371
  77.4844407  -2.2256110  42.6998665  76.0382112   3.7772886  38.9018637
  75.9036580   3.0173287  38.3356635  75.6214174   4.5013786  38.4347426
  79.1951238   4.6742203  39.1137080  79.0783622   5.6187636  39.0115770
  78.3743684   4.3715765  39.5022879  80.2205752   5.3270465  42.3293008
  81.1232999   5.3594075  42.6459503  79.9943122   4.3970916  42.3439344
  81.9759354   4.0801452  38.9903087  81.0254985   4.0803313  38.8767459
  82.2791840   3.3334186  38.4739121  97.7112047   9.9161990  40.0548849
  98.3490457   9.7968737  39.3512189  97.5932890  10.8642834  40.1136801
  94.5201754   9.8689418  39.9910374  94.1820265   9.7530483  39.1030909
  95.3891522   9.4680583  39.9711380  90.3788569  11.7224894  35.9807265
  89.8153434  11.6314831  35.2123553  90.2640964  10.9024799  36.4609757
  95.0021537  11.0224270  45.9496579  94.9910177  10.6277068  45.0777083
  95.1642176  10.2890342  46.5430351  87.9253001  13.2176086  38.8191485
  88.7174293  12.8766911  38.4037785  88.1649651  13.3271061  39.7393639
  95.9588128  15.3895862  31.2921730  95.3076108  15.9749943  30.9055744
  96.7532491  15.9202057  31.3516767  89.8843755  12.4784999  31.6908864
  90.6574631  11.9313986  31.5521740  90.2369154  13.3429249  31.9023325
  91.7228798  13.8061382  44.8975763  91.4318664  14.7107012  44.7822430
  92.3585782  13.8477909  45.6119833  92.6485005  11.1838230  41.4877123
  93.2448577  10.9594253  40.7734086  92.7059976  10.4422976  42.0902571
  92.2210033   8.6377665  29.3227314  92.4735554   8.1159187  28.5610777
  91.2834592   8.4743811  29.4253998  97.2653316   7.6413444  37.1302057
  98.0516405   7.2232867  36.7792474  97.5292020   8.5459536  37.2983706
  97.4363393  13.0786294  31.8290714  96.8009226  13.1520921  32.5411619
  97.1060800  13.6679893  31.1509793 102.6661743   7.5788677  38.0335036
 103.3986915   7.0087894  38.2672865 101.9101099   7.1910277  38.4741541
  91.9406322  10.5405771  31.5251689  91.8242580   9.8650675  32.1932773
  92.0508582  10.0538145  30.7083842  94.2837863  10.0015919  35.2298378
  93.9196070   9.4746539  35.9411300  95.1404979   9.6114388  35.0564864
  93.9243350   5.0305818  30.2259727  94.0917752   5.8986055  30.5930198
  93.7340519   5.1933100  29.3021016  96.6818683  13.4922797  41.8925557
  96.3819406  14.3947836  41.7841364  96.3369742  13.2254980  42.7446710
  90.1331164   9.9436594  37.9262262  89.2081661   9.8112808  38.1339953
  90.3815578  10.7230813  38.4232204 100.0815827   6.0105337  39.5722994
  99.1732704   5.9420746  39.2781755 100.0303422   6.4877282  40.4004820
  93.9032571   7.4863476  31.2106394  93.7832196   7.9320526  32.0491874
  93.2085159   7.8348793  30.6519932  87.4939975   9.5869868  38.7606051
  87.6232357   9.8404346  39.6745462  86.8137427  10.1797576  38.4410706
  91.6639463  20.2567117  34.8596525  91.5863492  21.2074943  34.9385005
  91.0601106  19.9112990  35.5171451  94.1556692   7.4294983  47.5157892
  93.3790026   7.9888903  47.5060756  94.7947255   7.9151766  48.0372762
  99.6017637   7.9584949  32.0386728 100.5135493   8.1912336  31.8634425
  99.0927284   8.5421993  31.4761806  92.4103065  10.2380436  47.0775859
  93.1517749  10.7765480  46.8010682  91.7040050  10.8646725  47.2347410
  97.8858404  12.3809577  45.6748020  98.2941760  11.9391987  44.9302653
  97.1635666  11.8062204  45.9282213  94.2389474   7.3182183  43.0481577
  95.0850670   7.7421597  43.1916226  94.1788112   6.6615808  43.7420140
  98.2087219  12.9410767  39.4300309  97.5796081  13.1056481  38.7276377
  97.8212881  13.3552377  40.2011273 102.0876451  13.8765205  36.7844673
 101.4027489  14.2564107  36.2341706 102.1720300  14.4860532  37.5176621
  97.3888920   4.9786552  44.7062751  97.1449852   5.7328612  44.1697026
  97.6648850   5.3571899  45.5409998  99.3427383  11.5225164  43.3840016
  99.5544278  12.1656924  42.7074397  99.2957131  10.6887481  42.9161946
  96.9453611   4.1342985  40.2876588  96.0838090   4.4324238  40.5793326
  96.9716046   4.3513384  39.3557621  93.7615181  12.6785175  36.6950394
  94.2253526  12.9572878  35.9055017  93.4971979  11.7768620  36.5123485
  90.6539262  12.2256657  39.6330157  91.2240619  12.6543925  38.9947642
  91.2447374  11.9439242  40.3314343  92.6984067   8.8008328  33.5039959
  93.4008110   9.2529371  33.9713886  92.3664695   8.1592147  34.1319852
  91.1464428   7.3920084  47.8791169  90.5163089   8.0736365  48.1126566
  91.0400516   7.2803166  46.9344307  86.4409401   7.0591880  38.8057093
  85.6508455   7.3149409  38.3297203  86.9320648   7.8740218  38.9109133
 100.4573210  14.3997120  41.5562374 101.2790654  13.9977307  41.2745055
 100.4535613  14.2965354  42.5078489  88.3924146   7.4236460  35.7640570
  87.5955310   7.5355154  36.2824065  88.1649738   7.7623112  34.8981460
  94.2229814  13.9481163  43.7123084  94.2874246  14.4101570  44.5481256
  93.5140738  13.3178528  43.8405394  84.7247104   7.3122371  41.2372084
  84.9755142   8.1969381  41.5029660  85.2606652   7.1326972  40.4647175
 108.5479204  10.7435868  37.9047345 107.7942912  10.1743266  37.7491350
 108.6826745  10.7098533  38.8517980  93.9377832  15.6149270  33.5802065
  93.8023506  16.4600806  34.0086912  94.4787644  15.8168548  32.8167998
  90.4245171   1.6940850  50.2416420  90.0312117   1.1407049  50.9164064
  91.2411312   2.0051429  50.6322937  87.3907229  13.1324708  34.1529990
  87.9031750  13.9267959  34.3035554  88.0429942  12.4350999  34.0863591
  89.2002114  16.2490465  36.2352743  89.3768742  17.1708429  36.0473727
  89.9958947  15.9348884  36.6647123  93.3413132   3.1098729  47.8336676
  94.0822846   3.7105883  47.7541139  93.5731055   2.3676367  47.2754719
  88.4854470   8.2955097  46.1114906  88.3707985   7.3940354  46.4122005
  87.6298988   8.5418793  45.7599723  95.5646308  16.2372837  47.7102407
  95.1210162  15.4509215  47.3923311  96.2263522  16.4251987  47.0446297
  90.3233429  17.7668639  42.2363085  90.8740854  17.6385702  41.4640079
  89.4844905  18.0663528  41.8857978  97.6627546  16.5175637  45.7383808
  97.6446021  17.3384518  45.2464077  98.5847466  16.3929712  45.9633949
  94.1200600  14.0319766  46.5807316  94.6528937  13.2708055  46.3506624
  93.5914681  13.7393418  47.3231471  85.3556146  11.4613363  34.9289560
  86.1931368  11.8710371  34.7123268  85.5334413  10.5212805  34.8989754
  97.2520578   9.1288443  30.6173393  96.7367201   9.8993048  30.8561781
  96.9797886   8.4553580  31.2406455  94.8367689   3.9738144  35.6758631
  93.9809285   3.5844995  35.4964270  95.2494641   4.0530105  34.8158417
  92.6109721   1.5923217  39.0816373  93.4762718   1.3966026  38.7222262
  92.6787230   1.3633569  40.0085730 102.2254852  11.8820798  32.5526567
 101.4484295  11.5431958  32.1081729 102.9046333  11.8873421  31.8781532
  97.0406881   7.0015536  32.4433174  96.7357017   7.3161685  33.2943317
  97.9937323   7.0796955  32.4860507  95.4853313  13.1605759  34.0926128
  94.9574674  12.4258518  33.7799366  94.9840816  13.9380435  33.8466097
 100.4646159  11.3554779  39.2093175  99.8069833  12.0454041  39.2973303
 101.2686558  11.7451211  39.5527161  90.2172040   3.8225425  36.4532740
  90.7915792   3.6000607  35.7205933  90.8043023   3.8914120  37.2061341
  99.2751618   9.7099152  37.2597116  99.7883499  10.3429144  37.7618826
  99.9252842   9.1100348  36.8940476  90.5441628   5.8529886  30.4728625
  89.7078940   6.1904573  30.7937900  90.4046397   5.7178866  29.5355762
  93.6305913  10.9785969  27.0961101  92.7232975  10.7475223  27.2952250
  94.1276945  10.1823588  27.2835083  96.5373992  19.6883476  30.0157787
  95.8635691  19.9915173  30.6242745  96.9239814  20.4912557  29.6663245
  95.7532449   7.1848608  39.5055457  94.8355010   7.4063555  39.3477145
  96.1692592   7.2594918  38.6467164  96.5367496   8.5840023  34.6358137
  97.2839315   9.0961420  34.3265259  96.8059086   8.2624076  35.4962531
  94.8094146  11.0798564  31.6185091  93.9005366  10.7957597  31.7157561
  94.8389230  11.4997643  30.7588398 100.0413414  14.6905153  35.3876259
  99.5875741  13.8496063  35.4441449  99.4107381  15.3266552  35.7251039
  98.9846333   5.6197139  36.6176926  98.2469090   5.1074526  36.9487169
  99.2373107   5.1797521  35.8060203  98.4846353  16.5281650  36.3226077
  98.7769328  17.0886707  35.6038443  98.9944974  16.8210211  37.0779236
  85.3782317   8.8004078  35.6000294  85.1806717   8.2073439  34.8751360
  84.8228981   8.4956288  36.3176232  93.3579041   8.6927185  37.7194887
  93.4127650   7.7401021  37.6437363  92.5470243   8.8486624  38.2036185
  94.5070234  12.6207308  28.9573170  94.0689664  11.9043167  28.4978807
  95.2480675  12.8483422  28.3958261  91.2971400   7.3104244  35.4785266
  90.4839266   7.6098415  35.8850458  91.7930395   6.9159933  36.1959748
  93.4479978  17.3062001  37.4119530  93.4056157  17.5322848  36.4828062
  94.3642677  17.0725376  37.5605331  96.8945612   7.7746069  44.3100159
  97.2495000   8.0017542  45.1694625  97.5417743   8.1064446  43.6877415
 102.6243349  10.8964505  35.0149489 102.4861248  11.0866101  34.0870678
 102.2679568  11.6583887  35.4717540  90.7885475   4.8822600  41.0946501
  91.4284855   4.7411359  40.3969464  89.9563006   4.5957113  40.7185103
 102.6512729  12.9641032  40.0260760 103.0849235  12.8716321  40.8743814
 103.3644309  12.9398532  39.3880776  91.5645779  14.1825030  37.2081493
  92.3586378  13.6875350  37.0064068  90.8537471  13.6542893  36.8449199
  96.3840624  16.5643126  41.5593861  96.4377646  17.1334062  42.3271577
  95.5155405  16.7345011  41.1947898  87.8728543   8.3268112  33.2841246
  86.9426131   8.2652567  33.5011208  87.9686015   7.8044065  32.4877887
  87.7914092   4.8522925  35.8719487  88.0520909   5.7668258  35.7628648
  88.6131264   4.3847367  36.0216100  89.2639017   6.2660682  43.0418312
  89.9362070   6.0578044  42.3930961  88.4368803   6.0682768  42.6023544
 103.5128278  13.0064732  42.5593645 103.7064168  13.9110543  42.8052920
 103.4128896  12.5472151  43.3932230  95.1664589   2.8922623  45.0583973
  94.5192504   3.5912573  44.9648449  95.9365604   3.3258767  45.4260221
  98.5743387  13.1571475  48.1334526  98.4228893  12.9282027  47.2164610
  98.5648066  14.1142076  48.1465871  95.3428723  10.7303388  43.1180792
  96.2720783  10.8814547  42.9449760  94.9219753  10.8187409  42.2629439
  94.1417055  14.7554052  40.8879330  94.0028141  14.3872837  41.7605268
  93.3531651  15.2701692  40.7163288  94.7365207  19.8563149  32.2304867
  94.9116963  19.3851192  33.0450489  94.0497995  20.4828915  32.4586127
  95.6922270  14.1335655  38.2768168  95.3572103  14.0936425  39.1725818
  95.1926216  13.4680371  37.8038578  89.6666514   9.5403285  43.8020749
  89.5286312   8.8083524  44.4032288  90.5771438   9.4512185  43.5204937
  98.6281462  11.4791689  28.5505228  98.0110633  10.7538517  28.4538280
  98.1597950  12.2401050  28.2072302  92.2948815   9.2523244  43.2904429
  93.0048433   8.6116436  43.2491047  92.2518123   9.5036139  44.2130609
 100.2835594  16.1890598  46.2111008 100.2248140  15.5049818  45.5441591
 100.6855112  16.9309588  45.7591634  91.0077749   6.2388462  45.1100068
  90.4715106   5.7879201  45.7621664  90.4194457   6.3734371  44.3670533
  89.3026292  23.0052511  39.0044727  89.5422891  23.6371036  39.6823745
  88.4595489  22.6540551  39.2910086  90.4180008   5.6977114  27.6726532
  89.5409474   5.5765914  27.3088778  90.8937761   4.9063192  27.4205420
 100.2853001  14.1530182  44.4424988  99.3979780  13.8156103  44.5651386
 100.8551552  13.4213213  44.6793753  81.9382148  10.4854273  37.7668039
  82.6253188  10.1716003  37.1789054  81.7830277  11.3895638  37.4935290
  86.7416870   5.3744470  42.1953063  86.6575059   4.7670139  41.4603473
  85.9199576   5.8653488  42.1962559  93.8154154  18.8131634  41.4086231
  93.7424326  19.6186605  41.9205535  93.3731547  19.0123600  40.5834252
  93.6043934  18.0503404  34.9189052  92.8211456  18.5925084  35.0127277
  94.3036679  18.5677384  35.3183294  96.9140584   3.8598033  37.5623258
  97.4109283   3.1067996  37.2424328  96.1427565   3.8962350  36.9966467
 104.7670341   9.5638399  39.2041549 104.7560218  10.4463114  38.8335482
 103.8987721   9.2109950  39.0096086  96.2752838  18.7118468  43.5644389
  96.9880810  19.3465933  43.4920291  95.7842866  18.8082334  42.7484391
  97.9970365  12.6169721  35.1361681  97.0626643  12.7371183  34.9666385
  98.1747033  11.7142187  34.8721691  93.4975553   6.0015416  37.2894942
  93.1273340   5.4486457  37.9775848  93.9934645   5.3973550  36.7369942
 101.3842916   8.4587040  35.6711715 101.8503368   9.2915031  35.5972018
 101.8350416   7.9932021  36.3756974  91.3264751  16.4612911  44.3849960
  92.0274211  17.0949394  44.5379354  90.8559866  16.8027643  43.6245600
  99.4519147  14.8030861  32.6697867  99.7278991  14.6887456  33.5791741
  98.5823646  14.4048346  32.6310040  99.1266037   9.0157519  42.2102511
  98.4737487   9.2633426  41.5554963  99.5046417   8.2021657  41.8764988
  96.0873211  19.0517212  36.3130681  96.2695606  18.2338868  36.7758433
  96.9106197  19.2684904  35.8755571  96.4215377  17.9785397  33.5745729
  96.9503143  17.4677852  32.9615891  96.6843596  17.6627927  34.4391262
  95.1753610   9.7577330  48.6968548  94.4994247   9.6571459  49.3670923
  95.9981244   9.6016544  49.1604545  86.9232469  15.9949266  41.3181063
  87.5085906  15.2492954  41.4508967  86.7257308  16.3053223  42.2017727
  89.7771125  19.0300514  36.3343505  89.1081500  19.5146641  35.8507545
  89.6383994  19.2769734  37.2486884  81.5150124   8.5654867  40.0385506
  81.5534224   8.0318457  40.8322624  81.0090417   8.0390072  39.4196483
  93.9176393  21.0644257  42.9326164  94.4694701  21.2275879  43.6975249
  94.2582587  21.6548695  42.2606189  88.8940886   3.4119407  43.5348048
  88.9582213   4.2734238  43.1225446  88.8308007   2.7993409  42.8020407
  88.3693159   5.4842540  47.1821083  88.9965198   5.1019617  47.7958607
  87.5121078   5.2656742  47.5476775  98.7687267  15.8905515  48.7874818
  99.3127171  16.5035473  48.2929773  98.1874112  16.4485093  49.3041831
  85.1458702   7.2918969  33.1139437  85.4412143   6.3829647  33.0606491
  84.2446737   7.2706708  32.7920440  97.0544780  19.0126233  39.9189846
  96.9295920  18.2115973  39.4100791  97.7123872  19.5072426  39.4303816
  88.6752949   5.3674965  39.0966986  87.9539534   5.9810933  38.9574459
  89.4646204   5.9032730  39.0183632  99.1179689  16.8135253  41.5469396
  98.1710024  16.6940604  41.4747723  99.4662462  15.9257751  41.6295657
  91.4779262   2.7029392  45.3707638  92.0013664   2.9491688  46.1333947
  91.2591595   3.5349427  44.9510775  86.8746543   4.9733066  33.2378763
  86.5459249   4.0930445  33.0553869  87.2285914   4.9180735  34.1255152
  96.1226122  16.6087969  37.7473748  95.9751085  15.6804677  37.9281318
  96.9479616  16.6308060  37.2630823  89.9888366   5.2606036  33.6054240
  90.3284439   5.7891958  32.8832849  90.4360487   5.5986442  34.3812807
  99.7260244  17.4316528  38.8338621 100.6506791  17.2259389  38.6963072
  99.5575547  17.1832929  39.7427962  92.6831807   3.6443087  43.0557308
  92.3428628   2.8450900  43.4577988  91.9770813   3.9444798  42.4834142
  91.9756514   3.7580658  31.8047533  92.6964876   4.1361911  31.3011250
  91.3521818   4.4769535  31.9082511  96.1187636   4.4625807  32.7405865
  96.3351251   5.3450445  32.4394694  95.6381704   4.0712020  32.0111507
  90.8586858   7.4211520  39.3176610  90.7131439   7.7351823  40.2100892
  90.3812061   8.0396420  38.7647509  92.7183241   4.4114068  39.3657500
  92.7044809   3.5155161  39.0289798  93.4355669   4.4184732  39.9995786
  94.5709371   4.8451408  41.4110627  94.3127149   5.7668479  41.4094957
  94.0394412   4.4481843  42.1011091  99.5155560  17.9502195  34.1900712
  99.6892438  17.3848618  33.4374565 100.0084451  18.7503090  34.0080202
  85.3332520   9.9616864  42.2564271  84.7885988  10.7376672  42.3884546
  86.2111870  10.3087669  42.0983393  92.1220137   3.2928448  34.6345070
  92.2436048   2.3645095  34.8335957  91.8322179   3.3067134  33.7223385
 105.3694951  10.7138618  35.8091012 105.8126097   9.9645944  35.4110135
 104.4921462  10.7048755  35.4264744 100.5030733  17.2668960  31.2897611
 101.1981637  17.8875652  31.5084925 100.8453883  16.4164311  31.5649989
  86.1198542   9.0886761  45.1494428  85.3780278   9.2369396  45.7359058
  85.7991286   9.3495026  44.2861177 102.4022156  14.7168665  32.8184941
 102.9273480  15.0555938  32.0934261 102.3144508  13.7815681  32.6348076
  94.0642204  18.6302739  44.9474818  94.3729331  18.3851886  45.8197518
  94.8617686  18.8349377  44.4593688  94.0862817  20.7840649  37.1780195
  93.6467807  20.2917027  37.8713051  94.8370933  20.2413616  36.9372270
  86.5655155  16.9752189  37.1804823  87.3913175  16.6755961  36.8003466
  86.2149207  16.2059812  37.6294611  91.5336689  16.3278658  39.2502496
  90.9116698  15.6649363  38.9504724  92.2041556  16.3539790  38.5676144
  84.7663761  14.8938516  38.1393756  83.9295669  14.4660690  37.9577758
  84.7387406  15.0870959  39.0764547  91.6061216   4.8060446  48.8435002
  91.6549372   5.6822569  48.4612772  92.1483730   4.2637839  48.2706646
 102.0916062  15.3501569  48.1236139 101.3011606  15.3325708  47.5840639
 101.8549416  15.8889863  48.8785176 102.2113937  12.1994035  45.4368868
 102.2611942  12.0344043  46.3784391 102.1027860  11.3321294  45.0466749
  91.0950196  14.8782581  32.7260957  91.2438316  15.5618045  32.0727630
  91.9016639  14.8587671  33.2410413  99.5017699   8.1824963  46.7528175
 100.4027562   8.0431428  46.4612172  99.5765674   8.3479418  47.6926352
  93.8360505   5.5591818  45.5981361  92.9663814   5.8525384  45.3263949
  94.0719985   6.1432263  46.3188625 103.7132134  14.6190977  45.6810889
 103.4216942  14.9820957  46.5174350 103.1004265  13.9057985  45.5024222
 104.9127816  12.1843857  38.2013460 105.7474707  12.6233661  38.3651020
 105.0486945  11.7082510  37.3821705 101.9619322   9.7423591  44.1490947
 102.4373444   9.9351238  43.3409799 101.0384887   9.7982777  43.9034331
  88.8502829  10.9047759  33.7322026  88.6048870  10.0010089  33.9302236
  89.0198743  10.9064909  32.7901504  88.1198476   6.6376116  31.2308187
  87.4267721   6.7120471  30.5748223  87.8750228   5.8736460  31.7529704
  94.5945601  17.3730711  30.1972704  94.0219568  17.9920899  29.7443176
  95.1678395  17.9230073  30.7312626 100.6620991   6.6189352  42.3819253
 101.6138414   6.7187449  42.4031477 100.4924441   5.8267620  42.8917337
  98.6835370   3.7044935  42.5678654  98.0885303   3.9849947  41.8725143
  98.3985067   4.1938836  43.3395395  97.8142861  17.6567862  31.3281287
  98.7473534  17.5913423  31.5314162  97.7266074  18.4924128  30.8695819
 100.4430878  16.9733732  28.2885234 100.3644509  16.6393596  29.1820992
 101.2640544  17.4655500  28.2876706 103.1409069   9.8395471  41.4961553
 103.1085389   8.9011472  41.6821237 103.7509692   9.9179508  40.7627378
  94.9792400   8.7091524  27.5388757  95.9251504   8.5797732  27.6077175
  94.6006645   7.9706186  28.0158185 103.2903557   6.6306515  41.5419836
 102.7742606   5.8464971  41.3549765 104.1743506   6.3025231  41.7066355
 108.9585619  10.9011478  40.6367589 109.6889007  10.6396766  41.1975293
 108.3492564  10.1640200  40.6769657 107.0400916   9.0419341  41.2342041
 106.3134079   8.9075306  40.6258532 106.6248203   9.3496169  42.0398759
  94.8631092  12.7609270  48.9989414  95.7834102  12.9387869  49.1929460
  94.8280675  11.8165316  48.8469113  93.1635317   6.6341501  27.4743642
  92.2566772   6.3374613  27.5506356  93.4411298   6.3371319  26.6077928
  84.0813257   7.9547864  37.9242688  83.7616041   7.1013172  37.6317062
  83.5346685   8.1696442  38.6800656  87.8593165  10.6710305  41.6412195
  88.0779174  11.6027413  41.6600229  88.2718938  10.3118279  42.4266999
  92.7321030   6.2443511  51.0314944  92.6317757   7.1937868  50.9627035
  92.5142572   5.9161750  50.1591014  91.9334101   3.4928436  27.6155621
  92.7953265   3.8183334  27.8751439  92.1184446   2.7059932  27.1028687
  83.9501517  11.5750775  39.8935810  83.2564989  11.1604728  39.3805764
  84.6974508  11.6171312  39.2969229  92.5952300   9.6740650  49.8480005
  92.1119382  10.4741010  50.0543894  92.6813239   9.6848594  48.8947449
  85.8638260  11.5069029  37.7701825  85.8408948  11.6056717  36.8183708
  86.1738896  12.3534180  38.0918991  88.5225638  13.5645184  41.8848439
  89.4768891  13.5329127  41.8178371  88.3238161  13.1035808  42.6998665
  89.1125020  12.1346300  44.4519237  89.9317909  12.6290379  44.4754074
  89.3861827  11.2178268  44.4236804  98.8691616   4.5257053  33.8147192
  97.9817471   4.8106703  33.5967387  99.2845605   4.3650816  32.9674469
 102.2206152   4.5503574  37.5301532 102.9966542   5.0400026  37.8026148
 101.4954286   4.9761628  37.9873401  86.8775866  19.1064804  38.9018637
  86.7430334  18.3465205  38.3356635  86.4607929  19.8305704  38.4347426
  98.0134829  14.2901727  27.9095212  98.7170679  14.4951730  28.5252868
  97.2897478  14.8578489  28.1744296  98.8432640  10.0411589  34.0297483
  98.7867841  10.4980140  33.1905115  99.3960982   9.2802273  33.8520325
 102.6537446   5.8301320  34.8547602 102.3974380   5.4297956  35.6855810
 102.0290314   6.5445114  34.7297741 106.9649783   8.5697394  37.3618893
 106.4049341   8.6390583  38.1350456 106.3593287   8.3938378  36.6418390
  90.0344992  20.0034121  39.1137080  89.9177376  20.9479553  39.0115770
  89.2137438  19.7007682  39.5022879  99.9221527  14.7284257  29.9593672
 100.7567131  14.2965455  29.7771147  99.7605870  14.5566270  30.8870567
  99.5767419  11.2316370  31.3250012  99.5216223  11.0660641  30.3838456
  98.9513474  11.9392403  31.4812201  84.3659934   6.4684434  45.1511434
  85.0118798   5.9583388  45.6398659  84.1577085   7.2053116  45.7254859
  96.8913326  13.5365282  50.6503575  97.7604486  13.7105934  50.2890209
  96.4120078  14.3559699  50.5279304  91.0599506  20.6562383  42.3293008
  91.9626753  20.6885993  42.6459503  90.8336876  19.7262834  42.3439344
  92.8153108  19.4093369  38.9903087  91.8648739  19.4095231  38.8767459
  93.1185594  18.6626104  38.4739121  88.7057425   3.6152051  49.2486448
  89.5688886   3.2588856  49.4589773  88.1322836   3.2765946  49.9361852
 108.5505802  25.2453908  40.0548849 109.1884212  25.1260655  39.3512189
 108.4326645  26.1934752  40.1136801 105.3595508  25.1981336  39.9910374
 105.0214020  25.0822400  39.1030909 106.2285276  24.7972501  39.9711380
 101.2182324  27.0516812  35.9807265 100.6547189  26.9606749  35.2123553
 101.1034719  26.2316717  36.4609757 105.8415291  26.3516187  45.9496579
 105.8303932  25.9568986  45.0777083 106.0035931  25.6182260  46.5430351
  98.7646756  28.5468004  38.8191485  99.5568048  28.2058828  38.4037785
  99.0043406  28.6562979  39.7393639 106.7981883  30.7187780  31.2921730
 106.1469862  31.3041860  30.9055744 107.5926245  31.2493975  31.3516767
 100.7237510  27.8076917  31.6908864 101.4968386  27.2605904  31.5521740
 101.0762909  28.6721166  31.9023325 102.5622552  29.1353299  44.8975763
 102.2712418  30.0398930  44.7822430 103.1979537  29.1769827  45.6119833
 103.4878759  26.5130148  41.4877123 104.0842331  26.2886170  40.7734086
 103.5453731  25.7714893  42.0902571 103.0603788  23.9669583  29.3227314
 103.3129308  23.4451104  28.5610777 102.1228347  23.8035729  29.4253998
 108.1047070  22.9705361  37.1302057 108.8910160  22.5524785  36.7792474
 108.3685775  23.8751454  37.2983706 108.2757148  28.4078212  31.8290714
 107.6402981  28.4812838  32.5411619 107.9454554  28.9971811  31.1509793
 113.5055497  22.9080595  38.0335036 114.2380669  22.3379812  38.2672865
 112.7494853  22.5202195  38.4741541 102.7800076  25.8697689  31.5251689
 102.6636334  25.1942592  32.1932773 102.8902336  25.3830063  30.7083842
 105.1231617  25.3307836  35.2298378 104.7589824  24.8038457  35.9411300
 105.9798733  24.9406305  35.0564864 111.0280918  16.6202169  42.4929644
 110.6964243  17.4897580  42.2690859 110.4326531  16.3038453  43.1723675
 104.7637104  20.3597736  30.2259727 104.9311506  21.2277972  30.5930198
 104.5734273  20.5225018  29.3021016 107.5212437  28.8214715  41.8925557
 107.2213160  29.7239754  41.7841364 107.1763497  28.5546898  42.7446710
 100.9724919  25.2728512  37.9262262 100.0475415  25.1404726  38.1339953
 101.2209332  26.0522731  38.4232204 110.9209581  21.3397255  39.5722994
 110.0126458  21.2712663  39.2781755 110.8697177  21.8169200  40.4004820
 104.7426325  22.8155393  31.2106394 104.6225950  23.2612444  32.0491874
 104.0478913  23.1640711  30.6519932  98.3333730  24.9161785  38.7606051
  98.4626111  25.1696264  39.6745462  97.6531181  25.5089493  38.4410706
 102.5033217  35.5859035  34.8596525 102.4257247  36.5366860  34.9385005
 101.8994861  35.2404908  35.5171451 104.9950447  22.7586901  47.5157892
 104.2183781  23.3180821  47.5060756 105.6341010  23.2443684  48.0372762
 112.7871228  19.5413693  41.3500868 112.1445608  19.8346227  40.7040663
 112.2826156  19.4266614  42.1554065 110.4411391  23.2876867  32.0386728
 111.3529247  23.5204253  31.8634425 109.9321038  23.8713911  31.4761806
 103.2496819  25.5672354  47.0775859 103.9911504  26.1057398  46.8010682
 102.5433805  26.1938643  47.2347410 108.7252159  27.7101494  45.6748020
 109.1335515  27.2683905  44.9302653 108.0029420  27.1354122  45.9282213
 105.0783229  22.6474101  43.0481577 105.9244424  23.0713515  43.1916226
 105.0181867  21.9907725  43.7420140 109.0480973  28.2702685  39.4300309
 108.4189836  28.4348399  38.7276377 108.6606636  28.6844295  40.2011273
 112.9270205  29.2057123  36.7844673 112.2421244  29.5856024  36.2341706
 113.0114055  29.8152450  37.5176621 108.2282674  20.3078470  44.7062751
 107.9843606  21.0620530  44.1697026 108.5042605  20.6863817  45.5409998
 110.1821137  26.8517082  43.3840016 110.3938032  27.4948842  42.7074397
 110.1350885  26.0179398  42.9161946 107.7847366  19.4634903  40.2876588
 106.9231845  19.7616156  40.5793326 107.8109801  19.6805301  39.3557621
 104.6008935  28.0077093  36.6950394 105.0647281  28.2864796  35.9055017
 104.3365733  27.1060538  36.5123485 101.4933016  27.5548575  39.6330157
 102.0634373  27.9835843  38.9947642 102.0841128  27.2731159  40.3314343
 103.5377821  24.1300245  33.5039959 104.2401865  24.5821289  33.9713886
 103.2058450  23.4884064  34.1319852 101.9858183  22.7212002  47.8791169
 101.3556844  23.4028283  48.1126566 101.8794271  22.6095084  46.9344307
  97.2803155  22.3883798  38.8057093  96.4902209  22.6441327  38.3297203
  97.7714403  23.2032136  38.9109133 111.2966965  29.7289037  41.5562374
 112.1184409  29.3269225  41.2745055 111.2929368  29.6257271  42.5078489
  99.2317901  22.7528377  35.7640570  98.4349064  22.8647072  36.2824065
  99.0043493  23.0915030  34.8981460 105.0623568  29.2773081  43.7123084
 105.1268001  29.7393488  44.5481256 104.3534492  28.6470446  43.8405394
  95.5640858  22.6414289  41.2372084  95.8148897  23.5261299  41.5029660
  96.1000407  22.4618890  40.4647175 119.3872958  26.0727786  37.9047345
 118.6336666  25.5035184  37.7491350 119.5220499  26.0390450  38.8517980
 104.7771586  30.9441188  33.5802065 104.6417261  31.7892724  34.0086912
 105.3181399  31.1460466  32.8167998 101.2638926  17.0232768  50.2416420
 100.8705871  16.4698967  50.9164064 102.0805066  17.3343346  50.6322937
  98.2300983  28.4616626  34.1529990  98.7425504  29.2559876  34.3035554
  98.8823696  27.7642917  34.0863591 100.0395868  31.5782382  36.2352743
 100.2162496  32.5000347  36.0473727 100.8352702  31.2640802  36.6647123
 104.1806887  18.4390647  47.8336676 104.9216600  19.0397800  47.7541139
 104.4124809  17.6968285  47.2754719  99.3248225  23.6247014  46.1114906
  99.2101740  22.7232272  46.4122005  98.4692742  23.8710711  45.7599723
 106.4040062  31.5664755  47.7102407 105.9603917  30.7801133  47.3923311
 107.0657276  31.7543905  47.0446297 101.1627184  33.0960556  42.2363085
 101.7134609  32.9677620  41.4640079 100.3238659  33.3955445  41.8857978
 108.5021300  31.8467555  45.7383808 108.4839776  32.6676436  45.2464077
 109.4241221  31.7221630  45.9633949 104.9594355  29.3611684  46.5807316
 105.4922691  28.5999972  46.3506624 104.4308436  29.0685336  47.3231471
 108.1264050  14.4671750  42.1100958 107.7828319  15.3573392  42.0340069
 108.4943012  14.2773408  41.2470543  96.1949900  26.7905280  34.9289560
  97.0325122  27.2002289  34.7123268  96.3728168  25.8504723  34.8989754
 108.0914332  24.4580361  30.6173393 107.5760956  25.2284966  30.8561781
 107.8191641  23.7845497  31.2406455 105.6761443  19.3030062  35.6758631
 104.8203040  18.9136912  35.4964270 106.0888395  19.3822023  34.8158417
 107.2060590  16.8376405  40.0750191 106.7025386  16.8006540  39.2617997
 107.4991197  17.7469148  40.1346848 103.4503476  16.9215135  39.0816373
 104.3156473  16.7257944  38.7222262 103.5180985  16.6925487  40.0085730
 113.0648606  27.2112716  32.5526567 112.2878049  26.8723875  32.1081729
 113.7440087  27.2165339  31.8781532 107.8800635  22.3307453  32.4433174
 107.5750771  22.6453602  33.2943317 108.8331078  22.4088873  32.4860507
 106.3247067  28.4897677  34.0926128 105.7968429  27.7550436  33.7799366
 105.8234570  29.2672353  33.8466097 111.3039913  26.6846697  39.2093175
 110.6463588  27.3745958  39.2973303 112.1080313  27.0743129  39.5527161
 101.0565795  19.1517343  36.4532740 101.6309547  18.9292524  35.7205933
 101.6436777  19.2206037  37.2061341 110.1145372  25.0391070  37.2597116
 110.6277254  25.6721062  37.7618826 110.7646596  24.4392265  36.8940476
 101.3835382  21.1821804  30.4728625 100.5472694  21.5196490  30.7937900
 101.2440152  21.0470784  29.5355762 103.3588463  16.0258592  35.1807809
 102.7052875  15.7107609  34.5564424 103.3168937  15.4034332  35.9067632
 104.4699668  26.3077887  27.0961101 103.5626729  26.0767140  27.2952250
 104.9670700  25.5115506  27.2835083 107.3767746  35.0175394  30.0157787
 106.7029445  35.3207091  30.6242745 107.7633568  35.8204474  29.6663245
 106.5926203  22.5140525  39.5055457 105.6748764  22.7355472  39.3477145
 107.0086347  22.5886836  38.6467164 107.3761251  23.9131941  34.6358137
 108.1233070  24.4253338  34.3265259 107.6452840  23.5915994  35.4962531
 105.6487901  26.4090482  31.6185091 104.7399120  26.1249514  31.7157561
 105.6782985  26.8289560  30.7588398 110.8807168  30.0197071  35.3876259
 110.4269495  29.1787981  35.4441449 110.2501135  30.6558470  35.7251039
 109.8240088  20.9489057  36.6176926 109.0862845  20.4366443  36.9487169
 110.0766861  20.5089439  35.8060203 109.3240108  31.8573568  36.3226077
 109.6163082  32.4178625  35.6038443 109.8338728  32.1502129  37.0779236
 109.9251715  13.7265309  37.2118696 110.2310592  12.8662673  36.9244611
 110.6504320  14.3182929  37.0117690  96.2176071  24.1295996  35.6000294
  96.0200471  23.5365356  34.8751360  95.6622735  23.8248206  36.3176232
 104.1972795  24.0219102  37.7194887 104.2521405  23.0692939  37.6437363
 103.3863997  24.1778541  38.2036185 105.3463989  27.9499225  28.9573170
 104.9083419  27.2335084  28.4978807 106.0874430  28.1775340  28.3958261
 102.1365155  22.6396162  35.4785266 101.3233020  22.9390333  35.8850458
 102.6324149  22.2451851  36.1959748 104.2873733  32.6353919  37.4119530
 104.2449912  32.8614765  36.4828062 105.2036432  32.4017294  37.5605331
 107.7339367  23.1037986  44.3100159 108.0888754  23.3309460  45.1694625
 108.3811498  23.4356363  43.6877415 113.4637104  26.2256422  35.0149489
 113.3255002  26.4158018  34.0870678 113.1073322  26.9875805  35.4717540
 101.6279230  20.2114518  41.0946501 102.2678609  20.0703277  40.3969464
 100.7956760  19.9249031  40.7185103 113.4906483  28.2932949  40.0260760
 113.9242990  28.2008238  40.8743814 114.2038064  28.2690450  39.3880776
 102.4039534  29.5116948  37.2081493 103.1980132  29.0167268  37.0064068
 101.6931226  28.9834811  36.8449199 107.2234378  31.8935043  41.5593861
 107.2771400  32.4625980  42.3271577 106.3549159  32.0636928  41.1947898
  98.7122297  23.6560030  33.2841246  97.7819885  23.5944485  33.5011208
  98.8079769  23.1335982  32.4877887  98.6307846  20.1814842  35.8719487
  98.8914663  21.0960176  35.7628648  99.4525018  19.7139285  36.0216100
 100.1032771  21.5952600  43.0418312 100.7755825  21.3869962  42.3930961
  99.2762558  21.3974686  42.6023544 114.3522033  28.3356650  42.5593645
 114.5457923  29.2402461  42.8052920 114.2522651  27.8764069  43.3932230
 106.0058343  18.2214541  45.0583973 105.3586258  18.9204490  44.9648449
 106.7759359  18.6550685  45.4260221 109.4137141  28.4863393  48.1334526
 109.2622648  28.2573944  47.2164610 109.4041821  29.4433994  48.1465871
 106.1822478  26.0595305  43.1180792 107.1114538  26.2106465  42.9449760
 105.7613508  26.1479326  42.2629439 104.9810810  30.0845970  40.8879330
 104.8421895  29.7164754  41.7605268 104.1925406  30.5993609  40.7163288
 105.5758962  35.1855066  32.2304867 105.7510717  34.7143110  33.0450489
 104.8891750  35.8120833  32.4586127 106.5316025  29.4627573  38.2768168
 106.1965857  29.4228343  39.1725818 106.0319970  28.7972289  37.8038578
 100.5060269  24.8695203  43.8020749 100.3680067  24.1375441  44.4032288
 101.4165192  24.7804103  43.5204937 109.4675216  26.8083607  28.5505228
 108.8504387  26.0830435  28.4538280 108.9991705  27.5692967  28.2072302
 103.1342569  24.5815162  43.2904429 103.8442188  23.9408354  43.2491047
 103.0911878  24.8328057  44.2130609 111.1229348  31.5182515  46.2111008
 111.0641894  30.8341735  45.5441591 111.5248866  32.2601505  45.7591634
 101.8471503  21.5680380  45.1100068 101.3108860  21.1171118  45.7621664
 101.2588212  21.7026289  44.3670533 100.1420047  38.3344429  39.0044727
 100.3816645  38.9662953  39.6823745  99.2989243  37.9832469  39.2910086
 101.2573762  21.0269031  27.6726532 100.3803229  20.9057832  27.3088778
 101.7331515  20.2355110  27.4205420 111.1246755  29.4822099  44.4424988
 110.2373534  29.1448021  44.5651386 111.6945306  28.7505130  44.6793753
  92.7775902  25.8146191  37.7668039  93.4646942  25.5007921  37.1789054
  92.6224031  26.7187556  37.4935290  97.5810625  20.7036388  42.1953063
  97.4968813  20.0962057  41.4603473  96.7593331  21.1945406  42.1962559
 104.6547909  34.1423552  41.4086231 104.5818080  34.9478523  41.9205535
 104.2125302  34.3415517  40.5834252 104.4437688  33.3795322  34.9189052
 103.6605210  33.9217002  35.0127277 105.1430433  33.8969301  35.3183294
 107.7534338  19.1889951  37.5623258 108.2503038  18.4359913  37.2424328
 106.9821320  19.2254268  36.9966467 115.6064096  24.8930317  39.2041549
 115.5953972  25.7755032  38.8335482 114.7381475  24.5401867  39.0096086
 107.1146592  34.0410386  43.5644389 107.8274564  34.6757850  43.4920291
 106.6236621  34.1374252  42.7484391 108.8364119  27.9461638  35.1361681
 107.9020398  28.0663101  34.9666385 109.0140788  27.0434105  34.8721691
 104.3369307  21.3307334  37.2894942 103.9667095  20.7778374  37.9775848
 104.8328400  20.7265468  36.7369942 112.2236670  23.7878958  35.6711715
 112.6897123  24.6206949  35.5972018 112.6744171  23.3223939  36.3756974
 102.1658506  31.7904829  44.3849960 102.8667965  32.4241312  44.5379354
 101.6953621  32.1319561  43.6245600 110.2912902  30.1322779  32.6697867
 110.5672745  30.0179373  33.5791741 109.4217400  29.7340264  32.6310040
 110.1953333  16.1559545  39.7102617 109.2816413  16.3863771  39.8784824
 110.6246435  16.2397989  40.5616649 109.9659792  24.3449437  42.2102511
 109.3131242  24.5925344  41.5554963 110.3440172  23.5313575  41.8764988
 106.9266966  34.3809130  36.3130681 107.1089360  33.5630786  36.7758433
 107.7499952  34.5976822  35.8755571 107.2609131  33.3077315  33.5745729
 107.7896898  32.7969769  32.9615891 107.5237351  32.9919845  34.4391262
 106.0147365  25.0869248  48.6968548 105.3388002  24.9863377  49.3670923
 106.8374999  24.9308461  49.1604545  97.7626224  31.3241184  41.3181063
  98.3479661  30.5784872  41.4508967  97.5651062  31.6345141  42.2017727
 100.6164879  34.3592432  36.3343505  99.9475254  34.8438559  35.8507545
 100.4777749  34.6061652  37.2486884  92.3543879  23.8946784  40.0385506
  92.3927978  23.3610375  40.8322624  91.8484171  23.3681990  39.4196483
 104.7570148  36.3936175  42.9326164 105.3088456  36.5567797  43.6975249
 105.0976341  36.9840613  42.2606189  99.7334641  18.7411325  43.5348048
  99.7975967  19.6026156  43.1225446  99.6701761  18.1285327  42.8020407
  99.2086913  20.8134457  47.1821083  99.8358952  20.4311535  47.7958607
  98.3514832  20.5948659  47.5476775 109.6081022  31.2197433  48.7874818
 110.1520926  31.8327391  48.2929773 109.0267867  31.7777011  49.3041831
  95.9852456  22.6210887  33.1139437  96.2805897  21.7121565  33.0606491
  95.0840492  22.5998626  32.7920440 107.8938535  34.3418151  39.9189846
 107.7689674  33.5407890  39.4100791 108.5517626  34.8364344  39.4303816
  99.5146703  20.6966883  39.0966986  98.7933289  21.3102851  38.9574459
 100.3039959  21.2324648  39.0183632 109.9573443  32.1427171  41.5469396
 109.0103779  32.0232522  41.4747723 110.3056216  31.2549669  41.6295657
 102.3173017  18.0321310  45.3707638 102.8407418  18.2783606  46.1333947
 102.0985350  18.8641344  44.9510775  97.7140298  20.3024984  33.2378763
  97.3853004  19.4222363  33.0553869  98.0679668  20.2472653  34.1255152
 106.9619877  31.9379887  37.7473748 106.8144839  31.0096594  37.9281318
 107.7873370  31.9599978  37.2630823 100.8282121  20.5897954  33.6054240
 101.1678193  21.1183875  32.8832849 101.2754241  20.9278360  34.3812807
 110.5653998  32.7608446  38.8338621 111.4900546  32.5551307  38.6963072
 110.3969302  32.5124847  39.7427962 103.5225562  18.9735005  43.0557308
 103.1822382  18.1742818  43.4577988 102.8164568  19.2736716  42.4834142
 104.1742034  16.0584317  41.5084631 104.9968103  15.5844795  41.3863522
 104.4180097  16.8374801  42.0083318 102.8150268  19.0872576  31.8047533
 103.5358631  19.4653828  31.3011250 102.1915572  19.8061452  31.9082511
 106.9581391  19.7917725  32.7405865 107.1745005  20.6742362  32.4394694
 106.4775458  19.4003938  32.0111507 101.6980612  22.7503438  39.3176610
 101.5525193  23.0643741  40.2100892 101.2205816  23.3688338  38.7647509
 103.5576995  19.7405986  39.3657500 103.5438564  18.8447079  39.0289798
 104.2749423  19.7476649  39.9995786 105.4103126  20.1743326  41.4110627
 105.1520904  21.0960397  41.4094957 104.8788166  19.7773760  42.1011091
 110.3549315  33.2794113  34.1900712 110.5286192  32.7140536  33.4374565
 110.8478206  34.0795008  34.0080202  96.1726274  25.2908782  42.2564271
  95.6279743  26.0668590  42.3884546  97.0505624  25.6379587  42.0983393
 102.9613891  18.6220366  34.6345070 103.0829802  17.6937012  34.8335957
 102.6715933  18.6359052  33.7223385 105.8305081  16.3075276  37.7711790
 105.8526778  16.3714610  36.8163769 106.2473140  15.4679785  37.9652296
 116.2088706  26.0430536  35.8091012 116.6519852  25.2937861  35.4110135
 115.3315216  26.0340672  35.4264744 111.3424487  32.5960877  31.2897611
 112.0375392  33.2167570  31.5084925 111.6847637  31.7456229  31.5649989
  96.9592296  24.4178678  45.1494428  96.2174032  24.5661314  45.7359058
  96.6385041  24.6786944  44.2861177 113.2415910  30.0460583  32.8184941
 113.7667234  30.3847856  32.0934261 113.1538263  29.1107598  32.6348076
 104.9035959  33.9594657  44.9474818 105.2123085  33.7143803  45.8197518
 105.7011441  34.1641295  44.4593688 104.9256571  36.1132566  37.1780195
 104.4861561  35.6208945  37.8713051 105.6764688  35.5705534  36.9372270
  97.4048910  32.3044107  37.1804823  98.2306930  32.0047879  36.8003466
  97.0542962  31.5351730  37.6294611 102.3730443  31.6570575  39.2502496
 101.7510452  30.9941280  38.9504724 103.0435310  31.6831707  38.5676144
  95.6057515  30.2230434  38.1393756  94.7689423  29.7952608  37.9577758
  95.5781160  30.4162877  39.0764547 102.4454971  20.1352363  48.8435002
 102.4943126  21.0114486  48.4612772 102.9877485  19.5929756  48.2706646
 112.9309816  30.6793487  48.1236139 112.1405360  30.6617625  47.5840639
 112.6943171  31.2181780  48.8785176 113.0507691  27.5285953  45.4368868
 113.1005696  27.3635960  46.3784391 112.9421615  26.6613212  45.0466749
 101.9343950  30.2074499  32.7260957 102.0832070  30.8909963  32.0727630
 102.7410394  30.1879589  33.2410413 110.3411454  23.5116881  46.7528175
 111.2421317  23.3723346  46.4612172 110.4159428  23.6771336  47.6926352
 104.6754259  20.8883736  45.5981361 103.8057568  21.1817302  45.3263949
 104.9113739  21.4724181  46.3188625 114.5525888  29.9482895  45.6810889
 114.2610696  30.3112875  46.5174350 113.9398019  29.2349903  45.5024222
 115.7521571  27.5135774  38.2013460 116.5868462  27.9525578  38.3651020
 115.8880699  27.0374428  37.3821705 112.8013076  25.0715509  44.1490947
 113.2767198  25.2643155  43.3409799 111.8778642  25.1274695  43.9034331
  99.6896583  26.2339676  33.7322026  99.4442625  25.3302006  33.9302236
  99.8592498  26.2356827  32.7901504 107.3793293  17.1063353  43.1146781
 107.8975237  17.8424380  42.7893270 107.0248426  17.4127346  43.9493540
  98.9592231  21.9668034  31.2308187  98.2661476  22.0412389  30.5748223
  98.7143982  21.2028378  31.7529704 107.6305887  13.5263635  38.6347678
 107.9107641  12.8586824  39.2608104 108.4156494  13.7192731  38.1222342
 105.4339356  32.7022629  30.1972704 104.8613323  33.3212816  29.7443176
 106.0072149  33.2521991  30.7312626 111.5014745  21.9481269  42.3819253
 112.4532168  22.0479367  42.4031477 111.3318196  21.1559538  42.8917337
 109.5229125  19.0336852  42.5678654 108.9279057  19.3141865  41.8725143
 109.2378822  19.5230753  43.3395395 108.6536615  32.9859779  31.3281287
 109.5867289  32.9205341  31.5314162 108.5659828  33.8216046  30.8695819
 111.2824632  32.3025650  28.2885234 111.2038264  31.9685513  29.1820992
 112.1034299  32.7947418  28.2876706 113.9802823  25.1687389  41.4961553
 113.9479143  24.2303390  41.6821237 114.5903447  25.2471426  40.7627378
 105.8186154  24.0383442  27.5388757 106.7645259  23.9089650  27.6077175
 105.4400399  23.2998104  28.0158185 114.1297312  21.9598432  41.5419836
 113.6136360  21.1756889  41.3549765 115.0137260  21.6317149  41.7066355
 111.7908039  15.7039448  37.5015649 111.5932860  15.3954536  38.3858981
 112.4007744  16.4301087  37.6313578 119.7979373  26.2303396  40.6367589
 120.5282762  25.9688684  41.1975293 119.1886319  25.4932118  40.6769657
 117.8794670  24.3711258  41.2342041 117.1527834  24.2367223  40.6258532
 117.4641957  24.6788087  42.0398759 105.7024847  28.0901188  48.9989414
 106.6227856  28.2679787  49.1929460 105.6674430  27.1457233  48.8469113
 104.0029071  21.9633418  27.4743642 103.0960527  21.6666531  27.5506356
 104.2805052  21.6663236  26.6077928  94.9207012  23.2839782  37.9242688
  94.6009796  22.4305090  37.6317062  94.3740440  23.4988360  38.6800656
  98.6986919  26.0002223  41.6412195  98.9172929  26.9319330  41.6600229
  99.1112693  25.6410197  42.4266999 105.6191137  16.5070308  33.6287883
 104.8091865  16.1617393  34.0043129 106.3075554  16.1977852  34.2175495
 107.5481685  15.5848355  35.2512180 108.1012724  16.0043808  35.9102203
 107.7851772  14.6584103  35.2935136 103.5714784  21.5735428  51.0314944
 103.4711511  22.5229785  50.9627035 103.3536327  21.2453667  50.1591014
 102.7727856  18.8220354  27.6155621 103.6347020  19.1475252  27.8751439
 102.9578200  18.0351849  27.1028687  94.7895272  26.9042693  39.8935810
  94.0958743  26.4896646  39.3805764  95.5368263  26.9463230  39.2969229
 110.9260492  17.6948880  34.7590844 110.3459161  18.3533684  34.3768897
 110.6596425  16.8726225  34.3478262 109.3764059  17.0953938  36.9612164
 109.8763837  17.2070472  36.1526483 110.0199667  16.7914991  37.6012973
 103.4346055  25.0032567  49.8480005 102.9513136  25.8032927  50.0543894
 103.5206994  25.0140512  48.8947449  96.7032014  26.8360947  37.7701825
  96.6802702  26.9348634  36.8183708  97.0132651  27.6826098  38.0918991
  99.3619392  28.8937102  41.8848439 100.3162646  28.8621044  41.8178371
  99.1631916  28.4327726  42.6998665  99.9518774  27.4638218  44.4519237
 100.7711663  27.9582297  44.4754074 100.2255582  26.5470186  44.4236804
 109.7085370  19.8548970  33.8147192 108.8211225  20.1398621  33.5967387
 110.1239359  19.6942734  32.9674469 113.0599906  19.8795491  37.5301532
 113.8360297  20.3691944  37.8026148 112.3348041  20.3053546  37.9873401
 115.4972465  20.5923111  38.5875472 116.0916956  20.3518847  37.8768781
 115.5699049  19.8730241  39.2149009  97.7169621  34.4356721  38.9018637
  97.5824089  33.6757122  38.3356635  97.3001683  35.1597621  38.4347426
 108.8528584  29.6193645  27.9095212 109.5564434  29.8243648  28.5252868
 108.1291233  30.1870407  28.1744296 109.6826394  25.3703506  34.0297483
 109.6261596  25.8272058  33.1905115 110.2354737  24.6094191  33.8520325
 113.4931200  21.1593238  34.8547602 113.2368134  20.7589874  35.6855810
 112.8684068  21.8737032  34.7297741 117.8043538  23.8989311  37.3618893
 117.2443096  23.9682501  38.1350456 117.1987041  23.7230296  36.6418390
 100.8738747  35.3326039  39.1137080 100.7571131  36.2771471  39.0115770
 100.0531193  35.0299600  39.5022879 110.7615281  30.0576174  29.9593672
 111.5960885  29.6257373  29.7771147 110.5999624  29.8858188  30.8870567
 110.4161173  26.5608288  31.3250012 110.3609977  26.3952559  30.3838456
 109.7907229  27.2684320  31.4812201  95.2053688  21.7976352  45.1511434
  95.8512552  21.2875306  45.6398659  94.9970840  22.5345034  45.7254859
 107.7307081  28.8657199  50.6503575 108.5998240  29.0397852  50.2890209
 107.2513832  29.6851616  50.5279304 103.7257299  16.0616397  30.9035330
 103.7135969  17.0058236  31.0603601 104.6180721  15.8786542  30.6094791
 101.8993261  35.9854300  42.3293008 102.8020508  36.0177911  42.6459503
 101.6730631  35.0554751  42.3439344 103.6546863  34.7385287  38.9903087
 102.7042494  34.7387149  38.8767459 103.9579349  33.9918022  38.4739121
 107.5409418  12.6559173  35.1581267 106.7741814  12.1017660  35.3037949
 107.9520123  12.7281042  36.0195419  99.5451179  18.9443969  49.2486448
 100.4082641  18.5880774  49.4589773  98.9716590  18.6057864  49.9361852
 119.3899556  40.5745825  40.0548849 120.0277966  40.4552573  39.3512189
 119.2720399  41.5226669  40.1136801 116.1989263  40.5273253  39.9910374
 115.8607774  40.4114318  39.1030909 117.0679031  40.1264419  39.9711380
 112.0576078  42.3808730  35.9807265 111.4940943  42.2898667  35.2123553
 111.9428473  41.5608634  36.4609757 116.6809046  41.6808105  45.9496579
 116.6697686  41.2860903  45.0777083 116.8429685  40.9474178  46.5430351
 109.6040510  43.8759921  38.8191485 110.3961802  43.5350746  38.4037785
 109.8437160  43.9854896  39.7393639 117.6375637  46.0479698  31.2921730
 116.9863617  46.6333778  30.9055744 118.4320000  46.5785892  31.3516767
 111.5631264  43.1368835  31.6908864 112.3362140  42.5897822  31.5521740
 111.9156663  44.0013084  31.9023325 113.4016307  44.4645217  44.8975763
 113.1106173  45.3690848  44.7822430 114.0373291  44.5061745  45.6119833
 114.3272514  41.8422065  41.4877123 114.9236086  41.6178088  40.7734086
 114.3847485  41.1006811  42.0902571 113.8997542  39.2961501  29.3227314
 114.1523063  38.7743022  28.5610777 112.9622101  39.1327646  29.4253998
 118.9440825  38.2997279  37.1302057 119.7303914  37.8816702  36.7792474
 119.2079529  39.2043371  37.2983706 119.1150902  43.7370129  31.8290714
 118.4796735  43.8104756  32.5411619 118.7848309  44.3263728  31.1509793
 124.3449252  38.2372512  38.0335036 125.0774424  37.6671729  38.2672865
 123.5888608  37.8494113  38.4741541 113.6193831  41.1989607  31.5251689
 113.5030089  40.5234510  32.1932773 113.7296091  40.7121981  30.7083842
 115.9625372  40.6599754  35.2298378 115.5983579  40.1330375  35.9411300
 116.8192488  40.2698223  35.0564864 121.8674672  31.9494086  42.4929644
 121.5357997  32.8189497  42.2690859 121.2720286  31.6330370  43.1723675
 115.6030859  35.6889654  30.2259727 115.7705261  36.5569890  30.5930198
 115.4128028  35.8516935  29.3021016 118.3606192  44.1506632  41.8925557
 118.0606915  45.0531671  41.7841364 118.0157251  43.8838816  42.7446710
 111.8118673  40.6020429  37.9262262 110.8869170  40.4696643  38.1339953
 112.0603086  41.3814649  38.4232204 121.7603336  36.6689173  39.5722994
 120.8520213  36.6004581  39.2781755 121.7090931  37.1461118  40.4004820
 115.5820080  38.1447311  31.2106394 115.4619705  38.5904362  32.0491874
 114.8872668  38.4932629  30.6519932 109.1727484  40.2453703  38.7606051
 109.3019866  40.4988182  39.6745462 108.4924936  40.8381411  38.4410706
 113.3426972  50.9150953  34.8596525 113.2651001  51.8658778  34.9385005
 112.7388615  50.5696825  35.5171451 115.8344201  38.0878818  47.5157892
 115.0577535  38.6472738  47.5060756 116.4734764  38.5735601  48.0372762
 123.6264982  34.8705611  41.3500868 122.9839362  35.1638144  40.7040663
 123.1219911  34.7558531  42.1554065 121.2805146  38.6168784  32.0386728
 122.1923002  38.8496171  31.8634425 120.7714793  39.2005828  31.4761806
 114.0890574  40.8964272  47.0775859 114.8305258  41.4349316  46.8010682
 113.3827559  41.5230560  47.2347410 119.5645913  43.0393412  45.6748020
 119.9729269  42.5975823  44.9302653 118.8423175  42.4646040  45.9282213
 115.9176983  37.9766019  43.0481577 116.7638179  38.4005432  43.1916226
 115.8575621  37.3199643  43.7420140 119.8874728  43.5994603  39.4300309
 119.2583590  43.7640317  38.7276377 119.5000390  44.0136212  40.2011273
 123.7663960  44.5349041  36.7844673 123.0814998  44.9147942  36.2341706
 123.8507809  45.1444367  37.5176621 119.0676429  35.6370387  44.7062751
 118.8237361  36.3912448  44.1697026 119.3436359  36.0155735  45.5409998
 121.0214891  42.1809000  43.3840016 121.2331787  42.8240759  42.7074397
 120.9744640  41.3471316  42.9161946 118.6241120  34.7926820  40.2876588
 117.7625599  35.0908074  40.5793326 118.6503555  35.0097219  39.3557621
 115.4402690  43.3369011  36.6950394 115.9041035  43.6156714  35.9055017
 115.1759488  42.4352455  36.5123485 112.3326771  42.8840492  39.6330157
 112.9028128  43.3127761  38.9947642 112.9234883  42.6023077  40.3314343
 114.3771576  39.4592163  33.5039959 115.0795619  39.9113207  33.9713886
 114.0452204  38.8175982  34.1319852 112.8251937  38.0503920  47.8791169
 112.1950598  38.7320201  48.1126566 112.7188025  37.9387001  46.9344307
 108.1196910  37.7175716  38.8057093 107.3295964  37.9733244  38.3297203
 108.6108157  38.5324054  38.9109133 122.1360719  45.0580955  41.5562374
 122.9578163  44.6561142  41.2745055 122.1323122  44.9549189  42.5078489
 110.0711655  38.0820295  35.7640570 109.2742819  38.1938989  36.2824065
 109.8437247  38.4206947  34.8981460 115.9017323  44.6064998  43.7123084
 115.9661755  45.0685406  44.5481256 115.1928247  43.9762363  43.8405394
 106.4034613  37.9706206  41.2372084 106.6542651  38.8553216  41.5029660
 106.9394161  37.7910808  40.4647175 130.2266712  41.4019703  37.9047345
 129.4730421  40.8327102  37.7491350 130.3614254  41.3682368  38.8517980
 115.6165341  46.2733106  33.5802065 115.4811015  47.1184642  34.0086912
 116.1575153  46.4752383  32.8167998 112.1032680  32.3524686  50.2416420
 111.7099626  31.7990884  50.9164064 112.9198820  32.6635264  50.6322937
 109.0694738  43.7908544  34.1529990 109.5819258  44.5851794  34.3035554
 109.7217451  43.0934834  34.0863591 110.8789623  46.9074300  36.2352743
 111.0556251  47.8292265  36.0473727 111.6746456  46.5932719  36.6647123
 115.0200641  33.7682565  47.8336676 115.7610355  34.3689718  47.7541139
 115.2518564  33.0260203  47.2754719 110.1641979  38.9538932  46.1114906
 110.0495494  38.0524189  46.4122005 109.3086497  39.2002629  45.7599723
 117.2433817  46.8956672  47.7102407 116.7997671  46.1093051  47.3923311
 117.9051030  47.0835823  47.0446297 112.0020938  48.4252474  42.2363085
 112.5528363  48.2969537  41.4640079 111.1632414  48.7247363  41.8857978
 119.3415055  47.1759472  45.7383808 119.3233530  47.9968353  45.2464077
 120.2634975  47.0513547  45.9633949 115.7988109  44.6903602  46.5807316
 116.3316446  43.9291890  46.3506624 115.2702190  44.3977254  47.3231471
 118.9657804  29.7963668  42.1100958 118.6222073  30.6865309  42.0340069
 119.3336767  29.6065325  41.2470543 107.0343655  42.1197198  34.9289560
 107.8718877  42.5294206  34.7123268 107.2121922  41.1796640  34.8989754
 118.9308087  39.7872279  30.6173393 118.4154710  40.5576883  30.8561781
 118.6585395  39.1137415  31.2406455 116.5155198  34.6321980  35.6758631
 115.6596794  34.2428830  35.4964270 116.9282150  34.7113940  34.8158417
 118.0454344  32.1668323  40.0750191 117.5419140  32.1298458  39.2617997
 118.3384951  33.0761066  40.1346848 114.2897230  32.2507053  39.0816373
 115.1550227  32.0549861  38.7222262 114.3574739  32.0217404  40.0085730
 123.9042361  42.5404633  32.5526567 123.1271804  42.2015793  32.1081729
 124.5833842  42.5457257  31.8781532 118.7194390  37.6599371  32.4433174
 118.4144526  37.9745520  33.2943317 119.6724832  37.7380791  32.4860507
 117.1640822  43.8189594  34.0926128 116.6362183  43.0842354  33.7799366
 116.6628325  44.5964271  33.8466097 122.1433668  42.0138615  39.2093175
 121.4857342  42.7037876  39.2973303 122.9474067  42.4035047  39.5527161
 111.8959549  34.4809260  36.4532740 112.4703301  34.2584442  35.7205933
 112.4830532  34.5497955  37.2061341 120.9539127  40.3682987  37.2597116
 121.4671008  41.0012979  37.7618826 121.6040351  39.7684183  36.8940476
 112.2229137  36.5113721  30.4728625 111.3866449  36.8488408  30.7937900
 112.0833906  36.3762701  29.5355762 114.1982217  31.3550509  35.1807809
 113.5446629  31.0399527  34.5564424 114.1562691  30.7326250  35.9067632
 115.3093422  41.6369804  27.0961101 114.4020484  41.4059058  27.2952250
 115.8064454  40.8407424  27.2835083 118.2161501  50.3467312  30.0157787
 117.5423200  50.6499008  30.6242745 118.6027323  51.1496392  29.6663245
 117.4319958  37.8432443  39.5055457 116.5142519  38.0647390  39.3477145
 117.8480101  37.9178753  38.6467164 118.2155005  39.2423859  34.6358137
 118.9626824  39.7545256  34.3265259 118.4846595  38.9207911  35.4962531
 116.4881655  41.7382399  31.6185091 115.5792875  41.4541432  31.7157561
 116.5176739  42.1581478  30.7588398 121.7200923  45.3488989  35.3876259
 121.2663250  44.5079899  35.4441449 121.0894890  45.9850387  35.7251039
 120.6633842  36.2780975  36.6176926 119.9256599  35.7658361  36.9487169
 120.9160616  35.8381356  35.8060203 120.1633862  47.1865486  36.3226077
 120.4556836  47.7470543  35.6038443 120.6732483  47.4794047  37.0779236
 120.7645470  29.0557227  37.2118696 121.0704347  28.1954590  36.9244611
 121.4898075  29.6474847  37.0117690 107.0569826  39.4587913  35.6000294
 106.8594226  38.8657274  34.8751360 106.5016490  39.1540124  36.3176232
 115.0366549  39.3511020  37.7194887 115.0915159  38.3984856  37.6437363
 114.2257752  39.5070459  38.2036185 116.1857743  43.2791143  28.9573170
 115.7477173  42.5627002  28.4978807 116.9268184  43.5067258  28.3958261
 112.9758909  37.9688080  35.4785266 112.1626775  38.2682250  35.8850458
 113.4717904  37.5743768  36.1959748 115.1267487  47.9645837  37.4119530
 115.0843666  48.1906683  36.4828062 116.0430186  47.7309211  37.5605331
 118.5733121  38.4329904  44.3100159 118.9282509  38.6601377  45.1694625
 119.2205252  38.7648281  43.6877415 124.3030858  41.5548340  35.0149489
 124.1648757  41.7449936  34.0870678 123.9467077  42.3167723  35.4717540
 112.4672984  35.5406435  41.0946501 113.1072363  35.3995194  40.3969464
 111.6350515  35.2540949  40.7185103 124.3300238  43.6224867  40.0260760
 124.7636744  43.5300156  40.8743814 125.0431818  43.5982367  39.3880776
 113.2433288  44.8408866  37.2081493 114.0373887  44.3459186  37.0064068
 112.5324980  44.3126729  36.8449199 118.0628133  47.2226961  41.5593861
 118.1165155  47.7917897  42.3271577 117.1942914  47.3928846  41.1947898
 109.5516052  38.9851947  33.2841246 108.6213640  38.9236403  33.5011208
 109.6473524  38.4627900  32.4877887 109.4701601  35.5106760  35.8719487
 109.7308418  36.4252093  35.7628648 110.2918773  35.0431203  36.0216100
 110.9426526  36.9244517  43.0418312 111.6149579  36.7161879  42.3930961
 110.1156312  36.7266603  42.6023544 125.1915787  43.6648568  42.5593645
 125.3851677  44.5694378  42.8052920 125.0916405  43.2055987  43.3932230
 116.8452098  33.5506458  45.0583973 116.1980013  34.2496408  44.9648449
 117.6153113  33.9842602  45.4260221 120.2530896  43.8155310  48.1334526
 120.1016402  43.5865862  47.2164610 120.2435575  44.7725912  48.1465871
 117.0216232  41.3887223  43.1180792 117.9508292  41.5398383  42.9449760
 116.6007262  41.4771244  42.2629439 115.8204564  45.4137888  40.8879330
 115.6815650  45.0456672  41.7605268 115.0319160  45.9285527  40.7163288
 116.4152716  50.5146984  32.2304867 116.5904472  50.0435027  33.0450489
 115.7285504  51.1412750  32.4586127 117.3709779  44.7919490  38.2768168
 117.0359612  44.7520260  39.1725818 116.8713725  44.1264206  37.8038578
 111.3454023  40.1987120  43.8020749 111.2073821  39.4667359  44.4032288
 112.2558947  40.1096020  43.5204937 120.3068971  42.1375525  28.5505228
 119.6898142  41.4122353  28.4538280 119.8385459  42.8984885  28.2072302
 113.9736324  39.9107080  43.2904429 114.6835942  39.2700272  43.2491047
 113.9305632  40.1619974  44.2130609 121.9623103  46.8474433  46.2111008
 121.9035649  46.1633653  45.5441591 122.3642621  47.5893423  45.7591634
 112.6865258  36.8972298  45.1100068 112.1502615  36.4463036  45.7621664
 112.0981966  37.0318206  44.3670533 110.9813801  53.6636347  39.0044727
 111.2210400  54.2954871  39.6823745 110.1382998  53.3124387  39.2910086
 112.0967517  36.3560949  27.6726532 111.2196983  36.2349750  27.3088778
 112.5725270  35.5647027  27.4205420 121.9640510  44.8114017  44.4424988
 121.0767289  44.4739939  44.5651386 122.5339061  44.0797048  44.6793753
 103.6169657  41.1438109  37.7668039 104.3040697  40.8299839  37.1789054
 103.4617786  42.0479473  37.4935290 108.4204379  36.0328305  42.1953063
 108.3362568  35.4253975  41.4603473 107.5987085  36.5237324  42.1962559
 115.4941663  49.4715469  41.4086231 115.4211835  50.2770441  41.9205535
 115.0519056  49.6707435  40.5834252 115.2831443  48.7087239  34.9189052
 114.4998965  49.2508919  35.0127277 115.9824188  49.2261219  35.3183294
 118.5928093  34.5181869  37.5623258 119.0896792  33.7651831  37.2424328
 117.8215074  34.5546185  36.9966467 126.4457850  40.2222234  39.2041549
 126.4347727  41.1046950  38.8335482 125.5775230  39.8693785  39.0096086
 117.9540347  49.3702303  43.5644389 118.6668319  50.0049768  43.4920291
 117.4630375  49.4666169  42.7484391 119.6757874  43.2753556  35.1361681
 118.7414152  43.3955018  34.9666385 119.8534542  42.3726023  34.8721691
 115.1763062  36.6599252  37.2894942 114.8060849  36.1070292  37.9775848
 115.6722154  36.0557385  36.7369942 123.0630425  39.1170875  35.6711715
 123.5290877  39.9498867  35.5972018 123.5137925  38.6515857  36.3756974
 113.0052260  47.1196747  44.3849960 113.7061720  47.7533230  44.5379354
 112.5347375  47.4611478  43.6245600 121.1306656  45.4614697  32.6697867
 121.4066500  45.3471291  33.5791741 120.2611155  45.0632181  32.6310040
 121.0347088  31.4851462  39.7102617 120.1210168  31.7155689  39.8784824
 121.4640189  31.5689906  40.5616649 120.8053546  39.6741354  42.2102511
 120.1524996  39.9217262  41.5554963 121.1833926  38.8605492  41.8764988
 117.7660720  49.7101047  36.3130681 117.9483115  48.8922703  36.7758433
 118.5893706  49.9268740  35.8755571 118.1002886  48.6369233  33.5745729
 118.6290652  48.1261687  32.9615891 118.3631105  48.3211763  34.4391262
 116.8541119  40.4161165  48.6968548 116.1781756  40.3155295  49.3670923
 117.6768753  40.2600379  49.1604545 108.6019978  46.6533102  41.3181063
 109.1873415  45.9076790  41.4508967 108.4044817  46.9637059  42.2017727
 111.4558634  49.6884349  36.3343505 110.7869009  50.1730477  35.8507545
 111.3171503  49.9353570  37.2486884 103.1937633  39.2238702  40.0385506
 103.2321733  38.6902293  40.8322624 102.6877926  38.6973908  39.4196483
 115.5963902  51.7228093  42.9326164 116.1482210  51.8859714  43.6975249
 115.9370096  52.3132531  42.2606189 110.5728395  34.0703243  43.5348048
 110.6369722  34.9318073  43.1225446 110.5095516  33.4577244  42.8020407
 110.0480668  36.1426375  47.1821083 110.6752707  35.7603452  47.7958607
 109.1908587  35.9240577  47.5476775 120.4474776  46.5489350  48.7874818
 120.9914680  47.1619309  48.2929773 119.8661621  47.1068929  49.3041831
 106.8246211  37.9502804  33.1139437 107.1199652  37.0413483  33.0606491
 105.9234246  37.9290544  32.7920440 118.7332289  49.6710068  39.9189846
 118.6083429  48.8699808  39.4100791 119.3911381  50.1656262  39.4303816
 110.3540458  36.0258801  39.0966986 109.6327043  36.6394768  38.9574459
 111.1433713  36.5616566  39.0183632 120.7967198  47.4719088  41.5469396
 119.8497533  47.3524440  41.4747723 121.1449971  46.5841586  41.6295657
 113.1566771  33.3613227  45.3707638 113.6801173  33.6075524  46.1333947
 112.9379104  34.1933262  44.9510775 108.5534052  35.6316902  33.2378763
 108.2246758  34.7514281  33.0553869 108.9073423  35.5764571  34.1255152
 117.8013631  47.2671805  37.7473748 117.6538594  46.3388512  37.9281318
 118.6267125  47.2891895  37.2630823 111.6675875  35.9189872  33.6054240
 112.0071948  36.4475793  32.8832849 112.1147996  36.2570278  34.3812807
 121.4047753  48.0900363  38.8338621 122.3294300  47.8843225  38.6963072
 121.2363056  47.8416764  39.7427962 114.3619316  34.3026922  43.0557308
 114.0216137  33.5034735  43.4577988 113.6558322  34.6028633  42.4834142
 115.0135788  31.3876235  41.5084631 115.8361857  30.9136713  41.3863522
 115.2573852  32.1666719  42.0083318 113.6544023  34.4164493  31.8047533
 114.3752385  34.7945746  31.3011250 113.0309327  35.1353370  31.9082511
 117.7975145  35.1209642  32.7405865 118.0138760  36.0034280  32.4394694
 117.3169213  34.7295856  32.0111507 112.5374367  38.0795355  39.3176610
 112.3918947  38.3935658  40.2100892 112.0599570  38.6980256  38.7647509
 114.3970750  35.0697903  39.3657500 114.3832318  34.1738997  39.0289798
 115.1143178  35.0768567  39.9995786 116.2496880  35.5035244  41.4110627
 115.9914658  36.4252314  41.4094957 115.7181921  35.1065678  42.1011091
 121.1943069  48.6086031  34.1900712 121.3679947  48.0432453  33.4374565
 121.6871960  49.4086926  34.0080202 107.0120029  40.6200700  42.2564271
 106.4673497  41.3960508  42.3884546 107.8899379  40.9671504  42.0983393
 113.8007646  33.9512284  34.6345070 113.9223557  33.0228930  34.8335957
 113.5109688  33.9650970  33.7223385 116.6698836  31.6367194  37.7711790
 116.6920533  31.7006527  36.8163769 117.0866895  30.7971703  37.9652296
 127.0482460  41.3722454  35.8091012 127.4913606  40.6229779  35.4110135
 126.1708971  41.3632590  35.4264744 122.1818242  47.9252795  31.2897611
 122.8769146  48.5459488  31.5084925 122.5241392  47.0748146  31.5649989
 107.7986051  39.7470596  45.1494428 107.0567787  39.8953231  45.7359058
 107.4778795  40.0078862  44.2861177 124.0809665  45.3752501  32.8184941
 124.6060989  45.7139773  32.0934261 123.9932017  44.4399516  32.6348076
 115.7429713  49.2886574  44.9474818 116.0516840  49.0435721  45.8197518
 116.5405195  49.4933213  44.4593688 115.7650325  51.4424484  37.1780195
 115.3255316  50.9500863  37.8713051 116.5158442  50.8997452  36.9372270
 108.2442664  47.6336025  37.1804823 109.0700684  47.3339797  36.8003466
 107.8936716  46.8643647  37.6294611 113.2124198  46.9862493  39.2502496
 112.5904207  46.3233198  38.9504724 113.8829065  47.0123625  38.5676144
 106.4451270  45.5522351  38.1393756 105.6083178  45.1244526  37.9577758
 106.4174915  45.7454795  39.0764547 113.2848725  35.4644281  48.8435002
 113.3336881  36.3406404  48.4612772 113.8271239  34.9221674  48.2706646
 123.7703571  46.0085404  48.1236139 122.9799115  45.9909543  47.5840639
 123.5336925  46.5473698  48.8785176 123.8901446  42.8577871  45.4368868
 123.9399451  42.6927878  46.3784391 123.7815369  41.9905130  45.0466749
 112.7737705  45.5366416  32.7260957 112.9225825  46.2201881  32.0727630
 113.5804148  45.5171506  33.2410413 121.1805208  38.8408799  46.7528175
 122.0815071  38.7015264  46.4612172 121.2553183  39.0063254  47.6926352
 115.5148014  36.2175653  45.5981361 114.6451323  36.5109220  45.3263949
 115.7507494  36.8016098  46.3188625 125.3919643  45.2774812  45.6810889
 125.1004451  45.6404793  46.5174350 124.7791774  44.5641820  45.5024222
 126.5915325  42.8427692  38.2013460 127.4262216  43.2817496  38.3651020
 126.7274454  42.3666345  37.3821705 123.6406831  40.4007427  44.1490947
 124.1160953  40.5935073  43.3409799 122.7172396  40.4566613  43.9034331
 110.5290338  41.5631594  33.7322026 110.2836379  40.6593924  33.9302236
 110.6986252  41.5648744  32.7901504 118.2187047  32.4355270  43.1146781
 118.7368991  33.1716297  42.7893270 117.8642180  32.7419264  43.9493540
 109.7985985  37.2959952  31.2308187 109.1055230  37.3704307  30.5748223
 109.5537737  36.5320295  31.7529704 118.4699642  28.8555553  38.6347678
 118.7501395  28.1878742  39.2608104 119.2550249  29.0484649  38.1222342
 116.2733110  48.0314547  30.1972704 115.7007077  48.6504734  29.7443176
 116.8465904  48.5813909  30.7312626 122.3408500  37.2773187  42.3819253
 123.2925923  37.3771285  42.4031477 122.1711950  36.4851455  42.8917337
 120.3622879  34.3628770  42.5678654 119.7672812  34.6433783  41.8725143
 120.0772576  34.8522671  43.3395395 119.4930370  48.3151697  31.3281287
 120.4261043  48.2497259  31.5314162 119.4053583  49.1507964  30.8695819
 122.1218387  47.6317567  28.2885234 122.0432018  47.2977431  29.1820992
 122.9428053  48.1239335  28.2876706 124.8196578  40.4979307  41.4961553
 124.7872898  39.5595307  41.6821237 125.4297201  40.5763343  40.7627378
 116.6579909  39.3675360  27.5388757 117.6039013  39.2381568  27.6077175
 116.2794154  38.6290021  28.0158185 124.9691066  37.2890350  41.5419836
 124.4530115  36.5048807  41.3549765 125.8531015  36.9609067  41.7066355
 122.6301793  31.0331366  37.5015649 122.4326614  30.7246454  38.3858981
 123.2401499  31.7593005  37.6313578 130.6373128  41.5595313  40.6367589
 131.3676516  41.2980602  41.1975293 130.0280073  40.8224035  40.6769657
 128.7188425  39.7003176  41.2342041 127.9921588  39.5659141  40.6258532
 128.3035712  40.0080005  42.0398759 116.5418601  43.4193106  48.9989414
 117.4621611  43.5971705  49.1929460 116.5068184  42.4749151  48.8469113
 114.8422826  37.2925336  27.4743642 113.9354281  36.9958449  27.5506356
 115.1198807  36.9955154  26.6077928 105.7600766  38.6131699  37.9242688
 105.4403550  37.7597008  37.6317062 105.2134194  38.8280278  38.6800656
 109.5380674  41.3294140  41.6412195 109.7566683  42.2611248  41.6600229
 109.9506447  40.9702115  42.4266999 116.4584891  31.8362226  33.6287883
 115.6485620  31.4909311  34.0043129 117.1469308  31.5269769  34.2175495
 118.3875440  30.9140272  35.2512180 118.9406478  31.3335726  35.9102203
 118.6245526  29.9876021  35.2935136 114.4108539  36.9027346  51.0314944
 114.3105266  37.8521703  50.9627035 114.1930081  36.5745585  50.1591014
 113.6121610  34.1512271  27.6155621 114.4740774  34.4767169  27.8751439
 113.7971955  33.3643767  27.1028687 105.6289026  42.2334611  39.8935810
 104.9352498  41.8188564  39.3805764 106.3762017  42.2755147  39.2969229
 121.7654247  33.0240798  34.7590844 121.1852916  33.6825602  34.3768897
 121.4990180  32.2018142  34.3478262 120.2157813  32.4245855  36.9612164
 120.7157592  32.5362390  36.1526483 120.8593421  32.1206908  37.6012973
 114.2739809  40.3324485  49.8480005 113.7906891  41.1324845  50.0543894
 114.3600748  40.3432430  48.8947449 107.5425769  42.1652865  37.7701825
 107.5196457  42.2640552  36.8183708 107.8526405  43.0118015  38.0918991
 110.2013147  44.2229020  41.8848439 111.1556400  44.1912962  41.8178371
 110.0025670  43.7619643  42.6998665 110.7912529  42.7930136  44.4519237
 111.6105418  43.2874214  44.4754074 111.0649336  41.8762104  44.4236804
 120.5479125  35.1840888  33.8147192 119.6604980  35.4690539  33.5967387
 120.9633114  35.0234651  32.9674469 123.8993661  35.2087409  37.5301532
 124.6754051  35.6983861  37.8026148 123.1741795  35.6345463  37.9873401
 126.3366220  35.9215028  38.5875472 126.9310710  35.6810764  37.8768781
 126.4092803  35.2022159  39.2149009 108.5563375  49.7648639  38.9018637
 108.4217843  49.0049040  38.3356635 108.1395438  50.4889539  38.4347426
 119.6922338  44.9485563  27.9095212 120.3958188  45.1535565  28.5252868
 118.9684987  45.5162325  28.1744296 120.5220149  40.6995424  34.0297483
 120.4655350  41.1563975  33.1905115 121.0748491  39.9386109  33.8520325
 124.3324955  36.4885156  34.8547602 124.0761889  36.0881791  35.6855810
 123.7077823  37.2028950  34.7297741 128.6437292  39.2281229  37.3618893
 128.0836850  39.2974418  38.1350456 128.0380796  39.0522214  36.6418390
 111.7132501  50.6617956  39.1137080 111.5964885  51.6063389  39.0115770
 110.8924947  50.3591518  39.5022879 121.6009036  45.3868092  29.9593672
 122.4354640  44.9549290  29.7771147 121.4393379  45.2150106  30.8870567
 121.2554928  41.8900205  31.3250012 121.2003732  41.7244477  30.3838456
 120.6300983  42.5976238  31.4812201 106.0447443  37.1268270  45.1511434
 106.6906306  36.6167224  45.6398659 105.8364594  37.8636951  45.7254859
 118.5700835  44.1949117  50.6503575 119.4391995  44.3689769  50.2890209
 118.0907587  45.0143534  50.5279304 114.5651053  31.3908314  30.9035330
 114.5529723  32.3350154  31.0603601 115.4574475  31.2078460  30.6094791
 112.7387015  51.3146218  42.3293008 113.6414262  51.3469828  42.6459503
 112.5124385  50.3846669  42.3439344 114.4940617  50.0677205  38.9903087
 113.5436248  50.0679066  38.8767459 114.7973103  49.3209939  38.4739121
 118.3803173  27.9851091  35.1581267 117.6135569  27.4309578  35.3037949
 118.7913878  28.0572960  36.0195419 110.3844934  34.2735887  49.2486448
 111.2476395  33.9172692  49.4589773 109.8110345  33.9349781  49.9361852
 130.2293311  55.9037743  40.0548849 130.8671721  55.7844490  39.3512189
 130.1114154  56.8518587  40.1136801 127.0383017  55.8565171  39.9910374
 126.7001529  55.7406236  39.1030909 127.9072785  55.4556336  39.9711380
 122.8969833  57.7100648  35.9807265 122.3334698  57.6190584  35.2123553
 122.7822228  56.8900552  36.4609757 127.5202800  57.0100023  45.9496579
 127.5091441  56.6152821  45.0777083 127.6823440  56.2766095  46.5430351
 120.4434265  59.2051839  38.8191485 121.2355557  58.8642664  38.4037785
 120.6830915  59.3146814  39.7393639 128.4769392  61.3771615  31.2921730
 127.8257371  61.9625696  30.9055744 129.2713754  61.9077810  31.3516767
 122.4025019  58.4660752  31.6908864 123.1755895  57.9189739  31.5521740
 122.7550418  59.3305002  31.9023325 124.2410061  59.7937135  44.8975763
 123.9499927  60.6982765  44.7822430 124.8767046  59.8353662  45.6119833
 125.1666268  57.1713983  41.4877123 125.7629840  56.9470006  40.7734086
 125.2241240  56.4298729  42.0902571 124.7391296  54.6253418  29.3227314
 124.9916817  54.1034940  28.5610777 123.8015856  54.4619564  29.4253998
 129.7834579  53.6289197  37.1302057 130.5697669  53.2108620  36.7792474
 130.0473284  54.5335289  37.2983706 129.9544657  59.0662047  31.8290714
 129.3190490  59.1396674  32.5411619 129.6242063  59.6555646  31.1509793
 135.1843006  53.5664430  38.0335036 135.9168178  52.9963647  38.2672865
 134.4282362  53.1786031  38.4741541 124.4587585  56.5281524  31.5251689
 124.3423843  55.8526428  32.1932773 124.5689845  56.0413898  30.7083842
 126.8019126  55.9891672  35.2298378 126.4377333  55.4622293  35.9411300
 127.6586242  55.5990141  35.0564864 132.7068427  47.2786004  42.4929644
 132.3751752  48.1481415  42.2690859 132.1114040  46.9622288  43.1723675
 126.4424613  51.0181571  30.2259727 126.6099015  51.8861808  30.5930198
 126.2521782  51.1808853  29.3021016 129.1999946  59.4798550  41.8925557
 128.9000669  60.3823589  41.7841364 128.8551006  59.2130733  42.7446710
 122.6512428  55.9312347  37.9262262 121.7262924  55.7988561  38.1339953
 122.8996841  56.7106566  38.4232204 132.5997090  51.9981090  39.5722994
 131.6913967  51.9296499  39.2781755 132.5484686  52.4753035  40.4004820
 126.4213834  53.4739229  31.2106394 126.3013459  53.9196280  32.0491874
 125.7266422  53.8224546  30.6519932 120.0121239  55.5745621  38.7606051
 120.1413620  55.8280099  39.6745462 119.3318690  56.1673329  38.4410706
 124.1820726  66.2442871  34.8596525 124.1044756  67.1950696  34.9385005
 123.5782370  65.8988743  35.5171451 126.6737956  53.4170736  47.5157892
 125.8971290  53.9764656  47.5060756 127.3128519  53.9027519  48.0372762
 134.4658736  50.1997529  41.3500868 133.8233117  50.4930062  40.7040663
 133.9613665  50.0850449  42.1554065 132.1198900  53.9460702  32.0386728
 133.0316756  54.1788089  31.8634425 131.6108547  54.5297746  31.4761806
 124.9284328  56.2256189  47.0775859 125.6699013  56.7641233  46.8010682
 124.2221314  56.8522478  47.2347410 130.4039668  58.3685330  45.6748020
 130.8123024  57.9267740  44.9302653 129.6816929  57.7937957  45.9282213
 126.7570738  53.3057937  43.0481577 127.6031933  53.7297350  43.1916226
 126.6969376  52.6491561  43.7420140 130.7268482  58.9286520  39.4300309
 130.0977345  59.0932235  38.7276377 130.3394145  59.3428130  40.2011273
 134.6057714  59.8640958  36.7844673 133.9208753  60.2439860  36.2341706
 134.6901564  60.4736285  37.5176621 129.9070183  50.9662305  44.7062751
 129.6631115  51.7204365  44.1697026 130.1830114  51.3447652  45.5409998
 131.8608646  57.5100917  43.3840016 132.0725541  58.1532677  42.7074397
 131.8138394  56.6763234  42.9161946 129.4634875  50.1218738  40.2876588
 128.6019354  50.4199991  40.5793326 129.4897310  50.3389137  39.3557621
 126.2796444  58.6660928  36.6950394 126.7434790  58.9448631  35.9055017
 126.0153242  57.7644373  36.5123485 123.1720525  58.2132410  39.6330157
 123.7421882  58.6419678  38.9947642 123.7628637  57.9314995  40.3314343
 125.2165330  54.7884081  33.5039959 125.9189374  55.2405125  33.9713886
 124.8845959  54.1467900  34.1319852 123.6645692  53.3795837  47.8791169
 123.0344353  54.0612118  48.1126566 123.5581780  53.2678919  46.9344307
 118.9590664  53.0467633  38.8057093 118.1689718  53.3025162  38.3297203
 119.4501912  53.8615971  38.9109133 132.9754474  60.3872873  41.5562374
 133.7971918  59.9853060  41.2745055 132.9716877  60.2841107  42.5078489
 120.9105410  53.4112213  35.7640570 120.1136573  53.5230907  36.2824065
 120.6831002  53.7498865  34.8981460 126.7411077  59.9356916  43.7123084
 126.8055510  60.3977323  44.5481256 126.0322001  59.3054281  43.8405394
 117.2428367  53.2998124  41.2372084 117.4936406  54.1845134  41.5029660
 117.7787916  53.1202725  40.4647175 141.0660467  56.7311621  37.9047345
 140.3124175  56.1619019  37.7491350 141.2008008  56.6974286  38.8517980
 126.4559095  61.6025023  33.5802065 126.3204770  62.4476559  34.0086912
 126.9968908  61.8044301  32.8167998 122.9426435  47.6816603  50.2416420
 122.5493380  47.1282802  50.9164064 123.7592575  47.9927182  50.6322937
 119.9088492  59.1200461  34.1529990 120.4213013  59.9143712  34.3035554
 120.5611205  58.4226752  34.0863591 121.7183377  62.2366218  36.2352743
 121.8950005  63.1584182  36.0473727 122.5140211  61.9224637  36.6647123
 125.8594396  49.0974482  47.8336676 126.6004109  49.6981636  47.7541139
 126.0912318  48.3552120  47.2754719 121.0035734  54.2830850  46.1114906
 120.8889249  53.3816107  46.4122005 120.1480251  54.5294546  45.7599723
 128.0827571  62.2248590  47.7102407 127.6391426  61.4384969  47.3923311
 128.7444785  62.4127740  47.0446297 122.8414693  63.7544392  42.2363085
 123.3922118  63.6261455  41.4640079 122.0026168  64.0539281  41.8857978
 130.1808809  62.5051390  45.7383808 130.1627285  63.3260271  45.2464077
 131.1028730  62.3805465  45.9633949 126.6381864  60.0195519  46.5807316
 127.1710200  59.2583808  46.3506624 126.1095945  59.7269171  47.3231471
 129.8051559  45.1255585  42.1100958 129.4615828  46.0157227  42.0340069
 130.1730521  44.9357243  41.2470543 117.8737409  57.4489116  34.9289560
 118.7112631  57.8586124  34.7123268 118.0515677  56.5088558  34.8989754
 129.7701841  55.1164196  30.6173393 129.2548465  55.8868801  30.8561781
 129.4979150  54.4429333  31.2406455 127.3548952  49.9613897  35.6758631
 126.4990549  49.5720748  35.4964270 127.7675904  50.0405858  34.8158417
 128.8848099  47.4960240  40.0750191 128.3812895  47.4590376  39.2617997
 129.1778706  48.4052983  40.1346848 125.1290985  47.5798970  39.0816373
 125.9943982  47.3841779  38.7222262 125.1968494  47.3509322  40.0085730
 134.7436115  57.8696551  32.5526567 133.9665558  57.5307711  32.1081729
 135.4227596  57.8749174  31.8781532 129.5588144  52.9891289  32.4433174
 129.2538280  53.3037438  33.2943317 130.5118587  53.0672708  32.4860507
 128.0034576  59.1481512  34.0926128 127.4755938  58.4134271  33.7799366
 127.5022079  59.9256188  33.8466097 132.9827422  57.3430532  39.2093175
 132.3251097  58.0329794  39.2973303 133.7867822  57.7326964  39.5527161
 122.7353304  49.8101178  36.4532740 123.3097056  49.5876360  35.7205933
 123.3224286  49.8789873  37.2061341 131.7932881  55.6974905  37.2597116
 132.3064763  56.3304897  37.7618826 132.4434105  55.0976101  36.8940476
 123.0622891  51.8405639  30.4728625 122.2260203  52.1780326  30.7937900
 122.9227661  51.7054619  29.5355762 125.0375972  46.6842427  35.1807809
 124.3840384  46.3691444  34.5564424 124.9956446  46.0618168  35.9067632
 126.1487177  56.9661722  27.0961101 125.2414238  56.7350976  27.2952250
 126.6458208  56.1699341  27.2835083 129.0555255  65.6759229  30.0157787
 128.3816954  65.9790926  30.6242745 129.4421077  66.4788310  29.6663245
 128.2713712  53.1724361  39.5055457 127.3536273  53.3939308  39.3477145
 128.6873856  53.2470671  38.6467164 129.0548760  54.5715776  34.6358137
 129.8020579  55.0837173  34.3265259 129.3240349  54.2499829  35.4962531
 127.3275410  57.0674317  31.6185091 126.4186629  56.7833350  31.7157561
 127.3570494  57.4873396  30.7588398 132.5594677  60.6780906  35.3876259
 132.1057004  59.8371816  35.4441449 131.9288644  61.3142305  35.7251039
 131.5027597  51.6072893  36.6176926 130.7650354  51.0950279  36.9487169
 131.7554370  51.1673274  35.8060203 131.0027617  62.5157403  36.3226077
 131.2950591  63.0762460  35.6038443 131.5126237  62.8085964  37.0779236
 131.6039224  44.3849145  37.2118696 131.9098101  43.5246508  36.9244611
 132.3291829  44.9766765  37.0117690 117.8963580  54.7879831  35.6000294
 117.6987980  54.1949192  34.8751360 117.3410244  54.4832041  36.3176232
 125.8760304  54.6802938  37.7194887 125.9308914  53.7276774  37.6437363
 125.0651506  54.8362377  38.2036185 127.0251498  58.6083061  28.9573170
 126.5870928  57.8918920  28.4978807 127.7661939  58.8359175  28.3958261
 123.8152664  53.2979997  35.4785266 123.0020529  53.5974168  35.8850458
 124.3111658  52.9035686  36.1959748 125.9661242  63.2937754  37.4119530
 125.9237421  63.5198601  36.4828062 126.8823941  63.0601129  37.5605331
 129.4126876  53.7621822  44.3100159 129.7676263  53.9893295  45.1694625
 130.0599007  54.0940199  43.6877415 135.1424613  56.8840258  35.0149489
 135.0042511  57.0741854  34.0870678 134.7860831  57.6459641  35.4717540
 123.3066739  50.8698353  41.0946501 123.9466118  50.7287112  40.3969464
 122.4744269  50.5832866  40.7185103 135.1693992  58.9516785  40.0260760
 135.6030499  58.8592074  40.8743814 135.8825573  58.9274285  39.3880776
 124.0827043  60.1700783  37.2081493 124.8767641  59.6751103  37.0064068
 123.3718735  59.6418646  36.8449199 128.9021887  62.5518879  41.5593861
 128.9558909  63.1209815  42.3271577 128.0336668  62.7220764  41.1947898
 120.3909806  54.3143865  33.2841246 119.4607394  54.2528321  33.5011208
 120.4867278  53.7919818  32.4877887 120.3095355  50.8398678  35.8719487
 120.5702172  51.7544011  35.7628648 121.1312527  50.3723120  36.0216100
 121.7820280  52.2536435  43.0418312 122.4543334  52.0453797  42.3930961
 120.9550067  52.0558521  42.6023544 136.0309542  58.9940485  42.5593645
 136.2245432  59.8986296  42.8052920 135.9310160  58.5347904  43.3932230
 127.6845852  48.8798376  45.0583973 127.0373767  49.5788326  44.9648449
 128.4546868  49.3134520  45.4260221 131.0924650  59.1447228  48.1334526
 130.9410157  58.9157780  47.2164610 131.0829330  60.1017830  48.1465871
 127.8609987  56.7179141  43.1180792 128.7902047  56.8690300  42.9449760
 127.4401017  56.8063162  42.2629439 126.6598319  60.7429805  40.8879330
 126.5209404  60.3748590  41.7605268 125.8712915  61.2577445  40.7163288
 127.2546471  65.8438902  32.2304867 127.4298226  65.3726945  33.0450489
 126.5679259  66.4704668  32.4586127 128.2103534  60.1211408  38.2768168
 127.8753366  60.0812178  39.1725818 127.7107479  59.4556124  37.8038578
 122.1847778  55.5279038  43.8020749 122.0467576  54.7959277  44.4032288
 123.0952701  55.4387938  43.5204937 131.1462725  57.4667442  28.5505228
 130.5291896  56.7414270  28.4538280 130.6779214  58.2276803  28.2072302
 124.8130078  55.2398997  43.2904429 125.5229697  54.5992190  43.2491047
 124.7699386  55.4911892  44.2130609 132.8016857  62.1766351  46.2111008
 132.7429403  61.4925571  45.5441591 133.2036375  62.9185341  45.7591634
 123.5259012  52.2264215  45.1100068 122.9896369  51.7754954  45.7621664
 122.9375721  52.3610124  44.3670533 121.8207556  68.9928265  39.0044727
 122.0604154  69.6246789  39.6823745 120.9776752  68.6416305  39.2910086
 122.9361271  51.6852867  27.6726532 122.0590738  51.5641667  27.3088778
 123.4119024  50.8938945  27.4205420 132.8034264  60.1405935  44.4424988
 131.9161043  59.8031856  44.5651386 133.3732815  59.4088966  44.6793753
 114.4563411  56.4730026  37.7668039 115.1434451  56.1591756  37.1789054
 114.3011540  57.3771391  37.4935290 119.2598134  51.3620223  42.1953063
 119.1756322  50.7545892  41.4603473 118.4380840  51.8529241  42.1962559
 126.3335418  64.8007387  41.4086231 126.2605589  65.6062358  41.9205535
 125.8912811  64.9999353  40.5834252 126.1225197  64.0379157  34.9189052
 125.3392719  64.5800837  35.0127277 126.8217942  64.5553137  35.3183294
 129.4321847  49.8473786  37.5623258 129.9290547  49.0943749  37.2424328
 128.6608829  49.8838103  36.9966467 137.2851605  55.5514152  39.2041549
 137.2741481  56.4338867  38.8335482 136.4168984  55.1985703  39.0096086
 128.7934101  64.6994221  43.5644389 129.5062073  65.3341686  43.4920291
 128.3024130  64.7958087  42.7484391 130.5151628  58.6045474  35.1361681
 129.5807907  58.7246936  34.9666385 130.6928297  57.7017940  34.8721691
 126.0156816  51.9891169  37.2894942 125.6454604  51.4362210  37.9775848
 126.5115909  51.3849303  36.7369942 133.9024179  54.4462793  35.6711715
 134.3684632  55.2790785  35.5972018 134.3531680  53.9807775  36.3756974
 123.8446015  62.4488664  44.3849960 124.5455474  63.0825147  44.5379354
 123.3741130  62.7903396  43.6245600 131.9700411  60.7906614  32.6697867
 132.2460254  60.6763209  33.5791741 131.1004909  60.3924099  32.6310040
 131.8740842  46.8143380  39.7102617 130.9603922  47.0447607  39.8784824
 132.3033944  46.8981824  40.5616649 131.6447301  55.0033272  42.2102511
 130.9918751  55.2509179  41.5554963 132.0227681  54.1897410  41.8764988
 128.6054475  65.0392965  36.3130681 128.7876869  64.2214621  36.7758433
 129.4287461  65.2560657  35.8755571 128.9396640  63.9661150  33.5745729
 129.4684407  63.4553605  32.9615891 129.2024860  63.6503680  34.4391262
 127.6934874  55.7453083  48.6968548 127.0175511  55.6447212  49.3670923
 128.5162508  55.5892297  49.1604545 119.4413733  61.9825019  41.3181063
 120.0267170  61.2368707  41.4508967 119.2438571  62.2928976  42.2017727
 122.2952388  65.0176267  36.3343505 121.6262763  65.5022395  35.8507545
 122.1565258  65.2645487  37.2486884 114.0331388  54.5530620  40.0385506
 114.0715487  54.0194210  40.8322624 113.5271680  54.0265825  39.4196483
 126.4357657  67.0520010  42.9326164 126.9875965  67.2151632  43.6975249
 126.7763850  67.6424448  42.2606189 121.4122150  49.3995160  43.5348048
 121.4763476  50.2609991  43.1225446 121.3489270  48.7869162  42.8020407
 120.8874422  51.4718293  47.1821083 121.5146461  51.0895370  47.7958607
 120.0302341  51.2532495  47.5476775 131.2868531  61.8781268  48.7874818
 131.8308435  62.4911226  48.2929773 130.7055376  62.4360846  49.3041831
 117.6639965  53.2794722  33.1139437 117.9593406  52.3705400  33.0606491
 116.7628001  53.2582461  32.7920440 129.5726044  65.0001986  39.9189846
 129.4477183  64.1991726  39.4100791 130.2305135  65.4948179  39.4303816
 121.1934212  51.3550718  39.0966986 120.4720798  51.9686686  38.9574459
 121.9827468  51.8908483  39.0183632 131.6360952  62.8011006  41.5469396
 130.6891288  62.6816357  41.4747723 131.9843725  61.9133504  41.6295657
 123.9960526  48.6905145  45.3707638 124.5194927  48.9367441  46.1333947
 123.7772859  49.5225180  44.9510775 119.3927807  50.9608820  33.2378763
 119.0640513  50.0806198  33.0553869 119.7467177  50.9056488  34.1255152
 128.6407386  62.5963722  37.7473748 128.4932348  61.6680430  37.9281318
 129.4660879  62.6183813  37.2630823 122.5069630  51.2481789  33.6054240
 122.8465702  51.7767711  32.8832849 122.9541750  51.5862195  34.3812807
 132.2441507  63.4192281  38.8338621 133.1688055  63.2135142  38.6963072
 132.0756811  63.1708682  39.7427962 125.2013071  49.6318840  43.0557308
 124.8609891  48.8326653  43.4577988 124.4952077  49.9320551  42.4834142
 125.8529542  46.7168152  41.5084631 126.6755612  46.2428631  41.3863522
 126.0967606  47.4958636  42.0083318 124.4937777  49.7456411  31.8047533
 125.2146139  50.1237664  31.3011250 123.8703081  50.4645288  31.9082511
 128.6368900  50.4501560  32.7405865 128.8532514  51.3326198  32.4394694
 128.1562967  50.0587773  32.0111507 123.3768121  53.4087273  39.3176610
 123.2312702  53.7227576  40.2100892 122.8993325  54.0272173  38.7647509
 125.2364504  50.3989821  39.3657500 125.2226073  49.5030914  39.0289798
 125.9536932  50.4060485  39.9995786 127.0890635  50.8327161  41.4110627
 126.8308413  51.7544232  41.4094957 126.5575675  50.4357596  42.1011091
 132.0336824  63.9377948  34.1900712 132.2073701  63.3724371  33.4374565
 132.5265715  64.7378843  34.0080202 117.8513783  55.9492617  42.2564271
 117.3067251  56.7252425  42.3884546 118.7293133  56.2963422  42.0983393
 124.6401400  49.2804201  34.6345070 124.7617311  48.3520848  34.8335957
 124.3503442  49.2942887  33.7223385 127.5092590  46.9659112  37.7711790
 127.5314287  47.0298445  36.8163769 127.9260649  46.1263620  37.9652296
 137.8876215  56.7014371  35.8091012 138.3307361  55.9521697  35.4110135
 137.0102725  56.6924508  35.4264744 133.0211996  63.2544713  31.2897611
 133.7162901  63.8751405  31.5084925 133.3635146  62.4040064  31.5649989
 118.6379805  55.0762514  45.1494428 117.8961541  55.2245149  45.7359058
 118.3172550  55.3370779  44.2861177 134.9203419  60.7044418  32.8184941
 135.4454743  61.0431691  32.0934261 134.8325772  59.7691434  32.6348076
 126.5823468  64.6178492  44.9474818 126.8910594  64.3727639  45.8197518
 127.3798950  64.8225130  44.4593688 126.6044080  66.7716402  37.1780195
 126.1649070  66.2792780  37.8713051 127.3552197  66.2289369  36.9372270
 119.0836419  62.9627942  37.1804823 119.9094439  62.6631714  36.8003466
 118.7330471  62.1935565  37.6294611 124.0517952  62.3154411  39.2502496
 123.4297961  61.6525116  38.9504724 124.7222819  62.3415543  38.5676144
 117.2845024  60.8814269  38.1393756 116.4476932  60.4536443  37.9577758
 117.2568669  61.0746712  39.0764547 124.1242480  50.7936199  48.8435002
 124.1730635  51.6698322  48.4612772 124.6664994  50.2513592  48.2706646
 134.6097325  61.3377322  48.1236139 133.8192869  61.3201461  47.5840639
 134.3730680  61.8765616  48.8785176 134.7295200  58.1869788  45.4368868
 134.7793205  58.0219796  46.3784391 134.6209124  57.3197047  45.0466749
 123.6131459  60.8658334  32.7260957 123.7619579  61.5493798  32.0727630
 124.4197902  60.8463424  33.2410413 132.0198963  54.1700716  46.7528175
 132.9208825  54.0307181  46.4612172 132.0946937  54.3355171  47.6926352
 126.3541768  51.5467571  45.5981361 125.4845077  51.8401137  45.3263949
 126.5901248  52.1308016  46.3188625 136.2313397  60.6066730  45.6810889
 135.9398205  60.9696710  46.5174350 135.6185528  59.8933738  45.5024222
 137.4309079  58.1719610  38.2013460 138.2655971  58.6109414  38.3651020
 137.5668208  57.6958263  37.3821705 134.4800585  55.7299344  44.1490947
 134.9554707  55.9226991  43.3409799 133.5566151  55.7858530  43.9034331
 121.3684092  56.8923512  33.7322026 121.1230134  55.9885842  33.9302236
 121.5380007  56.8940662  32.7901504 129.0580802  47.7647188  43.1146781
 129.5762746  48.5008215  42.7893270 128.7035935  48.0711181  43.9493540
 120.6379740  52.6251869  31.2308187 119.9448984  52.6996224  30.5748223
 120.3931491  51.8612213  31.7529704 129.3093396  44.1847471  38.6347678
 129.5895150  43.5170660  39.2608104 130.0944003  44.3776566  38.1222342
 127.1126865  63.3606464  30.1972704 126.5400832  63.9796652  29.7443176
 127.6859658  63.9105826  30.7312626 133.1802254  52.6065105  42.3819253
 134.1319677  52.7063202  42.4031477 133.0105705  51.8143373  42.8917337
 131.2016634  49.6920688  42.5678654 130.6066566  49.9725701  41.8725143
 130.9166331  50.1814589  43.3395395 130.3324124  63.6443615  31.3281287
 131.2654797  63.5789176  31.5314162 130.2447337  64.4799881  30.8695819
 132.9612141  62.9609485  28.2885234 132.8825773  62.6269349  29.1820992
 133.7821808  63.4531253  28.2876706 135.6590332  55.8271224  41.4961553
 135.6266652  54.8887225  41.6821237 136.2690956  55.9055261  40.7627378
 127.4973663  54.6967277  27.5388757 128.4432768  54.5673485  27.6077175
 127.1187908  53.9581939  28.0158185 135.8084821  52.6182268  41.5419836
 135.2923869  51.8340724  41.3549765 136.6924769  52.2900984  41.7066355
 133.4695548  46.3623283  37.5015649 133.2720369  46.0538371  38.3858981
 134.0795253  47.0884922  37.6313578 141.4766882  56.8887231  40.6367589
 142.2070271  56.6272519  41.1975293 140.8673828  56.1515953  40.6769657
 139.5582179  55.0295094  41.2342041 138.8315343  54.8951059  40.6258532
 139.1429466  55.3371922  42.0398759 127.3812356  58.7485023  48.9989414
 128.3015365  58.9263622  49.1929460 127.3461939  57.8041069  48.8469113
 125.6816580  52.6217254  27.4743642 124.7748036  52.3250366  27.5506356
 125.9592561  52.3247072  26.6077928 116.5994521  53.9423617  37.9242688
 116.2797305  53.0888925  37.6317062 116.0527949  54.1572195  38.6800656
 120.3774428  56.6586058  41.6412195 120.5960438  57.5903166  41.6600229
 120.7900202  56.2994032  42.4266999 127.2978646  47.1654143  33.6287883
 126.4879374  46.8201228  34.0043129 127.9863063  46.8561687  34.2175495
 129.2269194  46.2432190  35.2512180 129.7800233  46.6627644  35.9102203
 129.4639281  45.3167938  35.2935136 125.2502293  52.2319264  51.0314944
 125.1499020  53.1813621  50.9627035 125.0323836  51.9037503  50.1591014
 124.4515365  49.4804189  27.6155621 125.3134529  49.8059087  27.8751439
 124.6365709  48.6935685  27.1028687 116.4682781  57.5626529  39.8935810
 115.7746252  57.1480481  39.3805764 117.2155772  57.6047065  39.2969229
 132.6048001  48.3532715  34.7590844 132.0246670  49.0117519  34.3768897
 132.3383934  47.5310060  34.3478262 131.0551568  47.7537773  36.9612164
 131.5551346  47.8654308  36.1526483 131.6987176  47.4498826  37.6012973
 125.1133564  55.6616403  49.8480005 124.6300645  56.4616763  50.0543894
 125.1994503  55.6724348  48.8947449 118.3819523  57.4944782  37.7701825
 118.3590211  57.5932470  36.8183708 118.6920160  58.3409933  38.0918991
 121.0406901  59.5520937  41.8848439 121.9950155  59.5204880  41.8178371
 120.8419425  59.0911561  42.6998665 121.6306283  58.1222053  44.4519237
 122.4499172  58.6166132  44.4754074 121.9043091  57.2054022  44.4236804
 131.3872879  50.5132806  33.8147192 130.4998734  50.7982456  33.5967387
 131.8026868  50.3526569  32.9674469 134.7387415  50.5379327  37.5301532
 135.5147806  51.0275779  37.8026148 134.0135550  50.9637381  37.9873401
 137.1759974  51.2506946  38.5875472 137.7704465  51.0102682  37.8768781
 137.2486558  50.5314076  39.2149009 119.3957130  65.0940557  38.9018637
 119.2611598  64.3340958  38.3356635 118.9789192  65.8181457  38.4347426
 130.5316093  60.2777480  27.9095212 131.2351943  60.4827483  28.5252868
 129.8078742  60.8454242  28.1744296 131.3613903  56.0287342  34.0297483
 131.3049104  56.4855893  33.1905115 131.9142246  55.2678026  33.8520325
 135.1718709  51.8177073  34.8547602 134.9155643  51.4173709  35.6855810
 134.5471577  52.5320867  34.7297741 139.4831047  54.5573147  37.3618893
 138.9230605  54.6266336  38.1350456 138.8774550  54.3814131  36.6418390
 122.5526256  65.9909874  39.1137080 122.4358640  66.9355306  39.0115770
 121.7318702  65.6883435  39.5022879 132.4402790  60.7160010  29.9593672
 133.2748394  60.2841208  29.7771147 132.2787133  60.5442023  30.8870567
 132.0948682  57.2192123  31.3250012 132.0397486  57.0536394  30.3838456
 131.4694738  57.9268156  31.4812201 116.8841197  52.4560187  45.1511434
 117.5300061  51.9459141  45.6398659 116.6758348  53.1928869  45.7254859
 129.4094590  59.5241035  50.6503575 130.2785749  59.6981687  50.2890209
 128.9301341  60.3435452  50.5279304 125.4044808  46.7200232  30.9035330
 125.3923478  47.6642072  31.0603601 126.2968230  46.5370377  30.6094791
 123.5780770  66.6438136  42.3293008 124.4808016  66.6761746  42.6459503
 123.3518140  65.7138587  42.3439344 125.3334372  65.3969122  38.9903087
 124.3830003  65.3970984  38.8767459 125.6366858  64.6501857  38.4739121
 129.2196927  43.3143009  35.1581267 128.4529323  42.7601495  35.3037949
 129.6307632  43.3864877  36.0195419 121.2238688  49.6027804  49.2486448
 122.0870150  49.2464609  49.4589773 120.6504099  49.2641699  49.9361852
 141.0687065  71.2329661  40.0548849 141.7065475  71.1136408  39.3512189
 140.9507908  72.1810505  40.1136801 137.8776772  71.1857089  39.9910374
 137.5395283  71.0698153  39.1030909 138.7466540  70.7848254  39.9711380
 133.7363587  73.0392565  35.9807265 133.1728452  72.9482502  35.2123553
 133.6215982  72.2192470  36.4609757 138.3596555  72.3391941  45.9496579
 138.3485195  71.9444739  45.0777083 138.5217194  71.6058013  46.5430351
 131.2828019  74.5343757  38.8191485 132.0749311  74.1934581  38.4037785
 131.5224669  74.6438732  39.7393639 139.3163146  76.7063533  31.2921730
 138.6651126  77.2917613  30.9055744 140.1107509  77.2369728  31.3516767
 133.2418773  73.7952670  31.6908864 134.0149649  73.2481657  31.5521740
 133.5944172  74.6596919  31.9023325 135.0803816  75.1229052  44.8975763
 134.7893682  76.0274683  44.7822430 135.7160800  75.1645580  45.6119833
 136.0060023  72.5005901  41.4877123 136.6023595  72.2761923  40.7734086
 136.0634994  71.7590646  42.0902571 135.5785051  69.9545336  29.3227314
 135.8310572  69.4326857  28.5610777 134.6409610  69.7911482  29.4253998
 140.6228334  68.9581115  37.1302057 141.4091423  68.5400538  36.7792474
 140.8867038  69.8627207  37.2983706 140.7938411  74.3953965  31.8290714
 140.1584244  74.4688591  32.5411619 140.4635818  74.9847564  31.1509793
 146.0236761  68.8956348  38.0335036 146.7561933  68.3255565  38.2672865
 145.2676117  68.5077948  38.4741541 135.2981340  71.8573442  31.5251689
 135.1817598  71.1818346  32.1932773 135.4083600  71.3705816  30.7083842
 137.6412881  71.3183589  35.2298378 137.2771088  70.7914210  35.9411300
 138.4979997  70.9282058  35.0564864 143.5462181  62.6077922  42.4929644
 143.2145506  63.4773333  42.2690859 142.9507795  62.2914206  43.1723675
 137.2818368  66.3473489  30.2259727 137.4492770  67.2153725  30.5930198
 137.0915537  66.5100771  29.3021016 140.0393701  74.8090468  41.8925557
 139.7394424  75.7115507  41.7841364 139.6944760  74.5422651  42.7446710
 133.4906182  71.2604265  37.9262262 132.5656679  71.1280479  38.1339953
 133.7390595  72.0398484  38.4232204 143.4390845  67.3273008  39.5722994
 142.5307722  67.2588416  39.2781755 143.3878440  67.8044953  40.4004820
 137.2607588  68.8031146  31.2106394 137.1407214  69.2488197  32.0491874
 136.5660177  69.1516464  30.6519932 130.8514993  70.9037538  38.7606051
 130.9807374  71.1572017  39.6745462 130.1712445  71.4965246  38.4410706
 135.0214481  81.5734788  34.8596525 134.9438510  82.5242613  34.9385005
 134.4176124  81.2280661  35.5171451 137.5131710  68.7462654  47.5157892
 136.7365044  69.3056574  47.5060756 138.1522273  69.2319437  48.0372762
 145.3052491  65.5289446  41.3500868 144.6626871  65.8221980  40.7040663
 144.8007420  65.4142367  42.1554065 142.9592655  69.2752620  32.0386728
 143.8710511  69.5080006  31.8634425 142.4502302  69.8589664  31.4761806
 135.7678083  71.5548107  47.0775859 136.5092767  72.0933151  46.8010682
 135.0615068  72.1814396  47.2347410 141.2433422  73.6977247  45.6748020
 141.6516778  73.2559658  44.9302653 140.5210684  73.1229875  45.9282213
 137.5964492  68.6349854  43.0481577 138.4425688  69.0589268  43.1916226
 137.5363130  67.9783479  43.7420140 141.5662237  74.2578438  39.4300309
 140.9371099  74.4224152  38.7276377 141.1787899  74.6720048  40.2011273
 145.4451469  75.1932876  36.7844673 144.7602507  75.5731777  36.2341706
 145.5295318  75.8028203  37.5176621 140.7463938  66.2954223  44.7062751
 140.5024870  67.0496283  44.1697026 141.0223868  66.6739570  45.5409998
 142.7002400  72.8392835  43.3840016 142.9119296  73.4824595  42.7074397
 142.6532149  72.0055151  42.9161946 140.3028629  65.4510656  40.2876588
 139.4413108  65.7491909  40.5793326 140.3291064  65.6681054  39.3557621
 137.1190199  73.9952846  36.6950394 137.5828544  74.2740549  35.9055017
 136.8546997  73.0936291  36.5123485 134.0114280  73.5424328  39.6330157
 134.5815637  73.9711596  38.9947642 134.6022392  73.2606912  40.3314343
 136.0559085  70.1175999  33.5039959 136.7583128  70.5697042  33.9713886
 135.7239713  69.4759817  34.1319852 134.5039446  68.7087755  47.8791169
 133.8738107  69.3904036  48.1126566 134.3975534  68.5970837  46.9344307
 129.7984419  68.3759551  38.8057093 129.0083473  68.6317080  38.3297203
 130.2895666  69.1907889  38.9109133 143.8148228  75.7164790  41.5562374
 144.6365672  75.3144978  41.2745055 143.8110631  75.6133025  42.5078489
 131.7499164  68.7404130  35.7640570 130.9530328  68.8522825  36.2824065
 131.5224756  69.0790783  34.8981460 137.5804832  75.2648834  43.7123084
 137.6449264  75.7269241  44.5481256 136.8715756  74.6346199  43.8405394
 128.0822122  68.6290042  41.2372084 128.3330160  69.5137052  41.5029660
 128.6181670  68.4494643  40.4647175 151.9054221  72.0603539  37.9047345
 151.1517930  71.4910937  37.7491350 152.0401763  72.0266203  38.8517980
 137.2952850  76.9316941  33.5802065 137.1598524  77.7768477  34.0086912
 137.8362662  77.1336219  32.8167998 133.7820189  63.0108521  50.2416420
 133.3887135  62.4574720  50.9164064 134.5986329  63.3219099  50.6322937
 130.7482247  74.4492379  34.1529990 131.2606767  75.2435629  34.3035554
 131.4004960  73.7518670  34.0863591 132.5577132  77.5658135  36.2352743
 132.7343760  78.4876100  36.0473727 133.3533965  77.2516555  36.6647123
 136.6988150  64.4266400  47.8336676 137.4397864  65.0273553  47.7541139
 136.9306073  63.6844038  47.2754719 131.8429488  69.6122767  46.1114906
 131.7283003  68.7108025  46.4122005 130.9874006  69.8586464  45.7599723
 138.9221326  77.5540508  47.7102407 138.4785180  76.7676886  47.3923311
 139.5838539  77.7419658  47.0446297 133.6808447  79.0836309  42.2363085
 134.2315872  78.9553373  41.4640079 132.8419923  79.3831198  41.8857978
 141.0202564  77.8343308  45.7383808 141.0021039  78.6552189  45.2464077
 141.9422484  77.7097383  45.9633949 137.4775618  75.3487437  46.5807316
 138.0103955  74.5875725  46.3506624 136.9489699  75.0561089  47.3231471
 140.6445313  60.4547503  42.1100958 140.3009582  61.3449145  42.0340069
 141.0124276  60.2649161  41.2470543 128.7131164  72.7781033  34.9289560
 129.5506386  73.1878042  34.7123268 128.8909431  71.8380476  34.8989754
 140.6095596  70.4456114  30.6173393 140.0942219  71.2160719  30.8561781
 140.3372904  69.7721250  31.2406455 138.1942707  65.2905815  35.6758631
 137.3384303  64.9012665  35.4964270 138.6069659  65.3697776  34.8158417
 139.7241853  62.8252158  40.0750191 139.2206649  62.7882293  39.2617997
 140.0172460  63.7344901  40.1346848 135.9684739  62.9090888  39.0816373
 136.8337736  62.7133697  38.7222262 136.0362248  62.6801240  40.0085730
 145.5829870  73.1988469  32.5526567 144.8059313  72.8599628  32.1081729
 146.2621351  73.2041092  31.8781532 140.3981899  68.3183206  32.4433174
 140.0932035  68.6329355  33.2943317 141.3512341  68.3964626  32.4860507
 138.8428331  74.4773430  34.0926128 138.3149692  73.7426189  33.7799366
 138.3415834  75.2548106  33.8466097 143.8221177  72.6722450  39.2093175
 143.1644851  73.3621711  39.2973303 144.6261576  73.0618882  39.5527161
 133.5747058  65.1393096  36.4532740 134.1490810  64.9168277  35.7205933
 134.1618041  65.2081790  37.2061341 142.6326636  71.0266823  37.2597116
 143.1458517  71.6596815  37.7618826 143.2827860  70.4268018  36.8940476
 133.9016646  67.1697557  30.4728625 133.0653958  67.5072243  30.7937900
 133.7621415  67.0346537  29.5355762 135.8769726  62.0134345  35.1807809
 135.2234138  61.6983362  34.5564424 135.8350200  61.3910085  35.9067632
 136.9880931  72.2953640  27.0961101 136.0807993  72.0642893  27.2952250
 137.4851963  71.4991259  27.2835083 139.8949010  81.0051147  30.0157787
 139.2210709  81.3082844  30.6242745 140.2814832  81.8080227  29.6663245
 139.1107466  68.5016278  39.5055457 138.1930028  68.7231225  39.3477145
 139.5267610  68.5762589  38.6467164 139.8942514  69.9007694  34.6358137
 140.6414333  70.4129091  34.3265259 140.1634104  69.5791747  35.4962531
 138.1669164  72.3966235  31.6185091 137.2580384  72.1125267  31.7157561
 138.1964248  72.8165313  30.7588398 143.3988432  76.0072824  35.3876259
 142.9450759  75.1663734  35.4441449 142.7682399  76.6434223  35.7251039
 142.3421351  66.9364810  36.6176926 141.6044108  66.4242196  36.9487169
 142.5948125  66.4965192  35.8060203 141.8421371  77.8449321  36.3226077
 142.1344345  78.4054378  35.6038443 142.3519992  78.1377882  37.0779236
 142.4432979  59.7141062  37.2118696 142.7491856  58.8538426  36.9244611
 143.1685584  60.3058682  37.0117690 128.7357335  70.1171749  35.6000294
 128.5381735  69.5241109  34.8751360 128.1803999  69.8123959  36.3176232
 136.7154058  70.0094855  37.7194887 136.7702668  69.0568692  37.6437363
 135.9045261  70.1654294  38.2036185 137.8645252  73.9374978  28.9573170
 137.4264682  73.2210837  28.4978807 138.6055693  74.1651093  28.3958261
 134.6546418  68.6271915  35.4785266 133.8414284  68.9266086  35.8850458
 135.1505413  68.2327604  36.1959748 136.8054996  78.6229672  37.4119530
 136.7631175  78.8490518  36.4828062 137.7217695  78.3893047  37.5605331
 140.2520630  69.0913739  44.3100159 140.6070018  69.3185213  45.1694625
 140.8992761  69.4232116  43.6877415 145.9818367  72.2132175  35.0149489
 145.8436266  72.4033771  34.0870678 145.6254586  72.9751558  35.4717540
 134.1460493  66.1990271  41.0946501 134.7859872  66.0579030  40.3969464
 133.3138024  65.9124784  40.7185103 146.0087747  74.2808702  40.0260760
 146.4424253  74.1883991  40.8743814 146.7219327  74.2566203  39.3880776
 134.9220797  75.4992701  37.2081493 135.7161396  75.0043021  37.0064068
 134.2112489  74.9710564  36.8449199 139.7415642  77.8810796  41.5593861
 139.7952664  78.4501733  42.3271577 138.8730423  78.0512682  41.1947898
 131.2303561  69.6435783  33.2841246 130.3001149  69.5820238  33.5011208
 131.3261033  69.1211735  32.4877887 131.1489110  66.1690596  35.8719487
 131.4095927  67.0835929  35.7628648 131.9706282  65.7015038  36.0216100
 132.6214035  67.5828353  43.0418312 133.2937088  67.3745715  42.3930961
 131.7943821  67.3850439  42.6023544 146.8703296  74.3232403  42.5593645
 147.0639186  75.2278214  42.8052920 146.7703914  73.8639822  43.3932230
 138.5239607  64.2090294  45.0583973 137.8767522  64.9080243  44.9648449
 139.2940622  64.6426438  45.4260221 141.9318405  74.4739146  48.1334526
 141.7803911  74.2449697  47.2164610 141.9223084  75.4309747  48.1465871
 138.7003741  72.0471059  43.1180792 139.6295801  72.1982218  42.9449760
 138.2794771  72.1355079  42.2629439 137.4992073  76.0721723  40.8879330
 137.3603159  75.7040507  41.7605268 136.7106669  76.5869362  40.7163288
 138.0940225  81.1730819  32.2304867 138.2691981  80.7018863  33.0450489
 137.4073013  81.7996586  32.4586127 139.0497288  75.4503326  38.2768168
 138.7147121  75.4104096  39.1725818 138.5501234  74.7848042  37.8038578
 133.0241532  70.8570956  43.8020749 132.8861330  70.1251194  44.4032288
 133.9346456  70.7679856  43.5204937 141.9856480  72.7959360  28.5505228
 141.3685650  72.0706188  28.4538280 141.5172968  73.5568720  28.2072302
 135.6523833  70.5690915  43.2904429 136.3623451  69.9284107  43.2491047
 135.6093141  70.8203810  44.2130609 143.6410612  77.5058268  46.2111008
 143.5823158  76.8217488  45.5441591 144.0430130  78.2477258  45.7591634
 134.3652767  67.5556133  45.1100068 133.8290124  67.1046871  45.7621664
 133.7769475  67.6902042  44.3670533 132.6601310  84.3220182  39.0044727
 132.8997909  84.9538706  39.6823745 131.8170507  83.9708222  39.2910086
 133.7755026  67.0144784  27.6726532 132.8984492  66.8933585  27.3088778
 134.2512779  66.2230863  27.4205420 143.6428019  75.4697852  44.4424988
 142.7554798  75.1323774  44.5651386 144.2126570  74.7380884  44.6793753
 125.2957166  71.8021944  37.7668039 125.9828206  71.4883674  37.1789054
 125.1405295  72.7063309  37.4935290 130.0991888  66.6912141  42.1953063
 130.0150077  66.0837810  41.4603473 129.2774594  67.1821159  42.1962559
 137.1729172  80.1299305  41.4086231 137.0999344  80.9354276  41.9205535
 136.7306565  80.3291270  40.5834252 136.9618952  79.3671075  34.9189052
 136.1786474  79.9092755  35.0127277 137.6611697  79.8845054  35.3183294
 140.2715602  65.1765704  37.5623258 140.7684301  64.4235666  37.2424328
 139.5002583  65.2130021  36.9966467 148.1245359  70.8806070  39.2041549
 148.1135236  71.7630785  38.8335482 147.2562739  70.5277620  39.0096086
 139.6327856  80.0286139  43.5644389 140.3455828  80.6633603  43.4920291
 139.1417884  80.1250005  42.7484391 141.3545383  73.9337391  35.1361681
 140.4201661  74.0538854  34.9666385 141.5322051  73.0309858  34.8721691
 136.8550571  67.3183087  37.2894942 136.4848358  66.7654127  37.9775848
 137.3509663  66.7141221  36.7369942 144.7417934  69.7754711  35.6711715
 145.2078386  70.6082702  35.5972018 145.1925434  69.3099692  36.3756974
 134.6839769  77.7780582  44.3849960 135.3849229  78.4117065  44.5379354
 134.2134884  78.1195314  43.6245600 142.8094165  76.1198532  32.6697867
 143.0854009  76.0055126  33.5791741 141.9398664  75.7216017  32.6310040
 142.7134597  62.1435298  39.7102617 141.7997676  62.3739524  39.8784824
 143.1427698  62.2273742  40.5616649 142.4841055  70.3325190  42.2102511
 141.8312505  70.5801097  41.5554963 142.8621435  69.5189328  41.8764988
 139.4448229  80.3684883  36.3130681 139.6270624  79.5506539  36.7758433
 140.2681215  80.5852575  35.8755571 139.7790395  79.2953068  33.5745729
 140.3078161  78.7845522  32.9615891 140.0418614  78.9795598  34.4391262
 138.5328628  71.0745001  48.6968548 137.8569265  70.9739130  49.3670923
 139.3556262  70.9184214  49.1604545 130.2807487  77.3116937  41.3181063
 130.8660924  76.5660625  41.4508967 130.0832326  77.6220894  42.2017727
 133.1346143  80.3468185  36.3343505 132.4656518  80.8314312  35.8507545
 132.9959012  80.5937405  37.2486884 124.8725142  69.8822537  40.0385506
 124.9109242  69.3486128  40.8322624 124.3665435  69.3557743  39.4196483
 137.2751411  82.3811928  42.9326164 137.8269719  82.5443550  43.6975249
 137.6157605  82.9716366  42.2606189 132.2515904  64.7287078  43.5348048
 132.3157231  65.5901909  43.1225446 132.1883025  64.1161080  42.8020407
 131.7268177  66.8010210  47.1821083 132.3540216  66.4187288  47.7958607
 130.8696096  66.5824412  47.5476775 142.1262285  77.2073186  48.7874818
 142.6702189  77.8203144  48.2929773 141.5449130  77.7652764  49.3041831
 128.5033720  68.6086640  33.1139437 128.7987161  67.6997318  33.0606491
 127.6021755  68.5874379  32.7920440 140.4119798  80.3293904  39.9189846
 140.2870938  79.5283643  39.4100791 141.0698889  80.8240097  39.4303816
 132.0327967  66.6842636  39.0966986 131.3114552  67.2978604  38.9574459
 132.8221222  67.2200401  39.0183632 142.4754707  78.1302924  41.5469396
 141.5285042  78.0108275  41.4747723 142.8237480  77.2425422  41.6295657
 134.8354280  64.0197063  45.3707638 135.3588682  64.2659359  46.1333947
 134.6166613  64.8517097  44.9510775 130.2321561  66.2900737  33.2378763
 129.9034267  65.4098116  33.0553869 130.5860932  66.2348406  34.1255152
 139.4801140  77.9255640  37.7473748 139.3326102  76.9972347  37.9281318
 140.3054634  77.9475731  37.2630823 133.3463384  66.5773707  33.6054240
 133.6859457  67.1059628  32.8832849 133.7935505  66.9154113  34.3812807
 143.0835262  78.7484199  38.8338621 144.0081809  78.5427060  38.6963072
 142.9150565  78.5000600  39.7427962 136.0406825  64.9610758  43.0557308
 135.7003646  64.1618571  43.4577988 135.3345831  65.2612469  42.4834142
 136.6923297  62.0460070  41.5084631 137.5149366  61.5720548  41.3863522
 136.9361361  62.8250554  42.0083318 135.3331531  65.0748329  31.8047533
 136.0539894  65.4529581  31.3011250 134.7096836  65.7937205  31.9082511
 139.4762654  65.7793478  32.7405865 139.6926269  66.6618115  32.4394694
 138.9956722  65.3879691  32.0111507 134.2161876  68.7379191  39.3176610
 134.0706456  69.0519494  40.2100892 133.7387079  69.3564091  38.7647509
 136.0758259  65.7281739  39.3657500 136.0619827  64.8322832  39.0289798
 136.7930687  65.7352403  39.9995786 137.9284389  66.1619079  41.4110627
 137.6702167  67.0836150  41.4094957 137.3969430  65.7649513  42.1011091
 142.8730578  79.2669866  34.1900712 143.0467456  78.7016289  33.4374565
 143.3659469  80.0670761  34.0080202 128.6907538  71.2784535  42.2564271
 128.1461006  72.0544343  42.3884546 129.5686888  71.6255340  42.0983393
 135.4795155  64.6096119  34.6345070 135.6011066  63.6812765  34.8335957
 135.1897197  64.6234805  33.7223385 138.3486345  62.2951029  37.7711790
 138.3708042  62.3590363  36.8163769 138.7654404  61.4555538  37.9652296
 148.7269969  72.0306289  35.8091012 149.1701115  71.2813614  35.4110135
 147.8496480  72.0216425  35.4264744 143.8605751  78.5836630  31.2897611
 144.5556655  79.2043323  31.5084925 144.2028901  77.7331982  31.5649989
 129.4773560  70.4054431  45.1494428 128.7355296  70.5537067  45.7359058
 129.1566304  70.6662697  44.2861177 145.7597174  76.0336336  32.8184941
 146.2848498  76.3723609  32.0934261 145.6719526  75.0983351  32.6348076
 137.4217222  79.9470410  44.9474818 137.7304349  79.7019556  45.8197518
 138.2192704  80.1517048  44.4593688 137.4437834  82.1008319  37.1780195
 137.0042825  81.6084698  37.8713051 138.1945951  81.5581287  36.9372270
 129.9230173  78.2919860  37.1804823 130.7488193  77.9923632  36.8003466
 129.5724225  77.5227483  37.6294611 134.8911707  77.6446328  39.2502496
 134.2691716  76.9817033  38.9504724 135.5616574  77.6707460  38.5676144
 128.1238778  76.2106187  38.1393756 127.2870687  75.7828361  37.9577758
 128.0962424  76.4038630  39.0764547 134.9636234  66.1228116  48.8435002
 135.0124390  66.9990239  48.4612772 135.5058748  65.5805509  48.2706646
 145.4491080  76.6669240  48.1236139 144.6586623  76.6493379  47.5840639
 145.2124434  77.2057533  48.8785176 145.5688955  73.5161706  45.4368868
 145.6186960  73.3511713  46.3784391 145.4602878  72.6488965  45.0466749
 134.4525214  76.1950252  32.7260957 134.6013334  76.8785716  32.0727630
 135.2591657  76.1755342  33.2410413 142.8592717  69.4992634  46.7528175
 143.7602580  69.3599099  46.4612172 142.9340692  69.6647089  47.6926352
 137.1935523  66.8759489  45.5981361 136.3238832  67.1693055  45.3263949
 137.4295003  67.4599934  46.3188625 147.0707152  75.9358648  45.6810889
 146.7791960  76.2988628  46.5174350 146.4579283  75.2225656  45.5024222
 148.2702834  73.5011527  38.2013460 149.1049725  73.9401331  38.3651020
 148.4061963  73.0250181  37.3821705 145.3194340  71.0591262  44.1490947
 145.7948461  71.2518908  43.3409799 144.3959905  71.1150448  43.9034331
 132.2077847  72.2215429  33.7322026 131.9623888  71.3177759  33.9302236
 132.3773761  72.2232580  32.7901504 139.8974556  63.0939106  43.1146781
 140.4156500  63.8300133  42.7893270 139.5429689  63.4003099  43.9493540
 131.4773494  67.9543787  31.2308187 130.7842739  68.0288142  30.5748223
 131.2325246  67.1904131  31.7529704 140.1487151  59.5139388  38.6347678
 140.4288904  58.8462577  39.2608104 140.9337757  59.7068484  38.1222342
 137.9520619  78.6898382  30.1972704 137.3794586  79.3088569  29.7443176
 138.5253413  79.2397744  30.7312626 144.0196009  67.9357022  42.3819253
 144.9713432  68.0355120  42.4031477 143.8499459  67.1435291  42.8917337
 142.0410388  65.0212605  42.5678654 141.4460320  65.3017618  41.8725143
 141.7560085  65.5106506  43.3395395 141.1717879  78.9735532  31.3281287
 142.1048552  78.9081094  31.5314162 141.0841092  79.8091799  30.8695819
 143.8005896  78.2901403  28.2885234 143.7219527  77.9561266  29.1820992
 144.6215562  78.7823171  28.2876706 146.4984087  71.1563142  41.4961553
 146.4660407  70.2179143  41.6821237 147.1084710  71.2347179  40.7627378
 138.3367418  70.0259195  27.5388757 139.2826522  69.8965403  27.6077175
 137.9581663  69.2873857  28.0158185 146.6478575  67.9474185  41.5419836
 146.1317624  67.1632642  41.3549765 147.5318524  67.6192902  41.7066355
 144.3089302  61.6915201  37.5015649 144.1114123  61.3830289  38.3858981
 144.9189008  62.4176840  37.6313578 152.3160637  72.2179149  40.6367589
 153.0464025  71.9564437  41.1975293 151.7067582  71.4807871  40.6769657
 150.3975934  70.3587011  41.2342041 149.6709097  70.2242976  40.6258532
 149.9823221  70.6663840  42.0398759 138.2206110  74.0776941  48.9989414
 139.1409120  74.2555540  49.1929460 138.1855693  73.1332986  48.8469113
 136.5210335  67.9509171  27.4743642 135.6141790  67.6542284  27.5506356
 136.7986316  67.6538989  26.6077928 127.4388275  69.2715535  37.9242688
 127.1191059  68.4180843  37.6317062 126.8921703  69.4864113  38.6800656
 131.2168183  71.9877976  41.6412195 131.4354192  72.9195084  41.6600229
 131.6293956  71.6285950  42.4266999 138.1372400  62.4946061  33.6287883
 137.3273129  62.1493146  34.0043129 138.8256817  62.1853605  34.2175495
 140.0662949  61.5724108  35.2512180 140.6193987  61.9919561  35.9102203
 140.3033035  60.6459856  35.2935136 136.0896048  67.5611181  51.0314944
 135.9892775  68.5105538  50.9627035 135.8717590  67.2329420  50.1591014
 135.2909119  64.8096107  27.6155621 136.1528283  65.1351005  27.8751439
 135.4759463  64.0227602  27.1028687 127.3076535  72.8918446  39.8935810
 126.6140007  72.4772399  39.3805764 128.0549526  72.9338983  39.2969229
 143.4441756  63.6824633  34.7590844 142.8640425  64.3409437  34.3768897
 143.1777688  62.8601978  34.3478262 141.8945322  63.0829691  36.9612164
 142.3945101  63.1946225  36.1526483 142.5380930  62.7790744  37.6012973
 135.9527318  70.9908320  49.8480005 135.4694400  71.7908680  50.0543894
 136.0388257  71.0016265  48.8947449 129.2213278  72.8236700  37.7701825
 129.1983966  72.9224387  36.8183708 129.5313914  73.6701851  38.0918991
 131.8800655  74.8812855  41.8848439 132.8343909  74.8496797  41.8178371
 131.6813179  74.4203479  42.6998665 132.4700038  73.4513971  44.4519237
 133.2892927  73.9458050  44.4754074 132.7436845  72.5345939  44.4236804
 142.2266634  65.8424723  33.8147192 141.3392489  66.1274374  33.5967387
 142.6420623  65.6818487  32.9674469 145.5781170  65.8671244  37.5301532
 146.3541560  66.3567697  37.8026148 144.8529304  66.2929299  37.9873401
 148.0153729  66.5798864  38.5875472 148.6098219  66.3394600  37.8768781
 148.0880312  65.8605994  39.2149009 130.2350884  80.4232475  38.9018637
 130.1005352  79.6632875  38.3356635 129.8182947  81.1473374  38.4347426
 141.3709847  75.6069398  27.9095212 142.0745697  75.8119401  28.5252868
 140.6472496  76.1746160  28.1744296 142.2007658  71.3579259  34.0297483
 142.1442859  71.8147811  33.1905115 142.7536000  70.5969944  33.8520325
 146.0112463  67.1468991  34.8547602 145.7549398  66.7465627  35.6855810
 145.3865332  67.8612785  34.7297741 150.3224801  69.8865064  37.3618893
 149.7624359  69.9558254  38.1350456 149.7168305  69.7106049  36.6418390
 133.3920010  81.3201792  39.1137080 133.2752394  82.2647224  39.0115770
 132.5712456  81.0175353  39.5022879 143.2796545  76.0451927  29.9593672
 144.1142149  75.6133126  29.7771147 143.1180888  75.8733941  30.8870567
 142.9342437  72.5484041  31.3250012 142.8791241  72.3828312  30.3838456
 142.3088492  73.2560073  31.4812201 127.7234952  67.7852105  45.1511434
 128.3693815  67.2751059  45.6398659 127.5152103  68.5220787  45.7254859
 140.2488344  74.8532952  50.6503575 141.1179504  75.0273605  50.2890209
 139.7695096  75.6727369  50.5279304 136.2438562  62.0492150  30.9035330
 136.2317232  62.9933989  31.0603601 137.1361984  61.8662295  30.6094791
 134.4174524  81.9730053  42.3293008 135.3201771  82.0053664  42.6459503
 134.1911894  81.0430504  42.3439344 136.1728126  80.7261040  38.9903087
 135.2223757  80.7262902  38.8767459 136.4760612  79.9793775  38.4739121
 140.0590682  58.6434926  35.1581267 139.2923078  58.0893413  35.3037949
 140.4701387  58.7156795  36.0195419 132.0632443  64.9319722  49.2486448
 132.9263904  64.5756527  49.4589773 131.4897854  64.5933617  49.9361852
 151.9080820  86.5621578  40.0548849 152.5459230  86.4428326  39.3512189
 151.7901663  87.5102422  40.1136801 148.7170526  86.5149006  39.9910374
 148.3789038  86.3990071  39.1030909 149.5860294  86.1140172  39.9711380
 144.5757342  88.3684483  35.9807265 144.0122207  88.2774420  35.2123553
 144.4609737  87.5484387  36.4609757 149.1990309  87.6683858  45.9496579
 149.1878950  87.2736656  45.0777083 149.3610949  86.9349931  46.5430351
 142.1221774  89.8635674  38.8191485 142.9143066  89.5226499  38.4037785
 142.3618424  89.9730650  39.7393639 150.1556900  92.0355451  31.2921730
 149.5044880  92.6209531  30.9055744 150.9501263  92.5661645  31.3516767
 144.0812528  89.1244588  31.6908864 144.8543404  88.5773575  31.5521740
 144.4337927  89.9888837  31.9023325 145.9197570  90.4520970  44.8975763
 145.6287436  91.3566601  44.7822430 146.5554555  90.4937498  45.6119833
 146.8453777  87.8297819  41.4877123 147.4417349  87.6053841  40.7734086
 146.9028749  87.0882564  42.0902571 146.4178805  85.2837254  29.3227314
 146.6704326  84.7618775  28.5610777 145.4803365  85.1203399  29.4253998
 151.4622088  84.2873032  37.1302057 152.2485178  83.8692455  36.7792474
 151.7260793  85.1919124  37.2983706 151.6332166  89.7245883  31.8290714
 150.9977999  89.7980509  32.5411619 151.3029572  90.3139481  31.1509793
 146.1375094  87.1865360  31.5251689 146.0211352  86.5110263  32.1932773
 146.2477354  86.6997734  30.7083842 148.4806635  86.6475507  35.2298378
 148.1164842  86.1206128  35.9411300 149.3373751  86.2573976  35.0564864
 154.3855936  77.9369840  42.4929644 154.0539261  78.8065250  42.2690859
 153.7901549  77.6206124  43.1723675 148.1212122  81.6765407  30.2259727
 148.2886524  82.5445643  30.5930198 147.9309291  81.8392688  29.3021016
 150.8787455  90.1382386  41.8925557 150.5788178  91.0407424  41.7841364
 150.5338515  89.8714569  42.7446710 144.3299937  86.5896182  37.9262262
 143.4050433  86.4572396  38.1339953 144.5784350  87.3690402  38.4232204
 154.2784599  82.6564926  39.5722994 153.3701476  82.5880334  39.2781755
 154.2272195  83.1336871  40.4004820 148.1001343  84.1323064  31.2106394
 147.9800968  84.5780115  32.0491874 147.4053931  84.4808382  30.6519932
 141.6908748  86.2329456  38.7606051 141.8201129  86.4863935  39.6745462
 141.0106199  86.8257164  38.4410706 145.8608235  96.9026706  34.8596525
 145.7832265  97.8534531  34.9385005 145.2569879  96.5572578  35.5171451
 148.3525465  84.0754571  47.5157892 147.5758799  84.6348491  47.5060756
 148.9916028  84.5611354  48.0372762 156.1446245  80.8581364  41.3500868
 155.5020626  81.1513897  40.7040663 155.6401174  80.7434284  42.1554065
 153.7986409  84.6044537  32.0386728 154.7104265  84.8371924  31.8634425
 153.2896056  85.1881581  31.4761806 146.6071837  86.8840025  47.0775859
 147.3486522  87.4225069  46.8010682 145.9008823  87.5106313  47.2347410
 152.0827177  89.0269165  45.6748020 152.4910533  88.5851576  44.9302653
 151.3604438  88.4521793  45.9282213 148.4358247  83.9641772  43.0481577
 149.2819442  84.3881185  43.1916226 148.3756885  83.3075396  43.7420140
 152.4055991  89.5870356  39.4300309 151.7764854  89.7516070  38.7276377
 152.0181654  90.0011965  40.2011273 156.2845223  90.5224794  36.7844673
 155.5996261  90.9023695  36.2341706 156.3689073  91.1320120  37.5176621
 151.5857692  81.6246140  44.7062751 151.3418624  82.3788201  44.1697026
 151.8617623  82.0031488  45.5409998 153.5396155  88.1684753  43.3840016
 153.7513050  88.8116512  42.7074397 153.4925903  87.3347069  42.9161946
 151.1422384  80.7802573  40.2876588 150.2806863  81.0783827  40.5793326
 151.1684819  80.9972972  39.3557621 147.9583953  89.3244764  36.6950394
 148.4222299  89.6032467  35.9055017 147.6940751  88.4228208  36.5123485
 144.8508034  88.8716245  39.6330157 145.4209391  89.3003514  38.9947642
 145.4416146  88.5898830  40.3314343 146.8952839  85.4467916  33.5039959
 147.5976883  85.8988960  33.9713886 146.5633468  84.8051735  34.1319852
 145.3433201  84.0379673  47.8791169 144.7131861  84.7195954  48.1126566
 145.2369289  83.9262754  46.9344307 140.6378173  83.7051469  38.8057093
 139.8477227  83.9608997  38.3297203 141.1289421  84.5199807  38.9109133
 154.6541983  91.0456708  41.5562374 155.4759427  90.6436895  41.2745055
 154.6504386  90.9424942  42.5078489 142.5892919  84.0696048  35.7640570
 141.7924082  84.1814742  36.2824065 142.3618511  84.4082700  34.8981460
 148.4198586  90.5940751  43.7123084 148.4843019  91.0561159  44.5481256
 147.7109510  89.9638116  43.8405394 138.9215876  83.9581959  41.2372084
 139.1723915  84.8428969  41.5029660 139.4575425  83.7786561  40.4647175
 148.1346604  92.2608859  33.5802065 147.9992279  93.1060395  34.0086912
 148.6756416  92.4628136  32.8167998 144.6213944  78.3400439  50.2416420
 144.2280889  77.7866637  50.9164064 145.4380084  78.6511017  50.6322937
 141.5876001  89.7784297  34.1529990 142.1000522  90.5727547  34.3035554
 142.2398714  89.0810587  34.0863591 143.3970886  92.8950053  36.2352743
 143.5737514  93.8168018  36.0473727 144.1927720  92.5808472  36.6647123
 147.5381905  79.7558318  47.8336676 148.2791618  80.3565471  47.7541139
 147.7699827  79.0135956  47.2754719 142.6823243  84.9414685  46.1114906
 142.5676758  84.0399942  46.4122005 141.8267760  85.1878382  45.7599723
 149.7615080  92.8832425  47.7102407 149.3178935  92.0968804  47.3923311
 150.4232294  93.0711576  47.0446297 144.5202202  94.4128227  42.2363085
 145.0709627  94.2845290  41.4640079 143.6813677  94.7123116  41.8857978
 151.8596318  93.1635225  45.7383808 151.8414794  93.9844106  45.2464077
 152.7816238  93.0389300  45.9633949 148.3169373  90.6779355  46.5807316
 148.8497709  89.9167643  46.3506624 147.7883454  90.3853007  47.3231471
 151.4839068  75.7839421  42.1100958 151.1403337  76.6741062  42.0340069
 151.8518030  75.5941078  41.2470543 139.5524918  88.1072951  34.9289560
 140.3900140  88.5169960  34.7123268 139.7303186  87.1672393  34.8989754
 151.4489350  85.7748032  30.6173393 150.9335974  86.5452636  30.8561781
 151.1766659  85.1013168  31.2406455 149.0336461  80.6197733  35.6758631
 148.1778058  80.2304583  35.4964270 149.4463413  80.6989693  34.8158417
 150.5635608  78.1544076  40.0750191 150.0600404  78.1174211  39.2617997
 150.8566215  79.0636819  40.1346848 146.8078494  78.2382806  39.0816373
 147.6731491  78.0425614  38.7222262 146.8756003  78.0093157  40.0085730
 151.2375653  83.6475124  32.4433174 150.9325789  83.9621273  33.2943317
 152.1906096  83.7256544  32.4860507 149.6822085  89.8065347  34.0926128
 149.1543447  89.0718107  33.7799366 149.1809588  90.5840024  33.8466097
 154.6614931  88.0014368  39.2093175 154.0038606  88.6913629  39.2973303
 155.4655331  88.3910800  39.5527161 144.4140813  80.4685013  36.4532740
 144.9884565  80.2460195  35.7205933 145.0011795  80.5373708  37.2061341
 153.4720390  86.3558740  37.2597116 153.9852272  86.9888732  37.7618826
 154.1221614  85.7559936  36.8940476 144.7410400  82.4989475  30.4728625
 143.9047712  82.8364161  30.7937900 144.6015170  82.3638454  29.5355762
 146.7163481  77.3426262  35.1807809 146.0627893  77.0275280  34.5564424
 146.6743955  76.7202003  35.9067632 147.8274685  87.6245557  27.0961101
 146.9201747  87.3934811  27.2952250 148.3245717  86.8283177  27.2835083
 150.7342764  96.3343065  30.0157787 150.0604463  96.6374761  30.6242745
 151.1208586  97.1372145  29.6663245 149.9501221  83.8308196  39.5055457
 149.0323782  84.0523143  39.3477145 150.3661365  83.9054506  38.6467164
 150.7336269  85.2299612  34.6358137 151.4808088  85.7421009  34.3265259
 151.0027858  84.9083664  35.4962531 149.0062919  87.7258152  31.6185091
 148.0974138  87.4417185  31.7157561 149.0358003  88.1457231  30.7588398
 154.2382186  91.3364742  35.3876259 153.7844513  90.4955652  35.4441449
 153.6076153  91.9726140  35.7251039 153.1815106  82.2656728  36.6176926
 152.4437863  81.7534114  36.9487169 153.4341879  81.8257109  35.8060203
 152.6815126  93.1741239  36.3226077 152.9738100  93.7346296  35.6038443
 153.1913746  93.4669800  37.0779236 153.2826733  75.0432980  37.2118696
 153.5885610  74.1830343  36.9244611 154.0079338  75.6350600  37.0117690
 139.5751089  85.4463666  35.6000294 139.3775489  84.8533027  34.8751360
 139.0197753  85.1415877  36.3176232 147.5547813  85.3386773  37.7194887
 147.6096423  84.3860609  37.6437363 146.7439015  85.4946212  38.2036185
 148.7039007  89.2666896  28.9573170 148.2658437  88.5502755  28.4978807
 149.4449448  89.4943011  28.3958261 145.4940173  83.9563833  35.4785266
 144.6808038  84.2558003  35.8850458 145.9899167  83.5619521  36.1959748
 147.6448751  93.9521590  37.4119530 147.6024930  94.1782436  36.4828062
 148.5611450  93.7184964  37.5605331 151.0914385  84.4205657  44.3100159
 151.4463772  84.6477130  45.1694625 151.7386516  84.7524034  43.6877415
 144.9854248  81.5282188  41.0946501 145.6253627  81.3870947  40.3969464
 144.1531778  81.2416702  40.7185103 145.7614552  90.8284619  37.2081493
 146.5555150  90.3334939  37.0064068 145.0506244  90.3002482  36.8449199
 150.5809396  93.2102714  41.5593861 150.6346418  93.7793650  42.3271577
 149.7124177  93.3804599  41.1947898 142.0697315  84.9727700  33.2841246
 141.1394903  84.9112156  33.5011208 142.1654787  84.4503653  32.4877887
 141.9882864  81.4982513  35.8719487 142.2489681  82.4127846  35.7628648
 142.8100036  81.0306956  36.0216100 143.4607789  82.9120270  43.0418312
 144.1330843  82.7037633  42.3930961 142.6337576  82.7142356  42.6023544
 149.3633361  79.5382211  45.0583973 148.7161276  80.2372161  44.9648449
 150.1334377  79.9718355  45.4260221 152.7712159  89.8031063  48.1334526
 152.6197666  89.5741615  47.2164610 152.7616839  90.7601665  48.1465871
 149.5397496  87.3762976  43.1180792 150.4689556  87.5274136  42.9449760
 149.1188526  87.4646997  42.2629439 148.3385828  91.4013641  40.8879330
 148.1996913  91.0332425  41.7605268 147.5500424  91.9161280  40.7163288
 148.9333980  96.5022737  32.2304867 149.1085735  96.0310780  33.0450489
 148.2466768  97.1288503  32.4586127 149.8891043  90.7795243  38.2768168
 149.5540875  90.7396013  39.1725818 149.3894988  90.1139959  37.8038578
 143.8635287  86.1862873  43.8020749 143.7255085  85.4543112  44.4032288
 144.7740210  86.0971773  43.5204937 152.8250234  88.1251278  28.5505228
 152.2079405  87.3998106  28.4538280 152.3566723  88.8860638  28.2072302
 146.4917587  85.8982833  43.2904429 147.2017206  85.2576025  43.2491047
 146.4486895  86.1495728  44.2130609 154.4804366  92.8350186  46.2111008
 154.4216912  92.1509406  45.5441591 154.8823884  93.5769176  45.7591634
 145.2046521  82.8848051  45.1100068 144.6683878  82.4338789  45.7621664
 144.6163230  83.0193959  44.3670533 143.4995065  99.6512100  39.0044727
 143.7391663 100.2830624  39.6823745 142.6564261  99.3000140  39.2910086
 144.6148780  82.3436702  27.6726532 143.7378247  82.2225503  27.3088778
 145.0906533  81.5522780  27.4205420 154.4821773  90.7989770  44.4424988
 153.5948552  90.4615692  44.5651386 155.0520324  90.0672801  44.6793753
 136.1350920  87.1313862  37.7668039 136.8221960  86.8175592  37.1789054
 135.9799049  88.0355226  37.4935290 140.9385643  82.0204058  42.1953063
 140.8543831  81.4129728  41.4603473 140.1168349  82.5113077  42.1962559
 148.0122927  95.4591222  41.4086231 147.9393098  96.2646194  41.9205535
 147.5700320  95.6583188  40.5834252 147.8012706  94.6962992  34.9189052
 147.0180228  95.2384673  35.0127277 148.5005451  95.2136972  35.3183294
 151.1109356  80.5057622  37.5623258 151.6078056  79.7527584  37.2424328
 150.3396338  80.5421938  36.9966467 150.4721610  95.3578056  43.5644389
 151.1849582  95.9925521  43.4920291 149.9811639  95.4541922  42.7484391
 152.1939137  89.2629309  35.1361681 151.2595416  89.3830771  34.9666385
 152.3715806  88.3601776  34.8721691 147.6944325  82.6475005  37.2894942
 147.3242113  82.0946045  37.9775848 148.1903418  82.0433138  36.7369942
 155.5811688  85.1046628  35.6711715 156.0472141  85.9374620  35.5972018
 156.0319189  84.6391610  36.3756974 145.5233524  93.1072500  44.3849960
 146.2242983  93.7408983  44.5379354 145.0528639  93.4487231  43.6245600
 153.6487920  91.4490450  32.6697867 153.9247763  91.3347044  33.5791741
 152.7792418  91.0507934  32.6310040 153.5528351  77.4727215  39.7102617
 152.6391431  77.7031442  39.8784824 153.9821453  77.5565659  40.5616649
 153.3234810  85.6617107  42.2102511 152.6706260  85.9093015  41.5554963
 153.7015190  84.8481245  41.8764988 150.2841984  95.6976800  36.3130681
 150.4664378  94.8798456  36.7758433 151.1074970  95.9144493  35.8755571
 150.6184149  94.6244986  33.5745729 151.1471915  94.1137440  32.9615891
 150.8812369  94.3087516  34.4391262 149.3722383  86.4036918  48.6968548
 148.6963020  86.3031048  49.3670923 150.1950017  86.2476132  49.1604545
 141.1201242  92.6408855  41.3181063 141.7054679  91.8952543  41.4508967
 140.9226080  92.9512812  42.2017727 143.9739897  95.6760102  36.3343505
 143.3050272  96.1606230  35.8507545 143.8352767  95.9229323  37.2486884
 135.7118897  85.2114455  40.0385506 135.7502996  84.6778046  40.8322624
 135.2059189  84.6849661  39.4196483 148.1145166  97.7103846  42.9326164
 148.6663474  97.8735467  43.6975249 148.4551359  98.3008284  42.2606189
 143.0909659  80.0578996  43.5348048 143.1550985  80.9193826  43.1225446
 143.0276779  79.4452997  42.8020407 142.5661931  82.1302128  47.1821083
 143.1933970  81.7479205  47.7958607 141.7089850  81.9116330  47.5476775
 152.9656040  92.5365103  48.7874818 153.5095944  93.1495062  48.2929773
 152.3842885  93.0944682  49.3041831 139.3427474  83.9378557  33.1139437
 139.6380915  83.0289236  33.0606491 138.4415510  83.9166297  32.7920440
 151.2513553  95.6585821  39.9189846 151.1264692  94.8575561  39.4100791
 151.9092644  96.1532015  39.4303816 142.8721721  82.0134554  39.0966986
 142.1508307  82.6270521  38.9574459 143.6614977  82.5492319  39.0183632
 153.3148461  93.4594841  41.5469396 152.3678797  93.3400193  41.4747723
 153.6631234  92.5717339  41.6295657 145.6748035  79.3488980  45.3707638
 146.1982436  79.5951277  46.1333947 145.4560368  80.1809015  44.9510775
 141.0715316  81.6192655  33.2378763 140.7428022  80.7390034  33.0553869
 141.4254686  81.5640324  34.1255152 150.3194895  93.2547558  37.7473748
 150.1719857  92.3264265  37.9281318 151.1448388  93.2767648  37.2630823
 144.1857139  81.9065625  33.6054240 144.5253211  82.4351546  32.8832849
 144.6329259  82.2446031  34.3812807 153.9229016  94.0776116  38.8338621
 154.8475564  93.8718978  38.6963072 153.7544320  93.8292517  39.7427962
 146.8800580  80.2902675  43.0557308 146.5397400  79.4910488  43.4577988
 146.1739586  80.5904386  42.4834142 147.5317051  77.3751988  41.5084631
 148.3543121  76.9012466  41.3863522 147.7755115  78.1542472  42.0083318
 146.1725286  80.4040246  31.8047533 146.8933648  80.7821499  31.3011250
 145.5490590  81.1229123  31.9082511 150.3156409  81.1085395  32.7405865
 150.5320023  81.9910033  32.4394694 149.8350476  80.7171609  32.0111507
 145.0555630  84.0671108  39.3176610 144.9100211  84.3811412  40.2100892
 144.5780834  84.6856009  38.7647509 146.9152013  81.0573656  39.3657500
 146.9013582  80.1614750  39.0289798 147.6324441  81.0644320  39.9995786
 148.7678144  81.4910997  41.4110627 148.5095922  82.4128067  41.4094957
 148.2363184  81.0941431  42.1011091 153.7124333  94.5961784  34.1900712
 153.8861210  94.0308206  33.4374565 154.2053224  95.3962679  34.0080202
 139.5301292  86.6076453  42.2564271 138.9854760  87.3836261  42.3884546
 140.4080642  86.9547257  42.0983393 146.3188909  79.9388037  34.6345070
 146.4404820  79.0104683  34.8335957 146.0290951  79.9526723  33.7223385
 149.1880099  77.6242947  37.7711790 149.2101796  77.6882280  36.8163769
 149.6048158  76.7847456  37.9652296 154.6999505  93.9128548  31.2897611
 155.3950410  94.5335241  31.5084925 155.0422655  93.0623899  31.5649989
 140.3167314  85.7346349  45.1494428 139.5749050  85.8828984  45.7359058
 139.9960059  85.9954615  44.2861177 148.2610977  95.2762327  44.9474818
 148.5698103  95.0311474  45.8197518 149.0586459  95.4808966  44.4593688
 148.2831589  97.4300237  37.1780195 147.8436579  96.9376616  37.8713051
 149.0339706  96.8873205  36.9372270 140.7623928  93.6211778  37.1804823
 141.5881948  93.3215550  36.8003466 140.4117980  92.8519400  37.6294611
 145.7305461  92.9738246  39.2502496 145.1085470  92.3108951  38.9504724
 146.4010328  92.9999378  38.5676144 138.9632533  91.5398104  38.1393756
 138.1264441  91.1120279  37.9577758 138.9356178  91.7330548  39.0764547
 145.8029989  81.4520034  48.8435002 145.8518144  82.3282157  48.4612772
 146.3452503  80.9097427  48.2706646 156.2884834  91.9961157  48.1236139
 155.4980378  91.9785296  47.5840639 156.0518189  92.5349451  48.8785176
 156.4082709  88.8453624  45.4368868 156.4580714  88.6803631  46.3784391
 156.2996633  87.9780883  45.0466749 145.2918968  91.5242169  32.7260957
 145.4407088  92.2077634  32.0727630 146.0985411  91.5047259  33.2410413
 153.6986472  84.8284552  46.7528175 154.5996334  84.6891017  46.4612172
 153.7734446  84.9939007  47.6926352 148.0329277  82.2051406  45.5981361
 147.1632586  82.4984973  45.3263949 148.2688757  82.7891851  46.3188625
 156.1588094  86.3883180  44.1490947 156.6342216  86.5810826  43.3409799
 155.2353660  86.4442366  43.9034331 143.0471601  87.5507347  33.7322026
 142.8017643  86.6469677  33.9302236 143.2167516  87.5524497  32.7901504
 150.7368311  78.4231023  43.1146781 151.2550255  79.1592050  42.7893270
 150.3823444  78.7295017  43.9493540 142.3167249  83.2835705  31.2308187
 141.6236493  83.3580060  30.5748223 142.0719000  82.5196048  31.7529704
 150.9880905  74.8431306  38.6347678 151.2682659  74.1754495  39.2608104
 151.7731512  75.0360402  38.1222342 148.7914374  94.0190300  30.1972704
 148.2188341  94.6380487  29.7443176 149.3647167  94.5689662  30.7312626
 154.8589763  83.2648940  42.3819253 155.8107186  83.3647038  42.4031477
 154.6893214  82.4727208  42.8917337 152.8804143  80.3504523  42.5678654
 152.2854075  80.6309536  41.8725143 152.5953840  80.8398424  43.3395395
 152.0111633  94.3027450  31.3281287 152.9442306  94.2373012  31.5314162
 151.9234846  95.1383717  30.8695819 154.6399650  93.6193320  28.2885234
 154.5613282  93.2853184  29.1820992 155.4609317  94.1115088  28.2876706
 149.1761172  85.3551113  27.5388757 150.1220277  85.2257321  27.6077175
 148.7975417  84.6165775  28.0158185 155.1483057  77.0207119  37.5015649
 154.9507878  76.7122207  38.3858981 155.7582762  77.7468758  37.6313578
 149.0599865  89.4068859  48.9989414 149.9802874  89.5847458  49.1929460
 149.0249448  88.4624904  48.8469113 147.3604089  83.2801089  27.4743642
 146.4535545  82.9834202  27.5506356 147.6380070  82.9830907  26.6077928
 138.2782030  84.6007452  37.9242688 137.9584814  83.7472761  37.6317062
 137.7315458  84.8156031  38.6800656 142.0561937  87.3169893  41.6412195
 142.2747947  88.2487001  41.6600229 142.4687711  86.9577868  42.4266999
 148.9766155  77.8237979  33.6287883 148.1666883  77.4785064  34.0043129
 149.6650572  77.5145522  34.2175495 150.9056703  76.9016026  35.2512180
 151.4587742  77.3211479  35.9102203 151.1426790  75.9751774  35.2935136
 146.9289802  82.8903099  51.0314944 146.8286529  83.8397456  50.9627035
 146.7111344  82.5621338  50.1591014 146.1302874  80.1388024  27.6155621
 146.9922038  80.4642923  27.8751439 146.3153218  79.3519520  27.1028687
 138.1470290  88.2210364  39.8935810 137.4533761  87.8064317  39.3805764
 138.8943281  88.2630900  39.2969229 154.2835510  79.0116551  34.7590844
 153.7034179  79.6701355  34.3768897 154.0171443  78.1893895  34.3478262
 152.7339077  78.4121608  36.9612164 153.2338855  78.5238143  36.1526483
 153.3774685  78.1082661  37.6012973 146.7921072  86.3200238  49.8480005
 146.3088154  87.1200598  50.0543894 146.8782012  86.3308183  48.8947449
 140.0607032  88.1528618  37.7701825 140.0377720  88.2516305  36.8183708
 140.3707669  88.9993768  38.0918991 142.7194410  90.2104773  41.8848439
 143.6737664  90.1788715  41.8178371 142.5206934  89.7495396  42.6998665
 143.3093792  88.7805889  44.4519237 144.1286681  89.2749967  44.4754074
 143.5830600  87.8637857  44.4236804 153.0660388  81.1716641  33.8147192
 152.1786243  81.4566292  33.5967387 153.4814377  81.0110404  32.9674469
 141.0744639  95.7524392  38.9018637 140.9399107  94.9924793  38.3356635
 140.6576701  96.4765292  38.4347426 152.2103602  90.9361316  27.9095212
 152.9139452  91.1411318  28.5252868 151.4866251  91.5038078  28.1744296
 153.0401412  86.6871177  34.0297483 152.9836613  87.1439728  33.1905115
 153.5929755  85.9261862  33.8520325 144.2313765  96.6493709  39.1137080
 144.1146149  97.5939142  39.0115770 143.4106211  96.3467271  39.5022879
 154.1190299  91.3743845  29.9593672 154.9535903  90.9425043  29.7771147
 153.9574642  91.2025859  30.8870567 153.7736191  87.8775958  31.3250012
 153.7184995  87.7120230  30.3838456 153.1482247  88.5851991  31.4812201
 138.5628706  83.1144023  45.1511434 139.2087570  82.6042977  45.6398659
 138.3545857  83.8512704  45.7254859 151.0882099  90.1824870  50.6503575
 151.9573258  90.3565522  50.2890209 150.6088850  91.0019287  50.5279304
 147.0832317  77.3784067  30.9035330 147.0710987  78.3225907  31.0603601
 147.9755739  77.1954213  30.6094791 145.2568279  97.3021971  42.3293008
 146.1595525  97.3345581  42.6459503 145.0305649  96.3722422  42.3439344
 147.0121881  96.0552958  38.9903087 146.0617512  96.0554819  38.8767459
 147.3154367  95.3085692  38.4739121 150.8984436  73.9726844  35.1581267
 150.1316832  73.4185331  35.3037949 151.3095141  74.0448713  36.0195419
 142.9026197  80.2611640  49.2486448 143.7657659  79.9048445  49.4589773
 142.3291608  79.9225535  49.9361852 155.4151096 103.6976401  35.9807265
 154.8515961 103.6066337  35.2123553 155.3003491 102.8776305  36.4609757
 152.9615528 105.1927592  38.8191485 153.7536820 104.8518417  38.4037785
 153.2012178 105.3022567  39.7393639 154.9206282 104.4536505  31.6908864
 155.6937158 103.9065492  31.5521740 155.2731681 105.3180755  31.9023325
 155.1693691 101.9188100  37.9262262 154.2444188 101.7864314  38.1339953
 155.4178104 102.6982319  38.4232204 152.5302502 101.5621374  38.7606051
 152.6594883 101.8155853  39.6745462 151.8499954 102.1549082  38.4410706
 155.6901789 104.2008163  39.6330157 156.2603146 104.6295431  38.9947642
 156.2809901 103.9190748  40.3314343 156.1826955  99.3671590  47.8791169
 155.5525616 100.0487871  48.1126566 156.0763043  99.2554672  46.9344307
 151.4771928  99.0343387  38.8057093 150.6870982  99.2900915  38.3297203
 151.9683175  99.8491724  38.9109133 153.4286673  99.3987966  35.7640570
 152.6317836  99.5106660  36.2824065 153.2012265  99.7374618  34.8981460
 149.7609631  99.2873877  41.2372084 150.0117669 100.1720887  41.5029660
 150.2969179  99.1078479  40.4647175 155.4607698  93.6692356  50.2416420
 155.0674644  93.1158555  50.9164064 156.2773838  93.9802935  50.6322937
 152.4269756 105.1076215  34.1529990 152.9394276 105.9019465  34.3035554
 153.0792469 104.4102505  34.0863591 154.2364641 108.2241971  36.2352743
 154.4131269 109.1459936  36.0473727 155.0321474 107.9100390  36.6647123
 153.5216997 100.2706603  46.1114906 153.4070512  99.3691860  46.4122005
 152.6661515 100.5170299  45.7599723 155.3595956 109.7420145  42.2363085
 155.9103381 109.6137208  41.4640079 154.5207432 110.0415034  41.8857978
 150.3918673 103.4364869  34.9289560 151.2293895 103.8461877  34.7123268
 150.5696940 102.4964311  34.8989754 155.2534567  95.7976931  36.4532740
 155.8278319  95.5752113  35.7205933 155.8405550  95.8665626  37.2061341
 155.5804155  97.8281392  30.4728625 154.7441467  98.1656079  30.7937900
 155.4408924  97.6930372  29.5355762 150.4144844 100.7755584  35.6000294
 150.2169244 100.1824945  34.8751360 149.8591508 100.4707794  36.3176232
 155.8248002  96.8574106  41.0946501 156.4647381  96.7162865  40.3969464
 154.9925533  96.5708619  40.7185103 152.9091070 100.3019618  33.2841246
 151.9788658 100.2404074  33.5011208 153.0048541  99.7795571  32.4877887
 152.8276619  96.8274431  35.8719487 153.0883436  97.7419764  35.7628648
 153.6493791  96.3598873  36.0216100 154.3001544  98.2412188  43.0418312
 154.9724597  98.0329550  42.3930961 153.4731330  98.0434274  42.6023544
 154.7029041 101.5154791  43.8020749 154.5648839 100.7835030  44.4032288
 155.6133965 101.4263691  43.5204937 156.0440276  98.2139968  45.1100068
 155.5077633  97.7630707  45.7621664 155.4556984  98.3485877  44.3670533
 154.3388819 114.9804018  39.0044727 154.5785418 115.6122542  39.6823745
 153.4958016 114.6292058  39.2910086 155.4542535  97.6728620  27.6726532
 154.5772001  97.5517420  27.3088778 155.9300288  96.8814698  27.4205420
 146.9744675 102.4605779  37.7668039 147.6615715 102.1467509  37.1789054
 146.8192804 103.3647144  37.4935290 151.7779397  97.3495976  42.1953063
 151.6937586  96.7421645  41.4603473 150.9562103  97.8404994  42.1962559
 151.9594996 107.9700773  41.3181063 152.5448433 107.2244460  41.4508967
 151.7619835 108.2804729  42.2017727 154.8133651 111.0052020  36.3343505
 154.1444027 111.4898148  35.8507545 154.6746521 111.2521240  37.2486884
 146.5512651 100.5406373  40.0385506 146.5896751 100.0069963  40.8322624
 146.0452944 100.0141578  39.4196483 153.9303413  95.3870913  43.5348048
 153.9944740  96.2485744  43.1225446 153.8670534  94.7744915  42.8020407
 153.4055686  97.4594046  47.1821083 154.0327725  97.0771123  47.7958607
 152.5483605  97.2408248  47.5476775 150.1821229  99.2670475  33.1139437
 150.4774670  98.3581153  33.0606491 149.2809264  99.2458214  32.7920440
 153.7115476  97.3426471  39.0966986 152.9902061  97.9562439  38.9574459
 154.5008731  97.8784236  39.0183632 151.9109070  96.9484573  33.2378763
 151.5821776  96.0681951  33.0553869 152.2648441  96.8932241  34.1255152
 155.0250893  97.2357542  33.6054240 155.3646966  97.7643464  32.8832849
 155.4723014  97.5737948  34.3812807 155.8949385  99.3963026  39.3176610
 155.7493965  99.7103329  40.2100892 155.4174588 100.0147926  38.7647509
 150.3695047 101.9368371  42.2564271 149.8248515 102.7128178  42.3884546
 151.2474397 102.2839175  42.0983393 151.1561069 101.0638267  45.1494428
 150.4142805 101.2120902  45.7359058 150.8353813 101.3246532  44.2861177
 151.6017682 108.9503696  37.1804823 152.4275702 108.6507467  36.8003466
 151.2511734 108.1811318  37.6294611 149.8026287 106.8690022  38.1393756
 148.9658196 106.4412196  37.9577758 149.7749933 107.0622465  39.0764547
 153.8865355 102.8799265  33.7322026 153.6411397 101.9761595  33.9302236
 154.0561270 102.8816415  32.7901504 153.1561003  98.6127622  31.2308187
 152.4630248  98.6871977  30.5748223 152.9112755  97.8487966  31.7529704
 149.1175784  99.9299370  37.9242688 148.7978568  99.0764678  37.6317062
 148.5709212 100.1447948  38.6800656 152.8955692 102.6461811  41.6412195
 153.1141701 103.5778919  41.6600229 153.3081465 102.2869785  42.4266999
 148.9864044 103.5502282  39.8935810 148.2927515 103.1356234  39.3805764
 149.7337035 103.5922818  39.2969229 150.9000787 103.4820535  37.7701825
 150.8771475 103.5808223  36.8183708 151.2101423 104.3285686  38.0918991
 153.5588164 105.5396690  41.8848439 154.5131418 105.5080633  41.8178371
 153.3600688 105.0787314  42.6998665 154.1487547 104.1097806  44.4519237
 154.9680436 104.6041885  44.4754074 154.4224354 103.1929775  44.4236804
 151.9138393 111.0816310  38.9018637 151.7792861 110.3216711  38.3356635
 151.4970456 111.8057210  38.4347426 155.0707519 111.9785627  39.1137080
 154.9539903 112.9231059  39.0115770 154.2499965 111.6759188  39.5022879
 149.4022461  98.4435940  45.1511434 150.0481324  97.9334894  45.6398659
 149.1939612  99.1804622  45.7254859 153.7419952  95.5903557  49.2486448
 154.6051413  95.2340362  49.4589773 153.1685362  95.2517452  49.9361852
  89.3026294   0.0114634  25.7290033  89.5422892   0.6433158  26.4069052
  88.4595490  -0.3397326  26.0155393  98.7646757   5.5530126  25.5436792
  99.5568049   5.2120951  25.1283091  99.0043407   5.6625101  26.4638945
 106.7981884   7.7249902  18.0167036 106.1469864   8.3103983  17.6301050
 107.5926247   8.2556097  18.0762074 100.7237511   4.8139040  18.4154171
 101.4968387   4.2668027  18.2767047 101.0762910   5.6783289  18.6268632
 102.5622554   6.1415422  31.6221070 102.2712419   7.0461053  31.5067736
 103.1979538   6.1831949  32.3365140 102.5033218  12.5921158  21.5841831
 102.4257248  13.5428983  21.6630312 101.8994862  12.2467030  22.2416758
 105.0623570   6.2835203  30.4368391 105.1268002   6.7455610  31.2726563
 104.3534494   5.6532568  30.5650701 104.7771587   7.9503311  20.3047371
 104.6417262   8.7954846  20.7332219 105.3181400   8.1522588  19.5413305
  98.2300985   5.4678749  20.8775296  98.7425505   6.2621999  21.0280861
  98.8823698   4.7705039  20.8108898 100.0395869   8.5844505  22.9598049
 100.2162498   9.5062470  22.7719033 100.8352703   8.2702924  23.3892429
 106.4040064   8.5726877  34.4347713 105.9603918   7.7863256  34.1168618
 107.0657277   8.7606028  33.7691604 101.1627185  10.1022679  28.9608392
 101.7134610   9.9739742  28.1885386 100.3238661  10.4017568  28.6103285
 108.5021302   8.8529677  32.4629115 108.4839777   9.6738558  31.9709384
 109.4241222   8.7283752  32.6879256  96.1949901   3.7967403  21.6534867
  97.0325123   4.2064411  21.4368574  96.3728169   2.8566845  21.6235061
 107.3767748  12.0237517  16.7403094 106.7029446  12.3269213  17.3488052
 107.7633570  12.8266597  16.3908551 109.3240109   8.8635690  23.0471384
 109.6163083   9.4240748  22.3283749 109.8338729   9.1564251  23.8024543
 104.2873734   9.6416042  24.1364837 104.2449913   9.8676888  23.2073369
 105.2036433   9.4079416  24.2850638 102.4039535   6.5179071  23.9326800
 103.1980133   6.0229391  23.7309375 101.6931227   5.9896934  23.5694505
 107.2234379   8.8997166  28.2839167 107.2771402   9.4688102  29.0516883
 106.3549161   9.0699051  27.9193204 104.9810811   7.0908093  27.6124637
 104.8421897   6.7226877  28.4850575 104.1925407   7.6055732  27.4408595
 105.5758963  12.1917189  18.9550173 105.7510719  11.7205232  19.7695796
 104.8891751  12.8182955  19.1831434 111.1229349   8.5244638  32.9356315
 111.0641895   7.8403858  32.2686898 111.5248868   9.2663628  32.4836941
 100.1420048  15.3406552  25.7290033 100.3816646  15.9725076  26.4069052
  99.2989245  14.9894592  26.0155393  92.7775904   2.8208314  24.4913346
  93.4646944   2.5070044  23.9034361  92.6224032   3.7249678  24.2180597
 104.6547910  11.1485674  28.1331537 104.5818081  11.9540646  28.6450842
 104.2125303  11.3477640  27.3079559 104.4437690  10.3857444  21.6434359
 103.6605211  10.9279124  21.7372583 105.1430435  10.9031424  22.0428600
 107.1146593  11.0472508  30.2889696 107.8274566  11.6819973  30.2165598
 106.6236622  11.1436374  29.4729698 102.1658507   8.7966952  31.1095267
 102.8667967   9.4303435  31.2624661 101.6953622   9.1381683  30.3490906
 106.9266967  11.3871252  23.0375988 107.1089361  10.5692908  23.5003740
 107.7499953  11.6038945  22.6000878 107.2609132  10.3139437  20.2991036
 107.7896899   9.8031892  19.6861198 107.5237352   9.9981968  21.1636569
  97.7626225   8.3303307  28.0426370  98.3479662   7.5846995  28.1754274
  97.5651064   8.6407263  28.9263033 100.6164880  11.3654554  23.0588812
  99.9475256  11.8500682  22.5752852 100.4777750  11.6123775  23.9732191
 104.7570149  13.3998298  29.6571470 105.3088457  13.5629919  30.4220556
 105.0976342  13.9902735  28.9851495 109.6081023   8.2259555  35.5120125
 110.1520927   8.8389513  35.0175080 109.0267868   8.7839134  36.0287138
 107.8938536  11.3480273  26.6435153 107.7689676  10.5470013  26.1346098
 108.5517627  11.8426467  26.1549122 109.9573445   9.1489293  28.2714703
 109.0103780   9.0294644  28.1993029 110.3056218   8.2611791  28.3540964
 106.9619878   8.9442009  24.4719055 106.8144840   8.0158717  24.6526625
 107.7873371   8.9662100  23.9876130 110.5654000   9.7670568  25.5583928
 111.4900547   9.5613430  25.4208379 110.3969303   9.5186969  26.4673269
 110.3549316  10.2856236  20.9146019 110.5286193   9.7202658  20.1619871
 110.8478207  11.0857131  20.7325509 104.9035960  10.9656779  31.6720125
 105.2123087  10.7205926  32.5442824 105.7011442  11.1703418  31.1838995
 104.9256572  13.1194689  23.9025501 104.4861563  12.6271068  24.5958358
 105.6764689  12.5767657  23.6617576  97.4048911   9.3106230  23.9050129
  98.2306931   9.0110002  23.5248773  97.0542963   8.5413852  24.3539918
 102.3730444   8.6632698  25.9747803 101.7510454   8.0003403  25.6750031
 103.0435311   8.6893830  25.2921451  95.6057516   7.2292556  24.8639063
  94.7689425   6.8014731  24.6823064  95.5781162   7.4225000  25.8009854
 101.9343951   7.2136621  19.4506263 102.0832072   7.8972086  18.7972936
 102.7410395   7.1941711  19.9655719 105.4339357   9.7084752  16.9218011
 104.8613324  10.3274939  16.4688483 106.0072151  10.2584113  17.4557933
 108.6536617   9.9921902  18.0526593 109.5867290   9.9267464  18.2559469
 108.5659829  10.8278169  17.5941126  94.7895273   3.9104816  26.6181117
  94.0958744   3.4958769  26.1051071  95.5368264   3.9525352  26.0214535
  96.7032015   3.8423070  24.4947131  96.6802704   3.9410757  23.5429015
  97.0132652   4.6888220  24.8164298  99.3619393   5.8999225  28.6093746
 100.3162647   5.8683167  28.5423677  99.1631917   5.4389848  29.4243972
  97.7169622  11.4418844  25.6263944  97.5824090  10.6819245  25.0601942
  97.3001684  12.1659744  25.1592733 100.8738748  12.3388161  25.8382386
 100.7571132  13.2833594  25.7361077 100.0531194  12.0361723  26.2268186
 101.8993262  12.9916423  29.0538315 102.8020509  13.0240033  29.3704810
 101.6730632  12.0616874  29.0684651 103.6546864  11.7447410  25.7148393
 102.7042495  11.7449271  25.6012766 103.9579350  10.9980144  25.1984428
 119.3899558  17.5807948  26.7794156 120.0277968  17.4614695  26.0757496
 119.2720400  18.5288792  26.8382108 116.1989264  17.5335376  26.7155681
 115.8607775  17.4176441  25.8276215 117.0679032  17.1326541  26.6956687
 112.0576080  19.3870852  22.7052571 111.4940945  19.2960789  21.9368859
 111.9428475  18.5670757  23.1855064 116.6809047  18.6870228  32.6741886
 116.6697688  18.2923026  31.8022390 116.8429686  17.9536300  33.2675658
 109.6040511  20.8822044  25.5436792 110.3961803  20.5412869  25.1283091
 109.8437162  20.9917019  26.4638945 117.6375638  23.0541820  18.0167036
 116.9863618  23.6395901  17.6301050 118.4320001  23.5848015  18.0762074
 111.5631265  20.1430957  18.4154171 112.3362141  19.5959944  18.2767047
 111.9156664  21.0075207  18.6268632 113.4016308  21.4707340  31.6221070
 113.1106174  22.3752970  31.5067736 114.0373292  21.5123867  32.3365140
 114.3272515  18.8484188  28.2122430 114.9236087  18.6240210  27.4979393
 114.3847486  18.1068934  28.8147878 118.9440826  15.3059402  23.8547364
 119.7303915  14.8878825  23.5037781 119.2079530  16.2105494  24.0229012
 119.1150903  20.7432252  18.5536021 118.4796736  20.8166879  19.2656925
 118.7848310  21.3325851  17.8755100 113.6193832  18.2051729  18.2496996
 113.5030090  17.5296633  18.9178080 113.7296092  17.7184103  17.4329149
 115.9625373  17.6661876  21.9543685 115.5983580  17.1392497  22.6656606
 116.8192489  17.2760346  21.7810170 118.3606193  21.1568755  28.6170864
 118.0606916  22.0593794  28.5086671 118.0157253  20.8900938  29.4692017
 111.8118675  17.6082552  24.6507568 110.8869171  17.4758766  24.8585260
 112.0603088  18.3876771  25.1477511 121.7603337  13.6751295  26.2968301
 120.8520214  13.6066704  26.0027062 121.7090933  14.1523240  27.1250127
 109.1727486  17.2515825  25.4851357 109.3019867  17.5050304  26.3990769
 108.4924937  17.8443533  25.1656012 113.3426973  27.9213075  21.5841831
 113.2651003  28.8720901  21.6630312 112.7388616  27.5758948  22.2416758
 115.8344203  15.0940941  34.2403198 115.0577537  15.6534861  34.2306063
 116.4734766  15.5797724  34.7618068 114.0890575  17.9026394  33.8021165
 114.8305259  18.4411438  33.5255989 113.3827560  18.5292683  33.9592717
 119.5645915  20.0455535  32.3993327 119.9729271  19.6037945  31.6547959
 118.8423176  19.4708162  32.6527520 115.9176985  14.9828141  29.7726884
 116.7638180  15.4067555  29.9161533 115.8575622  14.3261766  30.4665447
 119.8874729  20.6056725  26.1545616 119.2583592  20.7702439  25.4521684
 119.5000391  21.0198335  26.9256580 123.7663961  21.5411163  23.5089979
 123.0814999  21.9210065  22.9587013 123.8507810  22.1506490  24.2421927
 119.0676430  12.6432510  31.4308057 118.8237362  13.3974570  30.8942333
 119.3436360  13.0217857  32.2655304 121.0214893  19.1871122  30.1085323
 121.2331788  19.8302882  29.4319704 120.9744641  18.3533439  29.6407253
 118.6241122  11.7988943  27.0121895 117.7625601  12.0970196  27.3038633
 118.6503556  12.0159342  26.0802928 115.4402691  20.3431133  23.4195701
 115.9041037  20.6218836  22.6300323 115.1759489  19.4414578  23.2368791
 112.3326772  19.8902615  26.3575464 112.9028129  20.3189883  25.7192949
 112.9234884  19.6085200  27.0559650 114.3771577  16.4654286  20.2285266
 115.0795621  16.9175329  20.6959192 114.0452206  15.8238105  20.8565159
 112.8251939  15.0566042  34.6036475 112.1950599  15.7382323  34.8371872
 112.7188027  14.9449124  33.6589614 108.1196911  14.7237838  25.5302400
 107.3295965  14.9795367  25.0542510 108.6108158  15.5386176  25.6354440
 122.1360721  22.0643078  28.2807680 122.9578164  21.6623265  27.9990362
 122.1323124  21.9611312  29.2323796 110.0711657  15.0882418  22.4885876
 109.2742820  15.2001112  23.0069372 109.8437249  15.4269070  21.6226767
 115.9017324  21.6127121  30.4368391 115.9661757  22.0747528  31.2726563
 115.1928248  20.9824486  30.5650701 106.4034614  14.9768329  27.9617390
 106.6542653  15.8615339  28.2274966 106.9394163  14.7972930  27.1892482
 115.6165342  23.2795228  20.3047371 115.4811017  24.1246764  20.7332219
 116.1575154  23.4814506  19.5413305 112.1032681   9.3586808  36.9661726
 111.7099627   8.8053007  37.6409371 112.9198822   9.6697387  37.3568244
 109.0694739  20.7970666  20.8775296 109.5819260  21.5913917  21.0280861
 109.7217452  20.0996957  20.8108898 110.8789624  23.9136423  22.9598049
 111.0556252  24.8354387  22.7719033 111.6746457  23.5994842  23.3892429
 115.0200642  10.7744687  34.5581983 115.7610356  11.3751840  34.4786445
 115.2518565  10.0322325  34.0000026 110.1641980  15.9601055  32.8360213
 110.0495496  15.0586312  33.1367312 109.3086498  16.2064751  32.4845029
 117.2433818  23.9018795  34.4347713 116.7997672  23.1155173  34.1168618
 117.9051032  24.0897945  33.7691604 112.0020939  25.4314596  28.9608392
 112.5528364  25.3031660  28.1885386 111.1632415  25.7309485  28.6103285
 119.3415056  24.1821595  32.4629115 119.3233532  25.0030476  31.9709384
 120.2634976  24.0575670  32.6879256 115.7988110  21.6965724  33.3052623
 116.3316447  20.9354012  33.0751931 115.2702191  21.4039376  34.0476777
 107.0343656  19.1259321  21.6534867 107.8718878  19.5356329  21.4368574
 107.2121924  18.1858763  21.6235061 116.5155199  11.6384102  22.4003938
 115.6596795  11.2490953  22.2209577 116.9282151  11.7176063  21.5403724
 114.2897232   9.2569175  25.8061680 115.1550228   9.0611984  25.4467569
 114.3574741   9.0279527  26.7331036 117.1640823  20.8251717  20.8171435
 116.6362185  20.0904476  20.5044672 116.6628326  21.6026393  20.5711403
 122.1433669  19.0200737  25.9338481 121.4857344  19.7099999  26.0218610
 122.9474068  19.4097169  26.2772468 111.8959551  11.4871383  23.1778046
 112.4703303  11.2646565  22.4451239 112.4830533  11.5560078  23.9306648
 120.9539128  17.3745110  23.9842423 121.4671010  18.0075102  24.4864133
 121.6040352  16.7746305  23.6185783 112.2229138  13.5175844  17.1973932
 111.3866450  13.8550531  17.5183206 112.0833907  13.3824824  16.2601069
 118.2161502  27.3529434  16.7403094 117.5423201  27.6561131  17.3488052
 118.6027324  28.1558515  16.3908551 117.4319959  14.8494566  26.2300763
 116.5142520  15.0709513  26.0722452 117.8480102  14.9240876  25.3712471
 118.2155007  16.2485981  21.3603444 118.9626825  16.7607378  21.0510566
 118.4846596  15.9270034  22.2207837 116.4881657  18.7444522  18.3430398
 115.5792876  18.4603555  18.4402868 116.5176741  19.1643600  17.4833705
 121.7200924  22.3551111  22.1121566 121.2663251  21.5142021  22.1686756
 121.0894891  22.9912510  22.4496346 120.1633863  24.1927608  23.0471384
 120.4556838  24.7532665  22.3283749 120.6732484  24.4856169  23.8024543
 107.0569827  16.4650036  22.3245600 106.8594227  15.8719397  21.5996667
 106.5016491  16.1602246  23.0421539 115.0366551  16.3573143  24.4440193
 115.0915161  15.4046979  24.3682670 114.2257753  16.5132582  24.9281492
 112.9758911  14.9750202  22.2030572 112.1626776  15.2744373  22.6095764
 113.4717905  14.5805891  22.9205054 115.1267489  24.9707959  24.1364837
 115.0843667  25.1968805  23.2073369 116.0430187  24.7371334  24.2850638
 118.5733122  15.4392027  31.0345466 118.9282510  15.6663500  31.8939932
 119.2205254  15.7710404  30.4122721 112.4672985  12.5468558  27.8191807
 113.1072365  12.4057317  27.1214771 111.6350516  12.2603071  27.4430409
 124.3300239  20.6286990  26.7506067 124.7636746  20.5362279  27.5989121
 125.0431820  20.6044490  26.1126083 113.2433289  21.8470988  23.9326800
 114.0373888  21.3521308  23.7309375 112.5324982  21.3188851  23.5694505
 118.0628134  24.2289084  28.2839167 118.1165156  24.7980020  29.0516883
 117.1942915  24.3990969  27.9193204 109.5516053  15.9914070  20.0086552
 108.6213641  15.9298525  20.2256514 109.6473525  15.4690023  19.2123194
 109.4701602  12.5168883  22.5964794 109.7308419  13.4314216  22.4873954
 110.2918774  12.0493325  22.7461407 110.9426527  13.9306640  29.7663619
 111.6149581  13.7224002  29.1176267 110.1156314  13.7328726  29.3268851
 125.1915788  20.6710690  29.2838952 125.3851679  21.5756501  29.5298227
 125.0916407  20.2118109  30.1177537 116.8452099  10.5568581  31.7829279
 116.1980014  11.2558531  31.6893756 117.6153115  10.9904725  32.1505528
 120.2530897  20.8217433  34.8579833 120.1016404  20.5927985  33.9409916
 120.2435577  21.7788034  34.8711178 117.0216234  18.3949346  29.8426099
 117.9508294  18.5460505  29.6695066 116.6007264  18.4833367  28.9874746
 115.8204565  22.4200010  27.6124637 115.6815651  22.0518795  28.4850575
 115.0319162  22.9347650  27.4408595 116.4152717  27.5209107  18.9550173
 116.5904473  27.0497150  19.7695796 115.7285505  28.1474873  19.1831434
 117.3709780  21.7981613  25.0013475 117.0359613  21.7582383  25.8971124
 116.8713726  21.1326329  24.5283885 111.3454024  17.2049243  30.5266056
 111.2073822  16.4729482  31.1277595 112.2558948  17.1158143  30.2450243
 113.9736325  16.9169202  30.0149735 114.6835944  16.2762394  29.9736354
 113.9305633  17.1682097  30.9375916 121.9623104  23.8536556  32.9356315
 121.9035650  23.1695776  32.2686898 122.3642622  24.5955546  32.4836941
 112.6865259  13.9034420  31.8345375 112.1502616  13.4525159  32.4866971
 112.0981968  14.0380329  31.0915839 110.9813803  30.6698469  25.7290033
 111.2210401  31.3016994  26.4069052 110.1382999  30.3186509  26.0155393
 121.9640511  21.8176140  31.1670294 121.0767290  21.4802061  31.2896693
 122.5339062  21.0859171  31.4039060 103.6169658  18.1500231  24.4913346
 104.3040698  17.8361961  23.9034361 103.4617787  19.0541596  24.2180597
 108.4204380  13.0390428  28.9198369 108.3362569  12.4316097  28.1848779
 107.5987087  13.5299446  28.9207866 115.4941664  26.4777592  28.1331537
 115.4211836  27.2832563  28.6450842 115.0519058  26.6769558  27.3079559
 115.2831444  25.7149362  21.6434359 114.4998966  26.2571042  21.7372583
 115.9824189  26.2323342  22.0428600 118.5928094  11.5243991  24.2868564
 119.0896794  10.7713954  23.9669635 117.8215076  11.5608308  23.7211774
 126.4457852  17.2284357  25.9286856 126.4347728  18.1109072  25.5580789
 125.5775231  16.8755908  25.7341393 117.9540348  26.3764426  30.2889696
 118.6668320  27.0111891  30.2165598 117.4630377  26.4728292  29.4729698
 119.6757875  20.2815679  21.8606988 118.7414154  20.4017141  21.6911692
 119.8534543  19.3788145  21.5966998 115.1763063  13.6661374  24.0140249
 114.8060850  13.1132415  24.7021155 115.6722155  13.0619508  23.4615249
 113.0052262  24.1258869  31.1095267 113.7061721  24.7595352  31.2624661
 112.5347376  24.4673601  30.3490906 121.1306657  22.4676819  19.3943174
 121.4066501  22.3533414  20.3037048 120.2611156  22.0694304  19.3555347
 120.8053547  16.6803477  28.9347817 120.1524998  16.9279384  28.2800270
 121.1833927  15.8667615  28.6010295 117.7660721  26.7163170  23.0375988
 117.9483116  25.8984826  23.5003740 118.5893707  26.9330862  22.6000878
 118.1002887  25.6431355  20.2991036 118.6290653  25.1323810  19.6861198
 118.3631106  25.3273885  21.1636569 116.8541120  17.4223288  35.4213854
 116.1781758  17.3217417  36.0916230 117.6768754  17.2662502  35.8849852
 108.6019980  23.6595224  28.0426370 109.1873416  22.9138912  28.1754274
 108.4044818  23.9699181  28.9263033 111.4558635  26.6946472  23.0588812
 110.7869010  27.1792599  22.5752852 111.3171504  26.9415692  23.9732191
 103.1937634  16.2300825  26.7630813 103.2321734  15.6964415  27.5567931
 102.6877927  15.7036030  26.1441790 115.5963903  28.7290215  29.6571470
 116.1482211  28.8921837  30.4220556 115.9370097  29.3194653  28.9851495
 110.5728397  11.0765365  30.2593355 110.6369723  11.9380196  29.8470753
 110.5095517  10.4639367  29.5265714 110.0480669  13.1488498  33.9066389
 110.6752708  12.7665575  34.5203914 109.1908588  12.9302700  34.2722082
 120.4474778  23.5551473  35.5120125 120.9914682  24.1681431  35.0175080
 119.8661623  24.1131051  36.0287138 106.8246212  14.9564927  19.8384744
 107.1199653  14.0475605  19.7851798 105.9234248  14.9352666  19.5165746
 118.7332291  26.6772191  26.6435153 118.6083430  25.8761931  26.1346098
 119.3911382  27.1718384  26.1549122 110.3540459  13.0320923  25.8212293
 109.6327045  13.6456891  25.6819766 111.1433715  13.5678688  25.7428939
 120.7967199  24.4781211  28.2714703 119.8497535  24.3586562  28.1993029
 121.1449972  23.5903709  28.3540964 113.1566772  10.3675350  32.0952944
 113.6801174  10.6137646  32.8579254 112.9379106  11.1995385  31.6756082
 108.5534053  12.6379024  19.9624069 108.2246760  11.7576403  19.7799175
 108.9073424  12.5826693  20.8500459 117.8013632  24.2733927  24.4719055
 117.6538595  23.3450635  24.6526625 118.6267126  24.2954018  23.9876130
 111.6675877  12.9251994  20.3299547 112.0071949  13.4537915  19.6078155
 112.1147997  13.2632400  21.1058114 121.4047754  25.0962486  25.5583928
 122.3294302  24.8905347  25.4208379 121.2363058  24.8478887  26.4673269
 114.3619317  11.3089045  29.7802615 114.0216138  10.5096858  30.1823295
 113.6558324  11.6090756  29.2079448 112.5374368  15.0857478  26.0421917
 112.3918949  15.3997781  26.9346198 112.0599572  15.7042378  25.4892815
 114.3970751  12.0760026  26.0902806 114.3832320  11.1801119  25.7535104
 115.1143179  12.0830690  26.7241092 116.2496882  12.5097366  28.1355934
 115.9914659  13.4314437  28.1340264 115.7181922  12.1127801  28.8256398
 121.1943070  25.6148153  20.9146019 121.3679948  25.0494576  20.1619871
 121.6871962  26.4149048  20.7325509 107.0120030  17.6262822  28.9809578
 106.4673498  18.4022630  29.1129852 107.8899380  17.9733627  28.8228699
 113.8007647  10.9574406  21.3590376 113.9223558  10.0291052  21.5581264
 113.5109689  10.9713092  20.4468692 107.7986052  16.7532719  31.8739735
 107.0567788  16.9015354  32.4604365 107.4778796  17.0140984  31.0106484
 115.7429715  26.2948697  31.6720125 116.0516841  26.0497844  32.5442824
 116.5405197  26.4995335  31.1838995 115.7650327  28.4486607  23.9025501
 115.3255317  27.9562985  24.5958358 116.5158444  27.9059574  23.6617576
 108.2442666  24.6398147  23.9050129 109.0700686  24.3401919  23.5248773
 107.8936718  23.8705770  24.3539918 113.2124199  23.9924616  25.9747803
 112.5904208  23.3295321  25.6750031 113.8829066  24.0185748  25.2921451
 106.4451271  22.5584474  24.8639063 105.6083179  22.1306648  24.6823064
 106.4174916  22.7516917  25.8009854 113.2848726  12.4706404  35.5680309
 113.3336882  13.3468526  35.1858079 113.8271241  11.9283797  34.9951952
 123.7703572  23.0147527  34.8481446 122.9799116  22.9971666  34.3085945
 123.5336927  23.5535821  35.6030483 123.8901447  19.8639993  32.1614175
 123.9399452  19.6990001  33.1029697 123.7815370  18.9967252  31.7712055
 112.7737706  22.5428539  19.4506263 112.9225826  23.2264003  18.7972936
 113.5804149  22.5233629  19.9655719 121.1805210  15.8470921  33.4773481
 122.0815072  15.7077386  33.1857479 121.2553184  16.0125376  34.4171659
 115.5148015  13.2237776  32.3226668 114.6451324  13.5171342  32.0509256
 115.7507495  13.8078221  33.0433931 125.3919644  22.2836935  32.4056196
 125.1004452  22.6466915  33.2419657 124.7791775  21.5703943  32.2269528
 123.6406832  17.4069549  30.8736254 124.1160954  17.5997196  30.0655105
 122.7172398  17.4628735  30.6279638 110.5290339  18.5693717  20.4567332
 110.2836381  17.6656047  20.6547543 110.6986253  18.5710867  19.5146810
 109.7985986  14.3022074  17.9553494 109.1055231  14.3766429  17.2993530
 109.5537738  13.5382418  18.4775011 116.2733111  25.0376669  16.9218011
 115.7007078  25.6566857  16.4688483 116.8465905  25.5876031  17.4557933
 122.3408501  14.2835310  29.1064560 123.2925924  14.3833407  29.1276784
 122.1711952  13.4913578  29.6162644 120.3622881  11.3690893  29.2923961
 119.7672813  11.6495905  28.5970449 120.0772577  11.8584794  30.0640702
 119.4930371  25.3213820  18.0526593 120.4261044  25.2559381  18.2559469
 119.4053584  26.1570086  17.5941126 124.8196579  17.5041429  28.2206859
 124.7872899  16.5657430  28.4066543 125.4297203  17.5825466  27.4872684
 124.9691067  14.2952473  28.2665143 124.4530116  13.5110929  28.0795071
 125.8531016  13.9671189  28.4311662 128.7188426  16.7065299  27.9587347
 127.9921590  16.5721264  27.3503839 128.3035713  17.0142127  28.7644065
 116.5418602  20.4255228  35.7234720 117.4621612  20.6033827  35.9174767
 116.5068185  19.4811274  35.5714420 105.7600767  15.6193822  24.6487995
 105.4403552  14.7659130  24.3562369 105.2134196  15.8342400  25.4045962
 109.5380675  18.3356263  28.3657502 109.7566685  19.2673371  28.3845535
 109.9506449  17.9764237  29.1512305 114.4108540  13.9089469  37.7560250
 114.3105267  14.8583826  37.6872342 114.1930082  13.5807708  36.8836321
 105.6289027  19.2396733  26.6181117 104.9352499  18.8250686  26.1051071
 106.3762018  19.2817270  26.0214535 114.2739810  17.3386608  36.5725312
 113.7906892  18.1386968  36.7789201 114.3600749  17.3494552  35.6192756
 107.5425770  19.1714987  24.4947131 107.5196458  19.2702675  23.5429015
 107.8526406  20.0180138  24.8164298 110.2013148  21.2291142  28.6093746
 111.1556401  21.1975085  28.5423677 110.0025671  20.7681766  29.4243972
 110.7912530  19.7992258  31.1764544 111.6105419  20.2936337  31.1999381
 111.0649338  18.8824226  31.1482111 108.5563377  26.7710762  25.6263944
 108.4217844  26.0111163  25.0601942 108.1395439  27.4951662  25.1592733
 111.7132502  27.6680079  25.8382386 111.5964887  28.6125511  25.7361077
 110.8924949  27.3653640  26.2268186 106.0447444  14.1330392  31.8756741
 106.6906308  13.6229346  32.3643966 105.8364595  14.8699074  32.4500166
 118.5700836  21.2011240  37.3748881 119.4391996  21.3751892  37.0135516
 118.0907588  22.0205656  37.2524611 112.7387017  28.3208341  29.0538315
 113.6414263  28.3531951  29.3704810 112.5124387  27.3908792  29.0684651
 114.4940619  27.0739327  25.7148393 113.5436250  27.0741189  25.6012766
 114.7973105  26.3272062  25.1984428 110.3844935  11.2798009  35.9731755
 111.2476397  10.9234814  36.1835079 109.8110346  10.9411904  36.6607159
 130.2293312  32.9099866  26.7794156 130.8671722  32.7906613  26.0757496
 130.1114155  33.8580710  26.8382108 127.0383018  32.8627294  26.7155681
 126.7001530  32.7468358  25.8276215 127.9072787  32.4618459  26.6956687
 122.8969834  34.7162770  22.7052571 122.3334699  34.6252707  21.9368859
 122.7822229  33.8962675  23.1855064 127.5202801  34.0162145  32.6741886
 127.5091442  33.6214944  31.8022390 127.6823441  33.2828218  33.2675658
 120.4434266  36.2113962  25.5436792 121.2355558  35.8704786  25.1283091
 120.6830916  36.3208937  26.4638945 128.4769393  38.3833738  18.0167036
 127.8257373  38.9687818  17.6301050 129.2713756  38.9139933  18.0762074
 122.4025020  35.4722875  18.4154171 123.1755896  34.9251862  18.2767047
 122.7550419  36.3367124  18.6268632 124.2410062  36.7999257  31.6221070
 123.9499928  37.7044888  31.5067736 124.8767047  36.8415785  32.3365140
 125.1666269  34.1776106  28.2122430 125.7629842  33.9532128  27.4979393
 125.2241241  33.4360851  28.8147878 129.7834581  30.6351319  23.8547364
 130.5697670  30.2170743  23.5037781 130.0473285  31.5397412  24.0229012
 129.9544658  36.0724170  18.5536021 129.3190491  36.1458796  19.2656925
 129.6242064  36.6617769  17.8755100 124.4587586  33.5343647  18.2496996
 124.3423845  32.8588550  18.9178080 124.5689846  33.0476021  17.4329149
 126.8019127  32.9953794  21.9543685 126.4377335  32.4684415  22.6656606
 127.6586243  32.6052263  21.7810170 132.7068428  24.2848127  29.2174951
 132.3751753  25.1543538  28.9936166 132.1114041  23.9684411  29.8968981
 129.1999948  36.4860673  28.6170864 128.9000671  37.3885712  28.5086671
 128.8551007  36.2192856  29.4692017 122.6512429  32.9374470  24.6507568
 121.7262926  32.8050684  24.8585260 122.8996842  33.7168689  25.1477511
 132.5997091  29.0043213  26.2968301 131.6913969  28.9358621  26.0027062
 132.5484687  29.4815158  27.1250127 120.0121240  32.5807743  25.4851357
 120.1413621  32.8342222  26.3990769 119.3318691  33.1735451  25.1656012
 124.1820727  43.2504993  21.5841831 124.1044757  44.2012818  21.6630312
 123.5782371  42.9050866  22.2416758 126.6737957  30.4232859  34.2403198
 125.8971291  30.9826779  34.2306063 127.3128520  30.9089642  34.7618068
 134.4658738  27.2059651  28.0746175 133.8233118  27.4992184  27.4285970
 133.9613666  27.0912572  28.8799372 124.9284329  33.2318312  33.8021165
 125.6699014  33.7703356  33.5255989 124.2221315  33.8584601  33.9592717
 130.4039669  35.3747452  32.3993327 130.8123025  34.9329863  31.6547959
 129.6816931  34.8000080  32.6527520 126.7570739  30.3120059  29.7726884
 127.6031934  30.7359473  29.9161533 126.6969377  29.6553683  30.4665447
 130.7268484  35.9348643  26.1545616 130.0977346  36.0994357  25.4521684
 130.3394146  36.3490253  26.9256580 134.6057716  36.8703081  23.5089979
 133.9208754  37.2501982  22.9587013 134.6901565  37.4798407  24.2421927
 129.9070184  27.9724427  31.4308057 129.6631116  28.7266488  30.8942333
 130.1830115  28.3509775  32.2655304 131.8608647  34.5163040  30.1085323
 132.0725542  35.1594800  29.4319704 131.8138395  33.6825356  29.6407253
 129.4634876  27.1280860  27.0121895 128.6019355  27.4262114  27.3038633
 129.4897311  27.3451259  26.0802928 126.2796446  35.6723051  23.4195701
 126.7434791  35.9510754  22.6300323 126.0153244  34.7706496  23.2368791
 123.1720527  35.2194533  26.3575464 123.7421884  35.6481801  25.7192949
 123.7628639  34.9377117  27.0559650 125.2165332  31.7946203  20.2285266
 125.9189375  32.2467247  20.6959192 124.8845960  31.1530022  20.8565159
 123.6645693  30.3857960  34.6036475 123.0344354  31.0674241  34.8371872
 123.5581781  30.2741042  33.6589614 118.9590666  30.0529756  25.5302400
 118.1689720  30.3087285  25.0542510 119.4501913  30.8678094  25.6354440
 132.9754475  37.3934995  28.2807680 133.7971919  36.9915183  27.9990362
 132.9716878  37.2903229  29.2323796 120.9105411  30.4174335  22.4885876
 120.1136574  30.5293030  23.0069372 120.6831003  30.7560988  21.6226767
 126.7411079  36.9419039  30.4368391 126.8055511  37.4039446  31.2726563
 126.0322002  36.3116403  30.5650701 117.2428369  30.3060247  27.9617390
 117.4936407  31.1907256  28.2274966 117.7787917  30.1264848  27.1892482
 126.4559096  38.6087146  20.3047371 126.3204771  39.4538682  20.7332219
 126.9968909  38.8106424  19.5413305 122.9426436  24.6878726  36.9661726
 122.5493381  24.1344924  37.6409371 123.7592576  24.9989304  37.3568244
 119.9088494  36.1262584  20.8775296 120.4213014  36.9205834  21.0280861
 120.5611206  35.4288875  20.8108898 121.7183378  39.2428340  22.9598049
 121.8950007  40.1646305  22.7719033 122.5140212  38.9286760  23.3892429
 125.8594397  26.1036605  34.5581983 126.6004110  26.7043758  34.4786445
 126.0912320  25.3614243  34.0000026 121.0035735  31.2892972  32.8360213
 120.8889250  30.3878229  33.1367312 120.1480253  31.5356669  32.4845029
 128.0827573  39.2310713  34.4347713 127.6391427  38.4447091  34.1168618
 128.7444786  39.4189863  33.7691604 122.8414694  40.7606514  28.9608392
 123.3922119  40.6323578  28.1885386 122.0026170  41.0601403  28.6103285
 130.1808811  39.5113512  32.4629115 130.1627286  40.3322394  31.9709384
 131.1028731  39.3867588  32.6879256 126.6381865  37.0257642  33.3052623
 127.1710202  36.2645930  33.0751931 126.1095946  36.7331294  34.0476777
 129.8051560  22.1317708  28.8346265 129.4615829  23.0219350  28.7585375
 130.1730522  21.9419366  27.9715850 117.8737410  34.4551238  21.6534867
 118.7112632  34.8648247  21.4368574 118.0515678  33.5150681  21.6235061
 127.3548954  26.9676020  22.4003938 126.4990550  26.5782870  22.2209577
 127.7675905  27.0467981  21.5403724 128.8848100  24.5022363  26.7995498
 128.3812896  24.4652498  25.9863303 129.1778707  25.4115106  26.8592155
 125.1290986  24.5861093  25.8061680 125.9943983  24.3903901  25.4467569
 125.1968495  24.3571445  26.7331036 128.0034578  36.1543634  20.8171435
 127.4755939  35.4196394  20.5044672 127.5022080  36.9318311  20.5711403
 132.9827424  34.3492655  25.9338481 132.3251098  35.0391916  26.0218610
 133.7867823  34.7389087  26.2772468 122.7353305  26.8163301  23.1778046
 123.3097057  26.5938482  22.4451239 123.3224288  26.8851995  23.9306648
 131.7932882  32.7037028  23.9842423 132.3064764  33.3367019  24.4864133
 132.4434106  32.1038223  23.6185783 123.0622892  28.8467762  17.1973932
 122.2260205  29.1842448  17.5183206 122.9227662  28.7116742  16.2601069
 125.0375973  23.6904550  21.9053116 124.3840385  23.3753567  21.2809731
 124.9956447  23.0680290  22.6312939 129.0555257  42.6821352  16.7403094
 128.3816955  42.9853049  17.3488052 129.4421079  43.4850432  16.3908551
 128.2713713  30.1786483  26.2300763 127.3536275  30.4001430  26.0722452
 128.6873857  30.2532794  25.3712471 129.0548761  31.5777899  21.3603444
 129.8020580  32.0899296  21.0510566 129.3240351  31.2561952  22.2207837
 127.3275411  34.0736440  18.3430398 126.4186630  33.7895472  18.4402868
 127.3570495  34.4935518  17.4833705 132.5594679  37.6843029  22.1121566
 132.1057006  36.8433939  22.1686756 131.9288645  38.3204427  22.4496346
 131.0027618  39.5219526  23.0471384 131.2950592  40.0824583  22.3283749
 131.5126238  39.8148087  23.8024543 117.8963582  31.7941954  22.3245600
 117.6987981  31.2011314  21.5996667 117.3410246  31.4894164  23.0421539
 125.8760305  31.6865060  24.4440193 125.9308915  30.7338897  24.3682670
 125.0651507  31.8424499  24.9281492 123.8152665  30.3042120  22.2030572
 123.0020531  30.6036290  22.6095764 124.3111659  29.9097809  22.9205054
 125.9661243  40.2999877  24.1364837 125.9237422  40.5260723  23.2073369
 126.8823942  40.0663251  24.2850638 129.4126877  30.7683944  31.0345466
 129.7676265  30.9955418  31.8939932 130.0599008  31.1002321  30.4122721
 123.3066740  27.8760475  27.8191807 123.9466119  27.7349235  27.1214771
 122.4744270  27.5894989  27.4430409 135.1693993  35.9578907  26.7506067
 135.6030500  35.8654196  27.5989121 135.8825574  35.9336408  26.1126083
 124.0827044  37.1762906  23.9326800 124.8767642  36.6813226  23.7309375
 123.3718736  36.6480769  23.5694505 128.9021888  39.5581001  28.2839167
 128.9558911  40.1271938  29.0516883 128.0336670  39.7282886  27.9193204
 120.3909807  31.3205988  20.0086552 119.4607395  31.2590443  20.2256514
 120.4867279  30.7981940  19.2123194 120.3095356  27.8460800  22.5964794
 120.5702174  28.7606134  22.4873954 121.1312529  27.3785243  22.7461407
 121.7820282  29.2598558  29.7663619 122.4543335  29.0515920  29.1176267
 120.9550068  29.0620644  29.3268851 136.0309543  36.0002608  29.2838952
 136.2245433  36.9048418  29.5298227 135.9310161  35.5410027  30.1177537
 127.6845854  25.8860499  31.7829279 127.0373769  26.5850448  31.6893756
 128.4546869  26.3196642  32.1505528 131.0924652  36.1509351  34.8579833
 130.9410158  35.9219902  33.9409916 131.0829331  37.1079952  34.8711178
 127.8609988  33.7241263  29.8426099 128.7902048  33.8752423  29.6695066
 127.4401018  33.8125284  28.9874746 126.6598320  37.7491928  27.6124637
 126.5209406  37.3810712  28.4850575 125.8712916  38.2639567  27.4408595
 127.2546472  42.8501024  18.9550173 127.4298227  42.3789068  19.7695796
 126.5679260  43.4766791  19.1831434 128.2103535  37.1273531  25.0013475
 127.8753368  37.0874301  25.8971124 127.7107481  36.4618246  24.5283885
 122.1847779  32.5341161  30.5266056 122.0467577  31.8021399  31.1277595
 123.0952702  32.4450061  30.2450243 124.8130080  32.2461120  30.0149735
 125.5229698  31.6054312  29.9736354 124.7699388  32.4974015  30.9375916
 132.8016858  39.1828473  32.9356315 132.7429404  38.4987693  32.2686898
 133.2036377  39.9247463  32.4836941 123.5259014  29.2326338  31.8345375
 122.9896371  28.7817076  32.4866971 122.9375722  29.3672247  31.0915839
 121.8207557  45.9990387  25.7290033 122.0604155  46.6308911  26.4069052
 120.9776754  45.6478427  26.0155393 132.8034266  37.1468057  31.1670294
 131.9161044  36.8093979  31.2896693 133.3732817  36.4151088  31.4039060
 114.4563413  33.4792149  24.4913346 115.1434453  33.1653879  23.9034361
 114.3011541  34.3833514  24.2180597 119.2598135  28.3682345  28.9198369
 119.1756324  27.7608015  28.1848779 118.4380841  28.8591364  28.9207866
 126.3335419  41.8069510  28.1331537 126.2605590  42.6124481  28.6450842
 125.8912812  42.0061475  27.3079559 126.1225199  41.0441280  21.6434359
 125.3392720  41.5862960  21.7372583 126.8217944  41.5615259  22.0428600
 129.4321849  26.8535909  24.2868564 129.9290548  26.1005871  23.9669635
 128.6608830  26.8900226  23.7211774 137.2851606  32.5576275  25.9286856
 137.2741482  33.4400990  25.5580789 136.4168986  32.2047825  25.7341393
 128.7934102  41.7056344  30.2889696 129.5062075  42.3403808  30.2165598
 128.3024131  41.8020210  29.4729698 130.5151629  35.6107596  21.8606988
 129.5807908  35.7309059  21.6911692 130.6928298  34.7080063  21.5966998
 126.0156817  28.9953292  24.0140249 125.6454605  28.4424332  24.7021155
 126.5115910  28.3911425  23.4615249 123.8446016  39.4550787  31.1095267
 124.5455475  40.0887270  31.2624661 123.3741131  39.7965519  30.3490906
 131.9700412  37.7968737  19.3943174 132.2460256  37.6825331  20.3037048
 131.1004911  37.3986222  19.3555347 131.8740843  23.8205503  26.4347923
 130.9603923  24.0509729  26.6030130 132.3033945  23.9043947  27.2861956
 131.6447302  32.0095394  28.9347817 130.9918752  32.2571302  28.2800270
 132.0227682  31.1959533  28.6010295 128.6054476  42.0455088  23.0375988
 128.7876870  41.2276744  23.5003740 129.4287462  42.2622780  22.6000878
 128.9396641  40.9723273  20.2991036 129.4684408  40.4615727  19.6861198
 129.2024861  40.6565803  21.1636569 127.6934875  32.7515206  35.4213854
 127.0175512  32.6509335  36.0916230 128.5162509  32.5954419  35.8849852
 119.4413734  38.9887142  28.0426370 120.0267171  38.2430830  28.1754274
 119.2438573  39.2991099  28.9263033 122.2952389  42.0238389  23.0588812
 121.6262765  42.5084517  22.5752852 122.1565259  42.2707610  23.9732191
 114.0331389  31.5592742  26.7630813 114.0715488  31.0256333  27.5567931
 113.5271682  31.0327948  26.1441790 126.4357658  44.0582133  29.6571470
 126.9875966  44.2213754  30.4220556 126.7763851  44.6486571  28.9851495
 121.4122151  26.4057283  30.2593355 121.4763478  27.2672114  29.8470753
 121.3489271  25.7931284  29.5265714 120.8874424  28.4780415  33.9066389
 121.5146462  28.0957493  34.5203914 120.0302342  28.2594617  34.2722082
 131.2868532  38.8843391  35.5120125 131.8308436  39.4973349  35.0175080
 130.7055377  39.4422969  36.0287138 117.6639966  30.2856844  19.8384744
 117.9593407  29.3767523  19.7851798 116.7628002  30.2644584  19.5165746
 129.5726045  42.0064109  26.6435153 129.4477185  41.2053848  26.1346098
 130.2305136  42.5010302  26.1549122 121.1934213  28.3612841  25.8212293
 120.4720799  28.9748809  25.6819766 121.9827469  28.8970606  25.7428939
 131.6360954  39.8073129  28.2714703 130.6891289  39.6878480  28.1993029
 131.9843727  38.9195627  28.3540964 123.9960527  25.6967268  32.0952944
 124.5194929  25.9429564  32.8579254 123.7772860  26.5287302  31.6756082
 119.3927808  27.9670942  19.9624069 119.0640514  27.0868321  19.7799175
 119.7467179  27.9118611  20.8500459 128.6407387  39.6025845  24.4719055
 128.4932349  38.6742552  24.6526625 129.4660880  39.6245936  23.9876130
 122.5069631  28.2543912  20.3299547 122.8465704  28.7829833  19.6078155
 122.9541752  28.5924318  21.1058114 132.2441509  40.4254404  25.5583928
 133.1688056  40.2197265  25.4208379 132.0756812  40.1770805  26.4673269
 125.2013072  26.6380963  29.7802615 124.8609892  25.8388776  30.1823295
 124.4952078  26.9382673  29.2079448 125.8529544  23.7230275  28.2329938
 126.6755613  23.2490753  28.1108828 126.0967607  24.5020759  28.7328624
 123.3768123  30.4149396  26.0421917 123.2312703  30.7289699  26.9346198
 122.8993326  31.0334296  25.4892815 125.2364505  27.4051944  26.0902806
 125.2226074  26.5093037  25.7535104 125.9536934  27.4122607  26.7241092
 127.0890636  27.8389284  28.1355934 126.8308414  28.7606355  28.1340264
 126.5575676  27.4419718  28.8256398 132.0336825  40.9440071  20.9146019
 132.2073702  40.3786493  20.1619871 132.5265716  41.7440966  20.7325509
 117.8513785  32.9554740  28.9809578 117.3067253  33.7314548  29.1129852
 118.7293135  33.3025545  28.8228699 124.6401401  26.2866324  21.3590376
 124.7617313  25.3582970  21.5581264 124.3503444  26.3005010  20.4468692
 127.5092592  23.9721234  24.4957096 127.5314289  24.0360567  23.5409076
 127.9260651  23.1325743  24.6897602 118.6379807  32.0824636  31.8739735
 117.8961543  32.2307272  32.4604365 118.3172551  32.3432902  31.0106484
 126.5823469  41.6240615  31.6720125 126.8910596  41.3789761  32.5442824
 127.3798951  41.8287253  31.1838995 126.6044081  43.7778524  23.9025501
 126.1649072  43.2854903  24.5958358 127.3552198  43.2351492  23.6617576
 119.0836420  39.9690065  23.9050129 119.9094440  39.6693837  23.5248773
 118.7330472  39.1997688  24.3539918 124.0517953  39.3216533  25.9747803
 123.4297963  38.6587238  25.6750031 124.7222820  39.3477665  25.2921451
 117.2845025  37.8876392  24.8639063 116.4476934  37.4598566  24.6823064
 117.2568671  38.0808835  25.8009854 124.1242481  27.7998321  35.5680309
 124.1730636  28.6760444  35.1858079 124.6664995  27.2575714  34.9951952
 134.6097327  38.3439445  34.8481446 133.8192870  38.3263583  34.3085945
 134.3730681  38.8827738  35.6030483 134.7295202  35.1931911  32.1614175
 134.7793207  35.0281918  33.1029697 134.6209125  34.3259170  31.7712055
 123.6131460  37.8720457  19.4506263 123.7619581  38.5555921  18.7972936
 124.4197904  37.8525547  19.9655719 132.0198964  31.1762839  33.4773481
 132.9208827  31.0369304  33.1857479 132.0946939  31.3417294  34.4171659
 126.3541769  28.5529694  32.3226668 125.4845079  28.8463260  32.0509256
 126.5901250  29.1370139  33.0433931 136.2313398  37.6128852  32.4056196
 135.9398207  37.9758833  33.2419657 135.6185530  36.8995861  32.2269528
 134.4800587  32.7361467  30.8736254 134.9554708  32.9289113  30.0655105
 133.5566152  32.7920653  30.6279638 121.3684093  33.8985634  20.4567332
 121.1230135  32.9947964  20.6547543 121.5380008  33.9002785  19.5146810
 129.0580803  24.7709311  29.8392088 129.5762747  25.5070338  29.5138577
 128.7035936  25.0773304  30.6738847 120.6379741  29.6313992  17.9553494
 119.9448986  29.7058347  17.2993530 120.3931493  28.8674335  18.4775011
 127.1126866  40.3668587  16.9218011 126.5400833  40.9858774  16.4688483
 127.6859659  40.9167949  17.4557933 133.1802256  29.6127227  29.1064560
 134.1319679  29.7125325  29.1276784 133.0105706  28.8205496  29.6162644
 131.2016635  26.6982810  29.2923961 130.6066567  26.9787823  28.5970449
 130.9166332  27.1876711  30.0640702 130.3324126  40.6505737  18.0526593
 131.2654799  40.5851299  18.2559469 130.2447338  41.4862004  17.5941126
 135.6590333  32.8333347  28.2206859 135.6266654  31.8949348  28.4066543
 136.2690957  32.9117384  27.4872684 135.8084822  29.6244390  28.2665143
 135.2923871  28.8402847  28.0795071 136.6924770  29.2963107  28.4311662
 139.5582180  32.0357216  27.9587347 138.8315344  31.9013181  27.3503839
 139.1429467  32.3434045  28.7644065 127.3812357  35.7547146  35.7234720
 128.3015366  35.9325745  35.9174767 127.3461940  34.8103191  35.5714420
 116.5994522  30.9485740  24.6487995 116.2797306  30.0951048  24.3562369
 116.0527950  31.1634318  25.4045962 120.3774429  33.6648181  28.3657502
 120.5960439  34.5965288  28.3845535 120.7900203  33.3056155  29.1512305
 125.2502295  29.2381386  37.7560250 125.1499022  30.1875743  37.6872342
 125.0323837  28.9099625  36.8836321 116.4682782  34.5688651  26.6181117
 115.7746253  34.1542604  26.1051071 117.2155773  34.6109188  26.0214535
 125.1133565  32.6678525  36.5725312 124.6300646  33.4678885  36.7789201
 125.1994504  32.6786470  35.6192756 118.3819524  34.5006905  24.4947131
 118.3590212  34.5994592  23.5429015 118.6920161  35.3472056  24.8164298
 121.0406902  36.5583060  28.6093746 121.9950156  36.5267002  28.5423677
 120.8419426  36.0973684  29.4243972 121.6306284  35.1284176  31.1764544
 122.4499173  35.6228255  31.1999381 121.9043092  34.2116144  31.1482111
 119.3957131  42.1002679  25.6263944 119.2611599  41.3403080  25.0601942
 118.9789193  42.8243579  25.1592733 122.5526257  42.9971996  25.8382386
 122.4358641  43.9417429  25.7361077 121.7318703  42.6945558  26.2268186
 116.8841199  29.4622310  31.8756741 117.5300062  28.9521264  32.3643966
 116.6758350  30.1990991  32.4500166 129.4094591  36.5303157  37.3748881
 130.2785750  36.7043810  37.0135516 128.9301342  37.3497574  37.2524611
 123.5780771  43.6500258  29.0538315 124.4808018  43.6823869  29.3704810
 123.3518141  42.7200709  29.0684651 125.3334373  42.4031245  25.7148393
 124.3830004  42.4033106  25.6012766 125.6366859  41.6563979  25.1984428
 121.2238690  26.6089927  35.9731755 122.0870151  26.2526732  36.1835079
 120.6504100  26.2703822  36.6607159 141.0687067  48.2391783  26.7794156
 141.7065477  48.1198531  26.0757496 140.9507909  49.1872627  26.8382108
 137.8776773  48.1919211  26.7155681 137.5395284  48.0760276  25.8276215
 138.7466541  47.7910376  26.6956687 133.7363589  50.0454688  22.7052571
 133.1728454  49.9544625  21.9368859 133.6215984  49.2254592  23.1855064
 138.3596556  49.3454063  32.6741886 138.3485197  48.9506861  31.8022390
 138.5217195  48.6120136  33.2675658 131.2828020  51.5405879  25.5436792
 132.0749312  51.1996704  25.1283091 131.5224671  51.6500854  26.4638945
 139.3163147  53.7125655  18.0167036 138.6651127  54.2979736  17.6301050
 140.1107510  54.2431850  18.0762074 133.2418774  50.8014793  18.4154171
 134.0149650  50.2543780  18.2767047 133.5944173  51.6659042  18.6268632
 135.0803817  52.1291175  31.6221070 134.7893683  53.0336806  31.5067736
 135.7160801  52.1707703  32.3365140 136.0060024  49.5068023  28.2122430
 136.6023596  49.2824046  27.4979393 136.0634995  48.7652769  28.8147878
 140.6228335  45.9643237  23.8547364 141.4091424  45.5462660  23.5037781
 140.8867039  46.8689329  24.0229012 140.7938412  51.4016087  18.5536021
 140.1584245  51.4750714  19.2656925 140.4635819  51.9909686  17.8755100
 135.2981341  48.8635565  18.2496996 135.1817599  48.1880468  18.9178080
 135.4083601  48.3767939  17.4329149 137.6412882  48.3245712  21.9543685
 137.2771089  47.7976333  22.6656606 138.4979998  47.9344181  21.7810170
 143.5462183  39.6140044  29.2174951 143.2145507  40.4835455  28.9936166
 142.9507796  39.2976328  29.8968981 140.0393702  51.8152590  28.6170864
 139.7394425  52.7177629  28.5086671 139.6944762  51.5484774  29.4692017
 133.4906184  48.2666387  24.6507568 132.5656680  48.1342601  24.8585260
 133.7390597  49.0460607  25.1477511 143.4390846  44.3335131  26.2968301
 142.5307723  44.2650539  26.0027062 143.3878442  44.8107076  27.1250127
 130.8514995  47.9099661  25.4851357 130.9807376  48.1634140  26.3990769
 130.1712446  48.5027369  25.1656012 135.0214482  58.5796911  21.5841831
 134.9438512  59.5304736  21.6630312 134.4176125  58.2342783  22.2416758
 137.5131712  45.7524776  34.2403198 136.7365046  46.3118696  34.2306063
 138.1522275  46.2381559  34.7618068 145.3052492  42.5351569  28.0746175
 144.6626872  42.8284102  27.4285970 144.8007421  42.4204489  28.8799372
 135.7678084  48.5610230  33.8021165 136.5092768  49.0995274  33.5255989
 135.0615069  49.1876518  33.9592717 141.2433424  50.7039370  32.3993327
 141.6516780  50.2621781  31.6547959 140.5210685  50.1291998  32.6527520
 137.5964494  45.6411977  29.7726884 138.4425689  46.0651390  29.9161533
 137.5363131  44.9845601  30.4665447 141.5662238  51.2640561  26.1545616
 140.9371101  51.4286275  25.4521684 141.1787900  51.6782170  26.9256580
 145.4451470  52.1994999  23.5089979 144.7602508  52.5793900  22.9587013
 145.5295319  52.8090325  24.2421927 140.7463939  43.3016345  31.4308057
 140.5024871  44.0558406  30.8942333 141.0223869  43.6801693  32.2655304
 142.7002402  49.8454958  30.1085323 142.9119297  50.4886717  29.4319704
 142.6532150  49.0117274  29.6407253 140.3028631  42.4572778  27.0121895
 139.4413110  42.7554032  27.3038633 140.3291065  42.6743177  26.0802928
 137.1190200  51.0014969  23.4195701 137.5828546  51.2802672  22.6300323
 136.8546998  50.0998413  23.2368791 134.0114281  50.5486450  26.3575464
 134.5815638  50.9773719  25.7192949 134.6022393  50.2669035  27.0559650
 136.0559086  47.1238121  20.2285266 136.7583129  47.5759165  20.6959192
 135.7239715  46.4821940  20.8565159 134.5039448  45.7149878  34.6036475
 133.8738108  46.3966159  34.8371872 134.3975536  45.6032959  33.6589614
 129.7984420  45.3821674  25.5302400 129.0083474  45.6379202  25.0542510
 130.2895667  46.1970012  25.6354440 143.8148230  52.7226913  28.2807680
 144.6365673  52.3207100  27.9990362 143.8110633  52.6195147  29.2323796
 131.7499165  45.7466253  22.4885876 130.9530329  45.8584947  23.0069372
 131.5224758  46.0852905  21.6226767 137.5804833  52.2710956  30.4368391
 137.6449266  52.7331363  31.2726563 136.8715757  51.6408321  30.5650701
 128.0822123  45.6352164  27.9617390 128.3330162  46.5199174  28.2274966
 128.6181671  45.4556766  27.1892482 137.2952851  53.9379064  20.3047371
 137.1598526  54.7830599  20.7332219 137.8362663  54.1398341  19.5413305
 133.7820190  40.0170644  36.9661726 133.3887136  39.4636842  37.6409371
 134.5986331  40.3281222  37.3568244 130.7482248  51.4554502  20.8775296
 131.2606769  52.2497752  21.0280861 131.4004961  50.7580792  20.8108898
 132.5577133  54.5720258  22.9598049 132.7343761  55.4938223  22.7719033
 133.3533966  54.2578677  23.3892429 136.6988151  41.4328523  34.5581983
 137.4397865  42.0335676  34.4786445 136.9306074  40.6906160  34.0000026
 131.8429489  46.6184890  32.8360213 131.7283005  45.7170147  33.1367312
 130.9874007  46.8648587  32.4845029 138.9221327  54.5602630  34.4347713
 138.4785181  53.7739009  34.1168618 139.5838541  54.7481781  33.7691604
 133.6808448  56.0898432  28.9608392 134.2315873  55.9615495  28.1885386
 132.8419924  56.3893321  28.6103285 141.0202565  54.8405430  32.4629115
 141.0021041  55.6614311  31.9709384 141.9422485  54.7159505  32.6879256
 137.4775619  52.3549560  33.3052623 138.0103956  51.5937848  33.0751931
 136.9489700  52.0623211  34.0476777 140.6445314  37.4609626  28.8346265
 140.3009584  38.3511267  28.7585375 141.0124277  37.2711283  27.9715850
 128.7131165  49.7843156  21.6534867 129.5506387  50.1940164  21.4368574
 128.8909433  48.8442598  21.6235061 138.1942708  42.2967937  22.4003938
 137.3384304  41.9074788  22.2209577 138.6069660  42.3759898  21.5403724
 139.7241855  39.8314281  26.7995498 139.2206650  39.7944416  25.9863303
 140.0172462  40.7407023  26.8592155 135.9684741  39.9153010  25.8061680
 136.8337737  39.7195819  25.4467569 136.0362250  39.6863362  26.7331036
 138.8428332  51.4835552  20.8171435 138.3149694  50.7488312  20.5044672
 138.3415835  52.2610228  20.5711403 143.8221178  49.6784573  25.9338481
 143.1644853  50.3683834  26.0218610 144.6261577  50.0681005  26.2772468
 133.5747060  42.1455218  23.1778046 134.1490812  41.9230400  22.4451239
 134.1618042  42.2143913  23.9306648 142.6326637  48.0328945  23.9842423
 143.1458519  48.6658937  24.4864133 143.2827861  47.4330141  23.6185783
 133.9016647  44.1759679  17.1973932 133.0653959  44.5134366  17.5183206
 133.7621416  44.0408659  16.2601069 135.8769727  39.0196467  21.9053116
 135.2234140  38.7045484  21.2809731 135.8350202  38.3972208  22.6312939
 139.8949011  58.0113270  16.7403094 139.2210710  58.3144966  17.3488052
 140.2814833  58.8142350  16.3908551 139.1107468  45.5078401  26.2300763
 138.1930029  45.7293348  26.0722452 139.5267611  45.5824711  25.3712471
 139.8942516  46.9069817  21.3603444 140.6414334  47.4191214  21.0510566
 140.1634105  46.5853869  22.2207837 138.1669166  49.4028357  18.3430398
 137.2580385  49.1187390  18.4402868 138.1964249  49.8227436  17.4833705
 143.3988433  53.0134947  22.1121566 142.9450760  52.1725857  22.1686756
 142.7682400  53.6496345  22.4496346 141.8421372  54.8511443  23.0471384
 142.1344347  55.4116501  22.3283749 142.3519993  55.1440004  23.8024543
 128.7357336  47.1233871  22.3245600 128.5381736  46.5303232  21.5996667
 128.1804000  46.8186082  23.0421539 136.7154060  47.0156978  24.4440193
 136.7702670  46.0630814  24.3682670 135.9045262  47.1716417  24.9281492
 134.6546420  45.6334038  22.2030572 133.8414285  45.9328208  22.6095764
 135.1505414  45.2389726  22.9205054 136.8054998  55.6291795  24.1364837
 136.7631176  55.8552641  23.2073369 137.7217696  55.3955169  24.2850638
 140.2520631  46.0975862  31.0345466 140.6070019  46.3247335  31.8939932
 140.8992763  46.4294239  30.4122721 134.1460494  43.2052393  27.8191807
 134.7859874  43.0641152  27.1214771 133.3138025  42.9186907  27.4430409
 146.0087748  51.2870825  26.7506067 146.4424255  51.1946114  27.5989121
 146.7219329  51.2628325  26.1126083 134.9220798  52.5054824  23.9326800
 135.7161397  52.0105144  23.7309375 134.2112491  51.9772687  23.5694505
 139.7415643  54.8872919  28.2839167 139.7952665  55.4563855  29.0516883
 138.8730424  55.0574804  27.9193204 131.2303562  46.6497905  20.0086552
 130.3001150  46.5882361  20.2256514 131.3261034  46.1273858  19.2123194
 131.1489111  43.1752718  22.5964794 131.4095928  44.0898051  22.4873954
 131.9706283  42.7077161  22.7461407 132.6214036  44.5890475  29.7663619
 133.2937090  44.3807837  29.1176267 131.7943823  44.3912561  29.3268851
 146.8703297  51.3294526  29.2838952 147.0639188  52.2340336  29.5298227
 146.7703916  50.8701945  30.1177537 138.5239608  41.2152416  31.7829279
 137.8767523  41.9142366  31.6893756 139.2940624  41.6488560  32.1505528
 141.9318406  51.4801268  34.8579833 141.7803913  51.2511820  33.9409916
 141.9223086  52.4371870  34.8711178 138.7003743  49.0533181  29.8426099
 139.6295803  49.2044341  29.6695066 138.2794773  49.1417202  28.9874746
 137.4992074  53.0783846  27.6124637 137.3603160  52.7102630  28.4850575
 136.7106671  53.5931485  27.4408595 138.0940226  58.1792942  18.9550173
 138.2691982  57.7080985  19.7695796 137.4073014  58.8058708  19.1831434
 139.0497289  52.4565448  25.0013475 138.7147122  52.4166218  25.8971124
 138.5501235  51.7910164  24.5283885 133.0241533  47.8633078  30.5266056
 132.8861331  47.1313317  31.1277595 133.9346457  47.7741978  30.2450243
 135.6523834  47.5753038  30.0149735 136.3623453  46.9346230  29.9736354
 135.6093142  47.8265932  30.9375916 143.6410613  54.5120391  32.9356315
 143.5823159  53.8279611  32.2686898 144.0430131  55.2539381  32.4836941
 134.3652768  44.5618255  31.8345375 133.8290125  44.1108994  32.4866971
 133.7769477  44.6964164  31.0915839 132.6601312  61.3282305  25.7290033
 132.8997910  61.9600829  26.4069052 131.8170508  60.9770345  26.0155393
 143.6428020  52.4759975  31.1670294 142.7554799  52.1385897  31.2896693
 144.2126571  51.7443006  31.4039060 125.2957167  48.8084067  24.4913346
 125.9828207  48.4945797  23.9034361 125.1405296  49.7125431  24.2180597
 130.0991889  43.6974263  28.9198369 130.0150078  43.0899933  28.1848779
 129.2774596  44.1883281  28.9207866 137.1729173  57.1361427  28.1331537
 137.0999345  57.9416399  28.6450842 136.7306567  57.3353393  27.3079559
 136.9618953  56.3733197  21.6434359 136.1786475  56.9154877  21.7372583
 137.6611698  56.8907177  22.0428600 140.2715603  42.1827827  24.2868564
 140.7684303  41.4297789  23.9669635 139.5002585  42.2192143  23.7211774
 148.1245361  47.8868192  25.9286856 148.1135237  48.7692908  25.5580789
 147.2562740  47.5339743  25.7341393 139.6327857  57.0348261  30.2889696
 140.3455829  57.6695726  30.2165598 139.1417886  57.1312127  29.4729698
 141.3545384  50.9399514  21.8606988 140.4201663  51.0600976  21.6911692
 141.5322052  50.0371981  21.5966998 136.8550572  44.3245210  24.0140249
 136.4848359  43.7716250  24.7021155 137.3509664  43.7203343  23.4615249
 134.6839770  54.7842705  31.1095267 135.3849230  55.4179188  31.2624661
 134.2134885  55.1257436  30.3490906 142.8094166  53.1260654  19.3943174
 143.0854010  53.0117249  20.3037048 141.9398665  52.7278139  19.3555347
 142.7134598  39.1497420  26.4347923 141.7997678  39.3801647  26.6030130
 143.1427699  39.2335864  27.2861956 142.4841056  47.3387312  28.9347817
 141.8312507  47.5863220  28.2800270 142.8621436  46.5251450  28.6010295
 139.4448230  57.3747005  23.0375988 139.6270625  56.5568661  23.5003740
 140.2681216  57.5914698  22.6000878 139.7790396  56.3015190  20.2991036
 140.3078162  55.7907645  19.6861198 140.0418615  55.9857721  21.1636569
 138.5328629  48.0807123  35.4213854 137.8569266  47.9801253  36.0916230
 139.3556263  47.9246337  35.8849852 130.2807489  54.3179060  28.0426370
 130.8660925  53.5722748  28.1754274 130.0832327  54.6283016  28.9263033
 133.1346144  57.3530307  23.0588812 132.4656519  57.8376435  22.5752852
 132.9959013  57.5999528  23.9732191 124.8725143  46.8884660  26.7630813
 124.9109243  46.3548251  27.5567931 124.3665436  46.3619865  26.1441790
 137.2751412  59.3874051  29.6571470 137.8269720  59.5505672  30.4220556
 137.6157606  59.9778488  28.9851495 132.2515906  41.7349200  30.2593355
 132.3157232  42.5964031  29.8470753 132.1883026  41.1223202  29.5265714
 131.7268178  43.8072333  33.9066389 132.3540217  43.4249410  34.5203914
 130.8696097  43.5886535  34.2722082 142.1262287  54.2135308  35.5120125
 142.6702191  54.8265266  35.0175080 141.5449132  54.7714887  36.0287138
 128.5033721  45.6148762  19.8384744 128.7987162  44.7059441  19.7851798
 127.6021757  45.5936502  19.5165746 140.4119800  57.3356026  26.6435153
 140.2870939  56.5345766  26.1346098 141.0698891  57.8302220  26.1549122
 132.0327968  43.6904759  25.8212293 131.3114554  44.3040726  25.6819766
 132.8221224  44.2262524  25.7428939 142.4754708  55.1365046  28.2714703
 141.5285044  55.0170397  28.1993029 142.8237481  54.2487544  28.3540964
 134.8354281  41.0259185  32.0952944 135.3588683  41.2721482  32.8579254
 134.6166615  41.8579220  31.6756082 130.2321562  43.2962860  19.9624069
 129.9034269  42.4160239  19.7799175 130.5860933  43.2410528  20.8500459
 139.4801141  54.9317762  24.4719055 139.3326104  54.0034470  24.6526625
 140.3054635  54.9537853  23.9876130 133.3463386  43.5835830  20.3299547
 133.6859458  44.1121751  19.6078155 133.7935506  43.9216236  21.1058114
 143.0835263  55.7546321  25.5583928 144.0081811  55.5489183  25.4208379
 142.9150567  55.5062722  26.4673269 136.0406826  41.9672880  29.7802615
 135.7003647  41.1680693  30.1823295 135.3345833  42.2674591  29.2079448
 136.6923298  39.0522193  28.2329938 137.5149368  38.5782671  28.1108828
 136.9361362  39.8312676  28.7328624 134.2161877  45.7441313  26.0421917
 134.0706458  46.0581616  26.9346198 133.7387081  46.3626214  25.4892815
 136.0758260  42.7343861  26.0902806 136.0619829  41.8384955  25.7535104
 136.7930688  42.7414525  26.7241092 137.9284391  43.1681202  28.1355934
 137.6702168  44.0898272  28.1340264 137.3969431  42.7711636  28.8256398
 142.8730579  56.2731989  20.9146019 143.0467457  55.7078411  20.1619871
 143.3659471  57.0732884  20.7325509 128.6907539  48.2846658  28.9809578
 128.1461007  49.0606466  29.1129852 129.5686889  48.6317462  28.8228699
 135.4795156  41.6158242  21.3590376 135.6011067  40.6874888  21.5581264
 135.1897198  41.6296928  20.4468692 138.3486346  39.3013152  24.4957096
 138.3708043  39.3652485  23.5409076 138.7654405  38.4617661  24.6897602
 129.4773561  47.4116554  31.8739735 128.7355297  47.5599189  32.4604365
 129.1566305  47.6724820  31.0106484 137.4217224  56.9532532  31.6720125
 137.7304350  56.7081679  32.5442824 138.2192706  57.1579171  31.1838995
 137.4437836  59.1070442  23.9025501 137.0042826  58.6146821  24.5958358
 138.1945953  58.5643410  23.6617576 129.9230175  55.2981983  23.9050129
 130.7488195  54.9985755  23.5248773 129.5724227  54.5289605  24.3539918
 134.8911708  54.6508451  25.9747803 134.2691717  53.9879156  25.6750031
 135.5616575  54.6769583  25.2921451 128.1238780  53.2168309  24.8639063
 127.2870688  52.7890484  24.6823064 128.0962425  53.4100753  25.8009854
 134.9636235  43.1290239  35.5680309 135.0124391  44.0052362  35.1858079
 135.5058750  42.5867632  34.9951952 145.4491081  53.6731362  34.8481446
 144.6586625  53.6555501  34.3085945 145.2124436  54.2119656  35.6030483
 145.5688956  50.5223829  32.1614175 145.6186961  50.3573836  33.1029697
 145.4602879  49.6551088  31.7712055 134.4525215  53.2012374  19.4506263
 134.6013335  53.8847839  18.7972936 135.2591658  53.1817464  19.9655719
 142.8592718  46.5054757  33.4773481 143.7602581  46.3661222  33.1857479
 142.9340693  46.6709211  34.4171659 137.1935524  43.8821611  32.3226668
 136.3238833  44.1755177  32.0509256 137.4295004  44.4662056  33.0433931
 147.0707153  52.9420770  32.4056196 146.7791961  53.3050751  33.2419657
 146.4579284  52.2287778  32.2269528 145.3194341  48.0653385  30.8736254
 145.7948463  48.2581031  30.0655105 144.3959907  48.1212571  30.6279638
 132.2077848  49.2277552  20.4567332 131.9623890  48.3239882  20.6547543
 132.3773762  49.2294702  19.5146810 139.8974558  40.1001228  29.8392088
 140.4156502  40.8362255  29.5138577 139.5429690  40.4065222  30.6738847
 131.4773495  44.9605910  17.9553494 130.7842740  45.0350265  17.2993530
 131.2325247  44.1966253  18.4775011 137.9520620  55.6960505  16.9218011
 137.3794587  56.3150692  16.4688483 138.5253414  56.2459866  17.4557933
 144.0196010  44.9419145  29.1064560 144.9713433  45.0417243  29.1276784
 143.8499461  44.1497413  29.6162644 142.0410390  42.0274728  29.2923961
 141.4460322  42.3079741  28.5970449 141.7560086  42.5168629  30.0640702
 141.1717880  55.9797655  18.0526593 142.1048553  55.9143217  18.2559469
 141.0841093  56.8153922  17.5941126 146.4984088  48.1625265  28.2206859
 146.4660408  47.2241265  28.4066543 147.1084712  48.2409301  27.4872684
 146.6478576  44.9536308  28.2665143 146.1317625  44.1694765  28.0795071
 147.5318525  44.6255025  28.4311662 150.3975935  47.3649134  27.9587347
 149.6709099  47.2305099  27.3503839 149.9823222  47.6725963  28.7644065
 138.2206111  51.0839064  35.7234720 139.1409121  51.2617663  35.9174767
 138.1855694  50.1395109  35.5714420 127.4388276  46.2777657  24.6487995
 127.1191061  45.4242966  24.3562369 126.8921705  46.4926235  25.4045962
 131.2168184  48.9940098  28.3657502 131.4354194  49.9257206  28.3845535
 131.6293958  48.6348073  29.1512305 136.0896049  44.5673304  37.7560250
 135.9892776  45.5167661  37.6872342 135.8717591  44.2391543  36.8836321
 127.3076536  49.8980569  26.6181117 126.6140008  49.4834522  26.1051071
 128.0549527  49.9401105  26.0214535 135.9527319  47.9970443  36.5725312
 135.4694401  48.7970803  36.7789201 136.0388258  48.0078388  35.6192756
 129.2213279  49.8298823  24.4947131 129.1983967  49.9286510  23.5429015
 129.5313915  50.6763973  24.8164298 131.8800657  51.8874978  28.6093746
 132.8343910  51.8558920  28.5423677 131.6813180  51.4265601  29.4243972
 132.4700039  50.4576094  31.1764544 133.2892928  50.9520172  31.1999381
 132.7436847  49.5408062  31.1482111 130.2350886  57.4294597  25.6263944
 130.1005353  56.6694998  25.0601942 129.8182948  58.1535497  25.1592733
 133.3920011  58.3263914  25.8382386 133.2752396  59.2709347  25.7361077
 132.5712458  58.0237476  26.2268186 127.7234953  44.7914228  31.8756741
 128.3693817  44.2813182  32.3643966 127.5152104  45.5282909  32.4500166
 140.2488345  51.8595075  37.3748881 141.1179505  52.0335727  37.0135516
 139.7695097  52.6789492  37.2524611 134.4174526  58.9792176  29.0538315
 135.3201772  59.0115786  29.3704810 134.1911896  58.0492627  29.0684651
 136.1728128  57.7323163  25.7148393 135.2223759  57.7325024  25.6012766
 136.4760614  56.9855897  25.1984428 132.0632444  41.9381845  35.9731755
 132.9263906  41.5818649  36.1835079 131.4897855  41.5995739  36.6607159
 151.9080821  63.5683701  26.7794156 152.5459231  63.4490448  26.0757496
 151.7901664  64.5164545  26.8382108 148.7170527  63.5211129  26.7155681
 148.3789039  63.4052194  25.8276215 149.5860296  63.1202294  26.6956687
 144.5757343  65.3746605  22.7052571 144.0122208  65.2836542  21.9368859
 144.4609738  64.5546510  23.1855064 149.1990310  64.6745981  32.6741886
 149.1878951  64.2798779  31.8022390 149.3610950  63.9412053  33.2675658
 142.1221775  66.8697797  25.5436792 142.9143067  66.5288622  25.1283091
 142.3618425  66.9792772  26.4638945 150.1556902  69.0417573  18.0167036
 149.5044881  69.6271654  17.6301050 150.9501265  69.5723768  18.0762074
 144.0812529  66.1306710  18.4154171 144.8543405  65.5835697  18.2767047
 144.4337928  66.9950960  18.6268632 145.9197571  67.4583093  31.6221070
 145.6287437  68.3628723  31.5067736 146.5554556  67.4999620  32.3365140
 146.8453778  64.8359941  28.2122430 147.4417351  64.6115964  27.4979393
 146.9028750  64.0944687  28.8147878 151.4622090  61.2935155  23.8547364
 152.2485179  60.8754578  23.5037781 151.7260794  62.1981247  24.0229012
 151.6332167  66.7308005  18.5536021 150.9978000  66.8042632  19.2656925
 151.3029573  67.3201604  17.8755100 146.1375095  64.1927482  18.2496996
 146.0211354  63.5172386  18.9178080 146.2477355  63.7059856  17.4329149
 148.4806636  63.6537630  21.9543685 148.1164844  63.1268250  22.6656606
 149.3373752  63.2636099  21.7810170 154.3855937  54.9431962  29.2174951
 154.0539262  55.8127373  28.9936166 153.7901550  54.6268246  29.8968981
 150.8787457  67.1444508  28.6170864 150.5788180  68.0469547  28.5086671
 150.5338516  66.8776691  29.4692017 144.3299938  63.5958305  24.6507568
 143.4050434  63.4634519  24.8585260 144.5784351  64.3752524  25.1477511
 154.2784600  59.6627048  26.2968301 153.3701478  59.5942457  26.0027062
 154.2272196  60.1398993  27.1250127 141.6908749  63.2391578  25.4851357
 141.8201130  63.4926057  26.3990769 141.0106200  63.8319286  25.1656012
 145.8608236  73.9088828  21.5841831 145.7832266  74.8596654  21.6630312
 145.2569880  73.5634701  22.2416758 148.3525466  61.0816694  34.2403198
 147.5758800  61.6410614  34.2306063 148.9916029  61.5673477  34.7618068
 156.1446247  57.8643487  28.0746175 155.5020627  58.1576020  27.4285970
 155.6401175  57.7496407  28.8799372 146.6071838  63.8902147  33.8021165
 147.3486523  64.4287191  33.5255989 145.9008824  64.5168436  33.9592717
 152.0827178  66.0331288  32.3993327 152.4910534  65.5913698  31.6547959
 151.3604440  65.4583915  32.6527520 148.4358248  60.9703894  29.7726884
 149.2819443  61.3943308  29.9161533 148.3756886  60.3137519  30.4665447
 152.4055993  66.5932478  26.1545616 151.7764855  66.7578192  25.4521684
 152.0181655  67.0074088  26.9256580 156.2845225  67.5286916  23.5089979
 155.5996263  67.9085818  22.9587013 156.3689074  68.1382243  24.2421927
 151.5857693  58.6308263  31.4308057 151.3418625  59.3850323  30.8942333
 151.8617624  59.0093610  32.2655304 153.5396156  65.1746875  30.1085323
 153.7513051  65.8178635  29.4319704 153.4925904  64.3409192  29.6407253
 151.1422385  57.7864696  27.0121895 150.2806864  58.0845949  27.3038633
 151.1684820  58.0035095  26.0802928 147.9583955  66.3306886  23.4195701
 148.4222300  66.6094589  22.6300323 147.6940753  65.4290331  23.2368791
 144.8508036  65.8778368  26.3575464 145.4209393  66.3065636  25.7192949
 145.4416147  65.5960953  27.0559650 146.8952841  62.4530039  20.2285266
 147.5976884  62.9051082  20.6959192 146.5633469  61.8113858  20.8565159
 145.3433202  61.0441795  34.6036475 144.7131863  61.7258076  34.8371872
 145.2369290  60.9324877  33.6589614 140.6378175  60.7113591  25.5302400
 139.8477229  60.9671120  25.0542510 141.1289422  61.5261929  25.6354440
 154.6541984  68.0518831  28.2807680 155.4759428  67.6499018  27.9990362
 154.6504387  67.9487065  29.2323796 142.5892920  61.0758171  22.4885876
 141.7924083  61.1876865  23.0069372 142.3618512  61.4144823  21.6226767
 148.4198588  67.6002874  30.4368391 148.4843020  68.0623281  31.2726563
 147.7109511  66.9700239  30.5650701 138.9215878  60.9644082  27.9617390
 139.1723916  61.8491092  28.2274966 139.4575426  60.7848683  27.1892482
 148.1346605  69.2670981  20.3047371 147.9992280  70.1122517  20.7332219
 148.6756418  69.4690259  19.5413305 144.6213945  55.3462561  36.9661726
 144.2280890  54.7928760  37.6409371 145.4380085  55.6573140  37.3568244
 141.5876003  66.7846419  20.8775296 142.1000523  67.5789670  21.0280861
 142.2398715  66.0872710  20.8108898 143.3970887  69.9012176  22.9598049
 143.5737516  70.8230140  22.7719033 144.1927721  69.5870595  23.3892429
 147.5381906  56.7620440  34.5581983 148.2791619  57.3627593  34.4786445
 147.7699829  56.0198078  34.0000026 142.6823244  61.9476808  32.8360213
 142.5676759  61.0462065  33.1367312 141.8267762  62.1940504  32.4845029
 149.7615082  69.8894548  34.4347713 149.3178936  69.1030926  34.1168618
 150.4232295  70.0773698  33.7691604 144.5202203  71.4190350  28.9608392
 145.0709628  71.2907413  28.1885386 143.6813679  71.7185239  28.6103285
 151.8596320  70.1697348  32.4629115 151.8414795  70.9906229  31.9709384
 152.7816240  70.0451423  32.6879256 148.3169374  67.6841477  33.3052623
 148.8497711  66.9229766  33.0751931 147.7883455  67.3915129  34.0476777
 151.4839069  52.7901543  28.8346265 151.1403338  53.6803185  28.7585375
 151.8518031  52.6003201  27.9715850 139.5524919  65.1135074  21.6534867
 140.3900141  65.5232082  21.4368574 139.7303187  64.1734516  21.6235061
 149.0336463  57.6259855  22.4003938 148.1778059  57.2366706  22.2209577
 149.4463414  57.7051816  21.5403724 150.5635609  55.1606198  26.7995498
 150.0600405  55.1236334  25.9863303 150.8566216  56.0698941  26.8592155
 146.8078495  55.2444928  25.8061680 147.6731492  55.0487737  25.4467569
 146.8756004  55.0155280  26.7331036 149.6822087  66.8127470  20.8171435
 149.1543448  66.0780229  20.5044672 149.1809589  67.5902146  20.5711403
 154.6614933  65.0076490  25.9338481 154.0038607  65.6975752  26.0218610
 155.4655332  65.3972922  26.2772468 144.4140814  57.4747136  23.1778046
 144.9884566  57.2522318  22.4451239 145.0011797  57.5435831  23.9306648
 153.4720391  63.3620863  23.9842423 153.9852273  63.9950855  24.4864133
 154.1221615  62.7622058  23.6185783 144.7410401  59.5051597  17.1973932
 143.9047714  59.8426284  17.5183206 144.6015171  59.3700577  16.2601069
 146.7163482  54.3488385  21.9053116 146.0627894  54.0337402  21.2809731
 146.6743956  53.7264125  22.6312939 150.7342766  73.3405187  16.7403094
 150.0604464  73.6436884  17.3488052 151.1208588  74.1434268  16.3908551
 149.9501222  60.8370319  26.2300763 149.0323784  61.0585266  26.0722452
 150.3661366  60.9116629  25.3712471 150.7336270  62.2361734  21.3603444
 151.4808089  62.7483131  21.0510566 151.0027860  61.9145787  22.2207837
 149.0062920  64.7320275  18.3430398 148.0974139  64.4479308  18.4402868
 149.0358004  65.1519354  17.4833705 154.2382188  68.3426864  22.1121566
 153.7844515  67.5017774  22.1686756 153.6076154  68.9788263  22.4496346
 152.6815127  70.1803361  23.0471384 152.9738101  70.7408418  22.3283749
 153.1913747  70.4731922  23.8024543 139.5751091  62.4525789  22.3245600
 139.3775490  61.8595150  21.5996667 139.0197755  62.1477999  23.0421539
 147.5547814  62.3448896  24.4440193 147.6096424  61.3922732  24.3682670
 146.7439016  62.5008335  24.9281492 145.4940174  60.9625955  22.2030572
 144.6808040  61.2620126  22.6095764 145.9899168  60.5681644  22.9205054
 147.6448752  70.9583712  24.1364837 147.6024931  71.1844559  23.2073369
 148.5611451  70.7247087  24.2850638 151.0914386  61.4267780  31.0345466
 151.4463774  61.6539253  31.8939932 151.7386517  61.7586157  30.4122721
 144.9854249  58.5344311  27.8191807 145.6253628  58.3933070  27.1214771
 144.1531779  58.2478824  27.4430409 145.7614553  67.8346741  23.9326800
 146.5555151  67.3397061  23.7309375 145.0506245  67.3064604  23.5694505
 150.5809397  70.2164837  28.2839167 150.6346420  70.7855773  29.0516883
 149.7124179  70.3866722  27.9193204 142.0697316  61.9789823  20.0086552
 141.1394904  61.9174278  20.2256514 142.1654788  61.4565776  19.2123194
 141.9882865  58.5044636  22.5964794 142.2489683  59.4189969  22.4873954
 142.8100038  58.0369078  22.7461407 143.4607791  59.9182393  29.7663619
 144.1330844  59.7099755  29.1176267 142.6337577  59.7204479  29.3268851
 149.3633363  56.5444334  31.7829279 148.7161278  57.2434284  31.6893756
 150.1334378  56.9780478  32.1505528 152.7712161  66.8093186  34.8579833
 152.6197667  66.5803738  33.9409916 152.7616840  67.7663787  34.8711178
 149.5397497  64.3825099  29.8426099 150.4689557  64.5336258  29.6695066
 149.1188527  64.4709120  28.9874746 148.3385829  68.4075763  27.6124637
 148.1996914  68.0394548  28.4850575 147.5500425  68.9223403  27.4408595
 148.9333981  73.5084860  18.9550173 149.1085736  73.0372903  19.7695796
 148.2466769  74.1350626  19.1831434 149.8891044  67.7857366  25.0013475
 149.5540877  67.7458136  25.8971124 149.3894990  67.1202082  24.5283885
 143.8635288  63.1924996  30.5266056 143.7255086  62.4605235  31.1277595
 144.7740211  63.1033896  30.2450243 146.4917589  62.9044955  30.0149735
 147.2017207  62.2638147  29.9736354 146.4486897  63.1557850  30.9375916
 154.4804367  69.8412309  32.9356315 154.4216913  69.1571529  32.2686898
 154.8823886  70.5831299  32.4836941 145.2046523  59.8910173  31.8345375
 144.6683880  59.4400912  32.4866971 144.6163231  60.0256082  31.0915839
 143.4995066  76.6574222  25.7290033 143.7391664  77.2892747  26.4069052
 142.6564263  76.3062262  26.0155393 154.4821775  67.8051893  31.1670294
 153.5948553  67.4677814  31.2896693 155.0520326  67.0734924  31.4039060
 136.1350922  64.1375984  24.4913346 136.8221961  63.8237714  23.9034361
 135.9799050  65.0417349  24.2180597 140.9385644  59.0266181  28.9198369
 140.8543833  58.4191850  28.1848779 140.1168350  59.5175199  28.9207866
 148.0122928  72.4653345  28.1331537 147.9393099  73.2708316  28.6450842
 147.5700321  72.6645311  27.3079559 147.8012708  71.7025115  21.6434359
 147.0180229  72.2446795  21.7372583 148.5005453  72.2199095  22.0428600
 151.1109358  57.5119744  24.2868564 151.6078057  56.7589707  23.9669635
 150.3396339  57.5484061  23.7211774 150.4721611  72.3640179  30.2889696
 151.1849584  72.9987644  30.2165598 149.9811640  72.4604045  29.4729698
 152.1939138  66.2691432  21.8606988 151.2595417  66.3892894  21.6911692
 152.3715807  65.3663898  21.5966998 147.6944326  59.6537127  24.0140249
 147.3242114  59.1008168  24.7021155 148.1903419  59.0495261  23.4615249
 145.5233525  70.1134622  31.1095267 146.2242984  70.7471105  31.2624661
 145.0528640  70.4549354  30.3490906 153.6487921  68.4552572  19.3943174
 153.9247765  68.3409167  20.3037048 152.7792420  68.0570057  19.3555347
 153.5528352  54.4789338  26.4347923 152.6391432  54.7093565  26.6030130
 153.9821454  54.5627782  27.2861956 153.3234811  62.6679230  28.9347817
 152.6706261  62.9155137  28.2800270 153.7015191  61.8543368  28.6010295
 150.2841985  72.7038923  23.0375988 150.4664379  71.8860579  23.5003740
 151.1074971  72.9206615  22.6000878 150.6184150  71.6307108  20.2991036
 151.1471917  71.1199563  19.6861198 150.8812370  71.3149638  21.1636569
 149.3722384  63.4099041  35.4213854 148.6963021  63.3093170  36.0916230
 150.1950018  63.2538255  35.8849852 141.1201243  69.6470977  28.0426370
 141.7054680  68.9014665  28.1754274 140.9226081  69.9574934  28.9263033
 143.9739898  72.6822225  23.0588812 143.3050274  73.1668352  22.5752852
 143.8352768  72.9291445  23.9732191 135.7118898  62.2176578  26.7630813
 135.7502997  61.6840168  27.5567931 135.2059191  61.6911783  26.1441790
 148.1145167  74.7165968  29.6571470 148.6663475  74.8797590  30.4220556
 148.4551360  75.3070406  28.9851495 143.0909660  57.0641118  30.2593355
 143.1550987  57.9255949  29.8470753 143.0276780  56.4515120  29.5265714
 142.5661933  59.1364251  33.9066389 143.1933971  58.7541328  34.5203914
 141.7089851  58.9178453  34.2722082 152.9656041  69.5427226  35.5120125
 153.5095945  70.1557184  35.0175080 152.3842886  70.1006804  36.0287138
 139.3427475  60.9440680  19.8384744 139.6380916  60.0351358  19.7851798
 138.4415511  60.9228419  19.5165746 151.2513554  72.6647944  26.6435153
 151.1264694  71.8637684  26.1346098 151.9092645  73.1594137  26.1549122
 142.8721722  59.0196676  25.8212293 142.1508308  59.6332644  25.6819766
 143.6614978  59.5554441  25.7428939 153.3148463  70.4656964  28.2714703
 152.3678798  70.3462315  28.1993029 153.6631236  69.5779462  28.3540964
 145.6748036  56.3551103  32.0952944 146.1982438  56.6013399  32.8579254
 145.4560369  57.1871138  31.6756082 141.0715317  58.6254777  19.9624069
 140.7428023  57.7452156  19.7799175 141.4254688  58.5702446  20.8500459
 150.3194896  70.2609680  24.4719055 150.1719858  69.3326388  24.6526625
 151.1448389  70.2829771  23.9876130 144.1857140  58.9127747  20.3299547
 144.5253213  59.4413669  19.6078155 144.6329261  59.2508153  21.1058114
 153.9229018  71.0838239  25.5583928 154.8475565  70.8781100  25.4208379
 153.7544321  70.8354640  26.4673269 146.8800581  57.2964798  29.7802615
 146.5397401  56.4972611  30.1823295 146.1739587  57.5966509  29.2079448
 147.5317053  54.3814110  28.2329938 148.3543122  53.9074589  28.1108828
 147.7755116  55.1604594  28.7328624 145.0555632  61.0733231  26.0421917
 144.9100212  61.3873534  26.9346198 144.5780835  61.6918131  25.4892815
 146.9152014  58.0635779  26.0902806 146.9013583  57.1676872  25.7535104
 147.6324442  58.0706443  26.7241092 148.7678145  58.4973119  28.1355934
 148.5095923  59.4190190  28.1340264 148.2363185  58.1003554  28.8256398
 153.7124334  71.6023906  20.9146019 153.8861211  71.0370329  20.1619871
 154.2053225  72.4024801  20.7325509 139.5301294  63.6138575  28.9809578
 138.9854762  64.3898383  29.1129852 140.4080644  63.9609380  28.8228699
 146.3188910  56.9450159  21.3590376 146.4404822  56.0166805  21.5581264
 146.0290953  56.9588845  20.4468692 149.1880101  54.6305070  24.4957096
 149.2101798  54.6944403  23.5409076 149.6048160  53.7909578  24.6897602
 140.3167316  62.7408472  31.8739735 139.5749052  62.8891107  32.4604365
 139.9960060  63.0016737  31.0106484 148.2610978  72.2824450  31.6720125
 148.5698105  72.0373597  32.5442824 149.0586460  72.4871088  31.1838995
 148.2831590  74.4362360  23.9025501 147.8436581  73.9438738  24.5958358
 149.0339707  73.8935327  23.6617576 140.7623929  70.6273900  23.9050129
 141.5881949  70.3277672  23.5248773 140.4117981  69.8581523  24.3539918
 145.7305462  69.9800369  25.9747803 145.1085472  69.3171074  25.6750031
 146.4010329  70.0061501  25.2921451 138.9632534  68.5460227  24.8639063
 138.1264443  68.1182401  24.6823064 138.9356180  68.7392670  25.8009854
 145.8029990  58.4582157  35.5680309 145.8518145  59.3344279  35.1858079
 146.3452504  57.9159550  34.9951952 156.2884836  69.0023280  34.8481446
 155.4980379  68.9847419  34.3085945 156.0518190  69.5411574  35.6030483
 156.4082711  65.8515746  32.1614175 156.4580716  65.6865754  33.1029697
 156.2996634  64.9843005  31.7712055 145.2918969  68.5304292  19.4506263
 145.4407090  69.2139756  18.7972936 146.0985413  68.5109382  19.9655719
 153.6986473  61.8346674  33.4773481 154.5996336  61.6953139  33.1857479
 153.7734447  62.0001129  34.4171659 148.0329278  59.2113529  32.3226668
 147.1632588  59.5047095  32.0509256 148.2688759  59.7953974  33.0433931
 156.1588096  63.3945302  30.8736254 156.6342217  63.5872949  30.0655105
 155.2353661  63.4504488  30.6279638 143.0471602  64.5569470  20.4567332
 142.8017644  63.6531800  20.6547543 143.2167517  64.5586620  19.5146810
 150.7368312  55.4293146  29.8392088 151.2550256  56.1654173  29.5138577
 150.3823445  55.7357139  30.6738847 142.3167250  60.2897827  17.9553494
 141.6236495  60.3642182  17.2993530 142.0719002  59.5258171  18.4775011
 148.7914375  71.0252422  16.9218011 148.2188342  71.6442610  16.4688483
 149.3647168  71.5751784  17.4557933 154.8589765  60.2711063  29.1064560
 155.8107188  60.3709160  29.1276784 154.6893215  59.4789331  29.6162644
 152.8804144  57.3566646  29.2923961 152.2854076  57.6371658  28.5970449
 152.5953841  57.8460547  30.0640702 152.0111635  71.3089573  18.0526593
 152.9442308  71.2435134  18.2559469 151.9234847  72.1445839  17.5941126
 149.0599866  66.4130981  35.7234720 149.9802875  66.5909580  35.9174767
 149.0249449  65.4687027  35.5714420 138.2782031  61.6069575  24.6487995
 137.9584815  60.7534883  24.3562369 137.7315459  61.8218153  25.4045962
 142.0561938  64.3232016  28.3657502 142.2747948  65.2549124  28.3845535
 142.4687712  63.9639990  29.1512305 146.9289804  59.8965222  37.7560250
 146.8286531  60.8459579  37.6872342 146.7111346  59.5683461  36.8836321
 138.1470291  65.2272486  26.6181117 137.4533762  64.8126439  26.1051071
 138.8943282  65.2693023  26.0214535 146.7921074  63.3262361  36.5725312
 146.3088155  64.1262721  36.7789201 146.8782013  63.3370305  35.6192756
 140.0607033  65.1590740  24.4947131 140.0377721  65.2578428  23.5429015
 140.3707670  66.0055891  24.8164298 142.7194411  67.2166895  28.6093746
 143.6737665  67.1850838  28.5423677 142.5206935  66.7557519  29.4243972
 143.3093793  65.7868011  31.1764544 144.1286682  66.2812090  31.1999381
 143.5830601  64.8699979  31.1482111 141.0744640  72.7586515  25.6263944
 140.9399108  71.9986916  25.0601942 140.6576702  73.4827415  25.1592733
 144.2313766  73.6555832  25.8382386 144.1146150  74.6001264  25.7361077
 143.4106212  73.3529393  26.2268186 138.5628708  60.1206145  31.8756741
 139.2087571  59.6105099  32.3643966 138.3545859  60.8574827  32.4500166
 151.0882100  67.1886993  37.3748881 151.9573259  67.3627645  37.0135516
 150.6088851  68.0081410  37.2524611 145.2568280  74.3084094  29.0538315
 146.1595527  74.3407704  29.3704810 145.0305650  73.3784545  29.0684651
 147.0121882  73.0615080  25.7148393 146.0617513  73.0616942  25.6012766
 147.3154368  72.3147815  25.1984428 142.9026199  57.2673762  35.9731755
 143.7657660  56.9110567  36.1835079 142.3291609  56.9287657  36.6607159
 155.4151098  80.7038523  22.7052571 154.8515963  80.6128460  21.9368859
 155.3003493  79.8838428  23.1855064 152.9615529  82.1989715  25.5436792
 153.7536821  81.8580539  25.1283091 153.2012180  82.3084690  26.4638945
 154.9206283  81.4598628  18.4154171 155.6937159  80.9127615  18.2767047
 155.2731682  82.3242877  18.6268632 155.1693693  78.9250223  24.6507568
 154.2444189  78.7926437  24.8585260 155.4178106  79.7044442  25.1477511
 152.5302504  78.5683496  25.4851357 152.6594885  78.8217975  26.3990769
 151.8499955  79.1611204  25.1656012 155.6901790  81.2070286  26.3575464
 156.2603147  81.6357554  25.7192949 156.2809902  80.9252870  27.0559650
 156.1826957  76.3733713  34.6036475 155.5525617  77.0549994  34.8371872
 156.0763045  76.2616795  33.6589614 151.4771929  76.0405509  25.5302400
 150.6870983  76.2963038  25.0542510 151.9683176  76.8553847  25.6354440
 153.4286674  76.4050088  22.4885876 152.6317838  76.5168783  23.0069372
 153.2012267  76.7436741  21.6226767 149.7609632  76.2936000  27.9617390
 150.0117670  77.1783009  28.2274966 150.2969180  76.1140601  27.1892482
 155.4607699  70.6754479  36.9661726 155.0674645  70.1220677  37.6409371
 156.2773840  70.9865057  37.3568244 152.4269757  82.1138337  20.8775296
 152.9394278  82.9081587  21.0280861 153.0792470  81.4164628  20.8108898
 154.2364642  85.2304093  22.9598049 154.4131270  86.1522058  22.7719033
 155.0321475  84.9162513  23.3892429 153.5216998  77.2768725  32.8360213
 153.4070514  76.3753983  33.1367312 152.6661516  77.5232422  32.4845029
 155.3595957  86.7482267  28.9608392 155.9103382  86.6199331  28.1885386
 154.5207433  87.0477156  28.6103285 150.3918674  80.4426991  21.6534867
 151.2293896  80.8524000  21.4368574 150.5696942  79.5026434  21.6235061
 155.2534569  72.8039054  23.1778046 155.8278321  72.5814235  22.4451239
 155.8405551  72.8727748  23.9306648 155.5804156  74.8343515  17.1973932
 154.7441468  75.1718201  17.5183206 155.4408925  74.6992495  16.2601069
 150.4144845  77.7817707  22.3245600 150.2169245  77.1887067  21.5996667
 149.8591509  77.4769917  23.0421539 155.8248003  73.8636228  27.8191807
 156.4647383  73.7224988  27.1214771 154.9925534  73.5770742  27.4430409
 152.9091071  77.3081741  20.0086552 151.9788659  77.2466196  20.2256514
 153.0048543  76.7857693  19.2123194 152.8276620  73.8336553  22.5964794
 153.0883437  74.7481887  22.4873954 153.6493792  73.3660996  22.7461407
 154.3001545  75.2474311  29.7663619 154.9724599  75.0391673  29.1176267
 153.4731332  75.0496397  29.3268851 154.7029042  78.5216914  30.5266056
 154.5648840  77.7897152  31.1277595 155.6133966  78.4325814  30.2450243
 156.0440277  75.2202091  31.8345375 155.5077634  74.7692829  32.4866971
 155.4556985  75.3548000  31.0915839 154.3388821  91.9866140  25.7290033
 154.5785419  92.6184664  26.4069052 153.4958017  91.6354180  26.0155393
 146.9744676  79.4667902  24.4913346 147.6615716  79.1529632  23.9034361
 146.8192805  80.3709267  24.2180597 151.7779398  74.3558099  28.9198369
 151.6937587  73.7483768  28.1848779 150.9562105  74.8467117  28.9207866
 151.9594998  84.9762895  28.0426370 152.5448434  84.2306583  28.1754274
 151.7619836  85.2866852  28.9263033 154.8133653  88.0114143  23.0588812
 154.1444028  88.4960270  22.5752852 154.6746522  88.2583363  23.9732191
 146.5512652  77.5468495  26.7630813 146.5896752  77.0132086  27.5567931
 146.0452945  77.0203701  26.1441790 153.9303415  72.3933036  30.2593355
 153.9944741  73.2547867  29.8470753 153.8670535  71.7807037  29.5265714
 153.4055687  74.4656168  33.9066389 154.0327726  74.0833246  34.5203914
 152.5483606  74.2470370  34.2722082 150.1821230  76.2732597  19.8384744
 150.4774671  75.3643276  19.7851798 149.2809266  76.2520337  19.5165746
 153.7115477  74.3488594  25.8212293 152.9902063  74.9624562  25.6819766
 154.5008733  74.8846359  25.7428939 151.9109071  73.9546695  19.9624069
 151.5821778  73.0744074  19.7799175 152.2648442  73.8994364  20.8500459
 155.0250895  74.2419665  20.3299547 155.3646967  74.7705586  19.6078155
 155.4723015  74.5800071  21.1058114 155.8949386  76.4025149  26.0421917
 155.7493967  76.7165452  26.9346198 155.4174590  77.0210049  25.4892815
 150.3695048  78.9430493  28.9809578 149.8248516  79.7190301  29.1129852
 151.2474398  79.2901298  28.8228699 151.1561070  78.0700389  31.8739735
 150.4142806  78.2183025  32.4604365 150.8353814  78.3308655  31.0106484
 151.6017684  85.9565818  23.9050129 152.4275704  85.6569590  23.5248773
 151.2511736  85.1873441  24.3539918 149.8026289  83.8752145  24.8639063
 148.9658197  83.4474319  24.6823064 149.7749934  84.0684588  25.8009854
 153.8865357  79.8861387  20.4567332 153.6411399  78.9823717  20.6547543
 154.0561271  79.8878538  19.5146810 153.1561004  75.6189745  17.9553494
 152.4630249  75.6934100  17.2993530 152.9112756  74.8550089  18.4775011
 149.1175785  76.9361493  24.6487995 148.7978570  76.0826801  24.3562369
 148.5709214  77.1510071  25.4045962 152.8955693  79.6523934  28.3657502
 153.1141703  80.5841041  28.3845535 153.3081467  79.2931908  29.1512305
 148.9864045  80.5564404  26.6181117 148.2927517  80.1418357  26.1051071
 149.7337036  80.5984941  26.0214535 150.9000788  80.4882658  24.4947131
 150.8771476  80.5870345  23.5429015 151.2101424  81.3347809  24.8164298
 153.5588166  82.5458813  28.6093746 154.5131419  82.5142755  28.5423677
 153.3600689  82.0849437  29.4243972 154.1487548  81.1159929  31.1764544
 154.9680437  81.6104008  31.1999381 154.4224356  80.1991897  31.1482111
 151.9138395  88.0878432  25.6263944 151.7792862  87.3278833  25.0601942
 151.4970457  88.8119332  25.1592733 155.0707520  88.9847749  25.8382386
 154.9539905  89.9293182  25.7361077 154.2499967  88.6821311  26.2268186
 149.4022462  75.4498063  31.8756741 150.0481326  74.9397017  32.3643966
 149.1939613  76.1866745  32.4500166 153.7419953  72.5965680  35.9731755
 154.6051415  72.2402485  36.1835079 153.1685364  72.2579575  36.6607159
   5.1117944  76.5602313 130.9617886   5.8443116  75.9901530 131.1955716
   4.3557299  76.1723913 131.4024392   2.6343364  70.2723887 135.4212495
   2.3026689  71.1419298 135.1973710   2.0388977  69.9560171 136.1006525
   2.5272027  74.9918973 132.5005845   1.6188905  74.9234382 132.2064606
   2.4759623  75.4690918 133.3287670   4.3933674  73.1935411 134.2783719
   3.7508054  73.4867945 133.6323513   3.8888602  73.0788332 135.0836915
   2.0473837  76.9398585 124.9669578   2.9591694  77.1725971 124.7917276
   1.5383485  77.5235629 124.4044657   4.5332652  82.8578841 129.7127523
   3.8483690  83.2377742 129.1624557   4.6176501  83.4674168 130.4459471
   1.7883583  80.5038800 136.3122867   2.0000479  81.1470560 135.6357248
   1.7413332  79.6701117 135.8444797   2.9029411  83.3810755 134.4845224
   3.7246855  82.9790943 134.2027906   2.8991814  83.2778990 135.4361340
  10.9935404  79.7249504 130.8330196  10.2399113  79.1556902 130.6774200
  11.1282945  79.6912168 131.7800830   4.6711053  80.8634434 125.4809417
   3.8940496  80.5245593 125.0364579   5.3502534  80.8687057 124.8064382
   2.9102360  80.3368415 132.1376025   2.2526034  81.0267676 132.2256154
   3.7142759  80.7264847 132.4810011   1.7207818  78.6912788 130.1879967
   2.2339700  79.3242780 130.6901676   2.3709042  78.0913983 129.8223327
   2.4869615  83.6718789 128.3159109   2.0331942  82.8309699 128.3724300
   1.8563581  84.3080188 128.6533890   1.4302534  74.6010775 129.5459777
   0.6925291  74.0888161 129.8770019   1.6829308  74.1611157 128.7343054
   0.9302554  85.5095286 129.2508928   1.2225528  86.0700343 128.5321293
   1.4401174  85.8023847 130.0062087   1.5314162  67.3787027 130.1401546
   1.8373038  66.5184391 129.8527461   2.2566766  67.9704647 129.9400540
   5.0699550  79.8778140 127.9432339   4.9317448  80.0679736 127.0153528
   4.7135769  80.6397523 128.4000390   5.0968929  81.9454667 132.9543610
   5.5305436  81.8529957 133.8026665   5.8100510  81.9212168 132.3163626
   5.9584479  81.9878368 135.4876496   6.1520369  82.8924179 135.7335771
   5.8585097  81.5285787 136.3215081   1.0737663  80.4605325 121.4788078
   0.4566833  79.7352153 121.3821131   0.6054151  81.2214685 121.1355152
   2.7291794  85.1704233 139.1393858   2.6704340  84.4863454 138.4724441
   3.1311313  85.9123223 138.6874484   2.7309202  83.1343817 137.3707838
   1.8435980  82.7969739 137.4934237   3.3007753  82.4026849 137.6076603
   7.2126542  78.5452035 132.1324400   7.2016418  79.4276750 131.7618333
   6.3443922  78.1923586 131.9378937   3.8299117  77.4400676 128.5994566
   4.2959569  78.2728667 128.5254868   4.2806617  76.9745657 129.3039824
   1.8975348  83.7844497 125.5980718   2.1735192  83.6701092 126.5074592
   1.0279847  83.3861982 125.5592891   1.8015780  69.8081263 132.6385467
   0.8878859  70.0385490 132.8067674   2.2308881  69.8919707 133.4899499
   1.5722238  77.9971155 135.1385361   0.9193688  78.2447062 134.4837814
   1.9502618  77.1835293 134.8047838   1.5635890  85.7948889 134.4752246
   0.6166225  85.6754240 134.4030573   1.9118663  84.9071387 134.5578508
   2.1716445  86.4130164 131.7621471   3.0962992  86.2073025 131.6245923
   2.0031748  86.1646565 132.6710813   1.9611761  86.9315831 127.1183563
   2.1348638  86.3662254 126.3657415   2.4540652  87.7316726 126.9363053
   7.8151152  79.6952254 128.7373863   8.2582298  78.9459579 128.3392986
   6.9377662  79.6862390 128.3547595   2.9486933  86.2482596 124.2180461
   3.6437838  86.8689288 124.4367776   3.2910084  85.3977947 124.4932839
   4.8478357  83.6982301 125.7467792   5.3729681  84.0369574 125.0217112
   4.7600709  82.7629316 125.5630927   4.5372263  84.3315205 141.0518990
   3.7467806  84.3139344 140.5123489   4.3005617  84.8703498 141.8068026
   4.6570138  81.1807671 138.3651718   4.7068143  81.0157679 139.3067241
   4.5484061  80.3134930 137.9749599   1.9473900  77.1638599 139.6811025
   2.8483763  77.0245064 139.3895023   2.0221875  77.3293054 140.6209203
   6.1588334  83.6004613 138.6093740   5.8673143  83.9634593 139.4457201
   5.5460466  82.8871621 138.4307072   7.3584017  81.1657492 131.1296310
   8.1930908  81.6047296 131.2933871   7.4943146  80.6896146 130.3104556
   4.4075523  78.7237227 137.0773798   4.8829644  78.9164874 136.2692649
   3.4841088  78.7796413 136.8317182   3.1077192  75.6002987 135.3102104
   4.0594615  75.7001085 135.3314328   2.9380642  74.8081256 135.8200188
   1.1291571  72.6858571 135.4961504   0.5341503  72.9663583 134.8007993
   0.8441268  73.1752471 136.2678246   2.8887078  85.9547368 121.2168085
   2.8100710  85.6207231 122.1103842   3.7096745  86.4469136 121.2159557
   5.5865270  78.8209107 134.4244403   5.5541590  77.8825108 134.6104087
   6.1965893  78.8993144 133.6910228   5.7359758  75.6120150 134.4702686
   5.2198807  74.8278607 134.2832615   6.6199707  75.2838867 134.6349206
   3.3970485  69.3561166 130.4298499   3.1995306  69.0476254 131.3141831
   4.0070191  70.0822805 130.5596429  11.4041819  79.8825114 133.5650440
  12.1345208  79.6210402 134.1258143  10.7948765  79.1453836 133.6052508
   9.4857116  78.0232976 134.1624891   8.7590280  77.8888941 133.5541383
   9.0704403  78.3309805 134.9681609   2.5322939  71.3470598 127.6873695
   1.9521608  72.0055402 127.3051747   2.2658871  70.5247943 127.2761112
   0.9826505  70.7475656 129.8895015   1.4826283  70.8592190 129.0809334
   1.6262113  70.4436709 130.5295823   1.3147817  73.5070688 126.7430043
   0.4273672  73.7920339 126.5250238   1.7301806  73.3464452 125.8957320
   4.6662353  73.5317209 130.4584382   5.4422743  74.0213662 130.7308999
   3.9410487  73.9575264 130.9156252   7.1034911  74.2444829 131.5158323
   7.6979402  74.0040565 130.8051631   7.1761495  73.5251959 132.1431859
   1.2888840  79.0225224 126.9580333   1.2324042  79.4793776 126.1187965
   1.8417183  78.2615909 126.7803176   5.0993646  74.8114956 127.7830453
   4.8430581  74.4111592 128.6138660   4.4746514  75.5258750 127.6580592
   9.4105984  77.5511029 130.2901744   8.8505542  77.6204219 131.0633306
   8.8049488  77.3752014 129.5701240   2.3677728  83.7097892 122.8876523
   3.2023331  83.2779091 122.7053998   2.2062070  83.5379906 123.8153417
   2.0223620  80.2130006 124.2532862   1.9672423  80.0474277 123.3121306
   1.3969675  80.9206039 124.4095052  10.9962003  94.2267543 132.9831700
  11.6340413  94.1074291 132.2795040  10.8782846  95.1748387 133.0419652
   7.8051709  94.1794972 132.9193224   7.4670220  94.0636036 132.0313759
   8.6741477  93.7786137 132.8994230   3.6638525  96.0330448 128.9090115
   3.1003390  95.9420385 128.1406403   3.5490920  95.2130352 129.3892608
   8.2871492  95.3329823 138.8779430   8.2760133  94.9382622 138.0059934
   8.4492131  94.5995896 139.4713201   9.2438083  99.7001416 124.2204580
   8.5926063 100.2855496 123.8338594  10.0382446 100.2307611 124.2799618
   3.1693710  96.7890553 124.6191715   3.9424586  96.2419540 124.4804590
   3.5219109  97.6534802 124.8306176   5.9334960  95.4943784 134.4159974
   6.5298532  95.2699806 133.7016936   5.9909931  94.7528529 135.0185421
   5.5059988  92.9483219 122.2510164   5.7585509  92.4264740 121.4893627
   4.5684547  92.7849364 122.3536848  10.5503271  91.9518997 130.0584908
  11.3366360  91.5338420 129.7075325  10.8141975  92.8565089 130.2266556
  10.7213348  97.3891848 124.7573565  10.0859181  97.4626474 125.4694469
  10.3910755  97.9785446 124.0792644  15.9511698  91.8894230 130.9617886
  16.6836870  91.3193447 131.1955716  15.1951054  91.5015831 131.4024392
   5.2256277  94.8511325 124.4534539   5.1092535  94.1756228 125.1215624
   5.3358537  94.3643699 123.6366692   7.5687818  94.3121472 128.1581229
   7.2046025  93.7852093 128.8694150   8.4254934  93.9219941 127.9847714
  13.4737119  85.6015805 135.4212495  13.1420443  86.4711216 135.1973710
  12.8782732  85.2852089 136.1006525   7.2093305  89.3411372 123.1542577
   7.3767707  90.2091608 123.5213048   7.0190474  89.5038653 122.2303866
   9.9668638  97.8028351 134.8208408   9.6669361  98.7053389 134.7124215
   9.6219698  97.5360534 135.6729560   3.4181120  94.2542147 130.8545112
   2.4931616  94.1218362 131.0622804   3.6665533  95.0336367 131.3515054
  13.3665782  90.3210891 132.5005845  12.4582659  90.2526299 132.2064606
  13.3153378  90.7982836 133.3287670   7.1882526  91.7969029 124.1389244
   7.0682151  92.2426080 124.9774724   6.4935114  92.1454347 123.5802782
   4.9489418 104.5672671 127.7879375   4.8713448 105.5180496 127.8667856
   4.3451062 104.2218543 128.4454302  15.2327428  88.5227329 134.2783719
  14.5901809  88.8159862 133.6323513  14.7282357  88.4080249 135.0836915
  12.8867592  92.2690502 124.9669578  13.7985448  92.5017889 124.7917276
  12.3777239  92.8527547 124.4044657  11.1708360  96.6915130 138.6030871
  11.5791716  96.2497541 137.8585503  10.4485621  96.1167758 138.8565064
   7.5239430  91.6287737 135.9764428   8.3700625  92.0527150 136.1199077
   7.4638067  90.9721361 136.6702991  11.4937174  97.2516321 132.3583160
  10.8646037  97.4162035 131.6559227  11.1062836  97.6657930 133.1294124
  15.3726406  98.1870759 129.7127523  14.6877444  98.5669660 129.1624557
  15.4570255  98.7966085 130.4459471  10.6738875  89.2892105 137.6345601
  10.4299807  90.0434166 137.0979877  10.9498806  89.6677453 138.4692848
  12.6277338  95.8330718 136.3122867  12.8394233  96.4762478 135.6357248
  12.5807086  94.9993034 135.8444797  10.2303567  88.4448538 133.2159439
   9.3688046  88.7429792 133.5076177  10.2566001  88.6618937 132.2840472
   7.0465136  96.9890729 129.6233245   7.5103482  97.2678432 128.8337867
   6.7821934  96.0874173 129.4406335   3.9389217  96.5362210 132.5613008
   4.5090574  96.9649479 131.9230492   4.5297329  96.2544795 133.2597194
   5.9834022  93.1113881 126.4322810   6.6858066  93.5634925 126.8996736
   5.6514651  92.4697700 127.0602703  13.7423166  98.7102673 134.4845224
  14.5640609  98.3082860 134.2027906  13.7385569  98.6070907 135.4361340
   1.6774102  91.7342013 128.6923420   0.8805265  91.8460707 129.2106916
   1.4499694  92.0728665 127.8264311  21.8329159  95.0541422 130.8330196
  21.0792867  94.4848820 130.6774200  21.9676700  95.0204086 131.7800830
   7.2227787  99.9254824 126.5084915   7.0873462 100.7706360 126.9369763
   7.7637599 100.1274102 125.7450849   0.6757184  97.4430262 127.0812840
   1.1881705  98.2373512 127.2318405   1.3279897  96.7456552 127.0146442
   2.4852069 100.5596018 129.1635593   2.6618697 101.4813983 128.9756577
   3.2808902 100.2454437 129.5929973   6.6263087  87.4204283 140.7619527
   7.3672801  88.0211436 140.6823989   6.8581010  86.6781921 140.2037569
  10.5720250  83.4485386 135.0383808  10.2284520  84.3387027 134.9622919
  10.9399213  83.2587043 134.1753393  10.5370533  93.4393997 123.5456244
  10.0217157  94.2098602 123.7844631  10.2647842  92.7659133 124.1689305
   8.1217644  88.2843698 128.6041482   7.2659240  87.8950548 128.4247121
   8.5344596  88.3635658 127.7441267   9.6516791  85.8190041 133.0033042
   9.1481586  85.7820176 132.1900847   9.9447398  86.7282784 133.0629698
   5.8959677  85.9028771 132.0099223   6.7612673  85.7071579 131.6505113
   5.9637186  85.6739122 132.9368580  15.5104807  96.1926352 125.4809417
  14.7334250  95.8537511 125.0364579  16.1896288  96.1978975 124.8064382
  10.3256836  91.3121089 125.3716025  10.0206972  91.6267238 126.2226168
  11.2787278  91.3902509 125.4143358   8.7703268  97.4711312 127.0208979
   8.2424630  96.7364072 126.7082216   8.2690771  98.2485989 126.7748947
  13.7496114  95.6660333 132.1376025  13.0919789  96.3559594 132.2256154
  14.5536513  96.0556765 132.4810011   3.5021996  88.1330979 129.3815590
   4.0765748  87.9106160 128.6488783   4.0892978  88.2019673 130.1344192
  12.5601573  94.0204705 130.1879967  13.0733455  94.6534697 130.6901676
  13.2102797  93.4205901 129.8223327   3.8291583  90.1635440 123.4011475
   2.9928895  90.5010126 123.7220750   3.6896353  90.0284419 122.4638612
   5.8044663  85.0072227 128.1090660   5.1509076  84.6921245 127.4847274
   5.7625138  84.3847968 128.8350483   6.9155868  95.2891523 120.0243952
   6.0082930  95.0580776 120.2235101   7.4126900  94.4929142 120.2117933
   9.8223947 103.9989030 122.9440638   9.1485646 104.3020726 123.5525596
  10.2089769 104.8018110 122.5946095   9.0382404  91.4954161 132.4338307
   8.1204965  91.7169108 132.2759995   9.4542547  91.5700471 131.5750015
   9.8217452  92.8945577 127.5640988  10.5689271  93.4066974 127.2548110
  10.0909041  92.5729629 128.4245381   8.0944102  95.3904117 124.5467942
   7.1855321  95.1063150 124.6440412   8.1239186  95.8103196 123.6871249
  13.3263369  99.0010707 128.3159109  12.8725696  98.1601617 128.3724300
  12.6957336  99.6372105 128.6533890  12.2696289  89.9302693 129.5459777
  11.5319046  89.4180079 129.8770019  12.5223062  89.4903075 128.7343054
  11.7696308 100.8387204 129.2508928  12.0619283 101.3992261 128.5321293
  12.2794929 101.1315765 130.0062087  12.3707916  82.7078945 130.1401546
  12.6766793  81.8476308 129.8527461  13.0960521  83.2996565 129.9400540
   6.6428996  93.0032738 130.6477737   6.6977606  92.0506574 130.5720214
   5.8320198  93.1592177 131.1319036   7.7920190  96.9312861 121.8856020
   7.3539619  96.2148720 121.4261658   8.5330630  97.1588976 121.3241112
   4.5821356  91.6209798 128.4068116   3.7689221  91.9203968 128.8133308
   5.0780350  91.2265487 129.1242598   6.7329934 101.6167555 130.3402381
   6.6906112 101.8428401 129.4110913   7.6492632 101.3830929 130.4888182
  10.1795567  92.0851622 137.2383010  10.5344955  92.3123095 138.0977476
  10.8267699  92.4169999 136.6160265  15.9093304  95.2070058 127.9432339
  15.7711203  95.3971654 127.0153528  15.5529523  95.9689441 128.4000390
   4.0735430  89.1928153 134.0229351   4.7134810  89.0516912 133.3252314
   3.2412961  88.9062667 133.6467953  15.9362684  97.2746585 132.9543610
  16.3699191  97.1821874 133.8026665  16.6494265  97.2504086 132.3163626
   4.8495734  98.4930584 130.1364343   5.6436333  97.9980904 129.9346918
   4.1387427  97.9648447 129.7732049   9.6690579 100.8748679 134.4876711
   9.7227601 101.4439616 135.2554427   8.8005360 101.0450564 134.1230748
   1.0764047  89.1628478 128.8002338   1.3370864  90.0773812 128.6911498
   1.8981219  88.6952921 128.9498951   2.5488972  90.5766235 135.9701162
   3.2212026  90.3683598 135.3213811   1.7218759  90.3788321 135.5306395
  16.7978234  97.3170286 135.4876496  16.9914124  98.2216096 135.7335771
  16.6978852  96.8577705 136.3215081   8.4514544  87.2028176 137.9866823
   7.8042459  87.9018126 137.8931300   9.2215560  87.6364320 138.3543071
   8.6278679  95.0408941 136.0463643   9.5570739  95.1920101 135.8732610
   8.2069709  95.1292962 135.1912289   7.4267010  99.0659606 133.8162181
   7.2878096  98.6978390 134.6888119   6.6381607  99.5807245 133.6446138
   8.0215162 104.1668702 125.1587717   8.1966918 103.6956745 125.9733340
   7.3347950 104.7934468 125.3868978   8.9772226  98.4441208 131.2051018
   8.6422058  98.4041978 132.1008668   8.4776171  97.7785924 130.7321429
  11.9131417  95.7897243 121.4788078  11.2960588  95.0644071 121.3821131
  11.4447906  96.5506603 121.1355152   5.5798770  93.5628798 136.2187279
   6.2898389  92.9221990 136.1773898   5.5368078  93.8141693 137.1413460
  13.5685549 100.4996151 139.1393858  13.5098095  99.8155371 138.4724441
  13.9705067 101.2415141 138.6874484   4.2927704  90.5494016 138.0382919
   3.7565061  90.0984754 138.6904515   3.7044413  90.6839924 137.2953383
   3.7029963  90.0082667 120.6009382   2.8259429  89.8871468 120.2371629
   4.1787716  89.2168745 120.3488271  13.5702956  98.4635735 137.3707838
  12.6829735  98.1261657 137.4934237  14.1401507  97.7318766 137.6076603
   6.8893889 102.3608957 127.8471903   6.1061411 102.9030638 127.9410127
   7.5886634 102.8782937 128.2466144  10.1990539  88.1703587 130.4906108
  10.6959239  87.4173549 130.1707178   9.4277521  88.2067904 129.9249317
  18.0520297  93.8743952 132.1324400  18.0410173  94.7568668 131.7618333
  17.1837676  93.5215503 131.9378937  11.2820320  96.9275274 128.0644532
  10.3476599  97.0476737 127.8949236  11.4596988  96.0247741 127.8004541
   6.7825508  90.3120970 130.2177793   6.4123296  89.7592010 130.9058698
   7.2784600  89.7079103 129.6652793  14.6692871  92.7692593 128.5994566
  15.1353323  93.6020585 128.5254868  15.1200372  92.3037575 129.3039824
  12.7369102  99.1136415 125.5980718  13.0128946  98.9993009 126.5074592
  11.8673601  98.7153899 125.5592891  12.6409534  85.1373180 132.6385467
  11.7272614  85.3677407 132.8067674  13.0702635  85.2211624 133.4899499
  12.4115993  93.3263072 135.1385361  11.7587443  93.5738980 134.4837814
  12.7896372  92.5127210 134.8047838   9.3723166 103.3622765 129.2413531
   9.5545561 102.5444421 129.7041284  10.1956152 103.5790458 128.8038421
   9.7065332 102.2890951 126.5028580  10.2353098 101.7783405 125.8898742
   9.9693551 101.9733481 127.3674113   3.0621080 103.3406067 129.2626356
   2.3931455 103.8252195 128.7790396   2.9233950 103.5875288 130.1769734
   2.1790842  87.7224961 136.4630899   2.2432168  88.5839792 136.0508297
   2.1157962  87.1098962 135.7303257  10.3394736 103.3231786 132.8472696
  10.2145875 102.5221526 132.3383642  10.9973827 103.8177980 132.3586666
   1.9602904  89.6780519 132.0249837   1.2389490  90.2916487 131.8857310
   2.7496160  90.2138284 131.9466482  12.4029644 101.1240806 134.4752246
  11.4559980 101.0046158 134.4030573  12.7512417 100.2363304 134.5578508
   4.7629217  87.0134945 138.2990488   5.2863619  87.2597242 139.0616798
   4.5441551  87.8454980 137.8793626   9.4076077 100.9193523 130.6756599
   9.2601040  99.9910230 130.8564169  10.2329571 100.9413613 130.1913674
   3.2738322  89.5711590 126.5337091   3.6134394  90.0997511 125.8115699
   3.7210442  89.9091996 127.3095657  13.0110199 101.7422081 131.7621471
  13.9356747 101.5364943 131.6245923  12.8425503 101.4938483 132.6710813
   5.9681762  87.9548640 135.9840159   5.6278583  87.1556454 136.3860839
   5.2620769  88.2550351 135.4116992   6.6198234  85.0397953 134.4367482
   7.4424304  84.5658431 134.3146372   6.8636298  85.8188437 134.9366168
   5.2606469  88.0686211 124.7330384   5.9814831  88.4467464 124.2294100
   4.6371773  88.7875088 124.8365361   9.4037592  88.7731360 125.6688716
   9.6201206  89.6555998 125.3677544   8.9231659  88.3817574 124.9394358
   4.1436813  91.7317074 132.2459460   3.9981394  92.0457377 133.1383742
   3.6662017  92.3501974 131.6930359   6.0033196  88.7219622 132.2940350
   5.9894765  87.8260715 131.9572648   6.7205624  88.7290285 132.9278636
   7.8559327  89.1556962 134.3393477   7.5977104  90.0774032 134.3377808
   7.3244367  88.7587396 135.0293942  12.8005515 102.2607749 127.1183563
  12.9742393 101.6954171 126.3657415  13.2934407 103.0608644 126.9363053
   5.4070092  87.6034002 127.5627920   5.5286003  86.6750648 127.7618808
   5.1172134  87.6172688 126.6506236   8.2761282  85.2888912 130.6994640
   8.2982979  85.3528245 129.7446620   8.6929341  84.4493421 130.8935146
  18.6544907  95.0244172 128.7373863  19.0976053  94.2751497 128.3392986
  17.7771417  95.0154308 128.3547595  13.7880688 101.5774513 124.2180461
  14.4831593 102.1981206 124.4367776  14.1303838 100.7269864 124.4932839
  15.6872111  99.0274219 125.7467792  16.2123435  99.3661492 125.0217112
  15.5994464  98.0921234 125.5630927   7.3712772 105.0946202 130.1063045
   6.9317762 104.6022581 130.7995902   8.1220889 104.5519170 129.8655120
   4.8186644 100.6384211 132.1785347   4.1966653  99.9754916 131.8787575
   5.4891511 100.6645343 131.4958995  15.3766017  99.6607122 141.0518990
  14.5861561  99.6431261 140.5123489  15.1399372 100.1995416 141.8068026
  15.4963892  96.5099589 138.3651718  15.5461897  96.3449596 139.3067241
  15.3877815  95.6426848 137.9749599   4.3800151  99.1888134 125.6543807
   4.5288271  99.8723599 125.0010480   5.1866594  99.1693225 126.1693263
  12.7867655  92.4930517 139.6811025  13.6877517  92.3536982 139.3895023
  12.8615629  92.6584972 140.6209203   7.1210460  89.8697372 138.5264211
   6.2513769  90.1630938 138.2546800   7.3569940  90.4537817 139.2471475
  16.9982089  98.9296530 138.6093740  16.7066897  99.2926511 139.4457201
  16.3854220  98.2163539 138.4307072  18.1977771  96.4949410 131.1296310
  19.0324663  96.9339214 131.2933871  18.3336900  96.0188063 130.3104556
  15.2469277  94.0529145 137.0773798  15.7223399  94.2456791 136.2692649
  14.3234843  94.1088331 136.8317182   2.1352784  95.2153312 126.6604876
   1.8898826  94.3115642 126.8585086   2.3048698  95.2170463 125.7184354
   9.8249494  86.0876988 136.0429632  10.3431438  86.8238015 135.7176120
   9.4704626  86.3940982 136.8776391   1.4048431  90.9481670 124.1591038
   0.7117676  91.0226025 123.5031074   1.1600183  90.1842013 124.6812555
  10.0762088  82.5077271 131.5630528  10.3563842  81.8400460 132.1890955
  10.8612695  82.7006367 131.0505192   7.8795556 101.6836265 123.1255555
   7.3069523 102.3026452 122.6726027   8.4528350 102.2335627 123.6595477
  13.9470946  90.9294905 135.3102104  14.8988369  91.0293003 135.3314328
  13.7774397  90.1373174 135.8200188  11.9685326  88.0150488 135.4961504
  11.3735258  88.2955501 134.8007993  11.6835022  88.5044389 136.2678246
  11.0992816 101.9673415 124.2564137  12.0323489 101.9018977 124.4597012
  11.0116029 102.8029682 123.7978670  13.7280833 101.2839285 121.2168085
  13.6494464 100.9499149 122.1103842  14.5490500 101.7761053 121.2159557
  16.4259024  94.1501025 134.4244403  16.3935344  93.2117025 134.6104087
  17.0359648  94.2285061 133.6910228   8.2642355  93.0197078 120.4671607
   9.2101460  92.8903286 120.5360025   7.8856600  92.2811740 120.9441035
  16.5753512  90.9412068 134.4702686  16.0592561  90.1570525 134.2832615
  17.4593461  90.6130785 134.6349206  14.2364239  84.6853084 130.4298499
  14.0389061  84.3768172 131.3141831  14.8463945  85.4114723 130.5596429
  22.2435574  95.2117032 133.5650440  22.9738962  94.9502320 134.1258143
  21.6342519  94.4745753 133.6052508  20.3250871  93.3524894 134.1624891
  19.5984035  93.2180859 133.5541383  19.9098158  93.6601723 134.9681609
   6.4485272  90.9447054 120.4026492   5.5416727  90.6480167 120.4789206
   6.7261253  90.6476872 119.5360779   8.0647338  85.4883944 126.5570734
   7.2548066  85.1431029 126.9325980   8.7531755  85.1791487 127.1458345
   9.9937886  84.5661991 128.1795030  10.5468925  84.9857444 128.8385053
  10.2307972  83.6397739 128.2217986   5.2184057  87.8033989 120.5438472
   6.0803221  88.1288888 120.8034289   5.4034401  87.0165485 120.0311537
  13.3716693  86.6762516 127.6873695  12.7915362  87.3347320 127.3051747
  13.1052626  85.8539860 127.2761112  11.8220259  86.0767573 129.8895015
  12.3220038  86.1884108 129.0809334  12.4655867  85.7728626 130.5295823
  12.1541571  88.8362606 126.7430043  11.2667426  89.1212257 126.5250238
  12.5695560  88.6756369 125.8957320  15.5056107  88.8609127 130.4584382
  16.2816497  89.3505580 130.7308999  14.7804241  89.2867181 130.9156252
  17.9428666  89.5736746 131.5158323  18.5373157  89.3332482 130.8051631
  18.0155250  88.8543877 132.1431859  11.2984785  98.6007281 120.8378063
  12.0020635  98.8057283 121.4535718  10.5747433  99.1684043 121.1027146
  12.1282595  94.3517142 126.9580333  12.0717796  94.8085693 126.1187965
  12.6810937  93.5907827 126.7803176  15.9387401  90.1406874 127.7830453
  15.6824335  89.7403510 128.6138660  15.3140269  90.8550668 127.6580592
  20.2499739  92.8802947 130.2901744  19.6899297  92.9496136 131.0633306
  19.6443242  92.7043932 129.5701240  13.2071482  99.0389810 122.8876523
  14.0417086  98.6071008 122.7053998  13.0455825  98.8671824 123.8153417
  12.8617374  95.5421923 124.2532862  12.8066178  95.3766195 123.3121306
  12.2363429  96.2497956 124.4095052   6.1713500  85.0430032 123.8318181
   6.1592169  85.9871872 123.9886451   7.0636922  84.8600178 123.5377642
   6.1003064 103.7198923 131.9185937   5.1498695 103.7200784 131.8050310
   6.4035550 102.9731657 131.4021972   9.9865619  81.6372809 128.0864117
   9.2198015  81.0831296 128.2320800  10.3976324  81.7094678 128.9478269
  21.8355757 109.5559461 132.9831700  22.4734167 109.4366208 132.2795040
  21.7176600 110.5040305 133.0419652  18.6445463 109.5086889 132.9193224
  18.3063975 109.3927954 132.0313759  19.5135232 109.1078054 132.8994230
  14.5032279 111.3622366 128.9090115  13.9397144 111.2712303 128.1406403
  14.3884674 110.5422270 129.3892608  19.1265246 110.6621741 138.8779430
  19.1153887 110.2674539 138.0059934  19.2885886 109.9287814 139.4713201
  20.0831838 115.0293333 124.2204580  19.4319818 115.6147414 123.8338594
  20.8776201 115.5599528 124.2799618  14.0087465 112.1182470 124.6191715
  14.7818341 111.5711458 124.4804590  14.3612864 112.9826720 124.8306176
  16.7728714 110.8235701 134.4159974  17.3692287 110.5991724 133.7016936
  16.8303686 110.0820447 135.0185421  16.3453743 108.2775137 122.2510164
  16.5979263 107.7556658 121.4893627  15.4078302 108.1141282 122.3536848
  21.3897026 107.2810915 130.0584908  22.1760115 106.8630338 129.7075325
  21.6535730 108.1857007 130.2266556  21.5607103 112.7183765 124.7573565
  20.9252936 112.7918392 125.4694469  21.2304509 113.3077364 124.0792644
  26.7905453 107.2186148 130.9617886  27.5230625 106.6485365 131.1955716
  26.0344808 106.8307749 131.4024392  16.0650032 110.1803243 124.4534539
  15.9486290 109.5048146 125.1215624  16.1752291 109.6935616 123.6366692
  18.4081572 109.6413390 128.1581229  18.0439780 109.1144011 128.8694150
  19.2648688 109.2511859 127.9847714  24.3130873 100.9307722 135.4212495
  23.9814198 101.8003133 135.1973710  23.7176486 100.6144006 136.1006525
  18.0487059 104.6703289 123.1542577  18.2161462 105.5383526 123.5213048
  17.8584228 104.8330571 122.2303866  20.8062393 113.1320268 134.8208408
  20.5063116 114.0345307 134.7124215  20.4613452 112.8652451 135.6729560
  14.2574874 109.5834065 130.8545112  13.3325371 109.4510279 131.0622804
  14.5059287 110.3628284 131.3515054  24.2059536 105.6502808 132.5005845
  23.2976414 105.5818217 132.2064606  24.1547132 106.1274753 133.3287670
  18.0276280 107.1260947 124.1389244  17.9075905 107.5717998 124.9774724
  17.3328869 107.4746265 123.5802782  11.6183685 109.2267339 131.6888901
  11.7476066 109.4801818 132.6028313  10.9381136 109.8195047 131.3693556
  15.7883172 119.8964589 127.7879375  15.7107202 120.8472414 127.8667856
  15.1844816 119.5510461 128.4454302  26.0721183 103.8519247 134.2783719
  25.4295563 104.1451780 133.6323513  25.5676111 103.7372167 135.0836915
  23.7261346 107.5982420 124.9669578  24.6379203 107.8309807 124.7917276
  23.2170994 108.1819464 124.4044657  22.0102114 112.0207048 138.6030871
  22.4185470 111.5789458 137.8585503  21.2879376 111.4459675 138.8565064
  18.3633184 106.9579655 135.9764428  19.2094379 107.3819068 136.1199077
  18.3031822 106.3013279 136.6702991  22.3330929 112.5808238 132.3583160
  21.7039791 112.7453953 131.6559227  21.9456591 112.9949848 133.1294124
  26.2120161 113.5162676 129.7127523  25.5271199 113.8961578 129.1624557
  26.2964010 114.1258003 130.4459471  21.5132629 104.6184023 137.6345601
  21.2693561 105.3726084 137.0979877  21.7892560 104.9969371 138.4692848
  23.4671092 111.1622635 136.3122867  23.6787988 111.8054395 135.6357248
  23.4200841 110.3284952 135.8444797  21.0697321 103.7740456 133.2159439
  20.2081800 104.0721710 133.5076177  21.0959756 103.9910855 132.2840472
  17.8858891 112.3182647 129.6233245  18.3497236 112.5970350 128.8337867
  17.6215689 111.4166091 129.4406335  14.7782972 111.8654128 132.5613008
  15.3484329 112.2941396 131.9230492  15.3691084 111.5836713 133.2597194
  16.8227777 108.4405799 126.4322810  17.5251820 108.8926843 126.8996736
  16.4908405 107.7989618 127.0602703  10.5653111 106.6989352 131.7339943
   9.7752165 106.9546880 131.2580054  11.0564358 107.5137689 131.8391984
  24.5816920 114.0394591 134.4845224  25.4034364 113.6374778 134.2027906
  24.5779323 113.9362825 135.4361340  12.5167856 107.0633931 128.6923420
  11.7199019 107.1752625 129.2106916  12.2893448 107.4020583 127.8264311
  32.6722913 110.3833339 130.8330196  31.9186622 109.8140737 130.6774200
  32.8070454 110.3496004 131.7800830  18.0621541 115.2546742 126.5084915
  17.9267216 116.0998277 126.9369763  18.6031354 115.4566019 125.7450849
  11.5150939 112.7722180 127.0812840  12.0275459 113.5665430 127.2318405
  12.1673652 112.0748470 127.0146442  13.3245823 115.8887936 129.1635593
  13.5012452 116.8105901 128.9756577  14.1202657 115.5746355 129.5929973
  17.4656842 102.7496200 140.7619527  18.2066555 103.3503354 140.6823989
  17.6974765 102.0073838 140.2037569  21.4114005  98.7777303 135.0383808
  21.0678274  99.6678945 134.9622919  21.7792967  98.5878961 134.1753393
   9.4799855 111.1010834 127.8572411  10.3175077 111.5107842 127.6406118
   9.6578123 110.1610276 127.8272604  21.3764288 108.7685915 123.5456244
  20.8610911 109.5390519 123.7844631  21.1041596 108.0951051 124.1689305
  18.9611399 103.6135615 128.6041482  18.1052995 103.2242466 128.4247121
  19.3738350 103.6927576 127.7441267  20.4910545 101.1481959 133.0033042
  19.9875341 101.1112094 132.1900847  20.7841152 102.0574701 133.0629698
  16.7353431 101.2320688 132.0099223  17.6006428 101.0363497 131.6505113
  16.8030940 101.0031040 132.9368580  26.3498562 111.5218269 125.4809417
  25.5728005 111.1829429 125.0364579  27.0290043 111.5270892 124.8064382
  21.1650591 106.6413007 125.3716025  20.8600726 106.9559156 126.2226168
  22.1181033 106.7194427 125.4143358  19.6097023 112.8003230 127.0208979
  19.0818384 112.0655990 126.7082216  19.1084525 113.5777906 126.7748947
  24.5889869 110.9952250 132.1376025  23.9313543 111.6851512 132.2256154
  25.3930268 111.3848682 132.4810011  14.3415750 103.4622896 129.3815590
  14.9159502 103.2398078 128.6488783  14.9286733 103.5311591 130.1344192
  23.3995327 109.3496623 130.1879967  23.9127209 109.9826615 130.6901676
  24.0496551 108.7497819 129.8223327  14.6685337 105.4927357 123.4011475
  13.8322650 105.8302044 123.7220750  14.5290107 105.3576337 122.4638612
  16.6438418 100.3364145 128.1090660  15.9902830 100.0213162 127.4847274
  16.6018892  99.7139886 128.8350483  17.7549623 110.6183440 120.0243952
  16.8476685 110.3872694 120.2235101  18.2520655 109.8221059 120.2117933
  20.6617702 119.3280947 122.9440638  19.9879400 119.6312644 123.5525596
  21.0483524 120.1310028 122.5946095  19.8776158 106.8246079 132.4338307
  18.9598720 107.0461026 132.2759995  20.2936302 106.8992389 131.5750015
  20.6611206 108.2237494 127.5640988  21.4083025 108.7358892 127.2548110
  20.9302796 107.9021547 128.4245381  18.9337856 110.7196035 124.5467942
  18.0249076 110.4355068 124.6440412  18.9632940 111.1395114 123.6871249
  24.1657124 114.3302625 128.3159109  23.7119451 113.4893534 128.3724300
  23.5351090 114.9664023 128.6533890  23.1090043 105.2594611 129.5459777
  22.3712800 104.7471997 129.8770019  23.3616817 104.8194992 128.7343054
  22.6090063 116.1679121 129.2508928  22.9013037 116.7284178 128.5321293
  23.1188683 116.4607682 130.0062087  23.2101671  98.0370863 130.1401546
  23.5160547  97.1768226 129.8527461  23.9354275  98.6288483 129.9400540
   9.5026027 108.4401549 128.5283144   9.3050426 107.8470910 127.8034211
   8.9472691 108.1353759 129.2459083  17.4822750 108.3324656 130.6477737
  17.5371360 107.3798492 130.5720214  16.6713952 108.4884095 131.1319036
  18.6313944 112.2604779 121.8856020  18.1933374 111.5440638 121.4261658
  19.3724385 112.4880894 121.3241112  15.4215110 106.9501715 128.4068116
  14.6082976 107.2495886 128.8133308  15.9174104 106.5557404 129.1242598
  17.5723688 116.9459472 130.3402381  17.5299867 117.1720319 129.4110913
  18.4886387 116.7122847 130.4888182  21.0189322 107.4143540 137.2383010
  21.3738710 107.6415013 138.0977476  21.6661453 107.7461917 136.6160265
  26.7487059 110.5361976 127.9432339  26.6104957 110.7263572 127.0153528
  26.3923278 111.2981359 128.4000390  14.9129185 104.5220071 134.0229351
  15.5528564 104.3808830 133.3252314  14.0806716 104.2354584 133.6467953
  26.7756438 112.6038503 132.9543610  27.2092945 112.5113792 133.8026665
  27.4888019 112.5796003 132.3163626  15.6889489 113.8222501 130.1364343
  16.4830087 113.3272822 129.9346918  14.9781181 113.2940365 129.7732049
  20.5084333 116.2040597 134.4876711  20.5621356 116.7731533 135.2554427
  19.6399115 116.3742482 134.1230748  11.9972252 107.9665583 126.2124096
  11.0669840 107.9050039 126.4294058  12.0929724 107.4441536 125.4160737
  11.9157801 104.4920396 128.8002338  12.1764619 105.4065729 128.6911498
  12.7374974 104.0244839 128.9498951  13.3882727 105.9058153 135.9701162
  14.0605780 105.6975515 135.3213811  12.5612513 105.7080239 135.5306395
  27.6371988 112.6462203 135.4876496  27.8307878 113.5508014 135.7335771
  27.5372606 112.1869623 136.3215081  19.2908299 102.5320094 137.9866823
  18.6436214 103.2310044 137.8931300  20.0609314 102.9656238 138.3543071
  19.4672433 110.3700859 136.0463643  20.3964493 110.5212019 135.8732610
  19.0463463 110.4584880 135.1912289  18.2660765 114.3951523 133.8162181
  18.1271851 114.0270308 134.6888119  17.4775361 114.9099163 133.6446138
  18.8608917 119.4960620 125.1587717  19.0360673 119.0248663 125.9733340
  18.1741705 120.1226386 125.3868978  19.8165980 113.7733126 131.2051018
  19.4815813 113.7333896 132.1008668  19.3169926 113.1077842 130.7321429
  22.7525172 111.1189160 121.4788078  22.1354342 110.3935989 121.3821131
  22.2841660 111.8798521 121.1355152  16.4192525 108.8920715 136.2187279
  17.1292143 108.2513908 136.1773898  16.3761833 109.1433610 137.1413460
  24.4079303 115.8288069 139.1393858  24.3491849 115.1447289 138.4724441
  24.8098822 116.5707059 138.6874484  15.1321459 105.8785933 138.0382919
  14.5958816 105.4276672 138.6904515  14.5438167 106.0131842 137.2953383
  14.5423718 105.3374585 120.6009382  13.6653184 105.2163385 120.2371629
  15.0181471 104.5460663 120.3488271  24.4096711 113.7927653 137.3707838
  23.5223489 113.4553574 137.4934237  24.9795262 113.0610684 137.6076603
  17.7287644 117.6900875 127.8471903  16.9455165 118.2322555 127.9410127
  18.4280389 118.2074855 128.2466144  21.0384294 103.4995505 130.4906108
  21.5352993 102.7465467 130.1707178  20.2671275 103.5359821 129.9249317
  28.8914051 109.2035870 132.1324400  28.8803927 110.0860585 131.7618333
  28.0231431 108.8507421 131.9378937  22.1214074 112.2567192 128.0644532
  21.1870353 112.3768654 127.8949236  22.2990743 111.3539659 127.8004541
  17.6219262 105.6412888 130.2177793  17.2517050 105.0883928 130.9058698
  18.1178355 105.0371021 129.6652793  25.5086626 108.0984511 128.5994566
  25.9747078 108.9312503 128.5254868  25.9594126 107.6329493 129.3039824
  23.5762857 114.4428332 125.5980718  23.8522701 114.3284927 126.5074592
  22.7067356 114.0445817 125.5592891  23.4803289 100.4665098 132.6385467
  22.5666368 100.6969325 132.8067674  23.9096390 100.5503542 133.4899499
  23.2509747 108.6554990 135.1385361  22.5981197 108.9030897 134.4837814
  23.6290127 107.8419128 134.8047838  20.2116921 118.6914683 129.2413531
  20.3939315 117.8736339 129.7041284  21.0349907 118.9082375 128.8038421
  20.5459086 117.6182868 126.5028580  21.0746853 117.1075323 125.8898742
  20.8087306 117.3025399 127.3674113  13.9014834 118.6697985 129.2626356
  13.2325210 119.1544113 128.7790396  13.7627704 118.9167205 130.1769734
  13.0184596 103.0516878 136.4630899  13.0825923 103.9131709 136.0508297
  12.9551716 102.4390880 135.7303257   9.2702411 106.9316440 126.0422288
   9.5655852 106.0227118 125.9889342   8.3690447 106.9104179 125.7203290
  21.1788490 118.6523704 132.8472696  21.0539630 117.8513444 132.3383642
  21.8367581 119.1469897 132.3586666  12.7996658 105.0072437 132.0249837
  12.0783244 105.6208404 131.8857310  13.5889914 105.5430201 131.9466482
  23.2423399 116.4532724 134.4752246  22.2953734 116.3338075 134.4030573
  23.5906172 115.5655222 134.5578508  15.6022972 102.3426863 138.2990488
  16.1257374 102.5889160 139.0616798  15.3835305 103.1746898 137.8793626
  10.9990253 104.6130538 126.1661613  10.6702959 103.7327917 125.9836719
  11.3529624 104.5578206 127.0538002  20.2469832 116.2485440 130.6756599
  20.0994794 115.3202148 130.8564169  21.0723325 116.2705531 130.1913674
  14.1132076 104.9003507 126.5337091  14.4528149 105.4289429 125.8115699
  14.5604197 105.2383914 127.3095657  23.8503954 117.0713999 131.7621471
  24.7750501 116.8656860 131.6245923  23.6819257 116.8230400 132.6710813
  16.8075517 103.2840558 135.9840159  16.4672337 102.4848371 136.3860839
  16.1014523 103.5842269 135.4116992  17.4591989 100.3689871 134.4367482
  18.2818058  99.8950349 134.3146372  17.7030052 101.1480354 134.9366168
  16.1000223 103.3978129 124.7330384  16.8208586 103.7759382 124.2294100
  15.4765527 104.1167006 124.8365361  20.2431346 104.1023278 125.6688716
  20.4594961 104.9847916 125.3677544  19.7625413 103.7109491 124.9394358
  14.9830568 107.0608991 132.2459460  14.8375148 107.3749294 133.1383742
  14.5055771 107.6793892 131.6930359  16.8426950 104.0511539 132.2940350
  16.8288519 103.1552632 131.9572648  17.5599379 104.0582203 132.9278636
  18.6953081 104.4848879 134.3393477  18.4370859 105.4065950 134.3377808
  18.1638122 104.0879314 135.0293942  23.6399270 117.5899666 127.1183563
  23.8136147 117.0246089 126.3657415  24.1328161 118.3900561 126.9363053
  16.2463846 102.9325919 127.5627920  16.3679758 102.0042566 127.7618808
  15.9565889 102.9464605 126.6506236  19.1155037 100.6180830 130.6994640
  19.1376734 100.6820163 129.7446620  19.5323096  99.7785339 130.8935146
  29.4938661 110.3536089 128.7373863  29.9369807 109.6043415 128.3392986
  28.6165171 110.3446226 128.3547595  24.6274442 116.9066431 124.2180461
  25.3225347 117.5273124 124.4367776  24.9697593 116.0561782 124.4932839
  26.5265866 114.3566136 125.7467792  27.0517190 114.6953409 125.0217112
  26.4388218 113.4213152 125.5630927  18.2106526 120.4238120 130.1063045
  17.7711517 119.9314498 130.7995902  18.9614643 119.8811087 129.8655120
  15.6580398 115.9676129 132.1785347  15.0360408 115.3046834 131.8787575
  16.3285265 115.9937261 131.4958995  26.2159772 114.9899040 141.0518990
  25.4255315 114.9723179 140.5123489  25.9793126 115.5287334 141.8068026
  26.3357647 111.8391506 138.3651718  26.3855652 111.6741514 139.3067241
  26.2271570 110.9718765 137.9749599  15.2193905 114.5180052 125.6543807
  15.3682026 115.2015517 125.0010480  16.0260349 114.4985142 126.1693263
  23.6261409 107.8222434 139.6811025  24.5271272 107.6828899 139.3895023
  23.7009384 107.9876889 140.6209203  17.9604214 105.1989289 138.5264211
  17.0907524 105.4922855 138.2546800  18.1963695 105.7829734 139.2471475
  27.8375843 114.2588448 138.6093740  27.5460652 114.6218429 139.4457201
  27.2247975 113.5455456 138.4307072  29.0371526 111.8241328 131.1296310
  29.8718417 112.2631132 131.2933871  29.1730655 111.3479981 130.3104556
  26.0863032 109.3821063 137.0773798  26.5617153 109.5748709 136.2692649
  25.1628597 109.4380248 136.8317182  12.9746538 110.5445230 126.6604876
  12.7292580 109.6407560 126.8585086  13.1442453 110.5462380 125.7184354
  20.6643248 101.4168906 136.0429632  21.1825192 102.1529933 135.7176120
  20.3098381 101.7232899 136.8776391  12.2442186 106.2773587 124.1591038
  11.5511431 106.3517942 123.5031074  11.9993938 105.5133931 124.6812555
  20.9155842  97.8369189 131.5630528  21.1957596  97.1692378 132.1890955
  21.7006449  98.0298284 131.0505192  18.7189311 117.0128183 123.1255555
  18.1463278 117.6318370 122.6726027  19.2922105 117.5627544 123.6595477
  24.7864701 106.2586823 135.3102104  25.7382124 106.3584920 135.3314328
  24.6168151 105.4665091 135.8200188  22.8079080 103.3442406 135.4961504
  22.2129012 103.6247419 134.8007993  22.5228777 103.8336307 136.2678246
  21.9386571 117.2965333 124.2564137  22.8717244 117.2310894 124.4597012
  21.8509783 118.1321600 123.7978670  24.5674587 116.6131203 121.2168085
  24.4888219 116.2791067 122.1103842  25.3884254 117.1052971 121.2159557
  27.2652778 109.4792942 134.4244403  27.2329099 108.5408943 134.6104087
  27.8753402 109.5576979 133.6910228  19.1036109 108.3488995 120.4671607
  20.0495214 108.2195203 120.5360025  18.7250354 107.6103657 120.9441035
  27.4147267 106.2703986 134.4702686  26.8986316 105.4862442 134.2832615
  28.2987216 105.9422702 134.6349206  25.0757994 100.0145001 130.4298499
  24.8782815  99.7060090 131.3141831  25.6857699 100.7406640 130.5596429
  33.0829328 110.5408949 133.5650440  33.8132717 110.2794237 134.1258143
  32.4736274 109.8037671 133.6052508  31.1644625 108.6816812 134.1624891
  30.4377789 108.5472777 133.5541383  30.7491912 108.9893640 134.9681609
  17.2879027 106.2738972 120.4026492  16.3810482 105.9772084 120.4789206
  17.5655008 105.9768790 119.5360779   8.2056967 107.5945335 130.8525539
   7.8859751 106.7410643 130.5599913   7.6590395 107.8093913 131.6083506
  18.9041092 100.8175861 126.5570734  18.0941821 100.4722946 126.9325980
  19.5925509 100.5083405 127.1458345  20.8331641  99.8953908 128.1795030
  21.3862679 100.3149362 128.8385053  21.0701727  98.9689656 128.2217986
  16.0577811 103.1325907 120.5438472  16.9196975 103.4580805 120.8034289
  16.2428155 102.3457403 120.0311537  24.2110448 102.0054433 127.6873695
  23.6309117 102.6639237 127.3051747  23.9446380 101.1831778 127.2761112
  22.6614014 101.4059491 129.8895015  23.1613792 101.5176026 129.0809334
  23.3049622 101.1020544 130.5295823   9.9881969 111.1466500 130.6984675
   9.9652658 111.2454188 129.7466558  10.2982606 111.9931651 131.0201841
  22.9935326 104.1654524 126.7430043  22.1061181 104.4504174 126.5250238
  23.4089315 104.0048287 125.8957320  26.3449862 104.1901045 130.4584382
  27.1210252 104.6797497 130.7308999  25.6197996 104.6159099 130.9156252
  28.7822420 104.9028664 131.5158323  29.3766911 104.6624400 130.8051631
  28.8549004 104.1835795 132.1431859  22.1378539 113.9299198 120.8378063
  22.8414389 114.1349201 121.4535718  21.4141188 114.4975960 121.1027146
  22.9676349 109.6809060 126.9580333  22.9111551 110.1377611 126.1187965
  23.5204692 108.9199744 126.7803176  26.7781155 105.4698792 127.7830453
  26.5218090 105.0695427 128.6138660  26.1534023 106.1842586 127.6580592
  31.0893493 108.2094865 130.2901744  30.5293051 108.2788054 131.0633306
  30.4836997 108.0335849 129.5701240  24.0465237 114.3681728 122.8876523
  24.8810840 113.9362926 122.7053998  23.8849579 114.1963741 123.8153417
  23.7011129 110.8713841 124.2532862  23.6459932 110.7058112 123.3121306
  23.0757184 111.5789874 124.4095052  17.0107254 100.3721950 123.8318181
  16.9985924 101.3163790 123.9886451  17.9030676 100.1892095 123.5377642
  16.9396818 119.0490840 131.9185937  15.9892449 119.0492702 131.8050310
  17.2429304 118.3023575 131.4021972  20.8259374  96.9664727 128.0864117
  20.0591769  96.4123213 128.2320800  21.2370079  97.0386595 128.9478269
  32.6749512 124.8851379 132.9831700  33.3127922 124.7658126 132.2795040
  32.5570354 125.8332223 133.0419652  29.4839218 124.8378807 132.9193224
  29.1457729 124.7219872 132.0313759  30.3528986 124.4369972 132.8994230
  25.3426034 126.6914283 128.9090115  24.7790899 126.6004220 128.1406403
  25.2278429 125.8714188 129.3892608  29.9659001 125.9913659 138.8779430
  29.9547642 125.5966457 138.0059934  30.1279640 125.2579731 139.4713201
  30.9225592 130.3585251 124.2204580  30.2713572 130.9439331 123.8338594
  31.7169955 130.8891446 124.2799618  24.8481219 127.4474388 124.6191715
  25.6212095 126.9003375 124.4804590  25.2006618 128.3118637 124.8306176
  27.6122469 126.1527619 134.4159974  28.2086041 125.9283641 133.7016936
  27.6697440 125.4112364 135.0185421  27.1847497 123.6067054 122.2510164
  27.4373018 123.0848576 121.4893627  26.2472056 123.4433200 122.3536848
  32.2290780 122.6102833 130.0584908  33.0153869 122.1922256 129.7075325
  32.4929484 123.5148925 130.2266556  32.4000857 128.0475683 124.7573565
  31.7646690 128.1210309 125.4694469  32.0698264 128.6369282 124.0792644
  37.6299207 122.5478066 130.9617886  38.3624379 121.9777283 131.1955716
  36.8738563 122.1599666 131.4024392  26.9043786 125.5095160 124.4534539
  26.7880044 124.8340064 125.1215624  27.0146046 125.0227534 123.6366692
  29.2475327 124.9705307 128.1581229  28.8833534 124.4435928 128.8694150
  30.1042443 124.5803776 127.9847714  35.1524628 116.2599640 135.4212495
  34.8207952 117.1295051 135.1973710  34.5570241 115.9435924 136.1006525
  28.8880814 119.9995207 123.1542577  29.0555216 120.8675443 123.5213048
  28.6977983 120.1622489 122.2303866  31.6456147 128.4612186 134.8208408
  31.3456870 129.3637225 134.7124215  31.3007207 128.1944369 135.6729560
  25.0968629 124.9125983 130.8545112  24.1719125 124.7802197 131.0622804
  25.3453042 125.6920202 131.3515054  35.0453291 120.9794726 132.5005845
  34.1370168 120.9110135 132.2064606  34.9940887 121.4566671 133.3287670
  28.8670035 122.4552865 124.1389244  28.7469660 122.9009915 124.9774724
  28.1722623 122.8038182 123.5802782  22.4577440 124.5559256 131.6888901
  22.5869821 124.8093735 132.6028313  21.7774891 125.1486964 131.3693556
  26.6276927 135.2256506 127.7879375  26.5500957 136.1764331 127.8667856
  26.0238570 134.8802379 128.4454302  36.9114937 119.1811165 134.2783719
  36.2689318 119.4743698 133.6323513  36.4069866 119.0664085 135.0836915
  34.5655101 122.9274338 124.9669578  35.4772957 123.1601724 124.7917276
  34.0564748 123.5111382 124.4044657  32.8495869 127.3498966 138.6030871
  33.2579225 126.9081376 137.8585503  32.1273130 126.7751593 138.8565064
  29.2026939 122.2871572 135.9764428  30.0488134 122.7110986 136.1199077
  29.1425576 121.6305197 136.6702991  33.1724683 127.9100156 132.3583160
  32.5433546 128.0745870 131.6559227  32.7850345 128.3241766 133.1294124
  37.0513915 128.8454594 129.7127523  36.3664953 129.2253495 129.1624557
  37.1357764 129.4549921 130.4459471  32.3526384 119.9475941 137.6345601
  32.1087316 120.7018001 137.0979877  32.6286314 120.3261288 138.4692848
  34.3064847 126.4914553 136.3122867  34.5181742 127.1346313 135.6357248
  34.2594595 125.6576870 135.8444797  31.9091076 119.1032374 133.2159439
  31.0475555 119.4013627 133.5076177  31.9353510 119.3202773 132.2840472
  28.7252645 127.6474564 129.6233245  29.1890991 127.9262267 128.8337867
  28.4609443 126.7458009 129.4406335  25.6176726 127.1946046 132.5613008
  26.1878083 127.6233314 131.9230492  26.2084838 126.9128630 133.2597194
  27.6621531 123.7697717 126.4322810  28.3645575 124.2218760 126.8996736
  27.3302160 123.1281535 127.0602703  21.4046865 122.0281269 131.7339943
  20.6145919 122.2838798 131.2580054  21.8958113 122.8429607 131.8391984
  35.4210675 129.3686508 134.4845224  36.2428118 128.9666696 134.2027906
  35.4173078 129.2654743 135.4361340  23.3561611 122.3925849 128.6923420
  22.5592774 122.5044543 129.2106916  23.1287203 122.7312501 127.8264311
  43.5116668 125.7125257 130.8330196  42.7580376 125.1432655 130.6774200
  43.6464209 125.6787921 131.7800830  28.9015296 130.5838659 126.5084915
  28.7660971 131.4290195 126.9369763  29.4425108 130.7857937 125.7450849
  22.3544693 128.1014097 127.0812840  22.8669214 128.8957348 127.2318405
  23.0067406 127.4040388 127.0146442  24.1639578 131.2179854 129.1635593
  24.3406206 132.1397818 128.9756577  24.9596411 130.9038273 129.5929973
  28.3050596 118.0788118 140.7619527  29.0460310 118.6795271 140.6823989
  28.5368519 117.3365756 140.2037569  32.2507759 114.1069221 135.0383808
  31.9072029 114.9970863 134.9622919  32.6186722 113.9170879 134.1753393
  20.3193610 126.4302752 127.8572411  21.1568832 126.8399760 127.6406118
  20.4971878 125.4902194 127.8272604  32.2158042 124.0977832 123.5456244
  31.7004666 124.8682437 123.7844631  31.9435351 123.4242968 124.1689305
  29.8005153 118.9427533 128.6041482  28.9446749 118.5534383 128.4247121
  30.2132105 119.0219494 127.7441267  31.3304300 116.4773876 133.0033042
  30.8269095 116.4404011 132.1900847  31.6234907 117.3866619 133.0629698
  27.5747186 116.5612606 132.0099223  28.4400182 116.3655415 131.6505113
  27.6424695 116.3322958 132.9368580  37.1892316 126.8510187 125.4809417
  36.4121759 126.5121346 125.0364579  37.8683797 126.8562810 124.8064382
  32.0044345 121.9704924 125.3716025  31.6994481 122.2851073 126.2226168
  32.9574787 122.0486344 125.4143358  30.4490777 128.1295148 127.0208979
  29.9212139 127.3947907 126.7082216  29.9478280 128.9069824 126.7748947
  35.4283623 126.3244168 132.1376025  34.7707298 127.0143430 132.2256154
  36.2324022 126.7140600 132.4810011  25.1809505 118.7914814 129.3815590
  25.7553257 118.5689995 128.6488783  25.7680487 118.8603508 130.1344192
  34.2389082 124.6788541 130.1879967  34.7520964 125.3118533 130.6901676
  34.8890306 124.0789736 129.8223327  25.5079092 120.8219275 123.4011475
  24.6716404 121.1593961 123.7220750  25.3683861 120.6868255 122.4638612
  27.4832172 115.6656063 128.1090660  26.8296585 115.3505080 127.4847274
  27.4412647 115.0431803 128.8350483  28.5943377 125.9475358 120.0243952
  27.6870439 125.7164611 120.2235101  29.0914409 125.1512977 120.2117933
  31.5011456 134.6572865 122.9440638  30.8273155 134.9604562 123.5525596
  31.8877278 135.4601945 122.5946095  30.7169913 122.1537996 132.4338307
  29.7992474 122.3752943 132.2759995  31.1330056 122.2284307 131.5750015
  31.5004961 123.5529412 127.5640988  32.2476780 124.0650809 127.2548110
  31.7696550 123.2313465 128.4245381  29.7731611 126.0487953 124.5467942
  28.8642830 125.7646986 124.6440412  29.8026695 126.4687031 123.6871249
  35.0050878 129.6594542 128.3159109  34.5513205 128.8185452 128.3724300
  34.3744845 130.2955941 128.6533890  33.9483798 120.5886528 129.5459777
  33.2106555 120.0763914 129.8770019  34.2010571 120.1486910 128.7343054
  33.4483817 131.4971039 129.2508928  33.7406792 132.0576096 128.5321293
  33.9582438 131.7899600 130.0062087  34.0495425 113.3662780 130.1401546
  34.3554302 112.5060144 129.8527461  34.7748030 113.9580400 129.9400540
  20.3419781 123.7693467 128.5283144  20.1444181 123.1762828 127.8034211
  19.7866445 123.4645677 129.2459083  28.3216505 123.6616573 130.6477737
  28.3765115 122.7090410 130.5720214  27.5107707 123.8176012 131.1319036
  29.4707699 127.5896696 121.8856020  29.0327128 126.8732555 121.4261658
  30.2118139 127.8172811 121.3241112  26.2608865 122.2793633 128.4068116
  25.4476730 122.5787804 128.8133308  26.7567859 121.8849322 129.1242598
  28.4117443 132.2751390 130.3402381  28.3693621 132.5012236 129.4110913
  29.3280141 132.0414765 130.4888182  31.8583076 122.7435458 137.2383010
  32.2132464 122.9706931 138.0977476  32.5055208 123.0753834 136.6160265
  37.5880813 125.8653893 127.9432339  37.4498712 126.0555489 127.0153528
  37.2317032 126.6273276 128.4000390  25.7522939 119.8511989 134.0229351
  26.3922319 119.7100748 133.3252314  24.9200470 119.5646502 133.6467953
  37.6150193 127.9330420 132.9543610  38.0486700 127.8405710 133.8026665
  38.3281774 127.9087921 132.3163626  26.5283243 129.1514419 130.1364343
  27.3223842 128.6564739 129.9346918  25.8174936 128.6232282 129.7732049
  31.3478088 131.5332515 134.4876711  31.4015110 132.1023451 135.2554427
  30.4792869 131.7034400 134.1230748  22.8366007 123.2957501 126.2124096
  21.9063595 123.2341956 126.4294058  22.9323479 122.7733454 125.4160737
  22.7551556 119.8212314 128.8002338  23.0158373 120.7357647 128.6911498
  23.5768728 119.3536756 128.9498951  24.2276481 121.2350071 135.9701162
  24.8999535 121.0267433 135.3213811  23.4006268 121.0372157 135.5306395
  38.4765742 127.9754121 135.4876496  38.6701633 128.8799932 135.7335771
  38.3766361 127.5161540 136.3215081  30.1302053 117.8612012 137.9866823
  29.4829968 118.5601961 137.8931300  30.9003069 118.2948156 138.3543071
  30.3066188 125.6992777 136.0463643  31.2358248 125.8503936 135.8732610
  29.8857218 125.7876797 135.1912289  29.1054519 129.7243441 133.8162181
  28.9665605 129.3562225 134.6888119  28.3169116 130.2391080 133.6446138
  29.7002671 134.8252538 125.1587717  29.8754427 134.3540581 125.9733340
  29.0135459 135.4518304 125.3868978  30.6559735 129.1025044 131.2051018
  30.3209567 129.0625814 132.1008668  30.1563680 128.4369760 130.7321429
  33.5918926 126.4481078 121.4788078  32.9748097 125.7227906 121.3821131
  33.1235415 127.2090438 121.1355152  27.2586279 124.2212633 136.2187279
  27.9685898 123.5805825 136.1773898  27.2155587 124.4725528 137.1413460
  35.2473058 131.1579986 139.1393858  35.1885604 130.4739207 138.4724441
  35.6492576 131.8998976 138.6874484  25.9715213 121.2077851 138.0382919
  25.4352570 120.7568589 138.6904515  25.3831922 121.3423760 137.2953383
  25.3817472 120.6666502 120.6009382  24.5046938 120.5455303 120.2371629
  25.8575225 119.8752581 120.3488271  35.2490465 129.1219570 137.3707838
  34.3617244 128.7845492 137.4934237  35.8189016 128.3902602 137.6076603
  28.5681398 133.0192793 127.8471903  27.7848920 133.5614473 127.9410127
  29.2674143 133.5366772 128.2466144  31.8778048 118.8287422 130.4906108
  32.3746748 118.0757385 130.1707178  31.1065030 118.8651739 129.9249317
  39.7307806 124.5327788 132.1324400  39.7197682 125.4152503 131.7618333
  38.8625185 124.1799339 131.9378937  32.9607829 127.5859109 128.0644532
  32.0264108 127.7060572 127.8949236  33.1384497 126.6831576 127.8004541
  28.4613017 120.9704805 130.2177793  28.0910804 120.4175846 130.9058698
  28.9572109 120.3662939 129.6652793  36.3480380 123.4276429 128.5994566
  36.8140832 124.2604420 128.5254868  36.7987881 122.9621410 129.3039824
  34.4156611 129.7720250 125.5980718  34.6916455 129.6576845 126.5074592
  33.5461110 129.3737735 125.5592891  34.3197043 115.7957016 132.6385467
  33.4060123 116.0261243 132.8067674  34.7490144 115.8795460 133.4899499
  34.0903501 123.9846908 135.1385361  33.4374952 124.2322815 134.4837814
  34.4683881 123.1711046 134.8047838  31.0510675 134.0206601 129.2413531
  31.2333070 133.2028257 129.7041284  31.8743661 134.2374293 128.8038421
  31.3852841 132.9474786 126.5028580  31.9140607 132.4367241 125.8898742
  31.6481060 132.6317316 127.3674113  24.7408589 133.9989903 129.2626356
  24.0718964 134.4836030 128.7790396  24.6021459 134.2459123 130.1769734
  23.8578351 118.3808796 136.4630899  23.9219677 119.2423627 136.0508297
  23.7945471 117.7682798 135.7303257  20.1096166 122.2608358 126.0422288
  20.4049607 121.3519036 125.9889342  19.2084202 122.2396097 125.7203290
  32.0182245 133.9815622 132.8472696  31.8933384 133.1805362 132.3383642
  32.6761336 134.4761815 132.3586666  23.6390413 120.3364354 132.0249837
  22.9176999 120.9500322 131.8857310  24.4283669 120.8722119 131.9466482
  34.0817153 131.7824642 134.4752246  33.1347489 131.6629993 134.4030573
  34.4299926 130.8947140 134.5578508  26.4416726 117.6718781 138.2990488
  26.9651128 117.9181077 139.0616798  26.2229060 118.5038816 137.8793626
  21.8384007 119.9422455 126.1661613  21.5096714 119.0619834 125.9836719
  22.1923378 119.8870124 127.0538002  31.0863586 131.5777358 130.6756599
  30.9388549 130.6494065 130.8564169  31.9117080 131.5997449 130.1913674
  24.9525831 120.2295425 126.5337091  25.2921903 120.7581346 125.8115699
  25.3997951 120.5675831 127.3095657  34.6897708 132.4005917 131.7621471
  35.6144256 132.1948778 131.6245923  34.5213012 132.1522318 132.6710813
  27.6469271 118.6132476 135.9840159  27.3066092 117.8140289 136.3860839
  26.9408278 118.9134187 135.4116992  28.2985743 115.6981788 134.4367482
  29.1211813 115.2242266 134.3146372  28.5423807 116.4772272 134.9366168
  26.9393978 118.7270047 124.7330384  27.6602340 119.1051299 124.2294100
  26.3159282 119.4458923 124.8365361  31.0825101 119.4315196 125.6688716
  31.2988715 120.3139834 125.3677544  30.6019168 119.0401409 124.9394358
  25.8224322 122.3900909 132.2459460  25.6768903 122.7041212 133.1383742
  25.3449526 123.0085809 131.6930359  27.6820705 119.3803457 132.2940350
  27.6682274 118.4844550 131.9572648  28.3993133 119.3874121 132.9278636
  29.5346836 119.8140797 134.3393477  29.2764613 120.7357868 134.3377808
  29.0031876 119.4171232 135.0293942  34.4793024 132.9191584 127.1183563
  34.6529902 132.3538007 126.3657415  34.9721916 133.7192479 126.9363053
  27.0857601 118.2617837 127.5627920  27.2073512 117.3334483 127.7618808
  26.7959643 118.2756523 126.6506236  29.9548791 115.9472748 130.6994640
  29.9770488 116.0112081 129.7446620  30.3716850 115.1077256 130.8935146
  40.3332416 125.6828007 128.7373863  40.7763562 124.9335332 128.3392986
  39.4558926 125.6738143 128.3547595  35.4668197 132.2358349 124.2180461
  36.1619102 132.8565041 124.4367776  35.8091347 131.3853700 124.4932839
  37.3659620 129.6858054 125.7467792  37.8910944 130.0245327 125.0217112
  37.2781973 128.7505069 125.5630927  29.0500281 135.7530037 130.1063045
  28.6105271 135.2606416 130.7995902  29.8008398 135.2103005 129.8655120
  26.4974153 131.2968046 132.1785347  25.8754162 130.6338751 131.8787575
  27.1679020 131.3229178 131.4958995  37.0553526 130.3190958 141.0518990
  36.2649070 130.3015097 140.5123489  36.8186881 130.8579251 141.8068026
  37.1751401 127.1683424 138.3651718  37.2249406 127.0033432 139.3067241
  37.0665324 126.3010683 137.9749599  26.0587660 129.8471970 125.6543807
  26.2075780 130.5307434 125.0010480  26.8654103 129.8277060 126.1693263
  34.4655164 123.1514352 139.6811025  35.3665026 123.0120817 139.3895023
  34.5403138 123.3168807 140.6209203  28.7997969 120.5281207 138.5264211
  27.9301278 120.8214773 138.2546800  29.0357449 121.1121652 139.2471475
  38.6769598 129.5880366 138.6093740  38.3854406 129.9510346 139.4457201
  38.0641729 128.8747374 138.4307072  39.8765280 127.1533245 131.1296310
  40.7112172 127.5923049 131.2933871  40.0124409 126.6771899 130.3104556
  36.9256786 124.7112980 137.0773798  37.4010908 124.9040627 136.2692649
  36.0022352 124.7672166 136.8317182  23.8140293 125.8737147 126.6604876
  23.5686335 124.9699477 126.8585086  23.9836207 125.8754298 125.7184354
  31.5037003 116.7460824 136.0429632  32.0218947 117.4821851 135.7176120
  31.1492135 117.0524817 136.8776391  23.0835940 121.6065505 124.1591038
  22.3905185 121.6809860 123.5031074  22.8387692 120.8425849 124.6812555
  31.7549597 113.1661106 131.5630528  32.0351351 112.4984295 132.1890955
  32.5400204 113.3590202 131.0505192  29.5583065 132.3420100 123.1255555
  28.9857032 132.9610287 122.6726027  30.1315859 132.8919462 123.6595477
  35.6258455 121.5878740 135.3102104  36.5775878 121.6876838 135.3314328
  35.4561906 120.7957009 135.8200188  33.6472835 118.6734324 135.4961504
  33.0522767 118.9539336 134.8007993  33.3622531 119.1628224 136.2678246
  32.7780325 132.6257250 124.2564137  33.7110998 132.5602812 124.4597012
  32.6903538 133.4613517 123.7978670  35.4068342 131.9423121 121.2168085
  35.3281973 131.6082984 122.1103842  36.2278009 132.4344889 121.2159557
  38.1046533 124.8084860 134.4244403  38.0722853 123.8700861 134.6104087
  38.7147157 124.8868897 133.6910228  29.9429864 123.6780913 120.4671607
  30.8888969 123.5487121 120.5360025  29.5644109 122.9395575 120.9441035
  38.2541021 121.5995903 134.4702686  37.7380070 120.8154360 134.2832615
  39.1380970 121.2714620 134.6349206  35.9151748 115.3436919 130.4298499
  35.7176570 115.0352007 131.3141831  36.5251454 116.0698558 130.5596429
  43.9223083 125.8700867 133.5650440  44.6526471 125.6086155 134.1258143
  43.3130028 125.1329589 133.6052508  42.0038380 124.0108729 134.1624891
  41.2771544 123.8764694 133.5541383  41.5885667 124.3185558 134.9681609
  28.1272781 121.6030889 120.4026492  27.2204236 121.3064002 120.4789206
  28.4048762 121.3060707 119.5360779  19.0450721 122.9237253 130.8525539
  18.7253506 122.0702561 130.5599913  18.4984150 123.1385831 131.6083506
  29.7434847 116.1467779 126.5570734  28.9335575 115.8014864 126.9325980
  30.4319264 115.8375323 127.1458345  31.6725395 115.2245826 128.1795030
  32.2256434 115.6441279 128.8385053  31.9095481 114.2981574 128.2217986
  26.8971566 118.4617825 120.5438472  27.7590730 118.7872723 120.8034289
  27.0821910 117.6749321 120.0311537  35.0504202 117.3346351 127.6873695
  34.4702871 117.9931155 127.3051747  34.7840135 116.5123696 127.2761112
  33.5007768 116.7351409 129.8895015  34.0007547 116.8467943 129.0809334
  34.1443376 116.4312462 130.5295823  20.8275724 126.4758418 130.6984675
  20.8046412 126.5746105 129.7466558  21.1376360 127.3223569 131.0201841
  33.8329080 119.4946441 126.7430043  32.9454935 119.7796092 126.5250238
  34.2483069 119.3340205 125.8957320  37.1843616 119.5192962 130.4584382
  37.9604006 120.0089415 130.7308999  36.4591750 119.9451017 130.9156252
  39.6216175 120.2320582 131.5158323  40.2160666 119.9916318 130.8051631
  39.6942759 119.5127712 132.1431859  32.9772294 129.2591116 120.8378063
  33.6808144 129.4641119 121.4535718  32.2534942 129.8267878 121.1027146
  33.8070104 125.0100977 126.9580333  33.7505305 125.4669529 126.1187965
  34.3598446 124.2491662 126.7803176  37.6174910 120.7990709 127.7830453
  37.3611844 120.3987345 128.6138660  36.9927778 121.5134503 127.6580592
  41.9287248 123.5386783 130.2901744  41.3686806 123.6079972 131.0633306
  41.3230751 123.3627767 129.5701240  34.8858991 129.6973645 122.8876523
  35.7204595 129.2654844 122.7053998  34.7243334 129.5255659 123.8153417
  34.5404883 126.2005759 124.2532862  34.4853687 126.0350030 123.3121306
  33.9150938 126.9081792 124.4095052  27.8501009 115.7013868 123.8318181
  27.8379678 116.6455708 123.9886451  28.7424431 115.5184013 123.5377642
  27.7790573 134.3782758 131.9185937  26.8286204 134.3784620 131.8050310
  28.0823059 133.6315493 131.4021972  31.6653128 112.2956644 128.0864117
  30.8985524 111.7415131 128.2320800  32.0763833 112.3678513 128.9478269
  43.5143266 140.2143296 132.9831700  44.1521676 140.0950044 132.2795040
  43.3964109 141.1624140 133.0419652  40.3232972 140.1670725 132.9193224
  39.9851484 140.0511789 132.0313759  41.1922741 139.7661890 132.8994230
  36.1819788 142.0206201 128.9090115  35.6184653 141.9296138 128.1406403
  36.0672183 141.2006105 129.3892608  40.8052755 141.3205576 138.8779430
  40.7941396 140.9258375 138.0059934  40.9673395 140.5871649 139.4713201
  41.7619347 145.6877169 124.2204580  41.1107327 146.2731249 123.8338594
  42.5563710 146.2183364 124.2799618  35.6874974 142.7766306 124.6191715
  36.4605850 142.2295293 124.4804590  36.0400373 143.6410555 124.8306176
  38.4516223 141.4819537 134.4159974  39.0479796 141.2575559 133.7016936
  38.5091195 140.7404282 135.0185421  38.0241252 138.9358972 122.2510164
  38.2766772 138.4140493 121.4893627  37.0865811 138.7725117 122.3536848
  43.0684535 137.9394750 130.0584908  43.8547624 137.5214173 129.7075325
  43.3323239 138.8440842 130.2266556  43.2394612 143.3767601 124.7573565
  42.6040445 143.4502227 125.4694469  42.9092018 143.9661199 124.0792644
  48.4692962 137.8769984 130.9617886  49.2018134 137.3069200 131.1955716
  47.7132317 137.4891584 131.4024392  37.7437540 140.8387078 124.4534539
  37.6273799 140.1631981 125.1215624  37.8539800 140.3519452 123.6366692
  40.0869081 140.2997225 128.1581229  39.7227289 139.7727846 128.8694150
  40.9436197 139.9095694 127.9847714  45.9918382 131.5891558 135.4212495
  45.6601707 132.4586969 135.1973710  45.3963995 131.2727842 136.1006525
  39.7274568 135.3287125 123.1542577  39.8948971 136.1967361 123.5213048
  39.5371737 135.4914406 122.2303866  42.4849902 143.7904104 134.8208408
  42.1850625 144.6929142 134.7124215  42.1400961 143.5236287 135.6729560
  35.9362383 140.2417900 130.8545112  35.0112880 140.1094115 131.0622804
  36.1846796 141.0212120 131.3515054  45.8847045 136.3086644 132.5005845
  44.9763923 136.2402052 132.2064606  45.8334641 136.7858589 133.3287670
  39.7063789 137.7844782 124.1389244  39.5863414 138.2301833 124.9774724
  39.0116378 138.1330100 123.5802782  33.2971194 139.8851174 131.6888901
  33.4263575 140.1385653 132.6028313  32.6168645 140.4778882 131.3693556
  47.7508692 134.5103082 134.2783719  47.1083072 134.8035615 133.6323513
  47.2463620 134.3956003 135.0836915  45.4048855 138.2566255 124.9669578
  46.3166712 138.4893642 124.7917276  44.8958503 138.8403300 124.4044657
  43.6889623 142.6790883 138.6030871  44.0972979 142.2373294 137.8585503
  42.9666885 142.1043511 138.8565064  40.0420693 137.6163490 135.9764428
  40.8881888 138.0402904 136.1199077  39.9819331 136.9597114 136.6702991
  44.0118438 143.2392074 132.3583160  43.3827300 143.4037788 131.6559227
  43.6244100 143.6533683 133.1294124  47.8907670 144.1746512 129.7127523
  47.2058708 144.5545413 129.1624557  47.9751519 144.7841838 130.4459471
  43.1920138 135.2767858 137.6345601  42.9481070 136.0309919 137.0979877
  43.4680069 135.6553206 138.4692848  45.1458601 141.8206471 136.3122867
  45.3575496 142.4638231 135.6357248  45.0988349 140.9868787 135.8444797
  42.7484830 134.4324291 133.2159439  41.8869309 134.7305545 133.5076177
  42.7747265 134.6494690 132.2840472  39.5646400 142.9766482 129.6233245
  40.0284745 143.2554185 128.8337867  39.3003198 142.0749926 129.4406335
  36.4570481 142.5237963 132.5613008  37.0271838 142.9525232 131.9230492
  37.0478593 142.2420548 133.2597194  38.5015286 139.0989634 126.4322810
  39.2039329 139.5510678 126.8996736  38.1695914 138.4573453 127.0602703
  32.2440620 137.3573187 131.7339943  31.4539674 137.6130715 131.2580054
  32.7351867 138.1721525 131.8391984  46.2604429 144.6978426 134.4845224
  47.0821873 144.2958613 134.2027906  46.2566832 144.5946660 135.4361340
  34.1955365 137.7217766 128.6923420  33.3986528 137.8336460 129.2106916
  33.9680957 138.0604418 127.8264311  54.3510422 141.0417175 130.8330196
  53.5974131 140.4724573 130.6774200  54.4857963 141.0079839 131.7800830
  39.7409050 145.9130577 126.5084915  39.6054725 146.7582113 126.9369763
  40.2818863 146.1149855 125.7450849  33.1938448 143.4306015 127.0812840
  33.7062968 144.2249265 127.2318405  33.8461161 142.7332305 127.0146442
  39.1444351 133.4080036 140.7619527  39.8854064 134.0087189 140.6823989
  39.3762274 132.6657674 140.2037569  43.0901514 129.4361139 135.0383808
  42.7465783 130.3262780 134.9622919  43.4580476 129.2462796 134.1753393
  31.1587364 141.7594669 127.8572411  31.9962586 142.1691678 127.6406118
  31.3365632 140.8194111 127.8272604  43.0551797 139.4269750 123.5456244
  42.5398420 140.1974355 123.7844631  42.7829105 138.7534886 124.1689305
  40.6398908 134.2719451 128.6041482  39.7840504 133.8826301 128.4247121
  41.0525859 134.3511411 127.7441267  42.1698054 131.8065794 133.0033042
  41.6662850 131.7695929 132.1900847  42.4628661 132.7158537 133.0629698
  38.4140940 131.8904524 132.0099223  39.2793937 131.6947332 131.6505113
  38.4818449 131.6614875 132.9368580  48.0286071 142.1802105 125.4809417
  47.2515513 141.8413264 125.0364579  48.7077552 142.1854728 124.8064382
  42.8438100 137.2996842 125.3716025  42.5388235 137.6142991 126.2226168
  43.7968542 137.3778262 125.4143358  41.2884532 143.4587065 127.0208979
  40.7605893 142.7239825 126.7082216  40.7872034 144.2361742 126.7748947
  46.2677378 141.6536086 132.1376025  45.6101052 142.3435347 132.2256154
  47.0717777 142.0432518 132.4810011  36.0203259 134.1206732 129.3815590
  36.5947011 133.8981913 128.6488783  36.6074242 134.1895426 130.1344192
  45.0782836 140.0080458 130.1879967  45.5914718 140.6410450 130.6901676
  45.7284060 139.4081654 129.8223327  36.3472846 136.1511193 123.4011475
  35.5110159 136.4885879 123.7220750  36.2077616 136.0160172 122.4638612
  38.3225927 130.9947980 128.1090660  37.6690339 130.6796998 127.4847274
  38.2806401 130.3723721 128.8350483  39.4337132 141.2767276 120.0243952
  38.5264194 141.0456529 120.2235101  39.9308164 140.4804895 120.2117933
  41.5563667 137.4829914 132.4338307  40.6386229 137.7044861 132.2759995
  41.9723811 137.5576225 131.5750015  42.3398715 138.8821330 127.5640988
  43.0870534 139.3942727 127.2548110  42.6090305 138.5605382 128.4245381
  40.6125365 141.3779870 124.5467942  39.7036584 141.0938903 124.6440412
  40.6420449 141.7978949 123.6871249  45.8444633 144.9886460 128.3159109
  45.3906960 144.1477370 128.3724300  45.2138599 145.6247858 128.6533890
  44.7877552 135.9178446 129.5459777  44.0500309 135.4055832 129.8770019
  45.0404326 135.4778828 128.7343054  44.2877572 146.8262957 129.2508928
  44.5800546 147.3868014 128.5321293  44.7976192 147.1191518 130.0062087
  44.8889180 128.6954698 130.1401546  45.1948056 127.8352061 129.8527461
  45.6141784 129.2872318 129.9400540  31.1813536 139.0985385 128.5283144
  30.9837935 138.5054745 127.8034211  30.6260200 138.7937595 129.2459083
  39.1610259 138.9908491 130.6477737  39.2158869 138.0382327 130.5720214
  38.3501461 139.1467930 131.1319036  40.3101453 142.9188614 121.8856020
  39.8720883 142.2024473 121.4261658  41.0511894 143.1464729 121.3241112
  37.1002619 137.6085551 128.4068116  36.2870485 137.9079721 128.8133308
  37.5961613 137.2141240 129.1242598  39.2511197 147.6043308 130.3402381
  39.2087376 147.8304154 129.4110913  40.1673896 147.3706682 130.4888182
  42.6976831 138.0727375 137.2383010  43.0526219 138.2998848 138.0977476
  43.3448962 138.4045752 136.6160265  48.4274568 141.1945811 127.9432339
  48.2892466 141.3847407 127.0153528  48.0710787 141.9565194 128.4000390
  36.5916694 135.1803906 134.0229351  37.2316073 135.0392665 133.3252314
  35.7594224 134.8938420 133.6467953  48.4543947 143.2622338 132.9543610
  48.8880454 143.1697627 133.8026665  49.1675528 143.2379839 132.3163626
  37.3676998 144.4806337 130.1364343  38.1617596 143.9856657 129.9346918
  36.6568690 143.9524200 129.7732049  42.1871842 146.8624432 134.4876711
  42.2408865 147.4315369 135.2554427  41.3186624 147.0326317 134.1230748
  33.6759761 138.6249418 126.2124096  32.7457349 138.5633874 126.4294058
  33.7717233 138.1025371 125.4160737  33.5945310 135.1504231 128.8002338
  33.8552128 136.0649565 128.6911498  34.4162483 134.6828674 128.9498951
  35.0670236 136.5641988 135.9701162  35.7393289 136.3559351 135.3213811
  34.2400022 136.3664074 135.5306395  49.3159497 143.3046039 135.4876496
  49.5095387 144.2091849 135.7335771  49.2160115 142.8453458 136.3215081
  40.9695808 133.1903929 137.9866823  40.3223723 133.8893879 137.8931300
  41.7396823 133.6240073 138.3543071  41.1459942 141.0284694 136.0463643
  42.0752002 141.1795854 135.8732610  40.7250972 141.1168715 135.1912289
  39.9448274 145.0535359 133.8162181  39.8059360 144.6854143 134.6888119
  39.1562870 145.5682998 133.6446138  41.4953489 144.4316961 131.2051018
  41.1603322 144.3917731 132.1008668  40.9957435 143.7661677 130.7321429
  44.4312681 141.7772996 121.4788078  43.8141851 141.0519824 121.3821131
  43.9629169 142.5382356 121.1355152  38.0980034 139.5504551 136.2187279
  38.8079652 138.9097743 136.1773898  38.0549342 139.8017446 137.1413460
  46.0866812 146.4871904 139.1393858  46.0279358 145.8031124 138.4724441
  46.4886331 147.2290894 138.6874484  36.8108968 136.5369769 138.0382919
  36.2746325 136.0860507 138.6904515  36.2225676 136.6715677 137.2953383
  36.2211227 135.9958420 120.6009382  35.3440693 135.8747221 120.2371629
  36.6968980 135.2044498 120.3488271  46.0884220 144.4511488 137.3707838
  45.2010998 144.1137410 137.4934237  46.6582771 143.7194519 137.6076603
  42.7171803 134.1579340 130.4906108  43.2140502 133.4049302 130.1707178
  41.9458784 134.1943657 129.9249317  50.5701560 139.8619705 132.1324400
  50.5591436 140.7444421 131.7618333  49.7018940 139.5091256 131.9378937
  43.8001583 142.9151027 128.0644532  42.8657862 143.0352490 127.8949236
  43.9778252 142.0123494 127.8004541  39.3006771 136.2996723 130.2177793
  38.9304559 135.7467763 130.9058698  39.7965864 135.6954856 129.6652793
  47.1874135 138.7568346 128.5994566  47.6534587 139.5896338 128.5254868
  47.6381635 138.2913328 129.3039824  45.2550366 145.1012168 125.5980718
  45.5310210 144.9868762 126.5074592  44.3854865 144.7029653 125.5592891
  45.1590797 131.1248933 132.6385467  44.2453877 131.3553160 132.8067674
  45.5883899 131.2087377 133.4899499  44.9297256 139.3138825 135.1385361
  44.2768706 139.5614733 134.4837814  45.3077636 138.5002964 134.8047838
  42.2246595 148.2766704 126.5028580  42.7534362 147.7659158 125.8898742
  42.4874815 147.9609234 127.3674113  34.6972105 133.7100714 136.4630899
  34.7613432 134.5715545 136.0508297  34.6339225 133.0974715 135.7303257
  30.9489920 137.5900275 126.0422288  31.2443361 136.6810954 125.9889342
  30.0477956 137.5688015 125.7203290  34.4784167 135.6656272 132.0249837
  33.7570753 136.2792240 131.8857310  35.2677423 136.2014037 131.9466482
  44.9210908 147.1116559 134.4752246  43.9741243 146.9921911 134.4030573
  45.2693681 146.2239057 134.5578508  37.2810481 133.0010698 138.2990488
  37.8044883 133.2472995 139.0616798  37.0622814 133.8330733 137.8793626
  32.6777762 135.2714373 126.1661613  32.3490468 134.3911752 125.9836719
  33.0317133 135.2162042 127.0538002  41.9257341 146.9069276 130.6756599
  41.7782303 145.9785983 130.8564169  42.7510834 146.9289366 130.1913674
  35.7919585 135.5587343 126.5337091  36.1315658 136.0873264 125.8115699
  36.2391706 135.8967749 127.3095657  45.5291463 147.7297834 131.7621471
  46.4538010 147.5240696 131.6245923  45.3606766 147.4814236 132.6710813
  38.4863026 133.9424393 135.9840159  38.1459846 133.1432207 136.3860839
  37.7802032 134.2426104 135.4116992  39.1379498 131.0273706 134.4367482
  39.9605567 130.5534184 134.3146372  39.3817561 131.8064190 134.9366168
  37.7787732 134.0561964 124.7330384  38.4996095 134.4343217 124.2294100
  37.1553036 134.7750841 124.8365361  41.9218855 134.7607113 125.6688716
  42.1382470 135.6431751 125.3677544  41.4412922 134.3693327 124.9394358
  36.6618077 137.7192827 132.2459460  36.5162657 138.0333130 133.1383742
  36.1843280 138.3377727 131.6930359  38.5214459 134.7095375 132.2940350
  38.5076028 133.8136468 131.9572648  39.2386888 134.7166038 132.9278636
  40.3740590 135.1432715 134.3393477  40.1158368 136.0649785 134.3377808
  39.8425631 134.7463149 135.0293942  45.3186779 148.2483502 127.1183563
  45.4923656 147.6829924 126.3657415  45.8115670 149.0484397 126.9363053
  37.9251355 133.5909755 127.5627920  38.0467267 132.6626401 127.7618808
  37.6353398 133.6048441 126.6506236  40.7942546 131.2764665 130.6994640
  40.8164243 131.3403998 129.7446620  41.2110605 130.4369174 130.8935146
  51.1726170 141.0119925 128.7373863  51.6157316 140.2627250 128.3392986
  50.2952680 141.0030061 128.3547595  46.3061951 147.5650266 124.2180461
  47.0012856 148.1856959 124.4367776  46.6485102 146.7145617 124.4932839
  48.2053375 145.0149972 125.7467792  48.7304699 145.3537245 125.0217112
  48.1175727 144.0796987 125.5630927  37.3367907 146.6259964 132.1785347
  36.7147917 145.9630669 131.8787575  38.0072774 146.6521096 131.4958995
  47.8947281 145.6482875 141.0518990  47.1042824 145.6307014 140.5123489
  47.6580635 146.1871169 141.8068026  48.0145156 142.4975342 138.3651718
  48.0643161 142.3325349 139.3067241  47.9059079 141.6302601 137.9749599
  36.8981414 145.1763887 125.6543807  37.0469535 145.8599352 125.0010480
  37.7047858 145.1568978 126.1693263  45.3048918 138.4806270 139.6811025
  46.2058781 138.3412735 139.3895023  45.3796893 138.6460725 140.6209203
  39.6391723 135.8573125 138.5264211  38.7695033 136.1506691 138.2546800
  39.8751204 136.4413570 139.2471475  49.5163352 144.9172283 138.6093740
  49.2248161 145.2802264 139.4457201  48.9035484 144.2039292 138.4307072
  50.7159035 142.4825163 131.1296310  51.5505926 142.9214967 131.2933871
  50.8518164 142.0063816 130.3104556  47.7650541 140.0404898 137.0773798
  48.2404662 140.2332544 136.2692649  46.8416106 140.0964084 136.8317182
  34.6534047 141.2029065 126.6604876  34.4080089 140.2991395 126.8585086
  34.8229962 141.2046216 125.7184354  42.3430757 132.0752742 136.0429632
  42.8612701 132.8113768 135.7176120  41.9885890 132.3816735 136.8776391
  33.9229695 136.9357423 124.1591038  33.2298940 137.0101778 123.5031074
  33.6781447 136.1717766 124.6812555  42.5943351 128.4953024 131.5630528
  42.8745105 127.8276213 132.1890955  43.3793958 128.6882120 131.0505192
  40.3976820 147.6712018 123.1255555  39.8250787 148.2902205 122.6726027
  40.9709614 148.2211380 123.6595477  46.4652210 136.9170658 135.3102104
  47.4169633 137.0168756 135.3314328  46.2955660 136.1248927 135.8200188
  44.4866589 134.0026241 135.4961504  43.8916521 134.2831254 134.8007993
  44.2016286 134.4920142 136.2678246  43.6174080 147.9549168 124.2564137
  44.5504753 147.8894730 124.4597012  43.5297292 148.7905435 123.7978670
  46.2462096 147.2715038 121.2168085  46.1675728 146.9374902 122.1103842
  47.0671763 147.7636806 121.2159557  48.9440287 140.1376778 134.4244403
  48.9116608 139.1992778 134.6104087  49.5540911 140.2160814 133.6910228
  40.7823618 139.0072831 120.4671607  41.7282723 138.8779039 120.5360025
  40.4037863 138.2687493 120.9441035  49.0934776 136.9287821 134.4702686
  48.5773825 136.1446278 134.2832615  49.9774724 136.6006538 134.6349206
  46.7545503 130.6728837 130.4298499  46.5570324 130.3643925 131.3141831
  47.3645208 131.3990476 130.5596429  54.7616837 141.1992785 133.5650440
  55.4920226 140.9378073 134.1258143  54.1523783 140.4621507 133.6052508
  52.8432134 139.3400647 134.1624891  52.1165298 139.2056612 133.5541383
  52.4279421 139.6477476 134.9681609  38.9666535 136.9322807 120.4026492
  38.0597991 136.6355920 120.4789206  39.2442516 136.6352625 119.5360779
  29.8844476 138.2529170 130.8525539  29.5647260 137.3994479 130.5599913
  29.3377904 138.4677749 131.6083506  40.5828601 131.4759697 126.5570734
  39.7729330 131.1306782 126.9325980  41.2713018 131.1667241 127.1458345
  42.5119150 130.5537744 128.1795030  43.0650188 130.9733197 128.8385053
  42.7489236 129.6273492 128.2217986  37.7365320 133.7909742 120.5438472
  38.5984484 134.1164641 120.8034289  37.9215664 133.0041238 120.0311537
  45.8897957 132.6638269 127.6873695  45.3096626 133.3223073 127.3051747
  45.6233889 131.8415613 127.2761112  44.3401523 132.0643326 129.8895015
  44.8401301 132.1759861 129.0809334  44.9837131 131.7604379 130.5295823
  31.6669478 141.8050336 130.6984675  31.6440167 141.9038023 129.7466558
  31.9770115 142.6515487 131.0201841  44.6722835 134.8238359 126.7430043
  43.7848690 135.1088010 126.5250238  45.0876824 134.6632123 125.8957320
  48.0237371 134.8484880 130.4584382  48.7997761 135.3381333 130.7308999
  47.2985505 135.2742934 130.9156252  50.4609929 135.5612499 131.5158323
  51.0554420 135.3208235 130.8051631  50.5336513 134.8419630 132.1431859
  43.8166048 144.5883034 120.8378063  44.5201898 144.7933036 121.4535718
  43.0928697 145.1559796 121.1027146  44.6463858 140.3392895 126.9580333
  44.5899060 140.7961447 126.1187965  45.1992201 139.5783580 126.7803176
  48.4568664 136.1282627 127.7830453  48.2005599 135.7279263 128.6138660
  47.8321532 136.8426421 127.6580592  52.7681002 138.8678700 130.2901744
  52.2080560 138.9371890 131.0633306  52.1624505 138.6919685 129.5701240
  45.7252745 145.0265563 122.8876523  46.5598349 144.5946761 122.7053998
  45.5637088 144.8547577 123.8153417  45.3798638 141.5297676 124.2532862
  45.3247441 141.3641948 123.3121306  44.7544693 142.2373709 124.4095052
  38.6894763 131.0305785 123.8318181  38.6773433 131.9747625 123.9886451
  39.5818185 130.8475931 123.5377642  42.5046883 127.6248562 128.0864117
  41.7379278 127.0707049 128.2320800  42.9157588 127.6970431 128.9478269
  59.3086716 153.2061901 130.9617886  60.0411888 152.6361118 131.1955716
  58.5526072 152.8183502 131.4024392  56.8312137 146.9183475 135.4212495
  56.4995461 147.7878886 135.1973710  56.2357750 146.6019759 136.1006525
  50.5668323 150.6579042 123.1542577  50.7342725 151.5259279 123.5213048
  50.3765492 150.8206324 122.2303866  56.7240800 151.6378561 132.5005845
  55.8157677 151.5693970 132.2064606  56.6728396 152.1150506 133.3287670
  58.5902446 149.8395000 134.2783719  57.9476827 150.1327533 133.6323513
  58.0857375 149.7247920 135.0836915  54.0313893 150.6059776 137.6345601
  53.7874825 151.3601837 137.0979877  54.3073823 150.9845124 138.4692848
  53.5878585 149.7616209 133.2159439  52.7263064 150.0597463 133.5076177
  53.6141019 149.9786608 132.2840472  65.1904177 156.3709092 130.8330196
  64.4367885 155.8016490 130.6774200  65.3251718 156.3371757 131.7800830
  49.9838105 148.7371954 140.7619527  50.7247819 149.3379107 140.6823989
  50.2156028 147.9949591 140.2037569  53.9295268 144.7653056 135.0383808
  53.5859538 145.6554698 134.9622919  54.2974231 144.5754714 134.1753393
  51.4792662 149.6011368 128.6041482  50.6234258 149.2118219 128.4247121
  51.8919614 149.6803329 127.7441267  53.0091809 147.1357712 133.0033042
  52.5056604 147.0987847 132.1900847  53.3022416 148.0450454 133.0629698
  49.2534695 147.2196441 132.0099223  50.1187691 147.0239250 131.6505113
  49.3212204 146.9906793 132.9368580  53.6831854 152.6288760 125.3716025
  53.3781990 152.9434909 126.2226168  54.6362296 152.7070180 125.4143358
  46.8597014 149.4498649 129.3815590  47.4340766 149.2273831 128.6488783
  47.4467996 149.5187344 130.1344192  49.1619681 146.3239898 128.1090660
  48.5084094 146.0088915 127.4847274  49.1200156 145.7015639 128.8350483
  55.6271307 151.2470364 129.5459777  54.8894063 150.7347750 129.8770019
  55.8798080 150.8070745 128.7343054  55.7282934 144.0246616 130.1401546
  56.0341811 143.1643979 129.8527461  56.4535539 144.6164236 129.9400540
  47.4310448 150.5095824 134.0229351  48.0709828 150.3684583 133.3252314
  46.5987979 150.2230337 133.6467953  51.8089562 148.5195847 137.9866823
  51.1617477 149.2185797 137.8931300  52.5790578 148.9531991 138.3543071
  53.5565557 149.4871258 130.4906108  54.0534257 148.7341220 130.1707178
  52.7852539 149.5235574 129.9249317  50.1400526 151.6288641 130.2177793
  49.7698313 151.0759681 130.9058698  50.6359618 151.0246774 129.6652793
  55.9984552 146.4540851 132.6385467  55.0847632 146.6845078 132.8067674
  56.4277653 146.5379295 133.4899499  45.5365860 149.0392631 136.4630899
  45.6007186 149.9007462 136.0508297  45.4732980 148.4266633 135.7303257
  48.1204235 148.3302616 138.2990488  48.6438637 148.5764913 139.0616798
  47.9016569 149.1622651 137.8793626  49.3256780 149.2716311 135.9840159
  48.9853601 148.4724124 136.3860839  48.6195787 149.5718022 135.4116992
  49.9773252 146.3565624 134.4367482  50.7999322 145.8826102 134.3146372
  50.2211316 147.1356107 134.9366168  48.6181487 149.3853882 124.7330384
  49.3389849 149.7635135 124.2294100  47.9946791 150.1042759 124.8365361
  52.7612610 150.0899031 125.6688716  52.9776224 150.9723669 125.3677544
  52.2806677 149.6985244 124.9394358  49.3608214 150.0387292 132.2940350
  49.3469783 149.1428386 131.9572648  50.0780642 150.0457956 132.9278636
  51.2134345 150.4724632 134.3393477  50.9552122 151.3941703 134.3377808
  50.6819385 150.0755067 135.0293942  48.7645110 148.9201672 127.5627920
  48.8861021 147.9918319 127.7618808  48.4747152 148.9340358 126.6506236
  51.6336300 146.6056583 130.6994640  51.6557997 146.6695916 129.7446620
  52.0504359 145.7661092 130.8935146  50.4785478 151.1865042 138.5264211
  49.6088787 151.4798608 138.2546800  50.7144958 151.7705487 139.2471475
  53.1824512 147.4044659 136.0429632  53.7006456 148.1405686 135.7176120
  52.8279644 147.7108652 136.8776391  53.4337106 143.8244942 131.5630528
  53.7138860 143.1568131 132.1890955  54.2187713 144.0174037 131.0505192
  57.3045964 152.2462576 135.3102104  58.2563387 152.3460673 135.3314328
  57.1349415 151.4540844 135.8200188  55.3260344 149.3318159 135.4961504
  54.7310276 149.6123172 134.8007993  55.0410040 149.8212060 136.2678246
  59.9328530 152.2579739 134.4702686  59.4167579 151.4738195 134.2832615
  60.8168479 151.9298455 134.6349206  57.5939257 146.0020754 130.4298499
  57.3964079 145.6935843 131.3141831  58.2038963 146.7282393 130.5596429
  65.6010592 156.5284702 133.5650440  66.3313980 156.2669990 134.1258143
  64.9917537 155.7913424 133.6052508  63.6825889 154.6692565 134.1624891
  62.9559053 154.5348530 133.5541383  63.2673176 154.9769393 134.9681609
  51.4222356 146.8051614 126.5570734  50.6123084 146.4598699 126.9325980
  52.1106773 146.4959158 127.1458345  53.3512904 145.8829661 128.1795030
  53.9043943 146.3025115 128.8385053  53.5882990 144.9565409 128.2217986
  48.5759075 149.1201660 120.5438472  49.4378239 149.4456558 120.8034289
  48.7609419 148.3333156 120.0311537  56.7291711 147.9930186 127.6873695
  56.1490380 148.6514990 127.3051747  56.4627644 147.1707531 127.2761112
  55.1795277 147.3935244 129.8895015  55.6795056 147.5051779 129.0809334
  55.8230885 147.0896297 130.5295823  55.5116589 150.1530277 126.7430043
  54.6242444 150.4379927 126.5250238  55.9270578 149.9924040 125.8957320
  58.8631125 150.1776798 130.4584382  59.6391515 150.6673250 130.7308999
  58.1379259 150.6034852 130.9156252  61.3003684 150.8904417 131.5158323
  61.8948175 150.6500153 130.8051631  61.3730268 150.1711548 132.1431859
  59.2962419 151.4574545 127.7830453  59.0399353 151.0571180 128.6138660
  58.6715287 152.1718339 127.6580592  63.6074757 154.1970618 130.2901744
  63.0474315 154.2663807 131.0633306  63.0018260 154.0211602 129.5701240
  49.5288518 146.3597703 123.8318181  49.5167187 147.3039543 123.9886451
  50.4211939 146.1767848 123.5377642  53.3440637 142.9540480 128.0864117
  52.5773033 142.3998966 128.2320800  53.7551342 143.0262348 128.9478269
   5.1117945  53.5664435 117.6863193   5.8443117  52.9963652 117.9201022
   4.3557301  53.1786036 118.1269698   2.6343365  47.2786009 122.1457801
   2.3026690  48.1481420 121.9219016   2.0388979  46.9622293 122.8251832
   2.5272029  51.9981096 119.2251152   1.6188906  51.9296504 118.9309912
   2.4759624  52.4753041 120.0532977   4.3933675  50.1997534 121.0029025
   3.7508055  50.4930067 120.3568820   3.8888604  50.0850454 121.8082222
   2.0473839  53.9460707 111.6914885   2.9591695  54.1788094 111.5162582
   1.5383486  54.5297751 111.1289963   4.5332653  59.8640964 116.4372830
   3.8483691  60.2439865 115.8869863   4.6176502  60.4736290 117.1704778
   1.7883585  57.5100923 123.0368173   2.0000480  58.1532682 122.3602555
   1.7413333  56.6763239 122.5690104   2.9029412  60.3872878 121.2090531
   3.7246856  59.9853065 120.9273212   2.8991815  60.2841112 122.1606647
  10.9935406  56.7311626 117.5575502  10.2399114  56.1619025 117.4019507
  11.1282947  56.6974291 118.5046137   4.6711054  57.8696556 112.2054724
   3.8940497  57.5307716 111.7609886   5.3502535  57.8749180 111.5309689
   2.9102361  57.3430538 118.8621332   2.2526035  58.0329799 118.9501460
   3.7142760  57.7326970 119.2055318   1.7207820  55.6974910 116.9125273
   2.2339701  56.3304902 117.4146983   2.3709044  55.0976106 116.5468633
   2.4869616  60.6780912 115.0404416   2.0331943  59.8371822 115.0969607
   1.8563583  61.3142310 115.3779196   1.4302535  51.6072898 116.2705083
   0.6925292  51.0950284 116.6015326   1.6829309  51.1673279 115.4588360
   0.9302555  62.5157409 115.9754234   1.2225530  63.0762466 115.2566600
   1.4401176  62.8085970 116.7307393   1.5314163  44.3849150 116.8646853
   1.8373040  43.5246513 116.5772768   2.2566768  44.9766770 116.6645847
   5.0699551  56.8840263 114.6677646   4.9317450  57.0741859 113.7398835
   4.7135770  57.6459646 115.1245697   5.0968931  58.9516790 119.6788917
   5.5305437  58.8592079 120.5271971   5.8100511  58.9274291 119.0408933
   5.9584480  58.9940491 122.2121803   6.1520370  59.8986301 122.4581077
   5.8585098  58.5347910 123.0460388   1.0199589  59.1447233 127.7862683
   0.8685095  58.9157785 126.8692767   1.0104268  60.1017835 127.7994028
   1.0737664  57.4667448 108.2033385   0.4566835  56.7414276 108.1066437
   0.6054152  58.2276808 107.8600459   2.7291796  62.1766356 125.8639165
   2.6704342  61.4925576 125.1969748   3.1311314  62.9185346 125.4119791
   2.7309203  60.1405940 124.0953145   1.8435982  59.8031862 124.2179544
   3.3007754  59.4088971 124.3321910   7.2126543  55.5514157 118.8569706
   7.2016420  56.4338873 118.4863639   6.3443923  55.1985708 118.6624243
   3.8299118  54.4462798 115.3239872   4.2959570  55.2790790 115.2500175
   4.2806619  53.9807780 116.0285131   1.8975349  60.7906620 112.3226024
   2.1735193  60.6763214 113.2319898   1.0279848  60.3924104 112.2838197
   1.8015781  46.8143385 119.3630774   0.8878861  47.0447612 119.5312981
   2.2308882  46.8981829 120.2144806   1.5722239  55.0033277 121.8630668
   0.9193690  55.2509185 121.2083120   1.9502619  54.1897415 121.5293145
   1.2143470  61.8781273 128.4402975   1.7583373  62.4911232 127.9457930
   0.6330314  62.4360852 128.9569988   1.5635891  62.8011011 121.1997553
   0.6166226  62.6816363 121.1275880   1.9118664  61.9133509 121.2823814
   2.1716446  63.4192286 118.4866778   3.0962993  63.2135148 118.3491229
   2.0031749  63.1708687 119.3956120   1.9611762  63.9377954 113.8428869
   2.1348640  63.3724376 113.0902722   2.4540653  64.7378849 113.6608359
   7.8151153  56.7014377 115.4619169   8.2582299  55.9521702 115.0638292
   6.9377664  56.6924513 115.0792901   2.9486935  63.2544718 110.9425768
   3.6437839  63.8751411 111.1613082   3.2910085  62.4040069 111.2178146
   4.8478358  60.7044424 112.4713099   5.3729682  61.0431696 111.7462419
   4.7600710  59.7691439 112.2876233   4.5372264  61.3377327 127.7764296
   3.7467808  61.3201466 127.2368796   4.3005618  61.8765621 128.5313333
   4.6570139  58.1869794 125.0897025   4.7068144  58.0219801 126.0312548
   4.5484062  57.3197053 124.6994906   1.9473901  54.1700722 126.4056332
   2.8483764  54.0307187 126.1140330   2.0221876  54.3355177 127.3454509
   6.1588336  60.6066735 125.3339047   5.8673144  60.9696716 126.1702508
   5.5460467  59.8933743 125.1552379   7.3584018  58.1719615 117.8541617
   8.1930909  58.6109419 118.0179177   7.4943147  57.6958268 117.0349863
   4.4075524  55.7299350 123.8019105   4.8829646  55.9226996 122.9937956
   3.4841089  55.7858536 123.5562488   3.1077193  52.6065110 122.0347410
   4.0594616  52.7063208 122.0559634   2.9380643  51.8143378 122.5445495
   1.1291572  49.6920693 122.2206811   0.5341505  49.9725706 121.5253300
   0.8441269  50.1814594 122.9923552   2.8887080  62.9609490 107.9413391
   2.8100711  62.6269354 108.8349149   3.7096746  63.4531258 107.9404864
   5.5865271  55.8271230 121.1489710   5.5541591  54.8887230 121.3349394
   6.1965894  55.9055266 120.4155535   5.7359759  52.6182273 121.1947993
   5.2198808  51.8340730 121.0077922   6.6199708  52.2900990 121.3594512
   3.3970486  46.3623289 117.1543806   3.1995307  46.0538377 118.0387138
   4.0070192  47.0884928 117.2841736  11.4041821  56.8887236 120.2895747
  12.1345209  56.6272525 120.8503450  10.7948766  56.1515958 120.3297815
   9.4857118  55.0295099 120.8870198   8.7590281  54.8951064 120.2786689
   9.0704405  55.3371928 121.6926916   2.5322940  48.3532721 114.4119001
   1.9521609  49.0117525 114.0297054   2.2658873  47.5310065 114.0006419
   0.9826506  47.7537778 116.6140322   1.4826285  47.8654313 115.8054640
   1.6262114  47.4498831 117.2541130   1.3147818  50.5132811 113.4675350
   0.4273673  50.7982462 113.2495544   1.7301807  50.3526574 112.6202626
   4.6662354  50.5379332 117.1829689   5.4422744  51.0275784 117.4554306
   3.9410488  50.9637386 117.6401558   7.1034913  51.2506951 118.2403629
   7.6979403  51.0102687 117.5296938   7.1761496  50.5314082 118.8677166
   1.2888842  56.0287347 113.6825640   1.2324043  56.4855898 112.8433272
   1.8417184  55.2678032 113.5048482   5.0993648  51.8177079 114.5075759
   4.8430582  51.4173715 115.3383967   4.4746516  52.5320873 114.3825898
   9.4105985  54.5573152 117.0147051   8.8505543  54.6266341 117.7878613
   8.8049489  54.3814137 116.2946547   2.3677729  60.7160015 109.6121830
   3.2023333  60.2841213 109.4299304   2.2062072  60.5442029 110.5398724
   2.0223621  57.2192128 110.9778169   1.9672425  57.0536400 110.0366613
   1.3969676  57.9268161 111.1340359  10.9962004  71.2329666 119.7077006
  11.6340414  71.1136413 119.0040346  10.8782847  72.1810510 119.7664958
   7.8051710  71.1857094 119.6438531   7.4670222  71.0698159 118.7559066
   8.6741478  70.7848259 119.6239537   3.6638526  73.0392571 115.6335422
   3.1003391  72.9482507 114.8651710   3.5490921  72.2192475 116.1137914
   8.2871493  72.3391946 125.6024737   8.2760134  71.9444744 124.7305240
   8.4492133  71.6058018 126.1958508   1.2102958  74.5343762 118.4719642
   2.0024250  74.1934587 118.0565942   1.4499608  74.6438737 119.3921796
   9.2438085  76.7063538 110.9449887   8.5926064  77.2917619 110.5583901
  10.0382447  77.2369733 111.0044924   3.1693712  73.7952675 111.3437021
   3.9424588  73.2481662 111.2049897   3.5219111  74.6596925 111.5551483
   5.0078754  75.1229058 124.5503920   4.7168620  76.0274688 124.4350587
   5.6435739  75.1645585 125.2647990   5.9334961  72.5005906 121.1405280
   6.5298533  72.2761929 120.4262243   5.9909933  71.7590652 121.7430728
   5.5059990  69.9545342 108.9755471   5.7585510  69.4326863 108.2138934
   4.5684549  69.7911487 109.0782155  10.5503272  68.9581120 116.7830214
  11.3366362  68.5400543 116.4320631  10.8141977  69.8627212 116.9511863
  10.7213350  74.3953970 111.4818871  10.0859183  74.4688597 112.1939776
  10.3910756  74.9847569 110.8037950  15.9511699  68.8956353 117.6863193
  16.6836871  68.3255570 117.9201022  15.1951055  68.5077954 118.1269698
   5.2256278  71.8573447 111.1779846   5.1092536  71.1818351 111.8460930
   5.3358538  71.3705821 110.3611999   7.5687819  71.3183595 114.8826535
   7.2046026  70.7914216 115.5939457   8.4254935  70.9282064 114.7093021
  13.4737120  62.6077927 122.1457801  13.1420445  63.4773338 121.9219016
  12.8782733  62.2914211 122.8251832   7.2093306  66.3473494 109.8787884
   7.3767709  67.2153731 110.2458355   7.0190475  66.5100776 108.9549173
   9.9668639  74.8090473 121.5453714   9.6669362  75.7115512 121.4369521
   9.6219699  74.5422656 122.3974867   3.4181121  71.2604270 117.5790419
   2.4931617  71.1280484 117.7868110   3.6665534  72.0398489 118.0760361
  13.3665783  67.3273013 119.2251152  12.4582660  67.2588422 118.9309912
  13.3153379  67.8044958 120.0532977   7.1882527  68.8031152 110.8634551
   7.0682152  69.2488203 111.7020031   6.4935115  69.1516469 110.3048089
   4.9489419  81.5734794 114.5124682   4.8713449  82.5242619 114.5913162
   4.3451063  81.2280666 115.1699608   7.4406649  68.7462659 127.1686049
   6.6639983  69.3056579 127.1588913   8.0797212  69.2319442 127.6900919
  15.2327430  65.5289452 121.0029025  14.5901810  65.8221985 120.3568820
  14.7282358  65.4142372 121.8082222  12.8867593  69.2752625 111.6914885
  13.7985449  69.5080012 111.5162582  12.3777240  69.8589669 111.1289963
   5.6953021  71.5548112 126.7304016   6.4367706  72.0933156 126.4538839
   4.9890007  72.1814401 126.8875568  11.1708361  73.6977253 125.3276177
  11.5791717  73.2559663 124.5830810  10.4485622  73.1229880 125.5810370
   7.5239431  68.6349860 122.7009734   8.3700626  69.0589273 122.8444383
   7.4638069  67.9783484 123.3948297  11.4937176  74.2578443 119.0828466
  10.8646038  74.4224158 118.3804534  11.1062838  74.6720053 119.8539430
  15.3726407  75.1932881 116.4372830  14.6877446  75.5731783 115.8869863
  15.4570257  75.8028208 117.1704778  10.6738876  66.2954228 124.3590908
  10.4299808  67.0496288 123.8225184  10.9498807  66.6739576 125.1938155
  12.6277339  72.8392840 123.0368173  12.8394234  73.4824600 122.3602555
  12.5807087  72.0055157 122.5690104  10.2303568  65.4510661 119.9404746
   9.3688047  65.7491914 120.2321483  10.2566003  65.6681060 119.0085778
   7.0465137  73.9952851 116.3478551   7.5103483  74.2740554 115.5583174
   6.7821936  73.0936296 116.1651642   3.9389218  73.5424333 119.2858315
   4.5090576  73.9711601 118.6475799   4.5297330  73.2606918 119.9842500
   5.9834023  70.1176004 113.1568116   6.6858067  70.5697048 113.6242043
   5.6514652  69.4759823 113.7848010   4.4314385  68.7087760 127.5319326
   3.8013046  69.3904041 127.7654723   4.3250473  68.5970842 126.5872464
  13.7423167  75.7164796 121.2090531  14.5640611  75.3144983 120.9273212
  13.7385570  75.6133030 122.1606647   1.6774103  68.7404136 115.4168727
   0.8805266  68.8522830 115.9352222   1.4499695  69.0790788 114.5509617
   7.5079770  75.2648839 123.3651241   7.5724203  75.7269246 124.2009413
   6.7990694  74.6346204 123.4933551  21.8329160  72.0603544 117.5575502
  21.0792868  71.4910942 117.4019507  21.9676701  72.0266209 118.5046137
   7.2227788  76.9316946 113.2330222   7.0873463  77.7768482 113.6615069
   7.7637601  77.1336224 112.4696155   3.7095128  63.0108526 129.8944577
   3.3162073  62.4574725 130.5692221   4.5261268  63.3219105 130.2851094
   0.6757185  74.4492385 113.8058147   1.1881706  75.2435635 113.9563711
   1.3279898  73.7518675 113.7391748   2.4852070  77.5658141 115.8880900
   2.6618699  78.4876105 115.7001884   3.2808904  77.2516560 116.3175280
   6.6263089  64.4266405 127.4864833   7.3672802  65.0273559 127.4069296
   6.8581012  63.6844043 126.9282876   1.7704427  69.6122773 125.7643063
   1.6557942  68.7108030 126.0650162   0.9148944  69.8586469 125.4127880
   8.8496264  77.5540513 127.3630564   8.4060119  76.7676892 127.0451468
   9.5113478  77.7419663 126.6974454   3.6083386  79.0836315 121.8891242
   4.1590811  78.9553378 121.1168236   2.7694862  79.3831204 121.5386135
  10.9477503  77.8343313 125.3911965  10.9295978  78.6552194 124.8992234
  11.8697423  77.7097388 125.6162106   7.4050557  75.3487442 126.2335473
   7.9378893  74.5875731 126.0034781   6.8764638  75.0561094 126.9759628
  10.5720252  60.4547508 121.7629115  10.2284521  61.3449150 121.6868226
  10.9399214  60.2649166 120.8998700  10.5370534  70.4456119 110.2701550
  10.0217158  71.2160724 110.5089938  10.2647843  69.7721256 110.8934612
   8.1217645  65.2905820 115.3286789   7.2659242  64.9012671 115.1492427
   8.5344597  65.3697781 114.4686574   9.6516792  62.8252164 119.7278348
   9.1481588  62.7882299 118.9146154   9.9447399  63.7344906 119.7875005
   5.8959678  62.9090893 118.7344530   6.7612675  62.7133702 118.3750420
   5.9637187  62.6801245 119.6613887  15.5104809  73.1988474 112.2054724
  14.7334251  72.8599634 111.7609886  16.1896289  73.2041097 111.5309689
  10.3256838  68.3183212 112.0961331  10.0206973  68.6329361 112.9471475
  11.2787280  68.3964631 112.1388664   8.7703269  74.4773435 113.7454285
   8.2424631  73.7426194 113.4327523   8.2690772  75.2548111 113.4994254
  13.7496115  72.6722455 118.8621332  13.0919790  73.3621717 118.9501460
  14.5536515  73.0618887 119.2055318   3.5021997  65.1393101 116.1060897
   4.0765749  64.9168283 115.3734090   4.0892979  65.2081796 116.8589498
  12.5601574  71.0266828 116.9125273  13.0733456  71.6596820 117.4146983
  13.2102798  70.4268024 116.5468633   3.8291584  67.1697562 110.1256782
   2.9928896  67.5072249 110.4466057   3.6896354  67.0346542 109.1883919
   5.8044665  62.0134350 114.8335966   5.1509077  61.6983367 114.2092581
   5.7625139  61.3910091 115.5595789   6.9155870  72.2953645 106.7489258
   6.0082931  72.0642899 106.9480407   7.4126902  71.4991264 106.9363240
   9.8223948  81.0051152 109.6685945   9.1485647  81.3082849 110.2770902
  10.2089770  81.8080233 109.3191402   9.0382405  68.5016284 119.1583614
   8.1204966  68.7231231 119.0005302   9.4542549  68.5762594 118.2995321
   9.8217453  69.9007699 114.2886294  10.5689272  70.4129096 113.9793416
  10.0909042  69.5791752 115.1490688   8.0944103  72.3966240 111.2713248
   7.1855322  72.1125273 111.3685718   8.1239187  72.8165319 110.4116555
  13.3263370  76.0072830 115.0404416  12.8725698  75.1663739 115.0969607
  12.6957337  76.6434228 115.3779196  12.2696290  66.9364816 116.2705083
  11.5319047  66.4242202 116.6015326  12.5223064  66.4965197 115.4588360
  11.7696310  77.8449326 115.9754234  12.0619284  78.4054383 115.2566600
  12.2794930  78.1377887 116.7307393  12.3707917  59.7141068 116.8646853
  12.6766794  58.8538431 116.5772768  13.0960522  60.3058688 116.6645847
   6.6428997  70.0094861 117.3723044   6.6977607  69.0568697 117.2965520
   5.8320199  70.1654300 117.8564342   7.7920191  73.9374984 108.6101327
   7.3539621  73.2210843 108.1506964   8.5330632  74.1651098 108.0486418
   4.5821357  68.6271920 115.1313423   3.7689223  68.9266091 115.5378615
   5.0780351  68.2327609 115.8487905   6.7329935  78.6229677 117.0647687
   6.6906114  78.8490524 116.1356219   7.6492634  78.3893052 117.2133489
  10.1795569  69.0913745 123.9628317  10.5344956  69.3185218 124.8222782
  10.8267700  69.4232122 123.3405572  15.9093306  72.2132181 114.6677646
  15.7711204  72.4033777 113.7398835  15.5529524  72.9751564 115.1245697
   4.0735432  66.1990276 120.7474658   4.7134811  66.0579035 120.0497621
   3.2412962  65.9124789 120.3713260  15.9362685  74.2808708 119.6788917
  16.3699192  74.1883997 120.5271971  16.6494266  74.2566208 119.0408933
   4.8495736  75.4992706 116.8609650   5.6436334  75.0043026 116.6592225
   4.1387428  74.9710569 116.4977356   9.6690580  77.8810802 121.2122018
   9.7227602  78.4501738 121.9799734   8.8005361  78.0512687 120.8476055
   1.0764048  66.1690601 115.5247644   1.3370865  67.0835934 115.4156805
   1.8981220  65.7015043 115.6744257   2.5488973  67.5828358 122.6946469
   3.2212027  67.3745720 122.0459118   1.7218760  67.3850444 122.2551701
  16.7978235  74.3232408 122.2121803  16.9914125  75.2278219 122.4581077
  16.6978853  73.8639827 123.0460388   8.4514545  64.2090299 124.7112130
   7.8042461  64.9080249 124.6176606   9.2215561  64.6426443 125.0788378
  11.8593343  74.4739151 127.7862683  11.7078850  74.2449703 126.8692767
  11.8498023  75.4309753 127.7994028   8.6278680  72.0471064 122.7708950
   9.5570740  72.1982223 122.5977917   8.2069710  72.1355085 121.9157596
   7.4267012  76.0721728 120.5407487   7.2878097  75.7040513 121.4133425
   6.6381608  76.5869368 120.3691445   8.0215164  81.1730825 111.8833024
   8.1966919  80.7018868 112.6978646   7.3347952  81.7996591 112.1114284
   8.9772227  75.4503331 117.9296325   8.6422059  75.4104101 118.8253975
   8.4776172  74.7848047 117.4566735   2.9516471  70.8570961 123.4548906
   2.8136269  70.1251200 124.0560445   3.8621394  70.7679861 123.1733094
  11.9131418  72.7959365 108.2033385  11.2960589  72.0706193 108.1066437
  11.4447907  73.5568726 107.8600459   5.5798771  70.5690920 122.9432586
   6.2898390  69.9284113 122.9019204   5.5368080  70.8203815 123.8658767
  13.5685550  77.5058274 125.8639165  13.5098096  76.8217494 125.1969748
  13.9705068  78.2477264 125.4119791   4.2927705  67.5556138 124.7628225
   3.7565062  67.1046877 125.4149822   3.7044414  67.6902047 124.0198690
   2.5876249  84.3220188 118.6572884   2.8272847  84.9538712 119.3351902
   1.7445445  83.9708228 118.9438243   3.7029964  67.0144790 107.3254689
   2.8259431  66.8933590 106.9616936   4.1787717  66.2230868 107.0733578
  13.5702957  75.4697858 124.0953145  12.6829736  75.1323779 124.2179544
  14.1401508  74.7380889 124.3321910   7.1004111  80.1299310 121.0614388
   7.0274282  80.9354281 121.5733692   6.6581504  80.3291276 120.2362409
   6.8893890  79.3671080 114.5717209   6.1061412  79.9092760 114.6655434
   7.5886636  79.8845060 114.9711451  10.1990540  65.1765709 117.2151415
  10.6959240  64.4235672 116.8952485   9.4277522  65.2130026 116.6494624
  18.0520298  70.8806075 118.8569706  18.0410174  71.7630790 118.4863639
  17.1837677  70.5277626 118.6624243   9.5602794  80.0286144 123.2172547
  10.2730766  80.6633609 123.1448448   9.0692823  80.1250010 122.4012548
  11.2820321  73.9337397 114.7889838  10.3476600  74.0538859 114.6194543
  11.4596990  73.0309863 114.5249848   6.7825509  67.3183092 116.9423099
   6.4123297  66.7654133 117.6304005   7.2784602  66.7141226 116.3898099
  14.6692873  69.7754716 115.3239872  15.1353325  70.6082708 115.2500175
  15.1200373  69.3099698 116.0285131   4.6114708  77.7780587 124.0378117
   5.3124167  78.4117070 124.1907512   4.1409823  78.1195319 123.2773757
  12.7369104  76.1198537 112.3226024  13.0128948  76.0055132 113.2319898
  11.8673602  75.7216022 112.2838197  12.6409535  62.1435303 119.3630774
  11.7272615  62.3739530 119.5312981  13.0702637  62.2273747 120.2144806
  12.4115994  70.3325195 121.8630668  11.7587444  70.5801102 121.2083120
  12.7896374  69.5189333 121.5293145   9.3723168  80.3684888 115.9658838
   9.5545562  79.5506544 116.4286590  10.1956154  80.5852580 115.5283728
   9.7065333  79.2953073 113.2273886  10.2353100  78.7845528 112.6144049
   9.9693553  78.9795603 114.0919420   8.4603567  71.0745006 128.3496705
   7.7844204  70.9739135 129.0199080   9.2831201  70.9184220 128.8132702
   3.0621081  80.3468190 115.9871662   2.3931456  80.8314318 115.5035702
   2.9233951  80.5937410 116.9015041   7.2026350  82.3811933 122.5854321
   7.7544658  82.5443555 123.3503406   7.5432543  82.9716371 121.9134346
   2.1790843  64.7287083 123.1876205   2.2432169  65.5901914 122.7753603
   2.1157963  64.1161085 122.4548564   1.6543115  66.8010216 126.8349240
   2.2815154  66.4187293 127.4486764   0.7971034  66.5824418 127.2004932
  12.0537224  77.2073191 128.4402975  12.5977128  77.8203149 127.9457930
  11.4724069  77.7652769 128.9569988  10.3394737  80.3293909 119.5718003
  10.2145876  79.5283649 119.0628948  10.9973828  80.8240102 119.0831973
   1.9602905  66.6842641 118.7495143   1.2389491  67.2978609 118.6102616
   2.7496161  67.2200406 118.6711789  12.4029645  78.1302929 121.1997553
  11.4559981  78.0108280 121.1275880  12.7512418  77.2425427 121.2823814
   4.7629219  64.0197068 125.0235795   5.2863621  64.2659364 125.7862104
   4.5441552  64.8517103 124.6038932   9.4076079  77.9255645 117.4001905
   9.2601041  76.9972353 117.5809475  10.2329572  77.9475736 116.9158980
   3.2738323  66.5773712 113.2582397   3.6134395  67.1059634 112.5361006
   3.7210443  66.9154118 114.0340964  13.0110200  78.7484204 118.4866778
  13.9356748  78.5427065 118.3491229  12.8425504  78.5000605 119.3956120
   5.9681764  64.9610763 122.7085465   5.6278584  64.1618576 123.1106145
   5.2620770  65.2612474 122.1362299   6.6198236  62.0460075 121.1612788
   7.4424305  61.5720554 121.0391679   6.8636299  62.8250559 121.6611475
   5.2606470  65.0748334 111.4575690   5.9814833  65.4529587 110.9539407
   4.6371774  65.7937211 111.5610668   9.4037593  65.7793483 112.3934022
   9.6201207  66.6618121 112.0922851   8.9231660  65.3879696 111.6639664
   4.1436814  68.7379196 118.9704767   3.9981395  69.0519499 119.8629049
   3.6662018  69.3564096 118.4175666   6.0033197  65.7281744 119.0185657
   5.9894766  64.8322837 118.6817955   6.7205625  65.7352408 119.6523943
   7.8559328  66.1619084 121.0638784   7.5977106  67.0836155 121.0623115
   7.3244368  65.7649519 121.7539248  12.8005517  79.2669871 113.8428869
  12.9742394  78.7016294 113.0902722  13.2934408  80.0670766 113.6608359
   5.4070093  64.6096124 114.2873227   5.5286004  63.6812771 114.4864114
   5.1172136  64.6234810 113.3751542   8.2761284  62.2951035 117.4239947
   8.2982980  62.3590368 116.4691926   8.6929343  61.4555543 117.6180453
  18.6544908  72.0306294 115.4619169  19.0976054  71.2813620 115.0638292
  17.7771418  72.0216431 115.0792901  13.7880689  78.5836636 110.9425768
  14.4831594  79.2043328 111.1613082  14.1303839  77.7331987 111.2178146
  15.6872112  76.0336341 112.4713099  16.2123436  76.3723614 111.7462419
  15.5994465  75.0983357 112.2876233   7.3492161  79.9470415 124.6002975
   7.6579287  79.7019562 125.4725675   8.1467643  80.1517053 124.1121845
   7.3712773  82.1008325 116.8308352   6.9317763  81.6084703 117.5241208
   8.1220890  81.5581292 116.5900427   4.8186645  77.6446334 118.9030653
   4.1966654  76.9817039 118.6032881   5.4891512  77.6707466 118.2204301
   4.8911173  66.1228122 128.4963159   4.9399328  66.9990245 128.1140929
   5.4333687  65.5805515 127.9234803  15.3766018  76.6669245 127.7764296
  14.5861562  76.6493384 127.2368796  15.1399373  77.2057539 128.5313333
  15.4963893  73.5161711 125.0897025  15.5461898  73.3511719 126.0312548
  15.3877817  72.6488970 124.6994906   4.3800152  76.1950257 112.3789114
   4.5288272  76.8785721 111.7255787   5.1866596  76.1755347 112.8938570
  12.7867656  69.4992639 126.4056332  13.6877519  69.3599104 126.1140330
  12.8615630  69.6647094 127.3454509   7.1210461  66.8759494 125.2509518
   6.2513771  67.1693060 124.9792107   7.3569941  67.4599939 125.9716782
  16.9982090  75.9358653 125.3339047  16.7066899  76.2988633 126.1702508
  16.3854222  75.2225661 125.1552379  18.1977773  73.5011533 117.8541617
  19.0324664  73.9401337 118.0179177  18.3336901  73.0250186 117.0349863
  15.2469278  71.0591268 123.8019105  15.7223400  71.2518914 122.9937956
  14.3234844  71.1150453 123.5562488   2.1352785  72.2215435 113.3850183
   1.8898827  71.3177765 113.5830393   2.3048700  72.2232585 112.4429661
   9.8249495  63.0939111 122.7674938  10.3431439  63.8300138 122.4421427
   9.4704628  63.4003104 123.6021698   1.4048433  67.9543792 110.8836344
   0.7117678  68.0288147 110.2276380   1.1600185  67.1904136 111.4057861
  10.0762089  59.5139394 118.2875835  10.3563843  58.8462583 118.9136262
  10.8612696  59.7068489 117.7750499   7.8795558  78.6898387 109.8500861
   7.3069525  79.3088575 109.3971333   8.4528351  79.2397749 110.3840783
  13.9470947  67.9357028 122.0347410  14.8988370  68.0355125 122.0559634
  13.7774398  67.1435296 122.5445495  11.9685327  65.0212611 122.2206811
  11.3735259  65.3017624 121.5253300  11.6835024  65.5106512 122.9923552
  11.0992817  78.9735538 110.9809444  12.0323491  78.9081099 111.1842319
  11.0116030  79.8091804 110.5223976  13.7280834  78.2901408 107.9413391
  13.6494466  77.9561272 108.8349149  14.5490501  78.7823176 107.9404864
  16.4259025  71.1563147 121.1489710  16.3935345  70.2179148 121.3349394
  17.0359649  71.2347184 120.4155535   8.2642356  70.0259200 107.1916914
   9.2101461  69.8965408 107.2605332   7.8856601  69.2873862 107.6686342
  16.5753514  67.9474191 121.1947993  16.0592562  67.1632647 121.0077922
  17.4593462  67.6192907 121.3594512  14.2364241  61.6915206 117.1543806
  14.0389062  61.3830294 118.0387138  14.8463946  62.4176845 117.2841736
  22.2435575  72.2179154 120.2895747  22.9738964  71.9564442 120.8503450
  21.6342521  71.4807876 120.3297815  20.3250872  70.3587017 120.8870198
  19.5984036  70.2242982 120.2786689  19.9098159  70.6663845 121.6926916
   8.1481049  74.0776946 128.6517571   9.0684058  74.2555545 128.8457617
   8.1130632  73.1332992 128.4997270   6.4485273  67.9509177 107.1271799
   5.5416729  67.6542289 107.2034513   6.7261254  67.6538995 106.2606085
   1.1443121  71.9877981 121.2940352   1.3629131  72.9195089 121.3128386
   1.5568895  71.6285955 122.0795156   8.0647339  62.4946066 113.2816040
   7.2548067  62.1493151 113.6571286   8.7531756  62.1853610 113.8703652
   9.9937887  61.5724113 114.9040337  10.5468926  61.9919567 115.5630360
  10.2307974  60.6459861 114.9463293   6.0170987  67.5611187 130.6843101
   5.9167713  68.5105544 130.6155192   5.7992529  67.2329426 129.8119171
   5.2184058  64.8096112 107.2683778   6.0803222  65.1351010 107.5279596
   5.4034402  64.0227608 106.7556844  13.3716694  63.6824638 114.4119001
  12.7915363  64.3409442 114.0297054  13.1052627  62.8601983 114.0006419
  11.8220261  63.0829696 116.6140322  12.3220039  63.1946231 115.8054640
  12.4655869  62.7790749 117.2541130   5.8802257  70.9908326 129.5008163
   5.3969338  71.7908686 129.7072052   5.9663196  71.0016271 128.5475607
   1.8075594  74.8812860 121.5376596   2.7618848  74.8496803 121.4706528
   1.6088118  74.4203484 122.3526822   2.3974976  73.4513976 124.1047394
   3.2167865  73.9458055 124.1282231   2.6711784  72.5345945 124.0764962
  12.1541572  65.8424729 113.4675350  11.2667427  66.1274379 113.2495544
  12.5695561  65.6818492 112.6202626  15.5056109  65.8671250 117.1829689
  16.2816499  66.3567702 117.4554306  14.7804243  66.2929304 117.6401558
  17.9428667  66.5798869 118.2403629  18.5373158  66.3394605 117.5296938
  18.0155251  65.8605999 118.8677166  11.2984786  75.6069403 107.5623369
  12.0020636  75.8119406 108.1781025  10.5747435  76.1746165 107.8272453
  12.1282596  71.3579265 113.6825640  12.0717798  71.8147816 112.8433272
  12.6810939  70.5969949 113.5048482  15.9387402  67.1468997 114.5075759
  15.6824336  66.7465632 115.3383967  15.3140270  67.8612790 114.3825898
  20.2499740  69.8865070 117.0147051  19.6899298  69.9558259 117.7878613
  19.6443243  69.7106054 116.2946547   3.3194949  81.3201797 118.7665237
   3.2027333  82.2647229 118.6643927   2.4987395  81.0175358 119.1551036
  13.2071483  76.0451933 109.6121830  14.0417087  75.6133131 109.4299304
  13.0455826  75.8733946 110.5398724  12.8617375  72.5484046 110.9778169
  12.8066179  72.3828317 110.0366613  12.2363431  73.2560079 111.1340359
  10.1763283  74.8532958 130.3031732  11.0454442  75.0273610 129.9418367
   9.6970034  75.6727375 130.1807461   6.1713501  62.0492155 110.5563487
   6.1592171  62.9933995 110.7131758   7.0636923  61.8662300 110.2622948
   4.3449463  81.9730059 121.9821165   5.2476710  82.0053669 122.2987660
   4.1186833  81.0430510 121.9967501   6.1003065  80.7261045 118.6431244
   5.1498696  80.7262907 118.5295616   6.4035551  79.9793780 118.1267279
   9.9865620  58.6434932 114.8109424   9.2198016  58.0893418 114.9566106
  10.3976325  58.7156800 115.6723576   1.9907381  64.9319727 128.9014605
   2.8538843  64.5756532 129.1117930   1.4172792  64.5933622 129.5890010
  21.8355758  86.5621584 119.7077006  22.4734168  86.4428331 119.0040346
  21.7176601  87.5102428 119.7664958  18.6445465  86.5149012 119.6438531
  18.3063976  86.3990076 118.7559066  19.5135233  86.1140177 119.6239537
  14.5032280  88.3684488 115.6335422  13.9397145  88.2774425 114.8651710
  14.3884675  87.5484393 116.1137914  19.1265248  87.6683864 125.6024737
  19.1153888  87.2736662 124.7305240  19.2885887  86.9349936 126.1958508
  12.0496712  89.8635680 118.4719642  12.8418004  89.5226504 118.0565942
  12.2893362  89.9730655 119.3921796  20.0831839  92.0355456 110.9449887
  19.4319819  92.6209536 110.5583901  20.8776202  92.5661651 111.0044924
  14.0087466  89.1244593 111.3437021  14.7818342  88.5773580 111.2049897
  14.3612865  89.9888842 111.5551483  15.8472509  90.4520975 124.5503920
  15.5562375  91.3566606 124.4350587  16.4829493  90.4937503 125.2647990
  16.7728716  87.8297824 121.1405280  17.3692288  87.6053846 120.4262243
  16.8303687  87.0882569 121.7430728  16.3453744  85.2837259 108.9755471
  16.5979265  84.7618780 108.2138934  15.4078303  85.1203405 109.0782155
  21.3897027  84.2873038 116.7830214  22.1760116  83.8692461 116.4320631
  21.6535731  85.1919130 116.9511863  21.5607104  89.7245888 111.4818871
  20.9252937  89.7980514 112.1939776  21.2304511  90.3139487 110.8037950
  26.7905454  84.2248271 117.6863193  27.5230626  83.6547488 117.9201022
  26.0344810  83.8369871 118.1269698  16.0650033  87.1865365 111.1779846
  15.9486291  86.5110269 111.8460930  16.1752293  86.6997739 110.3611999
  18.4081574  86.6475512 114.8826535  18.0439781  86.1206133 115.5939457
  19.2648690  86.2573981 114.7093021  24.3130874  77.9369845 122.1457801
  23.9814199  78.8065256 121.9219016  23.7176488  77.6206129 122.8251832
  18.0487061  81.6765412 109.8787884  18.2161463  82.5445648 110.2458355
  17.8584230  81.8392694 108.9549173  20.8062394  90.1382391 121.5453714
  20.5063117  91.0407430 121.4369521  20.4613453  89.8714574 122.3974867
  14.2574875  86.5896188 117.5790419  13.3325372  86.4572402 117.7868110
  14.5059289  87.3690407 118.0760361  24.2059538  82.6564931 119.2251152
  23.2976415  82.5880339 118.9309912  24.1547133  83.1336876 120.0532977
  18.0276282  84.1323069 110.8634551  17.9075907  84.5780120 111.7020031
  17.3328870  84.4808387 110.3048089  11.6183686  86.2329461 118.4134208
  11.7476068  86.4863940 119.3273619  10.9381138  86.8257169 118.0938863
  15.7883174  96.9026711 114.5124682  15.7107203  97.8534536 114.5913162
  15.1844817  96.5572584 115.1699608  18.2800403  84.0754577 127.1686049
  17.5033737  84.6348497 127.1588913  18.9190966  84.5611360 127.6900919
  26.0721184  80.8581369 121.0029025  25.4295564  81.1513903 120.3568820
  25.5676113  80.7434290 121.8082222  23.7261348  84.6044543 111.6914885
  24.6379204  84.8371929 111.5162582  23.2170995  85.1881587 111.1289963
  16.5346776  86.8840030 126.7304016  17.2761460  87.4225074 126.4538839
  15.8283761  87.5106319 126.8875568  22.0102115  89.0269170 125.3276177
  22.4185471  88.5851581 124.5830810  21.2879377  88.4521798 125.5810370
  18.3633185  83.9641777 122.7009734  19.2094381  84.3881191 122.8444383
  18.3031823  83.3075402 123.3948297  22.3330930  89.5870361 119.0828466
  21.7039792  89.7516075 118.3804534  21.9456592  90.0011971 119.8539430
  26.2120162  90.5224799 116.4372830  25.5271200  90.9023700 115.8869863
  26.2964011  91.1320126 117.1704778  21.5132631  81.6246146 124.3590908
  21.2693563  82.3788206 123.8225184  21.7892561  82.0031493 125.1938155
  23.4671094  88.1684758 123.0368173  23.6787989  88.8116518 122.3602555
  23.4200842  87.3347074 122.5690104  21.0697322  80.7802579 119.9404746
  20.2081802  81.0783832 120.2321483  21.0959757  80.9972977 119.0085778
  17.8858892  89.3244769 116.3478551  18.3497237  89.6032472 115.5583174
  17.6215690  88.4228214 116.1651642  14.7782973  88.8716251 119.2858315
  15.3484330  89.3003519 118.6475799  15.3691085  88.5898835 119.9842500
  16.8227778  85.4467922 113.1568116  17.5251821  85.8988965 113.6242043
  16.4908406  84.8051740 113.7848010  15.2708139  84.0379678 127.5319326
  14.6406800  84.7195959 127.7654723  15.1644227  83.9262760 126.5872464
  10.5653112  83.7051474 118.4585250   9.7752166  83.9609003 117.9825361
  11.0564359  84.5199812 118.5637290  24.5816921  91.0456713 121.2090531
  25.4034365  90.6436901 120.9273212  24.5779324  90.9424948 122.1606647
  12.5167857  84.0696053 115.4168727  11.7199021  84.1814748 115.9352222
  12.2893449  84.4082706 114.5509617  18.3473525  90.5940757 123.3651241
  18.4117957  91.0561164 124.2009413  17.6384449  89.9638122 123.4933551
   8.8490815  83.9581965 120.8900241   9.0998853  84.8428975 121.1557817
   9.3850363  83.7786566 120.1175333  32.6722915  87.3895462 117.5575502
  31.9186623  86.8202860 117.4019507  32.8070456  87.3558126 118.5046137
  18.0621543  92.2608864 113.2330222  17.9267217  93.1060400 113.6615069
  18.6031355  92.4628142 112.4696155  14.5488882  78.3400444 129.8944577
  14.1555828  77.7866643 130.5692221  15.3655023  78.6511022 130.2851094
  11.5150940  89.7784302 113.8058147  12.0275461  90.5727552 113.9563711
  12.1673653  89.0810593 113.7391748  13.3245825  92.8950058 115.8880900
  13.5012453  93.8168023 115.7001884  14.1202658  92.5808478 116.3175280
  17.4656843  79.7558323 127.4864833  18.2066557  80.3565476 127.4069296
  17.6974766  79.0135961 126.9282876  12.6098181  84.9414690 125.7643063
  12.4951696  84.0399948 126.0650162  11.7542699  85.1878387 125.4127880
  19.6890019  92.8832431 127.3630564  19.2453873  92.0968809 127.0451468
  20.3507233  93.0711581 126.6974454  14.4477140  94.4128232 121.8891242
  14.9984565  94.2845296 121.1168236  13.6088616  94.7123121 121.5386135
  21.7871257  93.1635231 125.3911965  21.7689732  93.9844112 124.8992234
  22.7091177  93.0389306 125.6162106  18.2444311  90.6779360 126.2335473
  18.7772648  89.9167648 126.0034781  17.7158392  90.3853012 126.9759628
  21.4114006  75.7839426 121.7629115  21.0678276  76.6741068 121.6868226
  21.7792969  75.5941084 120.8998700   9.4799857  88.1072956 114.5817717
  10.3175079  88.5169965 114.3651425   9.6578124  87.1672399 114.5517911
  21.3764289  85.7748037 110.2701550  20.8610912  86.5452642 110.5089938
  21.1041597  85.1013173 110.8934612  18.9611400  80.6197738 115.3286789
  18.1052996  80.2304588 115.1492427  19.3738352  80.6989699 114.4686574
  20.4910547  78.1544081 119.7278348  19.9875342  78.1174216 118.9146154
  20.7841153  79.0636824 119.7875005  16.7353432  78.2382811 118.7344530
  17.6006429  78.0425620 118.3750420  16.8030941  78.0093163 119.6613887
  26.3498563  88.5280392 112.2054724  25.5728006  88.1891551 111.7609886
  27.0290044  88.5333015 111.5309689  21.1650592  83.6475129 112.0961331
  20.8600728  83.9621278 112.9471475  22.1181034  83.7256549 112.1388664
  19.6097024  89.8065353 113.7454285  19.0818385  89.0718112 113.4327523
  19.1084527  90.5840029 113.4994254  24.5889870  88.0014373 118.8621332
  23.9313544  88.6913634 118.9501460  25.3930269  88.3910805 119.2055318
  14.3415751  80.4685019 116.1060897  14.9159503  80.2460200 115.3734090
  14.9286734  80.5373713 116.8589498  23.3995329  86.3558746 116.9125273
  23.9127210  86.9888738 117.4146983  24.0496553  85.7559941 116.5468633
  14.6685339  82.4989480 110.1256782  13.8322651  82.8364166 110.4466057
  14.5290108  82.3638460 109.1883919  16.6438419  77.3426268 114.8335966
  15.9902832  77.0275285 114.2092581  16.6018893  76.7202008 115.5595789
  17.7549624  87.6245563 106.7489258  16.8476686  87.3934816 106.9480407
  18.2520656  86.8283182 106.9363240  20.6617703  96.3343070 109.6685945
  19.9879402  96.6374767 110.2770902  21.0483525  97.1372150 109.3191402
  19.8776160  83.8308201 119.1583614  18.9598721  84.0523148 119.0005302
  20.2936303  83.9054512 118.2995321  20.6611207  85.2299617 114.2886294
  21.4083026  85.7421014 113.9793416  20.9302797  84.9083670 115.1490688
  18.9337857  87.7258158 111.2713248  18.0249077  87.4417190 111.3685718
  18.9632941  88.1457236 110.4116555  24.1657125  91.3364747 115.0404416
  23.7119452  90.4955657 115.0969607  23.5351092  91.9726146 115.3779196
  23.1090044  82.2656733 116.2705083  22.3712801  81.7534119 116.6015326
  23.3616818  81.8257115 115.4588360  22.6090064  93.1741244 115.9754234
  22.9013039  93.7346301 115.2566600  23.1188685  93.4669805 116.7307393
  23.2101672  75.0432985 116.8646853  23.5160549  74.1830349 116.5772768
  23.9354277  75.6350605 116.6645847   9.5026028  85.4463672 115.2528451
   9.3050428  84.8533033 114.5279517   8.9472692  85.1415882 115.9704389
  17.4822752  85.3386778 117.3723044  17.5371361  84.3860615 117.2965520
  16.6713954  85.4946217 117.8564342  18.6313945  89.2666901 108.6101327
  18.1933375  88.5502760 108.1506964  19.3724386  89.4943016 108.0486418
  15.4215111  83.9563838 115.1313423  14.6082977  84.2558009 115.5378615
  15.9174106  83.5619527 115.8487905  17.5723689  93.9521595 117.0647687
  17.5299868  94.1782441 116.1356219  18.4886388  93.7184970 117.2133489
  21.0189323  84.4205663 123.9628317  21.3738711  84.6477136 124.8222782
  21.6661454  84.7524039 123.3405572  26.7487060  87.5424098 114.6677646
  26.6104959  87.7325694 113.7398835  26.3923279  88.3043481 115.1245697
  14.9129186  81.5282194 120.7474658  15.5528566  81.3870953 120.0497621
  14.0806717  81.2416707 120.3713260  26.7756440  89.6100625 119.6788917
  27.2092946  89.5175914 120.5271971  27.4888020  89.5858126 119.0408933
  15.6889490  90.8284624 116.8609650  16.4830089  90.3334944 116.6592225
  14.9781183  90.3002487 116.4977356  20.5084335  93.2102720 121.2122018
  20.5621357  93.7793656 121.9799734  19.6399116  93.3804605 120.8476055
  11.9972254  84.9727706 112.9369403  11.0669842  84.9112161 113.1539365
  12.0929726  84.4503658 112.1406044  11.9157803  81.4982519 115.5247644
  12.1764620  82.4127852 115.4156805  12.7374975  81.0306961 115.6744257
  13.3882728  82.9120276 122.6946469  14.0605781  82.7037638 122.0459118
  12.5612515  82.7142362 122.2551701  27.6371989  89.6524326 122.2121803
  27.8307879  90.5570137 122.4581077  27.5372607  89.1931745 123.0460388
  19.2908300  79.5382217 124.7112130  18.6436215  80.2372166 124.6176606
  20.0609315  79.9718361 125.0788378  22.6987098  89.8031069 127.7862683
  22.5472604  89.5741620 126.8692767  22.6891777  90.7601670 127.7994028
  19.4672434  87.3762982 122.7708950  20.3964494  87.5274141 122.5977917
  19.0463464  87.4647002 121.9157596  18.2660766  91.4013646 120.5407487
  18.1271852  91.0332430 121.4133425  17.4775362  91.9161285 120.3691445
  18.8608918  96.5022742 111.8833024  19.0360674  96.0310786 112.6978646
  18.1741706  97.1288509 112.1114284  19.8165981  90.7795249 117.9296325
  19.4815814  90.7396019 118.8253975  19.3169927  90.1139965 117.4566735
  13.7910225  86.1862879 123.4548906  13.6530023  85.4543118 124.0560445
  14.7015149  86.0971779 123.1733094  22.7525173  88.1251283 108.2033385
  22.1354344  87.3998111 108.1066437  22.2841661  88.8860643 107.8600459
  16.4192526  85.8982838 122.9432586  17.1292144  85.2576030 122.9019204
  16.3761834  86.1495733 123.8658767  24.4079305  92.8350191 125.8639165
  24.3491851  92.1509411 125.1969748  24.8098823  93.5769181 125.4119791
  15.1321460  82.8848056 124.7628225  14.5958817  82.4338794 125.4149822
  14.5438168  83.0193965 124.0198690  13.4270003  99.6512105 118.6572884
  13.6666602 100.2830629 119.3351902  12.5839200  99.3000145 118.9438243
  14.5423719  82.3436707 107.3254689  13.6653185  82.2225508 106.9616936
  15.0181472  81.5522786 107.0733578  24.4096712  90.7989775 124.0953145
  23.5223491  90.4615697 124.2179544  24.9795263  90.0672807 124.3321910
   6.0625859  87.1313867 117.4196196   6.7496899  86.8175597 116.8317211
   5.9073988  88.0355232 117.1463447  10.8660581  82.0204064 121.8481220
  10.7818770  81.4129733 121.1131630  10.0443288  82.5113082 121.8490716
  17.9397865  95.4591228 121.0614388  17.8668037  96.2646199 121.5733692
  17.4975258  95.6583193 120.2362409  17.7287645  94.6962998 114.5717209
  16.9455167  95.2384678 114.6655434  18.4280390  95.2136977 114.9711451
  21.0384295  80.5057627 117.2151415  21.5352995  79.7527589 116.8952485
  20.2671276  80.5421944 116.6494624  28.8914052  86.2097993 118.8569706
  28.8803929  87.0922708 118.4863639  28.0231432  85.8569543 118.6624243
  20.3996549  95.3578062 123.2172547  21.1124521  95.9925526 123.1448448
  19.9086577  95.4541928 122.4012548  22.1214076  89.2629314 114.7889838
  21.1870354  89.3830777 114.6194543  22.2990744  88.3601781 114.5249848
  17.6219264  82.6475010 116.9423099  17.2517051  82.0946050 117.6304005
  18.1178356  82.0433144 116.3898099  25.5086627  85.1046634 115.3239872
  25.9747079  85.9374625 115.2500175  25.9594128  84.6391615 116.0285131
  15.4508462  93.1072505 124.0378117  16.1517922  93.7408988 124.1907512
  14.9803577  93.4487237 123.2773757  23.5762858  91.4490455 112.3226024
  23.8522702  91.3347049 113.2319898  22.7067357  91.0507940 112.2838197
  23.4803290  77.4727221 119.3630774  22.5666370  77.7031447 119.5312981
  23.9096391  77.5565665 120.2144806  23.2509748  85.6617113 121.8630668
  22.5981198  85.9093020 121.2083120  23.6290128  84.8481251 121.5293145
  20.2116922  95.6976806 115.9658838  20.3939317  94.8798462 116.4286590
  21.0349908  95.9144498 115.5283728  20.5459088  94.6244991 113.2273886
  21.0746854  94.1137445 112.6144049  20.8087307  94.3087521 114.0919420
  19.2997321  86.4036924 128.3496705  18.6237958  86.3031053 129.0199080
  20.1224955  86.2476137 128.8132702  11.0476180  92.6408860 120.9709220
  11.6329617  91.8952548 121.1037124  10.8501019  92.9512817 121.8545884
  13.9014836  95.6760108 115.9871662  13.2325211  96.1606235 115.5035702
  13.7627705  95.9229328 116.9015041   5.6393835  85.2114460 119.6913663
   5.6777935  84.6778051 120.4850781   5.1334128  84.6849666 119.0724640
  18.0420104  97.7103851 122.5854321  18.5938412  97.8735473 123.3503406
  18.3826298  98.3008289 121.9134346  13.0184597  80.0579001 123.1876205
  13.0825924  80.9193832 122.7753603  12.9551718  79.4453003 122.4548564
  12.4936870  82.1302133 126.8349240  13.1208909  81.7479211 127.4486764
  11.6364789  81.9116335 127.2004932  22.8930978  92.5365109 128.4402975
  23.4370882  93.1495067 127.9457930  22.3117823  93.0944687 128.9569988
   9.2702413  83.9378563 112.7667595   9.5655854  83.0289241 112.7134648
   8.3690448  83.9166302 112.4448597  21.1788491  95.6585827 119.5718003
  21.0539631  94.8575566 119.0628948  21.8367583  96.1532020 119.0831973
  12.7996660  82.0134559 118.7495143  12.0783245  82.6270527 118.6102616
  13.5889915  82.5492324 118.6711789  23.2423400  93.4594847 121.1997553
  22.2953735  93.3400198 121.1275880  23.5906173  92.5717345 121.2823814
  15.6022973  79.3488986 125.0235795  16.1257375  79.5951282 125.7862104
  15.3835306  80.1809020 124.6038932  10.9990254  81.6192660 112.8906920
  10.6702960  80.7390039 112.7082026  11.3529625  81.5640329 113.7783309
  20.2469833  93.2547563 117.4001905  20.0994796  92.3264270 117.5809475
  21.0723327  93.2767654 116.9158980  14.1132077  81.9065630 113.2582397
  14.4528150  82.4351551 112.5361006  14.5604198  82.2446036 114.0340964
  23.8503955  94.0776122 118.4866778  24.7750502  93.8718983 118.3491229
  23.6819258  93.8292523 119.3956120  16.8075518  80.2902681 122.7085465
  16.4672339  79.4910494 123.1106145  16.1014525  80.5904392 122.1362299
  17.4591990  77.3751993 121.1612788  18.2818059  76.9012471 121.0391679
  17.7030054  78.1542477 121.6611475  16.1000225  80.4040252 111.4575690
  16.8208587  80.7821504 110.9539407  15.4765529  81.1229128 111.5610668
  20.2431347  81.1085401 112.3934022  20.4594962  81.9910038 112.0922851
  19.7625415  80.7171614 111.6639664  14.9830569  84.0671114 118.9704767
  14.8375150  84.3811417 119.8629049  14.5055772  84.6856014 118.4175666
  16.8426952  81.0573662 119.0185657  16.8288520  80.1614755 118.6817955
  17.5599380  81.0644326 119.6523943  18.6953082  81.4911002 121.0638784
  18.4370860  82.4128073 121.0623115  18.1638123  81.0941437 121.7539248
  23.6399271  94.5961789 113.8428869  23.8136149  94.0308212 113.0902722
  24.1328162  95.3962684 113.6608359   9.4576231  86.6076458 121.9092428
   8.9129699  87.3836266 122.0412703  10.3355581  86.9547263 121.7511550
  16.2463848  79.9388042 114.2873227  16.3679759  79.0104688 114.4864114
  15.9565890  79.9526728 113.3751542  19.1155038  77.6242952 117.4239947
  19.1376735  77.6882286 116.4691926  19.5323097  76.7847461 117.6180453
  29.4938662  87.3598212 115.4619169  29.9369808  86.6105537 115.0638292
  28.6165173  87.3508348 115.0792901  24.6274444  93.9128554 110.9425768
  25.3225348  94.5335246 111.1613082  24.9697594  93.0623905 111.2178146
  10.2442253  85.7346354 124.8022585   9.5023989  85.8828990 125.3887216
   9.9234997  85.9954620 123.9389335  26.5265867  91.3628259 112.4713099
  27.0517191  91.7015532 111.7462419  26.4388219  90.4275274 112.2876233
  18.1885915  95.2762333 124.6002975  18.4973042  95.0311479 125.4725675
  18.9861398  95.4808971 124.1121845  18.2106528  97.4300242 116.8308352
  17.7711518  96.9376621 117.5241208  18.9614644  96.8873210 116.5900427
  10.6898867  93.6211783 116.8332980  11.5156886  93.3215555 116.4531623
  10.3392919  92.8519406 117.2822768  15.6580400  92.9738251 118.9030653
  15.0360409  92.3108956 118.6032881  16.3285267  92.9999383 118.2204301
   8.8907472  91.5398110 117.7921913   8.0539380  91.1120284 117.6105915
   8.8631117  91.7330553 118.7292705  15.7304927  81.4520039 128.4963159
  15.7793083  82.3282162 128.1140929  16.2727441  80.9097432 127.9234803
  26.2159773  91.9961163 127.7764296  25.4255317  91.9785302 127.2368796
  25.9793127  92.5349456 128.5313333  26.3357648  88.8453629 125.0897025
  26.3855653  88.6803636 126.0312548  26.2271571  87.9780888 124.6994906
  15.2193907  91.5242175 112.3789114  15.3682027  92.2077639 111.7255787
  16.0260350  91.5047265 112.8938570  23.6261410  84.8284557 126.4056332
  24.5271273  84.6891022 126.1140330  23.7009385  84.9939012 127.3454509
  17.9604216  82.2051412 125.2509518  17.0907525  82.4984978 124.9792107
  18.1963696  82.7891857 125.9716782  27.8375845  91.2650571 125.3339047
  27.5460653  91.6280551 126.1702508  27.2247976  90.5517579 125.1552379
  29.0371527  88.8303450 117.8541617  29.8718418  89.2693254 118.0179177
  29.1730656  88.3542104 117.0349863  26.0863033  86.3883185 123.8019105
  26.5617155  86.5810831 122.9937956  25.1628598  86.4442371 123.5562488
  12.9746540  87.5507352 113.3850183  12.7292582  86.6469682 113.5830393
  13.1442454  87.5524503 112.4429661  20.6643249  78.4231029 122.7674938
  21.1825193  79.1592056 122.4421427  20.3098382  78.7295022 123.6021698
  12.2442187  83.2835710 110.8836344  11.5511432  83.3580065 110.2276380
  11.9993939  82.5196054 111.4057861  20.9155844  74.8431311 118.2875835
  21.1957597  74.1754500 118.9136262  21.7006451  75.0360407 117.7750499
  18.7189312  94.0190305 109.8500861  18.1463279  94.6380492 109.3971333
  19.2922106  94.5689667 110.3840783  24.7864702  83.2648945 122.0347410
  25.7382125  83.3647043 122.0559634  24.6168152  82.4727214 122.5445495
  22.8079081  80.3504528 122.2206811  22.2129014  80.6309541 121.5253300
  22.5228778  80.8398429 122.9923552  21.9386572  94.3027455 110.9809444
  22.8717245  94.2373017 111.1842319  21.8509785  95.1383722 110.5223976
  24.5674589  93.6193326 107.9413391  24.4888220  93.2853189 108.8349149
  25.3884255  94.1115094 107.9404864  27.2652780  86.4855065 121.1489710
  27.2329100  85.5471066 121.3349394  27.8753403  86.5639102 120.4155535
  19.1036111  85.3551118 107.1916914  20.0495215  85.2257326 107.2605332
  18.7250356  84.6165780 107.6686342  27.4147268  83.2766108 121.1947993
  26.8986317  82.4924565 121.0077922  28.2987217  82.9484825 121.3594512
  25.0757995  77.0207124 117.1543806  24.8782816  76.7122212 118.0387138
  25.6857701  77.7468763 117.2841736  33.0829330  87.5471072 120.2895747
  33.8132718  87.2856360 120.8503450  32.4736275  86.8099794 120.3297815
  31.1644627  85.6878934 120.8870198  30.4377790  85.5534899 120.2786689
  30.7491914  85.9955763 121.6926916  18.9874803  89.4068864 128.6517571
  19.9077813  89.5847463 128.8457617  18.9524386  88.4624909 128.4997270
  17.2879028  83.2801094 107.1271799  16.3810483  82.9834207 107.2034513
  17.5655009  82.9830912 106.2606085   8.2056968  84.6007458 117.5770845
   7.8859752  83.7472766 117.2845219   7.6590396  84.8156036 118.3328813
  11.9836876  87.3169899 121.2940352  12.2022885  88.2487007 121.3128386
  12.3962650  86.9577873 122.0795156  18.9041093  77.8237984 113.2816040
  18.0941822  77.4785069 113.6571286  19.5925510  77.5145528 113.8703652
  20.8331642  76.9016031 114.9040337  21.3862680  77.3211484 115.5630360
  21.0701728  75.9751779 114.9463293  16.8564741  82.8903104 130.6843101
  16.7561468  83.8397461 130.6155192  16.6386283  82.5621343 129.8119171
  16.0577812  80.1388030 107.2683778  16.9196976  80.4642928 107.5279596
  16.2428157  79.3519525 106.7556844   8.0745228  88.2210369 119.5463967
   7.3808700  87.8064322 119.0333921   8.8218219  88.2630906 118.9497386
  24.2110449  79.0116556 114.4119001  23.6309118  79.6701360 114.0297054
  23.9446382  78.1893901 114.0006419  22.6614015  78.4121614 116.6140322
  23.1613794  78.5238148 115.8054640  23.3049623  78.1082667 117.2541130
  16.7196011  86.3200243 129.5008163  16.2363093  87.1200603 129.7072052
  16.8056950  86.3308188 128.5475607   9.9881971  88.1528623 117.4229982
   9.9652659  88.2516310 116.4711865  10.2982607  88.9993774 117.7447148
  12.6469349  90.2104778 121.5376596  13.6012602  90.1788720 121.4706528
  12.4481872  89.7495402 122.3526822  13.2368731  88.7805894 124.1047394
  14.0561620  89.2749973 124.1282231  13.5105538  87.8637862 124.0764962
  22.9935327  81.1716646 113.4675350  22.1061182  81.4566297 113.2495544
  23.4089316  81.0110410 112.6202626  26.3449863  81.1963167 117.1829689
  27.1210253  81.6859620 117.4554306  25.6197997  81.6221222 117.6401558
  28.7822422  81.9090787 118.2403629  29.3766912  81.6686523 117.5296938
  28.8549005  81.1897917 118.8677166  11.0019577  95.7524398 118.5546794
  10.8674045  94.9924798 117.9884792  10.5851640  96.4765297 118.0875583
  22.1378540  90.9361321 107.5623369  22.8414390  91.1411324 108.1781025
  21.4141189  91.5038083 107.8272453  22.9676351  86.6871182 113.6825640
  22.9111552  87.1439734 112.8433272  23.5204693  85.9261867 113.5048482
  26.7781157  82.4760914 114.5075759  26.5218091  82.0757550 115.3383967
  26.1534025  83.1904708 114.3825898  31.0893494  85.2156987 117.0147051
  30.5293052  85.2850177 117.7878613  30.4836998  85.0397972 116.2946547
  14.1588703  96.6493715 118.7665237  14.0421087  97.5939147 118.6643927
  13.3381149  96.3467276 119.1551036  24.0465238  91.3743850 109.6121830
  24.8810842  90.9425049 109.4299304  23.8849581  91.2025864 110.5398724
  23.7011130  87.8775964 110.9778169  23.6459934  87.7120235 110.0366613
  23.0757185  88.5851996 111.1340359   8.4903645  83.1144028 124.8039591
   9.1362509  82.6042982 125.2926816   8.2820796  83.8512710 125.3783016
  21.0157037  90.1824875 130.3031732  21.8848197  90.3565528 129.9418367
  20.5363789  91.0019292 130.1807461  17.0107255  77.3784073 110.5563487
  16.9985925  78.3225912 110.7131758  17.9030677  77.1954218 110.2622948
  15.1843217  97.3021976 121.9821165  16.0870464  97.3345587 122.2987660
  14.9580587  96.3722427 121.9967501  16.9396819  96.0552963 118.6431244
  15.9892450  96.0554825 118.5295616  17.2429306  95.3085698 118.1267279
  20.8259375  73.9726849 114.8109424  20.0591771  73.4185336 114.9566106
  21.2370080  74.0448718 115.6723576  12.8301136  80.2611645 128.9014605
  13.6932597  79.9048450 129.1117930  12.2566547  79.9225540 129.5890010
  32.6749513 101.8913501 119.7077006  33.3127923 101.7720249 119.0040346
  32.5570356 102.8394345 119.7664958  29.4839219 101.8440929 119.6438531
  29.1457731 101.7281994 118.7559066  30.3528987 101.4432095 119.6239537
  25.3426035 103.6976406 115.6335422  24.7790900 103.6066343 114.8651710
  25.2278430 102.8776310 116.1137914  29.9659002 102.9975781 125.6024737
  29.9547643 102.6028579 124.7305240  30.1279642 102.2641854 126.1958508
  22.8890467 105.1927597 118.4719642  23.6811759 104.8518422 118.0565942
  23.1287117 105.3022573 119.3921796  30.9225594 107.3647374 110.9449887
  30.2713573 107.9501454 110.5583901  31.7169956 107.8953568 111.0044924
  24.8481221 104.4536511 111.3437021  25.6212097 103.9065498 111.2049897
  25.2006620 105.3180760 111.5551483  26.6866263 105.7812893 124.5503920
  26.3956129 106.6858524 124.4350587  27.3223248 105.8229421 125.2647990
  27.6122470 103.1589742 121.1405280  28.2086042 102.9345764 120.4262243
  27.6697442 102.4174487 121.7430728  27.1847499 100.6129177 108.9755471
  27.4373019 100.0910698 108.2138934  26.2472058 100.4495322 109.0782155
  32.2290781  99.6164955 116.7830214  33.0153871  99.1984378 116.4320631
  32.4929486 100.5211047 116.9511863  32.4000859 105.0537806 111.4818871
  31.7646692 105.1272432 112.1939776  32.0698265 105.6431404 110.8037950
  37.6299208  99.5540188 117.6863193  38.3624380  98.9839405 117.9201022
  36.8738564  99.1661789 118.1269698  26.9043787 102.5157283 111.1779846
  26.7880045 101.8402186 111.8460930  27.0146047 102.0289657 110.3611999
  29.2475328 101.9767430 114.8826535  28.8833535 101.4498051 115.5939457
  30.1042444 101.5865899 114.7093021  35.1524629  93.2661763 122.1457801
  34.8207954  94.1357173 121.9219016  34.5570242  92.9498047 122.8251832
  28.8880815  97.0057330 109.8787884  29.0555218  97.8737566 110.2458355
  28.6977984  97.1684611 108.9549173  31.6456148 105.4674309 121.5453714
  31.3456871 106.3699347 121.4369521  31.3007208 105.2006492 122.3974867
  25.0968630 101.9188105 117.5790419  24.1719126 101.7864319 117.7868110
  25.3453043 102.6982325 118.0760361  35.0453292  97.9856849 119.2251152
  34.1370169  97.9172257 118.9309912  34.9940888  98.4628794 120.0532977
  28.8670036  99.4614987 110.8634551  28.7469661  99.9072038 111.7020031
  28.1722624  99.8100305 110.3048089  22.4577441 101.5621379 118.4134208
  22.5869822 101.8155858 119.3273619  21.7774892 102.1549087 118.0938863
  26.6276928 112.2318629 114.5124682  26.5500958 113.1826454 114.5913162
  26.0238572 111.8864501 115.1699608  29.1194158  99.4046494 127.1686049
  28.3427492  99.9640414 127.1588913  29.7584721  99.8903277 127.6900919
  36.9114939  96.1873287 121.0029025  36.2689319  96.4805820 120.3568820
  36.4069867  96.0726207 121.8082222  34.5655102  99.9336460 111.6914885
  35.4772958 100.1663847 111.5162582  34.0564749 100.5173505 111.1289963
  27.3740530 102.2131948 126.7304016  28.1155215 102.7516992 126.4538839
  26.6677516 102.8398236 126.8875568  32.8495870 104.3561088 125.3276177
  33.2579226 103.9143499 124.5830810  32.1273131 103.7813716 125.5810370
  29.2026940  99.2933695 122.7009734  30.0488135  99.7173108 122.8444383
  29.1425578  98.6367319 123.3948297  33.1724685 104.9162279 119.0828466
  32.5433547 105.0807993 118.3804534  32.7850347 105.3303888 119.8539430
  37.0513916 105.8516717 116.4372830  36.3664955 106.2315618 115.8869863
  37.1357766 106.4612043 117.1704778  32.3526385  96.9538063 124.3590908
  32.1087317  97.7080124 123.8225184  32.6286316  97.3323411 125.1938155
  34.3064848 103.4976676 123.0368173  34.5181743 104.1408436 122.3602555
  34.2594596 102.6638992 122.5690104  31.9091077  96.1094496 119.9404746
  31.0475556  96.4075750 120.2321483  31.9353512  96.3264895 119.0085778
  28.7252646 104.6536687 116.3478551  29.1890992 104.9324390 115.5583174
  28.4609444 103.7520131 116.1651642  25.6176727 104.2008168 119.2858315
  26.1878085 104.6295437 118.6475799  26.2084839 103.9190753 119.9842500
  27.6621532 100.7759839 113.1568116  28.3645576 101.2280883 113.6242043
  27.3302161 100.1343658 113.7848010  26.1101894  99.3671596 127.5319326
  25.4800555 100.0487877 127.7654723  26.0037982  99.2554677 126.5872464
  21.4046866  99.0343392 118.4585250  20.6145920  99.2900920 117.9825361
  21.8958114  99.8491730 118.5637290  35.4210676 106.3748631 121.2090531
  36.2428120 105.9728818 120.9273212  35.4173079 106.2716865 122.1606647
  23.3561612  99.3987971 115.4168727  22.5592775  99.5106665 115.9352222
  23.1287204  99.7374623 114.5509617  29.1867279 105.9232674 123.3651241
  29.2511712 106.3853082 124.2009413  28.4778203 105.2930039 123.4933551
  19.6884569  99.2873882 120.8900241  19.9392608 100.1720892 121.1557817
  20.2244118  99.1078484 120.1175333  43.5116669 102.7187380 117.5575502
  42.7580377 102.1494778 117.4019507  43.6464210 102.6850044 118.5046137
  28.9015297 107.5900782 113.2330222  28.7660972 108.4352318 113.6615069
  29.4425110 107.7920059 112.4696155  25.3882637  93.6692362 129.8944577
  24.9949582  93.1158560 130.5692221  26.2048777  93.9802940 130.2851094
  22.3544694 105.1076220 113.8058147  22.8669215 105.9019470 113.9563711
  23.0067407 104.4102510 113.7391748  24.1639579 108.2241976 115.8880900
  24.3406207 109.1459941 115.7001884  24.9596413 107.9100395 116.3175280
  28.3050598  95.0850241 127.4864833  29.0460311  95.6857394 127.4069296
  28.5368521  94.3427879 126.9282876  23.4491936 100.2706608 125.7643063
  23.3345451  99.3691865 126.0650162  22.5936453 100.5170305 125.4127880
  30.5283773 108.2124348 127.3630564  30.0847628 107.4260727 127.0451468
  31.1900987 108.4003499 126.6974454  25.2870895 109.7420150 121.8891242
  25.8378320 109.6137213 121.1168236  24.4482371 110.0415039 121.5386135
  32.6265012 108.4927148 125.3911965  32.6083487 109.3136029 124.8992234
  33.5484932 108.3681223 125.6162106  29.0838066 106.0071278 126.2335473
  29.6166402 105.2459566 126.0034781  28.5552147 105.7144930 126.9759628
  32.2507761  91.1131344 121.7629115  31.9072030  92.0032985 121.6868226
  32.6186723  90.9233001 120.8998700  20.3193611 103.4364874 114.5817717
  21.1568833 103.8461883 114.3651425  20.4971879 102.4964316 114.5517911
  32.2158043 101.1039955 110.2701550  31.7004667 101.8744559 110.5089938
  31.9435352 100.4305091 110.8934612  29.8005154  95.9489656 115.3286789
  28.9446751  95.5596506 115.1492427  30.2132106  96.0281616 114.4686574
  31.3304301  93.4835999 119.7278348  30.8269097  93.4466134 118.9146154
  31.6234908  94.3928742 119.7875005  27.5747187  93.5674729 118.7344530
  28.4400184  93.3717537 118.3750420  27.6424696  93.3385080 119.6613887
  37.1892317 103.8572309 112.2054724  36.4121760 103.5183469 111.7609886
  37.8683798 103.8624933 111.5309689  32.0044347  98.9767047 112.0961331
  31.6994482  99.2913196 112.9471475  32.9574789  99.0548467 112.1388664
  30.4490778 105.1357270 113.7454285  29.9212140 104.4010030 113.4327523
  29.9478281 105.9131947 113.4994254  35.4283624 103.3306291 118.8621332
  34.7707299 104.0205552 118.9501460  36.2324024 103.7202723 119.2055318
  25.1809506  95.7976937 116.1060897  25.7553258  95.5752118 115.3734090
  25.7680488  95.8665631 116.8589498  34.2389083 101.6850663 116.9125273
  34.7520965 102.3180655 117.4146983  34.8890307 101.0851859 116.5468633
  25.5079093  97.8281398 110.1256782  24.6716405  98.1656084 110.4466057
  25.3683863  97.6930377 109.1883919  27.4832174  92.6718185 114.8335966
  26.8296586  92.3567203 114.2092581  27.4412648  92.0493926 115.5595789
  28.5943379 102.9537480 106.7489258  27.6870440 102.7226734 106.9480407
  29.0914411 102.1575100 106.9363240  31.5011457 111.6634988 109.6685945
  30.8273156 111.9666684 110.2770902  31.8877279 112.4664068 109.3191402
  30.7169914  99.1600119 119.1583614  29.7992475  99.3815066 119.0005302
  31.1330058  99.2346429 118.2995321  31.5004962 100.5591535 114.2886294
  32.2476781 101.0712932 113.9793416  31.7696551 100.2375587 115.1490688
  29.7731612 103.0550075 111.2713248  28.8642831 102.7709108 111.3685718
  29.8026696 103.4749154 110.4116555  35.0050879 106.6656665 115.0404416
  34.5513207 105.8247575 115.0969607  34.3744846 107.3018063 115.3779196
  33.9483799  97.5948651 116.2705083  33.2106556  97.0826037 116.6015326
  34.2010573  97.1549032 115.4588360  33.4483819 108.5033162 115.9754234
  33.7406793 109.0638219 115.2566600  33.9582439 108.7961723 116.7307393
  34.0495426  90.3724903 116.8646853  34.3554303  89.5122266 116.5772768
  34.7748031  90.9642523 116.6645847  20.3419782 100.7755589 115.2528451
  20.1444182 100.1824950 114.5279517  19.7866446 100.4707800 115.9704389
  28.3216506 100.6678696 117.3723044  28.3765116  99.7152532 117.2965520
  27.5107708 100.8238135 117.8564342  29.4707700 104.5958819 108.6101327
  29.0327130 103.8794678 108.1506964  30.2118141 104.8234934 108.0486418
  26.2608866  99.2855756 115.1313423  25.4476731  99.5849926 115.5378615
  26.7567860  98.8911444 115.8487905  28.4117444 109.2813513 117.0647687
  28.3693623 109.5074359 116.1356219  29.3280143 109.0476887 117.2133489
  31.8583078  99.7497580 123.9628317  32.2132465  99.9769053 124.8222782
  32.5055209 100.0815957 123.3405572  37.5880815 102.8716016 114.6677646
  37.4498713 103.0617612 113.7398835  37.2317033 103.6335399 115.1245697
  25.7522941  96.8574111 120.7474658  26.3922320  96.7162870 120.0497621
  24.9200471  96.5708625 120.3713260  37.6150194 104.9392543 119.6788917
  38.0486701 104.8467832 120.5271971  38.3281775 104.9150044 119.0408933
  26.5283245 106.1576542 116.8609650  27.3223843 105.6626862 116.6592225
  25.8174937 105.6294405 116.4977356  31.3478089 108.5394637 121.2122018
  31.4015111 109.1085573 121.9799734  30.4792870 108.7096522 120.8476055
  22.8366008 100.3019623 112.9369403  21.9063596 100.2404079 113.1539365
  22.9323480  99.7795576 112.1406044  22.7551557  96.8274436 115.5247644
  23.0158374  97.7419769 115.4156805  23.5768729  96.3598879 115.6744257
  24.2276482  98.2412193 122.6946469  24.8999536  98.0329556 122.0459118
  23.4006269  98.0434279 122.2551701  38.4765744 104.9816244 122.2121803
  38.6701634 105.8862054 122.4581077  38.3766362 104.5223663 123.0460388
  30.1302054  94.8674134 124.7112130  29.4829970  95.5664084 124.6176606
  30.9003070  95.3010278 125.0788378  33.5380852 105.1322986 127.7862683
  33.3866359 104.9033538 126.8692767  33.5285532 106.0893588 127.7994028
  30.3066189 102.7054899 122.7708950  31.2358249 102.8566059 122.5977917
  29.8857219 102.7938920 121.9157596  29.1054521 106.7305564 120.5407487
  28.9665606 106.3624348 121.4133425  28.3169117 107.2453203 120.3691445
  29.7002673 111.8314660 111.8833024  29.8754428 111.3602703 112.6978646
  29.0135461 112.4580426 112.1114284  30.6559736 106.1087166 117.9296325
  30.3209568 106.0687936 118.8253975  30.1563681 105.4431882 117.4566735
  24.6303980 101.5154796 123.4548906  24.4923778 100.7835035 124.0560445
  25.5408903 101.4263696 123.1733094  33.5918927 103.4543201 108.2033385
  32.9748098 102.7290029 108.1066437  33.1235416 104.2152561 107.8600459
  27.2586280 101.2274756 122.9432586  27.9685899 100.5867948 122.9019204
  27.2155589 101.4787651 123.8658767  35.2473059 108.1642109 125.8639165
  35.1885605 107.4801329 125.1969748  35.6492577 108.9061099 125.4119791
  25.9715214  98.2139974 124.7628225  25.4352571  97.7630712 125.4149822
  25.3831923  98.3485882 124.0198690  24.2663758 114.9804023 118.6572884
  24.5060356 115.6122547 119.3351902  23.4232954 114.6292063 118.9438243
  25.3817473  97.6728625 107.3254689  24.5046940  97.5517426 106.9616936
  25.8575226  96.8814703 107.0733578  35.2490466 106.1281693 124.0953145
  34.3617245 105.7907615 124.2179544  35.8189017 105.3964724 124.3321910
  16.9019613 102.4605785 117.4196196  17.5890653 102.1467515 116.8317211
  16.7467742 103.3647149 117.1463447  21.7054336  97.3495981 121.8481220
  21.6212524  96.7421651 121.1131630  20.8837042  97.8405000 121.8490716
  28.7791620 110.7883145 121.0614388  28.7061791 111.5938117 121.5733692
  28.3369013 110.9875111 120.2362409  28.5681399 110.0254915 114.5717209
  27.7848921 110.5676596 114.6655434  29.2674145 110.5428895 114.9711451
  31.8778049  95.8349545 117.2151415  32.3746749  95.0819507 116.8952485
  31.1065031  95.8713861 116.6494624  39.7307807 101.5389910 118.8569706
  39.7197683 102.4214626 118.4863639  38.8625186 101.1861461 118.6624243
  31.2390303 110.6869979 123.2172547  31.9518275 111.3217444 123.1448448
  30.7480332 110.7833845 122.4012548  32.9607830 104.5921232 114.7889838
  32.0264109 104.7122694 114.6194543  33.1384499 103.6893699 114.5249848
  28.4613018  97.9766928 116.9423099  28.0910806  97.4237968 117.6304005
  28.9572111  97.3725061 116.3898099  36.3480382 100.4338551 115.3239872
  36.8140834 101.2666543 115.2500175  36.7987882  99.9683533 116.0285131
  26.2902217 108.4364423 124.0378117  26.9911676 109.0700906 124.1907512
  25.8197332 108.7779154 123.2773757  34.4156613 106.7782373 112.3226024
  34.6916457 106.6638967 113.2319898  33.5461111 106.3799857 112.2838197
  34.3197044  92.8019138 119.3630774  33.4060124  93.0323365 119.5312981
  34.7490146  92.8857582 120.2144806  34.0903503 100.9909030 121.8630668
  33.4374953 101.2384938 121.2083120  34.4683883 100.1773168 121.5293145
  31.0510677 111.0268723 115.9658838  31.2333071 110.2090379 116.4286590
  31.8743663 111.2436416 115.5283728  31.3852842 109.9536909 113.2273886
  31.9140609 109.4429363 112.6144049  31.6481062 109.6379439 114.0919420
  30.1391076 101.7328841 128.3496705  29.4631713 101.6322971 129.0199080
  30.9618710 101.5768055 128.8132702  21.8869935 107.9700778 120.9709220
  22.4723372 107.2244466 121.1037124  21.6894773 108.2804735 121.8545884
  24.7408590 111.0052025 115.9871662  24.0718965 111.4898153 115.5035702
  24.6021460 111.2521246 116.9015041  16.4787590 100.5406378 119.6913663
  16.5171689 100.0069969 120.4850781  15.9727882 100.0141584 119.0724640
  28.8813859 113.0395769 122.5854321  29.4332167 113.2027390 123.3503406
  29.2220052 113.6300207 121.9134346  23.8578352  95.3870919 123.1876205
  23.9219678  96.2485749 122.7753603  23.7945472  94.7744920 122.4548564
  23.3330624  97.4594051 126.8349240  23.9602663  97.0771128 127.4486764
  22.4758543  97.2408253 127.2004932  33.7324733 107.8657026 128.4402975
  34.2764637 108.4786985 127.9457930  33.1511578 108.4236605 128.9569988
  20.1096167  99.2670480 112.7667595  20.4049608  98.3581159 112.7134648
  19.2084203  99.2458220 112.4448597  32.0182246 110.9877744 119.5718003
  31.8933385 110.1867484 119.0628948  32.6761337 111.4823938 119.0831973
  23.6390414  97.3426477 118.7495143  22.9177000  97.9562445 118.6102616
  24.4283670  97.8784242 118.6711789  34.0817154 108.7886764 121.1997553
  33.1347490 108.6692116 121.1275880  34.4299927 107.9009262 121.2823814
  26.4416728  94.6780903 125.0235795  26.9651129  94.9243200 125.7862104
  26.2229061  95.5100938 124.6038932  21.8384009  96.9484578 112.8906920
  21.5096715  96.0681957 112.7082026  22.1923379  96.8932247 113.7783309
  31.0863588 108.5839481 117.4001905  30.9388550 107.6556188 117.5809475
  31.9117081 108.6059571 116.9158980  24.9525832  97.2357548 113.2582397
  25.2921904  97.7643469 112.5361006  25.3997952  97.5737954 114.0340964
  34.6897709 109.4068039 118.4866778  35.6144257 109.2010901 118.3491229
  34.5213013 109.1584440 119.3956120  27.6469273  95.6194598 122.7085465
  27.3066093  94.8202411 123.1106145  26.9408279  95.9196309 122.1362299
  28.2985745  92.7043911 121.1612788  29.1211814  92.2304389 121.0391679
  28.5423808  93.4834395 121.6611475  26.9393979  95.7332169 111.4575690
  27.6602342  96.1113422 110.9539407  26.3159283  96.4521046 111.5610668
  31.0825102  96.4377318 112.3934022  31.2988716  97.3201956 112.0922851
  30.6019169  96.0463532 111.6639664  25.8224323  99.3963031 118.9704767
  25.6768904  99.7103335 119.8629049  25.3449527 100.0147932 118.4175666
  27.6820706  96.3865579 119.0185657  27.6682275  95.4906673 118.6817955
  28.3993134  96.3936243 119.6523943  29.5346837  96.8202920 121.0638784
  29.2764615  97.7419990 121.0623115  29.0031877  96.4233354 121.7539248
  34.4793026 109.9253707 113.8428869  34.6529903 109.3600129 113.0902722
  34.9721917 110.7254602 113.6608359  20.2969985 101.9368376 121.9092428
  19.7523454 102.7128184 122.0412703  21.1749335 102.2839180 121.7511550
  27.0857602  95.2679960 114.2873227  27.2073513  94.3396606 114.4864114
  26.7959644  95.2818646 113.3751542  29.9548793  92.9534870 117.4239947
  29.9770489  93.0174203 116.4691926  30.3716852  92.1139379 117.6180453
  40.3332417 102.6890130 115.4619169  40.7763563 101.9397455 115.0638292
  39.4558927 102.6800266 115.0792901  35.4668198 109.2420471 110.9425768
  36.1619103 109.8627164 111.1613082  35.8091348 108.3915822 111.2178146
  21.0836007 101.0638272 124.8022585  20.3417743 101.2120907 125.3887216
  20.7628752 101.3246538 123.9389335  37.3659621 106.6920177 112.4713099
  37.8910945 107.0307449 111.7462419  37.2781974 105.7567192 112.2876233
  29.0279670 110.6054250 124.6002975  29.3366796 110.3603397 125.4725675
  29.8255152 110.8100889 124.1121845  29.0500282 112.7592160 116.8308352
  28.6105272 112.2668539 117.5241208  29.8008399 112.2165128 116.5900427
  21.5292621 108.9503701 116.8332980  22.3550641 108.6507473 116.4531623
  21.1786673 108.1811323 117.2822768  26.4974154 108.3030169 118.9030653
  25.8754163 107.6400874 118.6032881  27.1679021 108.3291301 118.2204301
  19.7301226 106.8690027 117.7921913  18.8933134 106.4412202 117.6105915
  19.7024871 107.0622471 118.7292705  26.5698682  96.7811957 128.4963159
  26.6186837  97.6574080 128.1140929  27.1121196  96.2389350 127.9234803
  37.0553527 107.3253080 127.7764296  36.2649071 107.3077219 127.2368796
  36.8186882 107.8641374 128.5313333  37.1751402 104.1745547 125.0897025
  37.2249407 104.0095554 126.0312548  37.0665326 103.3072806 124.6994906
  26.0587661 106.8534092 112.3789114  26.2075781 107.5369557 111.7255787
  26.8654105 106.8339182 112.8938570  34.4655165 100.1576475 126.4056332
  35.3665028 100.0182940 126.1140330  34.5403139 100.3230930 127.3454509
  28.7997970  97.5343330 125.2509518  27.9301280  97.8276896 124.9792107
  29.0357450  98.1183775 125.9716782  38.6769599 106.5942488 125.3339047
  38.3854408 106.9572469 126.1702508  38.0641730 105.8809497 125.1552379
  39.8765282 104.1595368 117.8541617  40.7112173 104.5985172 118.0179177
  40.0124410 103.6834021 117.0349863  36.9256787 101.7175103 123.8019105
  37.4010909 101.9102749 122.9937956  36.0022353 101.7734289 123.5562488
  23.8140294 102.8799270 113.3850183  23.5686336 101.9761600 113.5830393
  23.9836209 102.8816420 112.4429661  31.5037004  93.7522946 122.7674938
  32.0218948  94.4883973 122.4421427  31.1492137  94.0586940 123.6021698
  23.0835942  98.6127628 110.8836344  22.3905187  98.6871983 110.2276380
  22.8387693  97.8487971 111.4057861  31.7549598  90.1723229 118.2875835
  32.0351352  89.5046418 118.9136262  32.5400205  90.3652325 117.7750499
  29.5583067 109.3482223 109.8500861  28.9857034 109.9672410 109.3971333
  30.1315860 109.8981585 110.3840783  35.6258456  98.5940863 122.0347410
  36.5775879  98.6938961 122.0559634  35.4561907  97.8019132 122.5445495
  33.6472836  95.6796446 122.2206811  33.0522768  95.9601459 121.5253300
  33.3622533  96.1690347 122.9923552  32.7780326 109.6319373 110.9809444
  33.7111000 109.5664935 111.1842319  32.6903539 110.4675640 110.5223976
  35.4068343 108.9485243 107.9413391  35.3281975 108.6145107 108.8349149
  36.2278010 109.4407011 107.9404864  38.1046534 101.8146983 121.1489710
  38.0722854 100.8762983 121.3349394  38.7147158 101.8931019 120.4155535
  29.9429865 100.6843036 107.1916914  30.8888970 100.5549244 107.2605332
  29.5644110  99.9457698 107.6686342  38.2541023  98.6058026 121.1947993
  37.7380071  97.8216483 121.0077922  39.1380971  98.2776743 121.3594512
  35.9151750  92.3499042 117.1543806  35.7176571  92.0414130 118.0387138
  36.5251455  93.0760681 117.2841736  43.9223084 102.8762989 120.2895747
  44.6526473 102.6148278 120.8503450  43.3130030 102.1391711 120.3297815
  42.0038381 101.0170852 120.8870198  41.2771545 100.8826817 120.2786689
  41.5885668 101.3247681 121.6926916  29.8268558 104.7360782 128.6517571
  30.7471567 104.9139381 128.8457617  29.7918141 103.7916827 128.4997270
  28.1272782  98.6093012 107.1271799  27.2204238  98.3126125 107.2034513
  28.4048763  98.3122830 106.2606085  19.0450723  99.9299375 117.5770845
  18.7253507  99.0764684 117.2845219  18.4984151 100.1447954 118.3328813
  22.8230630 102.6461816 121.2940352  23.0416640 103.5778924 121.3128386
  23.2356404 102.2869791 122.0795156  29.7434848  93.1529902 113.2816040
  28.9335576  92.8076987 113.6571286  30.4319265  92.8437445 113.8703652
  31.6725396  92.2307949 114.9040337  32.2256435  92.6503402 115.5630360
  31.9095483  91.3043697 114.9463293  27.6958496  98.2195022 130.6843101
  27.5955222  99.1689379 130.6155192  27.4780038  97.8913261 129.8119171
  26.8971567  95.4679947 107.2683778  27.7590731  95.7934846 107.5279596
  27.0821911  94.6811443 106.7556844  18.9138983 103.5502287 119.5463967
  18.2202454 103.1356240 119.0333921  19.6611974 103.5922823 118.9497386
  35.0504203  94.3408474 114.4119001  34.4702872  94.9993278 114.0297054
  34.7840136  93.5185818 114.0006419  33.5007770  93.7413531 116.6140322
  34.0007548  93.8530066 115.8054640  34.1443378  93.4374584 117.2541130
  27.5589766 101.6492161 129.5008163  27.0756847 102.4492521 129.7072052
  27.6450705 101.6600106 128.5475607  20.8275725 103.4820541 117.4229982
  20.8046413 103.5808228 116.4711865  21.1376362 104.3285691 117.7447148
  23.4863103 105.5396696 121.5376596  24.4406357 105.5080638 121.4706528
  23.2875627 105.0787319 122.3526822  24.0762485 104.1097812 124.1047394
  24.8955374 104.6041890 124.1282231  24.3499293 103.1929780 124.0764962
  33.8329081  96.5008564 113.4675350  32.9454936  96.7858215 113.2495544
  34.2483070  96.3402327 112.6202626  37.1843618  96.5255085 117.1829689
  37.9604008  97.0151537 117.4554306  36.4591752  96.9513139 117.6401558
  39.6216176  97.2382704 118.2403629  40.2160667  96.9978440 117.5296938
  39.6942760  96.5189835 118.8677166  21.8413332 111.0816315 118.5546794
  21.7067800 110.3216716 117.9884792  21.4245394 111.8057215 118.0875583
  32.9772295 106.2653239 107.5623369  33.6808145 106.4703241 108.1781025
  32.2534944 106.8330001 107.8272453  33.8070105 102.0163100 113.6825640
  33.7505307 102.4731651 112.8433272  34.3598448 101.2553785 113.5048482
  37.6174911  97.8052832 114.5075759  37.3611845  97.4049468 115.3383967
  36.9927779  98.5196626 114.3825898  41.9287249 100.5448905 117.0147051
  41.3686807 100.6142094 117.7878613  41.3230752 100.3689890 116.2946547
  24.9982458 111.9785632 118.7665237  24.8814842 112.9231065 118.6643927
  24.1774904 111.6759194 119.1551036  34.8858992 106.7035768 109.6121830
  35.7204596 106.2716966 109.4299304  34.7243335 106.5317782 110.5398724
  34.5404884 103.2067881 110.9778169  34.4853688 103.0412153 110.0366613
  33.9150940 103.9143914 111.1340359  19.3297399  98.4435946 124.8039591
  19.9756263  97.9334900 125.2926816  19.1214551  99.1804627 125.3783016
  31.8550792 105.5116793 130.3031732  32.7241951 105.6857445 129.9418367
  31.3757543 106.3311210 130.1807461  27.8501010  92.7075990 110.5563487
  27.8379680  93.6517830 110.7131758  28.7424432  92.5246136 110.2622948
  26.0236972 112.6313894 121.9821165  26.9264219 112.6637504 122.2987660
  25.7974342 111.7014345 121.9967501  27.7790574 111.3844881 118.6431244
  26.8286205 111.3846742 118.5295616  28.0823060 110.6377615 118.1267279
  31.6653129  89.3018767 114.8109424  30.8985525  88.7477254 114.9566106
  32.0763834  89.3740636 115.6723576  23.6694890  95.5903563 128.9014605
  24.5326352  95.2340368 129.1117930  23.0960301  95.2517458 129.5890010
  43.5143267 117.2205419 119.7077006  44.1521677 117.1012166 119.0040346
  43.3964110 118.1686263 119.7664958  40.3232974 117.1732847 119.6438531
  39.9851485 117.0573912 118.7559066  41.1922742 116.7724012 119.6239537
  36.1819789 119.0268324 115.6335422  35.6184654 118.9358261 114.8651710
  36.0672184 118.2068228 116.1137914  40.8052757 118.3267699 125.6024737
  40.7941397 117.9320497 124.7305240  40.9673396 117.5933771 126.1958508
  33.7284221 120.5219515 118.4719642  34.5205513 120.1810340 118.0565942
  33.9680871 120.6314490 119.3921796  41.7619348 122.6939291 110.9449887
  41.1107328 123.2793372 110.5583901  42.5563711 123.2245486 111.0044924
  35.6874975 119.7828428 111.3437021  36.4605851 119.2357416 111.2049897
  36.0400374 120.6472678 111.5551483  37.5260018 121.1104811 124.5503920
  37.2349884 122.0150442 124.4350587  38.1617002 121.1521338 125.2647990
  38.4516225 118.4881659 121.1405280  39.0479797 118.2637682 120.4262243
  38.5091196 117.7466405 121.7430728  38.0241253 115.9421095 108.9755471
  38.2766774 115.4202616 108.2138934  37.0865812 115.7787240 109.0782155
  43.0684536 114.9456873 116.7830214  43.8547625 114.5276296 116.4320631
  43.3323240 115.8502965 116.9511863  43.2394613 120.3829723 111.4818871
  42.6040446 120.4564350 112.1939776  42.9092020 120.9723322 110.8037950
  48.4692963 114.8832106 117.6863193  49.2018135 114.3131323 117.9201022
  47.7132319 114.4953707 118.1269698  37.7437542 117.8449200 111.1779846
  37.6273800 117.1694104 111.8460930  37.8539802 117.3581574 110.3611999
  40.0869083 117.3059348 114.8826535  39.7227290 116.7789969 115.5939457
  40.9436199 116.9157817 114.7093021  45.9918383 108.5953680 122.1457801
  45.6601708 109.4649091 121.9219016  45.3963997 108.2789964 122.8251832
  39.7274570 112.3349247 109.8787884  39.8948972 113.2029484 110.2458355
  39.5371739 112.4976529 108.9549173  42.4849903 120.7966226 121.5453714
  42.1850626 121.6991265 121.4369521  42.1400962 120.5298409 122.3974867
  35.9362384 117.2480023 117.5790419  35.0112881 117.1156237 117.7868110
  36.1846798 118.0274242 118.0760361  45.8847047 113.3148766 119.2251152
  44.9763924 113.2464175 118.9309912  45.8334642 113.7920711 120.0532977
  39.7063791 114.7906905 110.8634551  39.5863416 115.2363956 111.7020031
  39.0116379 115.1392222 110.3048089  33.2971195 116.8913297 118.4134208
  33.4263577 117.1447776 119.3273619  32.6168647 117.4841005 118.0938863
  37.4670683 127.5610547 114.5124682  37.3894712 128.5118372 114.5913162
  36.8632326 127.2156419 115.1699608  39.9587912 114.7338412 127.1686049
  39.1821246 115.2932332 127.1588913  40.5978475 115.2195195 127.6900919
  47.7508693 111.5165205 121.0029025  47.1083073 111.8097738 120.3568820
  47.2463622 111.4018125 121.8082222  45.4048857 115.2628378 111.6914885
  46.3166713 115.4955765 111.5162582  44.8958504 115.8465422 111.1289963
  38.2134285 117.5423865 126.7304016  38.9548969 118.0808909 126.4538839
  37.5071270 118.1690154 126.8875568  43.6889624 119.6853006 125.3276177
  44.0972980 119.2435416 124.5830810  42.9666886 119.1105633 125.5810370
  40.0420694 114.6225613 122.7009734  40.8881890 115.0465026 122.8444383
  39.9819332 113.9659237 123.3948297  44.0118439 120.2454196 119.0828466
  43.3827301 120.4099911 118.3804534  43.6244101 120.6595806 119.8539430
  47.8907671 121.1808634 116.4372830  47.2058709 121.5607536 115.8869863
  47.9751520 121.7903961 117.1704778  43.1920140 112.2829981 124.3590908
  42.9481072 113.0372041 123.8225184  43.4680070 112.6615329 125.1938155
  45.1458603 118.8268593 123.0368173  45.3575498 119.4700353 122.3602555
  45.0988351 117.9930910 122.5690104  42.7484831 111.4386414 119.9404746
  41.8869310 111.7367668 120.2321483  42.7747266 111.6556813 119.0085778
  39.5646401 119.9828605 116.3478551  40.0284746 120.2616307 115.5583174
  39.3003199 119.0812049 116.1651642  36.4570482 119.5300086 119.2858315
  37.0271839 119.9587354 118.6475799  37.0478594 119.2482671 119.9842500
  38.5015287 116.1051757 113.1568116  39.2039330 116.5572801 113.6242043
  38.1695915 115.4635576 113.7848010  36.9495648 114.6963514 127.5319326
  36.3194309 115.3779794 127.7654723  36.8431736 114.5846595 126.5872464
  32.2440621 114.3635310 118.4585250  31.4539675 114.6192838 117.9825361
  32.7351868 115.1783647 118.5637290  46.2604430 121.7040549 121.2090531
  47.0821874 121.3020736 120.9273212  46.2566833 121.6008783 122.1606647
  34.1955366 114.7279889 115.4168727  33.3986530 114.8398583 115.9352222
  33.9680958 115.0666541 114.5509617  40.0261034 121.2524592 123.3651241
  40.0905466 121.7144999 124.2009413  39.3171958 120.6221957 123.4933551
  30.5278324 114.6165800 120.8900241  30.7786362 115.5012810 121.1557817
  31.0637872 114.4370402 120.1175333  54.3510424 118.0479297 117.5575502
  53.5974132 117.4786695 117.4019507  54.4857965 118.0141962 118.5046137
  39.7409052 122.9192700 113.2330222  39.6054726 123.7644235 113.6615069
  40.2818864 123.1211977 112.4696155  36.2276391 108.9984279 129.8944577
  35.8343337 108.4450478 130.5692221  37.0442532 109.3094858 130.2851094
  33.1938449 120.4368138 113.8058147  33.7062970 121.2311388 113.9563711
  33.8461162 119.7394428 113.7391748  35.0033334 123.5533894 115.8880900
  35.1799962 124.4751859 115.7001884  35.7990167 123.2392313 116.3175280
  39.1444352 110.4142158 127.4864833  39.8854066 111.0149312 127.4069296
  39.3762275 109.6719796 126.9282876  34.2885690 115.5998526 125.7643063
  34.1739205 114.6983783 126.0650162  33.4330208 115.8462222 125.4127880
  41.3677528 123.5416266 127.3630564  40.9241382 122.7552645 127.0451468
  42.0294742 123.7295417 126.6974454  36.1264649 125.0712068 121.8891242
  36.6772074 124.9429131 121.1168236  35.2876125 125.3706957 121.5386135
  43.4658766 123.8219066 125.3911965  43.4477241 124.6427947 124.8992234
  44.3878686 123.6973141 125.6162106  39.9231820 121.3363195 126.2335473
  40.4560157 120.5751484 126.0034781  39.3945901 121.0436847 126.9759628
  43.0901515 106.4423261 121.7629115  42.7465785 107.3324903 121.6868226
  43.4580478 106.2524919 120.8998700  31.1587366 118.7656792 114.5817717
  31.9962588 119.1753800 114.3651425  31.3365633 117.8256234 114.5517911
  43.0551798 116.4331872 110.2701550  42.5398421 117.2036477 110.5089938
  42.7829106 115.7597009 110.8934612  40.6398909 111.2781573 115.3286789
  39.7840505 110.8888424 115.1492427  41.0525861 111.3573534 114.4686574
  42.1698056 108.8127917 119.7278348  41.6662851 108.7758052 118.9146154
  42.4628662 109.7220659 119.7875005  38.4140941 108.8966646 118.7344530
  39.2793938 108.7009455 118.3750420  38.4818450 108.6676998 119.6613887
  48.0286072 119.1864227 112.2054724  47.2515515 118.8475387 111.7609886
  48.7077553 119.1916850 111.5309689  42.8438101 114.3058965 112.0961331
  42.5388237 114.6205114 112.9471475  43.7968543 114.3840384 112.1388664
  41.2884533 120.4649188 113.7454285  40.7605894 119.7301947 113.4327523
  40.7872036 121.2423864 113.4994254  46.2677379 118.6598208 118.8621332
  45.6101053 119.3497470 118.9501460  47.0717778 119.0494640 119.2055318
  36.0203260 111.1268854 116.1060897  36.5947012 110.9044036 115.3734090
  36.6074243 111.1957549 116.8589498  45.0782838 117.0142581 116.9125273
  45.5914719 117.6472573 117.4146983  45.7284062 116.4143777 116.5468633
  36.3472848 113.1573315 110.1256782  35.5110160 113.4948002 110.4466057
  36.2077617 113.0222295 109.1883919  38.3225928 108.0010103 114.8335966
  37.6690341 107.6859120 114.2092581  38.2806402 107.3785844 115.5595789
  39.4337133 118.2829398 106.7489258  38.5264195 118.0518652 106.9480407
  39.9308165 117.4867017 106.9363240  42.3405212 126.9926905 109.6685945
  41.6666911 127.2958602 110.2770902  42.7271034 127.7955986 109.3191402
  41.5563669 114.4892037 119.1583614  40.6386230 114.7106984 119.0005302
  41.9723812 114.5638347 118.2995321  42.3398716 115.8883452 114.2886294
  43.0870535 116.4004850 113.9793416  42.6090306 115.5667505 115.1490688
  40.6125366 118.3841993 111.2713248  39.7036586 118.1001026 111.3685718
  40.6420450 118.8041072 110.4116555  45.8444634 121.9948583 115.0404416
  45.3906961 121.1539492 115.0969607  45.2138601 122.6309981 115.3779196
  44.7877553 112.9240569 116.2705083  44.0500310 112.4117955 116.6015326
  45.0404327 112.4840950 115.4588360  44.2877573 123.8325079 115.9754234
  44.5800548 124.3930136 115.2566600  44.7976194 124.1253640 116.7307393
  44.8889181 105.7016821 116.8646853  45.1948058 104.8414184 116.5772768
  45.6141786 106.2934441 116.6645847  31.1813537 116.1047507 115.2528451
  30.9837937 115.5116868 114.5279517  30.6260201 115.7999717 115.9704389
  39.1610261 115.9970614 117.3723044  39.2158870 115.0444450 117.2965520
  38.3501463 116.1530053 117.8564342  40.3101454 119.9250737 108.6101327
  39.8720884 119.2086596 108.1506964  41.0511895 120.1526852 108.0486418
  37.1002620 114.6147673 115.1313423  36.2870486 114.9141844 115.5378615
  37.5961615 114.2203362 115.8487905  39.2511198 124.6105430 117.0647687
  39.2087377 124.8366277 116.1356219  40.1673897 124.3768805 117.2133489
  42.6976832 115.0789498 123.9628317  43.0526220 115.3060971 124.8222782
  43.3448963 115.4107875 123.3405572  48.4274569 118.2007934 114.6677646
  48.2892468 118.3909530 113.7398835  48.0710788 118.9627317 115.1245697
  36.5916695 112.1866029 120.7474658  37.2316075 112.0454788 120.0497621
  35.7594226 111.9000542 120.3713260  48.4543949 120.2684461 119.6788917
  48.8880455 120.1759750 120.5271971  49.1675529 120.2441961 119.0408933
  37.3676999 121.4868459 116.8609650  38.1617598 120.9918779 116.6592225
  36.6568691 120.9586322 116.4977356  42.1871844 123.8686555 121.2122018
  42.2408866 124.4377491 121.9799734  41.3186625 124.0388440 120.8476055
  33.6759763 115.6311541 112.9369403  32.7457351 115.5695997 113.1539365
  33.7717235 115.1087494 112.1406044  33.5945312 112.1566354 115.5247644
  33.8552129 113.0711687 115.4156805  34.4162484 111.6890796 115.6744257
  35.0670237 113.5704111 122.6946469  35.7393290 113.3621473 122.0459118
  34.2400023 113.3726197 122.2551701  49.3159498 120.3108161 122.2121803
  49.5095388 121.2153972 122.4581077  49.2160116 119.8515580 123.0460388
  40.9695809 110.1966052 124.7112130  40.3223724 110.8956002 124.6176606
  41.7396824 110.6302196 125.0788378  44.3774607 120.4614904 127.7862683
  44.2260113 120.2325456 126.8692767  44.3679286 121.4185506 127.7994028
  41.1459943 118.0346817 122.7708950  42.0752003 118.1857977 122.5977917
  40.7250973 118.1230838 121.9157596  39.9448275 122.0597481 120.5407487
  39.8059361 121.6916266 121.4133425  39.1562871 122.5745121 120.3691445
  40.5396427 127.1606578 111.8833024  40.7148183 126.6894621 112.6978646
  39.8529215 127.7872344 112.1114284  41.4953490 121.4379084 117.9296325
  41.1603323 121.3979854 118.8253975  40.9957436 120.7723800 117.4566735
  35.4697734 116.8446714 123.4548906  35.3317532 116.1126953 124.0560445
  36.3802658 116.7555614 123.1733094  44.4312682 118.7835118 108.2033385
  43.8141853 118.0581947 108.1066437  43.9629170 119.5444479 107.8600459
  38.0980035 116.5566673 122.9432586  38.8079653 115.9159866 122.9019204
  38.0549343 116.8079568 123.8658767  46.0866814 123.4934027 125.8639165
  46.0279360 122.8093247 125.1969748  46.4886332 124.2353017 125.4119791
  36.8108969 113.5431891 124.7628225  36.2746326 113.0922630 125.4149822
  36.2225677 113.6777800 124.0198690  35.1057512 130.3095941 118.6572884
  35.3454111 130.9414465 119.3351902  34.2626709 129.9583981 118.9438243
  36.2211228 113.0020543 107.3254689  35.3440694 112.8809343 106.9616936
  36.6968981 112.2106621 107.0733578  46.0884221 121.4573611 124.0953145
  45.2011000 121.1199532 124.2179544  46.6582772 120.7256642 124.3321910
  27.7413368 117.7897702 117.4196196  28.4284408 117.4759432 116.8317211
  27.5861497 118.6939067 117.1463447  32.5448090 112.6787899 121.8481220
  32.4606279 112.0713568 121.1131630  31.7230796 113.1696917 121.8490716
  39.6185374 126.1175063 121.0614388  39.5455546 126.9230034 121.5733692
  39.1762767 126.3167029 120.2362409  39.4075154 125.3546833 114.5717209
  38.6242676 125.8968513 114.6655434  40.1067899 125.8720813 114.9711451
  42.7171804 111.1641462 117.2151415  43.2140503 110.4111425 116.8952485
  41.9458785 111.2005779 116.6494624  50.5701561 116.8681828 118.8569706
  50.5591438 117.7506543 118.4863639  49.7018941 116.5153379 118.6624243
  42.0784058 126.0161897 123.2172547  42.7912030 126.6509362 123.1448448
  41.5874086 126.1125763 122.4012548  43.8001585 119.9213150 114.7889838
  42.8657863 120.0414612 114.6194543  43.9778253 119.0185616 114.5249848
  39.3006773 113.3058845 116.9423099  38.9304560 112.7529886 117.6304005
  39.7965865 112.7016979 116.3898099  47.1874136 115.7630469 115.3239872
  47.6534588 116.5958461 115.2500175  47.6381636 115.2975451 116.0285131
  37.1295971 123.7656340 124.0378117  37.8305431 124.3992823 124.1907512
  36.6591086 124.1071072 123.2773757  45.2550367 122.1074290 112.3226024
  45.5310211 121.9930885 113.2319898  44.3854866 121.7091775 112.2838197
  45.1590799 108.1311056 119.3630774  44.2453879 108.3615283 119.5312981
  45.5883900 108.2149500 120.2144806  44.9297257 116.3200948 121.8630668
  44.2768707 116.5676855 121.2083120  45.3077637 115.5065086 121.5293145
  41.8904431 126.3560641 115.9658838  42.0726826 125.5382297 116.4286590
  42.7137417 126.5728333 115.5283728  42.2246597 125.2828826 113.2273886
  42.7534363 124.7721281 112.6144049  42.4874816 124.9671356 114.0919420
  40.9784830 117.0620759 128.3496705  40.3025467 116.9614888 129.0199080
  41.8012464 116.9059973 128.8132702  32.7263689 123.2992696 120.9709220
  33.3117126 122.5536383 121.1037124  32.5288528 123.6096652 121.8545884
  35.5802345 126.3343943 115.9871662  34.9112720 126.8190071 115.5035702
  35.4415214 126.5813163 116.9015041  27.3181344 115.8698296 119.6913663
  27.3565444 115.3361886 120.4850781  26.8121637 115.3433501 119.0724640
  39.7207613 128.3687686 122.5854321  40.2725921 128.5319308 123.3503406
  40.0613807 128.9592124 121.9134346  34.6972106 110.7162836 123.1876205
  34.7613433 111.5777667 122.7753603  34.6339227 110.1036838 122.4548564
  34.1724379 112.7885969 126.8349240  34.7996418 112.4063046 127.4486764
  33.3152298 112.5700171 127.2004932  44.5718487 123.1948944 128.4402975
  45.1158391 123.8078902 127.9457930  43.9905332 123.7528522 128.9569988
  30.9489922 114.5962398 112.7667595  31.2443363 113.6873076 112.7134648
  30.0477957 114.5750137 112.4448597  42.8576000 126.3169662 119.5718003
  42.7327140 125.5159402 119.0628948  43.5155092 126.8115855 119.0831973
  34.4784169 112.6718394 118.7495143  33.7570754 113.2854362 118.6102616
  35.2677424 113.2076159 118.6711789  44.9210909 124.1178682 121.1997553
  43.9741244 123.9984033 121.1275880  45.2693682 123.2301180 121.2823814
  37.2810482 110.0072821 125.0235795  37.8044884 110.2535118 125.7862104
  37.0622815 110.8392856 124.6038932  32.6777763 112.2776496 112.8906920
  32.3490469 111.3973874 112.7082026  33.0317134 112.2224164 113.7783309
  41.9257342 123.9131398 117.4001905  41.7782305 122.9848106 117.5809475
  42.7510836 123.9351489 116.9158980  35.7919586 112.5649465 113.2582397
  36.1315659 113.0935387 112.5361006  36.2391707 112.9029871 114.0340964
  45.5291464 124.7359957 118.4866778  46.4538011 124.5302818 118.3491229
  45.3606767 124.4876358 119.3956120  38.4863027 110.9486516 122.7085465
  38.1459848 110.1494329 123.1106145  37.7802033 111.2488227 122.1362299
  39.1379499 108.0335828 121.1612788  39.9605568 107.5596307 121.0391679
  39.3817563 108.8126312 121.6611475  37.7787734 111.0624087 111.4575690
  38.4996096 111.4405340 110.9539407  37.1553038 111.7812964 111.5610668
  41.9218856 111.7669236 112.3934022  42.1382471 112.6493874 112.0922851
  41.4412924 111.3755449 111.6639664  36.6618078 114.7254949 118.9704767
  36.5162659 115.0395252 119.8629049  36.1843281 115.3439849 118.4175666
  38.5214461 111.7157497 119.0185657  38.5076029 110.8198590 118.6817955
  39.2386889 111.7228161 119.6523943  40.3740591 112.1494837 121.0638784
  40.1158369 113.0711908 121.0623115  39.8425632 111.7525272 121.7539248
  45.3186780 125.2545624 113.8428869  45.4923658 124.6892047 113.0902722
  45.8115671 126.0546519 113.6608359  31.1363740 117.2660294 121.9092428
  30.5917208 118.0420101 122.0412703  32.0143090 117.6131098 121.7511550
  37.9251357 110.5971877 114.2873227  38.0467268 109.6688524 114.4864114
  37.6353399 110.6110563 113.3751542  40.7942547 108.2826788 117.4239947
  40.8164244 108.3466121 116.4691926  41.2110606 107.4431296 117.6180453
  51.1726171 118.0182047 115.4619169  51.6157317 117.2689373 115.0638292
  50.2952682 118.0092184 115.0792901  46.3061953 124.5712389 110.9425768
  47.0012857 125.1919082 111.1613082  46.6485103 123.7207740 111.2178146
  31.9229762 116.3930190 124.8022585  31.1811498 116.5412825 125.3887216
  31.6022506 116.6538455 123.9389335  48.2053376 122.0212094 112.4713099
  48.7304700 122.3599367 111.7462419  48.1175728 121.0859110 112.2876233
  39.8673424 125.9346168 124.6002975  40.1760551 125.6895315 125.4725675
  40.6648906 126.1392806 124.1121845  39.8894037 128.0884078 116.8308352
  39.4499027 127.5960456 117.5241208  40.6402153 127.5457045 116.5900427
  32.3686375 124.2795619 116.8332980  33.1944395 123.9799390 116.4531623
  32.0180427 123.5103241 117.2822768  37.3367909 123.6322087 118.9030653
  36.7147918 122.9692792 118.6032881  38.0072776 123.6583219 118.2204301
  30.5694981 122.1981945 117.7921913  29.7326889 121.7704119 117.6105915
  30.5418626 122.3914388 118.7292705  37.4092436 112.1103875 128.4963159
  37.4580592 112.9865998 128.1140929  37.9514950 111.5681268 127.9234803
  47.8947282 122.6544998 127.7764296  47.1042826 122.6369137 127.2368796
  47.6580636 123.1933292 128.5313333  48.0145157 119.5037464 125.0897025
  48.0643162 119.3387472 126.0312548  47.9059080 118.6364723 124.6994906
  36.8981416 122.1826010 112.3789114  37.0469536 122.8661474 111.7255787
  37.7047859 122.1631100 112.8938570  45.3048919 115.4868392 126.4056332
  46.2058782 115.3474857 126.1140330  45.3796894 115.6522847 127.3454509
  39.6391725 112.8635247 125.2509518  38.7695034 113.1568813 124.9792107
  39.8751205 113.4475692 125.9716782  49.5163354 121.9234406 125.3339047
  49.2248162 122.2864386 126.1702508  48.9035485 121.2101414 125.1552379
  50.7159036 119.4887286 117.8541617  51.5505927 119.9277090 118.0179177
  50.8518165 119.0125939 117.0349863  47.7650542 117.0467021 123.8019105
  48.2404664 117.2394667 122.9937956  46.8416107 117.1026206 123.5562488
  34.6534049 118.2091188 113.3850183  34.4080090 117.3053518 113.5830393
  34.8229963 118.2108338 112.4429661  42.3430758 109.0814864 122.7674938
  42.8612702 109.8175891 122.4421427  41.9885891 109.3878857 123.6021698
  33.9229696 113.9419545 110.8836344  33.2298941 114.0163900 110.2276380
  33.6781448 113.1779889 111.4057861  42.5943353 105.5015147 118.2875835
  42.8745106 104.8338336 118.9136262  43.3793960 105.6944242 117.7750499
  40.3976821 124.6774141 109.8500861  39.8250788 125.2964328 109.3971333
  40.9709615 125.2273502 110.3840783  46.4652211 113.9232781 122.0347410
  47.4169634 114.0230878 122.0559634  46.2955661 113.1311049 122.5445495
  44.4866590 111.0088364 122.2206811  43.8916523 111.2893377 121.5253300
  44.2016287 111.4982265 122.9923552  43.6174081 124.9611291 110.9809444
  44.5504754 124.8956852 111.1842319  43.5297294 125.7967558 110.5223976
  46.2462098 124.2777161 107.9413391  46.1675729 123.9437025 108.8349149
  47.0671764 124.7698929 107.9404864  48.9440289 117.1438900 121.1489710
  48.9116609 116.2054901 121.3349394  49.5540912 117.2222937 120.4155535
  40.7823620 116.0134953 107.1916914  41.7282724 115.8841161 107.2605332
  40.4037865 115.2749615 107.6686342  49.0934777 113.9349944 121.1947993
  48.5773826 113.1508400 121.0077922  49.9774726 113.6068660 121.3594512
  46.7545504 107.6790959 117.1543806  46.5570325 107.3706048 118.0387138
  47.3645210 108.4052598 117.2841736  54.7616839 118.2054907 120.2895747
  55.4920227 117.9440195 120.8503450  54.1523784 117.4683629 120.3297815
  52.8432136 116.3462770 120.8870198  52.1165299 116.2118735 120.2786689
  52.4279423 116.6539598 121.6926916  40.6662312 120.0652699 128.6517571
  41.5865322 120.2431298 128.8457617  40.6311895 119.1208745 128.4997270
  38.9666537 113.9384930 107.1271799  38.0597992 113.6418042 107.2034513
  39.2442518 113.6414748 106.2606085  29.8844477 115.2591293 117.5770845
  29.5647261 114.4056601 117.2845219  29.3377905 115.4739871 118.3328813
  33.6624385 117.9753734 121.2940352  33.8810394 118.9070842 121.3128386
  34.0750159 117.6161708 122.0795156  40.5828602 108.4821819 113.2816040
  39.7729331 108.1368904 113.6571286  41.2713019 108.1729363 113.8703652
  42.5119151 107.5599866 114.9040337  43.0650189 107.9795320 115.5630360
  42.7489237 106.6335614 114.9463293  38.5352250 113.5486940 130.6843101
  38.4348977 114.4981297 130.6155192  38.3173792 113.2205179 129.8119171
  37.7365321 110.7971865 107.2683778  38.5984485 111.1226763 107.5279596
  37.9215666 110.0103361 106.7556844  29.7532737 118.8794205 119.5463967
  29.0596209 118.4648157 119.0333921  30.5005728 118.9214741 118.9497386
  45.8897958 109.6700391 114.4119001  45.3096627 110.3285195 114.0297054
  45.6233891 108.8477736 114.0006419  44.3401524 109.0705449 116.6140322
  44.8401303 109.1821984 115.8054640  44.9837132 108.7666502 117.2541130
  38.3983520 116.9784079 129.5008163  37.9150602 117.7784439 129.7072052
  38.4844459 116.9892024 128.5475607  31.6669480 118.8112458 117.4229982
  31.6440168 118.9100146 116.4711865  31.9770116 119.6577609 117.7447148
  34.3256858 120.8688613 121.5376596  35.2800111 120.8372556 121.4706528
  34.1269381 120.4079237 122.3526822  34.9156240 119.4389729 124.1047394
  35.7349129 119.9333808 124.1282231  35.1893047 118.5221698 124.0764962
  44.6722836 111.8300482 113.4675350  43.7848691 112.1150132 113.2495544
  45.0876825 111.6694245 112.6202626  48.0237372 111.8547003 117.1829689
  48.7997762 112.3443455 117.4554306  47.2985506 112.2805057 117.6401558
  50.4609931 112.5674622 118.2403629  51.0554421 112.3270358 117.5296938
  50.5336514 111.8481753 118.8677166  32.6807086 126.4108233 118.5546794
  32.5461554 125.6508634 117.9884792  32.2639149 127.1349133 118.0875583
  43.8166049 121.5945156 107.5623369  44.5201899 121.7995159 108.1781025
  43.0928698 122.1621918 107.8272453  44.6463860 117.3455018 113.6825640
  44.5899061 117.8023569 112.8433272  45.1992202 116.5845702 113.5048482
  48.4568666 113.1344750 114.5075759  48.2005600 112.7341385 115.3383967
  47.8321534 113.8488543 114.3825898  52.7681003 115.8740823 117.0147051
  52.2080561 115.9434012 117.7878613  52.1624507 115.6981807 116.2946547
  35.8376212 127.3077550 118.7665237  35.7208596 128.2522982 118.6643927
  35.0168658 127.0051111 119.1551036  45.7252747 122.0327686 109.6121830
  46.5598351 121.6008884 109.4299304  45.5637090 121.8609699 110.5398724
  45.3798639 118.5359799 110.9778169  45.3247443 118.3704070 110.0366613
  44.7544694 119.2435832 111.1340359  30.1691154 113.7727863 124.8039591
  30.8150018 113.2626817 125.2926816  29.9608305 114.5096545 125.3783016
  42.6944546 120.8408711 130.3031732  43.5635706 121.0149363 129.9418367
  42.2151298 121.6603128 130.1807461  38.6894764 108.0367908 110.5563487
  38.6773434 108.9809748 110.7131758  39.5818186 107.8538053 110.2622948
  36.8630726 127.9605812 121.9821165  37.7657973 127.9929422 122.2987660
  36.6368096 127.0306263 121.9967501  38.6184328 126.7136798 118.6431244
  37.6679959 126.7138660 118.5295616  38.9216814 125.9669533 118.1267279
  42.5046884 104.6310685 114.8109424  41.7379280 104.0769171 114.9566106
  42.9157589 104.7032553 115.6723576  34.5088645 110.9195480 128.9014605
  35.3720106 110.5632285 129.1117930  33.9354056 110.5809375 129.5890010
  54.3537022 132.5497337 119.7077006  54.9915432 132.4304084 119.0040346
  54.2357865 133.4978181 119.7664958  51.1626728 132.5024765 119.6438531
  50.8245240 132.3865830 118.7559066  52.0316496 132.1015930 119.6239537
  47.0213544 134.3560241 115.6335422  46.4578409 134.2650178 114.8651710
  46.9065939 133.5360146 116.1137914  51.6446511 133.6559617 125.6024737
  51.6335152 133.2612415 124.7305240  51.8067151 132.9225689 126.1958508
  44.5677976 135.8511433 118.4719642  45.3599268 135.5102257 118.0565942
  44.8074626 135.9606408 119.3921796  52.6013103 138.0231209 110.9449887
  51.9501082 138.6085289 110.5583901  53.3957465 138.5537404 111.0044924
  46.5268730 135.1120346 111.3437021  47.2999606 134.5649333 111.2049897
  46.8794129 135.9764595 111.5551483  48.3653772 136.4396728 124.5503920
  48.0743638 137.3442359 124.4350587  49.0010757 136.4813256 125.2647990
  49.2909979 133.8173577 121.1405280  49.8873551 133.5929599 120.4262243
  49.3484951 133.0758322 121.7430728  48.8635008 131.2713012 108.9755471
  49.1160528 130.7494533 108.2138934  47.9259567 131.1079158 109.0782155
  53.9078290 130.2748791 116.7830214  54.6941380 129.8568214 116.4320631
  54.1716995 131.1794883 116.9511863  54.0788368 135.7121641 111.4818871
  53.4434201 135.7856267 112.1939776  53.7485774 136.3015240 110.8037950
  59.3086717 130.2124024 117.6863193  60.0411889 129.6423241 117.9201022
  58.5526073 129.8245624 118.1269698  48.5831296 133.1741118 111.1779846
  48.4667554 132.4986022 111.8460930  48.6933556 132.6873492 110.3611999
  50.9262837 132.6351265 114.8826535  50.5621044 132.1081886 115.5939457
  51.7829953 132.2449734 114.7093021  56.8312138 123.9245598 122.1457801
  56.4995463 124.7941009 121.9219016  56.2357751 123.6081882 122.8251832
  50.5668324 127.6641165 109.8787884  50.7342727 128.5321401 110.2458355
  50.3765493 127.8268447 108.9549173  53.3243657 136.1258144 121.5453714
  53.0244380 137.0283183 121.4369521  52.9794717 135.8590327 122.3974867
  46.7756139 132.5771941 117.5790419  45.8506635 132.4448155 117.7868110
  47.0240552 133.3566160 118.0760361  56.7240801 128.6440684 119.2251152
  55.8157678 128.5756092 118.9309912  56.6728397 129.1212629 120.0532977
  50.5457545 130.1198822 110.8634551  50.4257170 130.5655873 111.7020031
  49.8510133 130.4684140 110.3048089  44.1364950 132.2205214 118.4134208
  44.2657331 132.4739693 119.3273619  43.4562401 132.8132922 118.0938863
  48.3064437 142.8902464 114.5124682  48.2288467 143.8410289 114.5913162
  47.7026081 142.5448337 115.1699608  50.7981667 130.0630330 127.1686049
  50.0215001 130.6224250 127.1588913  51.4372230 130.5487113 127.6900919
  58.5902448 126.8457122 121.0029025  57.9476828 127.1389656 120.3568820
  58.0857376 126.7310043 121.8082222  56.2442611 130.5920296 111.6914885
  57.1560467 130.8247682 111.5162582  55.7352258 131.1757340 111.1289963
  49.0528039 132.8715783 126.7304016  49.7942724 133.4100827 126.4538839
  48.3465025 133.4982072 126.8875568  54.5283379 135.0144923 125.3276177
  54.9366735 134.5727334 124.5830810  53.8060640 134.4397551 125.5810370
  50.8814449 129.9517530 122.7009734  51.7275644 130.3756944 122.8444383
  50.8213087 129.2951155 123.3948297  54.8512193 135.5746114 119.0828466
  54.2221056 135.7391828 118.3804534  54.4637856 135.9887724 119.8539430
  58.7301425 136.5100552 116.4372830  58.0452464 136.8899453 115.8869863
  58.8145275 137.1195879 117.1704778  54.0313894 127.6121899 124.3590908
  53.7874826 128.3663959 123.8225184  54.3073825 127.9907246 125.1938155
  55.9852357 134.1560511 123.0368173  56.1969252 134.7992271 122.3602555
  55.9382105 133.3222828 122.5690104  53.5878586 126.7678332 119.9404746
  52.7263065 127.0659585 120.2321483  53.6141021 126.9848731 119.0085778
  50.4040155 135.3120522 116.3478551  50.8678501 135.5908225 115.5583174
  50.1396953 134.4103967 116.1651642  47.2964236 134.8592004 119.2858315
  47.8665593 135.2879272 118.6475799  47.8872348 134.5774588 119.9842500
  49.3409041 131.4343675 113.1568116  50.0433085 131.8864718 113.6242043
  49.0089670 130.7927493 113.7848010  47.7889403 130.0255431 127.5319326
  47.1588064 130.7071712 127.7654723  47.6825491 129.9138513 126.5872464
  43.0834375 129.6927227 118.4585250  42.2933429 129.9484756 117.9825361
  43.5745623 130.5075565 118.5637290  57.0998185 137.0332466 121.2090531
  57.9215629 136.6312654 120.9273212  57.0960588 136.9300701 122.1606647
  45.0349121 130.0571806 115.4168727  44.2380284 130.1690501 115.9352222
  44.8074713 130.3958459 114.5509617  50.8654788 136.5816510 123.3651241
  50.9299221 137.0436917 124.2009413  50.1565712 135.9513875 123.4933551
  41.3672078 129.9457718 120.8900241  41.6180117 130.8304728 121.1557817
  41.9031627 129.7662319 120.1175333  65.1904178 133.3771215 117.5575502
  64.4367886 132.8078613 117.4019507  65.3251719 133.3433879 118.5046137
  50.5802806 138.2484617 113.2330222  50.4448481 139.0936153 113.6615069
  51.1212619 138.4503895 112.4696155  47.0670146 124.3276197 129.8944577
  46.6737091 123.7742396 130.5692221  47.8836286 124.6386776 130.2851094
  44.0332203 135.7660055 113.8058147  44.5456724 136.5603305 113.9563711
  44.6854916 135.0686346 113.7391748  45.8427088 138.8825811 115.8880900
  46.0193716 139.8043776 115.7001884  46.6383922 138.5684231 116.3175280
  49.9838107 125.7434076 127.4864833  50.7247820 126.3441229 127.4069296
  50.2156029 125.0011714 126.9282876  45.1279445 130.9290443 125.7643063
  45.0132960 130.0275701 126.0650162  44.2723962 131.1754140 125.4127880
  52.2071282 138.8708184 127.3630564  51.7635137 138.0844562 127.0451468
  52.8688496 139.0587334 126.6974454  46.9658404 140.4003985 121.8891242
  47.5165829 140.2721049 121.1168236  46.1269880 140.6998874 121.5386135
  54.3052520 139.1510984 125.3911965  54.2870996 139.9719865 124.8992234
  55.2272441 139.0265059 125.6162106  50.7625575 136.6655113 126.2335473
  51.2953911 135.9043401 126.0034781  50.2339656 136.3728765 126.9759628
  53.9295270 121.7715179 121.7629115  53.5859539 122.6616821 121.6868226
  54.2974232 121.5816837 120.8998700  41.9981120 134.0948710 114.5817717
  42.8356342 134.5045718 114.3651425  42.1759388 133.1548152 114.5517911
  53.8945552 131.7623790 110.2701550  53.3792176 132.5328395 110.5089938
  53.6222861 131.0888926 110.8934612  51.4792663 126.6073491 115.3286789
  50.6234260 126.2180341 115.1492427  51.8919615 126.6865452 114.4686574
  53.0091810 124.1419834 119.7278348  52.5056606 124.1049969 118.9146154
  53.3022417 125.0512577 119.7875005  49.2534696 124.2258564 118.7344530
  50.1187693 124.0301373 118.3750420  49.3212205 123.9968916 119.6613887
  58.8679826 134.5156145 112.2054724  58.0909269 134.1767304 111.7609886
  59.5471307 134.5208768 111.5309689  53.6831856 129.6350882 112.0961331
  53.3781991 129.9497031 112.9471475  54.6362298 129.7132302 112.1388664
  52.1278287 135.7941106 113.7454285  51.5999649 135.0593865 113.4327523
  51.6265790 136.5715782 113.4994254  57.1071133 133.9890126 118.8621332
  56.4494808 134.6789387 118.9501460  57.9111533 134.3786558 119.2055318
  46.8597015 126.4560772 116.1060897  47.4340767 126.2335953 115.3734090
  47.4467997 126.5249466 116.8589498  55.9176592 132.3434499 116.9125273
  56.4308474 132.9764491 117.4146983  56.5677816 131.7435694 116.5468633
  47.1866602 128.4865233 110.1256782  46.3503914 128.8239919 110.4466057
  47.0471372 128.3514213 109.1883919  49.1619683 123.3302021 114.8335966
  48.5084095 123.0151038 114.2092581  49.1200157 122.7077761 115.5595789
  50.2730888 133.6121316 106.7489258  49.3657949 133.3810569 106.9480407
  50.7701920 132.8158935 106.9363240  53.1798966 142.3218823 109.6685945
  52.5060665 142.6250520 110.2770902  53.5664788 143.1247903 109.3191402
  52.3957423 129.8183954 119.1583614  51.4779984 130.0398901 119.0005302
  52.8117567 129.8930265 118.2995321  53.1792471 131.2175370 114.2886294
  53.9264290 131.7296767 113.9793416  53.4484060 130.8959423 115.1490688
  51.4519121 133.7133911 111.2713248  50.5430340 133.4292944 111.3685718
  51.4814205 134.1332989 110.4116555  56.6838388 137.3240500 115.0404416
  56.2300715 136.4831410 115.0969607  56.0532355 137.9601899 115.3779196
  55.6271308 128.2532486 116.2705083  54.8894065 127.7409872 116.6015326
  55.8798081 127.8132868 115.4588360  55.1271328 139.1616997 115.9754234
  55.4194302 139.7222054 115.2566600  55.6369948 139.4545558 116.7307393
  55.7282935 121.0308738 116.8646853  56.0341812 120.1706102 116.5772768
  56.4535540 121.6226358 116.6645847  42.0207291 131.4339425 115.2528451
  41.8231691 130.8408786 114.5279517  41.4653955 131.1291635 115.9704389
  50.0004015 131.3262531 117.3723044  50.0552625 130.3736368 117.2965520
  49.1895217 131.4821970 117.8564342  51.1495209 135.2542654 108.6101327
  50.7114639 134.5378513 108.1506964  51.8905650 135.4818769 108.0486418
  47.9396375 129.9439591 115.1313423  47.1264240 130.2433762 115.5378615
  48.4355369 129.5495280 115.8487905  50.0904953 139.9397348 117.0647687
  50.0481132 140.1658194 116.1356219  51.0067652 139.7060723 117.2133489
  53.5370587 130.4081416 123.9628317  53.8919974 130.6352889 124.8222782
  54.1842718 130.7399792 123.3405572  59.2668324 133.5299851 114.6677646
  59.1286222 133.7201447 113.7398835  58.9104542 134.2919234 115.1245697
  47.4310450 127.5157947 120.7474658  48.0709829 127.3746706 120.0497621
  46.5987980 127.2292460 120.3713260  59.2937703 135.5976378 119.6788917
  59.7274210 135.5051668 120.5271971  60.0069284 135.5733879 119.0408933
  48.2070754 136.8160377 116.8609650  49.0011352 136.3210697 116.6592225
  47.4962446 136.2878240 116.4977356  53.0265598 139.1978473 121.2122018
  53.0802620 139.7669409 121.9799734  52.1580379 139.3680358 120.8476055
  44.5153517 130.9603459 112.9369403  43.5851105 130.8987914 113.1539365
  44.6110989 130.4379411 112.1406044  44.4339066 127.4858272 115.5247644
  44.6945883 128.4003605 115.4156805  45.2556238 127.0182714 115.6744257
  45.9063991 128.8996029 122.6946469  46.5787045 128.6913391 122.0459118
  45.0793778 128.7018115 122.2551701  60.1553253 135.6400079 122.2121803
  60.3489143 136.5445890 122.4581077  60.0553871 135.1807498 123.0460388
  51.8089563 125.5257970 124.7112130  51.1617478 126.2247919 124.6176606
  52.5790579 125.9594114 125.0788378  55.2168361 135.7906822 127.7862683
  55.0653868 135.5617374 126.8692767  55.2073041 136.7477423 127.7994028
  51.9853698 133.3638735 122.7708950  52.9145758 133.5149894 122.5977917
  51.5644728 133.4522755 121.9157596  50.7842030 137.3889399 120.5407487
  50.6453115 137.0208183 121.4133425  49.9956626 137.9037038 120.3691445
  51.3790182 142.4898495 111.8833024  51.5541937 142.0186539 112.6978646
  50.6922970 143.1164262 112.1114284  52.3347245 136.7671002 117.9296325
  51.9997077 136.7271772 118.8253975  51.8351190 136.1015718 117.4566735
  46.3091489 132.1738632 123.4548906  46.1711287 131.4418871 124.0560445
  47.2196412 132.0847532 123.1733094  55.2706436 134.1127036 108.2033385
  54.6535607 133.3873864 108.1066437  54.8022925 134.8736396 107.8600459
  48.9373789 131.8858591 122.9432586  49.6473408 131.2451783 122.9019204
  48.8943098 132.1371486 123.8658767  56.9260568 138.8225944 125.8639165
  56.8673114 138.1385165 125.1969748  57.3280086 139.5644934 125.4119791
  47.6502723 128.8723809 124.7628225  47.1140080 128.4214547 125.4149822
  47.0619432 129.0069718 124.0198690  45.9451267 145.6387858 118.6572884
  46.1847865 146.2706382 119.3351902  45.1020463 145.2875898 118.9438243
  47.0604982 128.3312460 107.3254689  46.1834449 128.2101261 106.9616936
  47.5362735 127.5398539 107.0733578  56.9277975 136.7865528 124.0953145
  56.0404754 136.4491450 124.2179544  57.4976526 136.0548560 124.3321910
  38.5807122 133.1189620 117.4196196  39.2678162 132.8051350 116.8317211
  38.4255251 134.0230985 117.1463447  43.3841845 128.0079817 121.8481220
  43.3000033 127.4005486 121.1131630  42.5624551 128.4988835 121.8490716
  50.4579129 141.4466981 121.0614388  50.3849300 142.2521952 121.5733692
  50.0156522 141.6458946 120.2362409  50.2468908 140.6838751 114.5717209
  49.4636430 141.2260431 114.6655434  50.9461654 141.2012730 114.9711451
  53.5565558 126.4933380 117.2151415  54.0534258 125.7403342 116.8952485
  52.7852540 126.5297697 116.6494624  61.4095316 132.1973746 118.8569706
  61.3985192 133.0798461 118.4863639  60.5412695 131.8445297 118.6624243
  52.9177812 141.3453815 123.2172547  53.6305784 141.9801280 123.1448448
  52.4267841 141.4417681 122.4012548  54.6395339 135.2505067 114.7889838
  53.7051618 135.3706530 114.6194543  54.8172008 134.3477534 114.5249848
  50.1400527 128.6350763 116.9423099  49.7698315 128.0821804 117.6304005
  50.6359620 128.0308897 116.3898099  58.0267890 131.0922387 115.3239872
  58.4928343 131.9250378 115.2500175  58.4775391 130.6267368 116.0285131
  47.9689726 139.0948258 124.0378117  48.6699185 139.7284741 124.1907512
  47.4984841 139.4362990 123.2773757  56.0944122 137.4366208 112.3226024
  56.3703965 137.3222803 113.2319898  55.2248620 137.0383693 112.2838197
  55.9984553 123.4602974 119.3630774  55.0847633 123.6907200 119.5312981
  56.4277655 123.5441418 120.2144806  55.7691012 131.6492866 121.8630668
  55.1162462 131.8968773 121.2083120  56.1471392 130.8357004 121.5293145
  52.7298186 141.6852559 115.9658838  52.9120580 140.8674215 116.4286590
  53.5531172 141.9020251 115.5283728  53.0640351 140.6120744 113.2273886
  53.5928118 140.1013199 112.6144049  53.3268571 140.2963274 114.0919420
  51.8178585 132.3912677 128.3496705  51.1419222 132.2906806 129.0199080
  52.6406219 132.2351890 128.8132702  43.5657444 138.6284613 120.9709220
  44.1510881 137.8828301 121.1037124  43.3682282 138.9388570 121.8545884
  46.4196099 141.6635861 115.9871662  45.7506474 142.1481988 115.5035702
  46.2808969 141.9105081 116.9015041  38.1575099 131.1990213 119.6913663
  38.1959198 130.6653804 120.4850781  37.6515391 130.6725419 119.0724640
  50.5601368 143.6979604 122.5854321  51.1119676 143.8611226 123.3503406
  50.9007561 144.2884042 121.9134346  45.5365861 126.0454754 123.1876205
  45.6007187 126.9069585 122.7753603  45.4732981 125.4328756 122.4548564
  45.0118133 128.1177886 126.8349240  45.6390172 127.7354964 127.4486764
  44.1546052 127.8992088 127.2004932  55.4112242 138.5240862 128.4402975
  55.9552146 139.1370820 127.9457930  54.8299087 139.0820440 128.9569988
  41.7883676 129.9254316 112.7667595  42.0837117 129.0164994 112.7134648
  40.8871712 129.9042055 112.4448597  53.6969755 141.6461580 119.5718003
  53.5720894 140.8451319 119.0628948  54.3548846 142.1407773 119.0831973
  45.3177923 128.0010312 118.7495143  44.5964509 128.6146280 118.6102616
  46.1071179 128.5368077 118.6711789  55.7604663 139.4470600 121.1997553
  54.8134999 139.3275951 121.1275880  56.1087436 138.5593098 121.2823814
  48.1204237 125.3364739 125.0235795  48.6438638 125.5827035 125.7862104
  47.9016570 126.1684773 124.6038932  43.5171518 127.6068413 112.8906920
  43.1884224 126.7265792 112.7082026  43.8710888 127.5516082 113.7783309
  52.7651097 139.2423316 117.4001905  52.6176059 138.3140023 117.5809475
  53.5904590 139.2643407 116.9158980  46.6313341 127.8941383 113.2582397
  46.9709413 128.4227304 112.5361006  47.0785461 128.2321789 114.0340964
  56.3685218 140.0651875 118.4866778  57.2931766 139.8594736 118.3491229
  56.2000522 139.8168276 119.3956120  49.3256782 126.2778434 122.7085465
  48.9853602 125.4786247 123.1106145  48.6195788 126.5780145 122.1362299
  49.9773254 123.3627746 121.1612788  50.7999323 122.8888224 121.0391679
  50.2211317 124.1418230 121.6611475  48.6181488 126.3916005 111.4575690
  49.3389851 126.7697257 110.9539407  47.9946792 127.1104881 111.5610668
  52.7612611 127.0961154 112.3934022  52.9776225 127.9785791 112.0922851
  52.2806678 126.7047367 111.6639664  47.5011832 130.0546867 118.9704767
  47.3556413 130.3687170 119.8629049  47.0237036 130.6731767 118.4175666
  49.3608215 127.0449415 119.0185657  49.3469784 126.1490508 118.6817955
  50.0780643 127.0520079 119.6523943  51.2134346 127.4786755 121.0638784
  50.9552124 128.4003826 121.0623115  50.6819386 127.0817190 121.7539248
  56.1580535 140.5837542 113.8428869  56.3317412 140.0183965 113.0902722
  56.6509426 141.3838437 113.6608359  41.9757494 132.5952211 121.9092428
  41.4310963 133.3712019 122.0412703  42.8536844 132.9423016 121.7511550
  48.7645111 125.9263795 114.2873227  48.8861022 124.9980441 114.4864114
  48.4747153 125.9402481 113.3751542  51.6336301 123.6118706 117.4239947
  51.6557998 123.6758039 116.4691926  52.0504360 122.7723214 117.6180453
  62.0119926 133.3473965 115.4619169  62.4551072 132.5981290 115.0638292
  61.1346436 133.3384101 115.0792901  57.1455707 139.9004307 110.9425768
  57.8406612 140.5210999 111.1613082  57.4878857 139.0499658 111.2178146
  42.7623516 131.7222107 124.8022585  42.0205252 131.8704743 125.3887216
  42.4416261 131.9830373 123.9389335  59.0447130 137.3504012 112.4713099
  59.5698454 137.6891285 111.7462419  58.9569483 136.4151027 112.2876233
  50.7067179 141.2638086 124.6002975  51.0154305 141.0187232 125.4725675
  51.5042661 141.4684724 124.1121845  50.7287791 143.4175995 116.8308352
  50.2892781 142.9252374 117.5241208  51.4795908 142.8748963 116.5900427
  43.2080130 139.6087536 116.8332980  44.0338150 139.3091308 116.4531623
  42.8574182 138.8395159 117.2822768  48.1761663 138.9614004 118.9030653
  47.5541672 138.2984709 118.6032881  48.8466530 138.9875136 118.2204301
  41.4088735 137.5273863 117.7921913  40.5720643 137.0996037 117.6105915
  41.3812380 137.7206306 118.7292705  48.2486191 127.4395792 128.4963159
  48.2974346 128.3157915 128.1140929  48.7908705 126.8973185 127.9234803
  58.7341036 137.9836916 127.7764296  57.9436580 137.9661055 127.2368796
  58.4974391 138.5225209 128.5313333  58.8538911 134.8329382 125.0897025
  58.9036916 134.6679390 126.0312548  58.7452835 133.9656641 124.6994906
  47.7375170 137.5117928 112.3789114  47.8863290 138.1953392 111.7255787
  48.5441614 137.4923018 112.8938570  56.1442674 130.8160310 126.4056332
  57.0452537 130.6766775 126.1140330  56.2190648 130.9814765 127.3454509
  50.4785479 128.1927165 125.2509518  49.6088788 128.4860731 124.9792107
  50.7144959 128.7767610 125.9716782  60.3557108 137.2526324 125.3339047
  60.0641917 137.6156304 126.1702508  59.7429239 136.5393332 125.1552379
  61.5552791 134.8179203 117.8541617  62.3899682 135.2569007 118.0179177
  61.6911919 134.3417857 117.0349863  58.6044296 132.3758938 123.8019105
  59.0798418 132.5686585 122.9937956  57.6809862 132.4318124 123.5562488
  45.4927803 133.5383105 113.3850183  45.2473845 132.6345435 113.5830393
  45.6623718 133.5400256 112.4429661  53.1824513 124.4106782 122.7674938
  53.7006457 125.1467809 122.4421427  52.8279646 124.7170775 123.6021698
  44.7623451 129.2711463 110.8836344  44.0692696 129.3455818 110.2276380
  44.5175202 128.5071807 111.4057861  53.4337107 120.8307064 118.2875835
  53.7138861 120.1630253 118.9136262  54.2187714 121.0236160 117.7750499
  51.2370576 140.0066058 109.8500861  50.6644543 140.6256245 109.3971333
  51.8103369 140.5565420 110.3840783  57.3045965 129.2524698 122.0347410
  58.2563388 129.3522796 122.0559634  57.1349416 128.4602967 122.5445495
  55.3260345 126.3380282 122.2206811  54.7310277 126.6185294 121.5253300
  55.0410042 126.8274182 122.9923552  54.4567835 140.2903208 110.9809444
  55.3898509 140.2248770 111.1842319  54.3691048 141.1259475 110.5223976
  57.0855852 139.6069079 107.9413391  57.0069484 139.2728942 108.8349149
  57.9065519 140.0990847 107.9404864  59.7834043 132.4730818 121.1489710
  59.7510363 131.5346819 121.3349394  60.3934667 132.5514855 120.4155535
  51.6217374 131.3426871 107.1916914  52.5676479 131.2133079 107.2605332
  51.2431619 130.6041533 107.6686342  59.9328532 129.2641861 121.1947993
  59.4167580 128.4800318 121.0077922  60.8168480 128.9360578 121.3594512
  57.5939259 123.0082877 117.1543806  57.3964080 122.6997965 118.0387138
  58.2038964 123.7344516 117.2841736  65.6010593 133.5346825 120.2895747
  66.3313982 133.2732113 120.8503450  64.9917539 132.7975547 120.3297815
  63.6825890 131.6754687 120.8870198  62.9559054 131.5410652 120.2786689
  63.2673177 131.9831516 121.6926916  51.5056067 135.3944617 128.6517571
  52.4259076 135.5723216 128.8457617  51.4705650 134.4500662 128.4997270
  49.8060291 129.2676847 107.1271799  48.8991747 128.9709960 107.2034513
  50.0836272 128.9706665 106.2606085  40.7238232 130.5883211 117.5770845
  40.4041016 129.7348519 117.2845219  40.1771660 130.8031789 118.3328813
  44.5018139 133.3045652 121.2940352  44.7204149 134.2362760 121.3128386
  44.9143913 132.9453626 122.0795156  51.4222357 123.8113737 113.2816040
  50.6123085 123.4660822 113.6571286  52.1106774 123.5021281 113.8703652
  53.3512905 122.8891784 114.9040337  53.9043944 123.3087237 115.5630360
  53.5882992 121.9627532 114.9463293  49.3746004 128.8778858 130.6843101
  49.2742731 129.8273214 130.6155192  49.1567547 128.5497096 129.8119171
  48.5759076 126.1263783 107.2683778  49.4378240 126.4518681 107.5279596
  48.7609420 125.3395278 106.7556844  40.5926492 134.2086122 119.5463967
  39.8989963 133.7940075 119.0333921  41.3399483 134.2506659 118.9497386
  56.7291712 124.9992309 114.4119001  56.1490381 125.6577113 114.0297054
  56.4627645 124.1769654 114.0006419  55.1795279 124.3997367 116.6140322
  55.6795057 124.5113901 115.8054640  55.8230887 124.0958420 117.2541130
  49.2377275 132.3075996 129.5008163  48.7544356 133.1076356 129.7072052
  49.3238214 132.3183941 128.5475607  42.5063234 134.1404376 117.4229982
  42.4833922 134.2392063 116.4711865  42.8163871 134.9869527 117.7447148
  45.1650612 136.1980531 121.5376596  46.1193866 136.1664473 121.4706528
  44.9663136 135.7371155 122.3526822  45.7549994 134.7681647 124.1047394
  46.5742883 135.2625726 124.1282231  46.0286802 133.8513615 124.0764962
  55.5116590 127.1592399 113.4675350  54.6242445 127.4442050 113.2495544
  55.9270579 126.9986163 112.6202626  58.8631126 127.1838920 117.1829689
  59.6391517 127.6735373 117.4554306  58.1379261 127.6096975 117.6401558
  61.3003685 127.8966540 118.2403629  61.8948176 127.6562276 117.5296938
  61.3730269 127.1773670 118.8677166  43.5200841 141.7400151 118.5546794
  43.3855309 140.9800551 117.9884792  43.1032903 142.4641050 118.0875583
  54.6559804 136.9237074 107.5623369  55.3595654 137.1287077 108.1781025
  53.9322453 137.4913836 107.8272453  55.4857614 132.6746935 113.6825640
  55.4292816 133.1315487 112.8433272  56.0385957 131.9137620 113.5048482
  59.2962420 128.4636667 114.5075759  59.0399354 128.0633303 115.3383967
  58.6715288 129.1780461 114.3825898  63.6074758 131.2032740 117.0147051
  63.0474316 131.2725930 117.7878613  63.0018261 131.0273725 116.2946547
  46.6769967 142.6369468 118.7665237  46.5602351 143.5814900 118.6643927
  45.8562413 142.3343029 119.1551036  56.5646501 137.3619603 109.6121830
  57.3992105 136.9300802 109.4299304  56.4030844 137.1901617 110.5398724
  56.2192393 133.8651717 110.9778169  56.1641197 133.6995988 110.0366613
  55.5938449 134.5727750 111.1340359  41.0084908 129.1019781 124.8039591
  41.6543772 128.5918735 125.2926816  40.8002060 129.8388463 125.3783016
  53.5338301 136.1700628 130.3031732  54.4029460 136.3441281 129.9418367
  53.0545052 136.9895045 130.1807461  49.5288519 123.3659826 110.5563487
  49.5167189 124.3101666 110.7131758  50.4211941 123.1829971 110.2622948
  47.7024481 143.2897729 121.9821165  48.6051728 143.3221340 122.2987660
  47.4761851 142.3598180 121.9967501  49.4578083 142.0428716 118.6431244
  48.5073714 142.0430578 118.5295616  49.7610569 141.2961451 118.1267279
  53.3440638 119.9602602 114.8109424  52.5773034 119.4061089 114.9566106
  53.7551343 120.0324471 115.6723576  45.3482399 126.2487398 128.9014605
  46.2113861 125.8924203 129.1117930  44.7747810 125.9101293 129.5890010
  65.1930776 147.8789254 119.7077006  65.8309186 147.7596002 119.0040346
  65.0751619 148.8270098 119.7664958  62.0020483 147.8316683 119.6438531
  61.6638994 147.7157747 118.7559066  62.8710251 147.4307848 119.6239537
  57.8607298 149.6852159 115.6335422  57.2972163 149.5942096 114.8651710
  57.7459693 148.8652063 116.1137914  62.4840266 148.9851534 125.6024737
  62.4728906 148.5904333 124.7305240  62.6460905 148.2517607 126.1958508
  55.4071730 151.1803351 118.4719642  56.1993022 150.8394175 118.0565942
  55.6468380 151.2898326 119.3921796  63.4406857 153.3523127 110.9449887
  62.7894837 153.9377207 110.5583901  64.2351220 153.8829322 111.0044924
  57.3662484 150.4412264 111.3437021  58.1393360 149.8941251 111.2049897
  57.7187883 151.3056513 111.5551483  59.2047527 151.7688646 124.5503920
  58.9137393 152.6734277 124.4350587  59.8404511 151.8105174 125.2647990
  60.1303734 149.1465495 121.1405280  60.7267306 148.9221517 120.4262243
  60.1878705 148.4050240 121.7430728  59.7028762 146.6004930 108.9755471
  59.9554283 146.0786451 108.2138934  58.7653321 146.4371075 109.0782155
  64.7472045 145.6040708 116.7830214  65.5335134 145.1860131 116.4320631
  65.0110749 146.5086800 116.9511863  64.9182122 151.0413559 111.4818871
  64.2827955 151.1148185 112.1939776  64.5879529 151.6307157 110.8037950
  70.1480472 145.5415941 117.6863193  70.8805644 144.9715158 117.9201022
  69.3919828 145.1537542 118.1269698  59.4225051 148.5033036 111.1779846
  59.3061309 147.8277939 111.8460930  59.5327311 148.0165410 110.3611999
  61.7656592 147.9643183 114.8826535  61.4014799 147.4373804 115.5939457
  62.6223708 147.5741652 114.7093021  67.6705892 139.2537516 122.1457801
  67.3389217 140.1232927 121.9219016  67.0751506 138.9373800 122.8251832
  61.4062079 142.9933083 109.8787884  61.5736481 143.8613319 110.2458355
  61.2159248 143.1560364 108.9549173  64.1637412 151.4550062 121.5453714
  63.8638135 152.3575100 121.4369521  63.8188471 151.1882245 122.3974867
  57.6149893 147.9063858 117.5790419  56.6900390 147.7740072 117.7868110
  57.8634307 148.6858078 118.0760361  67.5634556 143.9732602 119.2251152
  66.6551433 143.9048010 118.9309912  67.5122151 144.4504547 120.0532977
  61.3851300 145.4490740 110.8634551  61.2650925 145.8947791 111.7020031
  60.6903888 145.7976058 110.3048089  54.9758704 147.5497132 118.4134208
  55.1051086 147.8031611 119.3273619  54.2956156 148.1424840 118.0938863
  61.6375421 145.3922247 127.1686049  60.8608755 145.9516167 127.1588913
  62.2765984 145.8779030 127.6900919  69.4296202 142.1749040 121.0029025
  68.7870582 142.4681573 120.3568820  68.9251131 142.0601960 121.8082222
  67.0836366 145.9212213 111.6914885  67.9954222 146.1539600 111.5162582
  66.5746013 146.5049258 111.1289963  59.8921794 148.2007701 126.7304016
  60.6336478 148.7392745 126.4538839  59.1858779 148.8273989 126.8875568
  65.3677133 150.3436841 125.3276177  65.7760489 149.9019252 124.5830810
  64.6454395 149.7689469 125.5810370  61.7208203 145.2809448 122.7009734
  62.5669399 145.7048861 122.8444383  61.6606841 144.6243072 123.3948297
  65.6905948 150.9038032 119.0828466  65.0614810 151.0683746 118.3804534
  65.3031610 151.3179641 119.8539430  69.5695180 151.8392470 116.4372830
  68.8846218 152.2191371 115.8869863  69.6539029 152.4487796 117.1704778
  64.8707649 142.9413816 124.3590908  64.6268581 143.6955877 123.8225184
  65.1467579 143.3199164 125.1938155  66.8246111 149.4852429 123.0368173
  67.0363007 150.1284189 122.3602555  66.7775860 148.6514745 122.5690104
  64.4272340 142.0970249 119.9404746  63.5656819 142.3951503 120.2321483
  64.4534775 142.3140648 119.0085778  61.2433910 150.6412440 116.3478551
  61.7072255 150.9200143 115.5583174  60.9790708 149.7395884 116.1651642
  58.1357991 150.1883921 119.2858315  58.7059348 150.6171190 118.6475799
  58.7266103 149.9066506 119.9842500  60.1802796 146.7635592 113.1568116
  60.8826839 147.2156636 113.6242043  59.8483424 146.1219411 113.7848010
  58.6283157 145.3547349 127.5319326  57.9981818 146.0363630 127.7654723
  58.5219245 145.2430430 126.5872464  53.9228130 145.0219145 118.4585250
  53.1327184 145.2776673 117.9825361  54.4139377 145.8367483 118.5637290
  67.9391939 152.3624384 121.2090531  68.7609383 151.9604571 120.9273212
  67.9354342 152.2592618 122.1606647  55.8742875 145.3863724 115.4168727
  55.0774039 145.4982418 115.9352222  55.6468467 145.7250376 114.5509617
  61.7048543 151.9108427 123.3651241  61.7692975 152.3728835 124.2009413
  60.9959467 151.2805792 123.4933551  52.2065833 145.2749635 120.8900241
  52.4573871 146.1596645 121.1557817  52.7425381 145.0954237 120.1175333
  76.0297932 148.7063133 117.5575502  75.2761641 148.1370531 117.4019507
  76.1645474 148.6725797 118.5046137  61.4196561 153.5776535 113.2330222
  61.2842235 154.4228071 113.6615069  61.9606373 153.7795812 112.4696155
  57.9063900 139.6568115 129.8944577  57.5130846 139.1034313 130.5692221
  58.7230040 139.9678693 130.2851094  54.8725958 151.0951973 113.8058147
  55.3850478 151.8895223 113.9563711  55.5248671 150.3978263 113.7391748
  60.8231861 141.0725994 127.4864833  61.5641575 141.6733147 127.4069296
  61.0549784 140.3303632 126.9282876  55.9673199 146.2582361 125.7643063
  55.8526714 145.3567618 126.0650162  55.1117717 146.5046058 125.4127880
  63.0465037 154.2000101 127.3630564  62.6028891 153.4136480 127.0451468
  63.7082250 154.3879252 126.6974454  65.1446275 154.4802901 125.3911965
  65.1264750 155.3011782 124.8992234  66.0666195 154.3556977 125.6162106
  61.6019329 151.9947031 126.2335473  62.1347666 151.2335319 126.0034781
  61.0733410 151.7020683 126.9759628  64.7689024 137.1007097 121.7629115
  64.4253293 137.9908738 121.6868226  65.1367987 136.9108754 120.8998700
  52.8374875 149.4240627 114.5817717  53.6750097 149.8337636 114.3651425
  53.0153142 148.4840069 114.5517911  64.7339307 147.0915708 110.2701550
  64.2185930 147.8620312 110.5089938  64.4616615 146.4180844 110.8934612
  62.3186418 141.9365409 115.3286789  61.4628014 141.5472259 115.1492427
  62.7313370 142.0157369 114.4686574  63.8485564 139.4711752 119.7278348
  63.3450360 139.4341887 118.9146154  64.1416171 140.3804495 119.7875005
  60.0928450 139.5550482 118.7344530  60.9581447 139.3593290 118.3750420
  60.1605959 139.3260833 119.6613887  69.7073581 149.8448062 112.2054724
  68.9303024 149.5059222 111.7609886  70.3865062 149.8500686 111.5309689
  64.5225610 144.9642800 112.0961331  64.2175746 145.2788949 112.9471475
  65.4756052 145.0424220 112.1388664  62.9672042 151.1233023 113.7454285
  62.4393403 150.3885783 113.4327523  62.4659545 151.9007700 113.4994254
  67.9464888 149.3182044 118.8621332  67.2888562 150.0081305 118.9501460
  68.7505287 149.7078476 119.2055318  57.6990769 141.7852690 116.1060897
  58.2734521 141.5627871 115.3734090  58.2861752 141.8541384 116.8589498
  66.7570347 147.6726416 116.9125273  67.2702228 148.3056408 117.4146983
  67.4071571 147.0727612 116.5468633  58.0260357 143.8157151 110.1256782
  57.1897669 144.1531837 110.4466057  57.8865126 143.6806130 109.1883919
  60.0013437 138.6593938 114.8335966  59.3477850 138.3442956 114.2092581
  59.9593911 138.0369679 115.5595789  61.1124642 148.9413234 106.7489258
  60.2051704 148.7102487 106.9480407  61.6095674 148.1450853 106.9363240
  63.2351178 145.1475872 119.1583614  62.3173739 145.3690819 119.0005302
  63.6511321 145.2222182 118.2995321  64.0186225 146.5467288 114.2886294
  64.7658044 147.0588685 113.9793416  64.2877815 146.2251340 115.1490688
  62.2912875 149.0425828 111.2713248  61.3824095 148.7584861 111.3685718
  62.3207959 149.4624907 110.4116555  67.5232143 152.6532418 115.0404416
  67.0694470 151.8123328 115.0969607  66.8926110 153.2893816 115.3779196
  66.4665062 143.5824404 116.2705083  65.7287819 143.0701790 116.6015326
  66.7191836 143.1424786 115.4588360  65.9665082 154.4908915 115.9754234
  66.2588056 155.0513972 115.2566600  66.4763703 154.7837476 116.7307393
  66.5676690 136.3600656 116.8646853  66.8735567 135.4998019 116.5772768
  67.2929295 136.9518276 116.6645847  52.8601046 146.7631343 115.2528451
  52.6625446 146.1700703 114.5279517  52.3047710 146.4583553 115.9704389
  60.8397769 146.6554449 117.3723044  60.8946379 145.7028285 117.2965520
  60.0288972 146.8113888 117.8564342  61.9888963 150.5834572 108.6101327
  61.5508393 149.8670431 108.1506964  62.7299404 150.8110687 108.0486418
  58.7790129 145.2731509 115.1313423  57.9657995 145.5725679 115.5378615
  59.2749124 144.8787198 115.8487905  60.9298707 155.2689266 117.0647687
  60.8874886 155.4950112 116.1356219  61.8461406 155.0352640 117.2133489
  64.3764341 145.7373333 123.9628317  64.7313729 145.9644806 124.8222782
  65.0236472 146.0691710 123.3405572  70.1062078 148.8591769 114.6677646
  69.9679977 149.0493365 113.7398835  69.7498297 149.6211152 115.1245697
  58.2704204 142.8449864 120.7474658  58.9103583 142.7038623 120.0497621
  57.4381735 142.5584378 120.3713260  70.1331458 150.9268296 119.6788917
  70.5667964 150.8343585 120.5271971  70.8463038 150.9025797 119.0408933
  59.0464508 152.1452295 116.8609650  59.8405107 151.6502615 116.6592225
  58.3356200 151.6170158 116.4977356  63.8659353 154.5270390 121.2122018
  63.9196375 155.0961327 121.9799734  62.9974134 154.6972275 120.8476055
  55.3547272 146.2895376 112.9369403  54.4244860 146.2279832 113.1539365
  55.4504744 145.7671329 112.1406044  55.2732821 142.8150189 115.5247644
  55.5339638 143.7295522 115.4156805  56.0949993 142.3474632 115.6744257
  56.7457746 144.2287946 122.6946469  57.4180799 144.0205309 122.0459118
  55.9187532 144.0310032 122.2551701  70.9947007 150.9691997 122.2121803
  71.1882897 151.8737807 122.4581077  70.8947625 150.5099416 123.0460388
  62.6483318 140.8549887 124.7112130  62.0011233 141.5539837 124.6176606
  63.4184333 141.2886031 125.0788378  66.0562116 151.1198740 127.7862683
  65.9047622 150.8909291 126.8692767  66.0466795 152.0769341 127.7994028
  62.8247452 148.6930652 122.7708950  63.7539512 148.8441812 122.5977917
  62.4038482 148.7814673 121.9157596  61.6235784 152.7181317 120.5407487
  61.4846870 152.3500101 121.4133425  60.8350380 153.2328956 120.3691445
  63.1740999 152.0962919 117.9296325  62.8390832 152.0563689 118.8253975
  62.6744945 151.4307635 117.4566735  57.1485243 147.5030549 123.4548906
  57.0105041 146.7710788 124.0560445  58.0590167 147.4139449 123.1733094
  66.1100191 149.4418954 108.2033385  65.4929362 148.7165782 108.1066437
  65.6416679 150.2028314 107.8600459  59.7767544 147.2150509 122.9432586
  60.4867162 146.5743701 122.9019204  59.7336852 147.4663404 123.8658767
  67.7654323 154.1517862 125.8639165  67.7066869 153.4677082 125.1969748
  68.1673841 154.8936852 125.4119791  58.4896478 144.2015727 124.7628225
  57.9533835 143.7506465 125.4149822  57.9013186 144.3361635 124.0198690
  57.8998737 143.6604378 107.3254689  57.0228203 143.5393179 106.9616936
  58.3756490 142.8690456 107.0733578  67.7671730 152.1157446 124.0953145
  66.8798509 151.7783368 124.2179544  68.3370281 151.3840477 124.3321910
  49.4200877 148.4481538 117.4196196  50.1071917 148.1343268 116.8317211
  49.2649006 149.3522902 117.1463447  54.2235599 143.3371734 121.8481220
  54.1393788 142.7297404 121.1131630  53.4018305 143.8280753 121.8490716
  64.3959313 141.8225298 117.2151415  64.8928012 141.0695260 116.8952485
  63.6246294 141.8589614 116.6494624  72.2489070 147.5265663 118.8569706
  72.2378947 148.4090379 118.4863639  71.3806450 147.1737214 118.6624243
  65.4789094 150.5796985 114.7889838  64.5445372 150.6998448 114.6194543
  65.6565762 149.6769452 114.5249848  60.9794282 143.9642681 116.9423099
  60.6092069 143.4113721 117.6304005  61.4753374 143.3600814 116.3898099
  68.8661645 146.4214304 115.3239872  69.3322097 147.2542296 115.2500175
  69.3169145 145.9559286 116.0285131  58.8083480 154.4240176 124.0378117
  59.5092940 155.0576659 124.1907512  58.3378595 154.7654907 123.2773757
  66.9337876 152.7658126 112.3226024  67.2097720 152.6514720 113.2319898
  66.0642375 152.3675610 112.2838197  66.8378308 138.7894891 119.3630774
  65.9241388 139.0199118 119.5312981  67.2671409 138.8733335 120.2144806
  66.6084766 146.9784783 121.8630668  65.9556216 147.2260691 121.2083120
  66.9865146 146.1648921 121.5293145  63.9034106 155.9412662 113.2273886
  64.4321872 155.4305116 112.6144049  64.1662325 155.6255192 114.0919420
  62.6572339 147.7204594 128.3496705  61.9812976 147.6198724 129.0199080
  63.4799973 147.5643808 128.8132702  48.9968853 146.5282131 119.6913663
  49.0352953 145.9945722 120.4850781  48.4909146 146.0017337 119.0724640
  56.3759615 141.3746672 123.1876205  56.4400942 142.2361502 122.7753603
  56.3126736 140.7620673 122.4548564  55.8511888 143.4469804 126.8349240
  56.4783927 143.0646881 127.4486764  54.9939807 143.2284006 127.2004932
  66.2505996 153.8532779 128.4402975  66.7945900 154.4662738 127.9457930
  65.6692841 154.4112358 128.9569988  52.6277431 145.2546233 112.7667595
  52.9230872 144.3456912 112.7134648  51.7265466 145.2333973 112.4448597
  56.1571678 143.3302230 118.7495143  55.4358263 143.9438198 118.6102616
  56.9464933 143.8659995 118.6711789  66.5998418 154.7762517 121.1997553
  65.6528753 154.6567869 121.1275880  66.9481191 153.8885015 121.2823814
  58.9597991 140.6656656 125.0235795  59.4832393 140.9118953 125.7862104
  58.7410324 141.4976691 124.6038932  54.3565272 142.9360331 112.8906920
  54.0277978 142.0557710 112.7082026  54.7104643 142.8808000 113.7783309
  63.6044851 154.5715234 117.4001905  63.4569814 153.6431941 117.5809475
  64.4298345 154.5935324 116.9158980  57.4707095 143.2233301 113.2582397
  57.8103168 143.7519222 112.5361006  57.9179216 143.5613707 114.0340964
  67.2078973 155.3943792 118.4866778  68.1325520 155.1886654 118.3491229
  67.0394276 155.1460194 119.3956120  60.1650536 141.6070351 122.7085465
  59.8247357 140.8078164 123.1106145  59.4589542 141.9072062 122.1362299
  60.8167008 138.6919664 121.1612788  61.6393077 138.2180142 121.0391679
  61.0605072 139.4710148 121.6611475  59.4575243 141.7207922 111.4575690
  60.1783605 142.0989175 110.9539407  58.8340547 142.4396799 111.5610668
  63.6006365 142.4253071 112.3934022  63.8169980 143.3077709 112.0922851
  63.1200433 142.0339285 111.6639664  58.3405587 145.3838784 118.9704767
  58.1950167 145.6979088 119.8629049  57.8630790 146.0023685 118.4175666
  60.2001970 142.3741332 119.0185657  60.1863538 141.4782426 118.6817955
  60.9174398 142.3811996 119.6523943  62.0528100 142.8078673 121.0638784
  61.7945878 143.7295743 121.0623115  61.5213141 142.4109107 121.7539248
  66.9974289 155.9129460 113.8428869  67.1711167 155.3475882 113.0902722
  67.4903180 156.7130355 113.6608359  52.8151249 147.9244129 121.9092428
  52.2704717 148.7003937 122.0412703  53.6930599 148.2714933 121.7511550
  59.6038866 141.2555713 114.2873227  59.7254777 140.3272359 114.4864114
  59.3140908 141.2694399 113.3751542  62.4730056 138.9410623 117.4239947
  62.4951753 139.0049956 116.4691926  62.8898115 138.1015132 117.6180453
  72.8513680 148.6765883 115.4619169  73.2944826 147.9273208 115.0638292
  71.9740191 148.6676019 115.0792901  67.9849462 155.2296224 110.9425768
  68.6800366 155.8502917 111.1613082  68.3272612 154.3791575 111.2178146
  53.6017271 147.0514025 124.8022585  52.8599007 147.1996661 125.3887216
  53.2810015 147.3122291 123.9389335  69.8840885 152.6795930 112.4713099
  70.4092209 153.0183202 111.7462419  69.7963237 151.7442945 112.2876233
  59.0155418 154.2905922 118.9030653  58.3935427 153.6276627 118.6032881
  59.6860285 154.3167054 118.2204301  59.0879945 142.7687710 128.4963159
  59.1368101 143.6449833 128.1140929  59.6302459 142.2265103 127.9234803
  69.5734791 153.3128833 127.7764296  68.7830335 153.2952972 127.2368796
  69.3368145 153.8517127 128.5313333  69.6932666 150.1621300 125.0897025
  69.7430671 149.9971307 126.0312548  69.5846589 149.2948559 124.6994906
  58.5768925 152.8409845 112.3789114  58.7257045 153.5245310 111.7255787
  59.3835368 152.8214936 112.8938570  66.9836428 146.1452228 126.4056332
  67.8846291 146.0058693 126.1140330  67.0584403 146.3106683 127.3454509
  61.3179234 143.5219083 125.2509518  60.4482543 143.8152649 124.9792107
  61.5538714 144.1059528 125.9716782  71.1950863 152.5818241 125.3339047
  70.9035671 152.9448222 126.1702508  70.5822994 151.8685250 125.1552379
  72.3946545 150.1471121 117.8541617  73.2293436 150.5860925 118.0179177
  72.5305674 149.6709774 117.0349863  69.4438051 147.7050856 123.8019105
  69.9192173 147.8978502 122.9937956  68.5203616 147.7610042 123.5562488
  56.3321558 148.8675023 113.3850183  56.0867599 147.9637353 113.5830393
  56.5017472 148.8692174 112.4429661  64.0218267 139.7398699 122.7674938
  64.5400211 140.4759726 122.4421427  63.6673400 140.0462693 123.6021698
  55.6017205 144.6003381 110.8836344  54.9086450 144.6747736 110.2276380
  55.3568957 143.8363724 111.4057861  64.2730862 136.1598982 118.2875835
  64.5532615 135.4922171 118.9136262  65.0581469 136.3528078 117.7750499
  62.0764330 155.3357976 109.8500861  61.5038297 155.9548163 109.3971333
  62.6497124 155.8857338 110.3840783  68.1439720 144.5816616 122.0347410
  69.0957143 144.6814714 122.0559634  67.9743170 143.7894885 122.5445495
  66.1654099 141.6672199 122.2206811  65.5704032 141.9477212 121.5253300
  65.8803796 142.1566100 122.9923552  65.2961590 155.6195126 110.9809444
  66.2292263 155.5540688 111.1842319  65.2084803 156.4551393 110.5223976
  67.9249607 154.9360996 107.9413391  67.8463238 154.6020860 108.8349149
  68.7459273 155.4282764 107.9404864  70.6227798 147.8022736 121.1489710
  70.5904118 146.8638736 121.3349394  71.2328421 147.8806772 120.4155535
  62.4611129 146.6718789 107.1916914  63.4070233 146.5424997 107.2605332
  62.0825374 145.9333451 107.6686342  70.7722286 144.5933779 121.1947993
  70.2561335 143.8092236 121.0077922  71.6562235 144.2652496 121.3594512
  68.4333013 138.3374795 117.1543806  68.2357834 138.0289883 118.0387138
  69.0432719 139.0636434 117.2841736  76.4404348 148.8638743 120.2895747
  77.1707736 148.6024031 120.8503450  75.8311293 148.1267464 120.3297815
  74.5219645 147.0046605 120.8870198  73.7952808 146.8702570 120.2786689
  74.1066932 147.3123434 121.6926916  62.3449821 150.7236535 128.6517571
  63.2652831 150.9015134 128.8457617  62.3099404 149.7792580 128.4997270
  60.6454046 144.5968765 107.1271799  59.7385501 144.3001878 107.2034513
  60.9230027 144.2998583 106.2606085  51.5631986 145.9175128 117.5770845
  51.2434770 145.0640437 117.2845219  51.0165414 146.1323707 118.3328813
  55.3411894 148.6337569 121.2940352  55.5597903 149.5654677 121.3128386
  55.7537667 148.2745544 122.0795156  62.2616111 139.1405655 113.2816040
  61.4516840 138.7952740 113.6571286  62.9500528 138.8313198 113.8703652
  64.1906660 138.2183702 114.9040337  64.7437698 138.6379155 115.5630360
  64.4276746 137.2919450 114.9463293  60.2139759 144.2070775 130.6843101
  60.1136486 145.1565132 130.6155192  59.9961301 143.8789014 129.8119171
  59.4152830 141.4555700 107.2683778  60.2771994 141.7810599 107.5279596
  59.6003175 140.6687196 106.7556844  51.4320246 149.5378040 119.5463967
  50.7383718 149.1231993 119.0333921  52.1793237 149.5798576 118.9497386
  67.5685467 140.3284227 114.4119001  66.9884136 140.9869031 114.0297054
  67.3021400 139.5061571 114.0006419  66.0189033 139.7289284 116.6140322
  66.5188812 139.8405819 115.8054640  66.6624641 139.4250337 117.2541130
  60.0771029 147.6367914 129.5008163  59.5938111 148.4368274 129.7072052
  60.1631968 147.6475859 128.5475607  53.3456989 149.4696294 117.4229982
  53.3227677 149.5683981 116.4711865  53.6557625 150.3161445 117.7447148
  56.0044367 151.5272449 121.5376596  56.9587620 151.4956391 121.4706528
  55.8056890 151.0663072 122.3526822  56.5943749 150.0973565 124.1047394
  57.4136638 150.5917643 124.1282231  56.8680556 149.1805533 124.0764962
  66.3510345 142.4884317 113.4675350  65.4636200 142.7733968 113.2495544
  66.7664334 142.3278080 112.6202626  69.7024881 142.5130838 117.1829689
  70.4785271 143.0027291 117.4554306  68.9773015 142.9388892 117.6401558
  72.1397440 143.2258457 118.2403629  72.7341930 142.9854193 117.5296938
  72.2124023 142.5065588 118.8677166  65.4953558 152.2528992 107.5623369
  66.1989408 152.4578994 108.1781025  64.7716207 152.8205754 107.8272453
  66.3251369 148.0038853 113.6825640  66.2686570 148.4607404 112.8433272
  66.8779711 147.2429538 113.5048482  70.1356175 143.7928585 114.5075759
  69.8793109 143.3925221 115.3383967  69.5109043 144.5072379 114.3825898
  74.4468512 146.5324658 117.0147051  73.8868070 146.6017847 117.7878613
  73.8412016 146.3565643 116.2946547  67.4040256 152.6911521 109.6121830
  68.2385860 152.2592719 109.4299304  67.2424599 152.5193535 110.5398724
  67.0586148 149.1943634 110.9778169  67.0034952 149.0287906 110.0366613
  66.4332203 149.9019667 111.1340359  51.8478663 144.4311699 124.8039591
  52.4937526 143.9210653 125.2926816  51.6395814 145.1680380 125.3783016
  64.3732055 151.4992546 130.3031732  65.2423215 151.6733198 129.9418367
  63.8938807 152.3186963 130.1807461  60.3682273 138.6951743 110.5563487
  60.3560943 139.6393583 110.7131758  61.2605695 138.5121889 110.2622948
  64.1834393 135.2894520 114.8109424  63.4166789 134.7353007 114.9566106
  64.5945098 135.3616389 115.6723576  56.1876154 141.5779316 128.9014605
  57.0507615 141.2216121 129.1117930  55.6141565 141.2393211 129.5890010
  80.9874226 160.8707859 117.6863193  81.7199398 160.3007076 117.9201022
  80.2313582 160.4829460 118.1269698  78.5099647 154.5829433 122.1457801
  78.1782972 155.4524844 121.9219016  77.9145260 154.2665717 122.8251832
  72.2455833 158.3225000 109.8787884  72.4130235 159.1905237 110.2458355
  72.0553002 158.4852282 108.9549173  78.4028310 159.3024519 119.2251152
  77.4945187 159.2339928 118.9309912  78.3515906 159.7796464 120.0532977
  80.2689957 157.5040958 121.0029025  79.6264337 157.7973491 120.3568820
  79.7644885 157.3893878 121.8082222  75.7101403 158.2705734 124.3590908
  75.4662335 159.0247794 123.8225184  75.9861334 158.6491082 125.1938155
  75.2666095 157.4262167 119.9404746  74.4050574 157.7243421 120.2321483
  75.2928530 157.6432566 119.0085778  86.8691687 164.0355050 117.5575502
  86.1155395 163.4662448 117.4019507  87.0039228 164.0017715 118.5046137
  68.7457655 154.9860032 129.8944577  68.3524600 154.4326231 130.5692221
  69.5623795 155.2970611 130.2851094  71.6625616 156.4017911 127.4864833
  72.4035329 157.0025065 127.4069296  71.8943538 155.6595549 126.9282876
  75.6082779 152.4299014 121.7629115  75.2647048 153.3200656 121.6868226
  75.9761741 152.2400672 120.8998700  73.1580172 157.2657326 115.3286789
  72.3021769 156.8764177 115.1492427  73.5707124 157.3449287 114.4686574
  74.6879319 154.8003670 119.7278348  74.1844115 154.7633805 118.9146154
  74.9809926 155.7096412 119.7875005  70.9322205 154.8842399 118.7344530
  71.7975202 154.6885208 118.3750420  70.9999714 154.6552751 119.6613887
  75.3619364 160.2934718 112.0961331  75.0569500 160.6080867 112.9471475
  76.3149807 160.3716138 112.1388664  68.5384524 157.1144607 116.1060897
  69.1128276 156.8919789 115.3734090  69.1255506 157.1833302 116.8589498
  70.8407192 153.9885856 114.8335966  70.1871604 153.6734873 114.2092581
  70.7987666 153.3661597 115.5595789  77.3058817 158.9116322 116.2705083
  76.5681574 158.3993708 116.6015326  77.5585590 158.4716703 115.4588360
  77.4070444 151.6892574 116.8646853  77.7129321 150.8289937 116.5772768
  78.1323049 152.2810194 116.6645847  69.1097959 158.1741782 120.7474658
  69.7497338 158.0330541 120.0497621  68.2775489 157.8876295 120.3713260
  73.4877072 156.1841805 124.7112130  72.8404987 156.8831755 124.6176606
  74.2578088 156.6177949 125.0788378  75.2353067 157.1517216 117.2151415
  75.7321767 156.3987178 116.8952485  74.4640049 157.1881532 116.6494624
  71.8188036 159.2934598 116.9423099  71.4485824 158.7405639 117.6304005
  72.3147129 158.6892732 116.3898099  77.6772062 154.1186809 119.3630774
  76.7635142 154.3491036 119.5312981  78.1065164 154.2025253 120.2144806
  67.2153370 156.7038589 123.1876205  67.2794696 157.5653420 122.7753603
  67.1520490 156.0912591 122.4548564  69.7991746 155.9948574 125.0235795
  70.3226147 156.2410871 125.7862104  69.5804079 156.8268609 124.6038932
  71.0044291 156.9362269 122.7085465  70.6641111 156.1370082 123.1106145
  70.2983297 157.2363980 122.1362299  71.6560763 154.0211582 121.1612788
  72.4786832 153.5472060 121.0391679  71.8998826 154.8002065 121.6611475
  70.2968997 157.0499840 111.4575690  71.0177359 157.4281093 110.9539407
  69.6734301 157.7688717 111.5610668  74.4400120 157.7544989 112.3934022
  74.6563734 158.6369627 112.0922851  73.9594187 157.3631202 111.6639664
  71.0395724 157.7033250 119.0185657  71.0257293 156.8074343 118.6817955
  71.7568152 157.7103914 119.6523943  72.8921855 158.1370590 121.0638784
  72.6339633 159.0587661 121.0623115  72.3606895 157.7401025 121.7539248
  70.4432620 156.5847630 114.2873227  70.5648531 155.6564277 114.4864114
  70.1534662 156.5986316 113.3751542  73.3123810 154.2702541 117.4239947
  73.3345507 154.3341874 116.4691926  73.7291869 153.4307050 117.6180453
  72.1572988 158.8511000 125.2509518  71.2876297 159.1444566 124.9792107
  72.3932468 159.4351445 125.9716782  74.8612022 155.0690617 122.7674938
  75.3793966 155.8051644 122.4421427  74.5067155 155.3754610 123.6021698
  75.1124616 151.4890900 118.2875835  75.3926370 150.8214089 118.9136262
  75.8975223 151.6819995 117.7750499  78.9833474 159.9108534 122.0347410
  79.9350897 160.0106631 122.0559634  78.8136925 159.1186802 122.5445495
  77.0047854 156.9964117 122.2206811  76.4097786 157.2769130 121.5253300
  76.7197551 157.4858018 122.9923552  81.6116041 159.9225697 121.1947993
  81.0955089 159.1384153 121.0077922  82.4955989 159.5944413 121.3594512
  79.2726768 153.6666712 117.1543806  79.0751589 153.3581801 118.0387138
  79.8826473 154.3928351 117.2841736  87.2798102 164.1930660 120.2895747
  88.0101491 163.9315948 120.8503450  86.6705048 163.4559382 120.3297815
  85.3613399 162.3338523 120.8870198  84.6346563 162.1994488 120.2786689
  84.9460686 162.6415351 121.6926916  73.1009866 154.4697572 113.2816040
  72.2910594 154.1244657 113.6571286  73.7894283 154.1605116 113.8703652
  75.0300414 153.5475619 114.9040337  75.5831453 153.9671073 115.5630360
  75.2670501 152.6211367 114.9463293  70.2546585 156.7847618 107.2683778
  71.1165749 157.1102516 107.5279596  70.4396929 155.9979114 106.7556844
  78.4079221 155.6576144 114.4119001  77.8277890 156.3160948 114.0297054
  78.1415154 154.8353489 114.0006419  76.8582788 155.0581202 116.6140322
  77.3582566 155.1697737 115.8054640  77.5018396 154.7542255 117.2541130
  77.1904099 157.8176235 113.4675350  76.3029954 158.1025885 113.2495544
  77.6058088 157.6569998 112.6202626  80.5418635 157.8422756 117.1829689
  81.3179026 158.3319208 117.4554306  79.8166770 158.2680810 117.6401558
  82.9791194 158.5550375 118.2403629  83.5735685 158.3146111 117.5296938
  83.0517778 157.8357506 118.8677166  80.9749929 159.1220503 114.5075759
  80.7186863 158.7217138 115.3383967  80.3502797 159.8364297 114.3825898
  85.2862267 161.8616576 117.0147051  84.7261825 161.9309765 117.7878613
  84.6805770 161.6857560 116.2946547  71.2076028 154.0243661 110.5563487
  71.1954698 154.9685501 110.7131758  72.0999450 153.8413806 110.2622948
  75.0228147 150.6186438 114.8109424  74.2560543 150.0644924 114.9566106
  75.4338852 150.6908306 115.6723576  67.0269908 156.9071233 128.9014605
  67.8901370 156.5508038 129.1117930  66.4535319 156.5685128 129.5890010
   5.1117946  30.5726558 104.4108500   5.8443118  30.0025775 104.6446329
   4.3557302  30.1848158 104.8515005   2.6343367  24.2848132 108.8703108
   2.3026691  25.1543543 108.6464323   2.0388980  23.9684416 109.5497138
   2.5272030  29.0043218 105.9496458   1.6188907  28.9358627 105.6555219
   2.4759626  29.4815163 106.7778284   4.3933676  27.2059657 107.7274332
   3.7508057  27.4992190 107.0814127   3.8888605  27.0912577 108.5327529
   2.0473840  30.9522830  98.4160191   2.9591696  31.1850217  98.2407889
   1.5383487  31.5359874  97.8535270   4.5332654  36.8703086 103.1618137
   3.8483692  37.2501988 102.6115170   4.6176504  37.4798413 103.8950084
   1.7883586  34.5163045 109.7613480   2.0000481  35.1594805 109.0847861
   1.7413334  33.6825362 109.2935410   2.9029414  37.3935001 107.9335837
   3.7246857  36.9915188 107.6518519   2.8991817  37.2903235 108.8851953
  10.9935407  33.7373749 104.2820809  10.2399115  33.1681147 104.1264813
  11.1282948  33.7036414 105.2291444   4.6711055  34.8758679  98.9300030
   3.8940498  34.5369839  98.4855192   5.3502536  34.8811302  98.2554995
   2.9102362  34.3492660 105.5866638   2.2526037  35.0391922 105.6746767
   3.7142761  34.7389092 105.9300625   1.7207821  32.7037033 103.6370580
   2.2339703  33.3367025 104.1392290   2.3709045  32.1038228 103.2713940
   2.4869617  37.6843034 101.7649723   2.0331944  36.8433944 101.8214913
   1.8563584  38.3204433 102.1024503   1.4302537  28.6135020 102.9950390
   0.6925294  28.1012407 103.3260633   1.6829310  28.1735402 102.1833667
   0.9302556  39.5219531 102.6999541   1.2225531  40.0824588 101.9811906
   1.4401177  39.8148092 103.4552700   5.0699552  33.8902386 101.3922952
   4.9317451  34.0803982 100.4644141   4.7135771  34.6521768 101.8491003
   5.0968932  35.9578913 106.4034224   5.5305439  35.8654202 107.2517278
   5.8100513  35.9336413 105.7654240   5.9584482  36.0002613 108.9367109
   6.1520372  36.9048424 109.1826384   5.8585100  35.5410032 109.7705694
   1.0199590  36.1509356 114.5107990   0.8685097  35.9219908 113.5938073
   1.0104270  37.1079957 114.5239335   1.0737665  34.4729570  94.9278691
   0.4566836  33.7476398  94.8311744   0.6054154  35.2338931  94.5845766
   2.7291797  39.1828479 112.5884472   2.6704343  38.4987699 111.9215055
   3.1311315  39.9247469 112.1365098   2.7309204  37.1468063 110.8198451
   1.8435983  36.8093984 110.9424850   3.3007755  36.4151094 111.0567217
   7.2126545  32.5576280 105.5815013   7.2016421  33.4400995 105.2108946
   6.3443924  32.2047831 105.3869550   3.8299119  31.4524921 102.0485179
   4.2959571  32.2852912 101.9745482   4.2806620  30.9869902 102.7530437
   1.8975350  37.7968742  99.0471331   2.1735194  37.6825337  99.9565205
   1.0279849  37.3986227  99.0083504   1.8015782  23.8205508 106.0876080
   0.8878862  24.0509735 106.2558287   2.2308884  23.9043952 106.9390113
   1.5722241  32.0095400 108.5875974   0.9193691  32.2571307 107.9328427
   1.9502620  31.1959538 108.2538452   1.2143471  38.8843396 115.1648282
   1.7583375  39.4973354 114.6703237   0.6330316  39.4422974 115.6815295
   1.5635892  39.8073134 107.9242860   0.6166228  39.6878485 107.8521186
   1.9118665  38.9195632 108.0069121   2.1716447  40.4254409 105.2112085
   3.0962995  40.2197270 105.0736536   2.0031751  40.1770810 106.1201426
   1.9611763  40.9440076 100.5674176   2.1348641  40.3786499  99.8148029
   2.4540655  41.7440971 100.3853666   7.8151155  33.7076499 102.1864476
   8.2582301  32.9583824 101.7883599   6.9377665  33.6986636 101.8038208
   2.9486936  40.2606841  97.6671074   3.6437841  40.8813533  97.8858389
   3.2910086  39.4102192  97.9423452   4.8478359  37.7106546  99.1958405
   5.3729683  38.0493819  98.4707725   4.7600712  36.7753562  99.0121540
   4.5372265  38.3439450 114.5009603   3.7467809  38.3263589 113.9614103
   4.3005620  38.8827744 115.2558640   4.6570140  35.1931916 111.8142332
   4.7068145  35.0281924 112.7557854   4.5484064  34.3259175 111.4240212
   1.9473903  31.1762844 113.1301638   2.8483765  31.0369309 112.8385636
   2.0221877  31.3417299 114.0699816   6.1588337  37.6128858 112.0584353
   5.8673145  37.9758838 112.8947814   5.5460468  36.8995866 111.8797685
   7.3584019  35.1781738 104.5786923   8.1930911  35.6171542 104.7424484
   7.4943148  34.7020391 103.7595169   4.4075525  32.7361472 110.5264411
   4.8829647  32.9289119 109.7183263   3.4841091  32.7920658 110.2807795
   3.1077194  29.6127233 108.7592717   4.0594617  29.7125330 108.7804941
   2.9380645  28.8205501 109.2690801   1.1291574  26.6982816 108.9452118
   0.5341506  26.9787828 108.2498606   0.8441270  27.1876717 109.7168859
   2.8887081  39.9671613  94.6658698   2.8100712  39.6331477  95.5594456
   3.7096748  40.4593381  94.6650170   5.5865272  32.8333352 107.8735016
   5.5541592  31.8949353 108.0594700   6.1965896  32.9117389 107.1400841
   5.7359761  29.6244396 107.9193300   5.2198809  28.8402852 107.7323228
   6.6199709  29.2963112 108.0839819   3.3970487  23.3685411 103.8789112
   3.1995309  23.0600499 104.7632444   4.0070193  24.0947050 104.0087042
  11.4041822  33.8949359 107.0141053  12.1345210  33.6334647 107.5748757
  10.7948767  33.1578081 107.0543121   9.4857119  32.0357222 107.6115504
   8.7590283  31.9013187 107.0031996   9.0704406  32.3434050 108.4172222
   2.5322941  25.3594843 101.1364308   1.9521610  26.0179647 100.7542360
   2.2658874  24.5372188 100.7251725   0.9826508  24.7599901 103.3385628
   1.4826286  24.8716435 102.5299947   1.6262115  24.4560954 103.9786437
   1.3147819  27.5194934 100.1920656   0.4273674  27.8044584  99.9740851
   1.7301808  27.3588697  99.3447933   4.6662355  27.5441455 103.9074995
   5.4422745  28.0337907 104.1799612   3.9410489  27.9699509 104.3646865
   7.1034914  28.2569074 104.9648936   7.6979405  28.0164810 104.2542244
   7.1761498  27.5376204 105.5922472   1.2888843  33.0349470 100.4070946
   1.2324044  33.4918021  99.5678579   1.8417185  32.2740154 100.2293789
   5.0993649  28.8239201 101.2321066   4.8430583  28.4235837 102.0629274
   4.4746517  29.5382995 101.1071205   9.4105987  31.5635275 103.7392357
   8.8505545  31.6328464 104.5123919   8.8049490  31.3876259 103.0191853
   2.3677730  37.7222138  96.3367136   3.2023334  37.2903336  96.1544611
   2.2062073  37.5504151  97.2644031   2.0223622  34.2254251  97.7023476
   1.9672426  34.0598522  96.7611920   1.3969677  34.9330284  97.8585665
  10.9962005  48.2391789 106.4322313  11.6340415  48.1198536 105.7285653
  10.8782848  49.1872633 106.4910265   7.8051711  48.1919217 106.3683838
   7.4670223  48.0760281 105.4804373   8.6741480  47.7910382 106.3484844
   3.6638527  50.0454693 102.3580729   3.1003392  49.9544630 101.5897016
   3.5490922  49.2254598 102.8383221   8.2871494  49.3454068 112.3270043
   8.2760135  48.9506867 111.4550547   8.4492134  48.6120141 112.9203815
   1.2102959  51.5405885 105.1964949   2.0024251  51.1996709 104.7811248
   1.4499609  51.6500860 106.1167102   9.2438086  53.7125661  97.6695193
   8.5926066  54.2979741  97.2829207  10.0382449  54.2431856  97.7290231
   3.1693713  50.8014798  98.0682328   3.9424589  50.2543785  97.9295204
   3.5219112  51.6659047  98.2796789   5.0078756  52.1291180 111.2749227
   4.7168622  53.0336811 111.1595893   5.6435740  52.1707708 111.9893297
   5.9334962  49.5068029 107.8650587   6.5298535  49.2824051 107.1507550
   5.9909934  48.7652774 108.4676035   5.5059991  46.9607464  95.7000778
   5.7585511  46.4388985  94.9384241   4.5684550  46.7973610  95.8027461
  10.5503274  45.9643242 103.5075521  11.3366363  45.5462666 103.1565938
  10.8141978  46.8689335 103.6757169  10.7213351  51.4016093  98.2064178
  10.0859184  51.4750719  98.9185082  10.3910757  51.9909692  97.5283257
  15.9511701  45.9018476 104.4108500  16.6836873  45.3317692 104.6446329
  15.1951056  45.5140076 104.8515005   5.2256280  48.8635570  97.9025153
   5.1092538  48.1880473  98.5706237   5.3358539  48.3767944  97.0857306
   7.5687820  48.3245717 101.6071842   7.2046028  47.7976338 102.3184763
   8.4254936  47.9344186 101.4338327  13.4737121  39.6140050 108.8703108
  13.1420446  40.4835461 108.6464323  12.8782734  39.2976334 109.5497138
   7.2093307  43.3535617  96.6033190   7.3767710  44.2215853  96.9703662
   7.0190477  43.5162899  95.6794480   9.9668641  51.8152596 108.2699021
   9.6669364  52.7177635 108.1614828   9.6219700  51.5484779 109.1220174
   3.4181122  48.2666393 104.3035725   2.4931619  48.1342607 104.5113417
   3.6665535  49.0460612 104.8005668  13.3665784  44.3335136 105.9496458
  12.4582662  44.2650544 105.6555219  13.3153380  44.8107081 106.7778284
   7.1882528  45.8093274  97.5879857   7.0682154  46.2550325  98.4265338
   6.4935117  46.1578592  97.0293395   4.9489420  58.5796916 101.2369989
   4.8713450  59.5304741 101.3158469   4.3451064  58.2342789 101.8944915
   7.4406650  45.7524782 113.8931355   6.6639984  46.3118702 113.8834220
   8.0797213  46.2381565 114.4146226  15.2327431  42.5351574 107.7274332
  14.5901811  42.8284108 107.0814127  14.7282359  42.4204495 108.5327529
  12.8867594  46.2814748  98.4160191  13.7985451  46.5142134  98.2407889
  12.3777242  46.8651792  97.8535270   5.6953023  48.5610235 113.4549322
   6.4367707  49.0995279 113.1784146   4.9890008  49.1876524 113.6120874
  11.1708362  50.7039375 112.0521484  11.5791718  50.2621786 111.3076116
  10.4485624  50.1292003 112.3055677   7.5239432  45.6411982 109.4255041
   8.3700627  46.0651396 109.5689690   7.4638070  44.9845606 110.1193604
  11.4937177  51.2640566 105.8073773  10.8646039  51.4286280 105.1049841
  11.1062839  51.6782176 106.5784737  15.3726409  52.1995004 103.1618137
  14.6877447  52.5793905 102.6115170  15.4570258  52.8090330 103.8950084
  10.6738878  43.3016350 111.0836215  10.4299809  44.0558411 110.5470490
  10.9498808  43.6801698 111.9183462  12.6277340  49.8454963 109.7613480
  12.8394236  50.4886723 109.0847861  12.5807089  49.0117279 109.2935410
  10.2303569  42.4572784 106.6650052   9.3688048  42.7554037 106.9566790
  10.2566004  42.6743182 105.7331085   7.0465139  51.0014974 103.0723858
   7.5103484  51.2802677 102.2828480   6.7821937  50.0998419 102.8896949
   3.9389220  50.5486456 106.0103621   4.5090577  50.9773724 105.3721106
   4.5297332  50.2669040 106.7087807   5.9834025  47.1238126  99.8813423
   6.6858068  47.5759170 100.3487349   5.6514653  46.4821945 100.5093316
   4.4314386  45.7149883 114.2564632   3.8013047  46.3966164 114.4900029
   4.3250474  45.6032965 113.3117771  13.7423168  52.7226918 107.9335837
  14.5640612  52.3207106 107.6518519  13.7385571  52.6195152 108.8851953
   1.6774104  45.7466258 102.1414033   0.8805267  45.8584953 102.6597529
   1.4499696  46.0852911 101.2754924   7.5079772  52.2710962 110.0896548
   7.5724204  52.7331369 110.9254720   6.7990696  51.6408326 110.2178858
  21.8329161  49.0665667 104.2820809  21.0792870  48.4973065 104.1264813
  21.9676703  49.0328331 105.2291444   7.2227789  53.9379069  99.9575528
   7.0873464  54.7830605 100.3860376   7.7637602  54.1398347  99.1941462
   3.7095129  40.0170649 116.6189883   3.3162075  39.4636847 117.2937528
   4.5261269  40.3281227 117.0096401   0.6757187  51.4554507 100.5303453
   1.1881707  52.2497757 100.6809018   1.3279900  50.7580798 100.4637055
   2.4852071  54.5720263 102.6126207   2.6618700  55.4938228 102.4247190
   3.2808905  54.2578683 103.0420586   6.6263090  41.4328528 114.2110140
   7.3672803  42.0335681 114.1314603   6.8581013  40.6906166 113.6528183
   1.7704428  46.6184895 112.4888370   1.6557943  45.7170153 112.7895469
   0.9148946  46.8648592 112.1373186   8.8496266  54.5602636 114.0875870
   8.4060120  53.7739014 113.7696775   9.5113479  54.7481786 113.4219761
   3.6083387  56.0898437 108.6136549   4.1590812  55.9615501 107.8413543
   2.7694863  56.3893326 108.2631442  10.9477504  54.8405436 112.1157272
  10.9295979  55.6614317 111.6237541  11.8697424  54.7159511 112.3407413
   7.4050558  52.3549565 112.9580780   7.9378895  51.5937853 112.7280088
   6.8764639  52.0623217 113.7004934  10.5720253  37.4609631 108.4874422
  10.2284522  38.3511273 108.4113532  10.9399216  37.2711289 107.6244007
  10.5370536  47.4518242  96.9946857  10.0217159  48.2222847  97.2335244
  10.2647844  46.7783378  97.6179918   8.1217647  42.2967943 102.0532095
   7.2659243  41.9074793 101.8737734   8.5344598  42.3759904 101.1931881
   9.6516793  39.8314286 106.4523655   9.1481589  39.7944421 105.6391460
   9.9447400  40.7407029 106.5120312   5.8959679  39.9153016 105.4589837
   6.7612676  39.7195825 105.0995726   5.9637188  39.6863368 106.3859193
  15.5104810  50.2050597  98.9300030  14.7334253  49.8661756  98.4855192
  16.1896291  50.2103220  98.2554995  10.3256839  45.3245334  98.8206638
  10.0206974  45.6391483  99.6716781  11.2787281  45.4026754  98.8633971
   8.7703271  51.4835557 100.4699592   8.2424632  50.7488317 100.1572829
   8.2690773  52.2610234 100.2239560  13.7496117  49.6784578 105.5866638
  13.0919791  50.3683839 105.6746767  14.5536516  50.0681010 105.9300625
   3.5021998  42.1455224 102.8306204   4.0765750  41.9230405 102.0979396
   4.0892981  42.2143918 103.5834805  12.5601575  48.0328951 103.6370580
  13.0733457  48.6658942 104.1392290  13.2102799  47.4330146 103.2713940
   3.8291585  44.1759685  96.8502089   2.9928898  44.5134371  97.1711364
   3.6896355  44.0408665  95.9129226   5.8044666  39.0196473 101.5581273
   5.1509078  38.7045490 100.9337888   5.7625140  38.3972213 102.2841096
   6.9155871  49.3015768  93.4734565   6.0082933  49.0705021  93.6725714
   7.4126903  48.5053387  93.6608547   9.8223950  58.0113275  96.3931251
   9.1485648  58.3144972  97.0016209  10.2089772  58.8142355  96.0436708
   9.0382406  45.5078406 105.8828921   8.1204968  45.7293353 105.7250609
   9.4542550  45.5824717 105.0240628   9.8217454  46.9069822 101.0131601
  10.5689273  47.4191219 100.7038723  10.0909044  46.5853875 101.8735994
   8.0944104  49.4028363  97.9958555   7.1855324  49.1187395  98.0931025
   8.1239188  49.8227441  97.1361862  13.3263372  53.0134952 101.7649723
  12.8725699  52.1725862 101.8214913  12.6957338  53.6496350 102.1024503
  12.2696291  43.9426938 102.9950390  11.5319048  43.4304324 103.3260633
  12.5223065  43.5027320 102.1833667  11.7696311  54.8511449 102.6999541
  12.0619285  55.4116506 101.9811906  12.2794931  55.1440010 103.4552700
  12.3707919  36.7203190 103.5892159  12.6766795  35.8600554 103.3018074
  13.0960523  37.3120810 103.3891153   6.6428998  47.0156983 104.0968350
   6.6977608  46.0630820 104.0210827   5.8320200  47.1716422 104.5809649
   7.7920192  50.9437106  95.3346634   7.3539622  50.2272965  94.8752271
   8.5330633  51.1713221  94.7731725   4.5821358  45.6334043 101.8558729
   3.7689224  45.9328213 102.2623921   5.0780352  45.2389732 102.5733212
   6.7329936  55.6291800 103.7892994   6.6906115  55.8552646 102.8601526
   7.6492635  55.3955174 103.9378795  10.1795570  46.0975867 110.6873623
  10.5344958  46.3247341 111.5468089  10.8267701  46.4294244 110.0650879
  15.9093307  49.2194303 101.3922952  15.7711205  49.4095899 100.4644141
  15.5529526  49.9813686 101.8491003   4.0735433  43.2052398 107.4719964
   4.7134812  43.0641158 106.7742928   3.2412964  42.9186912 107.0958566
  15.9362686  51.2870830 106.4034224  16.3699193  51.1946119 107.2517278
  16.6494267  51.2628331 105.7654240   4.8495737  52.5054829 103.5854957
   5.6436335  52.0105149 103.3837532   4.1387429  51.9772692 103.2222662
   9.6690581  54.8872924 107.9367324   9.7227604  55.4563861 108.7045040
   8.8005363  55.0574809 107.5721361   1.0764049  43.1752723 102.2492951
   1.3370867  44.0898057 102.1402112   1.8981222  42.7077166 102.3989564
   2.5488975  44.5890481 109.4191776   3.2212028  44.3807843 108.7704425
   1.7218761  44.3912567 108.9797008  16.7978236  51.3294531 108.9367109
  16.9914126  52.2340341 109.1826384  16.6978854  50.8701950 109.7705694
   8.4514547  41.2152422 111.4357436   7.8042462  41.9142371 111.3421913
   9.2215562  41.6488565 111.8033685  11.8593345  51.4801274 114.5107990
  11.7078851  51.2511825 113.5938073  11.8498024  52.4371875 114.5239335
   8.6278681  49.0533186 109.4954256   9.5570741  49.2044346 109.3223224
   8.2069711  49.1417207 108.6402903   7.4267013  53.0783851 107.2652794
   7.2878099  52.7102635 108.1378732   6.6381609  53.5931490 107.0936752
   8.0215165  58.1792947  98.6078330   8.1966921  57.7080991  99.4223953
   7.3347953  58.8058714  98.8359591   8.9772228  52.4565454 104.6541632
   8.6422061  52.4166224 105.5499282   8.4776174  51.7910169 104.1812042
   2.9516472  47.8633084 110.1794213   2.8136270  47.1313322 110.7805752
   3.8621395  47.7741984 109.8978401  11.9131420  49.8021488  94.9278691
  11.2960590  49.0768316  94.8311744  11.4447908  50.5630848  94.5845766
   5.5798773  47.5753043 109.6677892   6.2898391  46.9346235 109.6264511
   5.5368081  47.8265938 110.5904073  13.5685551  54.5120396 112.5884472
  13.5098098  53.8279616 111.9215055  13.9705070  55.2539386 112.1365098
   4.2927707  44.5618261 111.4873532   3.7565064  44.1108999 112.1395128
   3.7044415  44.6964170 110.7443996   2.5876250  61.3282310 105.3818191
   2.8272848  61.9600834 106.0597209   1.7445447  60.9770350 105.6683550
   3.7029966  44.0206912  94.0499996   2.8259432  43.8995713  93.6862242
   4.1787719  43.2292991  93.7978884  13.5702959  52.4759980 110.8198451
  12.6829737  52.1385902 110.9424850  14.1401510  51.7443011 111.0567217
   7.1004112  57.1361433 107.7859695   7.0274283  57.9416404 108.2978999
   6.6581505  57.3353398 106.9607716   6.8893892  56.3733203 101.2962516
   6.1061414  56.9154883 101.3900741   7.5886637  56.8907182 101.6956757
  10.1990542  42.1827832 103.9396721  10.6959241  41.4297794 103.6197792
   9.4277523  42.2192149 103.3739931  18.0520299  47.8868198 105.5815013
  18.0410175  48.7692913 105.2108946  17.1837679  47.5339748 105.3869550
   9.5602796  57.0348267 109.9417853  10.2730768  57.6695731 109.8693755
   9.0692824  57.1312133 109.1257855  11.2820322  50.9399519 101.5135145
  10.3476601  51.0600982 101.3439849  11.4596991  50.0371986 101.2495155
   6.7825510  44.3245215 103.6668406   6.4123298  43.7716255 104.3549312
   7.2784603  43.7203349 103.1143406  14.6692874  46.7816839 102.0485179
  15.1353326  47.6144830 101.9745482  15.1200374  46.3161820 102.7530437
   4.6114709  54.7842710 110.7623424   5.3124169  55.4179193 110.9152818
   4.1409824  55.1257442 110.0019063  12.7369105  53.1260660  99.0471331
  13.0128949  53.0117254  99.9565205  11.8673604  52.7278145  99.0083504
  12.6409537  39.1497426 106.0876080  11.7272616  39.3801652 106.2558287
  13.0702638  39.2335870 106.9390113  12.4115995  47.3387317 108.5875974
  11.7587445  47.5863225 107.9328427  12.7896375  46.5251456 108.2538452
   9.3723169  57.3747011 102.6904145   9.5545563  56.5568667 103.1531897
  10.1956155  57.5914703 102.2529035   9.7065334  56.3015196  99.9519193
  10.2353101  55.7907650  99.3389355   9.9693554  55.9857726 100.8164726
   8.4603568  48.0807129 115.0742011   7.7844205  47.9801258 115.7444387
   9.2831202  47.9246342 115.5378009   3.0621082  57.3530312 102.7116969
   2.3931458  57.8376440 102.2281009   2.9233952  57.5999533 103.6260348
   7.2026351  59.3874056 109.3099627   7.7544659  59.5505678 110.0748713
   7.5432544  59.9778494 108.6379652   2.1790844  41.7349206 109.9121512
   2.2432171  42.5964037 109.4998910   2.1157964  41.1223207 109.1793871
   1.6543117  43.8072338 113.5594546   2.2815155  43.4249416 114.1732071
   0.7971036  43.5886540 113.9250239  12.0537225  54.2135314 115.1648282
  12.5977129  54.8265272 114.6703237  11.4724070  54.7714892 115.6815295
  10.3394738  57.3356032 106.2963310  10.2145878  56.5345771 105.7874255
  10.9973829  57.8302225 105.8077280   1.9602906  43.6904764 105.4740450
   1.2389492  44.3040732 105.3347923   2.7496162  44.2262529 105.3957096
  12.4029647  55.1365052 107.9242860  11.4559982  55.0170403 107.8521186
  12.7512420  54.2487550 108.0069121   4.7629220  41.0259191 111.7481102
   5.2863622  41.2721487 112.5107411   4.5441553  41.8579225 111.3284239
   9.4076080  54.9317768 104.1247212   9.2601042  54.0034475 104.3054782
  10.2329573  54.9537859 103.6404287   3.2738324  43.5835835  99.9827704
   3.6134397  44.1121756  99.2606312   3.7210445  43.9216241 100.7586271
  13.0110202  55.7546327 105.2112085  13.9356749  55.5489188 105.0736536
  12.8425505  55.5062728 106.1201426   5.9681765  41.9672886 109.4330772
   5.6278585  41.1680699 109.8351452   5.2620771  42.2674596 108.8607605
   6.6198237  39.0522198 107.8858095   7.4424306  38.5782676 107.7636985
   6.8636300  39.8312682 108.3856781   5.2606471  42.0810457  98.1820997
   5.9814834  42.4591709  97.6784714   4.6371775  42.7999333  98.2855975
   9.4037594  42.7855605  99.1179329   9.6201209  43.6680243  98.8168157
   8.9231661  42.3941819  98.3884971   4.1436816  45.7441319 105.6950074
   3.9981396  46.0581622 106.5874355   3.6662019  46.3626219 105.1420972
   6.0033198  42.7343867 105.7430963   5.9894767  41.8384960 105.4063261
   6.7205627  42.7414530 106.3769249   7.8559329  43.1681207 107.7884091
   7.5977107  44.0898278 107.7868421   7.3244370  42.7711641 108.4784555
  12.8005518  56.2731994 100.5674176  12.9742395  55.7078416  99.8148029
  13.2934409  57.0732889 100.3853666   5.4070094  41.6158247 101.0118533
   5.5286006  40.6874893 101.2109421   5.1172137  41.6296933 100.0996849
   8.2761285  39.3013157 104.1485253   8.2982982  39.3652490 103.1937233
   8.6929344  38.4617666 104.3425759  18.6544909  49.0368417 102.1864476
  19.0976055  48.2875742 101.7883599  17.7771419  49.0278553 101.8038208
  13.7880690  55.5898758  97.6671074  14.4831595  56.2105451  97.8858389
  14.1303841  54.7394110  97.9423452  15.6872114  53.0398464  99.1958405
  16.2123438  53.3785737  98.4707725  15.5994466  52.1045479  99.0121540
   7.3492162  56.9532538 111.3248282   7.6579289  56.7081684 112.1970981
   8.1467644  57.1579176 110.8367152   7.3712774  59.1070447 103.5553658
   6.9317765  58.6146826 104.2486515   8.1220891  58.5643415 103.3145734
   4.8186646  54.6508456 105.6275960   4.1966656  53.9879161 105.3278188
   5.4891513  54.6769588 104.9449608   4.8911174  43.1290244 115.2208466
   4.9399329  44.0052367 114.8386236   5.4333688  42.5867637 114.6480109
  15.3766020  53.6731368 114.5009603  14.5861563  53.6555506 113.9614103
  15.1399374  54.2119661 115.2558640  15.4963895  50.5223834 111.8142332
  15.5461900  50.3573841 112.7557854  15.3877818  49.6551093 111.4240212
   4.3800153  53.2012380  99.1034421   4.5288274  53.8847844  98.4501093
   5.1866597  53.1817470  99.6183876  12.7867657  46.5054762 113.1301638
  13.6877520  46.3661227 112.8385636  12.8615632  46.6709217 114.0699816
   7.1210462  43.8821617 111.9754825   6.2513772  44.1755183 111.7037413
   7.3569943  44.4662062 112.6962088  16.9982091  52.9420775 112.0584353
  16.7066900  53.3050756 112.8947814  16.3854223  52.2287784 111.8797685
  18.1977774  50.5073655 104.5786923  19.0324665  50.9463459 104.7424484
  18.3336903  50.0312308 103.7595169  15.2469280  48.0653390 110.5264411
  15.7223401  48.2581036 109.7183263  14.3234845  48.1212576 110.2807795
   2.1352786  49.2277557 100.1095489   1.8898828  48.3239887 100.3075700
   2.3048701  49.2294708  99.1674967   9.8249496  40.1001234 109.4920245
  10.3431440  40.8362261 109.1666734   9.4704629  40.4065227 110.3267004
   1.4048434  44.9605915  97.6081651   0.7117679  45.0350270  96.9521687
   1.1600186  44.1966259  98.1303168  10.0762090  36.5201516 105.0121142
  10.3563844  35.8524705 105.6381568  10.8612697  36.7130612 104.4995806
   7.8795559  55.6960510  96.5746168   7.3069526  56.3150697  96.1216640
   8.4528353  56.2459872  97.1086090  13.9470949  44.9419150 108.7592717
  14.8988372  45.0417248 108.7804941  13.7774399  44.1497419 109.2690801
  11.9685328  42.0274733 108.9452118  11.3735260  42.3079746 108.2498606
  11.6835025  42.5168634 109.7168859  11.0992819  55.9797660  97.7054750
  12.0323492  55.9143222  97.9087626  11.0116031  56.8153927  97.2469283
  13.7280835  55.2963531  94.6658698  13.6494467  54.9623394  95.5594456
  14.5490502  55.7885298  94.6650170  16.4259027  48.1625270 107.8735016
  16.3935347  47.2241271 108.0594700  17.0359650  48.2409307 107.1400841
   8.2642357  47.0321323  93.9162220   9.2101462  46.9027531  93.9850639
   7.8856602  46.2935985  94.3931649  16.5753515  44.9536313 107.9193300
  16.0592564  44.1694770 107.7323228  17.4593464  44.6255030 108.0839819
  14.2364242  38.6977329 103.8789112  14.0389063  38.3892417 104.7632444
  14.8463948  39.4238968 104.0087042  22.2435576  49.2241277 107.0141053
  22.9738965  48.9626565 107.5748757  21.6342522  48.4869999 107.0543121
  20.3250873  47.3649139 107.6115504  19.5984037  47.2305104 107.0031996
  19.9098160  47.6725968 108.4172222   8.1481050  51.0839069 115.3762877
   9.0684059  51.2617668 115.5702924   8.1130633  50.1395114 115.2242577
   6.4485275  44.9571299  93.8517106   5.5416730  44.6604412  93.9279819
   6.7261256  44.6601117  92.9851392   1.1443122  48.9940104 108.0185659
   1.3629132  49.9257211 108.0373692   1.5568896  48.6348078 108.8040462
   8.0647340  39.5008189 100.0061347   7.2548069  39.1555274 100.3816593
   8.7531757  39.1915733 100.5948959   9.9937889  38.5786236 101.6285644
  10.5468927  38.9981689 102.2875667  10.2307975  37.6521984 101.6708600
   6.0170988  44.5673309 117.4088408   5.9167715  45.5167666 117.3400499
   5.7992530  44.2391548 116.5364478   5.2184059  41.8158234  93.9929085
   6.0803223  42.1413133  94.2524902   5.4034403  41.0289730  93.4802151
  13.3716696  40.6886761 101.1364308  12.7915365  41.3471565 100.7542360
  13.1052628  39.8664106 100.7251725  11.8220262  40.0891819 103.3385628
  12.3220040  40.2008353 102.5299947  12.4655870  39.7852871 103.9786437
   5.8802258  47.9970448 116.2253469   5.3969340  48.7970808 116.4317358
   5.9663197  48.0078393 115.2720913   1.8075595  51.8874983 108.2621903
   2.7618849  51.8558925 108.1951835   1.6088119  51.4265607 109.0772129
   2.3974977  50.4576099 110.8292701   3.2167866  50.9520178 110.8527538
   2.6711785  49.5408067 110.8010268  12.1541574  42.8486851 100.1920656
  11.2667429  43.1336502  99.9740851  12.5695563  42.6880615  99.3447933
  15.5056110  42.8733372 103.9074995  16.2816500  43.3629825 104.1799612
  14.7804244  43.2991426 104.3646865  17.9428668  43.5860992 104.9648936
  18.5373159  43.3456727 104.2542244  18.0155252  42.8668122 105.5922472
  11.2984787  52.6131526  94.2868676  12.0020637  52.8181528  94.9026332
  10.5747436  53.1808288  94.5517760  12.1282597  48.3641387 100.4070946
  12.0717799  48.8209939  99.5678579  12.6810940  47.6032072 100.2293789
  15.9387403  44.1531119 101.2321066  15.6824338  43.7527755 102.0629274
  15.3140271  44.8674913 101.1071205  20.2499741  46.8927192 103.7392357
  19.6899299  46.9620382 104.5123919  19.6443245  46.7168177 103.0191853
   3.3194950  58.3263919 105.4910544   3.2027334  59.2709352 105.3889234
   2.4987396  58.0237481 105.8796343  13.2071485  53.0514055  96.3367136
  14.0417088  52.6195254  96.1544611  13.0455827  52.8796069  97.2644031
  12.8617377  49.5546168  97.7023476  12.8066181  49.3890440  96.7611920
  12.2363432  50.2622201  97.8585665  10.1763284  51.8595080 117.0277038
  11.0454444  52.0335733 116.6663673   9.6970035  52.6789497 116.9052768
   6.1713502  39.0554277  97.2808794   6.1592172  39.9996117  97.4377065
   7.0636924  38.8724423  96.9868255   4.3449464  58.9792181 108.7066472
   5.2476711  59.0115792 109.0232967   4.1186834  58.0492632 108.7212808
   6.1003066  57.7323168 105.3676551   5.1498697  57.7325030 105.2540923
   6.4035552  56.9855902 104.8512585   9.9865622  35.6497054 101.5354731
   9.2198017  35.0955541 101.6811413  10.3976327  35.7218923 102.3968882
   1.9907383  41.9381850 115.6259912   2.8538844  41.5818655 115.8363237
   1.4172793  41.5995745 116.3135316  21.8355760  63.5683706 106.4322313
  22.4734170  63.4490454 105.7285653  21.7176603  64.5164550 106.4910265
  18.6445466  63.5211134 106.3683838  18.3063977  63.4052199 105.4804373
  19.5135234  63.1202299 106.3484844  14.5032282  65.3746611 102.3580729
  13.9397147  65.2836548 101.5897016  14.3884677  64.5546515 102.8383221
  19.1265249  64.6745986 112.3270043  19.1153890  64.2798784 111.4550547
  19.2885888  63.9412059 112.9203815  12.0496714  66.8697802 105.1964949
  12.8418005  66.5288627 104.7811248  12.2893364  66.9792777 106.1167102
  20.0831840  69.0417579  97.6695193  19.4319820  69.6271659  97.2829207
  20.8776203  69.5723773  97.7290231  14.0087467  66.1306716  98.0682328
  14.7818343  65.5835703  97.9295204  14.3612866  66.9950965  98.2796789
  15.8472510  67.4583098 111.2749227  15.5562376  68.3628729 111.1595893
  16.4829494  67.4999626 111.9893297  16.7728717  64.8359946 107.8650587
  17.3692289  64.6115969 107.1507550  16.8303688  64.0944692 108.4676035
  16.3453745  62.2899382  95.7000778  16.5979266  61.7680903  94.9384241
  15.4078304  62.1265527  95.8027461  21.3897028  61.2935160 103.5075521
  22.1760117  60.8754583 103.1565938  21.6535732  62.1981252 103.6757169
  21.5607105  66.7308010  98.2064178  20.9252938  66.8042637  98.9185082
  21.2304512  67.3201609  97.5283257  26.7905455  61.2310393 104.4108500
  27.5230627  60.6609610 104.6446329  26.0344811  60.8431994 104.8515005
  16.0650034  64.1927488  97.9025153  15.9486292  63.5172391  98.5706237
  16.1752294  63.7059862  97.0857306  18.4081575  63.6537635 101.6071842
  18.0439782  63.1268256 102.3184763  19.2648691  63.2636104 101.4338327
  24.3130876  54.9431967 108.8703108  23.9814200  55.8127378 108.6464323
  23.7176489  54.6268251 109.5497138  18.0487062  58.6827535  96.6033190
  18.2161464  59.5507771  96.9703662  17.8584231  58.8454816  95.6794480
  20.8062395  67.1444513 108.2699021  20.5063118  68.0469552 108.1614828
  20.4613455  66.8776697 109.1220174  14.2574877  63.5958310 104.3035725
  13.3325373  63.4634524 104.5113417  14.5059290  64.3752530 104.8005668
  24.2059539  59.6627054 105.9496458  23.2976416  59.5942462 105.6555219
  24.1547135  60.1398999 106.7778284  18.0276283  61.1385192  97.5879857
  17.9075908  61.5842243  98.4265338  17.3328871  61.4870510  97.0293395
  11.6183688  63.2391584 105.1379514  11.7476069  63.4926063 106.0518926
  10.9381139  63.8319292 104.8184169  15.7883175  73.9088834 101.2369989
  15.7107205  74.8596659 101.3158469  15.1844819  73.5634706 101.8944915
  18.2800405  61.0816699 113.8931355  17.5033739  61.6410619 113.8834220
  18.9190968  61.5673482 114.4146226  26.0721185  57.8643492 107.7274332
  25.4295566  58.1576025 107.0814127  25.5676114  57.7496412 108.5327529
  23.7261349  61.6106665  98.4160191  24.6379205  61.8434052  98.2407889
  23.2170996  62.1943709  97.8535270  16.5346777  63.8902153 113.4549322
  17.2761461  64.4287197 113.1784146  15.8283762  64.5168441 113.6120874
  22.0102117  66.0331293 112.0521484  22.4185473  65.5913704 111.3076116
  21.2879378  65.4583921 112.3055677  18.3633187  60.9703900 109.4255041
  19.2094382  61.3943313 109.5689690  18.3031824  60.3137524 110.1193604
  22.3330931  66.5932484 105.8073773  21.7039794  66.7578198 105.1049841
  21.9456593  67.0074093 106.5784737  26.2120163  67.5286922 103.1618137
  25.5271201  67.9085823 102.6115170  26.2964012  68.1382248 103.8950084
  21.5132632  58.6308268 111.0836215  21.2693564  59.3850329 110.5470490
  21.7892563  59.0093616 111.9183462  23.4671095  65.1746881 109.7613480
  23.6787990  65.8178640 109.0847861  23.4200843  64.3409197 109.2935410
  21.0697324  57.7864701 106.6650052  20.2081803  58.0845955 106.9566790
  21.0959758  58.0035100 105.7331085  17.8858893  66.3306892 103.0723858
  18.3497239  66.6094595 102.2828480  17.6215691  65.4290336 102.8896949
  14.7782974  65.8778373 106.0103621  15.3484331  66.3065642 105.3721106
  15.3691086  65.5960958 106.7087807  16.8227779  62.4530044  99.8813423
  17.5251823  62.9051088 100.3487349  16.4908408  61.8113863 100.5093316
  15.2708141  61.0441801 114.2564632  14.6406801  61.7258082 114.4900029
  15.1644229  60.9324882 113.3117771  10.5653113  60.7113597 105.1830557
   9.7752167  60.9671125 104.7070667  11.0564361  61.5261935 105.2882597
  24.5816923  68.0518836 107.9335837  25.4034366  67.6499023 107.6518519
  24.5779326  67.9487070 108.8851953  12.5167859  61.0758176 102.1414033
  11.7199022  61.1876870 102.6597529  12.2893451  61.4144828 101.2754924
  18.3473526  67.6002879 110.0896548  18.4117959  68.0623286 110.9254720
  17.6384450  66.9700244 110.2178858   8.8490816  60.9644087 107.6145547
   9.0998855  61.8491097 107.8803123   9.3850365  60.7848689 106.8420639
  32.6722916  64.3957584 104.2820809  31.9186624  63.8264983 104.1264813
  32.8070457  64.3620249 105.2291444  18.0621544  69.2670987  99.9575528
  17.9267219  70.1122522 100.3860376  18.6031356  69.4690264  99.1941462
  14.5488883  55.3462567 116.6189883  14.1555829  54.7928765 117.2937528
  15.3655024  55.6573145 117.0096401  11.5150941  66.7846425 100.5303453
  12.0275462  67.5789675 100.6809018  12.1673654  66.0872715 100.4637055
  13.3245826  69.9012181 102.6126207  13.5012454  70.8230146 102.4247190
  14.1202659  69.5870600 103.0420586  17.4656844  56.7620446 114.2110140
  18.2066558  57.3627599 114.1314603  17.6974767  56.0198083 113.6528183
  12.6098182  61.9476813 112.4888370  12.4951698  61.0462070 112.7895469
  11.7542700  62.1940510 112.1373186  19.6890020  69.8894553 114.0875870
  19.2453874  69.1030932 113.7696775  20.3507234  70.0773704 113.4219761
  14.4477141  71.4190355 108.6136549  14.9984567  71.2907418 107.8413543
  13.6088617  71.7185244 108.2631442  21.7871258  70.1697353 112.1157272
  21.7689734  70.9906234 111.6237541  22.7091178  70.0451428 112.3407413
  18.2444312  67.6841483 112.9580780  18.7772649  66.9229771 112.7280088
  17.7158394  67.3915134 113.7004934  21.4114007  52.7901549 108.4874422
  21.0678277  53.6803190 108.4113532  21.7792970  52.6003206 107.6244007
   9.4799858  65.1135079 101.3063024  10.3175080  65.5232087 101.0896732
   9.6578126  64.1734521 101.2763218  21.3764290  62.7810160  96.9946857
  20.8610914  63.5514764  97.2335244  21.1041599  62.1075296  97.6179918
  18.9611401  57.6259861 102.0532095  18.1052997  57.2366711 101.8737734
  19.3738353  57.7051821 101.1931881  20.4910548  55.1606204 106.4523655
  19.9875343  55.1236339 105.6391460  20.7841155  56.0698946 106.5120312
  16.7353434  55.2444933 105.4589837  17.6006430  55.0487742 105.0995726
  16.8030943  55.0155285 106.3859193  26.3498564  65.5342514  98.9300030
  25.5728007  65.1953674  98.4855192  27.0290045  65.5395138  98.2554995
  21.1650593  60.6537252  98.8206638  20.8600729  60.9683401  99.6716781
  22.1181035  60.7318672  98.8633971  19.6097025  66.8127475 100.4699592
  19.0818387  66.0780235 100.1572829  19.1084528  67.5902151 100.2239560
  24.5889871  65.0076496 105.5866638  23.9313546  65.6975757 105.6746767
  25.3930270  65.3972928 105.9300625  14.3415753  57.4747141 102.8306204
  14.9159505  57.2522323 102.0979396  14.9286735  57.5435836 103.5834805
  23.3995330  63.3620868 103.6370580  23.9127212  63.9950860 104.1392290
  24.0496554  62.7622064 103.2713940  14.6685340  59.5051602  96.8502089
  13.8322652  59.8426289  97.1711364  14.5290110  59.3700582  95.9129226
  16.6438420  54.3488390 101.5581273  15.9902833  54.0337408 100.9337888
  16.6018895  53.7264131 102.2841096  17.7549625  64.6307685  93.4734565
  16.8476687  64.3996939  93.6725714  18.2520657  63.8345305  93.6608547
  20.6617704  73.3405193  96.3931251  19.9879403  73.6436889  97.0016209
  21.0483526  74.1434273  96.0436708  19.8776161  60.8370324 105.8828921
  18.9598722  61.0585271 105.7250609  20.2936304  60.9116634 105.0240628
  20.6611209  62.2361740 101.0131601  21.4083028  62.7483137 100.7038723
  20.9302798  61.9145792 101.8735994  18.9337859  64.7320280  97.9958555
  18.0249078  64.4479313  98.0931025  18.9632943  65.1519359  97.1361862
  24.1657126  68.3426870 101.7649723  23.7119453  67.5017780 101.8214913
  23.5351093  68.9788268 102.1024503  23.1090046  59.2718856 102.9950390
  22.3712803  58.7596242 103.3260633  23.3616819  58.8319237 102.1833667
  22.6090065  70.1803366 102.6999541  22.9013040  70.7408424 101.9811906
  23.1188686  70.4731927 103.4552700  23.2101673  52.0495108 103.5892159
  23.5160550  51.1892471 103.3018074  23.9354278  52.6412728 103.3891153
   9.5026029  62.4525794 101.9773757   9.3050429  61.8595155 101.2524824
   8.9472693  62.1478005 102.6949696  17.4822753  62.3448901 104.0968350
  17.5371363  61.3922737 104.0210827  16.6713955  62.5008340 104.5809649
  18.6313947  66.2729024  95.3346634  18.1933376  65.5564883  94.8752271
  19.3724387  66.5005139  94.7731725  15.4215113  60.9625961 101.8558729
  14.6082978  61.2620131 102.2623921  15.9174107  60.5681649 102.5733212
  17.5723691  70.9583718 103.7892994  17.5299869  71.1844564 102.8601526
  18.4886389  70.7247092 103.9378795  21.0189324  61.4267785 110.6873623
  21.3738712  61.6539258 111.5468089  21.6661456  61.7586162 110.0650879
  26.7487061  64.5486221 101.3922952  26.6104960  64.7387817 100.4644141
  26.3923280  65.3105604 101.8491003  14.9129187  58.5344316 107.4719964
  15.5528567  58.3933075 106.7742928  14.0806718  58.2478830 107.0958566
  26.7756441  66.6162748 106.4034224  27.2092948  66.5238037 107.2517278
  27.4888022  66.5920248 105.7654240  15.6889491  67.8346747 103.5854957
  16.4830090  67.3397067 103.3837532  14.9781184  67.3064610 103.2222662
  20.5084336  70.2164842 107.9367324  20.5621358  70.7855778 108.7045040
  19.6399117  70.3866727 107.5721361  11.9972255  61.9789828  99.6614709
  11.0669843  61.9174284  99.8784672  12.0929727  61.4565781  98.8651351
  11.9157804  58.5044641 102.2492951  12.1764621  59.4189974 102.1402112
  12.7374976  58.0369084 102.3989564  13.3882729  59.9182398 109.4191776
  14.0605783  59.7099760 108.7704425  12.5612516  59.7204484 108.9797008
  27.6371991  66.6586449 108.9367109  27.8307881  67.5632259 109.1826384
  27.5372609  66.1993868 109.7705694  19.2908301  56.5444339 111.4357436
  18.6436216  57.2434289 111.3421913  20.0609317  56.9780483 111.8033685
  22.6987099  66.8093191 114.5107990  22.5472606  66.5803743 113.5938073
  22.6891779  67.7663793 114.5239335  19.4672436  64.3825104 109.4954256
  20.3964496  64.5336264 109.3223224  19.0463466  64.4709125 108.6402903
  18.2660767  68.4075769 107.2652794  18.1271853  68.0394553 108.1378732
  17.4775364  68.9223408 107.0936752  18.8608919  73.5084865  98.6078330
  19.0360675  73.0372908  99.4223953  18.1741707  74.1350631  98.8359591
  19.8165983  67.7857371 104.6541632  19.4815815  67.7458141 105.5499282
  19.3169928  67.1202087 104.1812042  13.7910226  63.1925001 110.1794213
  13.6530024  62.4605240 110.7805752  14.7015150  63.1033901 109.8978401
  22.7525174  65.1313406  94.9278691  22.1354345  64.4060234  94.8311744
  22.2841663  65.8922766  94.5845766  16.4192527  62.9044961 109.6677892
  17.1292146  62.2638153 109.6264511  16.3761835  63.1557855 110.5904073
  24.4079306  69.8412314 112.5884472  24.3491852  69.1571534 111.9215055
  24.8098824  70.5831304 112.1365098  15.1321461  59.8910178 111.4873532
  14.5958818  59.4400917 112.1395128  14.5438170  60.0256087 110.7443996
  13.4270005  76.6574228 105.3818191  13.6666603  77.2892752 106.0597209
  12.5839201  76.3062268 105.6683550  14.5423720  59.3498830  94.0499996
  13.6653186  59.2287631  93.6862242  15.0181473  58.5584908  93.7978884
  24.4096713  67.8051898 110.8198451  23.5223492  67.4677820 110.9424850
  24.9795264  67.0734929 111.0567217   6.0625860  64.1375990 104.1441503
   6.7496900  63.8237720 103.5562518   5.9073989  65.0417354 103.8708754
  10.8660582  59.0266186 108.5726526  10.7818771  58.4191856 107.8376936
  10.0443289  59.5175204 108.5736023  17.9397867  72.4653350 107.7859695
  17.8668038  73.2708322 108.2978999  17.4975260  72.6645316 106.9607716
  17.7287646  71.7025120 101.2962516  16.9455168  72.2446800 101.3900741
  18.4280391  72.2199100 101.6956757  21.0384296  57.5119750 103.9396721
  21.5352996  56.7589712 103.6197792  20.2671278  57.5484066 103.3739931
  28.8914054  63.2160115 105.5815013  28.8803930  64.0984831 105.2108946
  28.0231433  62.8631666 105.3869550  20.3996550  72.3640184 109.9417853
  21.1124522  72.9987649 109.8693755  19.9086579  72.4604050 109.1257855
  22.1214077  66.2691437 101.5135145  21.1870356  66.3892899 101.3439849
  22.2990745  65.3663904 101.2495155  17.6219265  59.6537133 103.6668406
  17.2517053  59.1008173 104.3549312  18.1178357  59.0495266 103.1143406
  25.5086628  62.1108756 102.0485179  25.9747080  62.9436748 101.9745482
  25.9594129  61.6453738 102.7530437  15.4508464  70.1134628 110.7623424
  16.1517923  70.7471111 110.9152818  14.9803579  70.4549359 110.0019063
  23.5762859  68.4552578  99.0471331  23.8522703  68.3409172  99.9565205
  22.7067358  68.0570062  99.0083504  23.4803291  54.4789343 106.0876080
  22.5666371  54.7093570 106.2558287  23.9096392  54.5627787 106.9390113
  23.2509750  62.6679235 108.5875974  22.5981200  62.9155143 107.9328427
  23.6290129  61.8543373 108.2538452  20.2116923  72.7038928 102.6904145
  20.3939318  71.8860584 103.1531897  21.0349909  72.9206621 102.2529035
  20.5459089  71.6307113  99.9519193  21.0746855  71.1199568  99.3389355
  20.8087308  71.3149644 100.8164726  19.2997323  63.4099046 115.0742011
  18.6237960  63.3093176 115.7444387  20.1224956  63.2538260 115.5378009
  11.0476182  69.6470983 107.6954527  11.6329618  68.9014671 107.8282431
  10.8501020  69.9574939 108.5791191  13.9014837  72.6822230 102.7116969
  13.2325212  73.1668358 102.2281009  13.7627707  72.9291451 103.6260348
   5.6393836  62.2176583 106.4158970   5.6777936  61.6840174 107.2096088
   5.1334129  61.6911788 105.7969947  18.0420105  74.7165974 109.3099627
  18.5938413  74.8797595 110.0748713  18.3826299  75.3070412 108.6379652
  13.0184599  57.0641123 109.9121512  13.0825925  57.9255954 109.4998910
  12.9551719  56.4515125 109.1793871  12.4936871  59.1364256 113.5594546
  13.1208910  58.7541333 114.1732071  11.6364790  58.9178458 113.9250239
  22.8930980  69.5427231 115.1648282  23.4370884  70.1557189 114.6703237
  22.3117825  70.1006810 115.6815295   9.2702414  60.9440685  99.4912901
   9.5655855  60.0351364  99.4379955   8.3690450  60.9228425  99.1693904
  21.1788493  72.6647949 106.2963310  21.0539632  71.8637689 105.7874255
  21.8367584  73.1594143 105.8077280  12.7996661  59.0196682 105.4740450
  12.0783247  59.6332649 105.3347923  13.5889917  59.5554447 105.3957096
  23.2423401  70.4656969 107.9242860  22.2953737  70.3462320 107.8521186
  23.5906174  69.5779467 108.0069121  15.6022974  56.3551108 111.7481102
  16.1257376  56.6013405 112.5107411  15.3835308  57.1871143 111.3284239
  10.9990256  58.6254783  99.6152226  10.6702962  57.7452162  99.4327332
  11.3529626  58.5702451 100.5028616  20.2469834  70.2609686 104.1247212
  20.0994797  69.3326393 104.3054782  21.0723328  70.2829776 103.6404287
  14.1132079  58.9127753  99.9827704  14.4528151  59.4413674  99.2606312
  14.5604199  59.2508159 100.7586271  23.8503956  71.0838244 105.2112085
  24.7750504  70.8781106 105.0736536  23.6819260  70.8354645 106.1201426
  16.8075520  57.2964803 109.4330772  16.4672340  56.4972616 109.8351452
  16.1014526  57.5966514 108.8607605  17.4591991  54.3814116 107.8858095
  18.2818061  53.9074594 107.7636985  17.7030055  55.1604599 108.3856781
  16.1000226  57.4102374  98.1820997  16.8208588  57.7883627  97.6784714
  15.4765530  58.1291251  98.2855975  20.2431349  58.1147523  99.1179329
  20.4594963  58.9972161  98.8168157  19.7625416  57.7233737  98.3884971
  14.9830570  61.0733236 105.6950074  14.8375151  61.3873539 106.5874355
  14.5055774  61.6918137 105.1420972  16.8426953  58.0635784 105.7430963
  16.8288522  57.1676878 105.4063261  17.5599381  58.0706448 106.3769249
  18.6953084  58.4973125 107.7884091  18.4370862  59.4190195 107.7868421
  18.1638124  58.1003559 108.4784555  23.6399272  71.6023912 100.5674176
  23.8136150  71.0370334  99.8148029  24.1328164  72.4024807 100.3853666
   9.4576232  63.6138581 108.6337735   8.9129700  64.3898389 108.7658009
  10.3355582  63.9609385 108.4756856  16.2463849  56.9450165 101.0118533
  16.3679760  56.0166811 101.2109421  15.9565891  56.9588851 100.0996849
  19.1155039  54.6305075 104.1485253  19.1376736  54.6944408 103.1937233
  19.5323098  53.7909584 104.3425759  29.4938664  64.3660335 102.1864476
  29.9369810  63.6167660 101.7883599  28.6165174  64.3570471 101.8038208
  24.6274445  70.9190676  97.6671074  25.3225350  71.5397369  97.8858389
  24.9697595  70.0686027  97.9423452  10.2442254  62.7408477 111.5267892
   9.5023990  62.8891112 112.1132522   9.9234998  63.0016743 110.6634641
  26.5265868  68.3690382  99.1958405  27.0517192  68.7077654  98.4707725
  26.4388221  67.4337397  99.0121540  18.1885917  72.2824455 111.3248282
  18.4973043  72.0373602 112.1970981  18.9861399  72.4871094 110.8367152
  18.2106529  74.4362365 103.5553658  17.7711519  73.9438744 104.2486515
  18.9614646  73.8935333 103.3145734  10.6898868  70.6273906 103.5578286
  11.5156888  70.3277678 103.1776930  10.3392920  69.8581528 104.0068075
  15.6580401  69.9800374 105.6275960  15.0360410  69.3171079 105.3278188
  16.3285268  70.0061506 104.9449608   8.8907473  68.5460232 104.5167220
   8.0539381  68.1182407 104.3351221   8.8631118  68.7392676 105.4538011
  15.7304928  58.4582162 115.2208466  15.7793084  59.3344285 114.8386236
  16.2727443  57.9159555 114.6480109  26.2159774  69.0023285 114.5009603
  25.4255318  68.9847424 113.9614103  25.9793129  69.5411579 115.2558640
  26.3357649  65.8515752 111.8142332  26.3855654  65.6865759 112.7557854
  26.2271573  64.9843011 111.4240212  15.2193908  68.5304297  99.1034421
  15.3682028  69.2139762  98.4501093  16.0260351  68.5109387  99.6183876
  23.6261412  61.8346680 113.1301638  24.5271274  61.6953145 112.8385636
  23.7009386  62.0001135 114.0699816  17.9604217  59.2113534 111.9754825
  17.0907526  59.5047100 111.7037413  18.1963697  59.7953979 112.6962088
  27.8375846  68.2712693 112.0584353  27.5460654  68.6342674 112.8947814
  27.2247977  67.5579701 111.8797685  29.0371528  65.8365573 104.5786923
  29.8718420  66.2755377 104.7424484  29.1730657  65.3604226 103.7595169
  26.0863034  63.3945308 110.5264411  26.5617156  63.5872954 109.7183263
  25.1628600  63.4504494 110.2807795  12.9746541  64.5569475 100.1095489
  12.7292583  63.6531805 100.3075700  13.1442455  64.5586625  99.1674967
  20.6643251  55.4293151 109.4920245  21.1825195  56.1654178 109.1666734
  20.3098383  55.7357145 110.3267004  12.2442188  60.2897833  97.6081651
  11.5511433  60.3642188  96.9521687  11.9993940  59.5258176  98.1303168
  20.9155845  51.8493434 105.0121142  21.1957599  51.1816623 105.6381568
  21.7006452  52.0422529 104.4995806  18.7189313  71.0252428  96.5746168
  18.1463280  71.6442615  96.1216640  19.2922107  71.5751789  97.1086090
  24.7864703  60.2711068 108.7592717  25.7382126  60.3709166 108.7804941
  24.6168154  59.4789336 109.2690801  22.8079083  57.3566651 108.9452118
  22.2129015  57.6371664 108.2498606  22.5228779  57.8460552 109.7168859
  21.9386573  71.3089578  97.7054750  22.8717246  71.2435140  97.9087626
  21.8509786  72.1445845  97.2469283  24.5674590  70.6255448  94.6658698
  24.4888221  70.2915312  95.5594456  25.3884257  71.1177216  94.6650170
  27.2652781  63.4917188 107.8735016  27.2329101  62.5533188 108.0594700
  27.8753405  63.5701224 107.1400841  19.1036112  62.3613241  93.9162220
  20.0495217  62.2319449  93.9850639  18.7250357  61.6227902  94.3931649
  27.4147270  60.2828231 107.9193300  26.8986318  59.4986688 107.7323228
  28.2987218  59.9546948 108.0839819  25.0757996  54.0269247 103.8789112
  24.8782818  53.7184335 104.7632444  25.6857702  54.7530885 104.0087042
  33.0829331  64.5533194 107.0141053  33.8132719  64.2918483 107.5748757
  32.4736276  63.8161916 107.0543121  31.1644628  62.6941057 107.6115504
  30.4377792  62.5597022 107.0031996  30.7491915  63.0017886 108.4172222
  18.9874804  66.4130987 115.3762877  19.9077814  66.5909586 115.5702924
  18.9524387  65.4687032 115.2242577  17.2879029  60.2863217  93.8517106
  16.3810484  59.9896330  93.9279819  17.5655010  59.9893035  92.9851392
   8.2056969  61.6069580 104.3016152   7.8859754  60.7534889 104.0090526
   7.6590398  61.8218158 105.0574119  11.9836877  64.3232021 108.0185659
  12.2022887  65.2549129 108.0373692  12.3962651  63.9639996 108.8040462
  18.9041095  54.8300107 100.0061347  18.0941823  54.4847192 100.3816593
  19.5925512  54.5207650 100.5948959  20.8331643  53.9078153 101.6285644
  21.3862682  54.3273607 102.2875667  21.0701729  52.9813902 101.6708600
  16.8564742  59.8965227 117.4088408  16.7561469  60.8459584 117.3400499
  16.6386284  59.5683466 116.5364478  16.0577814  57.1450152  93.9929085
  16.9196978  57.4705050  94.2524902  16.2428158  56.3581648  93.4802151
   8.0745229  65.2272492 106.2709274   7.3808701  64.8126445 105.7579228
   8.8218220  65.2693028 105.6742693  24.2110450  56.0178679 101.1364308
  23.6309119  56.6763483 100.7542360  23.9446383  55.1956023 100.7251725
  22.6614016  55.4183736 103.3385628  23.1613795  55.5300271 102.5299947
  23.3049624  55.1144789 103.9786437  16.7196012  63.3262366 116.2253469
  16.2363094  64.1262726 116.4317358  16.8056951  63.3370311 115.2720913
   9.9881972  65.1590746 104.1475289   9.9652660  65.2578433 103.1957172
  10.2982608  66.0055896 104.4692455  12.6469350  67.2166901 108.2621903
  13.6012603  67.1850843 108.1951835  12.4481873  66.7557524 109.0772129
  13.2368732  65.7868017 110.8292701  14.0561621  66.2812095 110.8527538
  13.5105540  64.8699985 110.8010268  22.9935328  58.1778769 100.1920656
  22.1061183  58.4628420  99.9740851  23.4089317  58.0172532  99.3447933
  26.3449864  58.2025290 103.9074995  27.1210254  58.6921742 104.1799612
  25.6197998  58.6283344 104.3646865  28.7822423  58.9152909 104.9648936
  29.3766914  58.6748645 104.2542244  28.8549007  58.1960040 105.5922472
  11.0019579  72.7586520 105.2792101  10.8674047  71.9986921 104.7130099
  10.5851641  73.4827420 104.8120890  22.1378542  67.9423444  94.2868676
  22.8414392  68.1473446  94.9026332  21.4141190  68.5100206  94.5517760
  22.9676352  63.6933305 100.4070946  22.9111553  64.1501856  99.5678579
  23.5204694  62.9323990 100.2293789  26.7781158  59.4823037 101.2321066
  26.5218092  59.0819672 102.0629274  26.1534026  60.1966831 101.1071205
  31.0893496  62.2219110 103.7392357  30.5293054  62.2912299 104.5123919
  30.4836999  62.0460095 103.0191853  14.1588704  73.6555837 105.4910544
  14.0421089  74.6001270 105.3889234  13.3381151  73.3529399 105.8796343
  24.0465239  68.3805973  96.3367136  24.8810843  67.9487171  96.1544611
  23.8849582  68.2087987  97.2644031  23.7011131  64.8838086  97.7023476
  23.6459935  64.7182358  96.7611920  23.0757186  65.5914119  97.8585665
   8.4903646  60.1206151 111.5284898   9.1362510  59.6105105 112.0172123
   8.2820797  60.8574832 112.1028323  21.0157038  67.1886998 117.0277038
  21.8848198  67.3627650 116.6663673  20.5363790  68.0081415 116.9052768
  17.0107257  54.3846195  97.2808794  16.9985926  55.3288035  97.4377065
  17.9030679  54.2016341  96.9868255  15.1843219  74.3084099 108.7066472
  16.0870465  74.3407709 109.0232967  14.9580589  73.3784550 108.7212808
  16.9396821  73.0615086 105.3676551  15.9892452  73.0616947 105.2540923
  17.2429307  72.3147820 104.8512585  20.8259376  50.9788972 101.5354731
  20.0591772  50.4247459 101.6811413  21.2370081  51.0510841 102.3968882
  12.8301137  57.2673768 115.6259912  13.6932599  56.9110572 115.8363237
  12.2566548  56.9287662 116.3135316  32.6749514  78.8975624 106.4322313
  33.3127924  78.7782371 105.7285653  32.5570357  79.8456468 106.4910265
  29.4839220  78.8503052 106.3683838  29.1457732  78.7344117 105.4804373
  30.3528989  78.4494217 106.3484844  25.3426036  80.7038528 102.3580729
  24.7790901  80.6128465 101.5897016  25.2278431  79.8838433 102.8383221
  29.9659003  80.0037904 112.3270043  29.9547644  79.6090702 111.4550547
  30.1279643  79.2703976 112.9203815  22.8890468  82.1989720 105.1964949
  23.6811760  81.8580545 104.7811248  23.1287118  82.3084695 106.1167102
  30.9225595  84.3709496  97.6695193  30.2713575  84.9563577  97.2829207
  31.7169958  84.9015691  97.7290231  24.8481222  81.4598633  98.0682328
  25.6212098  80.9127620  97.9295204  25.2006621  82.3242883  98.2796789
  26.6866265  82.7875016 111.2749227  26.3956131  83.6920646 111.1595893
  27.3223249  82.8291543 111.9893297  27.6122471  80.1651864 107.8650587
  28.2086044  79.9407887 107.1507550  27.6697443  79.4236610 108.4676035
  27.1847500  77.6191299  95.7000778  27.4373020  77.0972821  94.9384241
  26.2472059  77.4557445  95.8027461  32.2290783  76.6227078 103.5075521
  33.0153872  76.2046501 103.1565938  32.4929487  77.5273170 103.6757169
  32.4000860  82.0599928  98.2064178  31.7646693  82.1334555  98.9185082
  32.0698266  82.6493527  97.5283257  37.6299210  76.5602311 104.4108500
  38.3624382  75.9901528 104.6446329  36.8738565  76.1723911 104.8515005
  26.9043789  79.5219405  97.9025153  26.7880047  78.8464309  98.5706237
  27.0146048  79.0351779  97.0857306  29.2475329  78.9829553 101.6071842
  28.8833537  78.4560173 102.3184763  30.1042445  78.5928022 101.4338327
  35.1524630  70.2723885 108.8703108  34.8207955  71.1419296 108.6464323
  34.5570243  69.9560169 109.5497138  28.8880816  74.0119452  96.6033190
  29.0555219  74.8799689  96.9703662  28.6977986  74.1746734  95.6794480
  31.6456150  82.4736431 108.2699021  31.3456873  83.3761470 108.1614828
  31.3007209  82.2068614 109.1220174  25.0968631  78.9250228 104.3035725
  24.1719128  78.7926442 104.5113417  25.3453044  79.7044447 104.8005668
  35.0453293  74.9918971 105.9496458  34.1370171  74.9234380 105.6555219
  34.9940889  75.4690916 106.7778284  28.8670037  76.4677110  97.5879857
  28.7469663  76.9134160  98.4265338  28.1722626  76.8162427  97.0293395
  22.4577442  78.5683502 105.1379514  22.5869823  78.8217980 106.0518926
  21.7774893  79.1611210 104.8184169  26.6276929  89.2380751 101.2369989
  26.5500959  90.1888577 101.3158469  26.0238573  88.8926624 101.8944915
  29.1194159  76.4108617 113.8931355  28.3427493  76.9702537 113.8834220
  29.7584722  76.8965400 114.4146226  36.9114940  73.1935410 107.7274332
  36.2689320  73.4867943 107.0814127  36.4069868  73.0788330 108.5327529
  34.5655103  76.9398583  98.4160191  35.4772960  77.1725970  98.2407889
  34.0564751  77.5235627  97.8535270  27.3740531  79.2194070 113.4549322
  28.1155216  79.7579114 113.1784146  26.6677517  79.8460359 113.6120874
  32.8495871  81.3623211 112.0521484  33.2579227  80.9205621 111.3076116
  32.1273133  80.7875838 112.3055677  29.2026941  76.2995817 109.4255041
  30.0488136  76.7235231 109.5689690  29.1425579  75.6429442 110.1193604
  33.1724686  81.9224401 105.8073773  32.5433548  82.0870115 105.1049841
  32.7850348  82.3366011 106.5784737  37.0513918  82.8578839 103.1618137
  36.3664956  83.2377741 102.6115170  37.1357767  83.4674166 103.8950084
  32.3526387  73.9600186 111.0836215  32.1087318  74.7142246 110.5470490
  32.6286317  74.3385533 111.9183462  34.3064849  80.5038798 109.7613480
  34.5181745  81.1470558 109.0847861  34.2594598  79.6701115 109.2935410
  31.9091078  73.1156619 106.6650052  31.0475557  73.4137872 106.9566790
  31.9353513  73.3327018 105.7331085  28.7252648  81.6598809 103.0723858
  29.1890993  81.9386512 102.2828480  28.4609446  80.7582254 102.8896949
  25.6176729  81.2070291 106.0103621  26.1878086  81.6357559 105.3721106
  26.2084841  80.9252876 106.7087807  27.6621534  77.7821962  99.8813423
  28.3645577  78.2343005 100.3487349  27.3302162  77.1405781 100.5093316
  26.1101895  76.3733718 114.2564632  25.4800556  77.0549999 114.4900029
  26.0037983  76.2616800 113.3117771  21.4046868  76.0405514 105.1830557
  20.6145922  76.2963043 104.7070667  21.8958115  76.8553852 105.2882597
  35.4210677  83.3810754 107.9335837  36.2428121  82.9790941 107.6518519
  35.4173080  83.2778988 108.8851953  23.3561613  76.4050094 102.1414033
  22.5592776  76.5168788 102.6597529  23.1287205  76.7436746 101.2754924
  29.1867281  82.9294797 110.0896548  29.2511713  83.3915204 110.9254720
  28.4778205  82.2992162 110.2178858  19.6884571  76.2936005 107.6145547
  19.9392609  77.1783015 107.8803123  20.2244119  76.1140606 106.8420639
  43.5116670  79.7249502 104.2820809  42.7580379  79.1556900 104.1264813
  43.6464211  79.6912167 105.2291444  28.9015298  84.5962904  99.9575528
  28.7660973  85.4414440 100.3860376  29.4425111  84.7982182  99.1941462
  25.3882638  70.6754484 116.6189883  24.9949584  70.1220683 117.2937528
  26.2048778  70.9865063 117.0096401  22.3544696  82.1138342 100.5303453
  22.8669216  82.9081593 100.6809018  23.0067409  81.4164633 100.4637055
  24.1639580  85.2304099 102.6126207  24.3406209  86.1522063 102.4247190
  24.9596414  84.9162518 103.0420586  28.3050599  72.0912363 114.2110140
  29.0460312  72.6919516 114.1314603  28.5368522  71.3490001 113.6528183
  23.4491937  77.2768731 112.4888370  23.3345452  76.3753988 112.7895469
  22.5936455  77.5232427 112.1373186  30.5283775  85.2186471 114.0875870
  30.0847629  84.4322849 113.7696775  31.1900988  85.4065621 113.4219761
  25.2870896  86.7482273 108.6136549  25.8378321  86.6199336 107.8413543
  24.4482372  87.0477162 108.2631442  32.6265013  85.4989271 112.1157272
  32.6083488  86.3198152 111.6237541  33.5484933  85.3743346 112.3407413
  29.0838067  83.0133400 112.9580780  29.6166404  82.2521689 112.7280088
  28.5552148  82.7207052 113.7004934  32.2507762  68.1193466 108.4874422
  31.9072031  69.0095108 108.4113532  32.6186724  67.9295124 107.6244007
  20.3193612  80.4426997 101.3063024  21.1568835  80.8524005 101.0896732
  20.4971880  79.5026439 101.2763218  32.2158045  78.1102077  96.9946857
  31.7004668  78.8806682  97.2335244  31.9435353  77.4367214  97.6179918
  29.8005156  72.9551778 102.0532095  28.9446752  72.5658629 101.8737734
  30.2132107  73.0343739 101.1931881  31.3304302  70.4898121 106.4523655
  30.8269098  70.4528257 105.6391460  31.6234909  71.3990864 106.5120312
  27.5747188  70.5736851 105.4589837  28.4400185  70.3779660 105.0995726
  27.6424697  70.3447203 106.3859193  37.1892319  80.8634432  98.9300030
  36.4121762  80.5245592  98.4855192  37.8683800  80.8687055  98.2554995
  32.0044348  75.9829170  98.8206638  31.6994483  76.2975319  99.6716781
  32.9574790  76.0610589  98.8633971  30.4490780  82.1419393 100.4699592
  29.9212141  81.4072152 100.1572829  29.9478282  82.9194069 100.2239560
  35.4283626  80.3368413 105.5866638  34.7707300  81.0267675 105.6746767
  36.2324025  80.7264845 105.9300625  25.1809507  72.8039059 102.8306204
  25.7553259  72.5814241 102.0979396  25.7680490  72.8727754 103.5834805
  34.2389084  78.6912786 103.6370580  34.7520966  79.3242778 104.1392290
  34.8890308  78.0913982 103.2713940  25.5079094  74.8343520  96.8502089
  24.6716407  75.1718207  97.1711364  25.3683864  74.6992500  95.9129226
  27.4832175  69.6780308 101.5581273  26.8296587  69.3629325 100.9337888
  27.4412649  69.0556048 102.2841096  28.5943380  79.9599603  93.4734565
  27.6870442  79.7288857  93.6725714  29.0914412  79.1637222  93.6608547
  31.5011459  88.6697110  96.3931251  30.8273157  88.9728807  97.0016209
  31.8877281  89.4726191  96.0436708  30.7169915  76.1662242 105.8828921
  29.7992477  76.3877189 105.7250609  31.1330059  76.2408552 105.0240628
  31.5004963  77.5653657 101.0131601  32.2476782  78.0775054 100.7038723
  31.7696553  77.2437710 101.8735994  29.7731613  80.0612198  97.9958555
  28.8642833  79.7771231  98.0931025  29.8026697  80.4811277  97.1361862
  35.0050881  83.6718787 101.7649723  34.5513208  82.8309697 101.8214913
  34.3744847  84.3080186 102.1024503  33.9483800  74.6010773 102.9950390
  33.2106557  74.0888160 103.3260633  34.2010574  74.1611155 102.1833667
  33.4483820  85.5095284 102.6999541  33.7406794  86.0700341 101.9811906
  33.9582440  85.8023845 103.4552700  34.0495428  67.3787025 103.5892159
  34.3554304  66.5184389 103.3018074  34.7748032  67.9704646 103.3891153
  20.3419784  77.7817712 101.9773757  20.1444183  77.1887073 101.2524824
  19.7866448  77.4769922 102.6949696  28.3216507  77.6740819 104.0968350
  28.3765117  76.7214655 104.0210827  27.5107709  77.8300258 104.5809649
  29.4707701  81.6020942  95.3346634  29.0327131  80.8856801  94.8752271
  30.2118142  81.8297056  94.7731725  26.2608867  76.2917878 101.8558729
  25.4476733  76.5912049 102.2623921  26.7567861  75.8973567 102.5733212
  28.4117445  86.2875635 103.7892994  28.3693624  86.5136482 102.8601526
  29.3280144  86.0539010 103.9378795  31.8583079  76.7559703 110.6873623
  32.2132467  76.9831176 111.5468089  32.5055210  77.0878080 110.0650879
  37.5880816  79.8778139 101.3922952  37.4498714  80.0679735 100.4644141
  37.2317035  80.6397521 101.8491003  25.7522942  73.8636234 107.4719964
  26.3922321  73.7224993 106.7742928  24.9200473  73.5770747 107.0958566
  37.6150195  81.9454666 106.4034224  38.0486702  81.8529955 107.2517278
  38.3281776  81.9212166 105.7654240  26.5283246  83.1638664 103.5854957
  27.3223844  82.6688984 103.3837532  25.8174938  82.6356527 103.2222662
  31.3478090  85.5456760 107.9367324  31.4015113  86.1147696 108.7045040
  30.4792872  85.7158645 107.5721361  22.8366009  77.3081746  99.6614709
  21.9063597  77.2466201  99.8784672  22.9323481  76.7857699  98.8651351
  22.7551558  73.8336559 102.2492951  23.0158376  74.7481892 102.1402112
  23.5768731  73.3661001 102.3989564  24.2276484  75.2474316 109.4191776
  24.8999537  75.0391678 108.7704425  23.4006270  75.0496402 108.9797008
  38.4765745  81.9878366 108.9367109  38.6701635  82.8924177 109.1826384
  38.3766363  81.5285785 109.7705694  30.1302056  71.8736257 111.4357436
  29.4829971  72.5726207 111.3421913  30.9003071  72.3072401 111.8033685
  33.5380854  82.1385109 114.5107990  33.3866360  81.9095661 113.5938073
  33.5285533  83.0955710 114.5239335  30.3066190  79.7117022 109.4954256
  31.2358250  79.8628181 109.3223224  29.8857220  79.8001043 108.6402903
  29.1054522  83.7367686 107.2652794  28.9665608  83.3686471 108.1378732
  28.3169118  84.2515326 107.0936752  29.7002674  88.8376783  98.6078330
  29.8754430  88.3664826  99.4223953  29.0135462  89.4642549  98.8359591
  30.6559737  83.1149289 104.6541632  30.3209570  83.0750059 105.5499282
  30.1563683  82.4494005 104.1812042  24.6303981  78.5216919 110.1794213
  24.4923779  77.7897158 110.7805752  25.5408904  78.4325819 109.8978401
  33.5918929  80.4605323  94.9278691  32.9748099  79.7352151  94.8311744
  33.1235417  81.2214684  94.5845766  27.2586282  78.2336878 109.6677892
  27.9685900  77.5930070 109.6264511  27.2155590  78.4849773 110.5904073
  35.2473060  85.1704232 112.5884472  35.1885606  84.4863452 111.9215055
  35.6492579  85.9123222 112.1365098  25.9715216  75.2202096 111.4873532
  25.4352573  74.7692835 112.1395128  25.3831924  75.3548005 110.7443996
  24.2663759  91.9866145 105.3818191  24.5060357  92.6184670 106.0597209
  23.4232956  91.6354185 105.6683550  25.3817475  74.6790748  94.0499996
  24.5046941  74.5579548  93.6862242  25.8575228  73.8876826  93.7978884
  35.2490468  83.1343816 110.8198451  34.3617246  82.7969737 110.9424850
  35.8189019  82.4026847 111.0567217  16.9019615  79.4667907 104.1441503
  17.5890655  79.1529637 103.5562518  16.7467743  80.3709272 103.8708754
  21.7054337  74.3558104 108.5726526  21.6212526  73.7483773 107.8376936
  20.8837043  74.8467122 108.5736023  28.7791621  87.7945268 107.7859695
  28.7061792  88.6000239 108.2978999  28.3369014  87.9937234 106.9607716
  28.5681401  87.0317038 101.2962516  27.7848923  87.5738718 101.3900741
  29.2674146  87.5491018 101.6956757  31.8778051  72.8411667 103.9396721
  32.3746750  72.0881630 103.6197792  31.1065032  72.8775984 103.3739931
  39.7307808  78.5452033 105.5815013  39.7197684  79.4276748 105.2108946
  38.8625188  78.1923584 105.3869550  31.2390305  87.6932102 109.9417853
  31.9518277  88.3279567 109.8693755  30.7480333  87.7895968 109.1257855
  32.9607831  81.5983355 101.5135145  32.0264110  81.7184817 101.3439849
  33.1384500  80.6955821 101.2495155  28.4613019  74.9829050 103.6668406
  28.0910807  74.4300091 104.3549312  28.9572112  74.3787184 103.1143406
  36.3480383  77.4400674 102.0485179  36.8140835  78.2728665 101.9745482
  36.7987883  76.9745655 102.7530437  26.2902218  85.4426545 110.7623424
  26.9911678  86.0763028 110.9152818  25.8197333  85.7841277 110.0019063
  34.4156614  83.7844495  99.0471331  34.6916458  83.6701090  99.9565205
  33.5461113  83.3861980  99.0083504  34.3197046  69.8081261 106.0876080
  33.4060125  70.0385488 106.2558287  34.7490147  69.8919705 106.9390113
  34.0903504  77.9971153 108.5875974  33.4374954  78.2447060 107.9328427
  34.4683884  77.1835291 108.2538452  31.0510678  88.0330846 102.6904145
  31.2333072  87.2152502 103.1531897  31.8743664  88.2498538 102.2529035
  31.3852843  86.9599031  99.9519193  31.9140610  86.4491486  99.3389355
  31.6481063  86.6441561 100.8164726  30.1391077  78.7390964 115.0742011
  29.4631714  78.6385093 115.7444387  30.9618711  78.5830178 115.5378009
  21.8869936  84.9762900 107.6954527  22.4723373  84.2306588 107.8282431
  21.6894775  85.2866857 108.5791191  24.7408591  88.0114148 102.7116969
  24.0718967  88.4960275 102.2281009  24.6021461  88.2583368 103.6260348
  16.4787591  77.5468501 106.4158970  16.5171690  77.0132091 107.2096088
  15.9727884  77.0203706 105.7969947  28.8813860  90.0457891 109.3099627
  29.4332168  90.2089513 110.0748713  29.2220053  90.6362329 108.6379652
  23.8578353  72.3933041 109.9121512  23.9219680  73.2547872 109.4998910
  23.7945473  71.7807043 109.1793871  23.3330626  74.4656174 113.5594546
  23.9602664  74.0833251 114.1732071  22.4758545  74.2470376 113.9250239
  33.7324734  84.8719149 115.1648282  34.2764638  85.4849107 114.6703237
  33.1511579  85.4298727 115.6815295  20.1096168  76.2732603  99.4912901
  20.4049610  75.3643281  99.4379955  19.2084204  76.2520342  99.1693904
  32.0182247  87.9939867 106.2963310  31.8933387  87.1929607 105.7874255
  32.6761338  88.4886060 105.8077280  23.6390415  74.3488599 105.4740450
  22.9177001  74.9624567 105.3347923  24.4283671  74.8846364 105.3957096
  34.0817156  85.7948887 107.9242860  33.1347491  85.6754238 107.8521186
  34.4299929  84.9071385 108.0069121  26.4416729  71.6843026 111.7481102
  26.9651131  71.9305322 112.5107411  26.2229062  72.5163061 111.3284239
  21.8384010  73.9546700  99.6152226  21.5096716  73.0744079  99.4327332
  22.1923381  73.8994369 100.5028616  31.0863589  85.5901603 104.1247212
  30.9388551  84.6618311 104.3054782  31.9117082  85.6121694 103.6404287
  24.9525833  74.2419670  99.9827704  25.2921906  74.7705592  99.2606312
  25.3997954  74.5800076 100.7586271  34.6897711  86.4130162 105.2112085
  35.6144258  86.2073023 105.0736536  34.5213014  86.1646563 106.1201426
  27.6469274  72.6256721 109.4330772  27.3066094  71.8264534 109.8351452
  26.9408280  72.9258432 108.8607605  28.2985746  69.7106033 107.8858095
  29.1211815  69.2366512 107.7636985  28.5423809  70.4896517 108.3856781
  26.9393980  72.7394292  98.1820997  27.6602343  73.1175545  97.6784714
  26.3159284  73.4583169  98.2855975  31.0825103  73.4439441  99.1179329
  31.2988718  74.3264079  98.8168157  30.6019170  73.0525654  98.3884971
  25.8224325  76.4025154 105.6950074  25.6768905  76.7165457 106.5874355
  25.3449528  77.0210054 105.1420972  27.6820707  73.3927702 105.7430963
  27.6682276  72.4968795 105.4063261  28.3993136  73.3998366 106.3769249
  29.5346838  73.8265042 107.7884091  29.2764616  74.7482113 107.7868421
  29.0031879  73.4295477 108.4784555  34.4793027  86.9315829 100.5674176
  34.6529904  86.3662252  99.8148029  34.9721918  87.7316724 100.3853666
  20.2969987  78.9430498 108.6337735  19.7523455  79.7190306 108.7658009
  21.1749337  79.2901303 108.4756856  27.0857603  72.2742082 101.0118533
  27.2073515  71.3458729 101.2109421  26.7959646  72.2880768 100.0996849
  29.9548794  69.9596993 104.1485253  29.9770491  70.0236326 103.1937233
  30.3716853  69.1201501 104.3425759  40.3332418  79.6952252 102.1864476
  40.7763564  78.9459578 101.7883599  39.4558928  79.6862389 101.8038208
  35.4668199  86.2482594  97.6671074  36.1619104  86.8689286  97.8858389
  35.8091350  85.3977945  97.9423452  21.0836009  78.0700395 111.5267892
  20.3417745  78.2183030 112.1132522  20.7628753  78.3308660 110.6634641
  37.3659623  83.6982299  99.1958405  37.8910947  84.0369572  98.4707725
  37.2781975  82.7629315  99.0121540  29.0279671  87.6116373 111.3248282
  29.3366798  87.3665520 112.1970981  29.8255153  87.8163011 110.8367152
  29.0500283  89.7654283 103.5553658  28.6105274  89.2730661 104.2486515
  29.8008400  89.2227250 103.3145734  21.5292622  85.9565823 103.5578286
  22.3550642  85.6569595 103.1776930  21.1786674  85.1873446 104.0068075
  26.4974155  85.3092292 105.6275960  25.8754165  84.6462997 105.3278188
  27.1679022  85.3353424 104.9449608  19.7301227  83.8752150 104.5167220
  18.8933136  83.4474324 104.3351221  19.7024873  84.0684593 105.4538011
  26.5698683  73.7874080 115.2208466  26.6186838  74.6636202 114.8386236
  27.1121197  73.2451473 114.6480109  37.0553529  84.3315203 114.5009603
  36.2649072  84.3139342 113.9614103  36.8186883  84.8703497 115.2558640
  37.1751404  81.1807669 111.8142332  37.2249409  81.0157677 112.7557854
  37.0665327  80.3134928 111.4240212  26.0587662  83.8596215  99.1034421
  26.2075783  84.5431679  98.4501093  26.8654106  83.8401305  99.6183876
  34.4655166  77.1638597 113.1301638  35.3665029  77.0245062 112.8385636
  34.5403141  77.3293052 114.0699816  28.7997971  74.5405452 111.9754825
  27.9301281  74.8339018 111.7037413  29.0357452  75.1245897 112.6962088
  38.6769600  83.6004611 112.0584353  38.3854409  83.9634591 112.8947814
  38.0641732  82.8871619 111.8797685  39.8765283  81.1657491 104.5786923
  40.7112174  81.6047295 104.7424484  40.0124412  80.6896144 103.7595169
  36.9256789  78.7237225 110.5264411  37.4010910  78.9164872 109.7183263
  36.0022354  78.7796411 110.2807795  23.8140295  79.8861393 100.1095489
  23.5686337  78.9823723 100.3075700  23.9836210  79.8878543  99.1674967
  31.5037005  70.7585069 109.4920245  32.0218949  71.4946096 109.1666734
  31.1492138  71.0649062 110.3267004  23.0835943  75.6189750  97.6081651
  22.3905188  75.6934105  96.9521687  22.8387695  74.8550094  98.1303168
  31.7549599  67.1785352 105.0121142  32.0351353  66.5108541 105.6381568
  32.5400206  67.3714447 104.4995806  29.5583068  86.3544345  96.5746168
  28.9857035  86.9734533  96.1216640  30.1315862  86.9043707  97.1086090
  35.6258458  75.6002986 108.7592717  36.5775881  75.7001083 108.7804941
  35.4561908  74.8081254 109.2690801  33.6472837  72.6858569 108.9452118
  33.0522769  72.9663581 108.2498606  33.3622534  73.1752470 109.7168859
  32.7780328  86.6381496  97.7054750  33.7111001  86.5727057  97.9087626
  32.6903540  87.4737762  97.2469283  35.4068344  85.9547366  94.6658698
  35.3281976  85.6207230  95.5594456  36.2278011  86.4469134  94.6650170
  38.1046536  78.8209105 107.8735016  38.0722856  77.8825106 108.0594700
  38.7147159  78.8993142 107.1400841  29.9429866  77.6905158  93.9162220
  30.8888971  77.5611366  93.9850639  29.5644111  76.9519820  94.3931649
  38.2541024  75.6120149 107.9193300  37.7380073  74.8278605 107.7323228
  39.1380973  75.2838865 108.0839819  35.9151751  69.3561164 103.8789112
  35.7176572  69.0476252 104.7632444  36.5251456  70.0822803 104.0087042
  43.9223085  79.8825112 107.0141053  44.6526474  79.6210400 107.5748757
  43.3130031  79.1453834 107.0543121  42.0038382  78.0232975 107.6115504
  41.2771546  77.8888940 107.0031996  41.5885669  78.3309803 108.4172222
  29.8268559  81.7422904 115.3762877  30.7471568  81.9201503 115.5702924
  29.7918142  80.7978950 115.2242577  28.1272784  75.6155135  93.8517106
  27.2204239  75.3188247  93.9279819  28.4048765  75.3184953  92.9851392
  19.0450724  76.9361498 104.3016152  18.7253508  76.0826806 104.0090526
  18.4984152  77.1510076 105.0574119  22.8230631  79.6523939 108.0185659
  23.0416641  80.5841047 108.0373692  23.2356405  79.2931913 108.8040462
  29.7434849  70.1592024 100.0061347  28.9335578  69.8139109 100.3816593
  30.4319266  69.8499568 100.5948959  31.6725398  69.2370071 101.6285644
  32.2256436  69.6565525 102.2875667  31.9095484  68.3105819 101.6708600
  27.6958497  75.2257145 117.4088408  27.5955224  76.1751502 117.3400499
  27.4780039  74.8975384 116.5364478  26.8971568  72.4742070  93.9929085
  27.7590732  72.7996968  94.2524902  27.0821912  71.6873566  93.4802151
  18.9138984  80.5564409 106.2709274  18.2202455  80.1418362 105.7579228
  19.6611975  80.5984946 105.6742693  35.0504205  71.3470596 101.1364308
  34.4702874  72.0055400 100.7542360  34.7840137  70.5247941 100.7251725
  33.5007771  70.7475654 103.3385628  34.0007549  70.8592189 102.5299947
  34.1443379  70.4436707 103.9786437  27.5589767  78.6554284 116.2253469
  27.0756849  79.4554644 116.4317358  27.6450706  78.6662228 115.2720913
  20.8275726  80.4882663 104.1475289  20.8046415  80.5870351 103.1957172
  21.1376363  81.3347814 104.4692455  23.4863104  82.5458818 108.2621903
  24.4406358  82.5142761 108.1951835  23.2875628  82.0849442 109.0772129
  24.0762486  81.1159934 110.8292701  24.8955375  81.6104013 110.8527538
  24.3499294  80.1991902 110.8010268  33.8329083  73.5070687 100.1920656
  32.9454938  73.7920337  99.9740851  34.2483072  73.3464450  99.3447933
  37.1843619  73.5317208 103.9074995  37.9604009  74.0213660 104.1799612
  36.4591753  73.9575262 104.3646865  39.6216177  74.2444827 104.9648936
  40.2160668  74.0040563 104.2542244  39.6942761  73.5251957 105.5922472
  21.8413333  88.0878438 105.2792101  21.7067801  87.3278839 104.7130099
  21.4245395  88.8119338 104.8120890  32.9772296  83.2715361  94.2868676
  33.6808146  83.4765364  94.9026332  32.2534945  83.8392123  94.5517760
  33.8070106  79.0225223 100.4070946  33.7505308  79.4793774  99.5678579
  34.3598449  78.2615907 100.2293789  37.6174912  74.8114954 101.2321066
  37.3611847  74.4111590 102.0629274  36.9927780  75.5258748 101.1071205
  41.9287250  77.5511028 103.7392357  41.3686808  77.6204217 104.5123919
  41.3230754  77.3752012 103.0191853  24.9982459  88.9847755 105.4910544
  24.8814843  89.9293187 105.3889234  24.1774905  88.6821316 105.8796343
  34.8858994  83.7097891  96.3367136  35.7204597  83.2779089  96.1544611
  34.7243336  83.5379904  97.2644031  34.5404886  80.2130004  97.7023476
  34.4853689  80.0474275  96.7611920  33.9150941  80.9206037  97.8585665
  19.3297401  75.4498068 111.5284898  19.9756264  74.9397022 112.0172123
  19.1214552  76.1866750 112.1028323  31.8550793  82.5178916 117.0277038
  32.7241952  82.6919568 116.6663673  31.3757544  83.3373333 116.9052768
  27.8501011  69.7138113  97.2808794  27.8379681  70.6579953  97.4377065
  28.7424433  69.5308258  96.9868255  26.0236973  89.6376017 108.7066472
  26.9264220  89.6699627 109.0232967  25.7974343  88.7076468 108.7212808
  27.7790575  88.3907003 105.3676551  26.8286206  88.3908865 105.2540923
  28.0823061  87.6439738 104.8512585  31.6653131  66.3080889 101.5354731
  30.8985526  65.7539376 101.6811413  32.0763836  66.3802758 102.3968882
  23.6694892  72.5965685 115.6259912  24.5326353  72.2402490 115.8363237
  23.0960302  72.2579580 116.3135316  43.5143269  94.2267542 106.4322313
  44.1521679  94.1074289 105.7285653  43.3964111  95.1748386 106.4910265
  40.3232975  94.1794970 106.3683838  39.9851486  94.0636034 105.4804373
  41.1922743  93.7786135 106.3484844  36.1819791  96.0330446 102.3580729
  35.6184656  95.9420383 101.5897016  36.0672186  95.2130351 102.8383221
  40.8052758  95.3329821 112.3270043  40.7941399  94.9382620 111.4550547
  40.9673397  94.5995894 112.9203815  33.7284223  97.5281638 105.1964949
  34.5205514  97.1872462 104.7811248  33.9680873  97.6376613 106.1167102
  41.7619349  99.7001414  97.6695193  41.1107329 100.2855494  97.2829207
  42.5563712 100.2307609  97.7290231  35.6874976  96.7890551  98.0682328
  36.4605852  96.2419538  97.9295204  36.0400375  97.6534800  98.2796789
  37.5260019  98.1166933 111.2749227  37.2349885  99.0212564 111.1595893
  38.1617003  98.1583461 111.9893297  38.4516226  95.4943782 107.8650587
  39.0479798  95.2699804 107.1507550  38.5091197  94.7528527 108.4676035
  38.0241254  92.9483217  95.7000778  38.2766775  92.4264738  94.9384241
  37.0865813  92.7849363  95.8027461  43.0684537  91.9518995 103.5075521
  43.8547626  91.5338419 103.1565938  43.3323241  92.8565088 103.6757169
  43.2394614  97.3891846  98.2064178  42.6040447  97.4626472  98.9185082
  42.9092021  97.9785445  97.5283257  48.4692964  91.8894229 104.4108500
  49.2018136  91.3193445 104.6446329  47.7132320  91.5015829 104.8515005
  37.7437543  94.8511323  97.9025153  37.6273801  94.1756226  98.5706237
  37.8539803  94.3643697  97.0857306  40.0869084  94.3121470 101.6071842
  39.7227291  93.7852091 102.3184763  40.9436200  93.9219939 101.4338327
  45.9918385  85.6015803 108.8703108  45.6601709  86.4711214 108.6464323
  45.3963998  85.2852087 109.5497138  39.7274571  89.3411370  96.6033190
  39.8948973  90.2091606  96.9703662  39.5371740  89.5038652  95.6794480
  42.4849904  97.8028349 108.2699021  42.1850627  98.7053388 108.1614828
  42.1400964  97.5360532 109.1220174  35.9362386  94.2542146 104.3035725
  35.0112882  94.1218360 104.5113417  36.1846799  95.0336365 104.8005668
  45.8847048  90.3210889 105.9496458  44.9763925  90.2526297 105.6555219
  45.8334644  90.7982834 106.7778284  39.7063792  91.7969027  97.5879857
  39.5863417  92.2426078  98.4265338  39.0116380  92.1454345  97.0293395
  33.2971197  93.8975419 105.1379514  33.4263578  94.1509898 106.0518926
  32.6168648  94.4903127 104.8184169  37.4670684 104.5672669 101.2369989
  37.3894714 105.5180494 101.3158469  36.8632327 104.2218542 101.8944915
  39.9587914  91.7400535 113.8931355  39.1821248  92.2994455 113.8834220
  40.5978477  92.2257318 114.4146226  47.7508694  88.5227327 107.7274332
  47.1083075  88.8159861 107.0814127  47.2463623  88.4080248 108.5327529
  45.4048858  92.2690501  98.4160191  46.3166714  92.5017887  98.2407889
  44.8958505  92.8527545  97.8535270  38.2134286  94.5485988 113.4549322
  38.9548970  95.0871032 113.1784146  37.5071271  95.1752277 113.6120874
  43.6889626  96.6915128 112.0521484  44.0972982  96.2497539 111.3076116
  42.9666887  96.1167756 112.3055677  40.0420696  91.6287735 109.4255041
  40.8881891  92.0527149 109.5689690  39.9819333  90.9721359 110.1193604
  44.0118440  97.2516319 105.8073773  43.3827303  97.4162033 105.1049841
  43.6244102  97.6657929 106.5784737  47.8907672  98.1870757 103.1618137
  47.2058710  98.5669658 102.6115170  47.9751521  98.7966084 103.8950084
  43.1920141  89.2892104 111.0836215  42.9481073  90.0434164 110.5470490
  43.4680072  89.6677451 111.9183462  45.1458604  95.8330716 109.7613480
  45.3575499  96.4762476 109.0847861  45.0988352  94.9993032 109.2935410
  42.7484833  88.4448537 106.6650052  41.8869312  88.7429790 106.9566790
  42.7747267  88.6618935 105.7331085  39.5646402  96.9890727 103.0723858
  40.0284748  97.2678430 102.2828480  39.3003200  96.0874172 102.8896949
  36.4570483  96.5362209 106.0103621  37.0271840  96.9649477 105.3721106
  37.0478595  96.2544793 106.7087807  38.5015288  93.1113879  99.8813423
  39.2039332  93.5634923 100.3487349  38.1695917  92.4697698 100.5093316
  36.9495650  91.7025636 114.2564632  36.3194310  92.3841917 114.4900029
  36.8431738  91.5908718 113.3117771  32.2440622  91.3697432 105.1830557
  31.4539676  91.6254961 104.7070667  32.7351870  92.1845770 105.2882597
  46.2604432  98.7102671 107.9335837  47.0821875  98.3082859 107.6518519
  46.2566835  98.6070905 108.8851953  34.1955368  91.7342011 102.1414033
  33.3986531  91.8460706 102.6597529  33.9680960  92.0728664 101.2754924
  40.0261035  98.2586715 110.0896548  40.0905468  98.7207122 110.9254720
  39.3171959  97.6284080 110.2178858  30.5278325  91.6227923 107.6145547
  30.7786364  92.5074932 107.8803123  31.0637874  91.4432524 106.8420639
  54.3510425  95.0541420 104.2820809  53.5974133  94.4848818 104.1264813
  54.4857966  95.0204084 105.2291444  39.7409053  99.9254822  99.9575528
  39.6054728 100.7706358 100.3860376  40.2818865 100.1274100  99.1941462
  36.2276392  86.0046402 116.6189883  35.8343338  85.4512600 117.2937528
  37.0442533  86.3156980 117.0096401  33.1938450  97.4430260 100.5303453
  33.7062971  98.2373510 100.6809018  33.8461163  96.7456551 100.4637055
  35.0033335 100.5596016 102.6126207  35.1799963 101.4813981 102.4247190
  35.7990168 100.2454436 103.0420586  39.1444353  87.4204281 114.2110140
  39.8854067  88.0211434 114.1314603  39.3762276  86.6781919 113.6528183
  34.2885691  92.6060648 112.4888370  34.1739207  91.7045906 112.7895469
  33.4330209  92.8524345 112.1373186  41.3677529 100.5478389 114.0875870
  40.9241383  99.7614767 113.7696775  42.0294743 100.7357539 113.4219761
  36.1264650 102.0774190 108.6136549  36.6772075 101.9491254 107.8413543
  35.2876126 102.3769079 108.2631442  43.4658767 100.8281189 112.1157272
  43.4477243 101.6490070 111.6237541  44.3878687 100.7035264 112.3407413
  39.9231821  98.3425318 112.9580780  40.4560158  97.5813606 112.7280088
  39.3945903  98.0498970 113.7004934  43.0901516  83.4485384 108.4874422
  42.7465786  84.3387026 108.4113532  43.4580479  83.2587042 107.6244007
  31.1587367  95.7718914 101.3063024  31.9962589  96.1815923 101.0896732
  31.3365635  94.8318357 101.2763218  43.0551799  93.4393995  96.9946857
  42.5398423  94.2098600  97.2335244  42.7829108  92.7659131  97.6179918
  40.6398910  88.2843696 102.0532095  39.7840506  87.8950546 101.8737734
  41.0525862  88.3635657 101.1931881  42.1698057  85.8190039 106.4523655
  41.6662852  85.7820174 105.6391460  42.4628664  86.7282782 106.5120312
  38.4140943  85.9028769 105.4589837  39.2793939  85.7071578 105.0995726
  38.4818452  85.6739121 106.3859193  48.0286073  96.1926350  98.9300030
  47.2515516  95.8537509  98.4855192  48.7077554  96.1978973  98.2554995
  42.8438102  91.3121087  98.8206638  42.5388238  91.6267236  99.6716781
  43.7968544  91.3902507  98.8633971  41.2884534  97.4711310 100.4699592
  40.7605896  96.7364070 100.1572829  40.7872037  98.2485987 100.2239560
  46.2677380  95.6660331 105.5866638  45.6101055  96.3559592 105.6746767
  47.0717779  96.0556763 105.9300625  36.0203262  88.1330977 102.8306204
  36.5947014  87.9106158 102.0979396  36.6074244  88.2019671 103.5834805
  45.0782839  94.0204704 103.6370580  45.5914721  94.6534696 104.1392290
  45.7284063  93.4205899 103.2713940  36.3472849  90.1635438  96.8502089
  35.5110161  90.5010124  97.1711364  36.2077618  90.0284418  95.9129226
  38.3225929  85.0072226 101.5581273  37.6690342  84.6921243 100.9337888
  38.2806404  84.3847966 102.2841096  39.4337134  95.2891521  93.4734565
  38.5264196  95.0580774  93.6725714  39.9308166  94.4929140  93.6608547
  42.3405213 103.9989028  96.3931251  41.6666912 104.3020725  97.0016209
  42.7271035 104.8018108  96.0436708  41.5563670  91.4954159 105.8828921
  40.6386231  91.7169106 105.7250609  41.9723813  91.5700470 105.0240628
  42.3398718  92.8945575 101.0131601  43.0870537  93.4066972 100.7038723
  42.6090307  92.5729628 101.8735994  40.6125368  95.3904116  97.9958555
  39.7036587  95.1063148  98.0931025  40.6420452  95.8103194  97.1361862
  45.8444635  99.0010705 101.7649723  45.3906962  98.1601615 101.8214913
  45.2138602  99.6372103 102.1024503  44.7877555  89.9302691 102.9950390
  44.0500312  89.4180077 103.3260633  45.0404328  89.4903073 102.1833667
  44.2877574 100.8387202 102.6999541  44.5800549 101.3992259 101.9811906
  44.7976195 101.1315763 103.4552700  44.8889182  82.7078943 103.5892159
  45.1948059  81.8476307 103.3018074  45.6141787  83.2996563 103.3891153
  31.1813538  93.1109630 101.9773757  30.9837938  92.5178990 101.2524824
  30.6260202  92.8061840 102.6949696  39.1610262  93.0032736 104.0968350
  39.2158872  92.0506573 104.0210827  38.3501464  93.1592175 104.5809649
  40.3101456  96.9312859  95.3346634  39.8720885  96.2148718  94.8752271
  41.0511896  97.1588974  94.7731725  37.1002622  91.6209796 101.8558729
  36.2870487  91.9203967 102.2623921  37.5961616  91.2265485 102.5733212
  39.2511200 101.6167553 103.7892994  39.2087378 101.8428399 102.8601526
  40.1673898 101.3830927 103.9378795  42.6976833  92.0851620 110.6873623
  43.0526221  92.3123094 111.5468089  43.3448965  92.4169997 110.0650879
  48.4274570  95.2070056 101.3922952  48.2892469  95.3971652 100.4644141
  48.0710789  95.9689439 101.8491003  36.5916696  89.1928151 107.4719964
  37.2316076  89.0516911 106.7742928  35.7594227  88.9062665 107.0958566
  48.4543950  97.2746583 106.4034224  48.8880457  97.1821872 107.2517278
  49.1675531  97.2504084 105.7654240  37.3677000  98.4930582 103.5854957
  38.1617599  97.9980902 103.3837532  36.6568693  97.9648445 103.2222662
  42.1871845 100.8748677 107.9367324  42.2408867 101.4439614 108.7045040
  41.3186626 101.0450562 107.5721361  33.6759764  92.6373664  99.6614709
  32.7457352  92.5758119  99.8784672  33.7717236  92.1149616  98.8651351
  33.5945313  89.1628476 102.2492951  33.8552130  90.0773810 102.1402112
  34.4162485  88.6952919 102.3989564  35.0670238  90.5766234 109.4191776
  35.7393292  90.3683596 108.7704425  34.2400025  90.3788320 108.9797008
  49.3159499  97.3170284 108.9367109  49.5095390  98.2216094 109.1826384
  49.2160118  96.8577703 109.7705694  40.9695810  87.2028175 111.4357436
  40.3223725  87.9018124 111.3421913  41.7396826  87.6364318 111.8033685
  44.3774608  97.4677027 114.5107990  44.2260115  97.2387578 113.5938073
  44.3679288  98.4247628 114.5239335  41.1459945  95.0408939 109.4954256
  42.0752005  95.1920099 109.3223224  40.7250975  95.1292960 108.6402903
  39.9448276  99.0659604 107.2652794  39.8059362  98.6978388 108.1378732
  39.1562873  99.5807243 107.0936752  40.5396428 104.1668700  98.6078330
  40.7148184 103.6956744  99.4223953  39.8529216 104.7934467  98.8359591
  41.4953492  98.4441207 104.6541632  41.1603324  98.4041977 105.5499282
  40.9957437  97.7785923 104.1812042  35.4697735  93.8508837 110.1794213
  35.3317533  93.1189075 110.7805752  36.3802659  93.7617737 109.8978401
  44.4312683  95.7897241  94.9278691  43.8141854  95.0644069  94.8311744
  43.9629172  96.5506601  94.5845766  38.0980036  93.5628796 109.6677892
  38.8079655  92.9221988 109.6264511  38.0549344  93.8141691 110.5904073
  46.0866815 100.4996149 112.5884472  46.0279361  99.8155369 111.9215055
  46.4886333 101.2415139 112.1365098  36.8108970  90.5494014 111.4873532
  36.2746327  90.0984752 112.1395128  36.2225679  90.6839923 110.7443996
  35.1057514 107.3158063 105.3818191  35.3454112 107.9476587 106.0597209
  34.2626710 106.9646103 105.6683550  36.2211229  90.0082665  94.0499996
  35.3440695  89.8871466  93.6862242  36.6968982  89.2168744  93.7978884
  46.0884222  98.4635733 110.8198451  45.2011001  98.1261655 110.9424850
  46.6582773  97.7318764 111.0567217  27.7413369  94.7959825 104.1441503
  28.4284409  94.4821555 103.5562518  27.5861498  95.7001190 103.8708754
  32.5448091  89.6850022 108.5726526  32.4606280  89.0775691 107.8376936
  31.7230798  90.1759040 108.5736023  39.6185375 103.1237186 107.7859695
  39.5455547 103.9292157 108.2978999  39.1762769 103.3229151 106.9607716
  39.4075155 102.3608956 101.2962516  38.6242677 102.9030636 101.3900741
  40.1067900 102.8782935 101.6956757  42.7171805  88.1703585 103.9396721
  43.2140505  87.4173547 103.6197792  41.9458787  88.2067902 103.3739931
  50.5701563  93.8743951 105.5815013  50.5591439  94.7568666 105.2108946
  49.7018942  93.5215501 105.3869550  42.0784059 103.0224020 109.9417853
  42.7912031 103.6571484 109.8693755  41.5874088 103.1187886 109.1257855
  43.8001586  96.9275272 101.5135145  42.8657865  97.0476735 101.3439849
  43.9778254  96.0247739 101.2495155  39.3006774  90.3120968 103.6668406
  38.9304561  89.7592008 104.3549312  39.7965866  89.7079102 103.1143406
  47.1874137  92.7692592 102.0485179  47.6534589  93.6020583 101.9745482
  47.6381638  92.3037573 102.7530437  37.1295973 100.7718463 110.7623424
  37.8305432 101.4054946 110.9152818  36.6591088 101.1133195 110.0019063
  45.2550368  99.1136413  99.0471331  45.5310212  98.9993007  99.9565205
  44.3854867  98.7153898  99.0083504  45.1590800  85.1373179 106.0876080
  44.2453880  85.3677405 106.2558287  45.5883901  85.2211623 106.9390113
  44.9297259  93.3263071 108.5875974  44.2768709  93.5738978 107.9328427
  45.3077638  92.5127209 108.2538452  41.8904432 103.3622764 102.6904145
  42.0726827 102.5444420 103.1531897  42.7137418 103.5790456 102.2529035
  42.2246598 102.2890949  99.9519193  42.7534364 101.7783403  99.3389355
  42.4874817 101.9733479 100.8164726  40.9784832  94.0682882 115.0742011
  40.3025469  93.9677011 115.7444387  41.8012465  93.9122095 115.5378009
  32.7263691 100.3054818 107.6954527  33.3117127  99.5598506 107.8282431
  32.5288529 100.6158775 108.5791191  35.5802346 103.3406066 102.7116969
  34.9112721 103.8252193 102.2281009  35.4415216 103.5875286 103.6260348
  27.3181345  92.8760418 106.4158970  27.3565445  92.3424009 107.2096088
  26.8121638  92.3495624 105.7969947  39.7207614 105.3749809 109.3099627
  40.2725922 105.5381431 110.0748713  40.0613808 105.9654247 108.6379652
  34.6972108  87.7224959 109.9121512  34.7613434  88.5839790 109.4998910
  34.6339228  87.1098960 109.1793871  34.1724380  89.7948091 113.5594546
  34.7996419  89.4125169 114.1732071  33.3152299  89.5762293 113.9250239
  44.5718489 100.2011067 115.1648282  45.1158393 100.8141025 114.6703237
  43.9905334 100.7590645 115.6815295  30.9489923  91.6024520  99.4912901
  31.2443364  90.6935199  99.4379955  30.0477959  91.5812260  99.1693904
  42.8576002 103.3231785 106.2963310  42.7327141 102.5221524 105.7874255
  43.5155093 103.8177978 105.8077280  34.4784170  89.6780517 105.4740450
  33.7570756  90.2916485 105.3347923  35.2677426  90.2138282 105.3957096
  44.9210910 101.1240805 107.9242860  43.9741246 101.0046156 107.8521186
  45.2693683 100.2363303 108.0069121  37.2810483  87.0134944 111.7481102
  37.8044885  87.2597240 112.5107411  37.0622817  87.8454978 111.3284239
  32.6777764  89.2838618  99.6152226  32.3490471  88.4035997  99.4327332
  33.0317135  89.2286287 100.5028616  41.9257343 100.9193521 104.1247212
  41.7782306  99.9910228 104.3054782  42.7510837 100.9413612 103.6404287
  35.7919588  89.5711588  99.9827704  36.1315660  90.0997509  99.2606312
  36.2391708  89.9091994 100.7586271  45.5291465 101.7422080 105.2112085
  46.4538013 101.5364941 105.0736536  45.3606769 101.4938481 106.1201426
  38.4863028  87.9548639 109.4330772  38.1459849  87.1556452 109.8351452
  37.7802035  88.2550350 108.8607605  39.1379500  85.0397951 107.8858095
  39.9605570  84.5658429 107.7636985  39.3817564  85.8188435 108.3856781
  37.7787735  88.0686210  98.1820997  38.4996097  88.4467462  97.6784714
  37.1553039  88.7875086  98.2855975  41.9218858  88.7731359  99.1179329
  42.1382472  89.6555996  98.8168157  41.4412925  88.3817572  98.3884971
  36.6618079  91.7317072 105.6950074  36.5162660  92.0457375 106.5874355
  36.1843283  92.3501972 105.1420972  38.5214462  88.7219620 105.7430963
  38.5076031  87.8260713 105.4063261  39.2386890  88.7290283 106.3769249
  40.3740593  89.1556960 107.7884091  40.1158370  90.0774031 107.7868421
  39.8425633  88.7587394 108.4784555  45.3186781 102.2607747 100.5674176
  45.4923659 101.6954170  99.8148029  45.8115673 103.0608642 100.3853666
  31.1363741  94.2722416 108.6337735  30.5917209  95.0482224 108.7658009
  32.0143091  94.6193221 108.4756856  37.9251358  87.6034000 101.0118533
  38.0467269  86.6750646 101.2109421  37.6353400  87.6172686 100.0996849
  40.7942548  85.2888910 104.1485253  40.8164245  85.3528244 103.1937233
  41.2110607  84.4493419 104.3425759  51.1726173  95.0244170 102.1864476
  51.6157319  94.2751495 101.7883599  50.2952683  95.0154306 101.8038208
  46.3061954 101.5774511  97.6671074  47.0012859 102.1981204  97.8858389
  46.6485104 100.7269863  97.9423452  31.9229763  93.3992312 111.5267892
  31.1811499  93.5474948 112.1132522  31.6022507  93.6600578 110.6634641
  48.2053377  99.0274217  99.1958405  48.7304701  99.3661490  98.4707725
  48.1175730  98.0921232  99.0121540  39.8673426 102.9408291 111.3248282
  40.1760552 102.6957437 112.1970981  40.6648908 103.1454929 110.8367152
  39.8894038 105.0946200 103.5553658  39.4499028 104.6022579 104.2486515
  40.6402155 104.5519168 103.3145734  32.3686377 101.2857741 103.5578286
  33.1944397 100.9861513 103.1776930  32.0180429 100.5165364 104.0068075
  37.3367910 100.6384209 105.6275960  36.7147919  99.9754914 105.3278188
  38.0072777 100.6645341 104.9449608  30.5694982  99.2044068 104.5167220
  29.7326890  98.7766242 104.3351221  30.5418627  99.3976511 105.4538011
  37.4092437  89.1165997 115.2208466  37.4580593  89.9928120 114.8386236
  37.9514952  88.5743390 114.6480109  47.8947283  99.6607121 114.5009603
  47.1042827  99.6431259 113.9614103  47.6580638 100.1995414 115.2558640
  48.0145158  96.5099587 111.8142332  48.0643163  96.3449594 112.7557854
  47.9059081  95.6426846 111.4240212  36.8981417  99.1888133  99.1034421
  37.0469537  99.8723597  98.4501093  37.7047860  99.1693223  99.6183876
  45.3048921  92.4930515 113.1301638  46.2058783  92.3536980 112.8385636
  45.3796895  92.6584970 114.0699816  39.6391726  89.8697370 111.9754825
  38.7695035  90.1630936 111.7037413  39.8751206  90.4537815 112.6962088
  49.5163355  98.9296529 112.0584353  49.2248163  99.2926509 112.8947814
  48.9035486  98.2163537 111.8797685  50.7159037  96.4949408 104.5786923
  51.5505929  96.9339212 104.7424484  50.8518166  96.0188061 103.7595169
  47.7650543  94.0529143 110.5264411  48.2404665  94.2456789 109.7183263
  46.8416109  94.1088329 110.2807795  34.6534050  95.2153310 100.1095489
  34.4080092  94.3115640 100.3075700  34.8229964  95.2170461  99.1674967
  42.3430760  86.0876987 109.4920245  42.8612704  86.8238014 109.1666734
  41.9885892  86.3940980 110.3267004  33.9229697  90.9481668  97.6081651
  33.2298942  91.0226023  96.9521687  33.6781449  90.1842012  98.1303168
  42.5943354  82.5077269 105.0121142  42.8745108  81.8400458 105.6381568
  43.3793961  82.7006365 104.4995806  40.3976822 101.6836263  96.5746168
  39.8250789 102.3026450  96.1216640  40.9709616 102.2335625  97.1086090
  46.4652212  90.9294903 108.7592717  47.4169635  91.0293001 108.7804941
  46.2955663  90.1373172 109.2690801  44.4866592  88.0150486 108.9452118
  43.8916524  88.2955499 108.2498606  44.2016288  88.5044387 109.7168859
  43.6174082 101.9673413  97.7054750  44.5504755 101.9018975  97.9087626
  43.5297295 102.8029680  97.2469283  46.2462099 101.2839284  94.6658698
  46.1675730 100.9499147  95.5594456  47.0671766 101.7761052  94.6650170
  48.9440290  94.1501023 107.8735016  48.9116610  93.2117024 108.0594700
  49.5540914  94.2285060 107.1400841  40.7823621  93.0197076  93.9162220
  41.7282726  92.8903284  93.9850639  40.4037866  92.2811738  94.3931649
  49.0934778  90.9412066 107.9193300  48.5773827  90.1570523 107.7323228
  49.9774727  90.6130783 108.0839819  46.7545505  84.6853082 103.8789112
  46.5570327  84.3768170 104.7632444  47.3645211  85.4114721 104.0087042
  54.7616840  95.2117030 107.0141053  55.4920228  94.9502318 107.5748757
  54.1523785  94.4745752 107.0543121  52.8432137  93.3524892 107.6115504
  52.1165301  93.2180857 107.0031996  52.4279424  93.6601721 108.4172222
  40.6662313  97.0714822 115.3762877  41.5865323  97.2493421 115.5702924
  40.6311896  96.1270867 115.2242577  38.9666538  90.9447052  93.8517106
  38.0597993  90.6480165  93.9279819  39.2442519  90.6476870  92.9851392
  29.8844478  92.2653416 104.3016152  29.5647263  91.4118724 104.0090526
  29.3377907  92.4801994 105.0574119  33.6624386  94.9815857 108.0185659
  33.8810396  95.9132964 108.0373692  34.0750160  94.6223831 108.8040462
  40.5828604  85.4883942 100.0061347  39.7729332  85.1431027 100.3816593
  41.2713021  85.1791486 100.5948959  42.5119152  84.5661989 101.6285644
  43.0650191  84.9857442 102.2875667  42.7489238  83.6397737 101.6708600
  38.5352251  90.5549062 117.4088408  38.4348978  91.5043419 117.3400499
  38.3173793  90.2267301 116.5364478  37.7365323  87.8033987  93.9929085
  38.5984487  88.1288886  94.2524902  37.9215667  87.0165483  93.4802151
  29.7532738  95.8856327 106.2709274  29.0596210  95.4710280 105.7579228
  30.5005729  95.9276864 105.6742693  45.8897959  86.6762514 101.1364308
  45.3096628  87.3347318 100.7542360  45.6233892  85.8539859 100.7251725
  44.3401525  86.0767572 103.3385628  44.8401304  86.1884106 102.5299947
  44.9837133  85.7728625 103.9786437  38.3983521  93.9846201 116.2253469
  37.9150603  94.7846561 116.4317358  38.4844460  93.9954146 115.2720913
  31.6669481  95.8174581 104.1475289  31.6440169  95.9162268 103.1957172
  31.9770117  96.6639732 104.4692455  34.3256859  97.8750736 108.2621903
  35.2800112  97.8434678 108.1951835  34.1269382  97.4141360 109.0772129
  34.9156241  96.4451852 110.8292701  35.7349130  96.9395931 110.8527538
  35.1893049  95.5283820 110.8010268  44.6722837  88.8362604 100.1920656
  43.7848692  89.1212255  99.9740851  45.0876826  88.6756368  99.3447933
  48.0237373  88.8609125 103.9074995  48.7997763  89.3505578 104.1799612
  47.2985507  89.2867180 104.3646865  50.4609932  89.5736745 104.9648936
  51.0554423  89.3332480 104.2542244  50.5336516  88.8543875 105.5922472
  32.6807088 103.4170355 105.2792101  32.5461556 102.6570756 104.7130099
  32.2639150 104.1411255 104.8120890  43.8166051  98.6007279  94.2868676
  44.5201901  98.8057282  94.9026332  43.0928699  99.1684041  94.5517760
  44.6463861  94.3517140 100.4070946  44.5899062  94.8085692  99.5678579
  45.1992203  93.5907825 100.2293789  48.4568667  90.1406872 101.2321066
  48.2005601  89.7403508 102.0629274  47.8321535  90.8550666 101.1071205
  52.7681005  92.8802945 103.7392357  52.2080563  92.9496135 104.5123919
  52.1624508  92.7043930 103.0191853  35.8376213 104.3139672 105.4910544
  35.7208598 105.2585105 105.3889234  35.0168660 104.0113234 105.8796343
  45.7252748  99.0389808  96.3367136  46.5598352  98.6071007  96.1544611
  45.5637091  98.8671822  97.2644031  45.3798640  95.5421922  97.7023476
  45.3247444  95.3766193  96.7611920  44.7544695  96.2497954  97.8585665
  30.1691155  90.7789986 111.5284898  30.8150019  90.2688940 112.0172123
  29.9608306  91.5158668 112.1028323  42.6944547  97.8470833 117.0277038
  43.5635707  98.0211486 116.6663673  42.2151299  98.6665250 116.9052768
  38.6894766  85.0430031  97.2808794  38.6773435  85.9871870  97.4377065
  39.5818188  84.8600176  96.9868255  36.8630728 104.9667934 108.7066472
  37.7657974 104.9991545 109.0232967  36.6368098 104.0368385 108.7212808
  38.6184330 103.7198921 105.3676551  37.6679961 103.7200783 105.2540923
  38.9216816 102.9731655 104.8512585  42.5046885  81.6372807 101.5354731
  41.7379281  81.0831294 101.6811413  42.9157590  81.7094676 102.3968882
  34.5088646  87.9257603 115.6259912  35.3720108  87.5694408 115.8363237
  33.9354057  87.5871498 116.3135316  54.3537023 109.5559459 106.4322313
  54.9915433 109.4366207 105.7285653  54.2357866 110.5040303 106.4910265
  51.1626729 109.5086887 106.3683838  50.8245241 109.3927952 105.4804373
  52.0316498 109.1078053 106.3484844  47.0213545 111.3622364 102.3580729
  46.4578410 111.2712301 101.5897016  46.9065940 110.5422268 102.8383221
  51.6446512 110.6621739 112.3270043  51.6335153 110.2674537 111.4550547
  51.8067152 109.9287812 112.9203815  44.5677977 112.8573555 105.1964949
  45.3599269 112.5164380 104.7811248  44.8074627 112.9668530 106.1167102
  52.6013104 115.0293332  97.6695193  51.9501084 115.6147412  97.2829207
  53.3957467 115.5599526  97.7290231  46.5268731 112.1182469  98.0682328
  47.2999607 111.5711456  97.9295204  46.8794130 112.9826718  98.2796789
  48.3653774 113.4458851 111.2749227  48.0743639 114.3504482 111.1595893
  49.0010758 113.4875379 111.9893297  49.2909980 110.8235699 107.8650587
  49.8873553 110.5991722 107.1507550  49.3484952 110.0820445 108.4676035
  48.8635009 108.2775135  95.7000778  49.1160529 107.7556656  94.9384241
  47.9259568 108.1141280  95.8027461  53.9078292 107.2810913 103.5075521
  54.6941381 106.8630336 103.1565938  54.1716996 108.1857005 103.6757169
  54.0788369 112.7183763  98.2064178  53.4434202 112.7918390  98.9185082
  53.7485775 113.3077362  97.5283257  59.3086719 107.2186146 104.4108500
  60.0411891 106.6485363 104.6446329  58.5526074 106.8307747 104.8515005
  48.5831297 110.1803241  97.9025153  48.4667556 109.5048144  98.5706237
  48.6933557 109.6935615  97.0857306  50.9262838 109.6413388 101.6071842
  50.5621046 109.1144009 102.3184763  51.7829954 109.2511857 101.4338327
  56.8312139 100.9307720 108.8703108  56.4995464 101.8003131 108.6464323
  56.2357752 100.6144004 109.5497138  50.5668325 104.6703288  96.6033190
  50.7342728 105.5383524  96.9703662  50.3765494 104.8330569  95.6794480
  53.3243659 113.1320266 108.2699021  53.0244382 114.0345305 108.1614828
  52.9794718 112.8652450 109.1220174  46.7756140 109.5834063 104.3035725
  45.8506637 109.4510277 104.5113417  47.0240553 110.3628283 104.8005668
  56.7240802 105.6502807 105.9496458  55.8157680 105.5818215 105.6555219
  56.6728398 106.1274752 106.7778284  50.5457546 107.1260945  97.5879857
  50.4257171 107.5717996  98.4265338  49.8510135 107.4746263  97.0293395
  44.1364951 109.2267337 105.1379514  44.2657332 109.4801816 106.0518926
  43.4562402 109.8195045 104.8184169  48.3064438 119.8964587 101.2369989
  48.2288468 120.8472412 101.3158469  47.7026082 119.5510459 101.8944915
  50.7981668 107.0692452 113.8931355  50.0215002 107.6286372 113.8834220
  51.4372231 107.5549235 114.4146226  58.5902449 103.8519245 107.7274332
  57.9476829 104.1451778 107.0814127  58.0857377 103.7372165 108.5327529
  56.2442612 107.5982418  98.4160191  57.1560469 107.8309805  98.2407889
  55.7352260 108.1819462  97.8535270  49.0528040 109.8777906 113.4549322
  49.7942725 110.4162950 113.1784146  48.3465026 110.5044194 113.6120874
  54.5283380 112.0207046 112.0521484  54.9366736 111.5789457 111.3076116
  53.8060642 111.4459674 112.3055677  50.8814450 106.9579653 109.4255041
  51.7275645 107.3819066 109.5689690  50.8213088 106.3013277 110.1193604
  54.8512195 112.5808237 105.8073773  54.2221057 112.7453951 105.1049841
  54.4637857 112.9949846 106.5784737  58.7301427 113.5162675 103.1618137
  58.0452465 113.8961576 102.6115170  58.8145276 114.1258001 103.8950084
  54.0313895 104.6184021 111.0836215  53.7874827 105.3726082 110.5470490
  54.3073826 104.9969369 111.9183462  55.9852358 111.1622634 109.7613480
  56.1969253 111.8054393 109.0847861  55.9382107 110.3284950 109.2935410
  53.5878587 103.7740454 106.6650052  52.7263066 104.0721708 106.9566790
  53.6141022 103.9910853 105.7331085  50.4040157 112.3182645 103.0723858
  50.8678502 112.5970348 102.2828480  50.1396955 111.4166089 102.8896949
  47.2964238 111.8654126 106.0103621  47.8665595 112.2941395 105.3721106
  47.8872350 111.5836711 106.7087807  49.3409043 108.4405797  99.8813423
  50.0433086 108.8926841 100.3487349  49.0089671 107.7989616 100.5093316
  47.7889404 107.0317554 114.2564632  47.1588065 107.7133835 114.4900029
  47.6825492 106.9200635 113.3117771  43.0834377 106.6989350 105.1830557
  42.2933431 106.9546878 104.7070667  43.5745624 107.5137688 105.2882597
  57.0998186 114.0394589 107.9335837  57.9215630 113.6374776 107.6518519
  57.0960589 113.9362823 108.8851953  45.0349122 107.0633929 102.1414033
  44.2380285 107.1752623 102.6597529  44.8074714 107.4020581 101.2754924
  50.8654790 113.5878632 110.0896548  50.9299222 114.0499040 110.9254720
  50.1565714 112.9575997 110.2178858  41.3672080 106.9519840 107.6145547
  41.6180118 107.8366850 107.8803123  41.9031628 106.7724442 106.8420639
  50.5802807 115.2546740  99.9575528  50.4448482 116.0998276 100.3860376
  51.1212620 115.4566017  99.1941462  47.0670147 101.3338320 116.6189883
  46.6737093 100.7804518 117.2937528  47.8836287 101.6448898 117.0096401
  44.0332205 112.7722178 100.5303453  44.5456725 113.5665428 100.6809018
  44.6854918 112.0748468 100.4637055  45.8427089 115.8887934 102.6126207
  46.0193718 116.8105899 102.4247190  46.6383923 115.5746353 103.0420586
  49.9838108 102.7496199 114.2110140  50.7247821 103.3503352 114.1314603
  50.2156031 102.0073837 113.6528183  45.1279446 107.9352566 112.4888370
  45.0132961 107.0337823 112.7895469  44.2723964 108.1816263 112.1373186
  52.2071284 115.8770306 114.0875870  51.7635138 115.0906685 113.7696775
  52.8688497 116.0649457 113.4219761  46.9658405 117.4066108 108.6136549
  47.5165830 117.2783171 107.8413543  46.1269881 117.7060997 108.2631442
  54.3052522 116.1573106 112.1157272  54.2870997 116.9781987 111.6237541
  55.2272442 116.0327181 112.3407413  50.7625576 113.6717236 112.9580780
  51.2953913 112.9105524 112.7280088  50.2339657 113.3790888 113.7004934
  53.9295271  98.7777302 108.4874422  53.5859540  99.6678943 108.4113532
  54.2974233  98.5878959 107.6244007  41.9981121 111.1010832 101.3063024
  42.8356343 111.5107840 101.0896732  42.1759389 110.1610274 101.2763218
  53.8945554 108.7685913  96.9946857  53.3792177 109.5390517  97.2335244
  53.6222862 108.0951049  97.6179918  51.4792665 103.6135614 102.0532095
  50.6234261 103.2242464 101.8737734  51.8919616 103.6927574 101.1931881
  53.0091811 101.1481957 106.4523655  52.5056607 101.1112092 105.6391460
  53.3022418 102.0574700 106.5120312  49.2534697 101.2320687 105.4589837
  50.1187694 101.0363495 105.0995726  49.3212206 101.0031038 106.3859193
  58.8679828 111.5218267  98.9300030  58.0909270 111.1829427  98.4855192
  59.5471309 111.5270891  98.2554995  53.6831857 106.6413005  98.8206638
  53.3781992 106.9559154  99.6716781  54.6362299 106.7194425  98.8633971
  52.1278289 112.8003228 100.4699592  51.5999650 112.0655988 100.1572829
  51.6265791 113.5777905 100.2239560  57.1071135 110.9952249 105.5866638
  56.4494809 111.6851510 105.6746767  57.9111534 111.3848681 105.9300625
  46.8597016 103.4622894 102.8306204  47.4340768 103.2398076 102.0979396
  47.4467999 103.5311589 103.5834805  55.9176593 109.3496621 103.6370580
  56.4308475 109.9826613 104.1392290  56.5677817 108.7497817 103.2713940
  47.1866603 105.4927355  96.8502089  46.3503916 105.8302042  97.1711364
  47.0471373 105.3576335  95.9129226  49.1619684 100.3364143 101.5581273
  48.5084096 100.0213161 100.9337888  49.1200158  99.7139884 102.2841096
  50.2730889 110.6183438  93.4734565  49.3657951 110.3872692  93.6725714
  50.7701921 109.8221058  93.6608547  53.1798968 119.3280946  96.3931251
  52.5060666 119.6312642  97.0016209  53.5664790 120.1310026  96.0436708
  52.3957424 106.8246077 105.8828921  51.4779986 107.0461024 105.7250609
  52.8117568 106.8992387 105.0240628  53.1792472 108.2237493 101.0131601
  53.9264291 108.7358890 100.7038723  53.4484062 107.9021545 101.8735994
  51.4519122 110.7196033  97.9958555  50.5430341 110.4355066  98.0931025
  51.4814206 111.1395112  97.1361862  56.6838390 114.3302623 101.7649723
  56.2300717 113.4893533 101.8214913  56.0532356 114.9664021 102.1024503
  55.6271309 105.2594609 102.9950390  54.8894066 104.7471995 103.3260633
  55.8798083 104.8194990 102.1833667  55.1271329 116.1679119 102.6999541
  55.4194303 116.7284177 101.9811906  55.6369949 116.4607680 103.4552700
  55.7282937  98.0370861 103.5892159  56.0341813  97.1768224 103.3018074
  56.4535541  98.6288481 103.3891153  42.0207293 108.4401547 101.9773757
  41.8231692 107.8470908 101.2524824  41.4653957 108.1353758 102.6949696
  50.0004016 108.3324654 104.0968350  50.0552626 107.3798490 104.0210827
  49.1895218 108.4884093 104.5809649  51.1495210 112.2604777  95.3346634
  50.7114640 111.5440636  94.8752271  51.8905651 112.4880892  94.7731725
  47.9396376 106.9501714 101.8558729  47.1264242 107.2495884 102.2623921
  48.4355370 106.5557402 102.5733212  50.0904954 116.9459471 103.7892994
  50.0481133 117.1720317 102.8601526  51.0067653 116.7122845 103.9378795
  53.5370588 107.4143538 110.6873623  53.8919976 107.6415011 111.5468089
  54.1842719 107.7461915 110.0650879  59.2668325 110.5361974 101.3922952
  59.1286223 110.7263570 100.4644141  58.9104544 111.2981357 101.8491003
  47.4310451 104.5220069 107.4719964  48.0709830 104.3808828 106.7742928
  46.5987981 104.2354583 107.0958566  59.2937704 112.6038501 106.4034224
  59.7274211 112.5113790 107.2517278  60.0069285 112.5796001 105.7654240
  48.2070755 113.8222500 103.5854957  49.0011353 113.3272820 103.3837532
  47.4962447 113.2940363 103.2222662  53.0265599 116.2040595 107.9367324
  53.0802622 116.7731531 108.7045040  52.1580381 116.3742480 107.5721361
  44.5153518 107.9665581  99.6614709  43.5851106 107.9050037  99.8784672
  44.6110990 107.4441534  98.8651351  44.4339067 104.4920394 102.2492951
  44.6945885 105.4065727 102.1402112  45.2556240 104.0244837 102.3989564
  45.9063993 105.9058151 109.4191776  46.5787046 105.6975513 108.7704425
  45.0793779 105.7080237 108.9797008  60.1553254 112.6462202 108.9367109
  60.3489144 113.5508012 109.1826384  60.0553872 112.1869621 109.7705694
  51.8089565 102.5320092 111.4357436  51.1617480 103.2310042 111.3421913
  52.5790580 102.9656236 111.8033685  55.2168363 112.7968944 114.5107990
  55.0653869 112.5679496 113.5938073  55.2073042 113.7539546 114.5239335
  51.9853699 110.3700857 109.4954256  52.9145759 110.5212017 109.3223224
  51.5644729 110.4584878 108.6402903  50.7842031 114.3951522 107.2652794
  50.6453117 114.0270306 108.1378732  49.9956627 114.9099161 107.0936752
  51.3790183 119.4960618  98.6078330  51.5541939 119.0248661  99.4223953
  50.6922971 120.1226384  98.8359591  52.3347246 113.7733124 104.6541632
  51.9997079 113.7333894 105.5499282  51.8351192 113.1077840 104.1812042
  46.3091490 109.1800754 110.1794213  46.1711288 108.4480993 110.7805752
  47.2196413 109.0909654 109.8978401  55.2706438 111.1189159  94.9278691
  54.6535608 110.3935987  94.8311744  54.8022926 111.8798519  94.5845766
  48.9373791 108.8920714 109.6677892  49.6473409 108.2513906 109.6264511
  48.8943099 109.1433608 110.5904073  56.9260569 115.8288067 112.5884472
  56.8673115 115.1447287 111.9215055  57.3280088 116.5707057 112.1365098
  47.6502725 105.8785932 111.4873532  47.1140082 105.4276670 112.1395128
  47.0619433 106.0131840 110.7443996  45.9451268 122.6449981 105.3818191
  46.1847866 123.2768505 106.0597209  45.1020465 122.2938021 105.6683550
  47.0604984 105.3374583  94.0499996  46.1834450 105.2163384  93.6862242
  47.5362737 104.5460661  93.7978884  56.9277977 113.7927651 110.8198451
  56.0404755 113.4553573 110.9424850  57.4976528 113.0610682 111.0567217
  38.5807124 110.1251743 104.1441503  39.2678164 109.8113473 103.5562518
  38.4255252 111.0293107 103.8708754  43.3841846 105.0141939 108.5726526
  43.3000035 104.4067609 107.8376936  42.5624552 105.5050958 108.5736023
  50.4579130 118.4529103 107.7859695  50.3849301 119.2584075 108.2978999
  50.0156523 118.6521069 106.9607716  50.2468910 117.6900873 101.2962516
  49.4636431 118.2322553 101.3900741  50.9461655 118.2074853 101.6956757
  53.5565560 103.4995503 103.9396721  54.0534259 102.7465465 103.6197792
  52.7852541 103.5359819 103.3739931  61.4095317 109.2035868 105.5815013
  61.3985193 110.0860584 105.2108946  60.5412697 108.8507419 105.3869550
  52.9177813 118.3515937 109.9417853  53.6305786 118.9863402 109.8693755
  52.4267842 118.4479803 109.1257855  54.6395340 112.2567190 101.5135145
  53.7051619 112.3768652 101.3439849  54.8172009 111.3539657 101.2495155
  50.1400528 105.6412886 103.6668406  49.7698316 105.0883926 104.3549312
  50.6359621 105.0371019 103.1143406  58.0267892 108.0984509 102.0485179
  58.4928344 108.9312501 101.9745482  58.4775392 107.6329491 102.7530437
  47.9689727 116.1010381 110.7623424  48.6699187 116.7346864 110.9152818
  47.4984842 116.4425112 110.0019063  56.0944123 114.4428331  99.0471331
  56.3703967 114.3284925  99.9565205  55.2248622 114.0445815  99.0083504
  55.9984554 100.4665096 106.0876080  55.0847634 100.6969323 106.2558287
  56.4277656 100.5503540 106.9390113  55.7691013 108.6554988 108.5875974
  55.1162463 108.9030896 107.9328427  56.1471393 107.8419126 108.2538452
  52.7298187 118.6914681 102.6904145  52.9120581 117.8736337 103.1531897
  53.5531173 118.9082374 102.2529035  53.0640352 117.6182867  99.9519193
  53.5928119 117.1075321  99.3389355  53.3268572 117.3025397 100.8164726
  51.8178586 109.3974799 115.0742011  51.1419223 109.2968929 115.7444387
  52.6406220 109.2414013 115.5378009  43.5657445 115.6346736 107.6954527
  44.1510882 114.8890424 107.8282431  43.3682284 115.9450693 108.5791191
  46.4196100 118.6697983 102.7116969  45.7506476 119.1544111 102.2281009
  46.2808970 118.9167204 103.6260348  38.1575100 108.2052336 106.4158970
  38.1959199 107.6715927 107.2096088  37.6515393 107.6787542 105.7969947
  50.5601369 120.7041727 109.3099627  51.1119677 120.8673348 110.0748713
  50.9007562 121.2946165 108.6379652  45.5365862 103.0516877 109.9121512
  45.6007189 103.9131707 109.4998910  45.4732982 102.4390878 109.1793871
  45.0118135 105.1240009 113.5594546  45.6390173 104.7417086 114.1732071
  44.1546054 104.9054211 113.9250239  55.4112243 115.5302984 115.1648282
  55.9552147 116.1432942 114.6703237  54.8299088 116.0882563 115.6815295
  41.7883677 106.9316438  99.4912901  42.0837118 106.0227117  99.4379955
  40.8871713 106.9104178  99.1693904  53.6969756 118.6523702 106.2963310
  53.5720896 117.8513442 105.7874255  54.3548847 119.1469896 105.8077280
  45.3177924 105.0072435 105.4740450  44.5964510 105.6208402 105.3347923
  46.1071180 105.5430200 105.3957096  55.7604665 116.4532722 107.9242860
  54.8135000 116.3338074 107.8521186  56.1087438 115.5655220 108.0069121
  48.1204238 102.3426861 111.7481102  48.6438640 102.5889158 112.5107411
  47.9016571 103.1746896 111.3284239  43.5171519 104.6130536  99.6152226
  43.1884225 103.7327915  99.4327332  43.8710890 104.5578205 100.5028616
  52.7651098 116.2485439 104.1247212  52.6176060 115.3202146 104.3054782
  53.5904591 116.2705529 103.6404287  46.6313342 104.9003506  99.9827704
  46.9709415 105.4289427  99.2606312  47.0785463 105.2383912 100.7586271
  56.3685220 117.0713997 105.2112085  57.2931767 116.8656859 105.0736536
  56.2000523 116.8230398 106.1201426  49.3256783 103.2840556 109.4330772
  48.9853603 102.4848369 109.8351452  48.6195789 103.5842267 108.8607605
  49.9773255 100.3689869 107.8858095  50.7999324  99.8950347 107.7636985
  50.2211318 101.1480353 108.3856781  48.6181489 103.3978127  98.1820997
  49.3389852 103.7759380  97.6784714  47.9946793 104.1167004  98.2855975
  52.7612612 104.1023276  99.1179329  52.9776227 104.9847914  98.8168157
  52.2806679 103.7109490  98.3884971  47.5011834 107.0608989 105.6950074
  47.3556414 107.3749292 106.5874355  47.0237037 107.6793890 105.1420972
  49.3608216 104.0511537 105.7430963  49.3469785 103.1552631 105.4063261
  50.0780645 104.0582201 106.3769249  51.2134347 104.4848878 107.7884091
  50.9552125 105.4065948 107.7868421  50.6819388 104.0879312 108.4784555
  56.1580536 117.5899665 100.5674176  56.3317413 117.0246087  99.8148029
  56.6509427 118.3900560 100.3853666  41.9757496 109.6014334 108.6337735
  41.4310964 110.3774142 108.7658009  42.8536846 109.9485138 108.4756856
  48.7645112 102.9325918 101.0118533  48.8861024 102.0042564 101.2109421
  48.4747155 102.9464604 100.0996849  51.6336303 100.6180828 104.1485253
  51.6558000 100.6820161 103.1937233  52.0504362  99.7785337 104.3425759
  62.0119927 110.3536088 102.1864476  62.4551073 109.6043413 101.7883599
  61.1346437 110.3446224 101.8038208  57.1455708 116.9066429  97.6671074
  57.8406613 117.5273122  97.8858389  57.4878859 116.0561780  97.9423452
  42.7623518 108.7284230 111.5267892  42.0205254 108.8766865 112.1132522
  42.4416262 108.9892496 110.6634641  59.0447132 114.3566135  99.1958405
  59.5698456 114.6953407  98.4707725  58.9569484 113.4213150  99.0121540
  50.7067180 118.2700208 111.3248282  51.0154307 118.0249355 112.1970981
  51.5042662 118.4746847 110.8367152  50.7287792 120.4238118 103.5553658
  50.2892783 119.9314497 104.2486515  51.4795909 119.8811086 103.3145734
  43.2080131 116.6149659 103.5578286  44.0338151 116.3153431 103.1776930
  42.8574183 115.8457281 104.0068075  48.1761664 115.9676127 105.6275960
  47.5541674 115.3046832 105.3278188  48.8466531 115.9937259 104.9449608
  41.4088736 114.5335985 104.5167220  40.5720645 114.1058160 104.3351221
  41.3812382 114.7268429 105.4538011  48.2486192 104.4457915 115.2208466
  48.2974347 105.3220038 114.8386236  48.7908706 103.9035308 114.6480109
  58.7341038 114.9899038 114.5009603  57.9436581 114.9723177 113.9614103
  58.4974392 115.5287332 115.2558640  58.8538913 111.8391505 111.8142332
  58.9036918 111.6741512 112.7557854  58.7452836 110.9718764 111.4240212
  47.7375171 114.5180050  99.1034421  47.8863292 115.2015515  98.4501093
  48.5441615 114.4985140  99.6183876  56.1442675 107.8222433 113.1301638
  57.0452538 107.6828898 112.8385636  56.2190650 107.9876888 114.0699816
  50.4785480 105.1989287 111.9754825  49.6088790 105.4922854 111.7037413
  50.7144961 105.7829732 112.6962088  60.3557109 114.2588446 112.0584353
  60.0641918 114.6218427 112.8947814  59.7429241 113.5455454 111.8797685
  61.5552792 111.8241326 104.5786923  62.3899683 112.2631130 104.7424484
  61.6911921 111.3479979 103.7595169  58.6044298 109.3821061 110.5264411
  59.0798419 109.5748707 109.7183263  57.6809863 109.4380247 110.2807795
  45.4927804 110.5445228 100.1095489  45.2473846 109.6407558 100.3075700
  45.6623719 110.5462378  99.1674967  53.1824514 101.4168904 109.4920245
  53.7006458 102.1529931 109.1666734  52.8279647 101.7232898 110.3267004
  44.7623452 106.2773586  97.6081651  44.0692697 106.3517941  96.9521687
  44.5175204 105.5133929  98.1303168  53.4337108  97.8369187 105.0121142
  53.7138862  97.1692376 105.6381568  54.2187715  98.0298283 104.4995806
  51.2370577 117.0128181  96.5746168  50.6644544 117.6318368  96.1216640
  51.8103371 117.5627543  97.1086090  57.3045967 106.2586821 108.7592717
  58.2563390 106.3584919 108.7804941  57.1349417 105.4665089 109.2690801
  55.3260346 103.3442404 108.9452118  54.7310278 103.6247417 108.2498606
  55.0410043 103.8336305 109.7168859  54.4567837 117.2965331  97.7054750
  55.3898510 117.2310893  97.9087626  54.3691049 118.1321598  97.2469283
  57.0855853 116.6131201  94.6658698  57.0069485 116.2791065  95.5594456
  57.9065520 117.1052969  94.6650170  59.7834044 109.4792941 107.8735016
  59.7510365 108.5408941 108.0594700  60.3934668 109.5576977 107.1400841
  51.6217375 108.3488994  93.9162220  52.5676480 108.2195202  93.9850639
  51.2431620 107.6103655  94.3931649  59.9328533 106.2703984 107.9193300
  59.4167582 105.4862441 107.7323228  60.8168481 105.9422701 108.0839819
  57.5939260 100.0145000 103.8789112  57.3964081  99.7060088 104.7632444
  58.2038965 100.7406639 104.0087042  65.6010594 110.5408947 107.0141053
  66.3313983 110.2794236 107.5748757  64.9917540 109.8037669 107.0543121
  63.6825891 108.6816810 107.6115504  62.9559055 108.5472775 107.0031996
  63.2673178 108.9893639 108.4172222  51.5056068 112.4006740 115.3762877
  52.4259077 112.5785339 115.5702924  51.4705651 111.4562785 115.2242577
  49.8060292 106.2738970  93.8517106  48.8991748 105.9772083  93.9279819
  50.0836274 105.9768788  92.9851392  40.7238233 107.5945333 104.3016152
  40.4041017 106.7410642 104.0090526  40.1771661 107.8093912 105.0574119
  44.5018140 110.3107774 108.0185659  44.7204150 111.2424882 108.0373692
  44.9143914 109.9515749 108.8040462  51.4222358 100.8175860 100.0061347
  50.6123087 100.4722945 100.3816593  52.1106775 100.5083403 100.5948959
  53.3512907  99.8953906 101.6285644  53.9043945 100.3149360 102.2875667
  53.5882993  98.9689655 101.6708600  49.3746006 105.8840980 117.4088408
  49.2742733 106.8335337 117.3400499  49.1567548 105.5559219 116.5364478
  48.5759077 103.1325905  93.9929085  49.4378241 103.4580803  94.2524902
  48.7609421 102.3457401  93.4802151  40.5926493 111.2148245 106.2709274
  39.8989964 110.8002198 105.7579228  41.3399484 111.2568781 105.6742693
  56.7291714 102.0054432 101.1364308  56.1490383 102.6639236 100.7542360
  56.4627646 101.1831776 100.7251725  55.1795280 101.4059489 103.3385628
  55.6795058 101.5176024 102.5299947  55.8230888 101.1020542 103.9786437
  49.2377276 109.3138119 116.2253469  48.7544358 110.1138479 116.4317358
  49.3238215 109.3246064 115.2720913  42.5063235 111.1466499 104.1475289
  42.4833924 111.2454186 103.1957172  42.8163872 111.9931649 104.4692455
  45.1650613 113.2042654 108.2621903  46.1193867 113.1726596 108.1951835
  44.9663137 112.7433277 109.0772129  45.7549995 111.7743770 110.8292701
  46.5742884 112.2687848 110.8527538  46.0286803 110.8575738 110.8010268
  55.5116592 104.1654522 100.1920656  54.6242447 104.4504173  99.9740851
  55.9270581 104.0048285  99.3447933  58.8631128 104.1901043 103.9074995
  59.6391518 104.6797495 104.1799612  58.1379262 104.6159097 104.3646865
  61.3003686 104.9028662 104.9648936  61.8948177 104.6624398 104.2542244
  61.3730270 104.1835793 105.5922472  43.5200842 118.7462273 105.2792101
  43.3855310 117.9862674 104.7130099  43.1032904 119.4703173 104.8120890
  54.6559805 113.9299197  94.2868676  55.3595655 114.1349199  94.9026332
  53.9322454 114.4975959  94.5517760  55.4857615 109.6809058 100.4070946
  55.4292817 110.1377609  99.5678579  56.0385958 108.9199743 100.2293789
  59.2962421 105.4698790 101.2321066  59.0399356 105.0695425 102.0629274
  58.6715289 106.1842584 101.1071205  63.6074759 108.2094863 103.7392357
  63.0474317 108.2788052 104.5123919  63.0018262 108.0335848 103.0191853
  46.6769968 119.6431590 105.4910544  46.5602352 120.5877023 105.3889234
  45.8562414 119.3405152 105.8796343  56.5646502 114.3681726  96.3367136
  57.3992106 113.9362924  96.1544611  56.4030845 114.1963740  97.2644031
  56.2192395 110.8713839  97.7023476  56.1641198 110.7058111  96.7611920
  55.5938450 111.5789872  97.8585665  41.0084910 106.1081904 111.5284898
  41.6543773 105.5980858 112.0172123  40.8002061 106.8450585 112.1028323
  53.5338302 113.1762751 117.0277038  54.4029461 113.3503403 116.6663673
  53.0545053 113.9957168 116.9052768  49.5288520 100.3721948  97.2808794
  49.5167190 101.3163788  97.4377065  50.4211942 100.1892094  96.9868255
  47.7024482 120.2959852 108.7066472  48.6051729 120.3283462 109.0232967
  47.4761852 119.3660303 108.7212808  49.4578084 119.0490839 105.3676551
  48.5073715 119.0492700 105.2540923  49.7610570 118.3023573 104.8512585
  53.3440640  96.9664725 101.5354731  52.5773035  96.4123212 101.6811413
  53.7551345  97.0386594 102.3968882  45.3482401 103.2549521 115.6259912
  46.2113862 102.8986325 115.8363237  44.7747811 102.9163415 116.3135316
  65.1930778 124.8851377 106.4322313  65.8309188 124.7658124 105.7285653
  65.0751620 125.8332221 106.4910265  62.0020484 124.8378805 106.3683838
  61.6638995 124.7219870 105.4804373  62.8710252 124.4369970 106.3484844
  57.8607300 126.6914282 102.3580729  57.2972165 126.6004218 101.5897016
  57.7459695 125.8714186 102.8383221  62.4840267 125.9913657 112.3270043
  62.4728908 125.5966455 111.4550547  62.6460906 125.2579729 112.9203815
  55.4071731 128.1865473 105.1964949  56.1993023 127.8456298 104.7811248
  55.6468382 128.2960448 106.1167102  63.4406858 130.3585249  97.6695193
  62.7894838 130.9439330  97.2829207  64.2351221 130.8891444  97.7290231
  57.3662485 127.4474386  98.0682328  58.1393361 126.9003373  97.9295204
  57.7187884 128.3118636  98.2796789  59.2047528 128.7750769 111.2749227
  58.9137394 129.6796399 111.1595893  59.8404512 128.8167296 111.9893297
  60.1303735 126.1527617 107.8650587  60.7267307 125.9283640 107.1507550
  60.1878706 125.4112363 108.4676035  59.7028763 123.6067052  95.7000778
  59.9554284 123.0848574  94.9384241  58.7653322 123.4433198  95.8027461
  64.7472046 122.6102831 103.5075521  65.5335135 122.1922254 103.1565938
  65.0110750 123.5148923 103.6757169  64.9182123 128.0475681  98.2064178
  64.2827956 128.1210308  98.9185082  64.5879530 128.6369280  97.5283257
  70.1480473 122.5478064 104.4108500  70.8805645 121.9777281 104.6446329
  69.3919829 122.1599664 104.8515005  59.4225052 125.5095158  97.9025153
  59.3061310 124.8340062  98.5706237  59.5327312 125.0227532  97.0857306
  61.7656593 124.9705306 101.6071842  61.4014800 124.4435927 102.3184763
  62.6223709 124.5803775 101.4338327  67.6705894 116.2599638 108.8703108
  67.3389218 117.1295049 108.6464323  67.0751507 115.9435922 109.5497138
  61.4062080 119.9995205  96.6033190  61.5736482 120.8675442  96.9703662
  61.2159249 120.1622487  95.6794480  64.1637413 128.4612184 108.2699021
  63.8638136 129.3637223 108.1614828  63.8188473 128.1944367 109.1220174
  57.6149895 124.9125981 104.3035725  56.6900391 124.7802195 104.5113417
  57.8634308 125.6920200 104.8005668  67.5634557 120.9794724 105.9496458
  66.6551434 120.9110133 105.6555219  67.5122153 121.4566669 106.7778284
  61.3851301 122.4552863  97.5879857  61.2650926 122.9009914  98.4265338
  60.6903889 122.8038180  97.0293395  54.9758706 124.5559255 105.1379514
  55.1051087 124.8093733 106.0518926  54.2956157 125.1486963 104.8184169
  59.1458193 135.2256504 101.2369989  59.0682223 136.1764330 101.3158469
  58.5419836 134.8802377 101.8944915  61.6375423 122.3984370 113.8931355
  60.8608757 122.9578290 113.8834220  62.2765986 122.8841153 114.4146226
  69.4296203 119.1811163 107.7274332  68.7870584 119.4743696 107.0814127
  68.9251132 119.0664083 108.5327529  67.0836367 122.9274336  98.4160191
  67.9954223 123.1601723  98.2407889  66.5746014 123.5111380  97.8535270
  59.8921795 125.2069823 113.4549322  60.6336479 125.7454867 113.1784146
  59.1858780 125.8336112 113.6120874  65.3677135 127.3498964 112.0521484
  65.7760491 126.9081374 111.3076116  64.6454396 126.7751591 112.3055677
  61.7208205 122.2871571 109.4255041  62.5669400 122.7110984 109.5689690
  61.6606842 121.6305195 110.1193604  65.6905949 127.9100154 105.8073773
  65.0614812 128.0745868 105.1049841  65.3031611 128.3241764 106.5784737
  69.5695181 128.8454592 103.1618137  68.8846219 129.2253494 102.6115170
  69.6539030 129.4549919 103.8950084  64.8707650 119.9475939 111.0836215
  64.6268582 120.7017999 110.5470490  65.1467580 120.3261286 111.9183462
  66.8246113 126.4914551 109.7613480  67.0363008 127.1346311 109.0847861
  66.7775861 125.6576868 109.2935410  64.4272342 119.1032372 106.6650052
  63.5656821 119.4013625 106.9566790  64.4534776 119.3202771 105.7331085
  61.2433911 127.6474562 103.0723858  61.7072257 127.9262265 102.2828480
  60.9790709 126.7458007 102.8896949  58.1357992 127.1946044 106.0103621
  58.7059349 127.6233312 105.3721106  58.7266104 126.9128629 106.7087807
  60.1802797 123.7697715  99.8813423  60.8826841 124.2218758 100.3487349
  59.8483426 123.1281534 100.5093316  58.6283159 122.3609471 114.2564632
  57.9981819 123.0425752 114.4900029  58.5219247 122.2492553 113.3117771
  53.9228131 122.0281267 105.1830557  53.1327185 122.2838796 104.7070667
  54.4139379 122.8429605 105.2882597  67.9391941 129.3686507 107.9335837
  68.7609384 128.9666694 107.6518519  67.9354344 129.2654741 108.8851953
  55.8742877 122.3925847 102.1414033  55.0774040 122.5044541 102.6597529
  55.6468469 122.7312499 101.2754924  61.7048544 128.9170550 110.0896548
  61.7692977 129.3790957 110.9254720  60.9959468 128.2867915 110.2178858
  52.2065834 122.2811758 107.6145547  52.4573873 123.1658768 107.8803123
  52.7425383 122.1016359 106.8420639  76.0297934 125.7125255 104.2820809
  75.2761642 125.1432653 104.1264813  76.1645475 125.6787920 105.2291444
  61.4196562 130.5838657  99.9575528  61.2842237 131.4290193 100.3860376
  61.9606374 130.7857935  99.1941462  57.9063901 116.6630237 116.6189883
  57.5130847 116.1096436 117.2937528  58.7230042 116.9740816 117.0096401
  54.8725959 128.1014095 100.5303453  55.3850480 128.8957346 100.6809018
  55.5248672 127.4040386 100.4637055  56.6820844 131.2179852 102.6126207
  56.8587472 132.1397816 102.4247190  57.4777677 130.9038271 103.0420586
  60.8231862 118.0788116 114.2110140  61.5641576 118.6795270 114.1314603
  61.0549785 117.3365754 113.6528183  55.9673200 123.2644484 112.4888370
  55.8526716 122.3629741 112.7895469  55.1117718 123.5108180 112.1373186
  63.0465038 131.2062224 114.0875870  62.6028892 130.4198603 113.7696775
  63.7082252 131.3941374 113.4219761  57.8052159 132.7358026 108.6136549
  58.3559584 132.6075089 107.8413543  56.9663635 133.0352915 108.2631442
  65.1446276 131.4865024 112.1157272  65.1264752 132.3073905 111.6237541
  66.0666196 131.3619099 112.3407413  61.6019330 129.0009153 112.9580780
  62.1347667 128.2397442 112.7280088  61.0733411 128.7082805 113.7004934
  64.7689025 114.1069219 108.4874422  64.4253295 114.9970861 108.4113532
  65.1367988 113.9170877 107.6244007  52.8374876 126.4302750 101.3063024
  53.6750098 126.8399758 101.0896732  53.0153144 125.4902192 101.2763218
  64.7339308 124.0977830  96.9946857  64.2185932 124.8682435  97.2335244
  64.4616617 123.4242967  97.6179918  62.3186419 118.9427531 102.0532095
  61.4628015 118.5534382 101.8737734  62.7313371 119.0219492 101.1931881
  63.8485566 116.4773874 106.4523655  63.3450361 116.4404010 105.6391460
  64.1416173 117.3866617 106.5120312  60.0928452 116.5612604 105.4589837
  60.9581448 116.3655413 105.0995726  60.1605961 116.3322956 106.3859193
  69.7073582 126.8510185  98.9300030  68.9303025 126.5121345  98.4855192
  70.3865063 126.8562808  98.2554995  64.5225611 121.9704923  98.8206638
  64.2175747 122.2851072  99.6716781  65.4756053 122.0486342  98.8633971
  62.9672043 128.1295146 100.4699592  62.4393405 127.3947905 100.1572829
  62.4659546 128.9069822 100.2239560  67.9464889 126.3244166 105.5866638
  67.2888564 127.0143428 105.6746767  68.7505288 126.7140598 105.9300625
  57.6990771 118.7914812 102.8306204  58.2734523 118.5689994 102.0979396
  58.2861753 118.8603507 103.5834805  66.7570348 124.6788539 103.6370580
  67.2702230 125.3118531 104.1392290  67.4071572 124.0789735 103.2713940
  58.0260358 120.8219273  96.8502089  57.1897670 121.1593960  97.1711364
  57.8865127 120.6868253  95.9129226  60.0013438 115.6656061 101.5581273
  59.3477851 115.3505078 100.9337888  59.9593913 115.0431801 102.2841096
  61.1124643 125.9475356  93.4734565  60.2051705 125.7164610  93.6725714
  61.6095675 125.1512975  93.6608547  64.0192722 134.6572863  96.3931251
  63.3454421 134.9604560  97.0016209  64.4058544 135.4601944  96.0436708
  63.2351179 122.1537995 105.8828921  62.3173740 122.3752942 105.7250609
  63.6511322 122.2284305 105.0240628  64.0186227 123.5529410 101.0131601
  64.7658045 124.0650807 100.7038723  64.2877816 123.2313463 101.8735994
  62.2912877 126.0487951  97.9958555  61.3824096 125.7646984  98.0931025
  62.3207961 126.4687030  97.1361862  67.5232144 129.6594540 101.7649723
  67.0694471 128.8185450 101.8214913  66.8926111 130.2955939 102.1024503
  66.4665064 120.5886527 102.9950390  65.7287820 120.0763913 103.3260633
  66.7191837 120.1486908 102.1833667  65.9665083 131.4971037 102.6999541
  66.2588058 132.0576094 101.9811906  66.4763704 131.7899598 103.4552700
  52.8601047 123.7693465 101.9773757  52.6625447 123.1762826 101.2524824
  52.3047711 123.4645675 102.6949696  60.8397771 123.6616572 104.0968350
  60.8946381 122.7090408 104.0210827  60.0288973 123.8176011 104.5809649
  61.9888965 127.5896695  95.3346634  61.5508394 126.8732554  94.8752271
  62.7299405 127.8172809  94.7731725  58.7790131 122.2793631 101.8558729
  57.9657996 122.5787802 102.2623921  59.2749125 121.8849320 102.5733212
  60.9298709 132.2751388 103.7892994  60.8874887 132.5012235 102.8601526
  61.8461407 132.0414763 103.9378795  64.3764342 122.7435456 110.6873623
  64.7313730 122.9706929 111.5468089  65.0236474 123.0753833 110.0650879
  70.1062079 125.8653892 101.3922952  69.9679978 126.0555488 100.4644141
  69.7498298 126.6273275 101.8491003  58.2704205 119.8511987 107.4719964
  58.9103585 119.7100746 106.7742928  57.4381736 119.5646500 107.0958566
  70.1331459 127.9330419 106.4034224  70.5667966 127.8405708 107.2517278
  70.8463040 127.9087919 105.7654240  59.0464509 129.1514417 103.5854957
  59.8405108 128.6564737 103.3837532  58.3356202 128.6232280 103.2222662
  63.8659354 131.5332513 107.9367324  63.9196376 132.1023449 108.7045040
  62.9974135 131.7034398 107.5721361  55.3547273 123.2957499  99.6614709
  54.4244861 123.2341954  99.8784672  55.4504745 122.7733452  98.8651351
  55.2732822 119.8212312 102.2492951  55.5339639 120.7357645 102.1402112
  56.0949994 119.3536754 102.3989564  56.7457747 121.2350069 109.4191776
  57.4180801 121.0267431 108.7704425  55.9187534 121.0372155 108.9797008
  70.9947008 127.9754119 108.9367109  71.1882899 128.8799930 109.1826384
  70.8947627 127.5161538 109.7705694  62.6483319 117.8612010 111.4357436
  62.0011234 118.5601960 111.3421913  63.4184335 118.2948154 111.8033685
  66.0562117 128.1260862 114.5107990  65.9047624 127.8971414 113.5938073
  66.0466797 129.0831464 114.5239335  62.8247454 125.6992775 109.4954256
  63.7539514 125.8503934 109.3223224  62.4038484 125.7876796 108.6402903
  61.6235785 129.7243439 107.2652794  61.4846871 129.3562224 108.1378732
  60.8350382 130.2391079 107.0936752  62.2183937 134.8252536  98.6078330
  62.3935693 134.3540579  99.4223953  61.5316725 135.4518302  98.8359591
  63.1741000 129.1025042 104.6541632  62.8390833 129.0625812 105.5499282
  62.6744946 128.4369758 104.1812042  57.1485244 124.5092672 110.1794213
  57.0105042 123.7772911 110.7805752  58.0590168 124.4201572 109.8978401
  66.1100192 126.4481076  94.9278691  65.4929363 125.7227904  94.8311744
  65.6416681 127.2090437  94.5845766  59.7767545 124.2212631 109.6677892
  60.4867164 123.5805824 109.6264511  59.7336853 124.4725526 110.5904073
  67.7654324 131.1579985 112.5884472  67.7066870 130.4739205 111.9215055
  68.1673842 131.8998975 112.1365098  58.4896479 121.2077849 111.4873532
  57.9533836 120.7568588 112.1395128  57.9013188 121.3423758 110.7443996
  56.7845023 137.9741898 105.3818191  57.0241621 138.6060423 106.0597209
  55.9414219 137.6229939 105.6683550  57.8998738 120.6666501  94.0499996
  57.0228204 120.5455301  93.6862242  58.3756491 119.8752579  93.7978884
  67.7671731 129.1219569 110.8198451  66.8798510 128.7845490 110.9424850
  68.3370282 128.3902600 111.0567217  49.4200878 125.4543660 104.1441503
  50.1071918 125.1405390 103.5562518  49.2649007 126.3585025 103.8708754
  54.2235600 120.3433857 108.5726526  54.1393789 119.7359526 107.8376936
  53.4018307 120.8342875 108.5736023  61.2972884 133.7821021 107.7859695
  61.2243056 134.5875992 108.2978999  60.8550278 133.9812987 106.9607716
  61.0862664 133.0192791 101.2962516  60.3030186 133.5614471 101.3900741
  61.7855409 133.5366771 101.6956757  64.3959314 118.8287420 103.9396721
  64.8928014 118.0757383 103.6197792  63.6246296 118.8651737 103.3739931
  72.2489072 124.5327786 105.5815013  72.2378948 125.4152501 105.2108946
  71.3806451 124.1799337 105.3869550  63.7571568 133.6807855 109.9417853
  64.4699540 134.3155320 109.8693755  63.2661597 133.7771721 109.1257855
  65.4789095 127.5859108 101.5135145  64.5445374 127.7060570 101.3439849
  65.6565763 126.6831574 101.2495155  60.9794283 120.9704803 103.6668406
  60.6092070 120.4175844 104.3549312  61.4753375 120.3662937 103.1143406
  68.8661646 123.4276427 102.0485179  69.3322098 124.2604419 101.9745482
  69.3169147 122.9621408 102.7530437  58.8083482 131.4302298 110.7623424
  59.5092941 132.0638781 110.9152818  58.3378597 131.7717030 110.0019063
  66.9337877 129.7720248  99.0471331  67.2097721 129.6576843  99.9565205
  66.0642376 129.3737733  99.0083504  66.8378309 115.7957014 106.0876080
  65.9241389 116.0261241 106.2558287  67.2671410 115.8795458 106.9390113
  66.6084767 123.9846906 108.5875974  65.9556218 124.2322813 107.9328427
  66.9865147 123.1711044 108.2538452  63.5691941 134.0206599 102.6904145
  63.7514336 133.2028255 103.1531897  64.3924927 134.2374291 102.2529035
  63.9034107 132.9474784  99.9519193  64.4321873 132.4367239  99.3389355
  64.1662326 132.6317314 100.8164726  62.6572340 124.7266717 115.0742011
  61.9812978 124.6260846 115.7444387  63.4799974 124.5705931 115.5378009
  54.4051200 130.9638653 107.6954527  54.9904636 130.2182341 107.8282431
  54.2076038 131.2742610 108.5791191  57.2589855 133.9989901 102.7116969
  56.5900230 134.4836028 102.2281009  57.1202724 134.2459121 103.6260348
  48.9968854 123.5344254 106.4158970  49.0352954 123.0007844 107.2096088
  48.4909147 123.0079459 105.7969947  61.3995123 136.0333644 109.3099627
  61.9513431 136.1965266 110.0748713  61.7401317 136.6238082 108.6379652
  56.3759617 118.3808794 109.9121512  56.4400943 119.2423625 109.4998910
  56.3126737 117.7682796 109.1793871  55.8511889 120.4531927 113.5594546
  56.4783928 120.0709004 114.1732071  54.9939808 120.2346129 113.9250239
  66.2505998 130.8594902 115.1648282  66.7945902 131.4724860 114.6703237
  65.6692843 131.4174480 115.6815295  52.6277432 122.2608356  99.4912901
  52.9230873 121.3519034  99.4379955  51.7265468 122.2396095  99.1693904
  64.5363511 133.9815620 106.2963310  64.4114650 133.1805360 105.7874255
  65.1942602 134.4761813 105.8077280  56.1571679 120.3364352 105.4740450
  55.4358265 120.9500320 105.3347923  56.9464935 120.8722117 105.3957096
  66.5998419 131.7824640 107.9242860  65.6528755 131.6629991 107.8521186
  66.9481192 130.8947138 108.0069121  58.9597992 117.6718779 111.7481102
  59.4832394 117.9181075 112.5107411  58.7410326 118.5038814 111.3284239
  54.3565273 119.9422453  99.6152226  54.0277980 119.0619832  99.4327332
  54.7104644 119.8870122 100.5028616  63.6044852 131.5777356 104.1247212
  63.4569815 130.6494064 104.3054782  64.4298346 131.5997447 103.6404287
  57.4707097 120.2295423  99.9827704  57.8103169 120.7581345  99.2606312
  57.9179217 120.5675829 100.7586271  67.2078974 132.4005915 105.2112085
  68.1325522 132.1948776 105.0736536  67.0394278 132.1522316 106.1201426
  60.1650537 118.6132474 109.4330772  59.8247358 117.8140287 109.8351452
  59.4589544 118.9134185 108.8607605  60.8167009 115.6981786 107.8858095
  61.6393079 115.2242265 107.7636985  61.0605073 116.4772270 108.3856781
  59.4575244 118.7270045  98.1820997  60.1783606 119.1051298  97.6784714
  58.8340548 119.4458922  98.2855975  63.6006367 119.4315194  99.1179329
  63.8169981 120.3139832  98.8168157  63.1200434 119.0401407  98.3884971
  58.3405588 122.3900907 105.6950074  58.1950169 122.7041210 106.5874355
  57.8630792 123.0085807 105.1420972  60.2001971 119.3803455 105.7430963
  60.1863540 118.4844548 105.4063261  60.9174399 119.3874119 106.3769249
  62.0528102 119.8140795 107.7884091  61.7945879 120.7357866 107.7868421
  61.5213142 119.4171230 108.4784555  66.9974290 132.9191582 100.5674176
  67.1711168 132.3538005  99.8148029  67.4903182 133.7192477 100.3853666
  52.8151250 124.9306251 108.6337735  52.2704718 125.7066059 108.7658009
  53.6930600 125.2777056 108.4756856  59.6038867 118.2617835 101.0118533
  59.7254778 117.3334482 101.2109421  59.3140909 118.2756521 100.0996849
  62.4730057 115.9472746 104.1485253  62.4951754 116.0112079 103.1937233
  62.8898116 115.1077254 104.3425759  72.8513682 125.6828005 102.1864476
  73.2944828 124.9335331 101.7883599  71.9740192 125.6738142 101.8038208
  67.9849463 132.2358347  97.6671074  68.6800368 132.8565039  97.8858389
  68.3272613 131.3853698  97.9423452  53.6017272 124.0576148 111.5267892
  52.8599008 124.2058783 112.1132522  53.2810016 124.3184413 110.6634641
  69.8840886 129.6858052  99.1958405  70.4092210 130.0245325  98.4707725
  69.7963239 128.7505068  99.0121540  61.5460935 133.5992126 111.3248282
  61.8548061 133.3541273 112.1970981  62.3436417 133.8038764 110.8367152
  61.5681547 135.7530036 103.5553658  61.1286537 135.2606414 104.2486515
  62.3189664 135.2103003 103.3145734  54.0473886 131.9441576 103.5578286
  54.8731906 131.6445348 103.1776930  53.6967938 131.1749199 104.0068075
  59.0155419 131.2968045 105.6275960  58.3935428 130.6338750 105.3278188
  59.6860286 131.3229177 104.9449608  52.2482491 129.8627903 104.5167220
  51.4114399 129.4350077 104.3351221  52.2206136 130.0560346 105.4538011
  59.0879946 119.7749833 115.2208466  59.1368102 120.6511956 114.8386236
  59.6302461 119.2327226 114.6480109  69.5734792 130.3190956 114.5009603
  68.7830336 130.3015095 113.9614103  69.3368147 130.8579250 115.2558640
  69.6932667 127.1683422 111.8142332  69.7430672 127.0033430 112.7557854
  69.5846590 126.3010681 111.4240212  58.5768926 129.8471968  99.1034421
  58.7257046 130.5307432  98.4501093  59.3835369 129.8277058  99.6183876
  66.9836430 123.1514350 113.1301638  67.8846292 123.0120815 112.8385636
  67.0584404 123.3168805 114.0699816  61.3179235 120.5281205 111.9754825
  60.4482544 120.8214771 111.7037413  61.5538715 121.1121650 112.6962088
  71.1950864 129.5880364 112.0584353  70.9035672 129.9510344 112.8947814
  70.5822995 128.8747372 111.8797685  72.3946546 127.1533244 104.5786923
  73.2293438 127.5923048 104.7424484  72.5305675 126.6771897 103.7595169
  69.4438052 124.7112978 110.5264411  69.9192174 124.9040625 109.7183263
  68.5203618 124.7672164 110.2807795  56.3321559 125.8737146 100.1095489
  56.0867601 124.9699476 100.3075700  56.5017473 125.8754296  99.1674967
  64.0218269 116.7460822 109.4920245  64.5400213 117.4821849 109.1666734
  63.6673401 117.0524815 110.3267004  55.6017206 121.6065503  97.6081651
  54.9086451 121.6809858  96.9521687  55.3568958 120.8425847  98.1303168
  64.2730863 113.1661105 105.0121142  64.5532617 112.4984294 105.6381568
  65.0581470 113.3590200 104.4995806  62.0764331 132.3420098  96.5746168
  61.5038298 132.9610286  96.1216640  62.6497125 132.8919460  97.1086090
  68.1439721 121.5878739 108.7592717  69.0957144 121.6876836 108.7804941
  67.9743172 120.7957007 109.2690801  66.1654101 118.6734322 108.9452118
  65.5704033 118.9539335 108.2498606  65.8803797 119.1628223 109.7168859
  65.2961591 132.6257249  97.7054750  66.2292264 132.5602810  97.9087626
  65.2084804 133.4613515  97.2469283  67.9249608 131.9423119  94.6658698
  67.8463239 131.6082983  95.5594456  68.7459275 132.4344887  94.6650170
  70.6227799 124.8084858 107.8735016  70.5904119 123.8700859 108.0594700
  71.2328423 124.8868895 107.1400841  62.4611130 123.6780911  93.9162220
  63.4070235 123.5487119  93.9850639  62.0825375 122.9395573  94.3931649
  70.7722287 121.5995902 107.9193300  70.2561336 120.8154358 107.7323228
  71.6562236 121.2714618 108.0839819  62.3449822 127.7298657 115.3762877
  63.2652832 127.9077256 115.5702924  62.3099405 126.7854703 115.2242577
  60.6454047 121.6030888  93.8517106  59.7385502 121.3064000  93.9279819
  60.9230028 121.3060706  92.9851392  51.5631987 122.9237251 104.3016152
  51.2434772 122.0702559 104.0090526  51.0165416 123.1385829 105.0574119
  55.3411895 125.6399692 108.0185659  55.5597905 126.5716800 108.0373692
  55.7537669 125.2807666 108.8040462  62.2616113 116.1467777 100.0061347
  61.4516841 115.8014862 100.3816593  62.9500530 115.8375321 100.5948959
  64.1906661 115.2245824 101.6285644  64.7437700 115.6441278 102.2875667
  64.4276747 114.2981572 101.6708600  60.2139760 121.2132898 117.4088408
  60.1136487 122.1627255 117.3400499  59.9961302 120.8851137 116.5364478
  59.4152832 118.4617823  93.9929085  60.2771996 118.7872721  94.2524902
  59.6003176 117.6749319  93.4802151  51.4320247 126.5440163 106.2709274
  50.7383719 126.1294115 105.7579228  52.1793238 126.5860699 105.6742693
  67.5685468 117.3346349 101.1364308  66.9884137 117.9931153 100.7542360
  67.3021401 116.5123694 100.7251725  66.0189034 116.7351407 103.3385628
  66.5188813 116.8467942 102.5299947  66.6624642 116.4312460 103.9786437
  60.0771030 124.6430037 116.2253469  59.5938112 125.4430397 116.4317358
  60.1631969 124.6537981 115.2720913  53.3456990 126.4758416 104.1475289
  53.3227678 126.5746104 103.1957172  53.6557626 127.3223567 104.4692455
  56.0044368 128.5334571 108.2621903  56.9587621 128.5018514 108.1951835
  55.8056891 128.0725195 109.0772129  56.5943750 127.1035687 110.8292701
  57.4136639 127.5979766 110.8527538  56.8680558 126.1867656 110.8010268
  66.3510346 119.4946440 100.1920656  65.4636201 119.7796090  99.9740851
  66.7664335 119.3340203  99.3447933  69.7024882 119.5192961 103.9074995
  70.4785272 120.0089413 104.1799612  68.9773016 119.9451015 104.3646865
  72.1397441 120.2320580 104.9648936  72.7341932 119.9916316 104.2542244
  72.2124025 119.5127710 105.5922472  54.3594597 134.0754191 105.2792101
  54.2249064 133.3154592 104.7130099  53.9426659 134.7995091 104.8120890
  65.4953560 129.2591114  94.2868676  66.1989410 129.4641117  94.9026332
  64.7716208 129.8267876  94.5517760  66.3251370 125.0100976 100.4070946
  66.2686571 125.4669527  99.5678579  66.8779712 124.2491660 100.2293789
  70.1356176 120.7990707 101.2321066  69.8793110 120.3987343 102.0629274
  69.5109044 121.5134501 101.1071205  74.4468514 123.5386781 103.7392357
  73.8868072 123.6079970 104.5123919  73.8412017 123.3627765 103.0191853
  57.5163722 134.9723508 105.4910544  57.3996107 135.9168940 105.3889234
  56.6956169 134.6697069 105.8796343  67.4040257 129.6973644  96.3367136
  68.2385861 129.2654842  96.1544611  67.2424600 129.5255657  97.2644031
  67.0586149 126.2005757  97.7023476  67.0034953 126.0350028  96.7611920
  66.4332204 126.9081790  97.8585665  51.8478664 121.4373821 111.5284898
  52.4937528 120.9272775 112.0172123  51.6395815 122.1742503 112.1028323
  64.3732056 128.5054669 117.0277038  65.2423216 128.6795321 116.6663673
  63.8938808 129.3249086 116.9052768  60.3682275 115.7013866  97.2808794
  60.3560944 116.6455706  97.4377065  61.2605696 115.5184011  96.9868255
  58.5418237 135.6251770 108.7066472  59.4445483 135.6575380 109.0232967
  58.3155607 134.6952221 108.7212808  60.2971839 134.3782756 105.3676551
  59.3467470 134.3784618 105.2540923  60.6004325 133.6315491 104.8512585
  56.1876155 118.5841438 115.6259912  57.0507617 118.2278243 115.8363237
  55.6141566 118.2455333 116.3135316  76.0324532 140.2143295 106.4322313
  76.6702942 140.0950042 105.7285653  75.9145375 141.1624139 106.4910265
  72.8414238 140.1670723 106.3683838  72.5032750 140.0511787 105.4804373
  73.7104007 139.7661888 106.3484844  68.7001054 142.0206199 102.3580729
  68.1365919 141.9296136 101.5897016  68.5853449 141.2006104 102.8383221
  73.3234021 141.3205575 112.3270043  73.3122662 140.9258373 111.4550547
  73.4854661 140.5871647 112.9203815  66.2465486 143.5157391 105.1964949
  67.0386778 143.1748215 104.7811248  66.4862136 143.6252366 106.1167102
  74.2800613 145.6877167  97.6695193  73.6288593 146.2731247  97.2829207
  75.0744976 146.2183362  97.7290231  68.2056240 142.7766304  98.0682328
  68.9787116 142.2295291  97.9295204  68.5581639 143.6410553  98.2796789
  70.0441282 144.1042686 111.2749227  69.7531148 145.0088317 111.1595893
  70.6798267 144.1459214 111.9893297  70.9697489 141.4819535 107.8650587
  71.5661062 141.2575557 107.1507550  71.0272461 140.7404280 108.4676035
  70.5422518 138.9358970  95.7000778  70.7948038 138.4140491  94.9384241
  69.6047077 138.7725116  95.8027461  75.5865801 137.9394749 103.5075521
  76.3728890 137.5214172 103.1565938  75.8504505 138.8440841 103.6757169
  75.7575878 143.3767599  98.2064178  75.1221711 143.4502225  98.9185082
  75.4273284 143.9661198  97.5283257  80.9874228 137.8769982 104.4108500
  81.7199400 137.3069199 104.6446329  80.2313583 137.4891582 104.8515005
  70.2618806 140.8387076  97.9025153  70.1455065 140.1631979  98.5706237
  70.3721066 140.3519450  97.0857306  72.6050347 140.2997223 101.6071842
  72.2408555 139.7727844 102.3184763  73.4617463 139.9095692 101.4338327
  78.5099648 131.5891556 108.8703108  78.1782973 132.4586967 108.6464323
  77.9145261 131.2727840 109.5497138  72.2455834 135.3287123  96.6033190
  72.4130237 136.1967359  96.9703662  72.0553003 135.4914405  95.6794480
  75.0031168 143.7904102 108.2699021  74.7031891 144.6929141 108.1614828
  74.6582227 143.5236285 109.1220174  68.4543649 140.2417899 104.3035725
  67.5294146 140.1094113 104.5113417  68.7028062 141.0212118 104.8005668
  78.4028311 136.3086642 105.9496458  77.4945189 136.2402050 105.6555219
  78.3515907 136.7858587 106.7778284  72.2245055 137.7844780  97.5879857
  72.1044680 138.2301831  98.4265338  71.5297644 138.1330098  97.0293395
  65.8152460 139.8851172 105.1379514  65.9444841 140.1385651 106.0518926
  65.1349911 140.4778880 104.8184169  69.9851947 150.5548422 101.2369989
  69.9075977 151.5056247 101.3158469  69.3813591 150.2094295 101.8944915
  72.4769177 137.7276288 113.8931355  71.7002511 138.2870208 113.8834220
  73.1159740 138.2133071 114.4146226  80.2689958 134.5103080 107.7274332
  79.6264338 134.8035614 107.0814127  79.7644886 134.3956001 108.5327529
  77.9230121 138.2566254  98.4160191  78.8347978 138.4893640  98.2407889
  77.4139768 138.8403298  97.8535270  70.7315549 140.5361741 113.4549322
  71.4730234 141.0746785 113.1784146  70.0252535 141.1628030 113.6120874
  76.2070889 142.6790881 112.0521484  76.6154245 142.2373292 111.3076116
  75.4848151 142.1043509 112.3055677  72.5601959 137.6163488 109.4255041
  73.4063154 138.0402902 109.5689690  72.5000597 136.9597113 110.1193604
  76.5299704 143.2392072 105.8073773  75.9008566 143.4037786 105.1049841
  76.1425366 143.6533682 106.5784737  80.4088936 144.1746510 103.1618137
  79.7239974 144.5545411 102.6115170  80.4932785 144.7841837 103.8950084
  75.7101404 135.2767857 111.0836215  75.4662336 136.0309917 110.5470490
  75.9861335 135.6553204 111.9183462  77.6639867 141.8206469 109.7613480
  77.8756762 142.4638229 109.0847861  77.6169615 140.9868785 109.2935410
  75.2666096 134.4324290 106.6650052  74.4050575 134.7305543 106.9566790
  75.2928531 134.6494688 105.7331085  72.0827666 142.9766480 103.0723858
  72.5466011 143.2554183 102.2828480  71.8184464 142.0749925 102.8896949
  68.9751747 142.5237962 106.0103621  69.5453104 142.9525230 105.3721106
  69.5659859 142.2420546 106.7087807  71.0196552 139.0989633  99.8813423
  71.7220595 139.5510676 100.3487349  70.6877180 138.4573451 100.5093316
  69.4676913 137.6901389 114.2564632  68.8375574 138.3717670 114.4900029
  69.3613001 137.5784471 113.3117771  64.7621886 137.3573185 105.1830557
  63.9720940 137.6130714 104.7070667  65.2533133 138.1721523 105.2882597
  78.7785695 144.6978424 107.9335837  79.6003139 144.2958612 107.6518519
  78.7748098 144.5946659 108.8851953  66.7136631 137.7217764 102.1414033
  65.9167794 137.8336459 102.6597529  66.4862223 138.0604417 101.2754924
  72.5442299 144.2462468 110.0896548  72.6086731 144.7082875 110.9254720
  71.8353223 143.6159833 110.2178858  63.0459589 137.6103676 107.6145547
  63.2967627 138.4950686 107.8803123  63.5819137 137.4308277 106.8420639
  72.2590316 145.9130575  99.9575528  72.1235991 146.7582111 100.3860376
  72.8000129 146.1149853  99.1941462  68.7457656 131.9922155 116.6189883
  68.3524601 131.4388354 117.2937528  69.5623796 132.3032733 117.0096401
  65.7119714 143.4306013 100.5303453  66.2244234 144.2249263 100.6809018
  66.3642427 142.7332304 100.4637055  67.5214598 146.5471769 102.6126207
  67.6981227 147.4689734 102.4247190  68.3171432 146.2330189 103.0420586
  71.6625617 133.4080034 114.2110140  72.4035330 134.0087187 114.1314603
  71.8943540 132.6657672 113.6528183  66.8066955 138.5936401 112.4888370
  66.6920470 137.6921659 112.7895469  65.9511473 138.8400098 112.1373186
  73.8858793 146.5354142 114.0875870  73.4422647 145.7490520 113.7696775
  74.5476006 146.7233292 113.4219761  68.6445914 148.0649943 108.6136549
  69.1953339 147.9367007 107.8413543  67.8057390 148.3644832 108.2631442
  75.9840031 146.8156942 112.1157272  75.9658506 147.6365823 111.6237541
  76.9059951 146.6911017 112.3407413  72.4413085 144.3301071 112.9580780
  72.9741422 143.5689359 112.7280088  71.9127166 144.0374723 113.7004934
  75.6082780 129.4361137 108.4874422  75.2647049 130.3262779 108.4113532
  75.9761742 129.2462795 107.6244007  63.6768630 141.7594667 101.3063024
  64.5143852 142.1691676 101.0896732  63.8546898 140.8194110 101.2763218
  75.5733063 139.4269748  96.9946857  75.0579686 140.1974353  97.2335244
  75.3010371 138.7534884  97.6179918  73.1580174 134.2719449 102.0532095
  72.3021770 133.8826299 101.8737734  73.5707125 134.3511410 101.1931881
  74.6879320 131.8065792 106.4523655  74.1844116 131.7695927 105.6391460
  74.9809927 132.7158535 106.5120312  70.9322206 131.8904522 105.4589837
  71.7975203 131.6947331 105.0995726  70.9999715 131.6614874 106.3859193
  80.5467337 142.1802103  98.9300030  79.7696779 141.8413262  98.4855192
  81.2258818 142.1854726  98.2554995  75.3619366 137.2996840  98.8206638
  75.0569501 137.6142989  99.6716781  76.3149808 137.3778260  98.8633971
  73.8065798 143.4587064 100.4699592  73.2787159 142.7239823 100.1572829
  73.3053300 144.2361740 100.2239560  78.7858644 141.6536084 105.5866638
  78.1282318 142.3435345 105.6746767  79.5899043 142.0432516 105.9300625
  68.5384525 134.1206730 102.8306204  69.1128277 133.8981911 102.0979396
  69.1255508 134.1895424 103.5834805  77.5964102 140.0080457 103.6370580
  78.1095984 140.6410449 104.1392290  78.2465326 139.4081652 103.2713940
  68.8654112 136.1511191  96.8502089  68.0291425 136.4885877  97.1711364
  68.7258882 136.0160171  95.9129226  70.8407193 130.9947979 101.5581273
  70.1871605 130.6796996 100.9337888  70.7987667 130.3723719 102.2841096
  71.9518398 141.2767274  93.4734565  71.0445460 141.0456527  93.6725714
  72.4489430 140.4804893  93.6608547  74.8586477 149.9864781  96.3931251
  74.1848175 150.2896478  97.0016209  75.2452299 150.7893861  96.0436708
  74.0744933 137.4829912 105.8828921  73.1567495 137.7044859 105.7250609
  74.4905077 137.5576223 105.0240628  74.8579981 138.8821328 101.0131601
  75.6051800 139.3942725 100.7038723  75.1271571 138.5605381 101.8735994
  73.1306631 141.3779869  97.9958555  72.2217850 141.0938901  98.0931025
  73.1601715 141.7978947  97.1361862  78.3625899 144.9886458 101.7649723
  77.9088226 144.1477368 101.8214913  77.7319865 145.6247857 102.1024503
  77.3058818 135.9178444 102.9950390  76.5681575 135.4055830 103.3260633
  77.5585592 135.4778826 102.1833667  76.8058838 146.8262955 102.6999541
  77.0981812 147.3868012 101.9811906  77.3157458 147.1191516 103.4552700
  63.6994802 139.0985383 101.9773757  63.5019201 138.5054743 101.2524824
  63.1441466 138.7937593 102.6949696  71.6791525 138.9908489 104.0968350
  71.7340135 138.0382326 104.0210827  70.8682727 139.1467928 104.5809649
  72.8282719 142.9188612  95.3346634  72.3902149 142.2024471  94.8752271
  73.5693160 143.1464727  94.7731725  69.6183885 137.6085549 101.8558729
  68.8051751 137.9079720 102.2623921  70.1142879 137.2141238 102.5733212
  71.7692463 147.6043306 103.7892994  71.7268642 147.8304152 102.8601526
  72.6855162 147.3706681 103.9378795  75.2158097 138.0727373 110.6873623
  75.5707485 138.2998847 111.5468089  75.8630228 138.4045750 110.0650879
  80.9455834 141.1945809 101.3922952  80.8073732 141.3847405 100.4644141
  80.5892053 141.9565192 101.8491003  69.1097960 135.1803905 107.4719964
  69.7497339 135.0392664 106.7742928  68.2775490 134.8938418 107.0958566
  80.9725213 143.2622336 106.4034224  81.4061720 143.1697625 107.2517278
  81.6856794 143.2379837 105.7654240  69.8858264 144.4806335 103.5854957
  70.6798862 143.9856655 103.3837532  69.1749956 143.9524198 103.2222662
  74.7053108 146.8624430 107.9367324  74.7590131 147.4315367 108.7045040
  73.8367890 147.0326316 107.5721361  66.1941027 138.6249417  99.6614709
  65.2638615 138.5633872  99.8784672  66.2898499 138.1025369  98.8651351
  66.1126576 135.1504230 102.2492951  66.3733394 136.0649563 102.1402112
  66.9343749 134.6828672 102.3989564  67.5851502 136.5641987 109.4191776
  68.2574555 136.3559349 108.7704425  66.7581288 136.3664073 108.9797008
  81.8340763 143.3046037 108.9367109  82.0276653 144.2091848 109.1826384
  81.7341381 142.8453456 109.7705694  73.4877074 133.1903928 111.4357436
  72.8404989 133.8893877 111.3421913  74.2578089 133.6240072 111.8033685
  76.8955872 143.4552780 114.5107990  76.7441378 143.2263331 113.5938073
  76.8860551 144.4123381 114.5239335  73.6641208 141.0284693 109.4954256
  74.5933268 141.1795852 109.3223224  73.2432238 141.1168713 108.6402903
  72.4629540 145.0535357 107.2652794  72.3240626 144.6854141 108.1378732
  71.6744136 145.5682996 107.0936752  73.0577692 150.1544453  98.6078330
  73.2329447 149.6832497  99.4223953  72.3710480 150.7810220  98.8359591
  74.0134755 144.4316960 104.6541632  73.6784588 144.3917730 105.5499282
  73.5138701 143.7661676 104.1812042  67.9878999 139.8384590 110.1794213
  67.8498797 139.1064828 110.7805752  68.8983922 139.7493490 109.8978401
  76.9493947 141.7772994  94.9278691  76.3323117 141.0519822  94.8311744
  76.4810435 142.5382354  94.5845766  70.6161300 139.5504549 109.6677892
  71.3260918 138.9097741 109.6264511  70.5730608 139.8017444 110.5904073
  78.6048078 146.4871902 112.5884472  78.5460624 145.8031122 111.9215055
  79.0067597 147.2290892 112.1365098  69.3290234 136.5369767 111.4873532
  68.7927591 136.0860505 112.1395128  68.7406942 136.6715676 110.7443996
  67.6238777 153.3033816 105.3818191  67.8635375 153.9352340 106.0597209
  66.7807974 152.9521856 105.6683550  68.7392493 135.9958418  94.0499996
  67.8621959 135.8747219  93.6862242  69.2150246 135.2044497  93.7978884
  78.6065486 144.4511486 110.8198451  77.7192264 144.1137408 110.9424850
  79.1764037 143.7194517 111.0567217  60.2594633 140.7835578 104.1441503
  60.9465673 140.4697308 103.5562518  60.1042761 141.6876943 103.8708754
  65.0629355 135.6725775 108.5726526  64.9787544 135.0651444 107.8376936
  64.2412061 136.1634793 108.5736023  72.1366639 149.1112939 107.7859695
  72.0636810 149.9167910 108.2978999  71.6944032 149.3104904 106.9607716
  71.9256419 148.3484709 101.2962516  71.1423940 148.8906389 101.3900741
  72.6249164 148.8658688 101.6956757  75.2353069 134.1579338 103.9396721
  75.7321768 133.4049300 103.6197792  74.4640050 134.1943655 103.3739931
  83.0882826 139.8619704 105.5815013  83.0772702 140.7444419 105.2108946
  82.2200206 139.5091254 105.3869550  74.5965322 149.0099773 109.9417853
  75.3093295 149.6447237 109.8693755  74.1055351 149.1063639 109.1257855
  76.3182849 142.9151025 101.5135145  75.3839128 143.0352488 101.3439849
  76.4959518 142.0123492 101.2495155  71.8188037 136.2996721 103.6668406
  71.4485825 135.7467761 104.3549312  72.3147130 135.6954855 103.1143406
  79.7055401 138.7568345 102.0485179  80.1715853 139.5896336 101.9745482
  80.1562901 138.2913326 102.7530437  69.6477236 146.7594216 110.7623424
  70.3486695 147.3930699 110.9152818  69.1772351 147.1008948 110.0019063
  77.7731632 145.1012166  99.0471331  78.0491476 144.9868760  99.9565205
  76.9036131 144.7029651  99.0083504  77.4478522 139.3138824 108.5875974
  76.7949972 139.5614731 107.9328427  77.8258902 138.5002962 108.2538452
  74.4085696 149.3498517 102.6904145  74.5908090 148.5320173 103.1531897
  75.2318682 149.5666209 102.2529035  74.7427861 148.2766702  99.9519193
  75.2715628 147.7659156  99.3389355  75.0056081 147.9609232 100.8164726
  73.4966095 140.0558635 115.0742011  72.8206732 139.9552764 115.7444387
  74.3193729 139.8997848 115.5378009  65.2444954 146.2930571 107.6954527
  65.8298391 145.5474259 107.8282431  65.0469793 146.6034528 108.5791191
  68.0983609 149.3281819 102.7116969  67.4293985 149.8127946 102.2281009
  67.9596479 149.5751039 103.6260348  59.8362609 138.8636171 106.4158970
  59.8746708 138.3299762 107.2096088  59.3302902 138.3371377 105.7969947
  72.2388878 151.3625562 109.3099627  72.7907186 151.5257184 110.0748713
  72.5795071 151.9530000 108.6379652  67.2153371 133.7100712 109.9121512
  67.2794698 134.5715543 109.4998910  67.1520491 133.0974714 109.1793871
  66.6905644 135.7823844 113.5594546  67.3177682 135.4000922 114.1732071
  65.8333562 135.5638046 113.9250239  77.0899752 146.1886820 115.1648282
  77.6339656 146.8016778 114.6703237  76.5086597 146.7466398 115.6815295
  63.4671186 137.5900274  99.4912901  63.7624627 136.6810952  99.4379955
  62.5659222 137.5688013  99.1693904  75.3757265 149.3107538 106.2963310
  75.2508405 148.5097277 105.7874255  76.0336356 149.8053731 105.8077280
  66.9965433 135.6656270 105.4740450  66.2752019 136.2792238 105.3347923
  67.7858689 136.2014035 105.3957096  77.4392174 147.1116558 107.9242860
  76.4922509 146.9921909 107.8521186  77.7874947 146.2239056 108.0069121
  69.7991747 133.0010697 111.7481102  70.3226149 133.2472993 112.5107411
  69.5804080 133.8330731 111.3284239  65.1959028 135.2714371  99.6152226
  64.8671734 134.3911750  99.4327332  65.5498399 135.2162040 100.5028616
  74.4438607 146.9069274 104.1247212  74.2963569 145.9785981 104.3054782
  75.2692100 146.9289365 103.6404287  68.3100851 135.5587341  99.9827704
  68.6496924 136.0873262  99.2606312  68.7572972 135.8967747 100.7586271
  78.0472729 147.7297833 105.2112085  78.9719276 147.5240694 105.0736536
  77.8788032 147.4814234 106.1201426  71.0044292 133.9424392 109.4330772
  70.6641112 133.1432205 109.8351452  70.2983298 134.2426103 108.8607605
  71.6560764 131.0273704 107.8858095  72.4786833 130.5534182 107.7636985
  71.8998827 131.8064188 108.3856781  70.2968998 134.0561963  98.1820997
  71.0177361 134.4343215  97.6784714  69.6734302 134.7750839  98.2855975
  74.4400121 134.7607112  99.1179329  74.6563736 135.6431749  98.8168157
  73.9594188 134.3693325  98.3884971  69.1799343 137.7192825 105.6950074
  69.0343923 138.0333128 106.5874355  68.7024546 138.3377725 105.1420972
  71.0395725 134.7095373 105.7430963  71.0257294 133.8136466 105.4063261
  71.7568154 134.7166036 106.3769249  72.8921856 135.1432713 107.7884091
  72.6339634 136.0649784 107.7868421  72.3606896 134.7463147 108.4784555
  77.8368045 148.2483500 100.5674176  78.0104922 147.6829923  99.8148029
  78.3296936 149.0484395 100.3853666  63.6545005 140.2598169 108.6337735
  63.1098473 141.0357977 108.7658009  64.5324355 140.6068974 108.4756856
  70.4432621 133.5909753 101.0118533  70.5648533 132.6626399 101.2109421
  70.1534664 133.6048439 100.0996849  73.3123812 131.2764663 104.1485253
  73.3345509 131.3403997 103.1937233  73.7291871 130.4369172 104.3425759
  78.8243217 147.5650264  97.6671074  79.5194122 148.1856957  97.8858389
  79.1666368 146.7145616  97.9423452  64.4411027 139.3868065 111.5267892
  63.6992763 139.5350701 112.1132522  64.1203771 139.6476331 110.6634641
  80.7234640 145.0149970  99.1958405  81.2485965 145.3537243  98.4707725
  80.6356993 144.0796985  99.0121540  72.3854689 148.9284044 111.3248282
  72.6941816 148.6833190 112.1970981  73.1830171 149.1330682 110.8367152
  72.4075301 151.0821953 103.5553658  71.9680292 150.5898332 104.2486515
  73.1583418 150.5394921 103.3145734  64.8867640 147.2733494 103.5578286
  65.7125660 146.9737266 103.1776930  64.5361692 146.5041117 104.0068075
  69.8549173 146.6259962 105.6275960  69.2329183 145.9630667 105.3278188
  70.5254040 146.6521094 104.9449608  63.0876245 145.1919821 104.5167220
  62.2508154 144.7641995 104.3351221  63.0599891 145.3852264 105.4538011
  69.9273701 135.1041750 115.2208466  69.9761856 135.9803873 114.8386236
  70.4696215 134.5619143 114.6480109  80.4128547 145.6482874 114.5009603
  79.6224090 145.6307012 113.9614103  80.1761901 146.1871167 115.2558640
  80.5326422 142.4975340 111.8142332  80.5824427 142.3325347 112.7557854
  80.4240345 141.6302599 111.4240212  69.4162680 145.1763886  99.1034421
  69.5650801 145.8599350  98.4501093  70.2229124 145.1568976  99.6183876
  77.8230184 138.4806268 113.1301638  78.7240047 138.3412733 112.8385636
  77.8978159 138.6460723 114.0699816  72.1572989 135.8573123 111.9754825
  71.2876299 136.1506689 111.7037413  72.3932470 136.4413568 112.6962088
  82.0344618 144.9172282 112.0584353  81.7429427 145.2802262 112.8947814
  81.4216750 144.2039290 111.8797685  83.2340301 142.4825161 104.5786923
  84.0687192 142.9214965 104.7424484  83.3699430 142.0063815 103.7595169
  80.2831807 140.0404896 110.5264411  80.7585928 140.2332542 109.7183263
  79.3597372 140.0964082 110.2807795  67.1715313 141.2029063 100.1095489
  66.9261355 140.2991393 100.3075700  67.3411228 141.2046214  99.1674967
  74.8612023 132.0752740 109.4920245  75.3793967 132.8113767 109.1666734
  74.5067156 132.3816733 110.3267004  66.4410961 136.9357421  97.6081651
  65.7480206 137.0101776  96.9521687  66.1962713 136.1717765  98.1303168
  75.1124617 128.4953022 105.0121142  75.3926371 127.8276211 105.6381568
  75.8975224 128.6882118 104.4995806  72.9158086 147.6712016  96.5746168
  72.3432053 148.2902203  96.1216640  73.4890879 148.2211378  97.1086090
  78.9833476 136.9170656 108.7592717  79.9350899 137.0168754 108.7804941
  78.8136926 136.1248925 109.2690801  77.0047855 134.0026239 108.9452118
  76.4097787 134.2831252 108.2498606  76.7197552 134.4920140 109.7168859
  76.1355346 147.9549166  97.7054750  77.0686019 147.8894728  97.9087626
  76.0478558 148.7905433  97.2469283  78.7643362 147.2715037  94.6658698
  78.6856994 146.9374900  95.5594456  79.5853029 147.7636805  94.6650170
  81.4621553 140.1376776 107.8735016  81.4297874 139.1992777 108.0594700
  82.0722177 140.2160813 107.1400841  73.3004884 139.0072829  93.9162220
  74.2463989 138.8779037  93.9850639  72.9219129 138.2687491  94.3931649
  81.6116042 136.9287819 107.9193300  81.0955091 136.1446276 107.7323228
  82.4955990 136.6006536 108.0839819  85.3613400 139.3400645 107.6115504
  84.6346564 139.2056610 107.0031996  84.9460687 139.6477474 108.4172222
  73.1843577 143.0590575 115.3762877  74.1046586 143.2369174 115.5702924
  73.1493160 142.1146620 115.2242577  71.4847801 136.9322805  93.8517106
  70.5779257 136.6355918  93.9279819  71.7623782 136.6352623  92.9851392
  62.4025742 138.2529169 104.3016152  62.0828526 137.3994477 104.0090526
  61.8559170 138.4677747 105.0574119  66.1805649 140.9691610 108.0185659
  66.3991659 141.9008718 108.0373692  66.5931423 140.6099584 108.8040462
  73.1009867 131.4759695 100.0061347  72.2910596 131.1306780 100.3816593
  73.7894284 131.1667239 100.5948959  75.0300415 130.5537742 101.6285644
  75.5831454 130.9733195 102.2875667  75.2670502 129.6273490 101.6708600
  71.0533515 136.5424815 117.4088408  70.9530242 137.4919172 117.3400499
  70.8355057 136.2143054 116.5364478  70.2546586 133.7909741  93.9929085
  71.1165750 134.1164639  94.2524902  70.4396930 133.0041236  93.4802151
  62.2714002 141.8732080 106.2709274  61.5777473 141.4586033 105.7579228
  63.0186993 141.9152617 105.6742693  78.4079223 132.6638267 101.1364308
  77.8277892 133.3223071 100.7542360  78.1415155 131.8415612 100.7251725
  76.8582789 132.0643325 103.3385628  77.3582567 132.1759859 102.5299947
  77.5018397 131.7604378 103.9786437  70.9164785 139.9721954 116.2253469
  70.4331866 140.7722314 116.4317358  71.0025724 139.9829899 115.2720913
  64.1850744 141.8050334 104.1475289  64.1621432 141.9038021 103.1957172
  64.4951381 142.6515485 104.4692455  66.8438122 143.8626489 108.2621903
  67.7981376 143.8310431 108.1951835  66.6450646 143.4017113 109.0772129
  67.4337504 142.4327605 110.8292701  68.2530393 142.9271684 110.8527538
  67.7074312 141.5159573 110.8010268  77.1904101 134.8238357 100.1920656
  76.3029956 135.1088008  99.9740851  77.6058090 134.6632121  99.3447933
  80.5418637 134.8484878 103.9074995  81.3179027 135.3381331 104.1799612
  79.8166771 135.2742933 104.3646865  82.9791195 135.5612498 104.9648936
  83.5735686 135.3208234 104.2542244  83.0517779 134.8419628 105.5922472
  65.1988351 149.4046109 105.2792101  65.0642819 148.6446509 104.7130099
  64.7820413 150.1287008 104.8120890  76.3347314 144.5883032  94.2868676
  77.0383164 144.7933035  94.9026332  75.6109963 145.1559794  94.5517760
  77.1645124 140.3392893 100.4070946  77.1080326 140.7961445  99.5678579
  77.7173467 139.5783578 100.2293789  80.9749930 136.1282625 101.2321066
  80.7186864 135.7279261 102.0629274  80.3502798 136.8426419 101.1071205
  68.3557477 150.3015426 105.4910544  68.2389861 151.2460858 105.3889234
  67.5349923 149.9988987 105.8796343  78.2434011 145.0265561  96.3367136
  79.0779615 144.5946760  96.1544611  78.0818354 144.8547575  97.2644031
  77.8979904 141.5297675  97.7023476  77.8428707 141.3641946  96.7611920
  77.2725959 142.2373707  97.8585665  62.6872419 136.7665739 111.5284898
  63.3331282 136.2564693 112.0172123  62.4789570 137.5034421 112.1028323
  75.2125811 143.8346586 117.0277038  76.0816970 144.0087239 116.6663673
  74.7332562 144.6541003 116.9052768  71.2076029 131.0305784  97.2808794
  71.1954699 131.9747623  97.4377065  72.0999451 130.8475929  96.9868255
  69.3811991 150.9543687 108.7066472  70.2839238 150.9867298 109.0232967
  69.1549361 150.0244138 108.7212808  71.1365593 149.7074674 105.3676551
  70.1861224 149.7076536 105.2540923  71.4398079 148.9607409 104.8512585
  75.0228149 127.6248560 101.5354731  74.2560544 127.0707047 101.6811413
  75.4338854 127.6970429 102.3968882  67.0269910 133.9133356 115.6259912
  67.8901371 133.5570161 115.8363237  66.4535320 133.5747251 116.3135316
  86.8718287 155.5435212 106.4322313  87.5096697 155.4241960 105.7285653
  86.7539129 156.4916056 106.4910265  83.6807993 155.4962640 106.3683838
  83.3426504 155.3803705 105.4804373  84.5497761 155.0953806 106.3484844
  79.5394809 157.3498117 102.3580729  78.9759674 157.2588054 101.5897016
  79.4247204 156.5298021 102.8383221  84.1627776 156.6497492 112.3270043
  84.1516417 156.2550290 111.4550547  84.3248415 155.9163565 112.9203815
  77.0859240 158.8449308 105.1964949  77.8780532 158.5040133 104.7811248
  77.3255891 158.9544284 106.1167102  85.1194367 161.0169085  97.6695193
  84.4682347 161.6023165  97.2829207  85.9138730 161.5475279  97.7290231
  79.0449994 158.1058222  98.0682328  79.8180870 157.5587209  97.9295204
  79.3975393 158.9702471  98.2796789  80.8835037 159.4334604 111.2749227
  80.5924903 160.3380235 111.1595893  81.5192021 159.4751132 111.9893297
  81.8091244 156.8111453 107.8650587  82.4054816 156.5867475 107.1507550
  81.8666215 156.0696198 108.4676035  81.3816272 154.2650888  95.7000778
  81.6341793 153.7432409  94.9384241  80.4440831 154.1017033  95.8027461
  86.4259555 153.2686666 103.5075521  87.2122644 152.8506089 103.1565938
  86.6898259 154.1732758 103.6757169  86.5969632 158.7059517  98.2064178
  85.9615465 158.7794143  98.9185082  86.2667039 159.2953115  97.5283257
  91.8267982 153.2061899 104.4108500  92.5593154 152.6361116 104.6446329
  91.0707338 152.8183500 104.8515005  81.1012561 156.1678994  97.9025153
  80.9848819 155.4923897  98.5706237  81.2114821 155.6811368  97.0857306
  83.4444102 155.6289141 101.6071842  83.0802309 155.1019762 102.3184763
  84.3011218 155.2387610 101.4338327  89.3493403 146.9183474 108.8703108
  89.0176727 147.7878884 108.6464323  88.7539016 146.6019758 109.5497138
  83.0849589 150.6579041  96.6033190  83.2523991 151.5259277  96.9703662
  82.8946758 150.8206322  95.6794480  85.8424922 159.1196019 108.2699021
  85.5425645 160.0221058 108.1614828  85.4975982 158.8528203 109.1220174
  79.2937404 155.5709816 104.3035725  78.3687900 155.4386030 104.5113417
  79.5421817 156.3504036 104.8005668  89.2422066 151.6378560 105.9496458
  88.3338943 151.5693968 105.6555219  89.1909662 152.1150505 106.7778284
  83.0638810 153.1136698  97.5879857  82.9438435 153.5593749  98.4265338
  82.3691398 153.4622016  97.0293395  76.6546215 155.2143090 105.1379514
  76.7838596 155.4677569 106.0518926  75.9743666 155.8070798 104.8184169
  83.3162932 153.0568205 113.8931355  82.5396266 153.6162125 113.8834220
  83.9553495 153.5424988 114.4146226  91.1083712 149.8394998 107.7274332
  90.4658092 150.1327531 107.0814127  90.6038641 149.7247918 108.5327529
  88.7623876 153.5858171  98.4160191  89.6741732 153.8185558  98.2407889
  88.2533523 154.1695215  97.8535270  81.5709304 155.8653659 113.4549322
  82.3123988 156.4038703 113.1784146  80.8646289 156.4919947 113.6120874
  87.0464644 158.0082799 112.0521484  87.4548000 157.5665210 111.3076116
  86.3241905 157.4335427 112.3055677  83.3995714 152.9455406 109.4255041
  84.2456909 153.3694819 109.5689690  83.3394351 152.2889030 110.1193604
  87.3693458 158.5683990 105.8073773  86.7402321 158.7329704 105.1049841
  86.9819120 158.9825599 106.5784737  91.2482690 159.5038428 103.1618137
  90.5633728 159.8837329 102.6115170  91.3326539 160.1133754 103.8950084
  86.5495159 150.6059774 111.0836215  86.3056091 151.3601835 110.5470490
  86.8255089 150.9845122 111.9183462  88.5033622 157.1498387 109.7613480
  88.7150517 157.7930146 109.0847861  88.4563370 156.3160703 109.2935410
  82.9221420 158.3058398 103.0723858  83.3859766 158.5846101 102.2828480
  82.6578218 157.4041842 102.8896949  79.8145501 157.8529879 106.0103621
  80.3846858 158.2817148 105.3721106  80.4053613 157.5712464 106.7087807
  81.8590306 154.4281550  99.8813423  82.5614349 154.8802594 100.3487349
  81.5270935 153.7865369 100.5093316  80.3070668 153.0193307 114.2564632
  79.6769328 153.7009588 114.4900029  80.2006756 152.9076388 113.3117771
  75.6015640 152.6865103 105.1830557  74.8114694 152.9422631 104.7070667
  76.0926887 153.5013441 105.2882597  89.6179450 160.0270342 107.9335837
  90.4396893 159.6250529 107.6518519  89.6141853 159.9238576 108.8851953
  77.5530385 153.0509682 102.1414033  76.7561549 153.1628376 102.6597529
  77.3255978 153.3896334 101.2754924  83.3836053 159.5754385 110.0896548
  83.4480486 160.0374793 110.9254720  82.6746977 158.9451750 110.2178858
  73.8853343 152.9395593 107.6145547  74.1361382 153.8242603 107.8803123
  74.4212891 152.7600195 106.8420639  97.7085443 156.3709090 104.2820809
  96.9549151 155.8016489 104.1264813  97.8432984 156.3371755 105.2291444
  83.0984071 161.2422493  99.9575528  82.9629746 162.0874029 100.3860376
  83.6393883 161.4441770  99.1941462  79.5851410 147.3214073 116.6189883
  79.1918356 146.7680271 117.2937528  80.4017551 147.6324651 117.0096401
  76.5513468 158.7597931 100.5303453  77.0637989 159.5541181 100.6809018
  77.2036181 158.0624221 100.4637055  82.5019371 148.7371952 114.2110140
  83.2429085 149.3379105 114.1314603  82.7337294 147.9949590 113.6528183
  77.6460709 153.9228319 112.4888370  77.5314225 153.0213576 112.7895469
  76.7905227 154.1692016 112.1373186  84.7252547 161.8646059 114.0875870
  84.2816401 161.0782438 113.7696775  85.3869761 162.0525210 113.4219761
  86.8233785 162.1448859 112.1157272  86.8052261 162.9657740 111.6237541
  87.7453705 162.0202934 112.3407413  83.2806839 159.6592989 112.9580780
  83.8135176 158.8981277 112.7280088  82.7520920 159.3666641 113.7004934
  86.4476534 144.7653055 108.4874422  86.1040804 145.6554696 108.4113532
  86.8155497 144.5754712 107.6244007  74.5162385 157.0886585 101.3063024
  75.3537607 157.4983594 101.0896732  74.6940653 156.1486027 101.2763218
  86.4126817 154.7561666  96.9946857  85.8973440 155.5266270  97.2335244
  86.1404126 154.0826802  97.6179918  91.3861091 157.5094020  98.9300030
  90.6090534 157.1705180  98.4855192  92.0652572 157.5146644  98.2554995
  86.2013120 152.6288758  98.8206638  85.8963256 152.9434907  99.6716781
  87.1543562 152.7070178  98.8633971  84.6459552 158.7878981 100.4699592
  84.1180914 158.0531741 100.1572829  84.1447055 159.5653658 100.2239560
  89.6252398 156.9828002 105.5866638  88.9676073 157.6727263 105.6746767
  90.4292797 157.3724434 105.9300625  79.3778280 149.4498647 102.8306204
  79.9522032 149.2273829 102.0979396  79.9649262 149.5187342 103.5834805
  88.4357857 155.3372374 103.6370580  88.9489739 155.9702366 104.1392290
  89.0859081 154.7373570 103.2713940  79.7047867 151.4803109  96.8502089
  78.8685179 151.8177795  97.1711364  79.5652636 151.3452088  95.9129226
  81.6800947 146.3239896 101.5581273  81.0265360 146.0088914 100.9337888
  81.6381422 145.7015637 102.2841096  82.7912152 156.6059191  93.4734565
  81.8839214 156.3748445  93.6725714  83.2883184 155.8096811  93.6608547
  85.6973736 154.2113246 101.0131601  86.4445554 154.7234643 100.7038723
  85.9665325 153.8897298 101.8735994  83.9700386 156.7071786  97.9958555
  83.0611605 156.4230819  98.0931025  83.9995470 157.1270865  97.1361862
  89.2019653 160.3178376 101.7649723  88.7481980 159.4769286 101.8214913
  88.5713620 160.9539774 102.1024503  87.6452592 162.1554873 102.6999541
  87.9375567 162.7159930 101.9811906  88.1551213 162.4483434 103.4552700
  74.5388556 154.4277300 101.9773757  74.3412956 153.8346661 101.2524824
  73.9835220 154.1229511 102.6949696  82.5185280 154.3200407 104.0968350
  82.5733890 153.3674243 104.0210827  81.7076482 154.4759846 104.5809649
  83.6676473 158.2480530  95.3346634  83.2295903 157.5316389  94.8752271
  84.4086914 158.4756645  94.7731725  80.4577640 152.9377467 101.8558729
  79.6445505 153.2371637 102.2623921  80.9536634 152.5433155 102.5733212
  82.6086218 162.9335224 103.7892994  82.5662396 163.1596070 102.8601526
  83.5248916 162.6998598 103.9378795  86.0551851 153.4019291 110.6873623
  86.4101239 153.6290764 111.5468089  86.7023983 153.7337668 110.0650879
  91.7849588 156.5237727 101.3922952  91.6467487 156.7139323 100.4644141
  91.4285807 157.2857110 101.8491003  79.9491714 150.5095822 107.4719964
  80.5891094 150.3684581 106.7742928  79.1169245 150.2230336 107.0958566
  91.8118968 158.5914254 106.4034224  92.2455475 158.4989543 107.2517278
  92.5250549 158.5671755 105.7654240  80.7252018 159.8098253 103.5854957
  81.5192617 159.3148573 103.3837532  80.0143711 159.2816116 103.2222662
  85.5446863 162.1916348 107.9367324  85.5983885 162.7607284 108.7045040
  84.6761644 162.3618233 107.5721361  77.0334782 153.9541334  99.6614709
  76.1032370 153.8925790  99.8784672  77.1292254 153.4317287  98.8651351
  76.9520331 150.4796147 102.2492951  77.2127148 151.3941480 102.1402112
  77.7737503 150.0120590 102.3989564  78.4245256 151.8933904 109.4191776
  79.0968310 151.6851266 108.7704425  77.5975043 151.6955990 108.9797008
  92.6734517 158.6337955 108.9367109  92.8670408 159.5383765 109.1826384
  92.5735136 158.1745374 109.7705694  84.3270828 148.5195845 111.4357436
  83.6798743 149.2185795 111.3421913  85.0971844 148.9531989 111.8033685
  87.7349626 158.7844697 114.5107990  87.5835133 158.5555249 113.5938073
  87.7254306 159.7415299 114.5239335  84.5034963 156.3576610 109.4954256
  85.4327023 156.5087770 109.3223224  84.0825993 156.4460631 108.6402903
  83.3023294 160.3827275 107.2652794  83.1634380 160.0146059 108.1378732
  82.5137891 160.8974914 107.0936752  84.8528509 159.7608877 104.6541632
  84.5178342 159.7209647 105.5499282  84.3532455 159.0953593 104.1812042
  78.8272753 155.1676507 110.1794213  78.6892551 154.4356746 110.7805752
  79.7377677 155.0785407 109.8978401  87.7887701 157.1064912  94.9278691
  87.1716872 156.3811740  94.8311744  87.3204190 157.8674272  94.5845766
  81.4555054 154.8796467 109.6677892  82.1654673 154.2389659 109.6264511
  81.4124362 155.1309362 110.5904073  89.4441833 161.8163820 112.5884472
  89.3854379 161.1323040 111.9215055  89.8461351 162.5582810 112.1365098
  80.1683988 151.8661685 111.4873532  79.6321345 151.4152423 112.1395128
  79.5800697 152.0007593 110.7443996  79.5786247 151.3250336  94.0499996
  78.7015713 151.2039137  93.6862242  80.0544000 150.5336414  93.7978884
  89.4459240 159.7803404 110.8198451  88.5586019 159.4429326 110.9424850
  90.0157791 159.0486435 111.0567217  71.0988387 156.1127496 104.1441503
  71.7859427 155.7989226 103.5562518  70.9436516 157.0168860 103.8708754
  75.9023109 151.0017692 108.5726526  75.8181298 150.3943362 107.8376936
  75.0805816 151.4926711 108.5736023  93.9276581 155.1911621 105.5815013
  93.9166457 156.0736337 105.2108946  93.0593960 154.8383172 105.3869550
  87.1576604 158.2442943 101.5135145  86.2232883 158.3644405 101.3439849
  87.3353272 157.3415410 101.2495155  90.5449155 154.0860262 102.0485179
  91.0109607 154.9188254 101.9745482  90.9956656 153.6205244 102.7530437
  80.4870990 162.0886134 110.7623424  81.1880450 162.7222617 110.9152818
  80.0166105 162.4300865 110.0019063  88.6125386 160.4304084  99.0471331
  88.8885230 160.3160678  99.9565205  87.7429885 160.0321568  99.0083504
  88.2872276 154.6430741 108.5875974  87.6343727 154.8906649 107.9328427
  88.6652656 153.8294879 108.2538452  85.5821616 163.6058620  99.9519193
  86.1109382 163.0951074  99.3389355  85.8449835 163.2901150 100.8164726
  84.3359849 155.3850552 115.0742011  83.6600486 155.2844682 115.7444387
  85.1587483 155.2289766 115.5378009  70.6756363 154.1928089 106.4158970
  70.7140463 153.6591680 107.2096088  70.1696656 153.6663295 105.7969947
  78.0547126 149.0392630 109.9121512  78.1188452 149.9007460 109.4998910
  77.9914246 148.4266631 109.1793871  77.5299398 151.1115762 113.5594546
  78.1571437 150.7292839 114.1732071  76.6727317 150.8929964 113.9250239
  87.9293507 161.5178737 115.1648282  88.4733411 162.1308696 114.6703237
  87.3480352 162.0758316 115.6815295  74.3064941 152.9192191  99.4912901
  74.6018382 152.0102870  99.4379955  73.4052977 152.8979931  99.1693904
  77.8359188 150.9948188 105.4740450  77.1145774 151.6084155 105.3347923
  78.6252444 151.5305953 105.3957096  88.2785928 162.4408475 107.9242860
  87.3316264 162.3213827 107.8521186  88.6268701 161.5530973 108.0069121
  80.6385501 148.3302614 111.7481102  81.1619903 148.5764911 112.5107411
  80.4197835 149.1622649 111.3284239  76.0352782 150.6006289  99.6152226
  75.7065489 149.7203668  99.4327332  76.3892153 150.5453958 100.5028616
  85.2832361 162.2361192 104.1247212  85.1357324 161.3077899 104.3054782
  86.1085855 162.2581282 103.6404287  79.1494606 150.8879259  99.9827704
  79.4890678 151.4165180  99.2606312  79.5966726 151.2259665 100.7586271
  88.8866483 163.0589750 105.2112085  89.8113031 162.8532612 105.0736536
  88.7181787 162.8106151 106.1201426  81.8438046 149.2716309 109.4330772
  81.5034867 148.4724122 109.8351452  81.1377053 149.5718020 108.8607605
  82.4954518 146.3565622 107.8858095  83.3180588 145.8826100 107.7636985
  82.7392582 147.1356106 108.3856781  81.1362753 149.3853880  98.1820997
  81.8571115 149.7635133  97.6784714  80.5128057 150.1042757  98.2855975
  85.2793876 150.0899029  99.1179329  85.4957490 150.9723667  98.8168157
  84.7987943 149.6985243  98.3884971  80.0193097 153.0484742 105.6950074
  79.8737678 153.3625046 106.5874355  79.5418301 153.6669643 105.1420972
  88.6761799 163.5775418 100.5674176  88.8498677 163.0121840  99.8148029
  89.1690691 164.3776313 100.3853666  74.4938759 155.5890087 108.6337735
  73.9492227 156.3649895 108.7658009  75.3718109 155.9360891 108.4756856
  81.2826376 148.9201671 101.0118533  81.4042287 147.9918317 101.2109421
  80.9928418 148.9340357 100.0996849  94.5301191 156.3411841 102.1864476
  94.9732337 155.5919166 101.7883599  93.6527701 156.3321977 101.8038208
  89.6636972 162.8942182  97.6671074  90.3587876 163.5148875  97.8858389
  90.0060122 162.0437533  97.9423452  75.2804781 154.7159983 111.5267892
  74.5386517 154.8642618 112.1132522  74.9597525 154.9768249 110.6634641
  91.5628395 160.3441888  99.1958405  92.0879719 160.6829160  98.4707725
  91.4750748 159.4088903  99.0121540  80.6942928 161.9551880 105.6275960
  80.0722937 161.2922585 105.3278188  81.3647795 161.9813012 104.9449608
  80.7667455 150.4333668 115.2208466  80.8155611 151.3095791 114.8386236
  81.3089970 149.8911061 114.6480109  91.2522301 160.9774791 114.5009603
  90.4617845 160.9598930 113.9614103  91.0155656 161.5163085 115.2558640
  91.3720176 157.8267258 111.8142332  91.4218181 157.6617265 112.7557854
  91.2634099 156.9594517 111.4240212  80.2556435 160.5055803  99.1034421
  80.4044555 161.1891268  98.4501093  81.0622878 160.4860893  99.6183876
  88.6623938 153.8098186 113.1301638  89.5633801 153.6704651 112.8385636
  88.7371913 153.9752641 114.0699816  82.9966744 151.1865040 111.9754825
  82.1270053 151.4798607 111.7037413  83.2326224 151.7705485 112.6962088
  92.8738373 160.2464199 112.0584353  92.5823181 160.6094180 112.8947814
  92.2610504 159.5331208 111.8797685  94.0734055 157.8117079 104.5786923
  94.9080947 158.2506883 104.7424484  94.2093184 157.3355732 103.7595169
  91.1225561 155.3696814 110.5264411  91.5979683 155.5624460 109.7183263
  90.1991127 155.4256000 110.2807795  78.0109068 156.5320981 100.1095489
  77.7655110 155.6283311 100.3075700  78.1804982 156.5338131  99.1674967
  85.7005778 147.4044657 109.4920245  86.2187722 148.1405684 109.1666734
  85.3460910 147.7108651 110.3267004  77.2804715 152.2649339  97.6081651
  76.5873960 152.3393694  96.9521687  77.0356467 151.5009682  98.1303168
  83.7551840 163.0003934  96.5746168  83.1825807 163.6194121  96.1216640
  84.3284634 163.5503296  97.1086090  89.8227230 152.2462574 108.7592717
  90.7744653 152.3460672 108.7804941  89.6530681 151.4540842 109.2690801
  87.8441610 149.3318157 108.9452118  87.2491542 149.6123170 108.2498606
  87.5591306 149.8212058 109.7168859  86.9749100 163.2841084  97.7054750
  87.9079773 163.2186646  97.9087626  86.8872313 164.1197351  97.2469283
  89.6037117 162.6006954  94.6658698  89.5250748 162.2666818  95.5594456
  90.4246784 163.0928722  94.6650170  92.3015308 155.4668694 107.8735016
  92.2691628 154.5284694 108.0594700  92.9115932 155.5452730 107.1400841
  84.1398639 154.3364747  93.9162220  85.0857744 154.2070955  93.9850639
  83.7612884 153.5979408  94.3931649  92.4509796 152.2579737 107.9193300
  91.9348845 151.4738194 107.7323228  93.3349745 151.9298454 108.0839819
  98.1191858 156.5284700 107.0141053  98.8495246 156.2669989 107.5748757
  97.5098803 155.7913422 107.0543121  96.2007155 154.6692563 107.6115504
  95.4740319 154.5348528 107.0031996  95.7854442 154.9769392 108.4172222
  84.0237331 158.3882493 115.3762877  84.9440341 158.5661092 115.5702924
  83.9886914 157.4438538 115.2242577  82.3241556 152.2614723  93.8517106
  81.4173011 151.9647836  93.9279819  82.6017537 151.9644541  92.9851392
  73.2419496 153.5821086 104.3016152  72.9222281 152.7286395 104.0090526
  72.6952925 153.7969665 105.0574119  77.0199404 156.2983527 108.0185659
  77.2385414 157.2300635 108.0373692  77.4325178 155.9391502 108.8040462
  83.9403622 146.8051613 100.0061347  83.1304350 146.4598698 100.3816593
  84.6288039 146.4959156 100.5948959  81.8927269 151.8716733 117.4088408
  81.7923996 152.8211090 117.3400499  81.6748811 151.5434972 116.5364478
  81.0940341 149.1201658  93.9929085  81.9559505 149.4456557  94.2524902
  81.2790685 148.3333154  93.4802151  73.1107756 157.2023998 106.2709274
  72.4171228 156.7877951 105.7579228  73.8580747 157.2444534 105.6742693
  81.7558539 155.3013872 116.2253469  81.2725621 156.1014232 116.4317358
  81.8419478 155.3121817 115.2720913  75.0244499 157.1342252 104.1475289
  75.0015187 157.2329939 103.1957172  75.3345135 157.9807402 104.4692455
  77.6831877 159.1918407 108.2621903  78.6375130 159.1602349 108.1951835
  77.4844400 158.7309030 109.0772129  78.2731259 157.7619523 110.8292701
  79.0924148 158.2563601 110.8527538  78.5468067 156.8451491 110.8010268
  88.0297855 150.1530275 100.1920656  87.1423710 150.4379926  99.9740851
  88.4451844 149.9924038  99.3447933  91.3812391 150.1776796 103.9074995
  92.1572781 150.6673248 104.1799612  90.6560525 150.6034850 104.3646865
  93.8184950 150.8904415 104.9648936  94.4129441 150.6500151 104.2542244
  93.8911534 150.1711546 105.5922472  87.1741069 159.9174950  94.2868676
  87.8776919 160.1224952  94.9026332  86.4503717 160.4851712  94.5517760
  88.0038879 155.6684811 100.4070946  87.9474080 156.1253362  99.5678579
  88.5567221 154.9075496 100.2293789  91.8143685 151.4574543 101.2321066
  91.5580619 151.0571179 102.0629274  91.1896553 152.1718337 101.1071205
  96.1256023 154.1970616 103.7392357  95.5655581 154.2663805 104.5123919
  95.5199526 154.0211601 103.0191853  89.0827766 160.3557479  96.3367136
  89.9173370 159.9238677  96.1544611  88.9212109 160.1839493  97.2644031
  88.7373658 156.8589592  97.7023476  88.6822462 156.6933864  96.7611920
  88.1119713 157.5665625  97.8585665  73.5266173 152.0957657 111.5284898
  74.1725037 151.5856611 112.0172123  73.3183324 152.8326338 112.1028323
  86.0519565 159.1638504 117.0277038  86.9210725 159.3379156 116.6663673
  85.5726317 159.9832921 116.9052768  82.0469784 146.3597701  97.2808794
  82.0348453 147.3039541  97.4377065  82.9393205 146.1767847  96.9868255
  77.8663664 149.2425274 115.6259912  78.7295126 148.8862079 115.8363237
  77.2929075 148.9039168 116.3135316 102.6661737 168.5353817 104.4108500
 103.3986909 167.9653034 104.6446329 101.9101092 168.1475418 104.8515005
 100.1887157 162.2475391 108.8703108  99.8570482 163.1170802 108.6464323
  99.5932770 161.9311675 109.5497138  93.9243343 165.9870958  96.6033190
  94.0917746 166.8551195  96.9703662  93.7340512 166.1498240  95.6794480
 100.0815820 166.9670477 105.9496458  99.1732698 166.8985886 105.6555219
 100.0303416 167.4442422 106.7778284 101.9477467 165.1686916 107.7274332
 101.3051847 165.4619449 107.0814127 101.4432395 165.0539836 108.5327529
  97.3888913 165.9351692 111.0836215  97.1449845 166.6893752 110.5470490
  97.6648844 166.3137040 111.9183462  96.9453605 165.0908125 106.6650052
  96.0838084 165.3889378 106.9566790  96.9716040 165.3078524 105.7331085
  90.4245165 162.6505990 116.6189883  90.0312110 162.0972189 117.2937528
  91.2411305 162.9616569 117.0096401  93.3413126 164.0663869 114.2110140
  94.0822839 164.6671023 114.1314603  93.5731049 163.3241507 113.6528183
  97.2870289 160.0944972 108.4874422  96.9434558 160.9846614 108.4113532
  97.6549251 159.9046630 107.6244007  94.8367683 164.9303284 102.0532095
  93.9809279 164.5410135 101.8737734  95.2494634 165.0095245 101.1931881
  96.3666829 162.4649628 106.4523655  95.8631625 162.4279763 105.6391460
  96.6597436 163.3742370 106.5120312  92.6109715 162.5488357 105.4589837
  93.4762712 162.3531166 105.0995726  92.6787224 162.3198709 106.3859193
  97.0406875 167.9580676  98.8206638  96.7357010 168.2726825  99.6716781
  97.9937317 168.0362095  98.8633971  90.2172034 164.7790565 102.8306204
  90.7915786 164.5565747 102.0979396  90.8043017 164.8479260 103.5834805
  92.5194702 161.6531814 101.5581273  91.8659114 161.3380831 100.9337888
  92.4775176 161.0307555 102.2841096  98.9846327 166.5762280 102.9950390
  98.2469084 166.0639666 103.3260633  99.2373101 166.1362661 102.1833667
  99.0857954 159.3538532 103.5892159  99.3916831 158.4935895 103.3018074
  99.8110559 159.9456152 103.3891153  90.7885469 165.8387740 107.4719964
  91.4284848 165.6976499 106.7742928  89.9562999 165.5522253 107.0958566
  95.1664583 163.8487763 111.4357436  94.5192498 164.5477713 111.3421913
  95.9365598 164.2823907 111.8033685  96.9140578 164.8163173 103.9396721
  97.4109277 164.0633136 103.6197792  96.1427559 164.8527490 103.3739931
  93.4975546 166.9580556 103.6668406  93.1273334 166.4051597 104.3549312
  93.9934639 166.3538690 103.1143406  99.3559572 161.7832767 106.0876080
  98.4422652 162.0136994 106.2558287  99.7852674 161.8671211 106.9390113
  88.8940880 164.3684547 109.9121512  88.9582207 165.2299378 109.4998910
  88.8308000 163.7558549 109.1793871  91.4779256 163.6594532 111.7481102
  92.0013658 163.9056828 112.5107411  91.2591589 164.4914567 111.3284239
  92.6831801 164.6008227 109.4330772  92.3428621 163.8016040 109.8351452
  91.9770807 164.9009938 108.8607605  93.3348273 161.6857539 107.8858095
  94.1574342 161.2118018 107.7636985  93.5786336 162.4648023 108.3856781
  91.9756507 164.7145798  98.1820997  92.6964870 165.0927051  97.6784714
  91.3521811 165.4334675  98.2855975  96.1187630 165.4190947  99.1179329
  96.3351245 166.3015585  98.8168157  95.6381697 165.0277160  98.3884971
  92.7183234 165.3679208 105.7430963  92.7044803 164.4720301 105.4063261
  93.4355662 165.3749872 106.3769249  94.5709365 165.8016548 107.7884091
  94.3127143 166.7233619 107.7868421  94.0394405 165.4046983 108.4784555
  92.1220130 164.2493588 101.0118533  92.2436042 163.3210235 101.2109421
  91.8322173 164.2632274 100.0996849  94.9911321 161.9348499 104.1485253
  95.0133018 161.9987832 103.1937233  95.4079380 161.0953007 104.3425759
  93.8360498 166.5156958 111.9754825  92.9663808 166.8090524 111.7037413
  94.0719979 167.0997403 112.6962088  96.5399532 162.7336575 109.4920245
  97.0581476 163.4697602 109.1666734  96.1854665 163.0400568 110.3267004
  96.7912126 159.1536858 105.0121142  97.0713880 158.4860047 105.6381568
  97.5762733 159.3465953 104.4995806 100.6620985 167.5754492 108.7592717
 101.6138408 167.6752589 108.7804941 100.4924435 166.7832760 109.2690801
  98.6835364 164.6610075 108.9452118  98.0885296 164.9415088 108.2498606
  98.3985061 165.1503976 109.7168859 103.2903551 167.5871655 107.9193300
 102.7742600 166.8030111 107.7323228 104.1743499 167.2590371 108.0839819
 100.9514278 161.3312670 103.8789112 100.7539099 161.0227758 104.7632444
 101.5613983 162.0574309 104.0087042  94.7797376 162.1343530 100.0061347
  93.9698104 161.7890615 100.3816593  95.4681793 161.8251074 100.5948959
  96.7087924 161.2121577 101.6285644  97.2618963 161.6317031 102.2875667
  96.9458011 160.2857325 101.6708600  91.9334095 164.4493576  93.9929085
  92.7953259 164.7748474  94.2524902  92.1184439 163.6625072  93.4802151
 100.0866732 163.3222102 101.1364308  99.5065401 163.9806906 100.7542360
  99.8202664 162.4999447 100.7251725  98.5370298 162.7227160 103.3385628
  99.0370076 162.8343695 102.5299947  99.1805906 162.4188213 103.9786437
  98.8691610 165.4822193 100.1920656  97.9817465 165.7671843  99.9740851
  99.2845599 165.3215956  99.3447933 102.2206146 165.5068714 103.9074995
 102.9966536 165.9965166 104.1799612 101.4954280 165.9326768 104.3646865
 104.6578704 166.2196333 104.9648936 105.2523195 165.9792069 104.2542244
 104.7305288 165.5003463 105.5922472 102.6537439 166.7866461 101.2321066
 102.3974373 166.3863096 102.0629274 102.0290307 167.5010254 101.1071205
  92.8863538 161.6889619  97.2808794  92.8742208 162.6331459  97.4377065
  93.7786960 161.5059764  96.9868255  96.7015658 158.2832396 101.5354731
  95.9348053 157.7290882 101.6811413  97.1126363 158.3554264 102.3968882
  88.7057419 164.5717191 115.6259912  89.5688880 164.2153996 115.8363237
  88.1322829 164.2331086 116.3135316  10.9962006  25.2453911  93.1567620
  11.6340416  25.1260659  92.4530960  10.8782849  26.1934755  93.2155572
   7.8051713  25.1981339  93.0929144   7.4670224  25.0822404  92.2049679
   8.6741481  24.7972504  93.0730150   3.6638528  27.0516816  89.0826035
   3.1003394  26.9606753  88.3142323   3.5490923  26.2316720  89.5628528
   8.2871496  26.3516191  99.0515350   8.2760136  25.9568989  98.1795853
   8.4492135  25.6182264  99.6449121   1.2102960  28.5468007  91.9210256
   2.0024252  28.2058832  91.5056555   1.4499610  28.6562982  92.8412409
   9.2438087  30.7187783  84.3940500   8.5926067  31.3041864  84.0074514
  10.0382450  31.2493978  84.4535538   3.1693714  27.8076921  84.7927634
   3.9424590  27.2605908  84.6540510   3.5219113  28.6721170  85.0042096
   5.0078757  29.1353303  97.9994534   4.7168623  30.0398934  97.8841200
   5.6435741  29.1769830  98.7138603   5.9334964  26.5130151  94.5895893
   6.5298536  26.2886174  93.8752856   5.9909935  25.7714897  95.1921341
   5.5059992  23.9669587  82.4246084   5.7585513  23.4451108  81.6629547
   4.5684551  23.8035732  82.5272768  10.5503275  22.9705365  90.2320828
  11.3366364  22.5524788  89.8811245  10.8141979  23.8751457  90.4002476
  10.7213352  28.4078215  84.9309484  10.0859185  28.4812842  85.6430389
  10.3910759  28.9971814  84.2528564  15.9511702  22.9080598  91.1353806
  16.6836874  22.3379815  91.3691636  15.1951058  22.5202199  91.5760312
   5.2256281  25.8697693  84.6270459   5.1092539  25.1942596  85.2951544
   5.3358541  25.3830067  83.8102612   7.5687822  25.3307840  88.3317149
   7.2046029  24.8038461  89.0430070   8.4254938  24.9406309  88.1583634
  13.4737122  16.6202172  95.5948415  13.1420447  17.4897583  95.3709630
  12.8782736  16.3038456  96.2742445   7.2093309  20.3597739  83.3278497
   7.3767711  21.2277976  83.6948968   7.0190478  20.5225021  82.4039786
   9.9668642  28.8214718  94.9944327   9.6669365  29.7239757  94.8860135
   9.6219701  28.5546902  95.8465480   3.4181123  25.2728515  91.0281032
   2.4931620  25.1404729  91.2358724   3.6665537  26.0522734  91.5250974
  13.3665786  21.3397259  92.6741765  12.4582663  21.2712667  92.3800526
  13.3153381  21.8169203  93.5023590   7.1882530  22.8155397  84.3125164
   7.0682155  23.2612448  85.1510644   6.4935118  23.1640715  83.7538702
   4.9489422  35.5859039  87.9615295   4.8713451  36.5366864  88.0403776
   4.3451065  35.2404911  88.6190221   7.4406651  22.7586904 100.6176662
   6.6639986  23.3180824 100.6079527   8.0797215  23.2443687 101.1391532
  15.2327432  19.5413697  94.4519639  14.5901812  19.8346230  93.8059433
  14.7282361  19.4266617  95.2572835  12.8867596  23.2876870  85.1405498
  13.7985452  23.5204257  84.9653196  12.3777243  23.8713914  84.5780577
   5.6953024  25.5672357 100.1794629   6.4367708  26.1057401  99.9029453
   4.9890009  26.1938646 100.3366181  11.1708363  27.7101498  98.7766791
  11.5791719  27.2683908  98.0321423  10.4485625  27.1354125  99.0300983
   7.5239433  22.6474105  96.1500348   8.3700629  23.0713518  96.2934997
   7.4638071  21.9907729  96.8438911  11.4937178  28.2702689  92.5319079
  10.8646040  28.4348403  91.8295147  11.1062840  28.6844298  93.3030043
  15.3726410  29.2057126  89.8863443  14.6877448  29.5856028  89.3360477
  15.4570259  29.8152453  90.6195391  10.6738879  20.3078473  97.8081521
  10.4299811  21.0620534  97.2715797  10.9498809  20.6863821  98.6428768
  12.6277342  26.8517085  96.4858787  12.8394237  27.4948845  95.8093168
  12.5807090  26.0179402  96.0180717  10.2303571  19.4634906  93.3895359
   9.3688050  19.7616160  93.6812096  10.2566005  19.6805305  92.4576391
   7.0465140  28.0077097  89.7969165   7.5103485  28.2864800  89.0073787
   6.7821938  27.1060541  89.6142255   3.9389221  27.5548578  92.7348928
   4.5090578  27.9835847  92.0966412   4.5297333  27.2731163  93.4333113
   5.9834026  24.1300249  86.6058730   6.6858069  24.5821293  87.0732656
   5.6514654  23.4884068  87.2338623   4.4314388  22.7212006 100.9809939
   3.8013048  23.4028287 101.2145336   4.3250475  22.6095087 100.0363077
  13.7423169  29.7289041  94.6581144  14.5640613  29.3269228  94.3763826
  13.7385572  29.6257275  95.6097260   7.5079773  29.2773084  96.8141855
   7.5724205  29.7393491  97.6500026   6.7990697  28.6470449  96.9424164
  21.8329163  26.0727789  91.0066116  21.0792871  25.5035187  90.8510120
  21.9676704  26.0390454  91.9536750   7.2227791  30.9441192  86.6820835
   7.0873465  31.7892727  87.1105683   7.7637603  31.1460469  85.9186769
   0.6757188  28.4616630  87.2548760   1.1881709  29.2559880  87.4054325
   1.3279901  27.7642920  87.1882361   2.4852073  31.5782386  89.3371513
   2.6618701  32.5000351  89.1492497   3.2808906  31.2640805  89.7665893
   8.8496267  31.5664758 100.8121177   8.4060121  30.7801137 100.4942081
   9.5113481  31.7543909 100.1465068   3.6083388  33.0960560  95.3381855
   4.1590813  32.9677623  94.5658849   2.7694864  33.3955449  94.9876748
  10.9477505  31.8467558  98.8402578  10.9295980  32.6676439  98.3482847
  11.8697425  31.7221633  99.0652719   7.4050559  29.3611688  99.6826087
   7.9378896  28.5999976  99.4525395   6.8764640  29.0685339 100.4250241
  10.5370537  24.4580365  83.7192163  10.0217160  25.2284969  83.9580551
  10.2647845  23.7845501  84.3425225   8.1217648  19.3030065  88.7777402
   7.2659244  18.9136916  88.5983041   8.5344600  19.3822026  87.9177187
  15.5104811  27.2112719  85.6545337  14.7334254  26.8723879  85.2100499
  16.1896292  27.2165342  84.9800302  10.3256840  22.3307457  85.5451945
  10.0206976  22.6453606  86.3962088  11.2787282  22.4088877  85.5879278
   8.7703272  28.4897680  87.1944899   8.2424633  27.7550440  86.8818136
   8.2690775  29.2672356  86.9484867  13.7496118  26.6846701  92.3111945
  13.0919792  27.3745962  92.3992074  14.5536517  27.0743132  92.6545931
  12.5601577  25.0391073  90.3615887  13.0733458  25.6721065  90.8637596
  13.2102801  24.4392269  89.9959247   6.9155872  26.3077890  80.1979872
   6.0082934  26.0767144  80.3971021   7.4126904  25.5115510  80.3853853
   9.8223951  35.0175398  83.1176558   9.1485650  35.3207094  83.7261516
  10.2089773  35.8204478  82.7682015   9.0382408  22.5140529  92.6074227
   8.1204969  22.7355476  92.4495915   9.4542551  22.5886839  91.7485935
   9.8217455  23.9131944  87.7376907  10.5689274  24.4253342  87.4284030
  10.0909045  23.5915997  88.5981301   8.0944106  26.4090485  84.7203862
   7.1855325  26.1249518  84.8176331   8.1239189  26.8289564  83.8607169
  13.3263373  30.0197075  88.4895029  12.8725700  29.1787985  88.5460220
  12.6957340  30.6558473  88.8269809  12.2696293  20.9489061  89.7195697
  11.5319049  20.4366447  90.0505939  12.5223066  20.5089442  88.9078974
  11.7696312  31.8573571  89.4244847  12.0619287  32.4178628  88.7057213
  12.2794933  32.1502132  90.1798007   6.6429000  24.0219106  90.8213657
   6.6977609  23.0692942  90.7456134   5.8320202  24.1778545  91.3054956
   7.7920193  27.9499229  82.0591940   7.3539623  27.2335088  81.5997578
   8.5330634  28.1775344  81.4977032   4.5821359  22.6396166  88.5804036
   3.7689225  22.9390336  88.9869228   5.0780354  22.2451854  89.2978518
   6.7329937  32.6353922  90.5138301   6.6906116  32.8614769  89.5846833
   7.6492636  32.4017297  90.6624102  10.1795571  23.1037990  97.4118930
  10.5344959  23.3309463  98.2713396  10.8267702  23.4356367  96.7896185
  15.9093308  26.2256426  88.1168259  15.7711207  26.4158022  87.1889448
  15.5529527  26.9875809  88.5736310  15.9362688  28.2932953  93.1279530
  16.3699194  28.2008242  93.9762584  16.6494268  28.2690453  92.4899546
   4.8495738  29.5116951  90.3100263   5.6436337  29.0167272  90.1082838
   4.1387431  28.9834815  89.9467969   9.6690583  31.8935047  94.6612631
   9.7227605  32.4625983  95.4290347   8.8005364  32.0636932  94.2966668
  16.7978237  28.3356654  95.6612416  16.9914127  29.2402464  95.9071691
  16.6978855  27.8764073  96.4951001   8.4514548  18.2214544  98.1602743
   7.8042463  18.9204494  98.0667220   9.2215563  18.6550688  98.5278991
  11.8593346  28.4863396 101.2353296  11.7078852  28.2573948 100.3183380
  11.8498025  29.4433998 101.2484641   8.6278682  26.0595309  96.2199563
   9.5570742  26.2106469  96.0468530   8.2069712  26.1479330  95.3648209
   7.4267014  30.0845973  93.9898100   7.2878100  29.7164758  94.8624039
   6.6381610  30.5993613  93.8182058   8.0215166  35.1855070  85.3323637
   8.1966922  34.7143113  86.1469260   7.3347954  35.8120836  85.5604898
   8.9772229  29.4627576  91.3786938   8.6422062  29.4228346  92.2744588
   8.4776175  28.7972292  90.9057348   2.9516473  24.8695206  96.9039519
   2.8136271  24.1375445  97.5051058   3.8621397  24.7804106  96.6223707
  11.9131421  26.8083611  81.6523998  11.2960592  26.0830439  81.5557051
  11.4447909  27.5692971  81.3091072   5.5798774  24.5815166  96.3923199
   6.2898392  23.9408358  96.3509817   5.5368082  24.8328060  97.3149380
  13.5685553  31.5182519  99.3129778  13.5098099  30.8341739  98.6460361
  13.9705071  32.2601509  98.8610404   2.5876251  38.3344433  92.1063497
   2.8272850  38.9662957  92.7842516   1.7445448  37.9832473  92.3928856
  13.5702960  29.4822103  97.5443758  12.6829739  29.1448025  97.6670157
  14.1401511  28.7505134  97.7812523   7.1004113  34.1423555  94.5105001
   7.0274285  34.9478527  95.0224306   6.6581506  34.3415521  93.6853023
   6.8893893  33.3795325  88.0207823   6.1061415  33.9217005  88.1146047
   7.5886638  33.8969305  88.4202064  10.1990543  19.1889955  90.6642028
  10.6959243  18.4359917  90.3443098   9.4277525  19.2254271  90.0985237
  18.0520300  24.8930320  92.3060320  18.0410177  25.7755036  91.9354253
  17.1837680  24.5401871  92.1114857   9.5602797  34.0410389  96.6663160
  10.2730769  34.6757854  96.5939061   9.0692825  34.1374255  95.8503162
  11.2820324  27.9461642  88.2380451  10.3476602  28.0663104  88.0685156
  11.4596992  27.0434109  87.9740461   6.7825512  21.3307338  90.3913713
   6.4123299  20.7778378  91.0794618   7.2784604  20.7265471  89.8388713
  14.6692875  23.7878961  88.7730486  15.1353327  24.6206953  88.6990788
  15.1200376  23.3223943  89.4775744   4.6114710  31.7904833  97.4868731
   5.3124170  32.4241316  97.6398125   4.1409825  32.1319564  96.7264370
  12.7369106  30.1322782  85.7716638  13.0128950  30.0179377  86.6810512
  11.8673605  29.7340267  85.7328811  12.6409538  16.1559548  92.8121387
  11.7272618  16.3863775  92.9803594  13.0702639  16.2397992  93.6635419
  12.4115996  24.3449440  95.3121281  11.7587447  24.5925348  94.6573734
  12.7896376  23.5313578  94.9783758   9.3723170  34.3809133  89.4149451
   9.5545565  33.5630789  89.8777204  10.1956156  34.5976826  88.9774341
   9.7065336  33.3077318  86.6764500  10.2353102  32.7969773  86.0634662
   9.9693555  32.9919849  87.5410033   8.4603569  25.0869251 101.7987318
   7.7844206  24.9863380 102.4689693   9.2831203  24.9308465 102.2623315
   3.0621084  34.3592435  89.4362276   2.3931459  34.8438563  88.9526316
   2.9233953  34.6061656  90.3505654   7.2026352  36.3936179  96.0344934
   7.7544660  36.5567800  96.7994019   7.5432546  36.9840616  95.3624959
  12.0537227  31.2197436 101.8893588  12.5977130  31.8327394 101.3948543
  11.4724071  31.7777015 102.4060601  10.3394739  34.3418154  93.0208616
  10.2145879  33.5407894  92.5119562  10.9973831  34.8364347  92.5322586
  12.4029648  32.1427174  94.6488166  11.4559983  32.0232525  94.5766493
  12.7512421  31.2549672  94.7314428   9.4076081  31.9379890  90.8492519
   9.2601044  31.0096598  91.0300089  10.2329575  31.9599981  90.3649594
  13.0110203  32.7608449  91.9357391  13.9356750  32.5551310  91.7981842
  12.8425506  32.5124850  92.8446733   9.4037595  19.7917728  85.8424636
   9.6201210  20.6742366  85.5413464   8.9231663  19.4003941  85.1130278
   4.1436817  22.7503441  92.4195380   3.9981398  23.0643744  93.3119662
   3.6662020  23.3688342  91.8666279   7.8559330  20.1743329  94.5129397
   7.5977108  21.0960400  94.5113728   7.3244371  19.7773764  95.2029861
  12.8005519  33.2794117  87.2919483  12.9742397  32.7140539  86.5393335
  13.2934410  34.0795011  87.1098973  18.6544910  26.0430540  88.9109782
  19.0976056  25.2937865  88.5128906  17.7771421  26.0340676  88.5283514
  13.7880692  32.5960881  84.3916381  14.4831596  33.2167574  84.6103696
  14.1303842  31.7456232  84.6668759  15.6872115  30.0460587  85.9203712
  16.2123439  30.3847859  85.1953032  15.5994467  29.1107602  85.7366846
   7.3492164  33.9594660  98.0493588   7.6579290  33.7143807  98.9216288
   8.1467646  34.1641299  97.5612459   7.3712776  36.1132570  90.2798965
   6.9317766  35.6208949  90.9731822   8.1220893  35.5705537  90.0391040
   4.8186648  31.6570579  92.3521267   4.1966657  30.9941284  92.0523495
   5.4891515  31.6831711  91.6694914  15.3766021  30.6793490 101.2254910
  14.5861565  30.6617629 100.6859409  15.1399375  31.2181784 101.9803946
  15.4963896  27.5285957  98.5387638  15.5461901  27.3635964  99.4803161
  15.3877819  26.6613216  98.1485519   4.3800155  30.2074502  85.8279727
   4.5288275  30.8909967  85.1746400   5.1866598  30.1879592  86.3429183
  12.7867658  23.5116885  99.8546945  13.6877521  23.3723349  99.5630943
  12.8615633  23.6771339 100.7945122   7.1210464  20.8883739  98.7000131
   6.2513773  21.1817305  98.4282720   7.3569944  21.4724184  99.4207395
  16.9982093  29.9482898  98.7829660  16.7066901  30.3112879  99.6193121
  16.3854224  29.2349906  98.6042992  18.1977775  27.5135778  91.3032230
  19.0324666  27.9525582  91.4669790  18.3336904  27.0374431  90.4840476
  15.2469281  25.0715513  97.2509718  15.7223403  25.2643159  96.4428569
  14.3234846  25.1274699  97.0053101   2.1352788  26.2339680  86.8340796
   1.8898830  25.3302010  87.0321006   2.3048702  26.2356830  85.8920274
   9.8249497  17.1063356  96.2165552  10.3431441  17.8424383  95.8912040
   9.4704630  17.4127350  97.0512311   7.8795560  32.7022633  83.2991475
   7.3069527  33.3212820  82.8461946   8.4528354  33.2521994  83.8331397
  13.9470950  21.9481273  95.4838023  14.8988373  22.0479370  95.5050247
  13.7774400  21.1559541  95.9936108  11.9685329  19.0336856  95.6697424
  11.3735262  19.3141869  94.9743913  11.6835026  19.5230757  96.4414165
  11.0992820  32.9859783  84.4300057  12.0323493  32.9205345  84.6332932
  11.0116033  33.8216050  83.9714590  13.7280837  32.3025653  81.3904004
  13.6494468  31.9685517  82.2839762  14.5490503  32.7947421  81.3895477
  16.4259028  25.1687392  94.5980323  16.3935348  24.2303393  94.7840007
  17.0359651  25.2471429  93.8646148   8.2642359  24.0383445  80.6407527
   9.2101463  23.9089654  80.7095945   7.8856604  23.2998107  81.1176955
  16.5753516  21.9598436  94.6438606  16.0592565  21.1756893  94.4568535
  17.4593465  21.6317153  94.8085126  14.2364243  15.7039451  90.6034419
  14.0389064  15.3954540  91.4877751  14.8463949  16.4301090  90.7332349
  22.2435578  26.2303399  93.7386360  22.9738966  25.9688687  94.2994063
  21.6342523  25.4932121  93.7788428  20.3250875  24.3711262  94.3360811
  19.5984038  24.2367227  93.7277303  19.9098162  24.6788091  95.1417529
   8.1481051  28.0901192 102.1008184   9.0684061  28.2679791 102.2948231
   8.1130634  27.1457237 101.9487883   6.4485276  21.9633422  80.5762412
   5.5416731  21.6666535  80.6525126   6.7261257  21.6663240  79.7096699
   1.1443124  26.0002226  94.7430965   1.3629134  26.9319334  94.7618999
   1.5568898  25.6410201  95.5285769   6.0170989  21.5735432 104.1333714
   5.9167716  22.5229789 104.0645805   5.7992531  21.2453671 103.2609784
  13.3716697  17.6948884  87.8609615  12.7915366  18.3533688  87.4787667
  13.1052630  16.8726228  87.4497032  11.8220263  17.0953941  90.0630935
  12.3220042  17.2070476  89.2545254  12.4655871  16.7914994  90.7031743
   5.8802259  25.0032571 102.9498776   5.3969341  25.8032931 103.1562665
   5.9663198  25.0140516 101.9966220   1.8075597  28.8937106  94.9867210
   2.7618850  28.8621048  94.9197141   1.6088120  28.4327729  95.8017436
   2.3974979  27.4638222  97.5538007   3.2167868  27.9582300  97.5772845
   2.6711786  26.5470190  97.5255575  12.1541575  19.8548974  86.9165963
  11.2667430  20.1398625  86.6986158  12.5695564  19.6942737  86.0693240
  15.5056111  19.8795495  90.6320302  16.2816501  20.3691947  90.9044919
  14.7804245  20.3053549  91.0892172  17.9428670  20.5923114  91.6894243
  18.5373160  20.3518850  90.9787551  18.0155253  19.8730245  92.3167779
  11.2984788  29.6193649  81.0113983  12.0020639  29.8243651  81.6271638
  10.5747437  30.1870410  81.2763066  12.1282599  25.3703510  87.1316253
  12.0717800  25.8272061  86.2923885  12.6810941  24.6094194  86.9539096
  15.9387405  21.1593242  87.9566372  15.6824339  20.7589877  88.7874580
  15.3140273  21.8737036  87.8316512  20.2499742  23.8989315  90.4637664
  19.6899300  23.9682504  91.2369226  19.6443246  23.7230300  89.7437160
   3.3194951  35.3326042  92.2155850   3.2027335  36.2771475  92.1134540
   2.4987398  35.0299604  92.6041649  13.2071486  30.0576178  83.0612443
  14.0417090  29.6257376  82.8789918  13.0455829  29.8858191  83.9889337
  12.8617378  26.5608291  84.4268782  12.8066182  26.3952563  83.4857226
  12.2363433  27.2684324  84.5830972  10.1763285  28.8657203 103.7522345
  11.0454445  29.0397855 103.3908980   9.6970037  29.6851620 103.6298074
   4.3449465  35.9854304  95.4311779   5.2476712  36.0177914  95.7478274
   4.1186835  35.0554755  95.4458114   6.1003067  34.7385290  92.0921857
   5.1498698  34.7387152  91.9786229   6.4035554  33.9918025  91.5757892
  21.8355761  40.5745829  93.1567620  22.4734171  40.4552576  92.4530960
  21.7176604  41.5226673  93.2155572  18.6445467  40.5273257  93.0929144
  18.3063979  40.4114322  92.2049679  19.5135235  40.1264422  93.0730150
  14.5032283  42.3808733  89.0826035  13.9397148  42.2898670  88.3142323
  14.3884678  41.5608638  89.5628528  19.1265250  41.6808109  99.0515350
  19.1153891  41.2860907  98.1795853  19.2885890  40.9474181  99.6449121
  12.0496715  43.8759925  91.9210256  12.8418007  43.5350750  91.5056555
  12.2893365  43.9854900  92.8412409  20.0831842  46.0479701  84.3940500
  19.4319821  46.6333782  84.0074514  20.8776204  46.5785896  84.4535538
  14.0087469  43.1368838  84.7927634  14.7818345  42.5897825  84.6540510
  14.3612868  44.0013088  85.0042096  15.8472511  44.4645221  97.9994534
  15.5562377  45.3690851  97.8841200  16.4829496  44.5061748  98.7138603
  16.7728718  41.8422069  94.5895893  17.3692290  41.6178091  93.8752856
  16.8303690  41.1006815  95.1921341  16.3453747  39.2961504  82.4246084
  16.5979267  38.7743026  81.6629547  15.4078306  39.1327650  82.5272768
  21.3897029  38.2997283  90.2320828  22.1760119  37.8816706  89.8811245
  21.6535734  39.2043375  90.4002476  21.5607107  43.7370133  84.9309484
  20.9252940  43.8104760  85.6430389  21.2304513  44.3263732  84.2528564
  26.7905457  38.2372516  91.1353806  27.5230628  37.6671733  91.3691636
  26.0344812  37.8494116  91.5760312  16.0650035  41.1989610  84.6270459
  15.9486293  40.5234514  85.2951544  16.1752295  40.7121984  83.8102612
  18.4081576  40.6599757  88.3317149  18.0439783  40.1330378  89.0430070
  19.2648692  40.2698226  88.1583634  24.3130877  31.9494090  95.5948415
  23.9814202  32.8189501  95.3709630  23.7176490  31.6330374  96.2742445
  18.0487063  35.6889657  83.3278497  18.2161466  36.5569894  83.6948968
  17.8584232  35.8516939  82.4039786  20.8062396  44.1506636  94.9944327
  20.5063119  45.0531675  94.8860135  20.4613456  43.8838819  95.8465480
  14.2574878  40.6020433  91.0281032  13.3325374  40.4696647  91.2358724
  14.5059291  41.3814652  91.5250974  24.2059540  36.6689176  92.6741765
  23.2976418  36.6004585  92.3800526  24.1547136  37.1461121  93.5023590
  18.0276284  38.1447315  84.3125164  17.9075909  38.5904365  85.1510644
  17.3328872  38.4932632  83.7538702  11.6183689  40.2453706  91.8624821
  11.7476070  40.4988185  92.7764233  10.9381140  40.8381414  91.5429476
  15.7883176  50.9150956  87.9615295  15.7107206  51.8658781  88.0403776
  15.1844820  50.5696829  88.6190221  18.2800406  38.0878822 100.6176662
  17.5033740  38.6472742 100.6079527  18.9190969  38.5735605 101.1391532
  26.0721187  34.8705615  94.4519639  25.4295567  35.1638148  93.8059433
  25.5676115  34.7558535  95.2572835  23.7261350  38.6168788  85.1405498
  24.6379206  38.8496175  84.9653196  23.2170997  39.2005832  84.5780577
  16.5346778  40.8964275 100.1794629  17.2761463  41.4349319  99.9029453
  15.8283764  41.5230564 100.3366181  22.0102118  43.0393416  98.7766791
  22.4185474  42.5975826  98.0321423  21.2879379  42.4646043  99.0300983
  18.3633188  37.9766022  96.1500348  19.2094383  38.4005436  96.2934997
  18.3031826  37.3199647  96.8438911  22.3330933  43.5994606  92.5319079
  21.7039795  43.7640320  91.8295147  21.9456595  44.0136216  93.3030043
  26.2120164  44.5349044  89.8863443  25.5271203  44.9147945  89.3360477
  26.2964014  45.1444371  90.6195391  21.5132633  35.6370391  97.8081521
  21.2693565  36.3912451  97.2715797  21.7892564  36.0155738  98.6428768
  23.4671096  42.1809003  96.4858787  23.6787991  42.8240763  95.8093168
  23.4200844  41.3471320  96.0180717  21.0697325  34.7926824  93.3895359
  20.2081804  35.0908077  93.6812096  21.0959760  35.0097223  92.4576391
  17.8858894  43.3369014  89.7969165  18.3497240  43.6156717  89.0073787
  17.6215693  42.4352459  89.6142255  14.7782975  42.8840496  92.7348928
  15.3484333  43.3127764  92.0966412  15.3691087  42.6023081  93.4333113
  16.8227780  39.4592167  86.6058730  17.5251824  39.9113210  87.0732656
  16.4908409  38.8175986  87.2338623  15.2708142  38.0503923 100.9809939
  14.6406803  38.7320204 101.2145336  15.1644230  37.9387005 100.0363077
  10.5653114  37.7175719  91.9075863   9.7752168  37.9733248  91.4315974
  11.0564362  38.5324057  92.0127904  24.5816924  45.0580959  94.6581144
  25.4034368  44.6561146  94.3763826  24.5779327  44.9549193  95.6097260
  12.5167860  38.0820299  88.8659340  11.7199023  38.1938993  89.3842836
  12.2893452  38.4206951  88.0000230  18.3473527  44.6065002  96.8141855
  18.4117960  45.0685409  97.6500026  17.6384451  43.9762367  96.9424164
   8.8490817  37.9706210  94.3390854   9.0998856  38.8553220  94.6048430
   9.3850366  37.7910811  93.5665946  32.6722917  41.4019707  91.0066116
  31.9186625  40.8327105  90.8510120  32.8070458  41.3682372  91.9536750
  18.0621545  46.2733109  86.6820835  17.9267220  47.1184645  87.1105683
  18.6031358  46.4752387  85.9186769  14.5488885  32.3524689 103.3435190
  14.1555830  31.7990888 104.0182834  15.3655025  32.6635268 103.7341708
  11.5150942  43.7908547  87.2548760  12.0275463  44.5851798  87.4054325
  12.1673655  43.0934838  87.1882361  13.3245827  46.9074304  89.3371513
  13.5012456  47.8292268  89.1492497  14.1202661  46.5932723  89.7665893
  17.4656846  33.7682568 100.9355447  18.2066559  34.3689721 100.8559909
  17.6974769  33.0260206 100.3773489  12.6098184  38.9538936  99.2133676
  12.4951699  38.0524193  99.5140775  11.7542701  39.2002632  98.8618493
  19.6890021  46.8956676 100.8121177  19.2453876  46.1093054 100.4942081
  20.3507235  47.0835826 100.1465068  14.4477143  48.4252477  95.3381855
  14.9984568  48.2969541  94.5658849  13.6088619  48.7247366  94.9876748
  21.7871260  47.1759476  98.8402578  21.7689735  47.9968357  98.3482847
  22.7091180  47.0513551  99.0652719  18.2444314  44.6903605  99.6826087
  18.7772650  43.9291893  99.4525395  17.7158395  44.3977257 100.4250241
  21.4114009  29.7963671  95.2119728  21.0678278  30.6865313  95.1358839
  21.7792971  29.6065329  94.3489313   9.4799859  42.1197202  88.0308331
  10.3175081  42.5294210  87.8142038   9.6578127  41.1796644  88.0008524
  21.3764291  39.7872282  83.7192163  20.8610915  40.5576887  83.9580551
  21.1041600  39.1137418  84.3425225  18.9611402  34.6321983  88.7777402
  18.1052999  34.2428834  88.5983041  19.3738354  34.7113944  87.9177187
  20.4910549  32.1668326  93.1768962  19.9875345  32.1298462  92.3636767
  20.7841156  33.0761069  93.2365618  16.7353435  32.2507056  92.1835143
  17.6006432  32.0549865  91.8241033  16.8030944  32.0217408  93.1104500
  26.3498566  42.5404637  85.6545337  25.5728008  42.2015796  85.2100499
  27.0290046  42.5457260  84.9800302  21.1650595  37.6599374  85.5451945
  20.8600730  37.9745524  86.3962088  22.1181037  37.7380794  85.5879278
  19.6097026  43.8189598  87.1944899  19.0818388  43.0842357  86.8818136
  19.1084529  44.5964274  86.9484867  24.5889872  42.0138618  92.3111945
  23.9313547  42.7037880  92.3992074  25.3930272  42.4035050  92.6545931
  14.3415754  34.4809264  89.5551510  14.9159506  34.2584446  88.8224703
  14.9286736  34.5497959  90.3080111  23.3995331  40.3682991  90.3615887
  23.9127213  41.0012983  90.8637596  24.0496555  39.7684186  89.9959247
  14.6685341  36.5113725  83.5747395  13.8322653  36.8488412  83.8956670
  14.5290111  36.3762705  82.6374532  16.6438422  31.3550513  88.2826580
  15.9902834  31.0399530  87.6583194  16.6018896  30.7326253  89.0086403
  17.7549627  41.6369808  80.1979872  16.8476688  41.4059061  80.3971021
  18.2520659  40.8407427  80.3853853  20.6617705  50.3467315  83.1176558
  19.9879404  50.6499012  83.7261516  21.0483527  51.1496396  82.7682015
  19.8776162  37.8432446  92.6074227  18.9598723  38.0647393  92.4495915
  20.2936306  37.9178757  91.7485935  20.6611210  39.2423862  87.7376907
  21.4083029  39.7545259  87.4284030  20.9302799  38.9207915  88.5981301
  18.9337860  41.7382403  84.7203862  18.0249079  41.4541436  84.8176331
  18.9632944  42.1581481  83.8607169  24.1657127  45.3488992  88.4895029
  23.7119455  44.5079902  88.5460220  23.5351094  45.9850391  88.8269809
  23.1090047  36.2780978  89.7195697  22.3712804  35.7658365  90.0505939
  23.3616821  35.8381360  88.9078974  22.6090067  47.1865489  89.4244847
  22.9013041  47.7470546  88.7057213  23.1188687  47.4794050  90.1798007
  23.2101674  29.0557230  90.3137466  23.5160551  28.1954594  90.0263381
  23.9354279  29.6474851  90.1136460   9.5026030  39.4587917  88.7019064
   9.3050430  38.8657278  87.9770131   8.9472694  39.1540127  89.4195003
  17.4822754  39.3511023  90.8213657  17.5371364  38.3984860  90.7456134
  16.6713956  39.5070463  91.3054956  18.6313948  43.2791147  82.0591940
  18.1933378  42.5627005  81.5997578  19.3724389  43.5067261  81.4977032
  15.4215114  37.9688083  88.5804036  14.6082980  38.2682254  88.9869228
  15.9174108  37.5743772  89.2978518  17.5723692  47.9645840  90.5138301
  17.5299871  48.1906686  89.5846833  18.4886391  47.7309215  90.6624102
  21.0189326  38.4329908  97.4118930  21.3738713  38.6601381  98.2713396
  21.6661457  38.7648284  96.7896185  26.7487063  41.5548344  88.1168259
  26.6104961  41.7449940  87.1889448  26.3923281  42.3167726  88.5736310
  14.9129189  35.5406439  94.1965271  15.5528568  35.3995198  93.4988234
  14.0806719  35.2540952  93.8203873  26.7756442  43.6224871  93.1279530
  27.2092949  43.5300160  93.9762584  27.4888023  43.5982371  92.4899546
  15.6889493  44.8408869  90.3100263  16.4830091  44.3459189  90.1082838
  14.9781185  44.3126732  89.9467969  20.5084337  47.2226965  94.6612631
  20.5621359  47.7917901  95.4290347  19.6399118  47.3928850  94.2966668
  11.9972256  38.9851951  86.3860016  11.0669844  38.9236406  86.6029978
  12.0929728  38.4627904  85.5896657  11.9157805  35.5106764  88.9738258
  12.1764622  36.4252097  88.8647418  12.7374977  35.0431206  89.1234871
  13.3882730  36.9244521  96.1437082  14.0605784  36.7161883  95.4949731
  12.5612517  36.7266607  95.7042315  27.6371992  43.6648571  95.6612416
  27.8307882  44.5694382  95.9071691  27.5372610  43.2055990  96.4951001
  19.2908303  33.5506462  98.1602743  18.6436218  34.2496411  98.0667220
  20.0609318  33.9842606  98.5278991  22.6987100  43.8155314 101.2353296
  22.5472607  43.5865866 100.3183380  22.6891780  44.7725915 101.2484641
  19.4672437  41.3887227  96.2199563  20.3964497  41.5398386  96.0468530
  19.0463467  41.4771248  95.3648209  18.2660769  45.4137891  93.9898100
  18.1271854  45.0456676  94.8624039  17.4775365  45.9285531  93.8182058
  18.8608921  50.5146988  85.3323637  19.0360676  50.0435031  86.1469260
  18.1741709  51.1412754  85.5604898  19.8165984  44.7919494  91.3786938
  19.4815816  44.7520264  92.2744588  19.3169929  44.1264210  90.9057348
  13.7910228  40.1987124  96.9039519  13.6530026  39.4667363  97.5051058
  14.7015151  40.1096024  96.6223707  22.7525175  42.1375528  81.6523998
  22.1354346  41.4122356  81.5557051  22.2841664  42.8984888  81.3091072
  16.4192528  39.9107083  96.3923199  17.1292147  39.2700275  96.3509817
  16.3761837  40.1619978  97.3149380  24.4079307  46.8474437  99.3129778
  24.3491853  46.1633657  98.6460361  24.8098825  47.5893427  98.8610404
  15.1321462  36.8972301  98.2118839  14.5958819  36.4463040  98.8640435
  14.5438171  37.0318210  97.4689303  13.4270006  53.6636350  92.1063497
  13.6666604  54.2954875  92.7842516  12.5839202  53.3124390  92.3928856
  14.5423721  36.3560952  80.7745302  13.6653188  36.2349753  80.4107549
  15.0181474  35.5647031  80.5224191  24.4096714  44.8114020  97.5443758
  23.5223493  44.4739942  97.6670157  24.9795265  44.0797052  97.7812523
   6.0625861  41.1438112  90.8686809   6.7496901  40.8299842  90.2807825
   5.9073990  42.0479477  90.5954061  10.8660584  36.0328309  95.2971833
  10.7818772  35.4253978  94.5622243  10.0443290  36.5237327  95.2981329
  17.9397868  49.4715473  94.5105001  17.8668039  50.2770444  95.0224306
  17.4975261  49.6707439  93.6853023  17.7287647  48.7087243  88.0207823
  16.9455169  49.2508923  88.1146047  18.4280393  49.2261222  88.4202064
  21.0384297  34.5181872  90.6642028  21.5352997  33.7651835  90.3443098
  20.2671279  34.5546189  90.0985237  28.8914055  40.2222238  92.3060320
  28.8803931  41.1046953  91.9354253  28.0231434  39.8693789  92.1114857
  20.3996551  49.3702307  96.6663160  21.1124523  50.0049772  96.5939061
  19.9086580  49.4666173  95.8503162  22.1214078  43.2753560  88.2380451
  21.1870357  43.3955022  88.0685156  22.2990747  42.3726026  87.9740461
  17.6219266  36.6599255  90.3913713  17.2517054  36.1070296  91.0794618
  18.1178359  36.0557389  89.8388713  25.5086630  39.1170879  88.7730486
  25.9747082  39.9498870  88.6990788  25.9594130  38.6515860  89.4775744
  15.4508465  47.1196750  97.4868731  16.1517924  47.7533233  97.6398125
  14.9803580  47.4611482  96.7264370  23.5762861  45.4614700  85.7716638
  23.8522705  45.3471295  86.6810512  22.7067359  45.0632185  85.7328811
  23.4803292  31.4851466  92.8121387  22.5666372  31.7155693  92.9803594
  23.9096394  31.5689910  93.6635419  23.2509751  39.6741358  95.3121281
  22.5981201  39.9217265  94.6573734  23.6290131  38.8605496  94.9783758
  20.2116925  49.7101051  89.4149451  20.3939319  48.8922707  89.8777204
  21.0349911  49.9268743  88.9774341  20.5459090  48.6369236  86.6764500
  21.0746857  48.1261691  86.0634662  20.8087310  48.3211766  87.5410033
  19.2997324  40.4161169 101.7987318  18.6237961  40.3155298 102.4689693
  20.1224958  40.2600383 102.2623315  11.0476183  46.6533105  94.4199833
  11.6329620  45.9076793  94.5527738  10.8501021  46.9637062  95.3036497
  13.9014838  49.6884353  89.4362276  13.2325213  50.1730480  88.9526316
  13.7627708  49.9353573  90.3505654   5.6393838  39.2238706  93.1404276
   5.6777937  38.6902296  93.9341395   5.1334130  38.6973911  92.5215254
  18.0420107  51.7228096  96.0344934  18.5938415  51.8859718  96.7994019
  18.3826300  52.3132534  95.3624959  13.0184600  34.0703246  96.6366819
  13.0825926  34.9318077  96.2244216  12.9551720  33.4577248  95.9039177
  12.4936872  36.1426379 100.2839853  13.1208911  35.7603456 100.8977377
  11.6364791  35.9240581 100.6495546  22.8930981  46.5489354 101.8893588
  23.4370885  47.1619312 101.3948543  22.3117826  47.1068932 102.4060601
   9.2702415  37.9502808  86.2158208   9.5655856  37.0413486  86.1625262
   8.3690451  37.9290547  85.8939210  21.1788494  49.6710072  93.0208616
  21.0539633  48.8699812  92.5119562  21.8367585  50.1656265  92.5322586
  12.7996662  36.0258804  92.1985756  12.0783248  36.6394772  92.0593230
  13.5889918  36.5616569  92.1202402  23.2423402  47.4719092  94.6488166
  22.2953738  47.3524443  94.5766493  23.5906175  46.5841590  94.7314428
  15.6022976  33.3613231  98.4726408  16.1257378  33.6075527  99.2352718
  15.3835309  34.1933266  98.0529546  10.9990257  35.6316905  86.3397533
  10.6702963  34.7514284  86.1572639  11.3529627  35.5764574  87.2273922
  20.2469836  47.2671808  90.8492519  20.0994798  46.3388516  91.0300089
  21.0723329  47.2891899  90.3649594  14.1132080  35.9189875  86.7073011
  14.4528152  36.4475796  85.9851619  14.5604200  36.2570281  87.4831577
  23.8503957  48.0900367  91.9357391  24.7750505  47.8843228  91.7981842
  23.6819261  47.8416768  92.8446733  16.8075521  34.3026926  96.1576079
  16.4672341  33.5034739  96.5596759  16.1014527  34.6028637  95.5852912
  17.4591993  31.3876238  94.6103402  18.2818062  30.9136717  94.4882292
  17.7030056  32.1666722  95.1102088  16.1000227  34.4164497  84.9066303
  16.8208590  34.7945750  84.4030020  15.4765531  35.1353374  85.0101281
  20.2431350  35.1209646  85.8424636  20.4594964  36.0034284  85.5413464
  19.7625417  34.7295859  85.1130278  14.9830571  38.0795359  92.4195380
  14.8375152  38.3935662  93.3119662  14.5055775  38.6980259  91.8666279
  16.8426954  35.0697907  92.4676270  16.8288523  34.1739000  92.1308568
  17.5599382  35.0768571  93.1014556  18.6953085  35.5035247  94.5129397
  18.4370863  36.4252318  94.5113728  18.1638125  35.1065682  95.2029861
  23.6399274  48.6086034  87.2919483  23.8136151  48.0432457  86.5393335
  24.1328165  49.4086929  87.1098973   9.4576233  40.6200703  95.3583042
   8.9129702  41.3960511  95.4903316  10.3355583  40.9671508  95.2002163
  16.2463850  33.9512287  87.7363840  16.3679761  33.0228933  87.9354728
  15.9565893  33.9650973  86.8242155  19.1155041  31.6367198  90.8730560
  19.1376737  31.7006531  89.9182539  19.5323100  30.7971706  91.0671066
  29.4938665  41.3722457  88.9109782  29.9369811  40.6229782  88.5128906
  28.6165175  41.3632594  88.5283514  24.6274446  47.9252799  84.3916381
  25.3225351  48.5459491  84.6103696  24.9697596  47.0748150  84.6668759
  10.2442255  39.7470600  98.2513198   9.5023991  39.8953235  98.8377829
   9.9235000  40.0078865  97.3879948  26.5265869  45.3752504  85.9203712
  27.0517193  45.7139777  85.1953032  26.4388222  44.4399520  85.7366846
  18.1885918  49.2886578  98.0493588  18.4973044  49.0435725  98.9216288
  18.9861400  49.4933216  97.5612459  18.2106530  51.4424488  90.2798965
  17.7711520  50.9500866  90.9731822  18.9614647  50.8997455  90.0391040
  10.6898869  47.6336028  90.2823593  11.5156889  47.3339800  89.9022237
  10.3392921  46.8643651  90.7313382  15.6580402  46.9862497  92.3521267
  15.0360411  46.3233202  92.0523495  16.3285269  47.0123628  91.6694914
   8.8907474  45.5522355  91.2412527   8.0539382  45.1244529  91.0596528
   8.8631120  45.7454798  92.1783318  15.7304930  35.4644285 101.9453773
  15.7793085  36.3406407 101.5631542  16.2727444  34.9221678 101.3725416
  26.2159775  46.0085408 101.2254910  25.4255319  45.9909547 100.6859409
  25.9793130  46.5473702 101.9803946  26.3357650  42.8577874  98.5387638
  26.3855655  42.6927882  99.4803161  26.2271574  41.9905133  98.1485519
  15.2193909  45.5366420  85.8279727  15.3682029  46.2201884  85.1746400
  16.0260353  45.5171510  86.3429183  23.6261413  38.8408802  99.8546945
  24.5271276  38.7015267  99.5630943  23.7009387  39.0063257 100.7945122
  17.9604218  36.2175657  98.7000131  17.0907528  36.5109223  98.4282720
  18.1963698  36.8016102  99.4207395  27.8375847  45.2774816  98.7829660
  27.5460656  45.6404796  99.6193121  27.2247979  44.5641824  98.6042992
  29.0371530  42.8427696  91.3032230  29.8718421  43.2817500  91.4669790
  29.1730658  42.3666349  90.4840476  26.0863035  40.4007430  97.2509718
  26.5617157  40.5935077  96.4428569  25.1628601  40.4566616  97.0053101
  12.9746542  41.5631598  86.8340796  12.7292584  40.6593928  87.0321006
  13.1442457  41.5648748  85.8920274  20.6643252  32.4355274  96.2165552
  21.1825196  33.1716301  95.8912040  20.3098385  32.7419267  97.0512311
  12.2442190  37.2959955  84.3326958  11.5511435  37.3704310  83.6766994
  11.9993942  36.5320299  84.8548474  20.9155846  28.8555556  91.7366448
  21.1957600  28.1878746  92.3626875  21.7006453  29.0484652  91.2241112
  18.7189315  48.0314550  83.2991475  18.1463282  48.6504738  82.8461946
  19.2922108  48.5813912  83.8331397  24.7864704  37.2773190  95.4838023
  25.7382127  37.3771288  95.5050247  24.6168155  36.4851459  95.9936108
  22.8079084  34.3628774  95.6697424  22.2129016  34.6433786  94.9743913
  22.5228781  34.8522675  96.4414165  21.9386574  48.3151701  84.4300057
  22.8717248  48.2497262  84.6332932  21.8509787  49.1507967  83.9714590
  24.5674591  47.6317571  81.3904004  24.4888223  47.2977434  82.2839762
  25.3884258  48.1239339  81.3895477  27.2652782  40.4979310  94.5980323
  27.2329102  39.5595311  94.7840007  27.8753406  40.5763347  93.8646148
  19.1036113  39.3675363  80.6407527  20.0495218  39.2381571  80.7095945
  18.7250358  38.6290025  81.1176955  27.4147271  37.2890354  94.6438606
  26.8986319  36.5048810  94.4568535  28.2987219  36.9609070  94.8085126
  25.0757998  31.0331369  90.6034419  24.8782819  30.7246457  91.4877751
  25.6857703  31.7593008  90.7332349  33.0829332  41.5595317  93.7386360
  33.8132721  41.2980605  94.2994063  32.4736278  40.8224039  93.7788428
  31.1644629  39.7003180  94.3360811  30.4377793  39.5659145  93.7277303
  30.7491916  40.0080008  95.1417529  18.9874806  43.4193109 102.1008184
  19.9077815  43.5971708 102.2948231  18.9524389  42.4749155 101.9487883
  17.2879030  37.2925340  80.5762412  16.3810486  36.9958452  80.6525126
  17.5655011  36.9955158  79.7096699   8.2056971  38.6131703  91.0261459
   7.8859755  37.7597011  90.7335833   7.6590399  38.8280281  91.7819426
  11.9836878  41.3294144  94.7430965  12.2022888  42.2611252  94.7618999
  12.3962652  40.9702118  95.5285769  18.9041096  31.8362229  86.7306654
  18.0941824  31.4909314  87.1061900  19.5925513  31.5269773  87.3194265
  20.8331644  30.9140276  88.3530950  21.3862683  31.3335729  89.0120973
  21.0701731  29.9876024  88.3953906  16.8564744  36.9027350 104.1333714
  16.7561470  37.8521707 104.0645805  16.6386286  36.5745589 103.2609784
  16.0577815  34.1512275  80.7174392  16.9196979  34.4767173  80.9770209
  16.2428159  33.3643771  80.2047457   8.0745231  42.2334614  92.9954580
   7.3808702  41.8188567  92.4824535   8.8218222  42.2755151  92.3987999
  24.2110451  33.0240801  87.8609615  23.6309120  33.6825605  87.4787667
  23.9446384  32.2018146  87.4497032  22.6614018  32.4245859  90.0630935
  23.1613796  32.5362393  89.2545254  23.3049626  32.1206912  90.7031743
  16.7196014  40.3324489 102.9498776  16.2363095  41.1324849 103.1562665
  16.8056953  40.3432433 101.9966220   9.9881973  42.1652868  90.8720595
   9.9652661  42.2640555  89.9202478  10.2982610  43.0118019  91.1937761
  12.6469351  44.2229023  94.9867210  13.6012605  44.1912966  94.9197141
  12.4481875  43.7619647  95.8017436  13.2368733  42.7930139  97.5538007
  14.0561622  43.2874218  97.5772845  13.5105541  41.8762107  97.5255575
  22.9935329  35.1840892  86.9165963  22.1061184  35.4690542  86.6986158
  23.4089318  35.0234655  86.0693240  26.3449866  35.2087413  90.6320302
  27.1210256  35.6983865  90.9044919  25.6198000  35.6345467  91.0892172
  28.7822424  35.9215032  91.6894243  29.3766915  35.6810768  90.9787551
  28.8549008  35.2022162  92.3167779  11.0019580  49.7648643  92.0037407
  10.8674048  49.0049044  91.4375406  10.5851642  50.4889543  91.5366196
  22.1378543  44.9485566  81.0113983  22.8414393  45.1535569  81.6271638
  21.4141192  45.5162328  81.2763066  22.9676353  40.6995428  87.1316253
  22.9111555  41.1563979  86.2923885  23.5204696  39.9386112  86.9539096
  26.7781159  36.4885159  87.9566372  26.5218093  36.0881795  88.7874580
  26.1534027  37.2028953  87.8316512  14.1588706  50.6617960  92.2155850
  14.0421090  51.6063392  92.1134540  13.3381152  50.3591521  92.6041649
  24.0465240  45.3868095  83.0612443  24.8810844  44.9549294  82.8789918
  23.8849583  45.2150109  83.9889337  23.7011132  41.8900209  84.4268782
  23.6459936  41.7244480  83.4857226  23.0757188  42.5976242  84.5830972
   8.4903647  37.1268273  98.2530204   9.1362511  36.6167227  98.7417430
   8.2820799  37.8636955  98.8273630  21.0157040  44.1949121 103.7522345
  21.8848199  44.3689773 103.3908980  20.5363791  45.0143537 103.6298074
  17.0107258  31.3908318  84.0054101  16.9985928  32.3350158  84.1622371
  17.9030680  31.2078463  83.7113562  15.1843220  51.3146222  95.4311779
  16.0870467  51.3469832  95.7478274  14.9580590  50.3846673  95.4458114
  16.9396822  50.0677208  92.0921857  15.9892453  50.0679070  91.9786229
  17.2429308  49.3209943  91.5757892  20.8259377  27.9851094  88.2600037
  20.0591773  27.4309581  88.4056720  21.2370082  28.0572963  89.1214189
  12.8301138  34.2735890 102.3505219  13.6932600  33.9172695 102.5608543
  12.2566549  33.9349785 103.0380623  32.6749515  55.9037747  93.1567620
  33.3127925  55.7844494  92.4530960  32.5570358  56.8518591  93.2155572
  29.4839222  55.8565175  93.0929144  29.1457733  55.7406239  92.2049679
  30.3528990  55.4556340  93.0730150  25.3426037  57.7100651  89.0826035
  24.7790902  57.6190588  88.3142323  25.2278432  56.8900556  89.5628528
  29.9659005  57.0100026  99.0515350  29.9547645  56.6152825  98.1795853
  30.1279644  56.2766099  99.6449121  22.8890469  59.2051843  91.9210256
  23.6811761  58.8642667  91.5056555  23.1287119  59.3146818  92.8412409
  30.9225596  61.3771619  84.3940500  30.2713576  61.9625699  84.0074514
  31.7169959  61.9077814  84.4535538  24.8481223  58.4660756  84.7927634
  25.6212099  57.9189743  84.6540510  25.2006622  59.3305005  85.0042096
  26.6866266  59.7937138  97.9994534  26.3956132  60.6982769  97.8841200
  27.3223250  59.8353666  98.7138603  27.6122473  57.1713987  94.5895893
  28.2086045  56.9470009  93.8752856  27.6697444  56.4298732  95.1921341
  27.1847501  54.6253422  82.4246084  27.4373022  54.1034943  81.6629547
  26.2472060  54.4619567  82.5272768  32.2290784  53.6289200  90.2320828
  33.0153873  53.2108624  89.8811245  32.4929488  54.5335293  90.4002476
  32.4000861  59.0662051  84.9309484  31.7646694  59.1396677  85.6430389
  32.0698268  59.6555650  84.2528564  26.9043790  56.5281528  84.6270459
  26.7880048  55.8526431  85.2951544  27.0146050  56.0413902  83.8102612
  29.2475331  55.9891675  88.3317149  28.8833538  55.4622296  89.0430070
  30.1042447  55.5990144  88.1583634  35.1524631  47.2786008  95.5948415
  34.8207956  48.1481419  95.3709630  34.5570245  46.9622292  96.2742445
  28.8880818  51.0181575  83.3278497  29.0555220  51.8861811  83.6948968
  28.6977987  51.1808857  82.4039786  31.6456151  59.4798554  94.9944327
  31.3456874  60.3823593  94.8860135  31.3007210  59.2130737  95.8465480
  25.0968632  55.9312351  91.0281032  24.1719129  55.7988565  91.2358724
  25.3453046  56.7106570  91.5250974  35.0453295  51.9981094  92.6741765
  34.1370172  51.9296502  92.3800526  34.9940890  52.4753039  93.5023590
  28.8670039  53.4739232  84.3125164  28.7469664  53.9196283  85.1510644
  28.1722627  53.8224550  83.7538702  22.4577443  55.5745624  91.8624821
  22.5869825  55.8280103  92.7764233  21.7774895  56.1673332  91.5429476
  26.6276931  66.2442874  87.9615295  26.5500960  67.1950699  88.0403776
  26.0238574  65.8988747  88.6190221  29.1194160  53.4170739 100.6176662
  28.3427494  53.9764660 100.6079527  29.7584723  53.9027522 101.1391532
  36.9114941  50.1997532  94.4519639  36.2689321  50.4930065  93.8059433
  36.4069870  50.0850453  95.2572835  34.5655105  53.9460705  85.1405498
  35.4772961  54.1788092  84.9653196  34.0564752  54.5297750  84.5780577
  27.3740533  56.2256193 100.1794629  28.1155217  56.7641237  99.9029453
  26.6677518  56.8522482 100.3366181  32.8495872  58.3685333  98.7766791
  33.2579228  57.9267744  98.0321423  32.1273134  57.7937961  99.0300983
  29.2026942  53.3057940  96.1500348  30.0488138  53.7297354  96.2934997
  29.1425580  52.6491564  96.8438911  33.1724687  58.9286524  92.5319079
  32.5433549  59.0932238  91.8295147  32.7850349  59.3428133  93.3030043
  37.0513919  59.8640962  89.8863443  36.3664957  60.2439863  89.3360477
  37.1357768  60.4736288  90.6195391  32.3526388  50.9662308  97.8081521
  32.1087320  51.7204369  97.2715797  32.6286318  51.3447656  98.6428768
  34.3064851  57.5100921  96.4858787  34.5181746  58.1532681  95.8093168
  34.2594599  56.6763237  96.0180717  31.9091079  50.1218741  93.3895359
  31.0475559  50.4199995  93.6812096  31.9353514  50.3389140  92.4576391
  28.7252649  58.6660932  89.7969165  29.1890994  58.9448635  89.0073787
  28.4609447  57.7644377  89.6142255  25.6176730  58.2132414  92.7348928
  26.1878087  58.6419682  92.0966412  26.2084842  57.9314998  93.4333113
  27.6621535  54.7884084  86.6058730  28.3645578  55.2405128  87.0732656
  27.3302163  54.1467903  87.2338623  26.1101896  53.3795841 100.9809939
  25.4800557  54.0612122 101.2145336  26.0037984  53.2678923 100.0363077
  21.4046869  53.0467637  91.9075863  20.6145923  53.3025166  91.4315974
  21.8958116  53.8615975  92.0127904  35.4210678  60.3872876  94.6581144
  36.2428122  59.9853064  94.3763826  35.4173081  60.2841110  95.6097260
  23.3561614  53.4112216  88.8659340  22.5592778  53.5230911  89.3842836
  23.1287207  53.7498869  88.0000230  29.1867282  59.9356920  96.8141855
  29.2511714  60.3977327  97.6500026  28.4778206  59.3054284  96.9424164
  19.6884572  53.2998128  94.3390854  19.9392610  54.1845137  94.6048430
  20.2244120  53.1202729  93.5665946  28.9015300  61.6025027  86.6820835
  28.7660974  62.4476563  87.1105683  29.4425112  61.8044305  85.9186769
  25.3882639  47.6816607 103.3435190  24.9949585  47.1282805 104.0182834
  26.2048780  47.9927185 103.7341708  22.3544697  59.1200465  87.2548760
  22.8669218  59.9143715  87.4054325  23.0067410  58.4226756  87.1882361
  24.1639582  62.2366221  89.3371513  24.3406210  63.1584186  89.1492497
  24.9596415  61.9224641  89.7665893  28.3050600  49.0974486 100.9355447
  29.0460314  49.6981639 100.8559909  28.5368523  48.3552124 100.3773489
  23.4491938  54.2830853  99.2133676  23.3345453  53.3816110  99.5140775
  22.5936456  54.5294550  98.8618493  30.5283776  62.2248594 100.8121177
  30.0847630  61.4384972 100.4942081  31.1900990  62.4127744 100.1465068
  25.2870897  63.7544395  95.3381855  25.8378322  63.6261458  94.5658849
  24.4482373  64.0539284  94.9876748  32.6265014  62.5051393  98.8402578
  32.6083489  63.3260274  98.3482847  33.5484934  62.3805469  99.0652719
  29.0838068  60.0195523  99.6826087  29.6166405  59.2583811  99.4525395
  28.5552149  59.7269175 100.4250241  32.2507763  45.1255589  95.2119728
  31.9072033  46.0157231  95.1358839  32.6186726  44.9357247  94.3489313
  20.3193614  57.4489119  88.0308331  21.1568836  57.8586128  87.8142038
  20.4971881  56.5088562  88.0008524  32.2158046  55.1164200  83.7192163
  31.7004669  55.8868805  83.9580551  31.9435354  54.4429336  84.3425225
  29.8005157  49.9613901  88.7777402  28.9446753  49.5720751  88.5983041
  30.2132109  50.0405862  87.9177187  31.3304304  47.4960244  93.1768962
  30.8269099  47.4590379  92.3636767  31.6234910  48.4052987  93.2365618
  27.5747189  47.5798974  92.1835143  28.4400186  47.3841782  91.8241033
  27.6424698  47.3509326  93.1104500  37.1892320  57.8696555  85.6545337
  36.4121763  57.5307714  85.2100499  37.8683801  57.8749178  84.9800302
  32.0044349  52.9891292  85.5451945  31.6994485  53.3037441  86.3962088
  32.9574791  53.0672712  85.5879278  30.4490781  59.1481515  87.1944899
  29.9212142  58.4134275  86.8818136  29.9478284  59.9256192  86.9484867
  35.4283627  57.3430536  92.3111945  34.7707301  58.0329797  92.3992074
  36.2324026  57.7326968  92.6545931  25.1809508  49.8101182  89.5551510
  25.7553260  49.5876363  88.8224703  25.7680491  49.8789876  90.3080111
  34.2389086  55.6974909  90.3615887  34.7520967  56.3304900  90.8637596
  34.8890310  55.0976104  89.9959247  25.5079096  51.8405643  83.5747395
  24.6716408  52.1780329  83.8956670  25.3683865  51.7054623  82.6374532
  27.4832176  46.6842431  88.2826580  26.8296589  46.3691448  87.6583194
  27.4412650  46.0618171  89.0086403  28.5943381  56.9661726  80.1979872
  27.6870443  56.7350979  80.3971021  29.0914413  56.1699345  80.3853853
  31.5011460  65.6759233  83.1176558  30.8273159  65.9790930  83.7261516
  31.8877282  66.4788313  82.7682015  30.7169917  53.1724364  92.6074227
  29.7992478  53.3939311  92.4495915  31.1330060  53.2470675  91.7485935
  31.5004964  54.5715780  87.7376907  32.2476783  55.0837177  87.4284030
  31.7696554  54.2499833  88.5981301  29.7731615  57.0674321  84.7203862
  28.8642834  56.7833353  84.8176331  29.8026698  57.4873399  83.8607169
  35.0050882  60.6780910  88.4895029  34.5513209  59.8371820  88.5460220
  34.3744849  61.3142308  88.8269809  33.9483801  51.6072896  89.7195697
  33.2106558  51.0950282  90.0505939  34.2010575  51.1673278  88.9078974
  33.4483821  62.5157407  89.4244847  33.7406796  63.0762464  88.7057213
  33.9582442  62.8085968  90.1798007  20.3419785  54.7879835  88.7019064
  20.1444185  54.1949195  87.9770131  19.7866449  54.4832045  89.4195003
  28.3216509  54.6802941  90.8213657  28.3765118  53.7276778  90.7456134
  27.5107711  54.8362380  91.3054956  29.4707702  58.6083064  82.0591940
  29.0327132  57.8918923  81.5997578  30.2118143  58.8359179  81.4977032
  26.2608868  53.2980001  88.5804036  25.4476734  53.5974171  88.9869228
  26.7567863  52.9035690  89.2978518  28.4117446  63.2937758  90.5138301
  28.3693625  63.5198604  89.5846833  29.3280145  63.0601132  90.6624102
  31.8583080  53.7621825  97.4118930  32.2132468  53.9893299  98.2713396
  32.5055211  54.0940202  96.7896185  25.7522943  50.8698356  94.1965271
  26.3922323  50.7287116  93.4988234  24.9200474  50.5832870  93.8203873
  37.6150197  58.9516788  93.1279530  38.0486703  58.8592077  93.9762584
  38.3281777  58.9274289  92.4899546  26.5283247  60.1700787  90.3100263
  27.3223846  59.6751107  90.1082838  25.8174940  59.6418650  89.9467969
  31.3478092  62.5518882  94.6612631  31.4015114  63.1209819  95.4290347
  30.4792873  62.7220767  94.2966668  22.8366011  54.3143869  86.3860016
  21.9063599  54.2528324  86.6029978  22.9323483  53.7919821  85.5896657
  22.7551560  50.8398681  88.9738258  23.0158377  51.7544015  88.8647418
  23.5768732  50.3723124  89.1234871  24.2276485  52.2536439  96.1437082
  24.8999538  52.0453801  95.4949731  23.4006272  52.0558525  95.7042315
  38.4765746  58.9940489  95.6612416  38.6701636  59.8986299  95.9071691
  38.3766364  58.5347908  96.4951001  30.1302057  48.8798379  98.1602743
  29.4829972  49.5788329  98.0667220  30.9003072  49.3134523  98.5278991
  33.5380855  59.1447232 101.2353296  33.3866361  58.9157783 100.3183380
  33.5285534  60.1017833 101.2484641  30.3066191  56.7179144  96.2199563
  31.2358251  56.8690304  96.0468530  29.8857221  56.8063165  95.3648209
  29.1054523  60.7429809  93.9898100  28.9665609  60.3748593  94.8624039
  28.3169119  61.2577448  93.8182058  29.7002675  65.8438905  85.3323637
  29.8754431  65.3726948  86.1469260  29.0135463  66.4704671  85.5604898
  30.6559738  60.1211412  91.3786938  30.3209571  60.0812181  92.2744588
  30.1563684  59.4556127  90.9057348  24.6303982  55.5279042  96.9039519
  24.4923780  54.7959280  97.5051058  25.5408906  55.4387942  96.6223707
  33.5918930  57.4667446  81.6523998  32.9748101  56.7414274  81.5557051
  33.1235418  58.2276806  81.3091072  27.2586283  55.2399001  96.3923199
  27.9685901  54.5992193  96.3509817  27.2155591  55.4911896  97.3149380
  35.2473062  62.1766354  99.3129778  35.1885608  61.4925574  98.6460361
  35.6492580  62.9185344  98.8610404  25.9715217  52.2264219  98.2118839
  25.4352574  51.7754957  98.8640435  25.3831925  52.3610128  97.4689303
  24.2663760  68.9928268  92.1063497  24.5060359  69.6246792  92.7842516
  23.4232957  68.6416308  92.3928856  25.3817476  51.6852870  80.7745302
  24.5046942  51.5641671  80.4107549  25.8575229  50.8938948  80.5224191
  35.2490469  60.1405938  97.5443758  34.3617248  59.8031860  97.6670157
  35.8189020  59.4088969  97.7812523  16.9019616  56.4730030  90.8686809
  17.5890656  56.1591760  90.2807825  16.7467745  57.3771395  90.5954061
  21.7054338  51.3620226  95.2971833  21.6212527  50.7545896  94.5622243
  20.8837045  51.8529245  95.2981329  28.7791622  64.8007390  94.5105001
  28.7061794  65.6062362  95.0224306  28.3369015  64.9999356  93.6853023
  28.5681402  64.0379161  88.0207823  27.7848924  64.5800841  88.1146047
  29.2674147  64.5553140  88.4202064  31.8778052  49.8473790  90.6642028
  32.3746752  49.0943752  90.3443098  31.1065033  49.8838107  90.0985237
  31.2390306  64.6994225  96.6663160  31.9518278  65.3341689  96.5939061
  30.7480334  64.7958091  95.8503162  32.9607833  58.6045477  88.2380451
  32.0264111  58.7246940  88.0685156  33.1384501  57.7017944  87.9740461
  28.4613021  51.9891173  90.3913713  28.0910808  51.4362213  91.0794618
  28.9572113  51.3849306  89.8388713  26.2902219  62.4488668  97.4868731
  26.9911679  63.0825151  97.6398125  25.8197334  62.7903400  96.7264370
  34.4156615  60.7906618  85.7716638  34.6916459  60.6763212  86.6810512
  33.5461114  60.3924103  85.7328811  34.0903505  55.0033275  95.3121281
  33.4374956  55.2509183  94.6573734  34.4683885  54.1897414  94.9783758
  31.0510679  65.0392969  89.4149451  31.2333074  64.2214625  89.8777204
  31.8743665  65.2560661  88.9774341  31.3852845  63.9661154  86.6764500
  31.9140611  63.4553608  86.0634662  31.6481064  63.6503684  87.5410033
  30.1391078  55.7453086 101.7987318  29.4631715  55.6447216 102.4689693
  30.9618712  55.5892300 102.2623315  21.8869937  61.9825023  94.4199833
  22.4723374  61.2368711  94.5527738  21.6894776  62.2928980  95.3036497
  24.7408593  65.0176270  89.4362276  24.0718968  65.5022398  88.9526316
  24.6021462  65.2645491  90.3505654  16.4787592  54.5530623  93.1404276
  16.5171692  54.0194214  93.9341395  15.9727885  54.0265829  92.5215254
  28.8813861  67.0520014  96.0344934  29.4332169  67.2151635  96.7994019
  29.2220055  67.6424452  95.3624959  23.8578354  49.3995164  96.6366819
  23.9219681  50.2609995  96.2244216  23.7945475  48.7869165  95.9039177
  23.3330627  51.4718296 100.2839853  23.9602666  51.0895374 100.8977377
  22.4758546  51.2532498 100.6495546  33.7324735  61.8781271 101.8893588
  34.2764639  62.4911230 101.3948543  33.1511580  62.4360850 102.4060601
  20.1096170  53.2794725  86.2158208  20.4049611  52.3705404  86.1625262
  19.2084205  53.2582465  85.8939210  32.0182248  65.0001989  93.0208616
  31.8933388  64.1991729  92.5119562  32.6761340  65.4948183  92.5322586
  23.6390417  51.3550722  92.1985756  22.9177002  51.9686690  92.0593230
  24.4283672  51.8908487  92.1202402  34.0817157  62.8011010  94.6488166
  33.1347492  62.6816361  94.5766493  34.4299930  61.9133508  94.7314428
  26.4416730  48.6905148  98.4726408  26.9651132  48.9367445  99.2352718
  26.2229063  49.5225183  98.0529546  21.8384011  50.9608823  86.3397533
  21.5096717  50.0806202  86.1572639  22.1923382  50.9056492  87.2273922
  31.0863590  62.5963726  90.8492519  30.9388553  61.6680433  91.0300089
  31.9117084  62.6183816  90.3649594  24.9525834  51.2481793  86.7073011
  25.2921907  51.7767714  85.9851619  25.3997955  51.5862199  87.4831577
  34.6897712  63.4192285  91.9357391  35.6144259  63.2135146  91.7981842
  34.5213015  63.1708686  92.8446733  27.6469275  49.6318844  96.1576079
  27.3066096  48.8326657  96.5596759  26.9408282  49.9320554  95.5852912
  28.2985747  46.7168156  94.6103402  29.1211816  46.2428634  94.4882292
  28.5423811  47.4958640  95.1102088  26.9393982  49.7456414  84.9066303
  27.6602344  50.1237667  84.4030020  26.3159286  50.4645291  85.0101281
  25.8224326  53.4087277  92.4195380  25.6768907  53.7227580  93.3119662
  25.3449529  54.0272177  91.8666279  27.6820709  50.3989825  92.4676270
  27.6682277  49.5030918  92.1308568  28.3993137  50.4060488  93.1014556
  29.5346839  50.8327165  94.5129397  29.2764617  51.7544235  94.5113728
  29.0031880  50.4357599  95.2029861  34.4793028  63.9377952  87.2919483
  34.6529906  63.3724374  86.5393335  34.9721919  64.7378847  87.1098973
  20.2969988  55.9492621  95.3583042  19.7523456  56.7252429  95.4903316
  21.1749338  56.2963426  95.2002163  27.0857605  49.2804205  87.7363840
  27.2073516  48.3520851  87.9354728  26.7959647  49.2942891  86.8242155
  29.9548795  46.9659115  90.8730560  29.9770492  47.0298448  89.9182539
  30.3716854  46.1263624  91.0671066  35.4668201  63.2544716  84.3916381
  36.1619105  63.8751409  84.6103696  35.8091351  62.4040068  84.6668759
  21.0836010  55.0762517  98.2513198  20.3417746  55.2245153  98.8377829
  20.7628754  55.3370783  97.3879948  37.3659624  60.7044422  85.9203712
  37.8910948  61.0431695  85.1953032  37.2781976  59.7691437  85.7366846
  29.0279672  64.6178496  98.0493588  29.3366799  64.3727642  98.9216288
  29.8255155  64.8225134  97.5612459  29.0500285  66.7716405  90.2798965
  28.6105275  66.2792784  90.9731822  29.8008401  66.2289373  90.0391040
  21.5292624  62.9627946  90.2823593  22.3550643  62.6631718  89.9022237
  21.1786676  62.1935568  90.7313382  26.4974157  62.3154414  92.3521267
  25.8754166  61.6525119  92.0523495  27.1679024  62.3415546  91.6694914
  19.7301229  60.8814272  91.2412527  18.8933137  60.4536447  91.0596528
  19.7024874  61.0746716  92.1783318  26.5698684  50.7936202 101.9453773
  26.6186840  51.6698325 101.5631542  27.1121198  50.2513595 101.3725416
  37.0553530  61.3377326 101.2254910  36.2649074  61.3201464 100.6859409
  36.8186884  61.8765619 101.9803946  37.1751405  58.1869792  98.5387638
  37.2249410  58.0219799  99.4803161  37.0665328  57.3197051  98.1485519
  26.0587664  60.8658338  85.8279727  26.2075784  61.5493802  85.1746400
  26.8654107  60.8463428  86.3429183  34.4655167  54.1700720  99.8546945
  35.3665030  54.0307185  99.5630943  34.5403142  54.3355175 100.7945122
  28.7997973  51.5467575  98.7000131  27.9301282  51.8401141  98.4282720
  29.0357453  52.1308020  99.4207395  38.6769602  60.6066733  98.7829660
  38.3854410  60.9696714  99.6193121  38.0641733  59.8933742  98.6042992
  36.9256790  55.7299348  97.2509718  37.4010912  55.9226994  96.4428569
  36.0022355  55.7858534  97.0053101  23.8140297  56.8923515  86.8340796
  23.5686339  55.9885845  87.0321006  23.9836211  56.8940666  85.8920274
  31.5037006  47.7647192  96.2165552  32.0218950  48.5008219  95.8912040
  31.1492139  48.0711185  97.0512311  23.0835944  52.6251873  84.3326958
  22.3905189  52.6996228  83.6766994  22.8387696  51.8612216  84.8548474
  31.7549601  44.1847474  91.7366448  32.0351354  43.5170663  92.3626875
  32.5400208  44.3776570  91.2241112  29.5583069  63.3606468  83.2991475
  28.9857036  63.9796655  82.8461946  30.1315863  63.9105830  83.8331397
  35.6258459  52.6065108  95.4838023  36.5775882  52.7063206  95.5050247
  35.4561909  51.8143377  95.9936108  33.6472838  49.6920691  95.6697424
  33.0522771  49.9725704  94.9743913  33.3622535  50.1814592  96.4414165
  32.7780329  63.6443618  84.4300057  33.7111002  63.5789180  84.6332932
  32.6903542  64.4799885  83.9714590  35.4068346  62.9609489  81.3904004
  35.3281977  62.6269352  82.2839762  36.2278012  63.4531256  81.3895477
  38.1046537  55.8271228  94.5980323  38.0722857  54.8887229  94.7840007
  38.7147160  55.9055265  93.8646148  29.9429868  54.6967281  80.6407527
  30.8888972  54.5673489  80.7095945  29.5644113  53.9581943  81.1176955
  38.2541025  52.6182271  94.6438606  37.7380074  51.8340728  94.4568535
  39.1380974  52.2900988  94.8085126  29.8268560  58.7485027 102.1008184
  30.7471570  58.9263626 102.2948231  29.7918143  57.8041072 101.9487883
  28.1272785  52.6217257  80.5762412  27.2204240  52.3250370  80.6525126
  28.4048766  52.3247075  79.7096699  19.0450725  53.9423621  91.0261459
  18.7253510  53.0888929  90.7335833  18.4984153  54.1572199  91.7819426
  22.8230633  56.6586062  94.7430965  23.0416642  57.5903169  94.7618999
  23.2356407  56.2994036  95.5285769  29.7434851  47.1654147  86.7306654
  28.9335579  46.8201232  87.1061900  30.4319267  46.8561691  87.3194265
  31.6725399  46.2432194  88.3530950  32.2256437  46.6627647  89.0120973
  31.9095485  45.3167942  88.3953906  27.6958498  52.2319267 104.1333714
  27.5955225  53.1813624 104.0645805  27.4780040  51.9037506 103.2609784
  26.8971569  49.4804192  80.7174392  27.7590733  49.8059091  80.9770209
  27.0821914  48.6935688  80.2047457  18.9138985  57.5626532  92.9954580
  18.2202457  57.1480485  92.4824535  19.6611976  57.6047069  92.3987999
  27.5589768  55.6616406 102.9498776  27.0756850  56.4616766 103.1562665
  27.6450707  55.6724351 101.9966220  20.8275728  57.4944786  90.8720595
  20.8046416  57.5932473  89.9202478  21.1376364  58.3409937  91.1937761
  23.4863106  59.5520941  94.9867210  24.4406359  59.5204883  94.9197141
  23.2875629  59.0911565  95.8017436  24.0762488  58.1222057  97.5538007
  24.8955377  58.6166136  97.5772845  24.3499295  57.2054025  97.5255575
  21.8413334  65.0940560  92.0037407  21.7067802  64.3340961  91.4375406
  21.4245397  65.8181460  91.5366196  32.9772297  60.2777484  81.0113983
  33.6808147  60.4827486  81.6271638  32.2534946  60.8454246  81.2763066
  33.8070108  56.0287345  87.1316253  33.7505309  56.4855897  86.2923885
  34.3598450  55.2678030  86.9539096  24.9982460  65.9909877  92.2155850
  24.8814844  66.9355310  92.1134540  24.1774906  65.6883439  92.6041649
  34.8858995  60.7160013  83.0612443  35.7204599  60.2841212  82.8789918
  34.7243338  60.5442027  83.9889337  34.5404887  57.2192126  84.4268782
  34.4853691  57.0536398  83.4857226  33.9150942  57.9268159  84.5830972
  19.3297402  52.4560191  98.2530204  19.9756266  51.9459145  98.7417430
  19.1214553  53.1928872  98.8273630  31.8550794  59.5241038 103.7522345
  32.7241954  59.6981691 103.3908980  31.3757546  60.3435455 103.6298074
  27.8501012  46.7200235  84.0054101  27.8379682  47.6642075  84.1622371
  28.7424434  46.5370381  83.7113562  26.0236974  66.6438139  95.4311779
  26.9264221  66.6761750  95.7478274  25.7974344  65.7138590  95.4458114
  27.7790576  65.3969126  92.0921857  26.8286207  65.3970987  91.9786229
  28.0823063  64.6501860  91.5757892  31.6653132  43.3143012  88.2600037
  30.8985528  42.7601499  88.4056720  32.0763837  43.3864881  89.1214189
  23.6694893  49.6027808 102.3505219  24.5326354  49.2464613 102.5608543
  23.0960304  49.2641703 103.0380623  43.5143270  71.2329664  93.1567620
  44.1521680  71.1136412  92.4530960  43.3964113  72.1810508  93.2155572
  40.3232976  71.1857092  93.0929144  39.9851488  71.0698157  92.2049679
  41.1922744  70.7848257  93.0730150  36.1819792  73.0392569  89.0826035
  35.6184657  72.9482506  88.3142323  36.0672187  72.2192473  89.5628528
  40.8052759  72.3391944  99.0515350  40.7941400  71.9444742  98.1795853
  40.9673399  71.6058017  99.6449121  33.7284224  74.5343760  91.9210256
  34.5205516  74.1934585  91.5056555  33.9680874  74.6438735  92.8412409
  41.7619351  76.7063536  84.3940500  41.1107330  77.2917617  84.0074514
  42.5563713  77.2369731  84.4535538  35.6874978  73.7952674  84.7927634
  36.4605854  73.2481661  84.6540510  36.0400377  74.6596923  85.0042096
  37.5260020  75.1229056  97.9994534  37.2349886  76.0274687  97.8841200
  38.1617005  75.1645583  98.7138603  38.4516227  72.5005904  94.5895893
  39.0479799  72.2761927  93.8752856  38.5091199  71.7590650  95.1921341
  38.0241256  69.9545340  82.4246084  38.2766776  69.4326861  81.6629547
  37.0865815  69.7911485  82.5272768  43.0684538  68.9581118  90.2320828
  43.8547628  68.5400541  89.8811245  43.3323243  69.8627210  90.4002476
  43.2394616  74.3953968  84.9309484  42.6040449  74.4688595  85.6430389
  42.9092022  74.9847567  84.2528564  48.4692965  68.8956351  91.1353806
  49.2018137  68.3255568  91.3691636  47.7132321  68.5077952  91.5760312
  37.7437544  71.8573446  84.6270459  37.6273802  71.1818349  85.2951544
  37.8539804  71.3705820  83.8102612  40.0869085  71.3183593  88.3317149
  39.7227292  70.7914214  89.0430070  40.9436201  70.9282062  88.1583634
  39.7274572  66.3473492  83.3278497  39.8948975  67.2153729  83.6948968
  39.5371741  66.5100774  82.4039786  42.4849905  74.8090471  94.9944327
  42.1850628  75.7115510  94.8860135  42.1400965  74.5422655  95.8465480
  35.9362387  71.2604268  91.0281032  35.0112883  71.1280482  91.2358724
  36.1846800  72.0398487  91.5250974  45.8847049  67.3273012  92.6741765
  44.9763926  67.2588420  92.3800526  45.8334645  67.8044957  93.5023590
  39.7063793  68.8031150  84.3125164  39.5863418  69.2488201  85.1510644
  39.0116381  69.1516468  83.7538702  33.2971198  70.9037542  91.8624821
  33.4263579  71.1572021  92.7764233  32.6168649  71.4965250  91.5429476
  37.4670685  81.5734792  87.9615295  37.3894715  82.5242617  88.0403776
  36.8632329  81.2280664  88.6190221  39.9587915  68.7462657 100.6176662
  39.1821249  69.3056577 100.6079527  40.5978478  69.2319440 101.1391532
  47.7508696  65.5289450  94.4519639  47.1083076  65.8221983  93.8059433
  47.2463624  65.4142370  95.2572835  45.4048859  69.2752623  85.1405498
  46.3166715  69.5080010  84.9653196  44.8958506  69.8589667  84.5780577
  38.2134287  71.5548111 100.1794629  38.9548972  72.0933154  99.9029453
  37.5071273  72.1814399 100.3366181  43.6889627  73.6977251  98.7766791
  44.0972983  73.2559662  98.0321423  42.9666888  73.1229879  99.0300983
  40.0420697  68.6349858  96.1500348  40.8881892  69.0589271  96.2934997
  39.9819335  67.9783482  96.8438911  44.0118442  74.2578442  92.5319079
  43.3827304  74.4224156  91.8295147  43.6244104  74.6720051  93.3030043
  47.8907673  75.1932879  89.8863443  47.2058712  75.5731781  89.3360477
  47.9751523  75.8028206  90.6195391  43.1920142  66.2954226  97.8081521
  42.9481074  67.0496287  97.2715797  43.4680073  66.6739574  98.6428768
  45.1458605  72.8392838  96.4858787  45.3575500  73.4824598  95.8093168
  45.0988353  72.0055155  96.0180717  42.7484834  65.4510659  93.3895359
  41.8869313  65.7491913  93.6812096  42.7747269  65.6681058  92.4576391
  39.5646403  73.9952850  89.7969165  40.0284749  74.2740553  89.0073787
  39.3003202  73.0936294  89.6142255  36.4570484  73.5424331  92.7348928
  37.0271842  73.9711600  92.0966412  37.0478596  73.2606916  93.4333113
  38.5015289  70.1176002  86.6058730  39.2039333  70.5697046  87.0732656
  38.1695918  69.4759821  87.2338623  36.9495651  68.7087759 100.9809939
  36.3194312  69.3904040 101.2145336  36.8431739  68.5970840 100.0363077
  32.2440623  68.3759555  91.9075863  31.4539677  68.6317083  91.4315974
  32.7351871  69.1907893  92.0127904  46.2604433  75.7164794  94.6581144
  47.0821877  75.3144981  94.3763826  46.2566836  75.6133028  95.6097260
  34.1955369  68.7404134  88.8659340  33.3986532  68.8522828  89.3842836
  33.9680961  69.0790786  88.0000230  40.0261036  75.2648837  96.8141855
  40.0905469  75.7269244  97.6500026  39.3171960  74.6346202  96.9424164
  30.5278326  68.6290045  94.3390854  30.7786365  69.5137055  94.6048430
  31.0637875  68.4494647  93.5665946  54.3510426  72.0603542  91.0066116
  53.5974134  71.4910940  90.8510120  54.4857967  72.0266207  91.9536750
  39.7409054  76.9316945  86.6820835  39.6054729  77.7768480  87.1105683
  40.2818867  77.1336222  85.9186769  36.2276394  63.0108525 103.3435190
  35.8343339  62.4574723 104.0182834  37.0442534  63.3219103 103.7341708
  33.1938451  74.4492383  87.2548760  33.7062972  75.2435633  87.4054325
  33.8461164  73.7518673  87.1882361  35.0033336  77.5658139  89.3371513
  35.1799964  78.4876104  89.1492497  35.7990170  77.2516558  89.7665893
  39.1444355  64.4266404 100.9355447  39.8854068  65.0273557 100.8559909
  39.3762278  63.6844041 100.3773489  34.2885693  69.6122771  99.2133676
  34.1739208  68.7108028  99.5140775  33.4330210  69.8586468  98.8618493
  41.3677530  77.5540511 100.8121177  40.9241385  76.7676890 100.4942081
  42.0294744  77.7419662 100.1465068  36.1264652  79.0836313  95.3381855
  36.6772077  78.9553376  94.5658849  35.2876128  79.3831202  94.9876748
  43.4658769  77.8343311  98.8402578  43.4477244  78.6552192  98.3482847
  44.3878689  77.7097386  99.0652719  39.9231823  75.3487441  99.6826087
  40.4560159  74.5875729  99.4525395  39.3945904  75.0561092 100.4250241
  31.1587368  72.7781037  88.0308331  31.9962590  73.1878045  87.8142038
  31.3365636  71.8380479  88.0008524  43.0551800  70.4456118  83.7192163
  42.5398424  71.2160722  83.9580551  42.7829109  69.7721254  84.3425225
  40.6398911  65.2905818  88.7777402  39.7840508  64.9012669  88.5983041
  41.0525863  65.3697779  87.9177187  42.1698058  62.8252162  93.1768962
  41.6662854  62.7882297  92.3636767  42.4628665  63.7344904  93.2365618
  38.4140944  62.9090891  92.1835143  39.2793941  62.7133700  91.8241033
  38.4818453  62.6801243  93.1104500  48.0286074  73.1988472  85.6545337
  47.2515517  72.8599632  85.2100499  48.7077555  73.2041095  84.9800302
  42.8438104  68.3183210  85.5451945  42.5388239  68.6329359  86.3962088
  43.7968546  68.3964630  85.5879278  41.2884535  74.4773433  87.1944899
  40.7605897  73.7426193  86.8818136  40.7872038  75.2548109  86.9484867
  46.2677381  72.6722454  92.3111945  45.6101056  73.3621715  92.3992074
  47.0717781  73.0618886  92.6545931  36.0203263  65.1393099  89.5551510
  36.5947015  64.9168281  88.8224703  36.6074245  65.2081794  90.3080111
  45.0782840  71.0266826  90.3615887  45.5914722  71.6596818  90.8637596
  45.7284064  70.4268022  89.9959247  36.3472850  67.1697560  83.5747395
  35.5110162  67.5072247  83.8956670  36.2077620  67.0346540  82.6374532
  38.3225931  62.0134348  88.2826580  37.6690343  61.6983365  87.6583194
  38.2806405  61.3910089  89.0086403  39.4337136  72.2953643  80.1979872
  38.5264197  72.0642897  80.3971021  39.9308168  71.4991263  80.3853853
  42.3405214  81.0051151  83.1176558  41.6666913  81.3082847  83.7261516
  42.7271036  81.8080231  82.7682015  41.5563671  68.5016282  92.6074227
  40.6386232  68.7231229  92.4495915  41.9723815  68.5762592  91.7485935
  42.3398719  69.9007697  87.7376907  43.0870538  70.4129095  87.4284030
  42.6090308  69.5791750  88.5981301  40.6125369  72.3966238  84.7203862
  39.7036588  72.1125271  84.8176331  40.6420453  72.8165317  83.8607169
  45.8444636  76.0072828  88.4895029  45.3906964  75.1663738  88.5460220
  45.2138603  76.6434226  88.8269809  44.7877556  66.9364814  89.7195697
  44.0500313  66.4242200  90.0505939  45.0404330  66.4965195  88.9078974
  44.2877576  77.8449324  89.4244847  44.5800550  78.4054382  88.7057213
  44.7976196  78.1377885  90.1798007  31.1813539  70.1171752  88.7019064
  30.9837939  69.5241113  87.9770131  30.6260203  69.8123963  89.4195003
  39.1610263  70.0094859  90.8213657  39.2158873  69.0568695  90.7456134
  38.3501465  70.1654298  91.3054956  40.3101457  73.9374982  82.0591940
  39.8720887  73.2210841  81.5997578  41.0511898  74.1651097  81.4977032
  37.1002623  68.6271919  88.5804036  36.2870488  68.9266089  88.9869228
  37.5961617  68.2327607  89.2978518  39.2511201  78.6229675  90.5138301
  39.2087380  78.8490522  89.5846833  40.1673900  78.3893050  90.6624102
  42.6976835  69.0913743  97.4118930  43.0526222  69.3185216  98.2713396
  43.3448966  69.4232120  96.7896185  48.4274572  72.2132179  88.1168259
  48.2892470  72.4033775  87.1889448  48.0710790  72.9751562  88.5736310
  36.5916698  66.1990274  94.1965271  37.2316077  66.0579033  93.4988234
  35.7594228  65.9124787  93.8203873  48.4543951  74.2808706  93.1279530
  48.8880458  74.1883995  93.9762584  49.1675532  74.2566206  92.4899546
  37.3677002  75.4992705  90.3100263  38.1617600  75.0043025  90.1082838
  36.6568694  74.9710568  89.9467969  42.1871846  77.8810800  94.6612631
  42.2408868  78.4501736  95.4290347  41.3186627  78.0512685  94.2966668
  33.6759765  69.6435786  86.3860016  32.7457353  69.5820242  86.6029978
  33.7717237  69.1211739  85.5896657  33.5945314  66.1690599  88.9738258
  33.8552131  67.0835932  88.8647418  34.4162486  65.7015042  89.1234871
  35.0670239  67.5828356  96.1437082  35.7393293  67.3745718  95.4949731
  34.2400026  67.3850442  95.7042315  49.3159501  74.3232407  95.6612416
  49.5095391  75.2278217  95.9071691  49.2160119  73.8639826  96.4951001
  40.9695811  64.2090297  98.1602743  40.3223727  64.9080247  98.0667220
  41.7396827  64.6426441  98.5278991  44.3774609  74.4739149 101.2353296
  44.2260116  74.2449701 100.3183380  44.3679289  75.4309751 101.2484641
  41.1459946  72.0471062  96.2199563  42.0752006  72.1982222  96.0468530
  40.7250976  72.1355083  95.3648209  39.9448278  76.0721727  93.9898100
  39.8059363  75.7040511  94.8624039  39.1562874  76.5869366  93.8182058
  40.5396430  81.1730823  85.3323637  40.7148185  80.7018866  86.1469260
  39.8529218  81.7996589  85.5604898  41.4953493  75.4503329  91.3786938
  41.1603325  75.4104099  92.2744588  40.9957438  74.7848045  90.9057348
  35.4697737  70.8570959  96.9039519  35.3317535  70.1251198  97.5051058
  36.3802660  70.7679859  96.6223707  44.4312684  72.7959364  81.6523998
  43.8141855  72.0706192  81.5557051  43.9629173  73.5568724  81.3091072
  38.0980037  70.5690919  96.3923199  38.8079656  69.9284111  96.3509817
  38.0549346  70.8203813  97.3149380  46.0866816  77.5058272  99.3129778
  46.0279362  76.8217492  98.6460361  46.4886334  78.2477262  98.8610404
  36.8108971  67.5556136  98.2118839  36.2746328  67.1046875  98.8640435
  36.2225680  67.6902045  97.4689303  35.1057515  84.3220186  92.1063497
  35.3454113  84.9538710  92.7842516  34.2626711  83.9708226  92.3928856
  36.2211230  67.0144788  80.7745302  35.3440697  66.8933589  80.4107549
  36.6968983  66.2230866  80.5224191  46.0884223  75.4697856  97.5443758
  45.2011002  75.1323778  97.6670157  46.6582774  74.7380887  97.7812523
  27.7413370  71.8021948  90.8686809  28.4284410  71.4883678  90.2807825
  27.5861499  72.7063312  90.5954061  32.5448093  66.6912144  95.2971833
  32.4606281  66.0837814  94.5622243  31.7230799  67.1821162  95.2981329
  39.6185377  80.1299308  94.5105001  39.5455548  80.9354280  95.0224306
  39.1762770  80.3291274  93.6853023  39.4075156  79.3671078  88.0207823
  38.6242678  79.9092758  88.1146047  40.1067902  79.8845058  88.4202064
  42.7171806  65.1765708  90.6642028  43.2140506  64.4235670  90.3443098
  41.9458788  65.2130024  90.0985237  50.5701564  70.8806073  92.3060320
  50.5591440  71.7630789  91.9354253  49.7018943  70.5277624  92.1114857
  42.0784060  80.0286142  96.6663160  42.7912032  80.6633607  96.5939061
  41.5874089  80.1250008  95.8503162  43.8001587  73.9337395  88.2380451
  42.8657866  74.0538857  88.0685156  43.9778256  73.0309862  87.9740461
  39.3006775  67.3183091  90.3913713  38.9304563  66.7654131  91.0794618
  39.7965868  66.7141224  89.8388713  47.1874139  69.7754714  88.7730486
  47.6534591  70.6082706  88.6990788  47.6381639  69.3099696  89.4775744
  37.1295974  77.7780586  97.4868731  37.8305433  78.4117069  97.6398125
  36.6591089  78.1195317  96.7264370  45.2550370  76.1198535  85.7716638
  45.5310214  76.0055130  86.6810512  44.3854868  75.7216020  85.7328811
  45.1590801  62.1435301  92.8121387  44.2453881  62.3739528  92.9803594
  45.5883903  62.2273745  93.6635419  44.9297260  70.3325193  95.3121281
  44.2768710  70.5801101  94.6573734  45.3077640  69.5189331  94.9783758
  41.8904434  80.3684886  89.4149451  42.0726828  79.5506542  89.8777204
  42.7137420  80.5852579  88.9774341  42.2246599  79.2953071  86.6764500
  42.7534366  78.7845526  86.0634662  42.4874819  78.9795602  87.5410033
  40.9784833  71.0745004 101.7987318  40.3025470  70.9739134 102.4689693
  41.8012467  70.9184218 102.2623315  32.7263692  77.3116941  94.4199833
  33.3117129  76.5660629  94.5527738  32.5288530  77.6220897  95.3036497
  35.5802347  80.3468188  89.4362276  34.9112722  80.8314316  88.9526316
  35.4415217  80.5937409  90.3505654  27.3181347  69.8822541  93.1404276
  27.3565446  69.3486132  93.9341395  26.8121639  69.3557746  92.5215254
  39.7207616  82.3811932  96.0344934  40.2725924  82.5443553  96.7994019
  40.0613809  82.9716369  95.3624959  34.6972109  64.7287081  96.6366819
  34.7613435  65.5901912  96.2244216  34.6339229  64.1161083  95.9039177
  34.1724381  66.8010214 100.2839853  34.7996420  66.4187291 100.8977377
  33.3152300  66.5824416 100.6495546  44.5718490  77.2073189 101.8893588
  45.1158394  77.8203147 101.3948543  43.9905335  77.7652768 102.4060601
  30.9489924  68.6086643  86.2158208  31.2443365  67.6997321  86.1625262
  30.0477960  68.5874383  85.8939210  42.8576003  80.3293907  93.0208616
  42.7327142  79.5283647  92.5119562  43.5155094  80.8240101  92.5322586
  34.4784171  66.6842640  92.1985756  33.7570757  67.2978607  92.0593230
  35.2677427  67.2200404  92.1202402  44.9210911  78.1302927  94.6488166
  43.9741247  78.0108278  94.5766493  45.2693684  77.2425425  94.7314428
  37.2810485  64.0197066  98.4726408  37.8044886  64.2659363  99.2352718
  37.0622818  64.8517101  98.0529546  32.6777766  66.2900741  86.3397533
  32.3490472  65.4098120  86.1572639  33.0317136  66.2348409  87.2273922
  41.9257345  77.9255643  90.8492519  41.7782307  76.9972351  91.0300089
  42.7510838  77.9475734  90.3649594  35.7919589  66.5773711  86.7073011
  36.1315661  67.1059632  85.9851619  36.2391709  66.9154117  87.4831577
  45.5291466  78.7484202  91.9357391  46.4538014  78.5427064  91.7981842
  45.3606770  78.5000603  92.8446733  38.4863030  64.9610761  96.1576079
  38.1459850  64.1618574  96.5596759  37.7802036  65.2612472  95.5852912
  39.1379502  62.0460074  94.6103402  39.9605571  61.5720552  94.4882292
  39.3817565  62.8250557  95.1102088  37.7787736  65.0748332  84.9066303
  38.4996099  65.4529585  84.4030020  37.1553040  65.7937209  85.0101281
  41.9218859  65.7793481  85.8424636  42.1382473  66.6618119  85.5413464
  41.4412926  65.3879695  85.1130278  36.6618080  68.7379194  92.4195380
  36.5162661  69.0519497  93.3119662  36.1843284  69.3564095  91.8666279
  38.5214463  65.7281742  92.4676270  38.5076032  64.8322836  92.1308568
  39.2386891  65.7352406  93.1014556  40.3740594  66.1619083  94.5129397
  40.1158372  67.0836153  94.5113728  39.8425634  65.7649517  95.2029861
  45.3186783  79.2669870  87.2919483  45.4923660  78.7016292  86.5393335
  45.8115674  80.0670765  87.1098973  31.1363742  71.2784539  95.3583042
  30.5917211  72.0544347  95.4903316  32.0143092  71.6255343  95.2002163
  37.9251359  64.6096123  87.7363840  38.0467270  63.6812769  87.9354728
  37.6353401  64.6234809  86.8242155  40.7942550  62.2951033  90.8730560
  40.8164246  62.3590366  89.9182539  41.2110609  61.4555542  91.0671066
  51.1726174  72.0306293  88.9109782  51.6157320  71.2813618  88.5128906
  50.2952684  72.0216429  88.5283514  46.3061955  78.5836634  84.3916381
  47.0012860  79.2043327  84.6103696  46.6485105  77.7331985  84.6668759
  31.9229764  70.4054435  98.2513198  31.1811500  70.5537070  98.8377829
  31.6022509  70.6662701  97.3879948  48.2053378  76.0336340  85.9203712
  48.7304702  76.3723612  85.1953032  48.1175731  75.0983355  85.7366846
  39.8673427  79.9470413  98.0493588  40.1760553  79.7019560  98.9216288
  40.6648909  80.1517052  97.5612459  39.8894039  82.1008323  90.2798965
  39.4499029  81.6084702  90.9731822  40.6402156  81.5581291  90.0391040
  32.3686378  78.2919864  90.2823593  33.1944398  77.9923636  89.9022237
  32.0180430  77.5227486  90.7313382  37.3367911  77.6446332  92.3521267
  36.7147920  76.9817037  92.0523495  38.0072778  77.6707464  91.6694914
  30.5694983  76.2106190  91.2412527  29.7326891  75.7828365  91.0596528
  30.5418628  76.4038634  92.1783318  37.4092439  66.1228120 101.9453773
  37.4580594  66.9990243 101.5631542  37.9514953  65.5805513 101.3725416
  47.8947284  76.6669243 101.2254910  47.1042828  76.6493382 100.6859409
  47.6580639  77.2057537 101.9803946  48.0145159  73.5161710  98.5387638
  48.0643164  73.3511717  99.4803161  47.9059083  72.6488969  98.1485519
  36.8981418  76.1950255  85.8279727  37.0469538  76.8785720  85.1746400
  37.7047862  76.1755345  86.3429183  45.3048922  69.4992638  99.8546945
  46.2058785  69.3599102  99.5630943  45.3796896  69.6647092 100.7945122
  39.6391727  66.8759492  98.7000131  38.7695037  67.1693058  98.4282720
  39.8751207  67.4599937  99.4207395  49.5163356  75.9358651  98.7829660
  49.2248165  76.2988632  99.6193121  48.9035488  75.2225659  98.6042992
  50.7159039  73.5011531  91.3032230  51.5505930  73.9401335  91.4669790
  50.8518167  73.0250184  90.4840476  47.7650544  71.0591266  97.2509718
  48.2404666  71.2518912  96.4428569  46.8416110  71.1150452  97.0053101
  34.6534051  72.2215433  86.8340796  34.4080093  71.3177763  87.0321006
  34.8229966  72.2232583  85.8920274  42.3430761  63.0939109  96.2165552
  42.8612705  63.8300136  95.8912040  41.9885894  63.4003103  97.0512311
  33.9229699  67.9543790  84.3326958  33.2298944  68.0288145  83.6766994
  33.6781451  67.1904134  84.8548474  40.3976824  78.6898386  83.2991475
  39.8250791  79.3088573  82.8461946  40.9709617  79.2397747  83.8331397
  46.4652213  67.9357026  95.4838023  47.4169636  68.0355123  95.5050247
  46.2955664  67.1435294  95.9936108  44.4866593  65.0212609  95.6697424
  43.8916525  65.3017622  94.9743913  44.2016290  65.5106510  96.4414165
  43.6174083  78.9735536  84.4300057  44.5504757  78.9081098  84.6332932
  43.5297296  79.8091803  83.9714590  46.2462100  78.2901406  81.3904004
  46.1675732  77.9561270  82.2839762  47.0671767  78.7823174  81.3895477
  48.9440291  71.1563146  94.5980323  48.9116611  70.2179146  94.7840007
  49.5540915  71.2347182  93.8646148  40.7823622  70.0259198  80.6407527
  41.7282727  69.8965407  80.7095945  40.4037867  69.2873860  81.1176955
  49.0934780  67.9474189  94.6438606  48.5773828  67.1632646  94.4568535
  49.9774728  67.6192906  94.8085126  54.7616841  72.2179152  93.7386360
  55.4920230  71.9564440  94.2994063  54.1523787  71.4807874  93.7788428
  52.8432138  70.3587015  94.3360811  52.1165302  70.2242980  93.7277303
  52.4279425  70.6663844  95.1417529  40.6662315  74.0776945 102.1008184
  41.5865324  74.2555544 102.2948231  40.6311898  73.1332990 101.9487883
  38.9666539  67.9509175  80.5762412  38.0597995  67.6542288  80.6525126
  39.2442520  67.6538993  79.7096699  29.8844480  69.2715538  91.0261459
  29.5647264  68.4180846  90.7335833  29.3377908  69.4864116  91.7819426
  33.6624387  71.9877979  94.7430965  33.8810397  72.9195087  94.7618999
  34.0750161  71.6285954  95.5285769  40.5828605  62.4946065  86.7306654
  39.7729333  62.1493150  87.1061900  41.2713022  62.1853608  87.3194265
  38.5352253  67.5611185 104.1333714  38.4348979  68.5105542 104.0645805
  38.3173795  67.2329424 103.2609784  37.7365324  64.8096110  80.7174392
  38.5984488  65.1351008  80.9770209  37.9215668  64.0227606  80.2047457
  29.7532740  72.8918450  92.9954580  29.0596211  72.4772403  92.4824535
  30.5005731  72.9338986  92.3987999  38.3983523  70.9908324 102.9498776
  37.9150604  71.7908684 103.1562665  38.4844462  71.0016269 101.9966220
  31.6669482  72.8236704  90.8720595  31.6440170  72.9224391  89.9202478
  31.9770119  73.6701854  91.1937761  34.3256860  74.8812859  94.9867210
  35.2800114  74.8496801  94.9197141  34.1269384  74.4203482  95.8017436
  34.9156242  73.4513975  97.5538007  35.7349131  73.9458053  97.5772845
  35.1893050  72.5345943  97.5255575  44.6722838  65.8424727  86.9165963
  43.7848693  66.1274378  86.6986158  45.0876827  65.6818490  86.0693240
  48.0237375  65.8671248  90.6320302  48.7997765  66.3567700  90.9044919
  47.2985509  66.2929302  91.0892172  32.6807089  80.4232478  92.0037407
  32.5461557  79.6632879  91.4375406  32.2639151  81.1473378  91.5366196
  43.8166052  75.6069402  81.0113983  44.5201902  75.8119404  81.6271638
  43.0928701  76.1746163  81.2763066  44.6463862  71.3579263  87.1316253
  44.5899064  71.8147814  86.2923885  45.1992205  70.5969947  86.9539096
  48.4568668  67.1468995  87.9566372  48.2005602  66.7465630  88.7874580
  47.8321536  67.8612789  87.8316512  52.7681006  69.8865068  90.4637664
  52.2080564  69.9558257  91.2369226  52.1624509  69.7106053  89.7437160
  35.8376215  81.3201795  92.2155850  35.7208599  82.2647228  92.1134540
  35.0168661  81.0175357  92.6041649  45.7252749  76.0451931  83.0612443
  46.5598353  75.6133129  82.8789918  45.5637092  75.8733944  83.9889337
  45.3798641  72.5484044  84.4268782  45.3247445  72.3828316  83.4857226
  44.7544697  73.2560077  84.5830972  30.1691156  67.7852108  98.2530204
  30.8150020  67.2751062  98.7417430  29.9608308  68.5220790  98.8273630
  42.6944549  74.8532956 103.7522345  43.5635708  75.0273608 103.3908980
  42.2151300  75.6727373 103.6298074  38.6894767  62.0492153  84.0054101
  38.6773437  62.9933993  84.1622371  39.5818189  61.8662299  83.7113562
  36.8630729  81.9730057  95.4311779  37.7657976  82.0053667  95.7478274
  36.6368099  81.0430508  95.4458114  38.6184331  80.7261044  92.0921857
  37.6679962  80.7262905  91.9786229  38.9216817  79.9793778  91.5757892
  34.5088647  64.9319726 102.3505219  35.3720109  64.5756530 102.5608543
  33.9354058  64.5933620 103.0380623  54.3537024  86.5621582  93.1567620
  54.9915434  86.4428329  92.4530960  54.2357867  87.5102426  93.2155572
  51.1626731  86.5149010  93.0929144  50.8245242  86.3990075  92.2049679
  52.0316499  86.1140175  93.0730150  47.0213546  88.3684486  89.0826035
  46.4578411  88.2774423  88.3142323  46.9065941  87.5484391  89.5628528
  51.6446514  87.6683862  99.0515350  51.6335154  87.2736660  98.1795853
  51.8067153  86.9349934  99.6449121  44.5677978  89.8635678  91.9210256
  45.3599270  89.5226503  91.5056555  44.8074628  89.9730653  92.8412409
  52.6013105  92.0355454  84.3940500  51.9501085  92.6209535  84.0074514
  53.3957468  92.5661649  84.4535538  46.5268732  89.1244591  84.7927634
  47.2999608  88.5773578  84.6540510  46.8794131  89.9888841  85.0042096
  48.3653775  90.4520974  97.9994534  48.0743641  91.3566604  97.8841200
  49.0010759  90.4937501  98.7138603  49.2909982  87.8297822  94.5895893
  49.8873554  87.6053844  93.8752856  49.3484953  87.0882568  95.1921341
  48.8635010  85.2837257  82.4246084  49.1160531  84.7618779  81.6629547
  47.9259569  85.1203403  82.5272768  53.9078293  84.2873036  90.2320828
  54.6941382  83.8692459  89.8811245  54.1716997  85.1919128  90.4002476
  54.0788370  89.7245886  84.9309484  53.4434203  89.7980513  85.6430389
  53.7485777  90.3139485  84.2528564  48.5831299  87.1865363  84.6270459
  48.4667557  86.5110267  85.2951544  48.6933559  86.6997737  83.8102612
  50.9262840  86.6475510  88.3317149  50.5621047  86.1206131  89.0430070
  51.7829956  86.2573980  88.1583634  50.5668327  81.6765410  83.3278497
  50.7342729  82.5445647  83.6948968  50.3765496  81.8392692  82.4039786
  53.3243660  90.1382389  94.9944327  53.0244383  91.0407428  94.8860135
  52.9794719  89.8714572  95.8465480  46.7756141  86.5896186  91.0281032
  45.8506638  86.4572400  91.2358724  47.0240555  87.3690405  91.5250974
  50.5457548  84.1323068  84.3125164  50.4257173  84.5780118  85.1510644
  49.8510136  84.4808385  83.7538702  44.1364952  86.2329459  91.8624821
  44.2657334  86.4863938  92.7764233  43.4562404  86.8257167  91.5429476
  48.3064440  96.9026709  87.9615295  48.2288469  97.8534534  88.0403776
  47.7026083  96.5572582  88.6190221  50.7981669  84.0754575 100.6176662
  50.0215003  84.6348495 100.6079527  51.4372232  84.5611358 101.1391532
  56.2442614  84.6044541  85.1405498  57.1560470  84.8371928  84.9653196
  55.7352261  85.1881585  84.5780577  49.0528042  86.8840028 100.1794629
  49.7942726  87.4225072  99.9029453  48.3465027  87.5106317 100.3366181
  54.5283381  89.0269169  98.7766791  54.9366737  88.5851579  98.0321423
  53.8060643  88.4521796  99.0300983  50.8814451  83.9641775  96.1500348
  51.7275647  84.3881189  96.2934997  50.8213089  83.3075400  96.8438911
  54.8512196  89.5870359  92.5319079  54.2221058  89.7516073  91.8295147
  54.4637858  90.0011969  93.3030043  58.7301428  90.5224797  89.8863443
  58.0452466  90.9023698  89.3360477  58.8145277  91.1320124  90.6195391
  54.0313897  81.6246144  97.8081521  53.7874829  82.3788204  97.2715797
  54.3073827  82.0031491  98.6428768  55.9852360  88.1684756  96.4858787
  56.1969255  88.8116516  95.8093168  55.9382108  87.3347073  96.0180717
  53.5878588  80.7802577  93.3895359  52.7263068  81.0783830  93.6812096
  53.6141023  80.9972976  92.4576391  50.4040158  89.3244767  89.7969165
  50.8678503  89.6032470  89.0073787  50.1396956  88.4228212  89.6142255
  47.2964239  88.8716249  92.7348928  47.8665596  89.3003517  92.0966412
  47.8872351  88.5898834  93.4333113  49.3409044  85.4467920  86.6058730
  50.0433087  85.8988963  87.0732656  49.0089672  84.8051739  87.2338623
  47.7889405  84.0379676 100.9809939  47.1588066  84.7195957 101.2145336
  47.6825493  83.9262758 100.0363077  43.0834378  83.7051472  91.9075863
  42.2933432  83.9609001  91.4315974  43.5745625  84.5199810  92.0127904
  57.0998187  91.0456712  94.6581144  57.9215631  90.6436899  94.3763826
  57.0960590  90.9424946  95.6097260  45.0349123  84.0696052  88.8659340
  44.2380287  84.1814746  89.3842836  44.8074715  84.4082704  88.0000230
  50.8654791  90.5940755  96.8141855  50.9299223  91.0561162  97.6500026
  50.1565715  89.9638120  96.9424164  41.3672081  83.9581963  94.3390854
  41.6180119  84.8428973  94.6048430  41.9031629  83.7786564  93.5665946
  50.5802809  92.2608862  86.6820835  50.4448483  93.1060398  87.1105683
  51.1212621  92.4628140  85.9186769  47.0670148  78.3400442 103.3435190
  46.6737094  77.7866641 104.0182834  47.8836289  78.6511021 103.7341708
  44.0332206  89.7784300  87.2548760  44.5456727  90.5727551  87.4054325
  44.6854919  89.0810591  87.1882361  45.8427091  92.8950057  89.3371513
  46.0193719  93.8168021  89.1492497  46.6383924  92.5808476  89.7665893
  49.9838109  79.7558321 100.9355447  50.7247823  80.3565474 100.8559909
  50.2156032  79.0135959 100.3773489  45.1279447  84.9414689  99.2133676
  45.0132962  84.0399946  99.5140775  44.2723965  85.1878385  98.8618493
  52.2071285  92.8832429 100.8121177  51.7635139  92.0968807 100.4942081
  52.8688499  93.0711579 100.1465068  46.9658406  94.4128230  95.3381855
  47.5165831  94.2845294  94.5658849  46.1269882  94.7123119  94.9876748
  54.3052523  93.1635229  98.8402578  54.2870998  93.9844110  98.3482847
  55.2272443  93.0389304  99.0652719  50.7625577  90.6779358  99.6826087
  51.2953914  89.9167646  99.4525395  50.2339658  90.3853010 100.4250241
  53.9295272  75.7839424  95.2119728  53.5859542  76.6741066  95.1358839
  54.2974235  75.5941082  94.3489313  41.9981123  88.1072955  88.0308331
  42.8356345  88.5169963  87.8142038  42.1759390  87.1672397  88.0008524
  53.8945555  85.7748035  83.7192163  53.3792178  86.5452640  83.9580551
  53.6222863  85.1013172  84.3425225  51.4792666  80.6197736  88.7777402
  50.6234262  80.2304587  88.5983041  51.8919618  80.6989697  87.9177187
  53.0091813  78.1544079  93.1768962  52.5056608  78.1174215  92.3636767
  53.3022419  79.0636822  93.2365618  49.2534698  78.2382809  92.1835143
  50.1187695  78.0425618  91.8241033  49.3212207  78.0093161  93.1104500
  58.8679829  88.5280390  85.6545337  58.0909272  88.1891549  85.2100499
  59.5471310  88.5333013  84.9800302  53.6831858  83.6475127  85.5451945
  53.3781994  83.9621277  86.3962088  54.6362300  83.7256547  85.5879278
  52.1278290  89.8065351  87.1944899  51.5999651  89.0718110  86.8818136
  51.6265793  90.5840027  86.9484867  57.1071136  88.0014371  92.3111945
  56.4494810  88.6913633  92.3992074  57.9111535  88.3910803  92.6545931
  46.8597017  80.4685017  89.5551510  47.4340769  80.2460199  88.8224703
  47.4468000  80.5373712  90.3080111  55.9176595  86.3558744  90.3615887
  56.4308476  86.9888736  90.8637596  56.5677819  85.7559939  89.9959247
  47.1866605  82.4989478  83.5747395  46.3503917  82.8364165  83.8956670
  47.0471374  82.3638458  82.6374532  49.1619685  77.3426266  88.2826580
  48.5084098  77.0275283  87.6583194  49.1200159  76.7202006  89.0086403
  50.2730890  87.6245561  80.1979872  49.3657952  87.3934814  80.3971021
  50.7701922  86.8283180  80.3853853  53.1798969  96.3343068  83.1176558
  52.5060668  96.6374765  83.7261516  53.5664791  97.1372149  82.7682015
  52.3957426  83.8308199  92.6074227  51.4779987  84.0523147  92.4495915
  52.8117569  83.9054510  91.7485935  53.1792473  85.2299615  87.7376907
  53.9264292  85.7421012  87.4284030  53.4484063  84.9083668  88.5981301
  51.4519123  87.7258156  84.7203862  50.5430343  87.4417189  84.8176331
  51.4814207  88.1457234  83.8607169  56.6838391  91.3364745  88.4895029
  56.2300718  90.4955655  88.5460220  56.0532358  91.9726144  88.8269809
  55.6271310  82.2656731  89.7195697  54.8894067  81.7534118  90.0505939
  55.8798084  81.8257113  88.9078974  55.1271330  93.1741242  89.4244847
  55.4194305  93.7346299  88.7057213  55.6369951  93.4669803  90.1798007
  55.7282938  75.0432983  90.3137466  56.0341815  74.1830347  90.0263381
  56.4535543  75.6350604  90.1136460  42.0207294  85.4463670  88.7019064
  41.8231694  84.8533031  87.9770131  41.4653958  85.1415880  89.4195003
  50.0004018  85.3386776  90.8213657  50.0552627  84.3860613  90.7456134
  49.1895220  85.4946216  91.3054956  51.1495211  89.2666900  82.0591940
  50.7114641  88.5502758  81.5997578  51.8905652  89.4943014  81.4977032
  47.9396377  83.9563836  88.5804036  47.1264243  84.2558007  88.9869228
  48.4355372  83.5619525  89.2978518  50.0904955  93.9521593  90.5138301
  50.0481134  94.1782439  89.5846833  51.0067654  93.7184968  90.6624102
  53.5370589  84.4205661  97.4118930  53.8919977  84.6477134  98.2713396
  54.1842720  84.7524038  96.7896185  47.4310452  81.5282192  94.1965271
  48.0709832  81.3870951  93.4988234  46.5987983  81.2416705  93.8203873
  48.2070756  90.8284622  90.3100263  49.0011355  90.3334942  90.1082838
  47.4962448  90.3002485  89.9467969  53.0265601  93.2102718  94.6612631
  53.0802623  93.7793654  95.4290347  52.1580382  93.3804603  94.2966668
  44.5153520  84.9727704  86.3860016  43.5851108  84.9112159  86.6029978
  44.6110992  84.4503657  85.5896657  44.4339069  81.4982517  88.9738258
  44.6945886  82.4127850  88.8647418  45.2556241  81.0306959  89.1234871
  45.9063994  82.9120274  96.1437082  46.5787047  82.7037636  95.4949731
  45.0793780  82.7142360  95.7042315  51.8089566  79.5382215  98.1602743
  51.1617481  80.2372165  98.0667220  52.5790581  79.9718359  98.5278991
  55.2168364  89.8031067 101.2353296  55.0653870  89.5741619 100.3183380
  55.2073043  90.7601668 101.2484641  51.9853700  87.3762980  96.2199563
  52.9145760  87.5274139  96.0468530  51.5644730  87.4647001  95.3648209
  50.7842032  91.4013644  93.9898100  50.6453118  91.0332429  94.8624039
  49.9956628  91.9161284  93.8182058  51.3790184  96.5022741  85.3323637
  51.5541940  96.0310784  86.1469260  50.6922972  97.1288507  85.5604898
  52.3347247  90.7795247  91.3786938  51.9997080  90.7396017  92.2744588
  51.8351193  90.1139963  90.9057348  46.3091491  86.1862877  96.9039519
  46.1711289  85.4543116  97.5051058  47.2196415  86.0971777  96.6223707
  55.2706439  88.1251281  81.6523998  54.6535610  87.3998109  81.5557051
  54.8022927  88.8860641  81.3091072  48.9373792  85.8982836  96.3923199
  49.6473410  85.2576028  96.3509817  48.8943100  86.1495731  97.3149380
  56.9260571  92.8350190  99.3129778  56.8673117  92.1509410  98.6460361
  57.3280089  93.5769180  98.8610404  47.6502726  82.8848054  98.2118839
  47.1140083  82.4338793  98.8640435  47.0619434  83.0193963  97.4689303
  45.9451269  99.6512103  92.1063497  46.1847868 100.2830628  92.7842516
  45.1020466  99.3000143  92.3928856  47.0604985  82.3436706  80.7745302
  46.1834451  82.2225506  80.4107549  47.5362738  81.5522784  80.5224191
  56.9277978  90.7989774  97.5443758  56.0404757  90.4615695  97.6670157
  57.4976529  90.0672805  97.7812523  38.5807125  87.1313865  90.8686809
  39.2678165  86.8175595  90.2807825  38.4255254  88.0355230  90.5954061
  43.3841847  82.0204062  95.2971833  43.3000036  81.4129731  94.5622243
  42.5624553  82.5113080  95.2981329  50.4579131  95.4591226  94.5105001
  50.3849303  96.2646197  95.0224306  50.0156524  95.6583192  93.6853023
  50.2468911  94.6962996  88.0207823  49.4636433  95.2384676  88.1146047
  50.9461656  95.2136976  88.4202064  53.5565561  80.5057625  90.6642028
  54.0534260  79.7527588  90.3443098  52.7852542  80.5421942  90.0985237
  52.9177815  95.3578060  96.6663160  53.6305787  95.9925525  96.5939061
  52.4267843  95.4541926  95.8503162  54.6395342  89.2629313  88.2380451
  53.7051620  89.3830775  88.0685156  54.8172010  88.3601779  87.9740461
  50.1400530  82.6475008  90.3913713  49.7698317  82.0946049  91.0794618
  50.6359622  82.0433142  89.8388713  58.0267893  85.1046632  88.7730486
  58.4928345  85.9374623  88.6990788  58.4775394  84.6391613  89.4775744
  47.9689728  93.1072503  97.4868731  48.6699188  93.7408986  97.6398125
  47.4984843  93.4487235  96.7264370  56.0944124  91.4490453  85.7716638
  56.3703968  91.3347048  86.6810512  55.2248623  91.0507938  85.7328811
  55.9984556  77.4727219  92.8121387  55.0847636  77.7031446  92.9803594
  56.4277657  77.5565663  93.6635419  55.7691014  85.6617111  95.3121281
  55.1162464  85.9093018  94.6573734  56.1471394  84.8481249  94.9783758
  52.7298188  95.6976804  89.4149451  52.9120583  94.8798460  89.8777204
  53.5531174  95.9144496  88.9774341  53.0640354  94.6244989  86.6764500
  53.5928120  94.1137444  86.0634662  53.3268573  94.3087519  87.5410033
  51.8178587  86.4036922 101.7987318  51.1419224  86.3031051 102.4689693
  52.6406221  86.2476136 102.2623315  43.5657446  92.6408858  94.4199833
  44.1510883  91.8952546  94.5527738  43.3682285  92.9512815  95.3036497
  46.4196102  95.6760106  89.4362276  45.7506477  96.1606233  88.9526316
  46.2808971  95.9229326  90.3505654  38.1575101  85.2114459  93.1404276
  38.1959201  84.6778049  93.9341395  37.6515394  84.6849664  92.5215254
  50.5601370  97.7103849  96.0344934  51.1119678  97.8735471  96.7994019
  50.9007564  98.3008287  95.3624959  45.5365863  80.0578999  96.6366819
  45.6007190  80.9193830  96.2244216  45.4732984  79.4453001  95.9039177
  45.0118136  82.1302132 100.2839853  45.6390175  81.7479209 100.8977377
  44.1546055  81.9116334 100.6495546  55.4112244  92.5365107 101.8893588
  55.9552148  93.1495065 101.3948543  54.8299089  93.0944685 102.4060601
  41.7883679  83.9378561  86.2158208  42.0837120  83.0289239  86.1625262
  40.8871714  83.9166300  85.8939210  53.6969757  95.6585825  93.0208616
  53.5720897  94.8575565  92.5119562  54.3548849  96.1532018  92.5322586
  45.3177926  82.0134557  92.1985756  44.5964511  82.6270525  92.0593230
  46.1071181  82.5492322  92.1202402  55.7604666  93.4594845  94.6488166
  54.8135001  93.3400196  94.5766493  56.1087439  92.5717343  94.7314428
  48.1204239  79.3488984  98.4726408  48.6438641  79.5951280  99.2352718
  47.9016572  80.1809019  98.0529546  43.5171520  81.6192658  86.3397533
  43.1884226  80.7390037  86.1572639  43.8710891  81.5640327  87.2273922
  52.7651099  93.2547561  90.8492519  52.6176062  92.3264269  91.0300089
  53.5904593  93.2767652  90.3649594  46.6313343  81.9065628  86.7073011
  46.9709416  82.4351549  85.9851619  47.0785464  82.2446034  87.4831577
  56.3685221  94.0776120  91.9357391  57.2931768  93.8718981  91.7981842
  56.2000524  93.8292521  92.8446733  49.3256784  80.2902679  96.1576079
  48.9853605  79.4910492  96.5596759  48.6195790  80.5904390  95.5852912
  49.9773256  77.3751991  94.6103402  50.7999325  76.9012470  94.4882292
  50.2211320  78.1542475  95.1102088  48.6181491  80.4040250  84.9066303
  49.3389853  80.7821503  84.4030020  47.9946795  81.1229127  85.0101281
  52.7612613  81.1085399  85.8424636  52.9776228  81.9910037  85.5413464
  52.2806681  80.7171612  85.1130278  47.5011835  84.0671112  92.4195380
  47.3556416  84.3811415  93.3119662  47.0237038  84.6856012  91.8666279
  49.3608218  81.0573660  92.4676270  49.3469786  80.1614753  92.1308568
  50.0780646  81.0644324  93.1014556  51.2134348  81.4911000  94.5129397
  50.9552126  82.4128071  94.5113728  50.6819389  81.0941435  95.2029861
  56.1580537  94.5961787  87.2919483  56.3317415  94.0308210  86.5393335
  56.6509428  95.3962682  87.1098973  41.9757497  86.6076456  95.3583042
  41.4310965  87.3836264  95.4903316  42.8536847  86.9547261  95.2002163
  48.7645114  79.9388040  87.7363840  48.8861025  79.0104686  87.9354728
  48.4747156  79.9526726  86.8242155  51.6336304  77.6242951  90.8730560
  51.6558001  77.6882284  89.9182539  52.0504363  76.7847459  91.0671066
  57.1455710  93.9128552  84.3916381  57.8406614  94.5335244  84.6103696
  57.4878860  93.0623903  84.6668759  42.7623519  85.7346353  98.2513198
  42.0205255  85.8828988  98.8377829  42.4416263  85.9954618  97.3879948
  59.0447133  91.3628257  85.9203712  59.5698457  91.7015530  85.1953032
  58.9569485  90.4275273  85.7366846  50.7067181  95.2762331  98.0493588
  51.0154308  95.0311478  98.9216288  51.5042663  95.4808969  97.5612459
  50.7287794  97.4300241  90.2798965  50.2892784  96.9376619  90.9731822
  51.4795910  96.8873208  90.0391040  43.2080132  93.6211781  90.2823593
  44.0338152  93.3215553  89.9022237  42.8574184  92.8519404  90.7313382
  48.1761666  92.9738250  92.3521267  47.5541675  92.3108955  92.0523495
  48.8466533  92.9999382  91.6694914  41.4088738  91.5398108  91.2412527
  40.5720646  91.1120282  91.0596528  41.3812383  91.7330551  92.1783318
  48.2486193  81.4520038 101.9453773  48.2974349  82.3282160 101.5631542
  48.7908707  80.9097431 101.3725416  58.7341039  91.9961161 101.2254910
  57.9436583  91.9785300 100.6859409  58.4974393  92.5349455 101.9803946
  47.7375173  91.5242173  85.8279727  47.8863293  92.2077637  85.1746400
  48.5441616  91.5047263  86.3429183  56.1442676  84.8284555  99.8546945
  57.0452539  84.6891020  99.5630943  56.2190651  84.9939010 100.7945122
  50.4785482  82.2051410  98.7000131  49.6088791  82.4984976  98.4282720
  50.7144962  82.7891855  99.4207395  45.4927806  87.5507351  86.8340796
  45.2473847  86.6469681  87.0321006  45.6623720  87.5524501  85.8920274
  53.1824515  78.4231027  96.2165552  53.7006459  79.1592054  95.8912040
  52.8279648  78.7295020  97.0512311  44.7623453  83.2835708  84.3326958
  44.0692698  83.3580063  83.6766994  44.5175205  82.5196052  84.8548474
  53.4337110  74.8431310  91.7366448  53.7138863  74.1754499  92.3626875
  54.2187717  75.0360405  91.2241112  51.2370578  94.0190303  83.2991475
  50.6644545  94.6380491  82.8461946  51.8103372  94.5689665  83.8331397
  54.4567838  94.3027454  84.4300057  55.3898511  94.2373015  84.6332932
  54.3691051  95.1383720  83.9714590  57.0855855  93.6193324  81.3904004
  57.0069486  93.2853187  82.2839762  57.9065521  94.1115092  81.3895477
  51.6217377  85.3551116  80.6407527  52.5676481  85.2257324  80.7095945
  51.2431622  84.6165778  81.1176955  57.5939261  77.0207122  90.6034419
  57.3964082  76.7122210  91.4877751  58.2038967  77.7468761  90.7332349
  51.5056069  89.4068862 102.1008184  52.4259079  89.5847461 102.2948231
  51.4705652  88.4624908 101.9487883  49.8060294  83.2801093  80.5762412
  48.8991749  82.9834205  80.6525126  50.0836275  82.9830911  79.7096699
  40.7238234  84.6007456  91.0261459  40.4041018  83.7472764  90.7335833
  40.1771662  84.8156034  91.7819426  44.5018142  87.3169897  94.7430965
  44.7204151  88.2487005  94.7618999  44.9143916  86.9577871  95.5285769
  51.4222359  77.8237982  86.7306654  50.6123088  77.4785067  87.1061900
  52.1106776  77.5145526  87.3194265  53.3512908  76.9016029  88.3530950
  53.9043946  77.3211482  89.0120973  53.5882994  75.9751777  88.3953906
  49.3746007  82.8903103 104.1333714  49.2742734  83.8397460 104.0645805
  49.1567549  82.5621342 103.2609784  48.5759078  80.1388028  80.7174392
  49.4378242  80.4642926  80.9770209  48.7609423  79.3519524  80.2047457
  40.5926494  88.2210367  92.9954580  39.8989966  87.8064320  92.4824535
  41.3399485  88.2630904  92.3987999  56.7291715  79.0116554  87.8609615
  56.1490384  79.6701358  87.4787667  56.4627648  78.1893899  87.4497032
  55.1795281  78.4121612  90.0630935  55.6795060  78.5238146  89.2545254
  55.8230889  78.1082665  90.7031743  49.2377277  86.3200242 102.9498776
  48.7544359  87.1200602 103.1562665  49.3238216  86.3308186 101.9966220
  42.5063237  88.1528621  90.8720595  42.4833925  88.2516309  89.9202478
  42.8163873  88.9993772  91.1937761  45.1650615  90.2104776  94.9867210
  46.1193868  90.1788719  94.9197141  44.9663138  89.7495400  95.8017436
  45.7549997  88.7805892  97.5538007  46.5742886  89.2749971  97.5772845
  46.0286804  87.8637860  97.5255575  55.5116593  81.1716645  86.9165963
  54.6242448  81.4566295  86.6986158  55.9270582  81.0110408  86.0693240
  43.5200843  95.7524396  92.0037407  43.3855311  94.9924797  91.4375406
  43.1032906  96.4765296  91.5366196  54.6559806  90.9361319  81.0113983
  55.3595656  91.1411322  81.6271638  53.9322455  91.5038081  81.2763066
  55.4857617  86.6871181  87.1316253  55.4292818  87.1439732  86.2923885
  56.0385959  85.9261865  86.9539096  59.2962423  82.4760912  87.9566372
  59.0399357  82.0757548  88.7874580  58.6715291  83.1904706  87.8316512
  46.6769969  96.6493713  92.2155850  46.5602353  97.5939145  92.1134540
  45.8562415  96.3467274  92.6041649  56.5646504  91.3743848  83.0612443
  57.3992108  90.9425047  82.8789918  56.4030847  91.2025862  83.9889337
  56.2192396  87.8775962  84.4268782  56.1641200  87.7120233  83.4857226
  55.5938451  88.5851995  84.5830972  41.0084911  83.1144026  98.2530204
  41.6543775  82.6042980  98.7417430  40.8002062  83.8512708  98.8273630
  53.5338303  90.1824874 103.7522345  54.4029463  90.3565526 103.3908980
  53.0545055  91.0019290 103.6298074  49.5288521  77.3784071  84.0054101
  49.5167191  78.3225911  84.1622371  50.4211943  77.1954216  83.7113562
  47.7024483  97.3021975  95.4311779  48.6051730  97.3345585  95.7478274
  47.4761853  96.3722426  95.4458114  49.4578085  96.0552961  92.0921857
  48.5073716  96.0554823  91.9786229  49.7610571  95.3085696  91.5757892
  53.3440641  73.9726847  88.2600037  52.5773037  73.4185334  88.4056720
  53.7551346  74.0448716  89.1214189  45.3482402  80.2611643 102.3505219
  46.2113863  79.9048448 102.5608543  44.7747813  79.9225538 103.0380623
  65.1930779 101.8913500  93.1567620  65.8309189 101.7720247  92.4530960
  65.0751622 102.8394344  93.2155572  62.0020485 101.8440928  93.0929144
  61.6638997 101.7281992  92.2049679  62.8710253 101.4432093  93.0730150
  57.8607301 103.6976404  89.0826035  57.2972166 103.6066341  88.3142323
  57.7459696 102.8776309  89.5628528  62.4840268 102.9975779  99.0515350
  62.4728909 102.6028578  98.1795853  62.6460908 102.2641852  99.6449121
  55.4071733 105.1927596  91.9210256  56.1993025 104.8518420  91.5056555
  55.6468383 105.3022571  92.8412409  63.4406860 107.3647372  84.3940500
  62.7894839 107.9501452  84.0074514  64.2351222 107.8953567  84.4535538
  57.3662487 104.4536509  84.7927634  58.1393363 103.9065496  84.6540510
  57.7187886 105.3180758  85.0042096  59.2047529 105.7812891  97.9994534
  58.9137395 106.6858522  97.8841200  59.8404514 105.8229419  98.7138603
  60.1303736 103.1589740  94.5895893  60.7267308 102.9345762  93.8752856
  60.1878708 102.4174485  95.1921341  59.7028765 100.6129175  82.4246084
  59.9554285 100.0910696  81.6629547  58.7653324 100.4495321  82.5272768
  64.7472047  99.6164953  90.2320828  65.5335137  99.1984377  89.8811245
  65.0110752 100.5211046  90.4002476  59.4225053 102.5157281  84.6270459
  59.3061311 101.8402184  85.2951544  59.5327313 102.0289655  83.8102612
  61.7656594 101.9767428  88.3317149  61.4014801 101.4498049  89.0430070
  62.6223710 101.5865897  88.1583634  61.4062081  97.0057328  83.3278497
  61.5736484  97.8737564  83.6948968  61.2159250  97.1684610  82.4039786
  64.1637414 105.4674307  94.9944327  63.8638137 106.3699346  94.8860135
  63.8188474 105.2006490  95.8465480  57.6149896 101.9188104  91.0281032
  56.6900392 101.7864318  91.2358724  57.8634309 102.6982323  91.5250974
  61.3851302  99.4614985  84.3125164  61.2650927  99.9072036  85.1510644
  60.6903890  99.8100303  83.7538702  54.9758707 101.5621377  91.8624821
  55.1051088 101.8155856  92.7764233  54.2956158 102.1549085  91.5429476
  59.1458194 112.2318627  87.9615295  59.0682224 113.1826452  88.0403776
  58.5419838 111.8864500  88.6190221  61.6375424  99.4046493 100.6176662
  60.8608758  99.9640413 100.6079527  62.2765987  99.8903275 101.1391532
  59.8921796 102.2131946 100.1794629  60.6336481 102.7516990  99.9029453
  59.1858782 102.8398235 100.3366181  65.3677136 104.3561086  98.7766791
  65.7760492 103.9143497  98.0321423  64.6454397 103.7813714  99.0300983
  61.7208206  99.2933693  96.1500348  62.5669401  99.7173107  96.2934997
  61.6606844  98.6367317  96.8438911  65.6905950 104.9162277  92.5319079
  65.0614813 105.0807991  91.8295147  65.3031613 105.3303887  93.3030043
  64.8707651  96.9538061  97.8081521  64.6268583  97.7080122  97.2715797
  65.1467582  97.3323409  98.6428768  66.8246114 103.4976674  96.4858787
  67.0363009 104.1408434  95.8093168  66.7775862 102.6638990  96.0180717
  61.2433912 104.6536685  89.7969165  61.7072258 104.9324388  89.0073787
  60.9790710 103.7520130  89.6142255  58.1357993 104.2008167  92.7348928
  58.7059351 104.6295435  92.0966412  58.7266105 103.9190751  93.4333113
  60.1802798 100.7759837  86.6058730  60.8826842 101.2280881  87.0732656
  59.8483427 100.1343656  87.2338623  58.6283160  99.3671594 100.9809939
  57.9981821 100.0487875 101.2145336  58.5219248  99.2554676 100.0363077
  53.9228132  99.0343390  91.9075863  53.1327186  99.2900919  91.4315974
  54.4139380  99.8491728  92.0127904  67.9391942 106.3748629  94.6581144
  68.7609386 105.9728817  94.3763826  67.9354345 106.2716863  95.6097260
  55.8742878  99.3987969  88.8659340  55.0774041  99.5106664  89.3842836
  55.6468470  99.7374622  88.0000230  61.7048545 105.9232673  96.8141855
  61.7692978 106.3853080  97.6500026  60.9959469 105.2930037  96.9424164
  52.2065835  99.2873881  94.3390854  52.4573874 100.1720890  94.6048430
  52.7425384  99.1078482  93.5665946  61.4196563 107.5900780  86.6820835
  61.2842238 108.4352316  87.1105683  61.9606376 107.7920058  85.9186769
  57.9063903  93.6692360 103.3435190  57.5130848  93.1158558 104.0182834
  58.7230043  93.9802938 103.7341708  54.8725960 105.1076218  87.2548760
  55.3850481 105.9019468  87.4054325  55.5248673 104.4102509  87.1882361
  56.6820845 108.2241974  89.3371513  56.8587473 109.1459939  89.1492497
  57.4777679 107.9100394  89.7665893  60.8231864  95.0850239 100.9355447
  61.5641577  95.6857392 100.8559909  61.0549787  94.3427877 100.3773489
  55.9673202 100.2706606  99.2133676  55.8526717  99.3691863  99.5140775
  55.1117719 100.5170303  98.8618493  63.0465039 108.2124347 100.8121177
  62.6028894 107.4260725 100.4942081  63.7082253 108.4003497 100.1465068
  57.8052161 109.7420148  95.3381855  58.3559586 109.6137212  94.5658849
  56.9663637 110.0415037  94.9876748  65.1446277 108.4927146  98.8402578
  65.1264753 109.3136028  98.3482847  66.0666198 108.3681222  99.0652719
  61.6019332 106.0071276  99.6826087  62.1347668 105.2459564  99.4525395
  61.0733413 105.7144928 100.4250241  52.8374877 103.4364872  88.0308331
  53.6750099 103.8461881  87.8142038  53.0153145 102.4964315  88.0008524
  60.0928453  93.5674727  92.1835143  60.9581450  93.3717535  91.8241033
  60.1605962  93.3385079  93.1104500  67.9464890 103.3306289  92.3111945
  67.2888565 104.0205550  92.3992074  68.7505290 103.7202721  92.6545931
  57.6990772  95.7976935  89.5551510  58.2734524  95.5752116  88.8224703
  58.2861754  95.8665629  90.3080111  58.0260359  97.8281396  83.5747395
  57.1897671  98.1656082  83.8956670  57.8865129  97.6930376  82.6374532
  61.1124645 102.9537479  80.1979872  60.2051706 102.7226732  80.3971021
  61.6095677 102.1575098  80.3853853  64.0192723 111.6634986  83.1176558
  63.3454422 111.9666683  83.7261516  64.4058545 112.4664066  82.7682015
  63.2351180  99.1600117  92.6074227  62.3173741  99.3815064  92.4495915
  63.6511324  99.2346428  91.7485935  64.0186228 100.5591533  87.7376907
  64.7658047 101.0712930  87.4284030  64.2877817 100.2375586  88.5981301
  62.2912878 103.0550074  84.7203862  61.3824097 102.7709106  84.8176331
  62.3207962 103.4749152  83.8607169  65.9665085 108.5033160  89.4244847
  66.2588059 109.0638217  88.7057213  66.4763705 108.7961721  90.1798007
  52.8601048 100.7755588  88.7019064  52.6625448 100.1824948  87.9770131
  52.3047712 100.4707798  89.4195003  60.8397772 100.6678694  90.8213657
  60.8946382  99.7152531  90.7456134  60.0288974 100.8238133  91.3054956
  61.9888966 104.5958817  82.0591940  61.5508396 103.8794676  81.5997578
  62.7299407 104.8234932  81.4977032  58.7790132  99.2855754  88.5804036
  57.9657997  99.5849924  88.9869228  59.2749126  98.8911443  89.2978518
  60.9298710 109.2813511  90.5138301  60.8874889 109.5074357  89.5846833
  61.8461409 109.0476885  90.6624102  64.3764344  99.7497578  97.4118930
  64.7313731  99.9769052  98.2713396  65.0236475 100.0815955  96.7896185
  58.2704207  96.8574109  94.1965271  58.9103586  96.7162869  93.4988234
  57.4381737  96.5708623  93.8203873  70.1331460 104.9392541  93.1279530
  70.5667967 104.8467830  93.9762584  70.8463041 104.9150042  92.4899546
  59.0464511 106.1576540  90.3100263  59.8405109 105.6626860  90.1082838
  58.3356203 105.6294403  89.9467969  63.8659355 108.5394635  94.6612631
  63.9196377 109.1085572  95.4290347  62.9974136 108.7096520  94.2966668
  55.3547274 100.3019622  86.3860016  54.4244862 100.2404077  86.6029978
  55.4504746  99.7795574  85.5896657  55.2732823  96.8274434  88.9738258
  55.5339640  97.7419768  88.8647418  56.0949995  96.3598877  89.1234871
  56.7457748  98.2412192  96.1437082  57.4180802  98.0329554  95.4949731
  55.9187535  98.0434278  95.7042315  62.6483320  94.8674133  98.1602743
  62.0011236  95.5664082  98.0667220  63.4184336  95.3010276  98.5278991
  62.8247455 102.7054897  96.2199563  63.7539515 102.8566057  96.0468530
  62.4038485 102.7938918  95.3648209  61.6235787 106.7305562  93.9898100
  61.4846872 106.3624346  94.8624039  60.8350383 107.2453201  93.8182058
  62.2183939 111.8314658  85.3323637  62.3935694 111.3602702  86.1469260
  61.5316727 112.4580425  85.5604898  63.1741002 106.1087165  91.3786938
  62.8390834 106.0687935  92.2744588  62.6744947 105.4431880  90.9057348
  57.1485246 101.5154795  96.9039519  57.0105044 100.7835033  97.5051058
  58.0590169 101.4263695  96.6223707  66.1100193 103.4543199  81.6523998
  65.4929364 102.7290027  81.5557051  65.6416682 104.2152559  81.3091072
  59.7767546 101.2274754  96.3923199  60.4867165 100.5867946  96.3509817
  59.7336855 101.4787649  97.3149380  58.4896480  98.2139972  98.2118839
  57.9533837  97.7630710  98.8640435  57.9013189  98.3485881  97.4689303
  56.7845024 114.9804021  92.1063497  57.0241622 115.6122545  92.7842516
  55.9414220 114.6292061  92.3928856  57.8998739  97.6728623  80.7745302
  57.0228206  97.5517424  80.4107549  58.3756492  96.8814701  80.5224191
  49.4200879 102.4605783  90.8686809  50.1071919 102.1467513  90.2807825
  49.2649008 103.3647148  90.5954061  54.2235602  97.3495979  95.2971833
  54.1393790  96.7421649  94.5622243  53.4018308  97.8404998  95.2981329
  61.2972886 110.7883144  94.5105001  61.2243057 111.5938115  95.0224306
  60.8550279 110.9875109  93.6853023  61.0862665 110.0254914  88.0207823
  60.3030187 110.5676594  88.1146047  61.7855411 110.5428893  88.4202064
  63.7571569 110.6869978  96.6663160  64.4699541 111.3217442  96.5939061
  63.2661598 110.7833844  95.8503162  58.8083483 108.4364421  97.4868731
  59.5092942 109.0700904  97.6398125  58.3378598 108.7779153  96.7264370
  66.6084769 100.9909028  95.3121281  65.9556219 101.2384936  94.6573734
  66.9865149 100.1773167  94.9783758  63.5691943 111.0268722  89.4149451
  63.7514337 110.2090378  89.8777204  64.3924929 111.2436414  88.9774341
  63.9034108 109.9536907  86.6764500  64.4321875 109.4429361  86.0634662
  64.1662328 109.6379437  87.5410033  62.6572342 101.7328840 101.7987318
  61.9812979 101.6322969 102.4689693  63.4799976 101.5768053 102.2623315
  54.4051201 107.9700776  94.4199833  54.9904638 107.2244464  94.5527738
  54.2076039 108.2804733  95.3036497  57.2589856 111.0052023  89.4362276
  56.5900231 111.4898151  88.9526316  57.1202726 111.2521244  90.3505654
  48.9968856 100.5406376  93.1404276  49.0352955 100.0069967  93.9341395
  48.4909148 100.0141582  92.5215254  61.3995125 113.0395767  96.0344934
  61.9513433 113.2027388  96.7994019  61.7401318 113.6300205  95.3624959
  56.3759618  95.3870917  96.6366819  56.4400944  96.2485748  96.2244216
  56.3126738  94.7744918  95.9039177  55.8511890  97.4594049 100.2839853
  56.4783929  97.0771127 100.8977377  54.9939809  97.2408251 100.6495546
  66.2505999 107.8657024 101.8893588  66.7945903 108.4786983 101.3948543
  65.6692844 108.4236603 102.4060601  52.6277433  99.2670478  86.2158208
  52.9230874  98.3581157  86.1625262  51.7265469  99.2458218  85.8939210
  64.5363512 110.9877743  93.0208616  64.4114651 110.1867482  92.5119562
  65.1942603 111.4823936  92.5322586  56.1571680  97.3426475  92.1985756
  55.4358266  97.9562443  92.0593230  56.9464936  97.8784240  92.1202402
  66.5998420 108.7886763  94.6488166  65.6528756 108.6692114  94.5766493
  66.9481193 107.9009261  94.7314428  58.9597994  94.6780902  98.4726408
  59.4832395  94.9243198  99.2352718  58.7410327  95.5100936  98.0529546
  54.3565275  96.9484576  86.3397533  54.0277981  96.0681955  86.1572639
  54.7104645  96.8932245  87.2273922  63.6044854 108.5839479  90.8492519
  63.4569816 107.6556186  91.0300089  64.4298347 108.6059570  90.3649594
  57.4707098  97.2357546  86.7073011  57.8103170  97.7643467  85.9851619
  57.9179218  97.5737952  87.4831577  67.2078975 109.4068038  91.9357391
  68.1325523 109.2010899  91.7981842  67.0394279 109.1584439  92.8446733
  60.1650539  95.6194597  96.1576079  59.8247359  94.8202410  96.5596759
  59.4589545  95.9196307  95.5852912  59.4575245  95.7332167  84.9066303
  60.1783608  96.1113420  84.4030020  58.8340549  96.4521044  85.0101281
  58.3405589  99.3963030  92.4195380  58.1950170  99.7103333  93.3119662
  57.8630793 100.0147930  91.8666279  60.2001972  96.3865578  92.4676270
  60.1863541  95.4906671  92.1308568  60.9174400  96.3936241  93.1014556
  62.0528103  96.8202918  94.5129397  61.7945881  97.7419989  94.5113728
  61.5213143  96.4233352  95.2029861  66.9974292 109.9253705  87.2919483
  67.1711169 109.3600127  86.5393335  67.4903183 110.7254600  87.1098973
  52.8151251 101.9368374  95.3583042  52.2704720 102.7128182  95.4903316
  53.6930601 102.2839179  95.2002163  59.6038868  95.2679958  87.7363840
  59.7254779  94.3396604  87.9354728  59.3140910  95.2818644  86.8242155
  67.9849464 109.2420469  84.3916381  68.6800369 109.8627162  84.6103696
  68.3272614 108.3915821  84.6668759  53.6017273 101.0638270  98.2513198
  52.8599009 101.2120906  98.8377829  53.2810018 101.3246536  97.3879948
  61.5460936 110.6054249  98.0493588  61.8548062 110.3603395  98.9216288
  62.3436418 110.8100887  97.5612459  61.5681548 112.7592158  90.2798965
  61.1286538 112.2668537  90.9731822  62.3189665 112.2165126  90.0391040
  54.0473887 108.9503699  90.2823593  54.8731907 108.6507471  89.9022237
  53.6967939 108.1811322  90.7313382  59.0155420 108.3030167  92.3521267
  58.3935429 107.6400872  92.0523495  59.6860287 108.3291299  91.6694914
  52.2482492 106.8690026  91.2412527  51.4114400 106.4412200  91.0596528
  52.2206137 107.0622469  92.1783318  59.0879948  96.7811955 101.9453773
  59.1368103  97.6574078 101.5631542  59.6302462  96.2389348 101.3725416
  58.5768927 106.8534091  85.8279727  58.7257047 107.5369555  85.1746400
  59.3835371 106.8339181  86.3429183  66.9836431 100.1576473  99.8546945
  67.8846294 100.0182938  99.5630943  67.0584405 100.3230928 100.7945122
  61.3179236  97.5343328  98.7000131  60.4482545  97.8276894  98.4282720
  61.5538716  98.1183773  99.4207395  69.4438053 101.7175101  97.2509718
  69.9192175 101.9102747  96.4428569  68.5203619 101.7734287  97.0053101
  56.3321560 102.8799268  86.8340796  56.0867602 101.9761598  87.0321006
  56.5017475 102.8816419  85.8920274  55.6017208  98.6127626  84.3326958
  54.9086453  98.6871981  83.6766994  55.3568959  97.8487969  84.8548474
  62.0764333 109.3482221  83.2991475  61.5038300 109.9672408  82.8461946
  62.6497126 109.8981583  83.8331397  68.1439722  98.5940861  95.4838023
  69.0957145  98.6938959  95.5050247  67.9743173  97.8019130  95.9936108
  65.2961592 109.6319371  84.4300057  66.2292266 109.5664933  84.6332932
  65.2084805 110.4675638  83.9714590  67.9249609 108.9485242  81.3904004
  67.8463241 108.6145105  82.2839762  68.7459276 109.4407009  81.3895477
  62.4611131 100.6843034  80.6407527  63.4070236 100.5549242  80.7095945
  62.0825376  99.9457696  81.1176955  62.3449824 104.7360780 102.1008184
  63.2652833 104.9139379 102.2948231  62.3099407 103.7916825 101.9487883
  60.6454048  98.6093010  80.5762412  59.7385504  98.3126123  80.6525126
  60.9230029  98.3122828  79.7096699  51.5631989  99.9299374  91.0261459
  51.2434773  99.0764682  90.7335833  51.0165417 100.1447952  91.7819426
  55.3411896 102.6461815  94.7430965  55.5597906 103.5778922  94.7618999
  55.7537670 102.2869789  95.5285769  60.2139761  98.2195020 104.1333714
  60.1136488  99.1689377 104.0645805  59.9961304  97.8913259 103.2609784
  59.4152833  95.4679945  80.7174392  60.2771997  95.7934844  80.9770209
  59.6003177  94.6811441  80.2047457  51.4320249 103.5502285  92.9954580
  50.7383720 103.1356238  92.4824535  52.1793240 103.5922822  92.3987999
  60.0771032 101.6492159 102.9498776  59.5938113 102.4492519 103.1562665
  60.1631971 101.6600104 101.9966220  53.3456991 103.4820539  90.8720595
  53.3227679 103.5808226  89.9202478  53.6557628 104.3285690  91.1937761
  56.0044369 105.5396694  94.9867210  56.9587623 105.5080636  94.9197141
  55.8056893 105.0787318  95.8017436  56.5943751 104.1097810  97.5538007
  57.4136640 104.6041889  97.5772845  56.8680559 103.1929778  97.5255575
  54.3594598 111.0816313  92.0037407  54.2249066 110.3216714  91.4375406
  53.9426660 111.8057213  91.5366196  65.4953561 106.2653237  81.0113983
  66.1989411 106.4703239  81.6271638  64.7716210 106.8329999  81.2763066
  57.5163724 111.9785630  92.2155850  57.3996108 112.9231063  92.1134540
  56.6956170 111.6759192  92.6041649  67.4040258 106.7035766  83.0612443
  68.2385862 106.2716965  82.8789918  67.2424601 106.5317780  83.9889337
  51.8478665  98.4435944  98.2530204  52.4937529  97.9334898  98.7417430
  51.6395817  99.1804625  98.8273630  64.3732058 105.5116791 103.7522345
  65.2423217 105.6857444 103.3908980  63.8938809 106.3311208 103.6298074
  60.3682276  92.7075988  84.0054101  60.3560946  93.6517828  84.1622371
  61.2605698  92.5246134  83.7113562  58.5418238 112.6313892  95.4311779
  59.4445485 112.6637503  95.7478274  58.3155608 111.7014343  95.4458114
  60.2971840 111.3844879  92.0921857  59.3467471 111.3846740  91.9786229
  60.6004326 110.6377613  91.5757892  56.1876156  95.5903561 102.3505219
  57.0507618  95.2340366 102.5608543  55.6141567  95.2517456 103.0380623
  68.7001055 119.0268322  89.0826035  68.1365920 118.9358259  88.3142323
  68.5853450 118.2068226  89.5628528  66.2465487 120.5219513  91.9210256
  67.0386779 120.1810338  91.5056555  66.4862137 120.6314488  92.8412409
  68.2056241 119.7828427  84.7927634  68.9787117 119.2357414  84.6540510
  68.5581640 120.6472676  85.0042096  70.0441284 121.1104809  97.9994534
  69.7531150 122.0150440  97.8841200  70.6798268 121.1521337  98.7138603
  68.4543650 117.2480021  91.0281032  67.5294147 117.1156235  91.2358724
  68.7028064 118.0274240  91.5250974  65.8152461 116.8913295  91.8624821
  65.9444843 117.1447774  92.7764233  65.1349913 117.4841003  91.5429476
  69.9851949 127.5610545  87.9615295  69.9075978 128.5118370  88.0403776
  69.3813592 127.2156417  88.6190221  72.0827667 119.9828603  89.7969165
  72.5466012 120.2616306  89.0073787  71.8184465 119.0812047  89.6142255
  68.9751748 119.5300084  92.7348928  69.5453105 119.9587353  92.0966412
  69.5659860 119.2482669  93.4333113  64.7621887 114.3635308  91.9075863
  63.9720941 114.6192836  91.4315974  65.2533134 115.1783646  92.0127904
  66.7136632 114.7279887  88.8659340  65.9167796 114.8398581  89.3842836
  66.4862224 115.0666539  88.0000230  72.5442300 121.2524590  96.8141855
  72.6086732 121.7144997  97.6500026  71.8353224 120.6221955  96.9424164
  63.0459590 114.6165798  94.3390854  63.2967628 115.5012808  94.6048430
  63.5819138 114.4370400  93.5665946  65.7119715 120.4368136  87.2548760
  66.2244235 121.2311386  87.4054325  66.3642428 119.7394426  87.1882361
  67.5214600 123.5533892  89.3371513  67.6981228 124.4751857  89.1492497
  68.3171433 123.2392311  89.7665893  68.6445915 125.0712066  95.3381855
  69.1953340 124.9429129  94.5658849  67.8057391 125.3706955  94.9876748
  63.6768632 118.7656790  88.0308331  64.5143854 119.1753798  87.8142038
  63.8546899 117.8256232  88.0008524  68.5384526 111.1268852  89.5551510
  69.1128278 110.9044034  88.8224703  69.1255509 111.1957547  90.3080111
  68.8654114 113.1573313  83.5747395  68.0291426 113.4948000  83.8956670
  68.7258883 113.0222293  82.6374532  63.6994803 116.1047505  88.7019064
  63.5019203 115.5116866  87.9770131  63.1441467 115.7999716  89.4195003
  69.6183886 114.6147672  88.5804036  68.8051752 114.9141842  88.9869228
  70.1142881 114.2203360  89.2978518  71.7692464 124.6105429  90.5138301
  71.7268643 124.8366275  89.5846833  72.6855163 124.3768803  90.6624102
  69.1097961 112.1866027  94.1965271  69.7497341 112.0454786  93.4988234
  68.2775492 111.9000541  93.8203873  69.8858265 121.4868458  90.3100263
  70.6798864 120.9918778  90.1082838  69.1749957 120.9586321  89.9467969
  66.1941029 115.6311539  86.3860016  65.2638617 115.5695995  86.6029978
  66.2898501 115.1087492  85.5896657  66.1126578 112.1566352  88.9738258
  66.3733395 113.0711685  88.8647418  66.9343750 111.6890795  89.1234871
  67.5851503 113.5704109  96.1437082  68.2574556 113.3621471  95.4949731
  66.7581289 113.3726195  95.7042315  72.4629541 122.0597480  93.9898100
  72.3240627 121.6916264  94.8624039  71.6744137 122.5745119  93.8182058
  73.0577693 127.1606576  85.3323637  73.2329449 126.6894619  86.1469260
  72.3710481 127.7872342  85.5604898  74.0134756 121.4379082  91.3786938
  73.6784589 121.3979852  92.2744588  73.5138702 120.7723798  90.9057348
  67.9879000 116.8446712  96.9039519  67.8498798 116.1126951  97.5051058
  68.8983924 116.7555612  96.6223707  67.6238778 130.3095939  92.1063497
  67.8635377 130.9414463  92.7842516  66.7807975 129.9583979  92.3928856
  68.7392494 113.0020541  80.7745302  67.8621960 112.8809342  80.4107549
  69.2150247 112.2106619  80.5224191  60.2594634 117.7897701  90.8686809
  60.9465674 117.4759431  90.2807825  60.1042763 118.6939065  90.5954061
  65.0629356 112.6787897  95.2971833  64.9787545 112.0713567  94.5622243
  64.2412062 113.1696915  95.2981329  72.1366640 126.1175061  94.5105001
  72.0636812 126.9230033  95.0224306  71.6944033 126.3167027  93.6853023
  71.9256420 125.3546831  88.0207823  71.1423942 125.8968511  88.1146047
  72.6249165 125.8720811  88.4202064  69.6477237 123.7656339  97.4868731
  70.3486697 124.3992822  97.6398125  69.1772352 124.1071070  96.7264370
  65.2444955 123.2992694  94.4199833  65.8298392 122.5536382  94.5527738
  65.0469794 123.6096650  95.3036497  68.0983611 126.3343941  89.4362276
  67.4293986 126.8190069  88.9526316  67.9596480 126.5813162  90.3505654
  59.8362610 115.8698294  93.1404276  59.8746710 115.3361885  93.9341395
  59.3302903 115.3433499  92.5215254  72.2388879 128.3687685  96.0344934
  72.7907187 128.5319306  96.7994019  72.5795073 128.9592122  95.3624959
  67.2153372 110.7162834  96.6366819  67.2794699 111.5777665  96.2244216
  67.1520493 110.1036836  95.9039177  63.4671188 114.5962396  86.2158208
  63.7624629 113.6873075  86.1625262  62.5659223 114.5750136  85.8939210
  66.9965435 112.6718393  92.1985756  66.2752020 113.2854360  92.0593230
  67.7858690 113.2076158  92.1202402  65.1959029 112.2776494  86.3397533
  64.8671735 111.3973873  86.1572639  65.5498400 112.2224162  87.2273922
  68.3100852 112.5649464  86.7073011  68.6496925 113.0935385  85.9851619
  68.7572973 112.9029870  87.4831577  70.2969000 111.0624085  84.9066303
  71.0177362 111.4405338  84.4030020  69.6734304 111.7812962  85.0101281
  69.1799344 114.7254947  92.4195380  69.0343924 115.0395250  93.3119662
  68.7024547 115.3439848  91.8666279  63.6545006 117.2660292  95.3583042
  63.1098474 118.0420100  95.4903316  64.5324356 117.6131096  95.2002163
  64.4411028 116.3930188  98.2513198  63.6992764 116.5412823  98.8377829
  64.1203772 116.6538454  97.3879948  72.3854690 125.9346166  98.0493588
  72.6941817 125.6895313  98.9216288  73.1830172 126.1392805  97.5612459
  72.4075302 128.0884076  90.2798965  71.9680293 127.5960455  90.9731822
  73.1583419 127.5457044  90.0391040  64.8867641 124.2795617  90.2823593
  65.7125661 123.9799389  89.9022237  64.5361693 123.5103239  90.7313382
  69.8549175 123.6322085  92.3521267  69.2329184 122.9692790  92.0523495
  70.5254042 123.6583217  91.6694914  63.0876247 122.1981943  91.2412527
  62.2508155 121.7704118  91.0596528  63.0599892 122.3914387  92.1783318
  69.4162682 122.1826008  85.8279727  69.5650802 122.8661473  85.1746400
  70.2229125 122.1631098  86.3429183  67.1715315 118.2091186  86.8340796
  66.9261356 117.3053516  87.0321006  67.3411229 118.2108336  85.8920274
  66.4410962 113.9419544  84.3326958  65.7480207 114.0163899  83.6766994
  66.1962714 113.1779887  84.8548474  71.4847803 113.9384928  80.5762412
  70.5779258 113.6418041  80.6525126  71.7623784 113.6414746  79.7096699
  62.4025743 115.2591291  91.0261459  62.0828527 114.4056600  90.7335833
  61.8559171 115.4739869  91.7819426  66.1805651 117.9753732  94.7430965
  66.3991660 118.9070840  94.7618999  66.5931424 117.6161707  95.5285769
  70.2546587 110.7971863  80.7174392  71.1165751 111.1226761  80.9770209
  70.4396932 110.0103359  80.2047457  62.2714003 118.8794203  92.9954580
  61.5777475 118.4648156  92.4824535  63.0186994 118.9214739  92.3987999
  70.9164786 116.9784077 102.9498776  70.4331868 117.7784437 103.1562665
  71.0025725 116.9892022 101.9966220  64.1850746 118.8112457  90.8720595
  64.1621434 118.9100144  89.9202478  64.4951382 119.6577607  91.1937761
  66.8438124 120.8688612  94.9867210  67.7981377 120.8372554  94.9197141
  66.6450647 120.4079235  95.8017436  67.4337506 119.4389728  97.5538007
  68.2530395 119.9333806  97.5772845  67.7074313 118.5221696  97.5255575
  65.1988352 126.4108231  92.0037407  65.0642820 125.6508632  91.4375406
  64.7820415 127.1349131  91.5366196  68.3557478 127.3077548  92.2155850
  68.2389862 128.2522981  92.1134540  67.5349924 127.0051110  92.6041649
  62.6872420 113.7727862  98.2530204  63.3331283 113.2626815  98.7417430
  62.4789571 114.5096543  98.8273630  71.2076030 108.0367906  84.0054101
  71.1954700 108.9809746  84.1622371  72.0999452 107.8538052  83.7113562
  69.3811992 127.9605810  95.4311779  70.2839239 127.9929420  95.7478274
  69.1549362 127.0306261  95.4458114  71.1365594 126.7136797  92.0921857
  70.1861225 126.7138658  91.9786229  71.4398080 125.9669531  91.5757892
  77.0859242 135.8511431  91.9210256  77.8780534 135.5102256  91.5056555
  77.3255892 135.9606406  92.8412409  79.0449996 135.1120344  84.7927634
  79.8180872 134.5649331  84.6540510  79.3975395 135.9764594  85.0042096
  80.8835038 136.4396727  97.9994534  80.5924904 137.3442357  97.8841200
  81.5192023 136.4813254  98.7138603  76.6546216 132.2205212  91.8624821
  76.7838597 132.4739691  92.7764233  75.9743667 132.8132920  91.5429476
  80.8245703 142.8902462  87.9615295  80.7469733 143.8410288  88.0403776
  80.2207347 142.5448335  88.6190221  75.6015641 129.6927225  91.9075863
  74.8114695 129.9484754  91.4315974  76.0926889 130.5075563  92.0127904
  73.8853344 129.9457716  94.3390854  74.1361383 130.8304726  94.6048430
  74.4212893 129.7662317  93.5665946  76.5513469 135.7660053  87.2548760
  77.0637990 136.5603304  87.4054325  77.2036182 135.0686344  87.1882361
  78.3608354 138.8825810  89.3371513  78.5374982 139.8043774  89.1492497
  79.1565188 138.5684229  89.7665893  77.6460711 130.9290442  99.2133676
  77.5314226 130.0275699  99.5140775  76.7905228 131.1754138  98.8618493
  79.4839670 140.4003983  95.3381855  80.0347095 140.2721047  94.5658849
  78.6451145 140.6998873  94.9876748  74.5162386 134.0948708  88.0308331
  75.3537608 134.5045716  87.8142038  74.6940654 133.1548150  88.0008524
  85.6980232 142.3218821  83.1176558  85.0241931 142.6250518  83.7261516
  86.0846054 143.1247902  82.7682015  74.5388557 131.4339423  88.7019064
  74.3412957 130.8408784  87.9770131  73.9835221 131.1291633  89.4195003
  77.0334783 130.9603457  86.3860016  76.1032371 130.8987912  86.6029978
  77.1292255 130.4379410  85.5896657  83.8971448 142.4898494  85.3323637
  84.0723203 142.0186537  86.1469260  83.2104236 143.1164260  85.5604898
  78.8272755 132.1738630  96.9039519  78.6892553 131.4418869  97.5051058
  79.7377678 132.0847530  96.6223707  78.4632533 145.6387856  92.1063497
  78.7029131 146.2706381  92.7842516  77.6201729 145.2875896  92.3928856
  71.0988388 133.1189618  90.8686809  71.7859428 132.8051348  90.2807825
  70.9436517 134.0230983  90.5954061  82.7650174 140.6838749  88.0207823
  81.9817696 141.2260429  88.1146047  83.4642919 141.2012729  88.4202064
  80.4870992 139.0948256  97.4868731  81.1880451 139.7284739  97.6398125
  80.0166107 139.4362988  96.7264370  76.0838710 138.6284611  94.4199833
  76.6692147 137.8828299  94.5527738  75.8863548 138.9388568  95.3036497
  78.9377365 141.6635859  89.4362276  78.2687740 142.1481986  88.9526316
  78.7990235 141.9105079  90.3505654  70.6756365 131.1990212  93.1404276
  70.7140464 130.6653802  93.9341395  70.1696657 130.6725417  92.5215254
  74.3064942 129.9254314  86.2158208  74.6018383 129.0164992  86.1625262
  73.4052978 129.9042053  85.8939210  74.4938760 132.5952209  95.3583042
  73.9492229 133.3712017  95.4903316  75.3718110 132.9423014  95.2002163
  89.6636973 139.9004305  84.3916381  90.3587878 140.5210997  84.6103696
  90.0060123 139.0499656  84.6668759  75.2804782 131.7222106  98.2513198
  74.5386518 131.8704741  98.8377829  74.9597527 131.9830371  97.3879948
  75.7261396 139.6087534  90.2823593  76.5519416 139.3091306  89.9022237
  75.3755448 138.8395157  90.7313382  73.9270001 137.5273861  91.2412527
  73.0901909 137.0996035  91.0596528  73.8993646 137.7206304  92.1783318
  80.2556436 137.5117926  85.8279727  80.4044556 138.1953390  85.1746400
  81.0622880 137.4923016  86.3429183  78.0109069 133.5383104  86.8340796
  77.7655111 132.6345434  87.0321006  78.1804984 133.5400254  85.8920274
  83.7551842 140.0066056  83.2991475  83.1825809 140.6256244  82.8461946
  84.3284635 140.5565418  83.8331397  86.9749101 140.2903207  84.4300057
  87.9079775 140.2248768  84.6332932  86.8872314 141.1259473  83.9714590
  89.6037118 139.6069077  81.3904004  89.5250750 139.2728941  82.2839762
  90.4246785 140.0990845  81.3895477  73.2419498 130.5883209  91.0261459
  72.9222282 129.7348517  90.7335833  72.6952926 130.8031787  91.7819426
  77.0199405 133.3045650  94.7430965  77.2385415 134.2362758  94.7618999
  77.4325179 132.9453624  95.5285769  73.1107758 134.2086120  92.9954580
  72.4171229 133.7940073  92.4824535  73.8580749 134.2506657  92.3987999
  75.0244500 134.1404374  90.8720595  75.0015188 134.2392062  89.9202478
  75.3345137 134.9869525  91.1937761  77.6831878 136.1980529  94.9867210
  78.6375132 136.1664472  94.9197141  77.4844402 135.7371153  95.8017436
  78.2731260 134.7681645  97.5538007  79.0924149 135.2625724  97.5772845
  78.5468068 133.8513613  97.5255575  76.0382107 141.7400149  92.0037407
  75.9036575 140.9800550  91.4375406  75.6214169 142.4641049  91.5366196
  79.1951233 142.6369466  92.2155850  79.0783617 143.5814898  92.1134540
  78.3743679 142.3343027  92.6041649  73.5266174 129.1019779  98.2530204
  74.1725038 128.5918733  98.7417430  73.3183325 129.8388461  98.8273630
  80.2205747 143.2897728  95.4311779  81.1232994 143.3221338  95.7478274
  79.9943117 142.3598179  95.4458114  97.7112042 147.8789253  93.1567620
  98.3490452 147.7596000  92.4530960  97.5932885 148.8270097  93.2155572
  94.5201749 147.8316681  93.0929144  94.1820260 147.7157745  92.2049679
  95.3891517 147.4307846  93.0730150  90.3788564 149.6852157  89.0826035
  89.8153429 149.5942094  88.3142323  90.2640959 148.8652062  89.5628528
  95.0021532 148.9851532  99.0515350  94.9910172 148.5904331  98.1795853
  95.1642171 148.2517605  99.6449121  87.9252996 151.1803349  91.9210256
  88.7174288 150.8394173  91.5056555  88.1649646 151.2898324  92.8412409
  95.9588123 153.3523125  84.3940500  95.3076103 153.9377205  84.0074514
  96.7532486 153.8829320  84.4535538  89.8843750 150.4412262  84.7927634
  90.6574626 149.8941249  84.6540510  90.2369149 151.3056511  85.0042096
  91.7228793 151.7688644  97.9994534  91.4318659 152.6734275  97.8841200
  92.3585777 151.8105172  98.7138603  92.6485000 149.1465493  94.5895893
  93.2448572 148.9221515  93.8752856  92.7059971 148.4050238  95.1921341
  92.2210028 146.6004928  82.4246084  92.4735549 146.0786449  81.6629547
  91.2834587 146.4371074  82.5272768  97.2653311 145.6040706  90.2320828
  98.0516400 145.1860130  89.8811245  97.5292015 146.5086799  90.4002476
  97.4363388 151.0413557  84.9309484  96.8009221 151.1148183  85.6430389
  97.1060795 151.6307156  84.2528564 102.6661738 145.5415940  91.1353806
 103.3986910 144.9715156  91.3691636 101.9101094 145.1537540  91.5760312
  91.9406317 148.5033034  84.6270459  91.8242575 147.8277937  85.2951544
  92.0508577 148.0165408  83.8102612  94.2837858 147.9643181  88.3317149
  93.9196065 147.4373802  89.0430070  95.1404974 147.5741650  88.1583634
 100.1887158 139.2537514  95.5948415  99.8570483 140.1232925  95.3709630
  99.5932772 138.9373798  96.2742445  93.9243345 142.9933081  83.3278497
  94.0917747 143.8613317  83.6948968  93.7340514 143.1560363  82.4039786
  96.6818678 151.4550060  94.9944327  96.3819401 152.3575099  94.8860135
  96.3369737 151.1882243  95.8465480  90.1331159 147.9063857  91.0281032
  89.2081656 147.7740071  91.2358724  90.3815572 148.6858076  91.5250974
 100.0815822 143.9732600  92.6741765  99.1732699 143.9048008  92.3800526
 100.0303417 144.4504545  93.5023590  93.9032565 145.4490738  84.3125164
  93.7832191 145.8947789  85.1510644  93.2085154 145.7976056  83.7538702
  87.4939970 147.5497130  91.8624821  87.6232351 147.8031609  92.7764233
  86.8137422 148.1424838  91.5429476  91.6639458 158.2194380  87.9615295
  91.5863487 159.1702205  88.0403776  91.0601101 157.8740253  88.6190221
  94.1556687 145.3922246 100.6176662  93.3790021 145.9516166 100.6079527
  94.7947250 145.8779029 101.1391532 101.9477468 142.1749038  94.4519639
 101.3051848 142.4681572  93.8059433 101.4432397 142.0601959  95.2572835
  99.6017632 145.9212212  85.1405498 100.5135488 146.1539598  84.9653196
  99.0927279 146.5049256  84.5780577  92.4103060 148.2007699 100.1794629
  93.1517744 148.7392743  99.9029453  91.7040045 148.8273988 100.3366181
  97.8858399 150.3436839  98.7766791  98.2941755 149.9019250  98.0321423
  97.1635661 149.7689467  99.0300983  98.2087214 150.9038030  92.5319079
  97.5796076 151.0683744  91.8295147  97.8212876 151.3179640  93.3030043
 102.0876446 151.8392468  89.8863443 101.4027484 152.2191369  89.3360477
 102.1720295 152.4487794  90.6195391  99.3427377 149.4852427  96.4858787
  99.5544273 150.1284187  95.8093168  99.2957126 148.6514743  96.0180717
  96.9453606 142.0970248  93.3895359  96.0838085 142.3951501  93.6812096
  96.9716041 142.3140646  92.4576391  93.7615176 150.6412438  89.7969165
  94.2253521 150.9200141  89.0073787  93.4971974 149.7395883  89.6142255
  90.6539257 150.1883920  92.7348928  91.2240614 150.6171188  92.0966412
  91.2447369 149.9066504  93.4333113  92.6984062 146.7635590  86.6058730
  93.4008105 147.2156634  87.0732656  92.3664690 146.1219409  87.2338623
  86.4409396 145.0219143  91.9075863  85.6508450 145.2776672  91.4315974
  86.9320643 145.8367481  92.0127904 100.4573205 152.3624382  94.6581144
 101.2790649 151.9604570  94.3763826 100.4535608 152.2592616  95.6097260
  88.3924141 145.3863722  88.8659340  87.5955305 145.4982417  89.3842836
  88.1649733 145.7250375  88.0000230  94.2229809 151.9108426  96.8141855
  94.2874241 152.3728833  97.6500026  93.5140733 151.2805791  96.9424164
 108.5479198 148.7063131  91.0066116 107.7942907 148.1370529  90.8510120
 108.6826740 148.6725795  91.9536750  93.9377827 153.5776533  86.6820835
  93.8023501 154.4228069  87.1105683  94.4787639 153.7795811  85.9186769
  87.3907224 151.0951971  87.2548760  87.9031744 151.8895221  87.4054325
  88.0429937 150.3978262  87.1882361  89.2002109 154.2117727  89.3371513
  89.3768737 155.1335692  89.1492497  89.9958942 153.8976147  89.7665893
  95.5646303 154.2000100 100.8121177  95.1210157 153.4136478 100.4942081
  96.2263516 154.3879250 100.1465068  90.3233424 155.7295901  95.3381855
  90.8740849 155.6012965  94.5658849  89.4844900 156.0290790  94.9876748
  97.6627541 154.4802900  98.8402578  97.6446016 155.3011781  98.3482847
  98.5847461 154.3556975  99.0652719  94.1200595 151.9947029  99.6826087
  94.6528932 151.2335317  99.4525395  93.5914676 151.7020681 100.4250241
  85.3556141 149.4240625  88.0308331  86.1931363 149.8337634  87.8142038
  85.5334408 148.4840068  88.0008524  97.2520573 147.0915706  83.7192163
  96.7367196 147.8620311  83.9580551  96.9797881 146.4180842  84.3425225
  94.8367684 141.9365407  88.7777402  93.9809280 141.5472257  88.5983041
  95.2494636 142.0157368  87.9177187 102.2254847 149.8448061  85.6545337
 101.4484290 149.5059220  85.2100499 102.9046328 149.8500684  84.9800302
  97.0406876 144.9642798  85.5451945  96.7357012 145.2788947  86.3962088
  97.9937318 145.0424218  85.5879278  95.4853308 151.1233021  87.1944899
  94.9574669 150.3885781  86.8818136  94.9840811 151.9007698  86.9484867
 100.4646154 149.3182042  92.3111945  99.8069828 150.0081303  92.3992074
 101.2686553 149.7078474  92.6545931  90.2172035 141.7852688  89.5551510
  90.7915787 141.5627869  88.8224703  90.8043018 141.8541382  90.3080111
  99.2751613 147.6726415  90.3615887  99.7883494 148.3056406  90.8637596
  99.9252837 147.0727610  89.9959247  90.5441623 143.8157149  83.5747395
  89.7078935 144.1531835  83.8956670  90.4046392 143.6806129  82.6374532
  93.6305908 148.9413232  80.1979872  92.7232970 148.7102485  80.3971021
  94.1276940 148.1450851  80.3853853  96.5373987 157.6510739  83.1176558
  95.8635686 157.9542436  83.7261516  96.9239809 158.4539819  82.7682015
  95.7532444 145.1475870  92.6074227  94.8355005 145.3690817  92.4495915
  96.1692587 145.2222181  91.7485935  96.5367491 146.5467286  87.7376907
  97.2839310 147.0588683  87.4284030  96.8059081 146.2251339  88.5981301
  94.8094141 149.0425827  84.7203862  93.9005361 148.7584859  84.8176331
  94.8389225 149.4624905  83.8607169 100.0413409 152.6532416  88.4895029
  99.5875736 151.8123326  88.5460220  99.4107376 153.2893814  88.8269809
  98.9846328 143.5824402  89.7195697  98.2469085 143.0701788  90.0505939
  99.2373102 143.1424784  88.9078974  98.4846348 154.4908913  89.4244847
  98.7769322 155.0513970  88.7057213  98.9944969 154.7837474  90.1798007
  99.0857956 136.3600654  90.3137466  99.3916833 135.4998018  90.0263381
  99.8110561 136.9518274  90.1136460  85.3782312 146.7631341  88.7019064
  85.1806712 146.1700701  87.9770131  84.8228976 146.4583551  89.4195003
  93.3579035 146.6554447  90.8213657  93.4127645 145.7028284  90.7456134
  92.5470238 146.8113886  91.3054956  94.5070229 150.5834570  82.0591940
  94.0689659 149.8670429  81.5997578  95.2480670 150.8110685  81.4977032
  91.2971395 145.2731507  88.5804036  90.4839261 145.5725678  88.9869228
  91.7930390 144.8787196  89.2978518  93.4479973 155.2689264  90.5138301
  93.4056152 155.4950110  89.5846833  94.3642672 155.0352638  90.6624102
  96.8945607 145.7373331  97.4118930  97.2494995 145.9644805  98.2713396
  97.5417738 146.0691708  96.7896185 102.6243344 148.8591767  88.1168259
 102.4861243 149.0493363  87.1889448 102.2679563 149.6211150  88.5736310
 102.6512724 150.9268294  93.1279530 103.0849230 150.8343583  93.9762584
 103.3644304 150.9025795  92.4899546  91.5645774 152.1452293  90.3100263
  92.3586373 151.6502613  90.1082838  90.8537466 151.6170156  89.9467969
  96.3840619 154.5270388  94.6612631  96.4377641 155.0961325  95.4290347
  95.5155400 154.6972273  94.2966668  87.8728538 146.2895375  86.3860016
  86.9426126 146.2279830  86.6029978  87.9686010 145.7671327  85.5896657
 103.5128273 150.9691995  95.6612416 103.7064163 151.8737805  95.9071691
 103.4128891 150.5099414  96.4951001  98.5743382 151.1198738 101.2353296
  98.4228888 150.8909289 100.3183380  98.5648061 152.0769339 101.2484641
  95.3428718 148.6930650  96.2199563  96.2720778 148.8441810  96.0468530
  94.9219748 148.7814671  95.3648209  94.1417050 152.7181315  93.9898100
  94.0028136 152.3500099  94.8624039  93.3531646 153.2328954  93.8182058
  94.7365202 157.8190411  85.3323637  94.9116958 157.3478455  86.1469260
  94.0497990 158.4456178  85.5604898  95.6922265 152.0962918  91.3786938
  95.3572098 152.0563688  92.2744588  95.1926211 151.4307633  90.9057348
  89.6666509 147.5030548  96.9039519  89.5286307 146.7710786  97.5051058
  90.5771433 147.4139448  96.6223707  98.6281457 149.4418952  81.6523998
  98.0110627 148.7165780  81.5557051  98.1597945 150.2028312  81.3091072
 100.2835589 154.1517860  99.3129778 100.2248135 153.4677080  98.6460361
 100.6855107 154.8936850  98.8610404  89.3026287 160.9679774  92.1063497
  89.5422886 161.5998298  92.7842516  88.4595484 160.6167814  92.3928856
  90.4180003 143.6604376  80.7745302  89.5409469 143.5393177  80.4107549
  90.8937756 142.8690455  80.5224191 100.2852996 152.1157444  97.5443758
  99.3979775 151.7783366  97.6670157 100.8551547 151.3840475  97.7812523
  81.9382143 148.4481536  90.8686809  82.6253183 148.1343266  90.2807825
  81.7830272 149.3522901  90.5954061  93.8154149 156.7758897  94.5105001
  93.7424321 157.5813868  95.0224306  93.3731542 156.9750862  93.6853023
  93.6043929 156.0130667  88.0207823  92.8211451 156.5552347  88.1146047
  94.3036674 156.5304646  88.4202064  96.9140579 141.8225296  90.6642028
  97.4109278 141.0695258  90.3443098  96.1427560 141.8589613  90.0985237
 104.7670336 147.5265662  92.3060320 104.7560213 148.4090377  91.9354253
 103.8987716 147.1737212  92.1114857  96.2752833 156.6745731  96.6663160
  96.9880805 157.3093195  96.5939061  95.7842861 156.7709597  95.8503162
  97.9970360 150.5796983  88.2380451  97.0626638 150.6998446  88.0685156
  98.1747028 149.6769450  87.9740461  93.4975548 143.9642679  90.3913713
  93.1273335 143.4113719  91.0794618  93.9934640 143.3600813  89.8388713
 101.3842911 146.4214303  88.7730486 101.8503363 147.2542294  88.6990788
 101.8350411 145.9559284  89.4775744  91.3264746 154.4240174  97.4868731
  92.0274206 155.0576657  97.6398125  90.8559861 154.7654906  96.7264370
  99.4519142 152.7658124  85.7716638  99.7278986 152.6514718  86.6810512
  98.5823641 152.3675609  85.7328811  99.3559574 138.7894890  92.8121387
  98.4422654 139.0199116  92.9803594  99.7852675 138.8733334  93.6635419
  99.1266032 146.9784782  95.3121281  98.4737482 147.2260689  94.6573734
  99.5046412 146.1648920  94.9783758  96.0873206 157.0144475  89.4149451
  96.2695601 156.1966131  89.8777204  96.9106192 157.2312167  88.9774341
  96.4215372 155.9412660  86.6764500  96.9503138 155.4305114  86.0634662
  96.6843591 155.6255190  87.5410033  95.1753605 147.7204593 101.7987318
  94.4994242 147.6198722 102.4689693  95.9981239 147.5643806 102.2623315
  86.9232464 153.9576529  94.4199833  87.5085901 153.2120217  94.5527738
  86.7257303 154.2680486  95.3036497  89.7771120 156.9927776  89.4362276
  89.1081495 157.4773904  88.9526316  89.6383989 157.2396997  90.3505654
  81.5150119 146.5282129  93.1404276  81.5534219 145.9945720  93.9341395
  81.0090412 146.0017335  92.5215254  93.9176388 159.0271520  96.0344934
  94.4694696 159.1903142  96.7994019  94.2582582 159.6175958  95.3624959
  98.7687262 153.8532778 101.8893588  99.3127166 154.4662736 101.3948543
  98.1874107 154.4112356 102.4060601  85.1458697 145.2546231  86.2158208
  85.4412138 144.3456910  86.1625262  84.2446732 145.2333971  85.8939210
  97.0544775 156.9753496  93.0208616  96.9295915 156.1743235  92.5119562
  97.7123866 157.4699689  92.5322586  99.1179684 154.7762516  94.6488166
  98.1710019 154.6567867  94.5766493  99.4662457 153.8885014  94.7314428
  86.8746538 142.9360329  86.3397533  86.5459244 142.0557708  86.1572639
  87.2285909 142.8807998  87.2273922  96.1226117 154.5715232  90.8492519
  95.9751079 153.6431939  91.0300089  96.9479611 154.5935323  90.3649594
  89.9888361 143.2233299  86.7073011  90.3284434 143.7519220  85.9851619
  90.4360482 143.5613705  87.4831577  99.7260239 155.3943791  91.9357391
 100.6506786 155.1886652  91.7981842  99.5575542 155.1460192  92.8446733
  91.9756508 141.7207921  84.9066303  92.6964871 142.0989173  84.4030020
  91.3521813 142.4396797  85.0101281  96.1187631 142.4253069  85.8424636
  96.3351246 143.3077707  85.5413464  95.6381699 142.0339283  85.1130278
  90.8586853 145.3838783  92.4195380  90.7131433 145.6979086  93.3119662
  90.3812056 146.0023683  91.8666279  92.7183236 142.3741331  92.4676270
  92.7044804 141.4782424  92.1308568  93.4355664 142.3811994  93.1014556
  99.5155555 155.9129458  87.2919483  99.6892433 155.3475881  86.5393335
 100.0084446 156.7130353  87.1098973  85.3332515 147.9244127  95.3583042
  84.7885983 148.7003935  95.4903316  86.2111865 148.2714932  95.2002163
  92.1220132 141.2555711  87.7363840  92.2436043 140.3272357  87.9354728
  91.8322174 141.2694397  86.8242155 105.3694946 148.6765881  88.9109782
 105.8126092 147.9273206  88.5128906 104.4921457 148.6676017  88.5283514
 100.5030728 155.2296222  84.3916381 101.1981632 155.8502915  84.6103696
 100.8453878 154.3791574  84.6668759  86.1198537 147.0514023  98.2513198
  85.3780273 147.1996659  98.8377829  85.7991281 147.3122289  97.3879948
 102.4022151 152.6795928  85.9203712 102.9273475 153.0183201  85.1953032
 102.3144503 151.7442943  85.7366846  94.0642199 156.5930002  98.0493588
  94.3729326 156.3479148  98.9216288  94.8617681 156.7976640  97.5612459
  94.0862811 158.7467911  90.2798965  93.6467802 158.2544290  90.9731822
  94.8370928 158.2040879  90.0391040  86.5655150 154.9379452  90.2823593
  87.3913170 154.6383224  89.9022237  86.2149202 154.1687075  90.7313382
  91.5336684 154.2905920  92.3521267  90.9116693 153.6276625  92.0523495
  92.2041551 154.3167052  91.6694914  84.7663756 152.8565779  91.2412527
  83.9295664 152.4287953  91.0596528  84.7387401 153.0498222  92.1783318
 102.0916057 153.3128832 101.2254910 101.3011600 153.2952970 100.6859409
 101.8549411 153.8517125 101.9803946 102.2113932 150.1621298  98.5387638
 102.2611937 149.9971305  99.4803161 102.1027855 149.2948557  98.1485519
  91.0950191 152.8409844  85.8279727  91.2438311 153.5245308  85.1746400
  91.9016634 152.8214934  86.3429183  99.5017694 146.1452226  99.8546945
 100.4027557 146.0058691  99.5630943  99.5765669 146.3106681 100.7945122
 103.7132129 152.5818239  98.7829660 103.4216937 152.9448220  99.6193121
 103.1004260 151.8685248  98.6042992 104.9127811 150.1471119  91.3032230
 105.7474702 150.5860923  91.4669790 105.0486940 149.6709772  90.4840476
 101.9619317 147.7050854  97.2509718 102.4373439 147.8978500  96.4428569
 101.0384882 147.7610040  97.0053101  88.8502824 148.8675021  86.8340796
  88.6048865 147.9637351  87.0321006  89.0198738 148.8692172  85.8920274
  88.1198471 144.6003379  84.3326958  87.4267716 144.6747734  83.6766994
  87.8750223 143.8363723  84.8548474  94.5945596 155.3357974  83.2991475
  94.0219563 155.9548161  82.8461946  95.1678390 155.8857336  83.8331397
 100.6620986 144.5816614  95.4838023 101.6138409 144.6814712  95.5050247
 100.4924436 143.7894883  95.9936108  98.6835365 141.6672197  95.6697424
  98.0885297 141.9477210  94.9743913  98.3985062 142.1566098  96.4414165
  97.8142856 155.6195124  84.4300057  98.7473529 155.5540686  84.6332932
  97.7266069 156.4551391  83.9714590 100.4430873 154.9360995  81.3904004
 100.3644504 154.6020858  82.2839762 101.2640539 155.4282762  81.3895477
 103.1409064 147.8022734  94.5980323 103.1085384 146.8638735  94.7840007
 103.7509687 147.8806771  93.8646148  94.9792395 146.6718787  80.6407527
  95.9251499 146.5424995  80.7095945  94.6006640 145.9333449  81.1176955
 103.2903552 144.5933777  94.6438606 102.7742601 143.8092234  94.4568535
 104.1743501 144.2652494  94.8085126 100.9514279 138.3374793  90.6034419
 100.7539100 138.0289881  91.4877751 101.5613985 139.0636432  90.7332349
 108.9585614 148.8638741  93.7386360 109.6889002 148.6024029  94.2994063
 108.3492559 148.1267463  93.7788428 107.0400911 147.0046603  94.3360811
 106.3134074 146.8702568  93.7277303 106.6248198 147.3123432  95.1417529
  94.8631087 150.7236533 102.1008184  95.7834097 150.9015132 102.2948231
  94.8280670 149.7792578 101.9487883  93.1635312 144.5968763  80.5762412
  92.2566767 144.3001876  80.6525126  93.4411293 144.2998581  79.7096699
  84.0813252 145.9175127  91.0261459  83.7616036 145.0640435  90.7335833
  83.5346680 146.1323705  91.7819426  87.8593160 148.6337568  94.7430965
  88.0779169 149.5654675  94.7618999  88.2718933 148.2745542  95.5285769
  94.7797377 139.1405653  86.7306654  93.9698106 138.7952738  87.1061900
  95.4681794 138.8313197  87.3194265  96.7087926 138.2183700  88.3530950
  97.2618964 138.6379153  89.0120973  96.9458012 137.2919448  88.3953906
  91.9334096 141.4555698  80.7174392  92.7953260 141.7810597  80.9770209
  92.1184440 140.6687194  80.2047457  83.9501512 149.5378038  92.9954580
  83.2564984 149.1231991  92.4824535  84.6974503 149.5798575  92.3987999
 100.0866733 140.3284225  87.8609615  99.5065402 140.9869029  87.4787667
  99.8202665 139.5061570  87.4497032  98.5370299 139.7289283  90.0630935
  99.0370078 139.8405817  89.2545254  99.1805907 139.4250335  90.7031743
  85.8638255 149.4696292  90.8720595  85.8408943 149.5683979  89.9202478
  86.1738891 150.3161443  91.1937761  88.5225633 151.5272447  94.9867210
  89.4768886 151.4956389  94.9197141  88.3238156 151.0663071  95.8017436
  89.1125015 150.0973563  97.5538007  89.9317904 150.5917642  97.5772845
  89.3861822 149.1805531  97.5255575  98.8691611 142.4884315  86.9165963
  97.9817466 142.7733966  86.6986158  99.2845600 142.3278079  86.0693240
 102.2206147 142.5130836  90.6320302 102.9966537 143.0027289  90.9044919
 101.4954281 142.9388890  91.0892172 104.6578706 143.2258456  91.6894243
 105.2523196 142.9854191  90.9787551 104.7305289 142.5065586  92.3167779
  86.8775861 157.0692066  92.0037407  86.7430329 156.3092467  91.4375406
  86.4607924 157.7932966  91.5366196  98.0134824 152.2528990  81.0113983
  98.7170674 152.4578992  81.6271638  97.2897473 152.8205752  81.2763066
  98.8432635 148.0038851  87.1316253  98.7867836 148.4607403  86.2923885
  99.3960977 147.2429536  86.9539096 102.6537440 143.7928583  87.9566372
 102.3974375 143.3925219  88.7874580 102.0290309 144.5072377  87.8316512
 106.9649778 146.5324656  90.4637664 106.4049336 146.6017846  91.2369226
 106.3593282 146.3565641  89.7437160  90.0344987 157.9661383  92.2155850
  89.9177371 158.9106816  92.1134540  89.2137433 157.6634945  92.6041649
  99.9221522 152.6911519  83.0612443 100.7567126 152.2592718  82.8789918
  99.7605865 152.5193533  83.9889337  99.5767414 149.1943632  84.4268782
  99.5216218 149.0287904  83.4857226  98.9513469 149.9019665  84.5830972
  84.3659929 144.4311697  98.2530204  85.0118792 143.9210651  98.7417430
  84.1577080 145.1680379  98.8273630  96.8913321 151.4992544 103.7522345
  97.7604481 151.6733197 103.3908980  96.4120073 152.3186961 103.6298074
  92.8863539 138.6951742  84.0054101  92.8742209 139.6393581  84.1622371
  93.7786961 138.5121887  83.7113562  91.0599501 158.6189645  95.4311779
  91.9626748 158.6513256  95.7478274  90.8336871 157.6890096  95.4458114
  92.8153103 157.3720632  92.0921857  91.8648734 157.3722494  91.9786229
  93.1185589 156.6253366  91.5757892  96.7015659 135.2894518  88.2600037
  95.9348055 134.7353005  88.4056720  97.1126364 135.3616387  89.1214189
 108.5505797 163.2081170  93.1567620 109.1884207 163.0887918  92.4530960
 108.4326640 164.1562014  93.2155572 105.3595503 163.1608598  93.0929144
 105.0214015 163.0449663  92.2049679 106.2285271 162.7599763  93.0730150
 101.2182319 165.0144075  89.0826035 100.6547184 164.9234012  88.3142323
 101.1034714 164.1943979  89.5628528 105.8415286 164.3143450  99.0515350
 105.8303927 163.9196248  98.1795853 106.0035926 163.5809523  99.6449121
  98.7646751 166.5095266  91.9210256  99.5568043 166.1686091  91.5056555
  99.0043401 166.6190241  92.8412409 100.7237505 165.7704180  84.7927634
 101.4968381 165.2233167  84.6540510 101.0762904 166.6348429  85.0042096
 102.5622547 167.0980562  97.9994534 102.2712413 168.0026193  97.8841200
 103.1979532 167.1397090  98.7138603 103.4878754 164.4757410  94.5895893
 104.0842326 164.2513433  93.8752856 103.5453726 163.7342156  95.1921341
 103.0603782 161.9296846  82.4246084 103.3129303 161.4078367  81.6629547
 102.1228342 161.7662991  82.5272768 108.1047065 160.9332624  90.2320828
 108.8910155 160.5152047  89.8811245 108.3685770 161.8378716  90.4002476
 108.2757143 166.3705474  84.9309484 107.6402976 166.4440101  85.6430389
 107.9454549 166.9599073  84.2528564 113.5055492 160.8707857  91.1353806
 114.2380664 160.3007074  91.3691636 112.7494848 160.4829458  91.5760312
 102.7800071 163.8324952  84.6270459 102.6636329 163.1569855  85.2951544
 102.8902331 163.3457326  83.8102612 105.1231612 163.2935099  88.3317149
 104.7589819 162.7665720  89.0430070 105.9798728 162.9033568  88.1583634
 111.0280913 154.5829431  95.5948415 110.6964238 155.4524842  95.3709630
 110.4326526 154.2665715  96.2742445 104.7637099 158.3224999  83.3278497
 104.9311501 159.1905235  83.6948968 104.5734268 158.4852280  82.4039786
 107.5212432 166.7841977  94.9944327 107.2213155 167.6867016  94.8860135
 107.1763492 166.5174161  95.8465480 100.9724914 163.2355774  91.0281032
 100.0475410 163.1031988  91.2358724 101.2209327 164.0149994  91.5250974
 110.9209576 159.3024518  92.6741765 110.0126453 159.2339926  92.3800526
 110.8697172 159.7796463  93.5023590 104.7426320 160.7782656  84.3125164
 104.6225945 161.2239707  85.1510644 104.0478908 161.1267974  83.7538702
  98.3333725 162.8789048  91.8624821  98.4626106 163.1323527  92.7764233
  97.6531176 163.4716756  91.5429476 104.9950442 160.7214163 100.6176662
 104.2183776 161.2808083 100.6079527 105.6341005 161.2070946 101.1391532
 112.7871222 157.5040956  94.4519639 112.1445603 157.7973489  93.8059433
 112.2826151 157.3893876  95.2572835 110.4411386 161.2504129  85.1405498
 111.3529242 161.4831516  84.9653196 109.9321033 161.8341173  84.5780577
 103.2496814 163.5299617 100.1794629 103.9911499 164.0684661  99.9029453
 102.5433800 164.1565905 100.3366181 108.7252154 165.6728757  98.7766791
 109.1335510 165.2311168  98.0321423 108.0029415 165.0981385  99.0300983
 105.0783224 160.6101364  96.1500348 105.9244419 161.0340777  96.2934997
 105.0181862 159.9534988  96.8438911 109.0480968 166.2329948  92.5319079
 108.4189831 166.3975662  91.8295147 108.6606631 166.6471557  93.3030043
 108.2282669 158.2705732  97.8081521 107.9843601 159.0247793  97.2715797
 108.5042600 158.6491080  98.6428768 110.1821132 164.8144345  96.4858787
 110.3938027 165.4576104  95.8093168 110.1350880 163.9806661  96.0180717
 107.7847361 157.4262165  93.3895359 106.9231840 157.7243419  93.6812096
 107.8109796 157.6432564  92.4576391 104.6008930 165.9704356  89.7969165
 105.0647276 166.2492059  89.0073787 104.3365728 165.0687800  89.6142255
 101.4933011 165.5175837  92.7348928 102.0634368 165.9463106  92.0966412
 102.0841123 165.2358422  93.4333113 103.5377816 162.0927508  86.6058730
 104.2401860 162.5448552  87.0732656 103.2058445 161.4511327  87.2338623
 101.9858178 160.6839265 100.9809939 101.3556838 161.3655546 101.2145336
 101.8794266 160.5722346 100.0363077  97.2803150 160.3511061  91.9075863
  96.4902204 160.6068589  91.4315974  97.7714398 161.1659399  92.0127904
  99.2317896 160.7155640  88.8659340  98.4349059 160.8274334  89.3842836
  99.0043488 161.0542292  88.0000230 105.0623563 167.2400343  96.8141855
 105.1267996 167.7020750  97.6500026 104.3534487 166.6097708  96.9424164
  95.5640853 160.6041551  94.3390854  95.8148892 161.4888561  94.6048430
  96.1000402 160.4246153  93.5665946 104.7771581 168.9068451  86.6820835
 104.6417256 169.7519986  87.1105683 105.3181394 169.1087728  85.9186769
 101.2638921 154.9860031 103.3435190 100.8705866 154.4326229 104.0182834
 102.0805061 155.2970609 103.7341708  98.2300978 166.4243889  87.2548760
  98.7425499 167.2187139  87.4054325  98.8823691 165.7270179  87.1882361
 104.1806882 156.4017910 100.9355447 104.9216595 157.0025063 100.8559909
 104.4124804 155.6595547 100.3773489  99.3248220 161.5874277  99.2133676
  99.2101735 160.6859534  99.5140775  98.4692737 161.8337974  98.8618493
 104.9594350 167.3238947  99.6826087 105.4922686 166.5627235  99.4525395
 104.4308431 167.0312598 100.4250241 108.1264045 152.4299013  95.2119728
 107.7828314 153.3200654  95.1358839 108.4943007 152.2400670  94.3489313
  96.1949895 164.7532543  88.0308331  97.0325117 165.1629551  87.8142038
  96.3728163 163.8131985  88.0008524 108.0914327 162.4207624  83.7192163
 107.5760951 163.1912228  83.9580551 107.8191636 161.7472760  84.3425225
 105.6761438 157.2657325  88.7777402 104.8203035 156.8764175  88.5983041
 106.0888390 157.3449285  87.9177187 107.2060585 154.8003668  93.1768962
 106.7025381 154.7633803  92.3636767 107.4991192 155.7096411  93.2365618
 103.4503471 154.8842398  92.1835143 104.3156468 154.6885206  91.8241033
 103.5180980 154.6552749  93.1104500 107.8800630 160.2934716  85.5451945
 107.5750766 160.6080865  86.3962088 108.8331073 160.3716136  85.5879278
 106.3247062 166.4524939  87.1944899 105.7968424 165.7177699  86.8818136
 105.8234565 167.2299615  86.9484867 111.3039908 164.6473960  92.3111945
 110.6463583 165.3373221  92.3992074 112.1080308 165.0370392  92.6545931
 101.0565790 157.1144605  89.5551510 101.6309542 156.8919787  88.8224703
 101.6436772 157.1833300  90.3080111 110.1145367 163.0018332  90.3615887
 110.6277249 163.6348324  90.8637596 110.7646591 162.4019528  89.9959247
 101.3835377 159.1449066  83.5747395 100.5472689 159.4823753  83.8956670
 101.2440147 159.0098046  82.6374532 103.3588458 153.9885854  88.2826580
 102.7052870 153.6734872  87.6583194 103.3168932 153.3661595  89.0086403
 104.4699662 164.2705149  80.1979872 103.5626724 164.0394403  80.3971021
 104.9670694 163.4742769  80.3853853 106.5926198 160.4767788  92.6074227
 105.6748759 160.6982735  92.4495915 107.0086342 160.5514098  91.7485935
 107.3761246 161.8759204  87.7376907 108.1233065 162.3880601  87.4284030
 107.6452835 161.5543256  88.5981301 105.6487896 164.3717744  84.7203862
 104.7399115 164.0876777  84.8176331 105.6782980 164.7916823  83.8607169
 109.8240083 158.9116320  89.7195697 109.0862840 158.3993706  90.0505939
 110.0766856 158.4716701  88.9078974 109.9251710 151.6892572  90.3137466
 110.2310587 150.8289935  90.0263381 110.6504315 152.2810192  90.1136460
  96.2176066 162.0923258  88.7019064  96.0200466 161.4992619  87.9770131
  95.6622730 161.7875469  89.4195003 104.1972790 161.9846365  90.8213657
 104.2521400 161.0320201  90.7456134 103.3863992 162.1405804  91.3054956
 105.3463984 165.9126488  82.0591940 104.9083414 165.1962347  81.5997578
 106.0874425 166.1402603  81.4977032 102.1365150 160.6023425  88.5804036
 101.3233015 160.9017595  88.9869228 102.6324144 160.2079113  89.2978518
 104.2873728 170.5981182  90.5138301 104.2449907 170.8242028  89.5846833
 105.2036427 170.3644556  90.6624102 107.7339362 161.0665249  97.4118930
 108.0888749 161.2936722  98.2713396 108.3811493 161.3983626  96.7896185
 113.4637099 164.1883685  88.1168259 113.3254997 164.3785281  87.1889448
 113.1073317 164.9503068  88.5736310 101.6279225 158.1741780  94.1965271
 102.2678604 158.0330539  93.4988234 100.7956755 157.8876294  93.8203873
 102.4039529 167.4744211  90.3100263 103.1980127 166.9794531  90.1082838
 101.6931221 166.9462074  89.9467969  98.7122292 161.6187292  86.3860016
  97.7819880 161.5571748  86.6029978  98.8079764 161.0963245  85.5896657
  98.6307841 158.1442105  88.9738258  98.8914658 159.0587438  88.8647418
  99.4525013 157.6766548  89.1234871 100.1032766 159.5579862  96.1437082
 100.7755820 159.3497224  95.4949731  99.2762553 159.3601948  95.7042315
 106.0058338 156.1841803  98.1602743 105.3586253 156.8831753  98.0667220
 106.7759354 156.6177947  98.5278991 109.4137136 166.4490655 101.2353296
 109.2622643 166.2201207 100.3183380 109.4041816 167.4061257 101.2484641
 106.1822473 164.0222568  96.2199563 107.1114533 164.1733728  96.0468530
 105.7613503 164.1106589  95.3648209 104.9810805 168.0473233  93.9898100
 104.8421890 167.6792017  94.8624039 104.1925401 168.5620872  93.8182058
 106.5316020 167.4254835  91.3786938 106.1965852 167.3855605  92.2744588
 106.0319965 166.7599551  90.9057348 100.5060264 162.8322465  96.9039519
 100.3680062 162.1002704  97.5051058 101.4165187 162.7431365  96.6223707
 109.4675211 164.7710870  81.6523998 108.8504382 164.0457698  81.5557051
 108.9991700 165.5320230  81.3091072 103.1342564 162.5442425  96.3923199
 103.8442183 161.9035617  96.3509817 103.0911872 162.7955319  97.3149380
 101.8471498 159.5307642  98.2118839 101.3108855 159.0798381  98.8640435
 101.2588207 159.6653551  97.4689303 101.2573757 158.9896294  80.7745302
 100.3803224 158.8685095  80.4107549 101.7331510 158.1982372  80.5224191
  92.7775897 163.7773454  90.8686809  93.4646937 163.4635184  90.2807825
  92.6224026 164.6814818  90.5954061  97.5810620 158.6663650  95.2971833
  97.4968808 158.0589320  94.5622243  96.7593326 159.1572669  95.2981329
 107.7534333 157.1517214  90.6642028 108.2503033 156.3987176  90.3443098
 106.9821315 157.1881530  90.0985237 108.8364114 165.9088901  88.2380451
 107.9020393 166.0290363  88.0685156 109.0140783 165.0061368  87.9740461
 104.3369302 159.2934597  90.3913713 103.9667090 158.7405637  91.0794618
 104.8328395 158.6892730  89.8388713 112.2236665 161.7506220  88.7730486
 112.6897118 162.5834212  88.6990788 112.6744166 161.2851202  89.4775744
 102.1658501 169.7532092  97.4868731 102.8667960 170.3868575  97.6398125
 101.6953616 170.0946823  96.7264370 110.1953328 154.1186807  92.8121387
 109.2816408 154.3491034  92.9803594 110.6246430 154.2025251  93.6635419
 109.9659787 162.3076699  95.3121281 109.3131237 162.5552607  94.6573734
 110.3440167 161.4940837  94.9783758 106.0147360 163.0496510 101.7987318
 105.3387997 162.9490640 102.4689693 106.8374994 162.8935724 102.2623315
  92.3543874 161.8574047  93.1404276  92.3927973 161.3237638  93.9341395
  91.8484166 161.3309253  92.5215254  99.7334636 156.7038587  96.6366819
  99.7975962 157.5653418  96.2244216  99.6701756 156.0912589  95.9039177
  99.2086908 158.7761720 100.2839853  99.8358947 158.3938797 100.8977377
  98.3514827 158.5575922 100.6495546  95.9852451 160.5838149  86.2158208
  96.2805892 159.6748828  86.1625262  95.0840487 160.5625889  85.8939210
  99.5146698 158.6594146  92.1985756  98.7933284 159.2730113  92.0593230
 100.3039954 159.1951911  92.1202402 102.3173012 155.9948572  98.4726408
 102.8407413 156.2410869  99.2352718 102.0985345 156.8268607  98.0529546
  97.7140293 158.2652247  86.3397533  97.3852999 157.3849626  86.1572639
  98.0679663 158.2099915  87.2273922 100.8282116 158.5525217  86.7073011
 101.1678188 159.0811138  85.9851619 101.2754236 158.8905623  87.4831577
 103.5225557 156.9362267  96.1576079 103.1822377 156.1370080  96.5596759
 102.8164563 157.2363978  95.5852912 104.1742028 154.0211580  94.6103402
 104.9968098 153.5472058  94.4882292 104.4180092 154.8002064  95.1102088
 102.8150263 157.0499838  84.9066303 103.5358625 157.4281091  84.4030020
 102.1915567 157.7688715  85.0101281 106.9581386 157.7544987  85.8424636
 107.1745000 158.6369625  85.5413464 106.4775453 157.3631201  85.1130278
 101.6980607 160.7130700  92.4195380 101.5525188 161.0271003  93.3119662
 101.2205811 161.3315601  91.8666279 103.5576990 157.7033248  92.4676270
 103.5438559 156.8074342  92.1308568 104.2749418 157.7103912  93.1014556
 105.4103121 158.1370589  94.5129397 105.1520899 159.0587659  94.5113728
 104.8788161 157.7401023  95.2029861  96.1726269 163.2536045  95.3583042
  95.6279737 164.0295853  95.4903316  97.0505619 163.6006849  95.2002163
 102.9613886 156.5847629  87.7363840 103.0829797 155.6564275  87.9354728
 102.6715928 156.5986315  86.8242155 105.8305076 154.2702539  90.8730560
 105.8526773 154.3341872  89.9182539 106.2473135 153.4307048  91.0671066
  96.9592291 162.3805941  98.2513198  96.2174027 162.5288576  98.8377829
  96.6385036 162.6414207  97.3879948 102.3730438 169.6197838  92.3521267
 101.7510447 168.9568543  92.0523495 103.0435305 169.6458970  91.6694914
 102.4454966 158.0979626 101.9453773 102.4943121 158.9741749 101.5631542
 102.9877480 157.5557019 101.3725416 101.9343945 168.1701761  85.8279727
 102.0832065 168.8537226  85.1746400 102.7410388 168.1506851  86.3429183
 110.3411449 161.4744144  99.8546945 111.2421311 161.3350609  99.5630943
 110.4159423 161.6398599 100.7945122 104.6754254 158.8510998  98.7000131
 103.8057563 159.1444564  98.4282720 104.9113734 159.4351443  99.4207395
 112.8013071 163.0342772  97.2509718 113.2767193 163.2270418  96.4428569
 111.8778637 163.0901958  97.0053101  99.6896578 164.1966939  86.8340796
  99.4442620 163.2929269  87.0321006  99.8592493 164.1984089  85.8920274
 107.3793288 155.0690615  96.2165552 107.8975232 155.8051642  95.8912040
 107.0248421 155.3754609  97.0512311  98.9592226 159.9295297  84.3326958
  98.2661470 160.0039652  83.6766994  98.7143977 159.1655640  84.8548474
 107.6305882 151.4890898  91.7366448 107.9107636 150.8214087  92.3626875
 108.4156489 151.6819993  91.2241112 111.5014740 159.9108532  95.4838023
 112.4532163 160.0106630  95.5050247 111.3318191 159.1186800  95.9936108
 109.5229120 156.9964115  95.6697424 108.9279052 157.2769128  94.9743913
 109.2378817 157.4858016  96.4414165 113.9802818 163.1314652  94.5980323
 113.9479138 162.1930652  94.7840007 114.5903442 163.2098688  93.8646148
 105.8186149 162.0010705  80.6407527 106.7645254 161.8716913  80.7095945
 105.4400394 161.2625366  81.1176955 114.1297307 159.9225695  94.6438606
 113.6136355 159.1384152  94.4568535 115.0137255 159.5944412  94.8085126
 111.7908034 153.6666711  90.6034419 111.5932855 153.3581799  91.4877751
 112.4007739 154.3928349  90.7332349 105.7024842 166.0528451 102.1008184
 106.6227851 166.2307050 102.2948231 105.6674425 165.1084496 101.9487883
 104.0029066 159.9260681  80.5762412 103.0960522 159.6293794  80.6525126
 104.2805047 159.6290499  79.7096699  94.9207007 161.2467044  91.0261459
  94.6009791 160.3932353  90.7335833  94.3740435 161.4615622  91.7819426
  98.6986914 163.9629485  94.7430965  98.9172924 164.8946593  94.7618999
  99.1112688 163.6037460  95.5285769 105.6191132 154.4697571  86.7306654
 104.8091860 154.1244656  87.1061900 106.3075549 154.1605114  87.3194265
 107.5481680 153.5475617  88.3530950 108.1012719 153.9671071  89.0120973
 107.7851767 152.6211366  88.3953906 103.5714779 159.5362691 104.1333714
 103.4711506 160.4857048 104.0645805 103.3536321 159.2080930 103.2609784
 102.7727851 156.7847616  80.7174392 103.6347015 157.1102514  80.9770209
 102.9578195 155.9979112  80.2047457  94.7895267 164.8669956  92.9954580
  94.0958738 164.4523909  92.4824535  95.5368258 164.9090492  92.3987999
 110.9260487 155.6576143  87.8609615 110.3459156 156.3160947  87.4787667
 110.6596420 154.8353487  87.4497032 109.3764054 155.0581200  90.0630935
 109.8763832 155.1697735  89.2545254 110.0199662 154.7542253  90.7031743
 103.4346050 162.9659830 102.9498776 102.9513131 163.7660190 103.1562665
 103.5206989 162.9767775 101.9966220  96.7032009 164.7988210  90.8720595
  96.6802697 164.8975897  89.9202478  97.0132646 165.6453360  91.1937761
  99.3619387 166.8564365  94.9867210 100.3162641 166.8248307  94.9197141
  99.1631911 166.3954988  95.8017436  99.9518769 165.4265481  97.5538007
 100.7711658 165.9209559  97.5772845 100.2255577 164.5097449  97.5255575
 109.7085365 157.8176233  86.9165963 108.8211220 158.1025884  86.6986158
 110.1239354 157.6569996  86.0693240 113.0599901 157.8422754  90.6320302
 113.8360292 158.3319206  90.9044919 112.3348036 158.2680808  91.0892172
 115.4972460 158.5550373  91.6894243 116.0916951 158.3146109  90.9787551
 115.5699044 157.8357504  92.3167779 109.6826389 163.3330769  87.1316253
 109.6261590 163.7899320  86.2923885 110.2354732 162.5721454  86.9539096
 113.4931195 159.1220501  87.9566372 113.2368129 158.7217136  88.7874580
 112.8684063 159.8364295  87.8316512 110.4161168 164.5235550  84.4268782
 110.3609972 164.3579822  83.4857226 109.7907224 165.2311583  84.5830972
  95.2053683 159.7603615  98.2530204  95.8512547 159.2502569  98.7417430
  94.9970834 160.4972296  98.8273630 107.7307076 166.8284462 103.7522345
 108.5998235 167.0025114 103.3908980 107.2513827 167.6478879 103.6298074
 103.7257294 154.0243659  84.0054101 103.7135964 154.9685499  84.1622371
 104.6180716 153.8413805  83.7113562 107.5409413 150.6186436  88.2600037
 106.7741809 150.0644923  88.4056720 107.9520118 150.6908305  89.1214189
  99.5451174 156.9071232 102.3505219 100.4082636 156.5508036 102.5608543
  98.9716585 156.5685126 103.0380623  21.8355762  17.5807951  79.8812926
  22.4734172  17.4614699  79.1776266  21.7176605  18.5288795  79.9400878
  18.6445468  17.5335380  79.8174451  18.3063980  17.4176444  78.9294986
  19.5135237  17.1326545  79.7975457  14.5032284  19.3870856  75.8071342
  13.9397149  19.2960793  75.0387630  14.3884679  18.5670760  76.2873834
  19.1265251  18.6870231  85.7760656  19.1153892  18.2923030  84.9041160
  19.2885891  17.9536304  86.3694428  12.0496716  20.8822048  78.6455562
  12.8418008  20.5412872  78.2301862  12.2893366  20.9917023  79.5657716
  20.0831843  23.0541824  71.1185807  19.4319823  23.6395904  70.7319821
  20.8776206  23.5848019  71.1780844  14.0087470  20.1430961  71.5172941
  14.7818346  19.5959948  71.3785817  14.3612869  21.0075210  71.7287402
  15.8472513  21.4707343  84.7239840  15.5562379  22.3752974  84.6086507
  16.4829497  21.5123871  85.4383910  16.7728719  18.8484192  81.3141200
  17.3692292  18.6240214  80.5998163  16.8303691  18.1068937  81.9166648
  16.3453748  16.3023627  69.1491391  16.5979268  15.7805148  68.3874854
  15.4078307  16.1389772  69.2518075  21.3897031  15.3059405  76.9566134
  22.1760120  14.8878828  76.6056551  21.6535735  16.2105498  77.1247783
  21.5607108  20.7432256  71.6554791  20.9252941  20.8166882  72.3675696
  21.2304514  21.3325854  70.9773870  26.7905458  15.2434639  77.8599113
  27.5230630  14.6733855  78.0936942  26.0344813  14.8556239  78.3005618
  16.0650037  18.2051733  71.3515766  15.9486295  17.5296636  72.0196850
  16.1752296  17.7184107  70.5347919  18.4081577  17.6661880  75.0562455
  18.0439785  17.1392501  75.7675377  19.2648693  17.2760349  74.8828941
  24.3130878   8.9556213  82.3193721  23.9814203   9.8251624  82.0954936
  23.7176491   8.6392497  82.9987752  18.0487064  12.6951780  70.0523804
  18.2161467  13.5632016  70.4194275  17.8584234  12.8579061  69.1285093
  20.8062398  21.1568759  81.7189634  20.5063121  22.0593797  81.6105441
  20.4613457  20.8900942  82.5710787  14.2574879  17.6082555  77.7526339
  13.3325376  17.4758770  77.9604030  14.5059292  18.3876775  78.2496281
  24.2059541  13.6751299  79.3987071  23.2976419  13.6066707  79.1045832
  24.1547137  14.1523244  80.2268897  18.0276285  15.1509437  71.0370471
  17.9075911  15.5966488  71.8755951  17.3328874  15.4994755  70.4784009
  11.6183690  17.2515829  78.5870128  11.7476071  17.5050308  79.5009539
  10.9381141  17.8443537  78.2674783  15.7883177  27.9213079  74.6860602
  15.7107207  28.8720904  74.7649082  15.1844821  27.5758951  75.3435528
  18.2800407  15.0940944  87.3421969  17.5033741  15.6534865  87.3324833
  18.9190970  15.5797727  87.8636839  26.0721188  11.8767737  81.1764945
  25.4295568  12.1700270  80.5304740  25.5676116  11.7620658  81.9818142
  23.7261351  15.6230910  71.8650805  24.6379208  15.8558297  71.6898502
  23.2170999  16.2067955  71.3025883  16.5346780  17.9026398  86.9039936
  17.2761464  18.4411442  86.6274759  15.8283765  18.5292687  87.0611487
  22.0102119  20.0455538  85.5012097  22.4185475  19.6037949  84.7566730
  21.2879381  19.4708166  85.7546290  18.3633189  14.9828145  82.8745654
  19.2094384  15.4067559  83.0180303  18.3031827  14.3261769  83.5684217
  22.3330934  20.6056729  79.2564386  21.7039796  20.7702443  78.5540454
  21.9456596  21.0198338  80.0275350  26.2120166  21.5411167  76.6108750
  25.5271204  21.9210068  76.0605783  26.2964015  22.1506493  77.3440698
  21.5132635  12.6432513  84.5326828  21.2693566  13.3974574  83.9961103
  21.7892565  13.0217861  85.3674075  23.4671097  19.1871126  83.2104093
  23.6787993  19.8302886  82.5338474  23.4200846  18.3533442  82.7426023
  21.0697326  11.7988946  80.1140665  20.2081805  12.0970200  80.4057403
  21.0959761  12.0159345  79.1821698  17.8858896  20.3431137  76.5214471
  18.3497241  20.6218840  75.7319094  17.6215694  19.4414582  76.3387562
  14.7782977  19.8902618  79.4594234  15.3484334  20.3189887  78.8211719
  15.3691089  19.6085203  80.1578420  16.8227782  16.4654289  73.3304036
  17.5251825  16.9175333  73.7977963  16.4908410  15.8238108  73.9583929
  15.2708143  15.0566046  87.7055246  14.6406804  15.7382327  87.9390643
  15.1644231  14.9449128  86.7608384  24.5816925  22.0643081  81.3826451
  25.4034369  21.6623268  81.1009132  24.5779328  21.9611315  82.3342566
  18.3473529  21.6127124  83.5387161  18.4117961  22.0747532  84.3745333
  17.6384453  20.9824489  83.6669471  32.6722918  18.4081830  77.7311422
  31.9186627  17.8389228  77.5755427  32.8070460  18.3744494  78.6782057
  18.0621546  23.2795232  73.4066142  17.9267221  24.1246768  73.8350989
  18.6031359  23.4814510  72.6432075  11.5150944  20.7970670  73.9794067
  12.0275464  21.5913920  74.1299631  12.1673657  20.0996960  73.9127668
  13.3245828  23.9136426  76.0616820  13.5012457  24.8354391  75.8737804
  14.1202662  23.5994845  76.4911200  19.6890023  23.9018798  87.5366484
  19.2453877  23.1155177  87.2187388  20.3507236  24.0897949  86.8710374
  14.4477144  25.4314600  82.0627162  14.9984569  25.3031663  81.2904156
  13.6088620  25.7309489  81.7122055  21.7871261  24.1821598  85.5647885
  21.7689736  25.0030479  85.0728154  22.7091181  24.0575674  85.7898026
  18.2444315  21.6965728  86.4071393  18.7772652  20.9354016  86.1770701
  17.7158396  21.4039380  87.1495548   9.4799861  19.1259324  74.7553637
  10.3175083  19.5356333  74.5387345   9.6578128  18.1858766  74.7253831
  21.3764293  16.7934405  70.4437470  20.8610916  17.5639010  70.6825858
  21.1041601  16.1199541  71.0670532  18.9611404  11.6384106  75.5022708
  18.1053000  11.2490956  75.3228347  19.3738355  11.7176067  74.6422494
  26.3498567  19.5466760  72.3790644  25.5728010  19.2077919  71.9345806
  27.0290048  19.5519383  71.7045609  21.1650596  14.6661497  72.2697251
  20.8600731  14.9807646  73.1207394  22.1181038  14.7442917  72.3124584
  19.6097028  20.8251720  73.9190205  19.0818389  20.0904480  73.6063443
  19.1084530  21.6026397  73.6730174  24.5889874  19.0200741  79.0357252
  23.9313548  19.7100002  79.1237380  25.3930273  19.4097173  79.3791238
  23.3995332  17.3745114  77.0861193  23.9127214  18.0075105  77.5882903
  24.0496556  16.7746309  76.7204553  17.7549628  18.6431931  66.9225178
  16.8476690  18.4121184  67.1216327  18.2520660  17.8469550  67.1099160
  20.6617707  27.3529438  69.8421864  19.9879405  27.6561135  70.4506822
  21.0483529  28.1558518  69.4927322  19.8776163  14.8494569  79.3319534
  18.9598725  15.0709516  79.1741222  20.2936307  14.9240880  78.4731241
  20.6611211  16.2485985  74.4622214  21.4083030  16.7607382  74.1529336
  20.9302801  15.9270037  75.3226608  18.9337861  18.7444525  71.4449168
  18.0249081  18.4603558  71.5421638  18.9632945  19.1643604  70.5852475
  24.1657129  22.3551115  75.2140336  23.7119456  21.5142025  75.2705526
  23.5351095  22.9912513  75.5515116  23.1090048  13.2843101  76.4441003
  22.3712805  12.7720487  76.7751246  23.3616822  12.8443483  75.6324280
  22.6090068  24.1927612  76.1490154  22.9013042  24.7532669  75.4302520
  23.1188689  24.4856173  76.9043313  17.4822755  16.3573146  77.5458964
  17.5371365  15.4046982  77.4701440  16.6713957  16.5132585  78.0300262
  18.6313949  20.2853269  68.7837247  18.1933379  19.5689128  68.3242884
  19.3724390  20.5129384  68.2222338  15.4215115  14.9750206  75.3049343
  14.6082981  15.2744376  75.7114535  15.9174109  14.5805895  76.0223825
  17.5723693  24.9707963  77.2383607  17.5299872  25.1968809  76.3092139
  18.4886392  24.7371337  77.3869408  21.0189327  15.4392030  84.1364236
  21.3738715  15.6663503  84.9958702  21.6661458  15.7710407  83.5141492
  26.7487064  18.5610466  74.8413566  26.6104962  18.7512062  73.9134755
  26.3923283  19.3229849  75.2981617  26.7756443  20.6286993  79.8524837
  27.2092950  20.5362282  80.7007891  27.4888024  20.6044494  79.2144853
  15.6889494  21.8470992  77.0345570  16.4830092  21.3521312  76.8328145
  14.9781186  21.3188855  76.6713276  20.5084338  24.2289087  81.3857938
  20.5621361  24.7980024  82.1535654  19.6399120  24.3990972  81.0211975
  27.6371993  20.6710694  82.3857722  27.8307883  21.5756504  82.6316997
  27.5372611  20.2118113  83.2196307  19.2908304  10.5568584  84.8848050
  18.6436219  11.2558534  84.7912526  20.0609319  10.9904728  85.2524298
  22.6987102  20.8217437  87.9598603  22.5472608  20.5927988  87.0428687
  22.6891781  21.7788038  87.9729948  19.4672438  18.3949349  82.9444869
  20.3964498  18.5460509  82.7713837  19.0463468  18.4833370  82.0893516
  18.2660770  22.4200014  80.7143407  18.1271856  22.0518798  81.5869345
  17.4775366  22.9347653  80.5427365  18.8608922  27.5209110  72.0568944
  19.0360678  27.0497153  72.8714566  18.1741710  28.1474876  72.2850204
  19.8165985  21.7981616  78.1032245  19.4815818  21.7582386  78.9989895
  19.3169931  21.1326332  77.6302655  13.7910229  17.2049246  83.6284826
  13.6530027  16.4729485  84.2296365  14.7015152  17.1158147  83.3469014
  22.7525177  19.1437651  68.3769305  22.1354347  18.4184479  68.2802357
  22.2841665  19.9047011  68.0336379  16.4192530  16.9169206  83.1168506
  17.1292148  16.2762398  83.0755124  16.3761838  17.1682101  84.0394686
  24.4079308  23.8536559  86.0375085  24.3491855  23.1695779  85.3705668
  24.8098827  24.5955549  85.5855711  13.4270007  30.6698473  78.8308804
  13.6666605  31.3016997  79.5087822  12.5839204  30.3186513  79.1174163
  24.4096716  21.8176143  84.2689065  23.5223494  21.4802065  84.3915463
  24.9795267  21.0859174  84.5057830  17.9397869  26.4777595  81.2350308
  17.8668040  27.2832567  81.7469612  17.4975262  26.6769561  80.4098329
  17.7287649  25.7149365  74.7453129  16.9455171  26.2571046  74.8391354
  18.4280394  26.2323345  75.1447371  21.0384299  11.5243995  77.3887335
  21.5352998  10.7713957  77.0688405  20.2671280  11.5608312  76.8230544
  28.8914056  17.2284360  79.0305626  28.8803932  18.1109076  78.6599559
  28.0231436  16.8755911  78.8360163  20.3996553  26.3764429  83.3908466
  21.1124525  27.0111894  83.3184368  19.9086581  26.4728295  82.5748468
  22.1214079  20.2815682  74.9625758  21.1870358  20.4017145  74.7930462
  22.2990748  19.3788149  74.6985768  17.6219268  13.6661378  77.1159019
  17.2517055  13.1132418  77.8039925  18.1178360  13.0619511  76.5634019
  25.5086631  16.1233001  75.4975792  25.9747083  16.9560993  75.4236095
  25.9594131  15.6577983  76.2021051  15.4508466  24.1258873  84.2114037
  16.1517926  24.7595356  84.3643431  14.9803581  24.4673604  83.4509677
  23.5762862  22.4676823  72.4961944  23.8522706  22.3533417  73.4055818
  22.7067361  22.0694308  72.4574117  23.4803294   8.4913588  79.5366694
  22.5666373   8.7217815  79.7048901  23.9096395   8.5752032  80.3880726
  23.2509752  16.6803480  82.0366588  22.5981202  16.9279388  81.3819040
  23.6290132  15.8667619  81.7029065  20.2116926  26.7163174  76.1394758
  20.3939320  25.8984829  76.6022510  21.0349912  26.9330866  75.7019648
  20.5459091  25.6431359  73.4009806  21.0746858  25.1323813  72.7879969
  20.8087311  25.3273889  74.2655339  19.2997325  17.4223291  88.5232625
  18.6237962  17.3217421  89.1935000  20.1224959  17.2662505  88.9868622
  11.0476184  23.6595228  81.1445140  11.6329621  22.9138916  81.2773044
  10.8501023  23.9699185  82.0281804  13.9014839  26.6946475  76.1607582
  13.2325215  27.1792603  75.6771622  13.7627709  26.9415696  77.0750961
  18.0420108  28.7290219  82.7590241  18.5938416  28.8921840  83.5239326
  18.3826301  29.3194657  82.0870266  22.8930982  23.5551476  88.6138895
  23.4370886  24.1681435  88.1193850  22.3117827  24.1131055  89.1305908
  21.1788495  26.6772194  79.7453923  21.0539635  25.8761934  79.2364868
  21.8367586  27.1718388  79.2567893  23.2423404  24.4781214  81.3733473
  22.2953739  24.3586566  81.3011800  23.5906177  23.5903713  81.4559734
  20.2469837  24.2733931  77.5737825  20.0994799  23.3450638  77.7545395
  21.0723330  24.2954021  77.0894900  23.8503959  25.0962489  78.6602698
  24.7750506  24.8905351  78.5227149  23.6819262  24.8478891  79.5692039
  20.2431351  12.1271768  72.5669942  20.4594966  13.0096406  72.2658771
  19.7625418  11.7357982  71.8375584  14.9830573  15.0857482  79.1440687
  14.8375153  15.3997785  80.0364969  14.5055776  15.7042382  78.5911586
  18.6953086  12.5097370  81.2374704  18.4370864  13.4314440  81.2359034
  18.1638127  12.1127804  81.9275168  23.6399275  25.6148157  74.0164789
  23.8136152  25.0494579  73.2638642  24.1328166  26.4149052  73.8344279
   9.4576235  17.6262826  82.0828348   8.9129703  18.4022634  82.2148623
  10.3355585  17.9733630  81.9247470  29.4938666  18.3784580  75.6355089
  29.9369812  17.6291905  75.2374212  28.6165176  18.3694716  75.2528821
  24.6274447  24.9314921  71.1161688  25.3225352  25.5521614  71.3349002
  24.9697598  24.0810273  71.3914066  26.5265871  22.3814627  72.6449018
  27.0517195  22.7201900  71.9198338  26.4388223  21.4461642  72.4612153
  18.1885919  26.2948700  84.7738895  18.4973046  26.0497847  85.6461595
  18.9861401  26.4995339  84.2857765  18.2106531  28.4486610  77.0044272
  17.7711522  27.9562989  77.6977128  18.9614648  27.9059578  76.7636347
  10.6898870  24.6398151  77.0068900  11.5156890  24.3401923  76.6267543
  10.3392922  23.8705773  77.4558688  15.6580403  23.9924619  79.0766573
  15.0360413  23.3295324  78.7768801  16.3285270  24.0185751  78.3940221
   8.8907475  22.5584477  77.9657833   8.0539384  22.1306652  77.7841835
   8.8631121  22.7516921  78.9028624  26.2159777  23.0147530  87.9500216
  25.4255320  22.9971669  87.4104716  25.9793131  23.5535824  88.7049253
  26.3357652  19.8639997  85.2632945  26.3855657  19.6990004  86.2048468
  26.2271575  18.9967256  84.8730826  15.2193910  22.5428543  72.5525034
  15.3682031  23.2264007  71.8991707  16.0260354  22.5233633  73.0674490
  23.6261414  15.8470925  86.5792252  24.5271277  15.7077390  86.2876249
  23.7009389  16.0125380  87.5190429  17.9604219  13.2237780  85.4245438
  17.0907529  13.5171346  85.1528026  18.1963700  13.8078225  86.1452702
  27.8375849  22.2836938  85.5074966  27.5460657  22.6466919  86.3438427
  27.2247980  21.5703947  85.3288299  29.0371531  19.8489818  78.0277537
  29.8718422  20.2879622  78.1915097  29.1730660  19.3728471  77.2085782
  26.0863037  17.4069553  83.9755024  26.5617158  17.5997199  83.1673876
  25.1628602  17.4628739  83.7298408  12.9746543  18.5693720  73.5586103
  12.7292585  17.6656050  73.7566313  13.1442458  18.5710871  72.6165581
  20.6643253   9.4417397  82.9410858  21.1825197  10.1778423  82.6157347
  20.3098386   9.7481390  83.7757617  18.7189316  25.0376673  70.0236781
  18.1463283  25.6566860  69.5707253  19.2922110  25.5876035  70.5576703
  24.7864706  14.2835313  82.2083330  25.7382129  14.3833411  82.2295554
  24.6168156  13.4913582  82.7181414  22.8079085  11.3690896  82.3942731
  22.2129017  11.6495909  81.6989220  22.5228782  11.8584797  83.1659472
  21.9386576  25.3213823  71.1545364  22.8717249  25.2559385  71.3578239
  21.8509789  26.1570090  70.6959896  24.5674592  24.6379693  68.1149311
  24.4888224  24.3039557  69.0085069  25.3884259  25.1301461  68.1140783
  27.2652784  17.5041433  81.3225630  27.2329104  16.5657433  81.5085314
  27.8753407  17.5825469  80.5891455  19.1036114  16.3737486  67.3652834
  20.0495219  16.2443694  67.4341252  18.7250359  15.6352148  67.8422262
  27.4147272  14.2952476  81.3683913  26.8986321  13.5110933  81.1813842
  28.2987221  13.9671193  81.5330432  25.0757999   8.0393492  77.3279726
  24.8782820   7.7308580  78.2123058  25.6857705   8.7655131  77.4577655
  33.0829333  18.5657440  80.4631666  33.8132722  18.3042728  81.0239370
  32.4736279  17.8286162  80.5033734  31.1644631  16.7065302  81.0606118
  30.4377794  16.5721267  80.4522609  30.7491917  17.0142131  81.8662836
  18.9874807  20.4255232  88.8253491  19.9077816  20.6033831  89.0193537
  18.9524390  19.4811277  88.6733190  17.2879032  14.2987462  67.3007719
  16.3810487  14.0020575  67.3770433  17.5655013  14.0017280  66.4342005
  11.9836879  18.3356267  81.4676272  12.2022889  19.2673374  81.4864306
  12.3962653  17.9764241  82.2531076  16.8564745  13.9089472  90.8579021
  16.7561472  14.8583829  90.7891112  16.6386287  13.5807711  89.9855091
   8.0745232  19.2396737  79.7199887   7.3808703  18.8250690  79.2069841
   8.8218223  19.2817274  79.1233306  24.2110453  10.0302924  74.5854921
  23.6309122  10.6887728  74.2032974  23.9446385   9.2080268  74.1742339
  22.6614019   9.4307982  76.7876241  23.1613797   9.5424516  75.9790560
  23.3049627   9.1269034  77.4277050  16.7196015  17.3386611  89.6744082
  16.2363097  18.1386971  89.8807971  16.8056954  17.3494556  88.7211526
   9.9881974  19.1714991  77.5965902   9.9652663  19.2702678  76.6447785
  10.2982611  20.0180142  77.9183068  12.6469352  21.2291146  81.7112516
  13.6012606  21.1975088  81.6442448  12.4481876  20.7681770  82.5262742
  13.2368734  19.7992262  84.2783314  14.0561623  20.2936341  84.3018151
  13.5105542  18.8824230  84.2500881  22.9935331  12.1903014  73.6411269
  22.1061186  12.4752665  73.4231464  23.4089320  12.0296778  72.7938546
  26.3449867  12.2149535  77.3565609  27.1210257  12.7045988  77.6290225
  25.6198001  12.6407589  77.8137478  28.7822425  12.9277154  78.4139549
  29.3766916  12.6872890  77.7032858  28.8549009  12.2084285  79.0413086
  11.0019581  26.7710765  78.7282714  10.8674049  26.0111166  78.1620712
  10.5851643  27.4951665  78.2611503  22.1378544  21.9547689  67.7359289
  22.8414394  22.1597691  68.3516945  21.4141193  22.5224451  68.0008373
  22.9676354  17.7057550  73.8561560  22.9111556  18.1626102  73.0169192
  23.5204697  16.9448235  73.6784402  26.7781160  13.4947282  74.6811679
  26.5218095  13.0943918  75.5119887  26.1534028  14.2091076  74.5561818
  31.0893498  16.2343355  77.1882970  30.5293056  16.3036545  77.9614533
  30.4837002  16.0584340  76.4682467  14.1588707  27.6680082  78.9401157
  14.0421091  28.6125515  78.8379847  13.3381153  27.3653644  79.3286956
  24.0465242  22.3930218  69.7857749  24.8810845  21.9611417  69.6035224
  23.8849584  22.2212232  70.7134644  23.7011134  18.8962331  71.1514089
  23.6459938  18.7306603  70.2102533  23.0757189  19.6038364  71.3076278
  21.0157041  21.2011243  90.4767652  21.8848201  21.3751896  90.1154286
  20.5363792  22.0205660  90.3543381  15.1843221  28.3208344  82.1557085
  16.0870468  28.3531954  82.4723580  14.9580591  27.3908795  82.1703421
  16.9396823  27.0739331  78.8167164  15.9892454  27.0741192  78.7031536
  17.2429309  26.3272065  78.3003198  32.6749517  32.9099869  79.8812926
  33.3127927  32.7906617  79.1776266  32.5570360  33.8580713  79.9400878
  29.4839223  32.8627297  79.8174451  29.1457734  32.7468362  78.9294986
  30.3528991  32.4618462  79.7975457  25.3426039  34.7162774  75.8071342
  24.7790904  34.6252711  75.0387630  25.2278434  33.8962678  76.2873834
  29.9659006  34.0162149  85.7760656  29.9547647  33.6214947  84.9041160
  30.1279645  33.2828222  86.3694428  22.8890471  36.2113965  78.6455562
  23.6811762  35.8704790  78.2301862  23.1287121  36.3208940  79.5657716
  30.9225597  38.3833741  71.1185807  30.2713577  38.9687822  70.7319821
  31.7169960  38.9139936  71.1780844  24.8481224  35.4722879  71.5172941
  25.6212100  34.9251866  71.3785817  25.2006623  36.3367128  71.7287402
  26.6866267  36.7999261  84.7239840  26.3956133  37.7044892  84.6086507
  27.3223251  36.8415788  85.4383910  27.6122474  34.1776109  81.3141200
  28.2086046  33.9532132  80.5998163  27.6697445  33.4360855  81.9166648
  27.1847502  31.6315545  69.1491391  27.4373023  31.1097066  68.3874854
  26.2472061  31.4681690  69.2518075  32.2290785  30.6351323  76.9566134
  33.0153874  30.2170746  76.6056551  32.4929489  31.5397415  77.1247783
  32.4000862  36.0724173  71.6554791  31.7646695  36.1458800  72.3675696
  32.0698269  36.6617772  70.9773870  26.9043791  33.5343651  71.3515766
  26.7880049  32.8588554  72.0196850  27.0146051  33.0476025  70.5347919
  29.2475332  32.9953798  75.0562455  28.8833539  32.4684419  75.7675377
  30.1042448  32.6052267  74.8828941  35.1524633  24.2848130  82.3193721
  34.8207957  25.1543541  82.0954936  34.5570246  23.9684414  82.9987752
  28.8880819  28.0243697  70.0523804  29.0555221  28.8923934  70.4194275
  28.6977988  28.1870979  69.1285093  31.6456152  36.4860676  81.7189634
  31.3456875  37.3885715  81.6105441  31.3007212  36.2192860  82.5710787
  25.0968634  32.9374473  77.7526339  24.1719130  32.8050687  77.9604030
  25.3453047  33.7168692  78.2496281  35.0453296  29.0043217  79.3987071
  34.1370173  28.9358625  79.1045832  34.9940892  29.4815161  80.2268897
  28.8670040  30.4801355  71.0370471  28.7469665  30.9258406  71.8755951
  28.1722628  30.8286673  70.4784009  22.4577445  32.5807747  78.5870128
  22.5869826  32.8342226  79.5009539  21.7774896  33.1735455  78.2674783
  26.6276932  43.2504997  74.6860602  26.5500962  44.2012822  74.7649082
  26.0238576  42.9050869  75.3435528  29.1194162  30.4232862  87.3421969
  28.3427496  30.9826782  87.3324833  29.7584725  30.9089645  87.8636839
  36.9114942  27.2059655  81.1764945  36.2689323  27.4992188  80.5304740
  36.4069871  27.0912575  81.9818142  34.5655106  30.9522828  71.8650805
  35.4772962  31.1850215  71.6898502  34.0564753  31.5359872  71.3025883
  27.3740534  33.2318315  86.9039936  28.1155218  33.7703359  86.6274759
  26.6677519  33.8584604  87.0611487  29.2026944  30.3120063  82.8745654
  30.0488139  30.7359476  83.0180303  29.1425581  29.6553687  83.5684217
  33.1724688  35.9348647  79.2564386  32.5433551  36.0994361  78.5540454
  32.7850350  36.3490256  80.0275350  37.0513920  36.8703084  76.6108750
  36.3664958  37.2501986  76.0605783  37.1357769  37.4798411  77.3440698
  32.3526389  27.9724431  84.5326828  32.1087321  28.7266492  83.9961103
  32.6286320  28.3509779  85.3674075  31.9091081  27.1280864  80.1140665
  31.0475560  27.4262118  80.4057403  31.9353515  27.3451263  79.1821698
  28.7252650  35.6723055  76.5214471  29.1890996  35.9510758  75.7319094
  28.4609448  34.7706499  76.3387562  25.6176731  35.2194536  79.4594234
  26.1878088  35.6481805  78.8211719  26.2084843  34.9377121  80.1578420
  27.6621536  31.7946207  73.3304036  28.3645580  32.2467251  73.7977963
  27.3302165  31.1530026  73.9583929  26.1101898  30.3857964  87.7055246
  25.4800558  31.0674244  87.9390643  26.0037986  30.2741045  86.7608384
  21.4046870  30.0529760  78.6321170  20.6145924  30.3087288  78.1561280
  21.8958118  30.8678098  78.7373210  35.4210680  37.3934999  81.3826451
  36.2428123  36.9915186  81.1009132  35.4173083  37.2903233  82.3342566
  23.3561616  30.4174339  75.5904647  22.5592779  30.5293033  76.1088142
  23.1287208  30.7560991  74.7245537  29.1867283  36.9419042  83.5387161
  29.2511716  37.4039449  84.3745333  28.4778207  36.3116407  83.6669471
  19.6884573  30.3060250  81.0636161  19.9392612  31.1907260  81.3293737
  20.2244122  30.1264852  80.2911252  28.9015301  38.6087150  73.4066142
  28.7660976  39.4538685  73.8350989  29.4425113  38.8106427  72.6432075
  25.3882640  24.6878729  90.0680497  24.9949586  24.1344928  90.7428141
  26.2048781  24.9989308  90.4587014  22.3544698  36.1262588  73.9794067
  22.8669219  36.9205838  74.1299631  23.0067411  35.4288878  73.9127668
  24.1639583  39.2428344  76.0616820  24.3406211  40.1646309  75.8737804
  24.9596416  38.9286763  76.4911200  28.3050601  26.1036609  87.6600753
  29.0460315  26.7043762  87.5805216  28.5368524  25.3614246  87.1018796
  23.4491939  31.2892976  85.9378983  23.3345455  30.3878233  86.2386082
  22.5936457  31.5356673  85.5863800  30.5283777  39.2310716  87.5366484
  30.0847631  38.4447095  87.2187388  31.1900991  39.4189867  86.8710374
  25.2870898  40.7606518  82.0627162  25.8378324  40.6323581  81.2904156
  24.4482374  41.0601407  81.7122055  29.0838069  37.0257646  86.4071393
  29.6166406  36.2645934  86.1770701  28.5552151  36.7331297  87.1495548
  32.2507764  22.1317711  81.9365035  31.9072034  23.0219353  81.8604146
  32.6186727  21.9419369  81.0734620  20.3193615  34.4551242  74.7553637
  21.1568837  34.8648250  74.5387345  20.4971883  33.5150684  74.7253831
  32.2158047  32.1226323  70.4437470  31.7004671  32.8930927  70.6825858
  31.9435356  31.4491459  71.0670532  29.8005158  26.9676023  75.5022708
  28.9446755  26.5782874  75.3228347  30.2132110  27.0467984  74.6422494
  31.3304305  24.5022367  79.9014268  30.8269100  24.4652502  79.0882074
  31.6234912  25.4115109  79.9610925  27.5747191  24.5861096  78.9080450
  28.4400187  24.3903905  78.5486339  27.6424700  24.3571448  79.8349807
  37.1892321  34.8758677  72.3790644  36.4121764  34.5369837  71.9345806
  37.8683802  34.8811300  71.7045609  32.0044350  29.9953415  72.2697251
  31.6994486  30.3099564  73.1207394  32.9574792  30.0734835  72.3124584
  30.4490782  36.1543638  73.9190205  29.9212144  35.4196398  73.6063443
  29.9478285  36.9318314  73.6730174  25.1809510  26.8163304  76.2796817
  25.7553262  26.5938486  75.5470010  25.7680492  26.8851999  77.0325418
  34.2389087  32.7037031  77.0861193  34.7520969  33.3367023  77.5882903
  34.8890311  32.1038227  76.7204553  25.5079097  28.8467765  70.2992702
  24.6716409  29.1842452  70.6201977  25.3683867  28.7116745  69.3619839
  27.4832177  23.6904553  75.0071886  26.8296590  23.3753570  74.3828501
  27.4412652  23.0680294  75.7331709  28.5943382  33.9723848  66.9225178
  27.6870444  33.7413102  67.1216327  29.0914414  33.1761468  67.1099160
  31.5011461  42.6821355  69.8421864  30.8273160  42.9853052  70.4506822
  31.8877283  43.4850436  69.4927322  30.7169918  30.1786487  79.3319534
  29.7992479  30.4001434  79.1741222  31.1330061  30.2532797  78.4731241
  31.5004966  31.5777902  74.4622214  32.2476785  32.0899300  74.1529336
  31.7696555  31.2561955  75.3226608  29.7731616  34.0736443  71.4449168
  28.8642835  33.7895476  71.5421638  29.8026700  34.4935522  70.5852475
  35.0050883  37.6843033  75.2140336  34.5513210  36.8433943  75.2705526
  34.3744850  38.3204431  75.5515116  33.9483803  28.6135019  76.4441003
  33.2106560  28.1012405  76.7751246  34.2010576  28.1735400  75.6324280
  33.4483822  39.5219529  76.1490154  33.7406797  40.0824586  75.4302520
  33.9582443  39.8148090  76.9043313  34.0495430  21.3911271  77.0382773
  34.3554307  20.5308634  76.7508688  34.7748035  21.9828891  76.8381767
  20.3419786  31.7941957  75.4264371  20.1444186  31.2011318  74.7015437
  19.7866450  31.4894167  76.1440309  28.3216510  31.6865064  77.5458964
  28.3765120  30.7338900  77.4701440  27.5107712  31.8424503  78.0300262
  29.4707704  35.6145187  68.7837247  29.0327133  34.8981046  68.3242884
  30.2118144  35.8421302  68.2222338  26.2608870  30.3042123  75.3049343
  25.4476735  30.6036294  75.7114535  26.7567864  29.9097812  76.0223825
  28.4117448  40.2999880  77.2383607  28.3693626  40.5260727  76.3092139
  29.3280146  40.0663255  77.3869408  31.8583081  30.7683948  84.1364236
  32.2132469  30.9955421  84.9958702  32.5055213  31.1002325  83.5141492
  37.5880818  33.8902384  74.8413566  37.4498717  34.0803980  73.9134755
  37.2317037  34.6521767  75.2981617  25.7522944  27.8760479  80.9210578
  26.3922324  27.7349238  80.2233541  24.9200475  27.5894992  80.5449180
  26.5283248  37.1762909  77.0345570  27.3223847  36.6813230  76.8328145
  25.8174941  36.6480773  76.6713276  31.3478093  39.5581005  81.3857938
  31.4015115  40.1271941  82.1535654  30.4792874  39.7282890  81.0211975
  22.8366012  31.3205991  73.1105323  21.9063600  31.2590447  73.3275285
  22.9323484  30.7981944  72.3141964  22.7551561  27.8460804  75.6983564
  23.0158378  28.7606137  75.5892725  23.5768733  27.3785247  75.8480177
  24.2276486  29.2598561  82.8682389  24.8999540  29.0515923  82.2195038
  23.4006273  29.0620647  82.4287621  30.1302058  25.8860502  84.8848050
  29.4829973  26.5850452  84.7912526  30.9003074  26.3196646  85.2524298
  30.3066193  33.7241267  82.9444869  31.2358253  33.8752427  82.7713837
  29.8857223  33.8125288  82.0893516  29.1054524  37.7491931  80.7143407
  28.9665610  37.3810716  81.5869345  28.3169121  38.2639571  80.5427365
  29.7002676  42.8501028  72.0568944  29.8754432  42.3789071  72.8714566
  29.0135464  43.4766794  72.2850204  30.6559740  37.1273534  78.1032245
  30.3209572  37.0874304  78.9989895  30.1563685  36.4618250  77.6302655
  24.6303983  32.5341164  83.6284826  24.4923781  31.8021403  84.2296365
  25.5408907  32.4450064  83.3469014  33.5918931  34.4729568  68.3769305
  32.9748102  33.7476397  68.2802357  33.1235420  35.2338929  68.0336379
  27.2586284  32.2461123  83.1168506  27.9685903  31.6054316  83.0755124
  27.2155592  32.4974018  84.0394686  25.9715218  29.2326341  84.9364145
  25.4352575  28.7817080  85.5885742  25.3831927  29.3672250  84.1934610
  24.2663762  45.9990391  78.8308804  24.5060360  46.6308915  79.5087822
  23.4232958  45.6478431  79.1174163  25.3817477  28.6914993  67.4990609
  24.5046943  28.5703794  67.1352855  25.8575230  27.9001071  67.2469497
  16.9019617  33.4792152  77.5932116  17.5890657  33.1653883  77.0053131
  16.7467746  34.3833517  77.3199367  21.7054339  28.3682349  82.0217140
  21.6212528  27.7608019  81.2867550  20.8837046  28.8591367  82.0226636
  28.7791624  41.8069513  81.2350308  28.7061795  42.6124485  81.7469612
  28.3369017  42.0061479  80.4098329  28.5681403  41.0441283  74.7453129
  27.7848925  41.5862963  74.8391354  29.2674148  41.5615263  75.1447371
  31.8778053  26.8535913  77.3887335  32.3746753  26.1005875  77.0688405
  31.1065035  26.8900229  76.8230544  31.2390307  41.7056347  83.3908466
  31.9518279  42.3403812  83.3184368  30.7480336  41.8020213  82.5748468
  32.9607834  35.6107600  74.9625758  32.0264113  35.7309062  74.7930462
  33.1384502  34.7080067  74.6985768  28.4613022  28.9953296  77.1159019
  28.0910810  28.4424336  77.8039925  28.9572114  28.3911429  76.5634019
  36.3480385  31.4524919  75.4975792  36.8140837  32.2852911  75.4236095
  36.7987886  30.9869901  76.2021051  26.2902221  39.4550791  84.2114037
  26.9911680  40.0887274  84.3643431  25.8197336  39.7965522  83.4509677
  34.4156616  37.7968740  72.4961944  34.6916460  37.6825335  73.4055818
  33.5461115  37.3986225  72.4574117  34.3197048  23.8205506  79.5366694
  33.4060128  24.0509733  79.7048901  34.7490149  23.9043950  80.3880726
  31.0510680  42.0455091  76.1394758  31.2333075  41.2276747  76.6022510
  31.8743666  42.2622783  75.7019648  31.3852846  40.9723276  73.4009806
  31.9140612  40.4615731  72.7879969  31.6481065  40.6565807  74.2655339
  30.1391080  32.7515209  88.5232625  29.4631717  32.6509338  89.1935000
  30.9618713  32.5954423  88.9868622  21.8869939  38.9887146  81.1445140
  22.4723375  38.2430834  81.2773044  21.6894777  39.2991102  82.0281804
  24.7408594  42.0238393  76.1607582  24.0718969  42.5084521  75.6771622
  24.6021464  42.2707613  77.0750961  16.4787593  31.5592746  79.8649583
  16.5171693  31.0256337  80.6586701  15.9727886  31.0327951  79.2460560
  28.8813862  44.0582137  82.7590241  29.4332170  44.2213758  83.5239326
  29.2220056  44.6486574  82.0870266  23.8578356  26.4057286  83.3612125
  23.9219682  27.2672117  82.9489523  23.7945476  25.7931288  82.6284484
  23.3330628  28.4780419  87.0085160  23.9602667  28.0957496  87.6222684
  22.4758547  28.2594621  87.3740852  20.1096171  30.2856848  72.9403514
  20.4049612  29.3767526  72.8870568  19.2084207  30.2644587  72.6184517
  32.0182250  42.0064112  79.7453923  31.8933389  41.2053852  79.2364868
  32.6761341  42.5010305  79.2567893  23.6390418  28.3612845  78.9231063
  22.9177004  28.9748812  78.7838536  24.4283674  28.8970609  78.8447709
  34.0817158  39.8073132  81.3733473  33.1347494  39.6878483  81.3011800
  34.4299931  38.9195630  81.4559734  26.4416731  25.6967271  85.1971715
  26.9651133  25.9429568  85.9598024  26.2229065  26.5287306  84.7774852
  21.8384013  27.9670946  73.0642840  21.5096719  27.0868325  72.8817946
  22.1923383  27.9118614  73.9519229  31.0863591  39.6025848  77.5737825
  30.9388554  38.6742556  77.7545395  31.9117085  39.6245939  77.0894900
  24.9525836  28.2543915  73.4318317  25.2921908  28.7829837  72.7096926
  25.3997956  28.5924322  74.2076884  34.6897713  40.4254407  78.6602698
  35.6144261  40.2197268  78.5227149  34.5213017  40.1770808  79.5692039
  27.6469277  26.6380966  82.8821385  27.3066097  25.8388779  83.2842065
  26.9408283  26.9382677  82.3098219  28.2985748  23.7230279  81.3348708
  29.1211818  23.2490757  81.2127599  28.5423812  24.5020762  81.8347395
  26.9393983  26.7518537  71.6311610  27.6602345  27.1299790  71.1275327
  26.3159287  27.4707414  71.7346588  31.0825106  27.4563686  72.5669942
  31.2988720  28.3388324  72.2658771  30.6019173  27.0649899  71.8375584
  25.8224327  30.4149399  79.1440687  25.6768908  30.7289702  80.0364969
  25.3449531  31.0334300  78.5911586  27.6820710  27.4051947  79.1921577
  27.6682279  26.5093041  78.8553875  28.3993138  27.4122611  79.8259863
  29.5346841  27.8389287  81.2374704  29.2764619  28.7606358  81.2359034
  29.0031881  27.4419722  81.9275168  34.4793029  40.9440075  74.0164789
  34.6529907  40.3786497  73.2638642  34.9721921  41.7440969  73.8344279
  20.2969989  32.9554744  82.0828348  19.7523457  33.7314552  82.2148623
  21.1749339  33.3025548  81.9247470  27.0857606  26.2866328  74.4609147
  27.2073517  25.3582974  74.6600034  26.7959648  26.3005013  73.5487462
  29.9548796  23.9721238  77.5975867  29.9770493  24.0360571  76.6427846
  30.3716855  23.1325747  77.7916373  35.4668202  40.2606839  71.1161688
  36.1619107  40.8813532  71.3349002  35.8091352  39.4102190  71.3914066
  21.0836011  32.0824640  84.9758505  20.3417747  32.2307275  85.5623135
  20.7628755  32.3432906  84.1125254  37.3659625  37.7106544  72.6449018
  37.8910949  38.0493817  71.9198338  37.2781978  36.7753560  72.4612153
  29.0279674  41.6240618  84.7738895  29.3366800  41.3789765  85.6461595
  29.8255156  41.8287257  84.2857765  29.0500286  43.7778528  77.0044272
  28.6105276  43.2854906  77.6977128  29.8008403  43.2351495  76.7636347
  21.5292625  39.9690069  77.0068900  22.3550645  39.6693840  76.6267543
  21.1786677  39.1997691  77.4558688  26.4974158  39.3216537  79.0766573
  25.8754167  38.6587242  78.7768801  27.1679025  39.3477669  78.3940221
  19.7301230  37.8876395  77.9657833  18.8933138  37.4598569  77.7841835
  19.7024875  38.0808838  78.9028624  26.5698685  27.7998325  88.6699079
  26.6186841  28.6760448  88.2876849  27.1121200  27.2575718  88.0970723
  26.0587665  37.8720460  72.5525034  26.2075785  38.5555925  71.8991707
  26.8654108  37.8525550  73.0674490  34.4655169  31.1762843  86.5792252
  35.3665031  31.0369307  86.2876249  34.5403143  31.3417297  87.5190429
  28.7997974  28.5529697  85.4245438  27.9301283  28.8463263  85.1528026
  29.0357454  29.1370142  86.1452702  23.8140298  33.8985638  73.5586103
  23.5686340  32.9947968  73.7566313  23.9836212  33.9002788  72.6165581
  31.5037008  24.7709314  82.9410858  32.0218952  25.5070341  82.6157347
  31.1492140  25.0773308  83.7757617  23.0835945  29.6313995  71.0572264
  22.3905190  29.7058350  70.4012300  22.8387697  28.8674339  71.5793781
  31.7549602  21.1909597  78.4611755  32.0351356  20.5232786  79.0872181
  32.5400209  21.3838692  77.9486419  29.5583070  40.3668591  70.0236781
  28.9857037  40.9858778  69.5707253  30.1315864  40.9167952  70.5576703
  33.6472840  26.6982814  82.3942731  33.0522772  26.9787827  81.6989220
  33.3622536  27.1876715  83.1659472  32.7780330  40.6505741  71.1545364
  33.7111003  40.5851302  71.3578239  32.6903543  41.4862008  70.6959896
  35.4068347  39.9671611  68.1149311  35.3281978  39.6331475  69.0085069
  36.2278014  40.4593379  68.1140783  29.9429869  31.7029403  67.3652834
  30.8888974  31.5735612  67.4341252  29.5644114  30.9644065  67.8422262
  35.9151753  23.3685409  77.3279726  35.7176575  23.0600498  78.2123058
  36.5251459  24.0947048  77.4577655  28.1272786  29.6279380  67.3007719
  27.2204241  29.3312493  67.3770433  28.4048767  29.3309198  66.4342005
  19.0450726  30.9485743  77.7506765  18.7253511  30.0951051  77.4581139
  18.4984155  31.1634321  78.5064733  22.8230634  33.6648184  81.4676272
  23.0416644  34.5965292  81.4864306  23.2356408  33.3056159  82.2531076
  29.7434852  24.1716270  73.4551960  28.9335580  23.8263354  73.8307206
  30.4319269  23.8623813  74.0439572  31.6725400  23.2494316  75.0776257
  32.2256439  23.6689770  75.7366280  31.9095486  22.3230064  75.1199213
  27.6958499  29.2381390  90.8579021  27.5955226  30.1875747  90.7891112
  27.4780041  28.9099629  89.9855091  26.8971571  26.4866315  67.4419698
  27.7590735  26.8121213  67.7015516  27.0821915  25.6997811  66.9292764
  18.9138986  34.5688655  79.7199887  18.2202458  34.1542607  79.2069841
  19.6611977  34.6109191  79.1233306  35.0504207  25.3594841  74.5854921
  34.4702876  26.0179645  74.2032974  34.7840140  24.5372186  74.1742339
  33.5007774  24.7599899  76.7876241  34.0007552  24.8716434  75.9790560
  34.1443381  24.4560952  77.4277050  27.5589769  32.6678529  89.6744082
  27.0756851  33.4678889  89.8807971  27.6450708  32.6786474  88.7211526
  20.8275729  34.5006908  77.5965902  20.8046417  34.5994596  76.6447785
  21.1376365  35.3472059  77.9183068  23.4863107  36.5583063  81.7112516
  24.4406360  36.5267006  81.6442448  23.2875630  36.0973687  82.5262742
  24.0762489  35.1284180  84.2783314  24.8955378  35.6228258  84.3018151
  24.3499297  34.2116148  84.2500881  33.8329085  27.5194932  73.6411269
  32.9454940  27.8044582  73.4231464  34.2483074  27.3588695  72.7938546
  37.1843621  27.5441453  77.3565609  37.9604011  28.0337905  77.6290225
  36.4591755  27.9699507  77.8137478  39.6216180  28.2569072  78.4139549
  40.2160671  28.0164808  77.7032858  39.6942764  27.5376203  79.0413086
  21.8413336  42.1002683  78.7282714  21.7067804  41.3403084  78.1620712
  21.4245398  42.8243583  78.2611503  32.9772299  37.2839607  67.7359289
  33.6808149  37.4889609  68.3516945  32.2534947  37.8516368  68.0008373
  33.8070109  33.0349468  73.8561560  33.7505310  33.4918019  73.0169192
  34.3598451  32.2740152  73.6784402  37.6174915  28.8239200  74.6811679
  37.3611849  28.4235835  75.5119887  36.9927783  29.5382994  74.5561818
  24.9982461  42.9972000  78.9401157  24.8814846  43.9417432  78.8379847
  24.1774908  42.6945562  79.3286956  34.8858996  37.7222136  69.7857749
  35.7204600  37.2903334  69.6035224  34.7243339  37.5504149  70.7134644
  34.5404888  34.2254249  71.1514089  34.4853692  34.0598520  70.2102533
  33.9150943  34.9330282  71.3076278  19.3297403  29.4622313  84.9775511
  19.9756267  28.9521267  85.4662736  19.1214554  30.1990995  85.5518936
  27.8501014  23.7262358  70.7299407  27.8379683  24.6704198  70.8867678
  28.7424436  23.5432503  70.4358868  26.0236976  43.6500262  82.1557085
  26.9264222  43.6823872  82.4723580  25.7974346  42.7200713  82.1703421
  27.7790578  42.4031248  78.8167164  26.8286209  42.4033110  78.7031536
  28.0823064  41.6563983  78.3003198  31.6653133  20.3205135  74.9845344
  30.8985529  19.7663621  75.1302026  32.0763838  20.3927003  75.8459496
  23.6694894  26.6089930  89.0750525  24.5326356  26.2526735  89.2853850
  23.0960305  26.2703825  89.7625929  40.3232977  48.1919215  79.8174451
  39.9851489  48.0760280  78.9294986  41.1922746  47.7910380  79.7975457
  36.1819793  50.0454691  75.8071342  35.6184658  49.9544628  75.0387630
  36.0672188  49.2254596  76.2873834  33.7284225  51.5405883  78.6455562
  34.5205517  51.1996708  78.2301862  33.9680875  51.6500858  79.5657716
  41.7619352  53.7125659  71.1185807  41.1107332  54.2979739  70.7319821
  42.5563715  54.2431854  71.1780844  35.6874979  50.8014796  71.5172941
  36.4605855  50.2543783  71.3785817  36.0400378  51.6659046  71.7287402
  38.4516228  49.5068027  81.3141200  39.0479801  49.2824049  80.5998163
  38.5091200  48.7652772  81.9166648  38.0241257  46.9607462  69.1491391
  38.2766777  46.4388984  68.3874854  37.0865816  46.7973608  69.2518075
  43.0684540  45.9643241  76.9566134  43.8547629  45.5462664  76.6056551
  43.3323244  46.8689333  77.1247783  43.2394617  51.4016091  71.6554791
  42.6040450  51.4750718  72.3675696  42.9092023  51.9909690  70.9773870
  37.7437546  48.8635568  71.3515766  37.6273804  48.1880472  72.0196850
  37.8539805  48.3767942  70.5347919  40.0869086  48.3245715  75.0562455
  39.7227294  47.7976336  75.7675377  40.9436202  47.9344184  74.8828941
  39.7274573  43.3535615  70.0523804  39.8948976  44.2215851  70.4194275
  39.5371743  43.5162897  69.1285093  35.9362388  48.2666391  77.7526339
  35.0112885  48.1342605  77.9604030  36.1846801  49.0460610  78.2496281
  39.7063794  45.8093273  71.0370471  39.5863420  46.2550323  71.8755951
  39.0116383  46.1578590  70.4784009  33.2971199  47.9099664  78.5870128
  33.4263580  48.1634143  79.5009539  32.6168650  48.5027372  78.2674783
  37.4670686  58.5796914  74.6860602  37.3894716  59.5304739  74.7649082
  36.8632330  58.2342787  75.3435528  45.4048860  46.2814746  71.8650805
  46.3166717  46.5142133  71.6898502  44.8958508  46.8651790  71.3025883
  40.0420698  45.6411980  82.8745654  40.8881893  46.0651394  83.0180303
  39.9819336  44.9845605  83.5684217  39.5646405  51.0014972  76.5214471
  40.0284750  51.2802675  75.7319094  39.3003203  50.0998417  76.3387562
  36.4570486  50.5486454  79.4594234  37.0271843  50.9773722  78.8211719
  37.0478598  50.2669039  80.1578420  38.5015291  47.1238125  73.3304036
  39.2039334  47.5759168  73.7977963  38.1695919  46.4821944  73.9583929
  32.2440625  45.3821677  78.6321170  31.4539679  45.6379206  78.1561280
  32.7351872  46.1970015  78.7373210  34.1955370  45.7466257  75.5904647
  33.3986533  45.8584951  76.1088142  33.9680962  46.0852909  74.7245537
  30.5278328  45.6352168  81.0636161  30.7786366  46.5199178  81.3293737
  31.0637876  45.4556769  80.2911252  39.7409055  53.9379067  73.4066142
  39.6054730  54.7830603  73.8350989  40.2818868  54.1398345  72.6432075
  33.1938453  51.4554505  73.9794067  33.7062973  52.2497756  74.1299631
  33.8461166  50.7580796  73.9127668  35.0033337  54.5720262  76.0616820
  35.1799966  55.4938226  75.8737804  35.7990171  54.2578681  76.4911200
  36.1264653  56.0898435  82.0627162  36.6772078  55.9615499  81.2904156
  35.2876129  56.3893324  81.7122055  31.1587370  49.7843160  74.7553637
  31.9962592  50.1940168  74.5387345  31.3365637  48.8442602  74.7253831
  43.0551802  47.4518240  70.4437470  42.5398425  48.2222845  70.6825858
  42.7829110  46.7783376  71.0670532  40.6398913  42.2967941  75.5022708
  39.7840509  41.9074791  75.3228347  41.0525864  42.3759902  74.6422494
  38.4140945  39.9153014  78.9080450  39.2793942  39.7195823  78.5486339
  38.4818454  39.6863366  79.8349807  48.0286076  50.2050595  72.3790644
  47.2515519  49.8661754  71.9345806  48.7077557  50.2103218  71.7045609
  42.8438105  45.3245332  72.2697251  42.5388240  45.6391482  73.1207394
  43.7968547  45.4026752  72.3124584  41.2884537  51.4835556  73.9190205
  40.7605898  50.7488315  73.6063443  40.7872039  52.2610232  73.6730174
  36.0203264  42.1455222  76.2796817  36.5947016  41.9230403  75.5470010
  36.6074247  42.2143916  77.0325418  36.3472851  44.1759683  70.2992702
  35.5110164  44.5134370  70.6201977  36.2077621  44.0408663  69.3619839
  38.3225932  39.0196471  75.0071886  37.6690344  38.7045488  74.3828501
  38.2806406  38.3972211  75.7331709  39.4337137  49.3015766  66.9225178
  38.5264199  49.0705019  67.1216327  39.9308169  48.5053385  67.1099160
  42.3405216  58.0113273  69.8421864  41.6666914  58.3144970  70.4506822
  42.7271038  58.8142353  69.4927322  41.5563672  45.5078404  79.3319534
  40.6386234  45.7293351  79.1741222  41.9723816  45.5824715  78.4731241
  42.3398720  46.9069820  74.4622214  43.0870539  47.4191217  74.1529336
  42.6090310  46.5853873  75.3226608  40.6125370  49.4028361  71.4449168
  39.7036590  49.1187394  71.5421638  40.6420454  49.8227439  70.5852475
  44.7877557  43.9426936  76.4441003  44.0500314  43.4304323  76.7751246
  45.0404331  43.5027318  75.6324280  31.1813541  47.1233875  75.4264371
  30.9837940  46.5303236  74.7015437  30.6260205  46.8186085  76.1440309
  39.1610264  47.0156981  77.5458964  39.2158874  46.0630818  77.4701440
  38.3501466  47.1716421  78.0300262  40.3101458  50.9437104  68.7837247
  39.8720888  50.2272963  68.3242884  41.0511899  51.1713219  68.2222338
  37.1002624  45.6334041  75.3049343  36.2870490  45.9328212  75.7114535
  37.5961618  45.2389730  76.0223825  39.2511202  55.6291798  77.2383607
  39.2087381  55.8552644  76.3092139  40.1673901  55.3955173  77.3869408
  48.4274573  49.2194302  74.8413566  48.2892471  49.4095898  73.9134755
  48.0710792  49.9813684  75.2981617  36.5916699  43.2052397  80.9210578
  37.2316078  43.0641156  80.2233541  35.7594230  42.9186910  80.5449180
  37.3677003  52.5054827  77.0345570  38.1617601  52.0105147  76.8328145
  36.6568695  51.9772690  76.6713276  33.6759766  46.6497909  73.1105323
  32.7457354  46.5882364  73.3275285  33.7717238  46.1273862  72.3141964
  33.5945315  43.1752722  75.6983564  33.8552133  44.0898055  75.5892725
  34.4162488  42.7077164  75.8480177  40.5396431  58.1792946  72.0568944
  40.7148187  57.7080989  72.8714566  39.8529219  58.8058712  72.2850204
  44.4312686  49.8021486  68.3769305  43.8141856  49.0768314  68.2802357
  43.9629174  50.5630846  68.0336379  35.1057516  61.3282308  78.8308804
  35.3454114  61.9600832  79.5087822  34.2626713  60.9770348  79.1174163
  36.2211232  44.0206910  67.4990609  35.3440698  43.8995711  67.1352855
  36.6968985  43.2292989  67.2469497  27.7413372  48.8084070  77.5932116
  28.4284412  48.4945800  77.0053131  27.5861500  49.7125435  77.3199367
  32.5448094  43.6974267  82.0217140  32.4606283  43.0899936  81.2867550
  31.7230800  44.1883285  82.0226636  39.6185378  57.1361431  81.2350308
  39.5455549  57.9416402  81.7469612  39.1762771  57.3353397  80.4098329
  39.4075158  56.3733201  74.7453129  38.6242680  56.9154881  74.8391354
  40.1067903  56.8907180  75.1447371  42.7171808  42.1827830  77.3887335
  43.2140507  41.4297793  77.0688405  41.9458789  42.2192147  76.8230544
  43.8001588  50.9399517  74.9625758  42.8657867  51.0600980  74.7930462
  43.9778257  50.0371984  74.6985768  39.3006776  44.3245213  77.1159019
  38.9304564  43.7716254  77.8039925  39.7965869  43.7203347  76.5634019
  37.1295975  54.7842708  84.2114037  37.8305435  55.4179191  84.3643431
  36.6591090  55.1257440  83.4509677  45.2550371  53.1260658  72.4961944
  45.5310215  53.0117253  73.4055818  44.3854870  52.7278143  72.4574117
  41.8904435  57.3747009  76.1394758  42.0726829  56.5568665  76.6022510
  42.7137421  57.5914701  75.7019648  42.2246600  56.3015194  73.4009806
  42.7534367  55.7907649  72.7879969  42.4874820  55.9857724  74.2655339
  32.7263693  54.3179063  81.1445140  33.3117130  53.5722751  81.2773044
  32.5288532  54.6283020  82.0281804  35.5802348  57.3530311  76.1607582
  34.9112724  57.8376438  75.6771622  35.4415218  57.5999531  77.0750961
  27.3181348  46.8884664  79.8649583  27.3565447  46.3548254  80.6586701
  26.8121641  46.3619869  79.2460560  39.7207617  59.3874054  82.7590241
  40.2725925  59.5505676  83.5239326  40.0613810  59.9778492  82.0870266
  34.6972110  41.7349204  83.3612125  34.7613437  42.5964035  82.9489523
  34.6339230  41.1223206  82.6284484  30.9489925  45.6148766  72.9403514
  31.2443367  44.7059444  72.8870568  30.0477961  45.5936505  72.6184517
  34.4784172  43.6904762  78.9231063  33.7570758  44.3040730  78.7838536
  35.2677428  44.2262527  78.8447709  32.6777767  43.2962863  73.0642840
  32.3490473  42.4160242  72.8817946  33.0317138  43.2410532  73.9519229
  35.7919590  43.5835833  73.4318317  36.1315663  44.1121754  72.7096926
  36.2391711  43.9216239  74.2076884  37.7787737  42.0810455  71.6311610
  38.4996100  42.4591708  71.1275327  37.1553041  42.7999332  71.7346588
  41.9218860  42.7855604  72.5669942  42.1382475  43.6680242  72.2658771
  41.4412927  42.3941817  71.8375584  36.6618082  45.7441317  79.1440687
  36.5162662  46.0581620  80.0364969  36.1843285  46.3626217  78.5911586
  38.5214464  42.7343865  79.1921577  38.5076033  41.8384958  78.8553875
  39.2386893  42.7414529  79.8259863  45.3186784  56.2731992  74.0164789
  45.4923661  55.7078415  73.2638642  45.8115675  57.0732887  73.8344279
  31.1363744  48.2846661  82.0828348  30.5917212  49.0606469  82.2148623
  32.0143094  48.6317466  81.9247470  37.9251360  41.6158245  74.4609147
  38.0467272  40.6874891  74.6600034  37.6353403  41.6296931  73.5487462
  40.7942551  39.3013156  77.5975867  40.8164248  39.3652489  76.6427846
  41.2110610  38.4617664  77.7916373  46.3061956  55.5898757  71.1161688
  47.0012861  56.2105449  71.3349002  46.6485107  54.7394108  71.3914066
  48.2053380  53.0398462  72.6449018  48.7304704  53.3785735  71.9198338
  48.1175732  52.1045477  72.4612153  39.8894040  59.1070445  77.0044272
  39.4499031  58.6146824  77.6977128  40.6402157  58.5643413  76.7636347
  32.3686379  55.2981986  77.0068900  33.1944399  54.9985758  76.6267543
  32.0180431  54.5289609  77.4558688  37.3367912  54.6508455  79.0766573
  36.7147922  53.9879160  78.7768801  38.0072779  54.6769586  78.3940221
  30.5694984  53.2168313  77.9657833  29.7326893  52.7890487  77.7841835
  30.5418630  53.4100756  78.9028624  36.8981419  53.2012378  72.5525034
  37.0469540  53.8847842  71.8991707  37.7047863  53.1817468  73.0674490
  34.6534052  49.2277556  73.5586103  34.4080094  48.3239886  73.7566313
  34.8229967  49.2294706  72.6165581  33.9229700  44.9605913  71.0572264
  33.2298945  45.0350268  70.4012300  33.6781452  44.1966257  71.5793781
  40.3976825  55.6960508  70.0236781  39.8250792  56.3150695  69.5707253
  40.9709619  56.2459870  70.5576703  43.6174085  55.9797658  71.1545364
  44.5504758  55.9143220  71.3578239  43.5297297  56.8153925  70.6959896
  46.2462101  55.2963529  68.1149311  46.1675733  54.9623392  69.0085069
  47.0671768  55.7885297  68.1140783  40.7823623  47.0321321  67.3652834
  41.7282728  46.9027529  67.4341252  40.4037868  46.2935983  67.8422262
  46.7545508  38.6977327  77.3279726  46.5570329  38.3892415  78.2123058
  47.3645213  39.4238966  77.4577655  38.9666541  44.9571297  67.3007719
  38.0597996  44.6604410  67.3770433  39.2442522  44.6601116  66.4342005
  29.8844481  46.2777661  77.7506765  29.5647265  45.4242969  77.4581139
  29.3377909  46.4926239  78.5064733  33.6624388  48.9940102  81.4676272
  33.8810398  49.9257210  81.4864306  34.0750162  48.6348076  82.2531076
  40.5828606  39.5008187  73.4551960  39.7729335  39.1555272  73.8307206
  41.2713023  39.1915731  74.0439572  42.5119155  38.5786234  75.0776257
  43.0650193  38.9981687  75.7366280  42.7489241  37.6521982  75.1199213
  37.7365325  41.8158233  67.4419698  38.5984489  42.1413131  67.7015516
  37.9215669  41.0289729  66.9292764  29.7532741  49.8980572  79.7199887
  29.0596212  49.4834525  79.2069841  30.5005732  49.9401109  79.1233306
  45.8897962  40.6886759  74.5854921  45.3096631  41.3471563  74.2032974
  45.6233894  39.8664104  74.1742339  44.3401528  40.0891817  76.7876241
  44.8401306  40.2008351  75.9790560  44.9837136  39.7852870  77.4277050
  31.6669483  49.8298826  77.5965902  31.6440172  49.9286513  76.6447785
  31.9770120  50.6763977  77.9183068  34.3256861  51.8874981  81.7112516
  35.2800115  51.8558924  81.6442448  34.1269385  51.4265605  82.5262742
  44.6722840  42.8486850  73.6411269  43.7848695  43.1336500  73.4231464
  45.0876829  42.6880613  72.7938546  32.6807090  57.4294601  78.7282714
  32.5461558  56.6695002  78.1620712  32.2639152  58.1535501  78.2611503
  43.8166053  52.6131524  67.7359289  44.5201903  52.8181527  68.3516945
  43.0928702  53.1808286  68.0008373  44.6463863  48.3641385  73.8561560
  44.5899065  48.8209937  73.0169192  45.1992206  47.6032070  73.6784402
  35.8376216  58.3263918  78.9401157  35.7208600  59.2709350  78.8379847
  35.0168662  58.0237479  79.3286956  45.7252751  53.0514053  69.7857749
  46.5598354  52.6195252  69.6035224  45.5637093  52.8796067  70.7134644
  45.3798643  49.5546167  71.1514089  45.3247446  49.3890438  70.2102533
  44.7544698  50.2622200  71.3076278  30.1691158  44.7914231  84.9775511
  30.8150021  44.2813185  85.4662736  29.9608309  45.5282913  85.5518936
  38.6894768  39.0554276  70.7299407  38.6773438  39.9996116  70.8867678
  39.5818190  38.8724421  70.4358868  36.8630730  58.9792180  82.1557085
  37.7657977  59.0115790  82.4723580  36.6368100  58.0492631  82.1703421
  38.6184332  57.7323166  78.8167164  37.6679963  57.7325028  78.7031536
  38.9216818  56.9855901  78.3003198  47.0213548  65.3746609  75.8071342
  46.4578413  65.2836546  75.0387630  46.9065943  64.5546513  76.2873834
  51.6446515  64.6745984  85.7760656  51.6335156  64.2798783  84.9041160
  51.8067154  63.9412057  86.3694428  44.5677980  66.8697801  78.6455562
  45.3599271  66.5288625  78.2301862  44.8074630  66.9792776  79.5657716
  46.5268733  66.1306714  71.5172941  47.2999609  65.5835701  71.3785817
  46.8794132  66.9950963  71.7287402  48.3653776  67.4583096  84.7239840
  48.0743642  68.3628727  84.6086507  49.0010760  67.4999624  85.4383910
  49.2909983  64.8359945  81.3141200  49.8873555  64.6115967  80.5998163
  49.3484954  64.0944690  81.9166648  48.8635011  62.2899380  69.1491391
  49.1160532  61.7680901  68.3874854  47.9259570  62.1265525  69.2518075
  53.9078294  61.2935158  76.9566134  54.6941383  60.8754582  76.6056551
  54.1716998  62.1981251  77.1247783  48.5831300  64.1927486  71.3515766
  48.4667558  63.5172389  72.0196850  48.6933560  63.7059860  70.5347919
  50.9262841  63.6537633  75.0562455  50.5621048  63.1268254  75.7675377
  51.7829957  63.2636102  74.8828941  50.5668328  58.6827533  70.0523804
  50.7342730  59.5507769  70.4194275  50.3765497  58.8454814  69.1285093
  53.3243661  67.1444512  81.7189634  53.0244384  68.0469550  81.6105441
  52.9794721  66.8776695  82.5710787  46.7756143  63.5958309  77.7526339
  45.8506639  63.4634523  77.9604030  47.0240556  64.3752528  78.2496281
  50.5457549  61.1385190  71.0370471  50.4257174  61.5842241  71.8755951
  49.8510137  61.4870508  70.4784009  44.1364954  63.2391582  78.5870128
  44.2657335  63.4926061  79.5009539  43.4562405  63.8319290  78.2674783
  48.3064441  73.9088832  74.6860602  48.2288471  74.8596657  74.7649082
  47.7026084  73.5634705  75.3435528  56.2442615  61.6106663  71.8650805
  57.1560471  61.8434050  71.6898502  55.7352262  62.1943708  71.3025883
  49.0528043  63.8902151  86.9039936  49.7942727  64.4287195  86.6274759
  48.3465028  64.5168440  87.0611487  54.5283383  66.0331291  85.5012097
  54.9366739  65.5913702  84.7566730  53.8060644  65.4583919  85.7546290
  55.9852361  65.1746879  83.2104093  56.1969256  65.8178639  82.5338474
  55.9382109  64.3409195  82.7426023  50.4040159  66.3306890  76.5214471
  50.8678505  66.6094593  75.7319094  50.1396957  65.4290335  76.3387562
  47.2964240  65.8778372  79.4594234  47.8665597  66.3065640  78.8211719
  47.8872352  65.5960956  80.1578420  49.3409045  62.4530042  73.3304036
  50.0433089  62.9051086  73.7977963  49.0089674  61.8113861  73.9583929
  43.0834379  60.7113595  78.6321170  42.2933433  60.9671124  78.1561280
  43.5745627  61.5261933  78.7373210  45.0349125  61.0758174  75.5904647
  44.2380288  61.1876869  76.1088142  44.8074717  61.4144826  74.7245537
  50.8654792  67.6002877  83.5387161  50.9299225  68.0623285  84.3745333
  50.1565716  66.9700242  83.6669471  41.3672082  60.9644085  81.0636161
  41.6180121  61.8491095  81.3293737  41.9031631  60.7848687  80.2911252
  44.0332207  66.7846423  73.9794067  44.5456728  67.5789673  74.1299631
  44.6854920  66.0872713  73.9127668  45.8427092  69.9012179  76.0616820
  46.0193720  70.8230144  75.8737804  46.6383925  69.5870598  76.4911200
  52.2071286  69.8894551  87.5366484  51.7635140  69.1030930  87.2187388
  52.8688500  70.0773702  86.8710374  46.9658407  71.4190353  82.0627162
  47.5165832  71.2907416  81.2904156  46.1269883  71.7185242  81.7122055
  50.7625578  67.6841481  86.4071393  51.2953915  66.9229769  86.1770701
  50.2339660  67.3915133  87.1495548  41.9981124  65.1135077  74.7553637
  42.8356346  65.5232086  74.5387345  42.1759392  64.1734519  74.7253831
  53.6831859  60.6537250  72.2697251  53.3781995  60.9683399  73.1207394
  54.6362301  60.7318670  72.3124584  55.9176596  63.3620867  77.0861193
  56.4308478  63.9950858  77.5882903  56.5677820  62.7622062  76.7204553
  47.1866606  59.5051601  70.2992702  46.3503918  59.8426287  70.6201977
  47.0471375  59.3700580  69.3619839  50.2730891  64.6307684  66.9225178
  49.3657953  64.3996937  67.1216327  50.7701923  63.8345303  67.1099160
  53.1798970  73.3405191  69.8421864  52.5060669  73.6436888  70.4506822
  53.5664792  74.1434271  69.4927322  53.1792475  62.2361738  74.4622214
  53.9264294  62.7483135  74.1529336  53.4484064  61.9145790  75.3226608
  42.0207295  62.4525793  75.4264371  41.8231695  61.8595153  74.7015437
  41.4653959  62.1478003  76.1440309  50.0004019  62.3448899  77.5458964
  50.0552629  61.3922735  77.4701440  49.1895221  62.5008338  78.0300262
  47.9396379  60.9625959  75.3049343  47.1264244  61.2620129  75.7114535
  48.4355373  60.5681648  76.0223825  50.0904957  70.9583716  77.2383607
  50.0481135  71.1844562  76.3092139  51.0067655  70.7247090  77.3869408
  48.2070757  67.8346745  77.0345570  49.0011356  67.3397065  76.8328145
  47.4962450  67.3064608  76.6713276  53.0265602  70.2164840  81.3857938
  53.0802624  70.7855777  82.1535654  52.1580383  70.3866725  81.0211975
  44.5153521  61.9789827  73.1105323  43.5851109  61.9174282  73.3275285
  44.6110993  61.4565779  72.3141964  55.2168365  66.8093190  87.9598603
  55.0653872  66.5803741  87.0428687  55.2073045  67.7663791  87.9729948
  50.7842033  68.4075767  80.7143407  50.6453119  68.0394551  81.5869345
  49.9956630  68.9223406  80.5427365  51.3790185  73.5084863  72.0568944
  51.5541941  73.0372906  72.8714566  50.6922973  74.1350629  72.2850204
  52.3347249  67.7857369  78.1032245  51.9997081  67.7458139  78.9989895
  51.8351194  67.1202085  77.6302655  46.3091492  63.1924999  83.6284826
  46.1711290  62.4605238  84.2296365  47.2196416  63.1033900  83.3469014
  45.9451271  76.6574226  78.8308804  46.1847869  77.2892750  79.5087822
  45.1020467  76.3062266  79.1174163  47.0604986  59.3498828  67.4990609
  46.1834452  59.2287629  67.1352855  47.5362739  58.5584906  67.2469497
  38.5807126  64.1375988  77.5932116  39.2678166  63.8237718  77.0053131
  38.4255255  65.0417352  77.3199367  50.4579132  72.4653348  81.2350308
  50.3849304  73.2708320  81.7469612  50.0156526  72.6645314  80.4098329
  50.2468912  71.7025118  74.7453129  49.4636434  72.2446799  74.8391354
  50.9461657  72.2199098  75.1447371  52.9177816  72.3640182  83.3908466
  53.6305788  72.9987647  83.3184368  52.4267845  72.4604048  82.5748468
  58.0267894  62.1108754  75.4975792  58.4928346  62.9436746  75.4236095
  58.4775395  61.6453736  76.2021051  47.9689730  70.1134626  84.2114037
  48.6699189  70.7471109  84.3643431  47.4984845  70.4549357  83.4509677
  52.7298189  72.7038927  76.1394758  52.9120584  71.8860583  76.6022510
  53.5531175  72.9206619  75.7019648  43.5657448  69.6470981  81.1445140
  44.1510884  68.9014669  81.2773044  43.3682286  69.9574938  82.0281804
  46.4196103  72.6822228  76.1607582  45.7506478  73.1668356  75.6771622
  46.2808973  72.9291449  77.0750961  38.1575102  62.2176581  79.8649583
  38.1959202  61.6840172  80.6586701  37.6515395  61.6911787  79.2460560
  50.5601371  74.7165972  82.7590241  51.1119679  74.8797593  83.5239326
  50.9007565  75.3070410  82.0870266  41.7883680  60.9440683  72.9403514
  42.0837121  60.0351362  72.8870568  40.8871716  60.9228423  72.6184517
  53.6969759  72.6647947  79.7453923  53.5720898  71.8637687  79.2364868
  54.3548850  73.1594141  79.2567893  55.7604667  70.4656968  81.3733473
  54.8135003  70.3462319  81.3011800  56.1087440  69.5779466  81.4559734
  43.5171522  58.6254781  73.0642840  43.1884228  57.7452160  72.8817946
  43.8710892  58.5702450  73.9519229  52.7651100  70.2609684  77.5737825
  52.6176063  69.3326391  77.7545395  53.5904594  70.2829774  77.0894900
  46.6313345  58.9127751  73.4318317  46.9709417  59.4413672  72.7096926
  47.0785465  59.2508157  74.2076884  48.6181492  57.4102372  71.6311610
  49.3389854  57.7883625  71.1275327  47.9946796  58.1291249  71.7346588
  41.9757498  63.6138579  82.0828348  41.4310966  64.3898387  82.2148623
  42.8536848  63.9609383  81.9247470  50.7067183  72.2824453  84.7738895
  51.0154309  72.0373600  85.6461595  51.5042665  72.4871092  84.2857765
  50.7287795  74.4362363  77.0044272  50.2892785  73.9438742  77.6977128
  51.4795912  73.8935331  76.7636347  43.2080134  70.6273904  77.0068900
  44.0338154  70.3277676  76.6267543  42.8574186  69.8581526  77.4558688
  48.1761667  69.9800372  79.0766573  47.5541676  69.3171077  78.7768801
  48.8466534  70.0061504  78.3940221  41.4088739  68.5460230  77.9657833
  40.5720647  68.1182405  77.7841835  41.3812384  68.7392674  78.9028624
  47.7375174  68.5304296  72.5525034  47.8863294  69.2139760  71.8991707
  48.5441617  68.5109386  73.0674490  45.4927807  64.5569473  73.5586103
  45.2473849  63.6531803  73.7566313  45.6623721  64.5586624  72.6165581
  44.7623454  60.2897831  71.0572264  44.0692699  60.3642186  70.4012300
  44.5175206  59.5258174  71.5793781  57.0855856  70.6255446  68.1149311
  57.0069487  70.2915310  69.0085069  57.9065523  71.1177214  68.1140783
  51.6217378  62.3613239  67.3652834  52.5676483  62.2319447  67.4341252
  51.2431623  61.6227901  67.8422262  51.5056070  66.4130985  88.8253491
  52.4259080  66.5909584  89.0193537  51.4705653  65.4687030  88.6733190
  49.8060295  60.2863215  67.3007719  48.8991750  59.9896328  67.3770433
  50.0836276  59.9893033  66.4342005  40.7238235  61.6069579  77.7506765
  40.4041020  60.7534887  77.4581139  40.1771664  61.8218157  78.5064733
  44.5018143  64.3232020  81.4676272  44.7204153  65.2549127  81.4864306
  44.9143917  63.9639994  82.2531076  48.5759080  57.1450150  67.4419698
  49.4378244  57.4705049  67.7015516  48.7609424  56.3581646  66.9292764
  40.5926495  65.2272490  79.7199887  39.8989967  64.8126443  79.2069841
  41.3399486  65.2693027  79.1233306  42.5063238  65.1590744  77.5965902
  42.4833926  65.2578431  76.6447785  42.8163874  66.0055895  77.9183068
  45.1650616  67.2166899  81.7112516  46.1193869  67.1850841  81.6442448
  44.9663139  66.7557523  82.5262742  45.7549998  65.7868015  84.2783314
  46.5742887  66.2812094  84.3018151  46.0286806  64.8699983  84.2500881
  61.3003689  58.9152907  78.4139549  61.8948180  58.6748643  77.7032858
  61.3730273  58.1960038  79.0413086  43.5200845  72.7586518  78.7282714
  43.3855313  71.9986919  78.1620712  43.1032907  73.4827418  78.2611503
  59.2962424  59.4823035  74.6811679  59.0399358  59.0819671  75.5119887
  58.6715292  60.1966829  74.5561818  46.6769970  73.6555835  78.9401157
  46.5602355  74.6001268  78.8379847  45.8562417  73.3529397  79.3286956
  41.0084912  60.1206149  84.9775511  41.6543776  59.6105103  85.4662736
  40.8002063  60.8574830  85.5518936  49.5288523  54.3846193  70.7299407
  49.5167192  55.3288033  70.8867678  50.4211945  54.2016339  70.4358868
  47.7024485  74.3084097  82.1557085  48.6051731  74.3407708  82.4723580
  47.4761855  73.3784548  82.1703421  49.4578087  73.0615084  78.8167164
  48.5073718  73.0616945  78.7031536  49.7610573  72.3147818  78.3003198
  57.8607302  80.7038527  75.8071342  57.2972167  80.6128464  75.0387630
  57.7459697  79.8838431  76.2873834  55.4071734  82.1989718  78.6455562
  56.1993026  81.8580543  78.2301862  55.6468384  82.3084693  79.5657716
  57.3662488  81.4598632  71.5172941  58.1393364  80.9127619  71.3785817
  57.7187887  82.3242881  71.7287402  59.2047531  82.7875014  84.7239840
  58.9137396  83.6920645  84.6086507  59.8404515  82.8291541  85.4383910
  59.7028766  77.6191298  69.1491391  59.9554286  77.0972819  68.3874854
  58.7653325  77.4557443  69.2518075  59.4225055  79.5219404  71.3515766
  59.3061313  78.8464307  72.0196850  59.5327314  79.0351778  70.5347919
  61.4062082  74.0119450  70.0523804  61.5736485  74.8799687  70.4194275
  61.2159251  74.1746732  69.1285093  61.3851303  76.4677108  71.0370471
  61.2650928  76.9134159  71.8755951  60.6903892  76.8162426  70.4784009
  54.9758708  78.5683500  78.5870128  55.1051089  78.8217979  79.5009539
  54.2956159  79.1611208  78.2674783  61.6375425  76.4108615  87.3421969
  60.8608759  76.9702535  87.3324833  62.2765988  76.8965398  87.8636839
  59.8921797  79.2194068  86.9039936  60.6336482  79.7579112  86.6274759
  59.1858783  79.8460357  87.0611487  60.1802800  77.7821960  73.3304036
  60.8826843  78.2343004  73.7977963  59.8483428  77.1405779  73.9583929
  58.6283161  76.3733717  87.7055246  57.9981822  77.0549998  87.9390643
  58.5219249  76.2616798  86.7608384  53.9228134  76.0405513  78.6321170
  53.1327188  76.2963041  78.1561280  54.4139381  76.8553851  78.7373210
  55.8742879  76.4050092  75.5904647  55.0774042  76.5168786  76.1088142
  55.6468471  76.7436744  74.7245537  52.2065837  76.2936003  81.0636161
  52.4573875  77.1783013  81.3293737  52.7425385  76.1140605  80.2911252
  57.9063904  70.6754482  90.0680497  57.5130850  70.1220681  90.7428141
  58.7230044  70.9865061  90.4587014  54.8725962  82.1138341  73.9794067
  55.3850482  82.9081591  74.1299631  55.5248675  81.4164631  73.9127668
  56.6820846  85.2304097  76.0616820  56.8587475  86.1522062  75.8737804
  57.4777680  84.9162516  76.4911200  55.9673203  77.2768729  85.9378983
  55.8526718  76.3753986  86.2386082  55.1117721  77.5232426  85.5863800
  63.0465041  85.2186469  87.5366484  62.6028895  84.4322848  87.2187388
  63.7082254  85.4065620  86.8710374  57.8052162  86.7482271  82.0627162
  58.3559587  86.6199334  81.2904156  56.9663638  87.0477160  81.7122055
  52.8374878  80.4426995  74.7553637  53.6750100  80.8524003  74.5387345
  53.0153146  79.5026437  74.7253831  64.7339311  78.1102076  70.4437470
  64.2185934  78.8806680  70.6825858  64.4616619  77.4367212  71.0670532
  64.5225614  75.9829168  72.2697251  64.2175749  76.2975317  73.1207394
  65.4756056  76.0610588  72.3124584  58.0260360  74.8343518  70.2992702
  57.1897673  75.1718205  70.6201977  57.8865130  74.6992498  69.3619839
  61.1124646  79.9599601  66.9225178  60.2051708  79.7288855  67.1216327
  61.6095678  79.1637221  67.1099160  62.2912879  80.0612196  71.4449168
  61.3824098  79.7771229  71.5421638  62.3207963  80.4811275  70.5852475
  52.8601050  77.7817710  75.4264371  52.6625449  77.1887071  74.7015437
  52.3047714  77.4769920  76.1440309  59.0464512  83.1638662  77.0345570
  59.8405110  82.6688983  76.8328145  58.3356204  82.6356526  76.6713276
  55.3547275  77.3081744  73.1105323  54.4244863  77.2466200  73.3275285
  55.4504747  76.7857697  72.3141964  55.2732824  73.8336557  75.6983564
  55.5339642  74.7481890  75.5892725  56.0949997  73.3661000  75.8480177
  57.1485247  78.5216917  83.6284826  57.0105045  77.7897156  84.2296365
  58.0590170  78.4325817  83.3469014  56.7845025  91.9866144  78.8308804
  57.0241623  92.6184668  79.5087822  55.9414222  91.6354184  79.1174163
  57.8998741  74.6790746  67.4990609  57.0228207  74.5579547  67.1352855
  58.3756494  73.8876824  67.2469497  49.4200881  79.4667906  77.5932116
  50.1071921  79.1529636  77.0053131  49.2649009  80.3709270  77.3199367
  54.2235603  74.3558102  82.0217140  54.1393792  73.7483772  81.2867550
  53.4018309  74.8467120  82.0226636  61.2972887  87.7945266  81.2350308
  61.2243058  88.6000238  81.7469612  60.8550280  87.9937232  80.4098329
  58.8083484  85.4426544  84.2114037  59.5092944  86.0763027  84.3643431
  58.3378599  85.7841275  83.4509677  62.6572343  78.7390962  88.5232625
  61.9812980  78.6385091  89.1935000  63.4799977  78.5830176  88.9868622
  54.4051202  84.9762899  81.1445140  54.9904639  84.2306587  81.2773044
  54.2076041  85.2866855  82.0281804  57.2589857  88.0114146  76.1607582
  56.5900233  88.4960274  75.6771622  57.1202727  88.2583367  77.0750961
  48.9968857  77.5468499  79.8649583  49.0352956  77.0132090  80.6586701
  48.4909150  77.0203704  79.2460560  61.3995126  90.0457890  82.7590241
  61.9513434  90.2089511  83.5239326  61.7401319  90.6362327  82.0870266
  52.6277434  76.2732601  72.9403514  52.9230875  75.3643279  72.8870568
  51.7265470  76.2520340  72.6184517  56.1571681  74.3488598  78.9231063
  55.4358267  74.9624565  78.7838536  56.9464937  74.8846362  78.8447709
  54.3565276  73.9546699  73.0642840  54.0277982  73.0744078  72.8817946
  54.7104647  73.8994367  73.9519229  63.6006369  73.4439439  72.5669942
  63.8169984  74.3264077  72.2658771  63.1200436  73.0525652  71.8375584
  52.8151253  78.9430497  82.0828348  52.2704721  79.7190305  82.2148623
  53.6930603  79.2901301  81.9247470  53.6017275  78.0700393  84.9758505
  52.8599011  78.2183028  85.5623135  53.2810019  78.3308659  84.1125254
  61.5460937  87.6116371  84.7738895  61.8548064  87.3665518  85.6461595
  62.3436419  87.8163010  84.2857765  54.0473888  85.9565822  77.0068900
  54.8731908  85.6569594  76.6267543  53.6967940  85.1873444  77.4558688
  59.0155421  85.3092290  79.0766573  58.3935431  84.6462995  78.7768801
  59.6860288  85.3353422  78.3940221  52.2482493  83.8752148  77.9657833
  51.4114402  83.4474322  77.7841835  52.2206139  84.0684591  78.9028624
  58.5768928  83.8596213  72.5525034  58.7257049  84.5431678  71.8991707
  59.3835372  83.8401303  73.0674490  56.3321561  79.8861391  73.5586103
  56.0867603  78.9823721  73.7566313  56.5017476  79.8878541  72.6165581
  55.6017209  75.6189748  71.0572264  54.9086454  75.6934103  70.4012300
  55.3568961  74.8550092  71.5793781  62.4611132  77.6905156  67.3652834
  63.4070237  77.5611365  67.4341252  62.0825377  76.9519818  67.8422262
  62.3449825  81.7422903  88.8253491  63.2652834  81.9201502  89.0193537
  62.3099408  80.7978948  88.6733190  60.6454050  75.6155133  67.3007719
  59.7385505  75.3188246  67.3770433  60.9230031  75.3184951  66.4342005
  51.5631990  76.9361496  77.7506765  51.2434774  76.0826804  77.4581139
  51.0165418  77.1510074  78.5064733  55.3411897  79.6523937  81.4676272
  55.5597907  80.5841045  81.4864306  55.7537671  79.2931912  82.2531076
  60.2139763  75.2257143  90.8579021  60.1136490  76.1751500  90.7891112
  59.9961305  74.8975382  89.9855091  59.4152834  72.4742068  67.4419698
  60.2771998  72.7996966  67.7015516  59.6003178  71.6873564  66.9292764
  51.4320250  80.5564408  79.7199887  50.7383721  80.1418361  79.2069841
  52.1793241  80.5984944  79.1233306  60.0771033  78.6554282  89.6744082
  59.5938115  79.4554642  89.8807971  60.1631972  78.6662227  88.7211526
  53.3456992  80.4882662  77.5965902  53.3227681  80.5870349  76.6447785
  53.6557629  81.3347812  77.9183068  56.0044370  82.5458817  81.7112516
  56.9587624  82.5142759  81.6442448  55.8056894  82.0849440  82.5262742
  56.5943752  81.1159933  84.2783314  57.4136641  81.6104011  84.3018151
  56.8680560  80.1991901  84.2500881  54.3594599  88.0878436  78.7282714
  54.2249067  87.3278837  78.1620712  53.9426661  88.8119336  78.2611503
  57.5163725  88.9847753  78.9401157  57.3996109  89.9293186  78.8379847
  56.6956171  88.6821315  79.3286956  67.0586152  80.2130002  71.1514089
  67.0034955  80.0474273  70.2102533  66.4332207  80.9206035  71.3076278
  51.8478667  75.4498066  84.9775511  52.4937530  74.9397020  85.4662736
  51.6395818  76.1866748  85.5518936  58.5418239  89.6376015  82.1557085
  59.4445486  89.6699625  82.4723580  58.3155609  88.7076466  82.1703421
  60.2971841  88.3907001  78.8167164  59.3467472  88.3908863  78.7031536
  60.6004327  87.6439736  78.3003198  56.1876158  72.5965684  89.0750525
  57.0507619  72.2402488  89.2853850  55.6141568  72.2579578  89.7625929
  68.6445916 102.0774188  82.0627162  69.1953341 101.9491252  81.2904156
  67.8057392 102.3769077  81.7122055  72.1366641 103.1237184  81.2350308
  72.0636813 103.9292155  81.7469612  71.6944035 103.3229150  80.4098329
  59.8362611  92.8760417  79.8649583  59.8746711  92.3424007  80.6586701
  59.3302904  92.3495622  79.2460560  65.1988354 103.4170354  78.7282714
  65.0642821 102.6570755  78.1620712  64.7820416 104.1411254  78.2611503
  62.6872421  90.7789984  84.9775511  63.3331285  90.2688938  85.4662736
  62.4789572  91.5158666  85.5518936  69.3811994 104.9667933  82.1557085
  70.2839240 104.9991543  82.4723580  69.1549364 104.0368384  82.1703421
  79.0449997 112.1182467  71.5172941  79.8180873 111.5711454  71.3785817
  79.3975396 112.9826716  71.7287402  76.5513471 112.7722176  73.9794067
  77.0637991 113.5665426  74.1299631  77.2036184 112.0748466  73.9127668
  74.5162387 111.1010830  74.7553637  75.3537609 111.5107839  74.5387345
  74.6940655 110.1610272  74.7253831  71.0988390 110.1251741  77.5932116
  71.7859430 109.8113471  77.0053131  70.9436518 111.0293106  77.3199367
  73.9270002 114.5335983  77.9657833  73.0901911 114.1058158  77.7841835
  73.8993648 114.7268427  78.9028624  88.6623941 107.8222431  86.5792252
  89.5633804 107.6828896  86.2876249  88.7371916 107.9876886  87.5190429
  78.0109070 110.5445226  73.5586103  77.7655112 109.6407556  73.7566313
  78.1804985 110.5462377  72.6165581  89.8227233 106.2586819  82.2083330
  90.7744656 106.3584917  82.2295554  89.6530683 105.4665088  82.7181414
  89.2002110 131.2179850  76.0616820  89.3768738 132.1397815  75.8737804
  89.9958943 130.9038269  76.4911200  89.3026289 137.9741897  78.8308804
  89.5422887 138.6060421  79.5087822  88.4595485 137.6229937  79.1174163
  89.7771121 133.9989899  76.1607582  89.1081496 134.4836027  75.6771622
  89.6383990 134.2459120  77.0750961  93.9176389 136.0333643  82.7590241
  94.4694697 136.1965264  83.5239326  94.2582583 136.6238080  82.0870266
 103.7132130 129.5880362  85.5074966 103.4216938 129.9510343  86.3438427
 103.1004261 128.8747370  85.3288299  86.8775863 134.0754189  78.7282714
  86.7430330 133.3154590  78.1620712  86.4607925 134.7995089  78.2611503
  90.0344988 134.9723506  78.9401157  89.9177373 135.9168939  78.8379847
  89.2137435 134.6697068  79.3286956  91.0599503 135.6251768  82.1557085
  91.9626749 135.6575378  82.4723580  90.8336873 134.6952219  82.1703421
 108.5505798 140.2143293  79.8812926 109.1884208 140.0950040  79.1776266
 108.4326641 141.1624137  79.9400878 105.3595504 140.1670721  79.8174451
 105.0214016 140.0511786  78.9294986 106.2285273 139.7661886  79.7975457
 101.2182320 142.0206197  75.8071342 100.6547185 141.9296134  75.0387630
 101.1034715 141.2006102  76.2873834 105.8415287 141.3205573  85.7760656
 105.8303928 140.9258371  84.9041160 106.0035927 140.5871645  86.3694428
  98.7646752 143.5157389  78.6455562  99.5568044 143.1748214  78.2301862
  99.0043402 143.6252364  79.5657716 106.7981879 145.6877165  71.1185807
 106.1469859 146.2731246  70.7319821 107.5926242 146.2183360  71.1780844
 100.7237506 142.7766302  71.5172941 101.4968382 142.2295289  71.3785817
 101.0762905 143.6410552  71.7287402 102.5622548 144.1042685  84.7239840
 102.2712414 145.0088315  84.6086507 103.1979533 144.1459212  85.4383910
 103.4878755 141.4819533  81.3141200 104.0842328 141.2575555  80.5998163
 103.5453727 140.7404279  81.9166648 103.0603784 138.9358968  69.1491391
 103.3129304 138.4140490  68.3874854 102.1228343 138.7725114  69.2518075
 108.1047067 137.9394747  76.9566134 108.8910156 137.5214170  76.6056551
 108.3685771 138.8440839  77.1247783 108.2757144 143.3767597  71.6554791
 107.6402977 143.4502224  72.3675696 107.9454550 143.9661196  70.9773870
 113.5055494 137.8769980  77.8599113 114.2380666 137.3069197  78.0936942
 112.7494849 137.4891580  78.3005618 102.7800072 140.8387074  71.3515766
 102.6636331 140.1631978  72.0196850 102.8902332 140.3519448  70.5347919
 105.1231613 140.2997221  75.0562455 104.7589821 139.7727842  75.7675377
 105.9798729 139.9095690  74.8828941 111.0280914 131.5891554  82.3193721
 110.6964239 132.4586965  82.0954936 110.4326527 131.2727838  82.9987752
 104.7637100 135.3287121  70.0523804 104.9311503 136.1967358  70.4194275
 104.5734269 135.4914403  69.1285093 107.5212434 143.7904100  81.7189634
 107.2213157 144.6929139  81.6105441 107.1763493 143.5236283  82.5710787
 100.9724915 140.2417897  77.7526339 100.0475412 140.1094111  77.9604030
 101.2209328 141.0212116  78.2496281 110.9209577 136.3086640  79.3987071
 110.0126455 136.2402049  79.1045832 110.8697173 136.7858585  80.2268897
 104.7426321 137.7844779  71.0370471 104.6225946 138.2301829  71.8755951
 104.0478910 138.1330096  70.4784009  98.3333726 139.8851170  78.5870128
  98.4626107 140.1385649  79.5009539  97.6531177 140.4778878  78.2674783
 102.5033213 150.5548420  74.6860602 102.4257243 151.5056245  74.7649082
 101.8994857 150.2094293  75.3435528 104.9950443 137.7276286  87.3421969
 104.2183777 138.2870206  87.3324833 105.6341006 138.2133069  87.8636839
 112.7871224 134.5103079  81.1764945 112.1445604 134.8035612  80.5304740
 112.2826152 134.3955999  81.9818142 110.4411387 138.2566252  71.8650805
 111.3529244 138.4893639  71.6898502 109.9321034 138.8403296  71.3025883
 103.2496815 140.5361739  86.9039936 103.9911500 141.0746783  86.6274759
 102.5433801 141.1628028  87.0611487 108.7252155 142.6790880  85.5012097
 109.1335511 142.2373290  84.7566730 108.0029417 142.1043507  85.7546290
 105.0783225 137.6163486  82.8745654 105.9244420 138.0402900  83.0180303
 105.0181863 136.9597111  83.5684217 109.0480970 143.2392070  79.2564386
 108.4189832 143.4037784  78.5540454 108.6606632 143.6533680  80.0275350
 112.9270202 144.1746508  76.6108750 112.2421240 144.5545409  76.0605783
 113.0114051 144.7841835  77.3440698 108.2282670 135.2767855  84.5326828
 107.9843602 136.0309915  83.9961103 108.5042601 135.6553202  85.3674075
 110.1821133 141.8206467  83.2104093 110.3938028 142.4638227  82.5338474
 110.1350881 140.9868784  82.7426023 107.7847362 134.4324288  80.1140665
 106.9231841 134.7305541  80.4057403 107.8109797 134.6494687  79.1821698
 104.6008932 142.9766478  76.5214471 105.0647277 143.2554181  75.7319094
 104.3365730 142.0749923  76.3387562 101.4933013 142.5237960  79.4594234
 102.0634370 142.9525228  78.8211719 102.0841124 142.2420545  80.1578420
 103.5377818 139.0989631  73.3304036 104.2401861 139.5510674  73.7977963
 103.2058446 138.4573450  73.9583929 101.9858179 137.6901387  87.7055246
 101.3556840 138.3717668  87.9390643 101.8794267 137.5784469  86.7608384
 111.2966961 144.6978423  81.3826451 112.1184405 144.2958610  81.1009132
 111.2929364 144.5946657  82.3342566 105.0623565 144.2462466  83.5387161
 105.1267997 144.7082873  84.3745333 104.3534488 143.6159831  83.6669471
  95.5640855 137.6103674  81.0636161  95.8148893 138.4950684  81.3293737
  96.1000403 137.4308275  80.2911252 119.3872954 141.0417171  77.7311422
 118.6336663 140.4724569  77.5755427 119.5220495 141.0079836  78.6782057
 104.7771582 145.9130573  73.4066142 104.6417257 146.7582109  73.8350989
 105.3181395 146.1149851  72.6432075 101.2638922 131.9922153  90.0680497
 100.8705867 131.4388352  90.7428141 102.0805062 132.3032732  90.4587014
  98.2300980 143.4306011  73.9794067  98.7425500 144.2249262  74.1299631
  98.8823692 142.7332302  73.9127668 100.0395864 146.5471768  76.0616820
 100.2162493 147.4689732  75.8737804 100.8352698 146.2330187  76.4911200
 104.1806883 133.4080032  87.6600753 104.9216596 134.0087185  87.5805216
 104.4124806 132.6657670  87.1018796  99.3248221 138.5936400  85.9378983
  99.2101736 137.6921657  86.2386082  98.4692739 138.8400096  85.5863800
 106.4040059 146.5354140  87.5366484 105.9603913 145.7490518  87.2187388
 107.0657272 146.7233290  86.8710374 101.1627180 148.0649941  82.0627162
 101.7134605 147.9367005  81.2904156 100.3238656 148.3644830  81.7122055
 108.5021297 146.8156940  85.5647885 108.4839772 147.6365821  85.0728154
 109.4241217 146.6911015  85.7898026 104.9594351 144.3301069  86.4071393
 105.4922688 143.5689357  86.1770701 104.4308432 144.0374721  87.1495548
 108.0914329 139.4269746  70.4437470 107.5760952 140.1974351  70.6825858
 107.8191637 138.7534882  71.0670532 105.6761440 134.2719447  75.5022708
 104.8203036 133.8826298  75.3228347 106.0888391 134.3511408  74.6422494
 113.0648603 142.1802101  72.3790644 112.2878045 141.8413260  71.9345806
 113.7440084 142.1854724  71.7045609 107.8800632 137.2996838  72.2697251
 107.5750767 137.6142988  73.1207394 108.8331074 137.3778258  72.3124584
 106.3247064 143.4587062  73.9190205 105.7968425 142.7239821  73.6063443
 105.8234566 144.2361738  73.6730174 111.3039910 141.6536082  79.0357252
 110.6463584 142.3435344  79.1237380 112.1080309 142.0432514  79.3791238
 101.0565791 134.1206728  76.2796817 101.6309543 133.8981910  75.5470010
 101.6436774 134.1895423  77.0325418 110.1145368 140.0080455  77.0861193
 110.6277250 140.6410447  77.5882903 110.7646592 139.4081650  76.7204553
 101.3835378 136.1511189  70.2992702 100.5472691 136.4885876  70.6201977
 101.2440148 136.0160169  69.3619839 103.3588459 130.9947977  75.0071886
 102.7052871 130.6796994  74.3828501 103.3168933 130.3723717  75.7331709
 104.4699664 141.2767272  66.9225178 103.5626725 141.0456525  67.1216327
 104.9670696 140.4804891  67.1099160 107.3767743 149.9864779  69.8421864
 106.7029441 150.2896476  70.4506822 107.7633565 150.7893860  69.4927322
 106.5926199 137.4829910  79.3319534 105.6748761 137.7044857  79.1741222
 107.0086343 137.5576221  78.4731241 107.3761247 138.8821326  74.4622214
 108.1233066 139.3942723  74.1529336 107.6452837 138.5605379  75.3226608
 105.6487897 141.3779867  71.4449168 104.7399116 141.0938900  71.5421638
 105.6782981 141.7978945  70.5852475 110.8807165 144.9886456  75.2140336
 110.4269492 144.1477366  75.2705526 110.2501131 145.6247855  75.5515116
 109.8240084 135.9178442  76.4441003 109.0862841 135.4055829  76.7751246
 110.0766858 135.4778824  75.6324280 109.3240104 146.8262953  76.1490154
 109.6163078 147.3868010  75.4302520 109.8338724 147.1191514  76.9043313
 104.1972791 138.9908487  77.5458964 104.2521401 138.0382324  77.4701440
 103.3863993 139.1467927  78.0300262 105.3463985 142.9188611  68.7837247
 104.9083415 142.2024469  68.3242884 106.0874426 143.1464725  68.2222338
 102.1365151 137.6085547  75.3049343 101.3233017 137.9079718  75.7114535
 102.6324145 137.2141236  76.0223825 104.2873729 147.6043304  77.2383607
 104.2449908 147.8304150  76.3092139 105.2036428 147.3706679  77.3869408
 107.7339363 138.0727372  84.1364236 108.0888751 138.2998845  84.9958702
 108.3811494 138.4045748  83.5141492 113.4637100 141.1945808  74.8413566
 113.3254998 141.3847404  73.9134755 113.1073319 141.9565190  75.2981617
 101.6279226 135.1803903  80.9210578 102.2678605 135.0392662  80.2233541
 100.7956756 134.8938416  80.5449180 113.4906479 143.2622335  79.8524837
 113.9242986 143.1697624  80.7007891 114.2038060 143.2379835  79.2144853
 102.4039530 144.4806333  77.0345570 103.1980128 143.9856653  76.8328145
 101.6931222 143.9524196  76.6713276 107.2234374 146.8624429  81.3857938
 107.2771397 147.4315365  82.1535654 106.3549156 147.0326314  81.0211975
 100.1032768 136.5641985  82.8682389 100.7755821 136.3559347  82.2195038
  99.2762554 136.3664071  82.4287621 114.3522029 143.3046035  82.3857722
 114.5457919 144.2091846  82.6316997 114.2522647 142.8453454  83.2196307
 106.0058340 133.1903926  84.8848050 105.3586255 133.8893875  84.7912526
 106.7759355 133.6240070  85.2524298 109.4137138 143.4552778  87.9598603
 109.2622644 143.2263330  87.0428687 109.4041817 144.4123379  87.9729948
 106.1822474 141.0284691  82.9444869 107.1114534 141.1795850  82.7713837
 105.7613504 141.1168712  82.0893516 104.9810806 145.0535355  80.7143407
 104.8421892 144.6854140  81.5869345 104.1925402 145.5682995  80.5427365
 105.5758958 150.1544452  72.0568944 105.7510713 149.6832495  72.8714566
 104.8891746 150.7810218  72.2850204 106.5316021 144.4316958  78.1032245
 106.1965854 144.3917728  78.9989895 106.0319967 143.7661674  77.6302655
 100.5060265 139.8384588  83.6284826 100.3680063 139.1064827  84.2296365
 101.4165188 139.7493488  83.3469014 109.4675213 141.7772992  68.3769305
 108.8504383 141.0519820  68.2802357 108.9991701 142.5382352  68.0336379
 103.1342566 139.5504547  83.1168506 103.8442184 138.9097739  83.0755124
 103.0911874 139.8017442  84.0394686 111.1229344 146.4871901  86.0375085
 111.0641890 145.8031121  85.3705668 111.5248863 147.2290891  85.5855711
 101.8471500 136.5369765  84.9364145 101.3108857 136.0860504  85.5885742
 101.2588208 136.6715674  84.1934610 100.1420043 153.3033814  78.8308804
 100.3816641 153.9352339  79.5087822  99.2989240 152.9521854  79.1174163
 111.1246752 144.4511484  84.2689065 110.2373530 144.1137406  84.3915463
 111.6945303 143.7194516  84.5057830  92.7775899 140.7835576  77.5932116
  93.4646938 140.4697306  77.0053131  92.6224027 141.6876941  77.3199367
 104.6547905 149.1112937  81.2350308 104.5818076 149.9167908  81.7469612
 104.2125298 149.3104903  80.4098329 104.4437685 148.3484707  74.7453129
 103.6605206 148.8906387  74.8391354 105.1430430 148.8658686  75.1447371
 107.7534335 134.1579336  77.3887335 108.2503034 133.4049299  77.0688405
 106.9821316 134.1943653  76.8230544 115.6064092 139.8619702  79.0305626
 115.5953968 140.7444417  78.6599559 114.7381472 139.5091253  78.8360163
 107.1146588 149.0099771  83.3908466 107.8274561 149.6447236  83.3184368
 106.6236617 149.1063637  82.5748468 108.8364115 142.9151024  74.9625758
 107.9020394 143.0352486  74.7930462 109.0140784 142.0123490  74.6985768
 104.3369303 136.2996719  77.1159019 103.9667091 135.7467760  77.8039925
 104.8328396 135.6954853  76.5634019 112.2236667 138.7568343  75.4975792
 112.6897119 139.5896334  75.4236095 112.6744167 138.2913324  76.2021051
 102.1658502 146.7594214  84.2114037 102.8667961 147.3930697  84.3643431
 101.6953617 147.1008946  83.4509677 110.2912898 145.1012164  72.4961944
 110.5672742 144.9868759  73.4055818 109.4217397 144.7029649  72.4574117
 109.9659788 139.3138822  82.0366588 109.3131238 139.5614729  81.3819040
 110.3440168 138.5002960  81.7029065 106.9266962 149.3498515  76.1394758
 107.1089356 148.5320171  76.6022510 107.7499948 149.5666207  75.7019648
 107.2609127 148.2766700  73.4009806 107.7896894 147.7659155  72.7879969
 107.5237347 147.9609230  74.2655339 106.0147361 140.0558633  88.5232625
 105.3387998 139.9552762  89.1935000 106.8374995 139.8997847  88.9868622
  97.7626220 146.2930569  81.1445140  98.3479657 145.5474257  81.2773044
  97.5651059 146.6034526  82.0281804 100.6164875 149.3281817  76.1607582
  99.9475251 149.8127944  75.6771622 100.4777745 149.5751037  77.0750961
  92.3543875 138.8636170  79.8649583  92.3927974 138.3299760  80.6586701
  91.8484168 138.3371375  79.2460560 104.7570144 151.3625560  82.7590241
 105.3088452 151.5257182  83.5239326 105.0976337 151.9529998  82.0870266
  99.2086910 135.7823843  87.0085160  99.8358948 135.4000920  87.6222684
  98.3514828 135.5638045  87.3740852 109.6081018 146.1886818  88.6138895
 110.1520922 146.8016776  88.1193850 109.0267863 146.7466396  89.1305908
 107.8938531 149.3107536  79.7453923 107.7689671 148.5097276  79.2364868
 108.5517622 149.8053729  79.2567893 109.9573440 147.1116556  81.3733473
 109.0103775 146.9921907  81.3011800 110.3056213 146.2239054  81.4559734
 102.3173013 133.0010695  85.1971715 102.8407415 133.2472991  85.9598024
 102.0985346 133.8330730  84.7774852 106.9619873 146.9069272  77.5737825
 106.8144835 145.9785980  77.7545395 107.7873366 146.9289363  77.0894900
 100.8282117 135.5587339  73.4318317 101.1678190 136.0873260  72.7096926
 101.2754238 135.8967745  74.2076884 110.5653995 147.7297831  78.6602698
 111.4900542 147.5240692  78.5227149 110.3969298 147.4814232  79.5692039
 103.5225558 133.9424390  82.8821385 103.1822378 133.1432203  83.2842065
 102.8164564 134.2426101  82.3098219 104.1742030 131.0273702  81.3348708
 104.9968099 130.5534181  81.2127599 104.4180093 131.8064186  81.8347395
 102.8150264 134.0561961  71.6311610 103.5358627 134.4343214  71.1275327
 102.1915568 134.7750838  71.7346588 106.9581387 134.7607110  72.5669942
 107.1745002 135.6431748  72.2658771 106.4775454 134.3693323  71.8375584
 101.6980609 137.7192823  79.1440687 101.5525189 138.0333126  80.0364969
 101.2205812 138.3377723  78.5911586 103.5576991 134.7095371  79.1921577
 103.5438560 133.8136464  78.8553875 104.2749420 134.7166035  79.8259863
 105.4103122 135.1432711  81.2374704 105.1520900 136.0649782  81.2359034
 104.8788162 134.7463146  81.9275168 110.3549311 148.2483498  74.0164789
 110.5286188 147.6829921  73.2638642 110.8478202 149.0484393  73.8344279
  96.1726271 140.2598167  82.0828348  95.6279739 141.0357975  82.2148623
  97.0505621 140.6068972  81.9247470 102.9613887 133.5909751  74.4609147
 103.0829799 132.6626397  74.6600034 102.6715930 133.6048437  73.5487462
 116.2088702 141.0119921  75.6355089 116.6519848 140.2627246  75.2374212
 115.3315212 141.0030058  75.2528821 111.3424483 147.5650263  71.1161688
 112.0375388 148.1856955  71.3349002 111.6847633 146.7145614  71.3914066
  96.9592293 139.3868064  84.9758505  96.2174029 139.5350699  85.5623135
  96.6385037 139.6476329  84.1125254 113.2415906 145.0149968  72.6449018
 113.7667231 145.3537241  71.9198338 113.1538259 144.0796984  72.4612153
 104.9035955 148.9284042  84.7738895 105.2123082 148.6833189  85.6461595
 105.7011437 149.1330680  84.2857765 104.9256567 151.0821952  77.0044272
 104.4861558 150.5898330  77.6977128 105.6764684 150.5394919  76.7636347
  97.4048906 147.2733492  77.0068900  98.2306926 146.9737264  76.6267543
  97.0542958 146.5041115  77.4558688 102.3730439 146.6259961  79.0766573
 101.7510449 145.9630666  78.7768801 103.0435306 146.6521092  78.3940221
  95.6057511 145.1919819  77.9657833  94.7689420 144.7641993  77.7841835
  95.5781157 145.3852262  78.9028624 102.4454967 135.1041749  88.6699079
 102.4943122 135.9803871  88.2876849 102.9877481 134.5619142  88.0970723
 112.9309813 145.6482872  87.9500216 112.1405356 145.6307011  87.4104716
 112.6943167 146.1871166  88.7049253 113.0507688 142.4975338  85.2632945
 113.1005693 142.3325346  86.2048468 112.9421611 141.6302597  84.8730826
 101.9343946 145.1763884  72.5525034 102.0832067 145.8599348  71.8991707
 102.7410390 145.1568974  73.0674490 110.3411450 138.4806266  86.5792252
 111.2421313 138.3412731  86.2876249 110.4159424 138.6460721  87.5190429
 104.6754255 135.8573121  85.4245438 103.8057565 136.1506687  85.1528026
 104.9113736 136.4413566  86.1452702 114.5525884 144.9172280  85.5074966
 114.2610693 145.2802260  86.3438427 113.9398016 144.2039288  85.3288299
 115.7521567 142.4825160  78.0277537 116.5868458 142.9214964  78.1915097
 115.8880696 142.0063813  77.2085782 112.8013073 140.0404894  83.9755024
 113.2767194 140.2332541  83.1673876 111.8778638 140.0964080  83.7298408
  99.6896579 141.2029062  73.5586103  99.4442621 140.2991392  73.7566313
  99.8592494 141.2046212  72.6165581 107.3793289 132.0752738  82.9410858
 107.8975233 132.8113765  82.6157347 107.0248422 132.3816731  83.7757617
 105.4339352 147.6712014  70.0236781 104.8613319 148.2902202  69.5707253
 106.0072145 148.2211376  70.5576703 111.5014742 136.9170654  82.2083330
 112.4532165 137.0168752  82.2295554 111.3318192 136.1248923  82.7181414
 109.5229121 134.0026238  82.3942731 108.9279053 134.2831250  81.6989220
 109.2378818 134.4920139  83.1659472 108.6536612 147.9549165  71.1545364
 109.5867285 147.8894726  71.3578239 108.5659824 148.7905431  70.6959896
 111.2824628 147.2715035  68.1149311 111.2038260 146.9374898  69.0085069
 112.1034295 147.7636803  68.1140783 113.9802819 140.1376774  81.3225630
 113.9479140 139.1992775  81.5085314 114.5903443 140.2160811  80.5891455
 105.8186150 139.0072827  67.3652834 106.7645255 138.8779035  67.4341252
 105.4400395 138.2687489  67.8422262 114.1297308 136.9287818  81.3683913
 113.6136357 136.1446274  81.1813842 115.0137256 136.6006534  81.5330432
 111.7908035 130.6728833  77.3279726 111.5932856 130.3643921  78.2123058
 112.4007740 131.3990472  77.4577655 119.7979369 141.1992781  80.4631666
 120.5282758 140.9378069  81.0239370 119.1886315 140.4621503  80.5033734
 117.8794666 139.3400644  81.0606118 117.1527830 139.2056609  80.4522609
 117.4641953 139.6477472  81.8662836 105.7024843 143.0590573  88.8253491
 106.6227852 143.2369172  89.0193537 105.6674426 142.1146619  88.6733190
 104.0029067 136.9322804  67.3007719 103.0960523 136.6355916  67.3770433
 104.2805048 136.6352622  66.4342005  98.6986915 140.9691608  81.4676272
  98.9172925 141.9008716  81.4864306  99.1112689 140.6099582  82.2531076
 105.6191133 131.4759693  73.4551960 104.8091862 131.1306778  73.8307206
 106.3075550 131.1667237  74.0439572 103.5714781 136.5424814  90.8579021
 103.4711508 137.4919171  90.7891112 103.3536323 136.2143053  89.9855091
  94.7895268 141.8732078  79.7199887  94.0958739 141.4586031  79.2069841
  95.5368259 141.9152615  79.1233306 110.9260489 132.6638265  74.5854921
 110.3459158 133.3223069  74.2032974 110.6596421 131.8415610  74.1742339
 103.4346051 139.9721953  89.6744082 102.9513132 140.7722313  89.8807971
 103.5206990 139.9829897  88.7211526  96.7032010 141.8050332  77.5965902
  96.6802698 141.9038019  76.6447785  97.0132647 142.6515483  77.9183068
  99.3619388 143.8626487  81.7112516 100.3162642 143.8310430  81.6442448
  99.1631912 143.4017111  82.5262742  99.9518770 142.4327603  84.2783314
 100.7711659 142.9271682  84.3018151 100.2255578 141.5159571  84.2500881
 109.7085367 134.8238356  73.6411269 108.8211222 135.1088006  73.4231464
 110.1239356 134.6632119  72.7938546 113.0599903 134.8484877  77.3565609
 113.8360293 135.3381329  77.6290225 112.3348037 135.2742931  77.8137478
 115.4972461 135.5612496  78.4139549 116.0916952 135.3208232  77.7032858
 115.5699045 134.8419626  79.0413086  97.7169617 149.4046107  78.7282714
  97.5824085 148.6446508  78.1620712  97.3001679 150.1287007  78.2611503
 108.8528580 144.5883030  67.7359289 109.5564430 144.7933033  68.3516945
 108.1291229 145.1559792  68.0008373 109.6826390 140.3392892  73.8561560
 109.6261592 140.7961443  73.0169192 110.2354733 139.5783576  73.6784402
 113.4931196 136.1282623  74.6811679 113.2368130 135.7279259  75.5119887
 112.8684064 136.8426417  74.5561818 117.8043534 138.8678697  77.1882970
 117.2443092 138.9371886  77.9614533 117.1987037 138.6919681  76.4682467
 100.8738743 150.3015424  78.9401157 100.7571127 151.2460856  78.8379847
 100.0531189 149.9988985  79.3286956 110.7615277 145.0265559  69.7857749
 111.5960881 144.5946758  69.6035224 110.5999620 144.8547573  70.7134644
 110.4161170 141.5297673  71.1514089 110.3609973 141.3641944  70.2102533
 109.7907225 142.2373706  71.3076278  95.2053685 136.7665737  84.9775511
  95.8512548 136.2564691  85.4662736  94.9970836 137.5034419  85.5518936
 107.7307077 143.8346585  90.4767652 108.5998236 144.0087237  90.1154286
 107.2513828 144.6541001  90.3543381 101.8993257 150.9543686  82.1557085
 102.8020504 150.9867296  82.4723580 101.6730627 150.0244137  82.1703421
 103.6546859 149.7074672  78.8167164 102.7042490 149.7076534  78.7031536
 103.9579345 148.9607407  78.3003198  99.5451176 133.9133354  89.0750525
 100.4082637 133.5570159  89.2853850  98.9716586 133.5747249  89.7625929
 119.3899553 155.5435211  79.8812926 120.0277962 155.4241958  79.1776266
 119.2720395 156.4916055  79.9400878 116.1989259 155.4962639  79.8174451
 115.8607770 155.3803703  78.9294986 117.0679027 155.0953804  79.7975457
 112.0576075 157.3498115  75.8071342 111.4940940 157.2588052  75.0387630
 111.9428470 156.5298020  76.2873834 116.6809042 156.6497490  85.7760656
 116.6697683 156.2550289  84.9041160 116.8429681 155.9163563  86.3694428
 109.6040506 158.8449307  78.6455562 110.3961798 158.5040131  78.2301862
 109.8437157 158.9544282  79.5657716 111.5631260 158.1058220  71.5172941
 112.3362136 157.5587207  71.3785817 111.9156659 158.9702469  71.7287402
 113.4016303 159.4334602  84.7239840 113.1106169 160.3380233  84.6086507
 114.0373287 159.4751130  85.4383910 114.3272510 156.8111451  81.3141200
 114.9236082 156.5867473  80.5998163 114.3847481 156.0696196  81.9166648
 113.8997538 154.2650886  69.1491391 114.1523059 153.7432407  68.3874854
 112.9622097 154.1017032  69.2518075 118.9440821 153.2686664  76.9566134
 119.7303910 152.8506088  76.6056551 119.2079525 154.1732757  77.1247783
 119.1150898 158.7059515  71.6554791 118.4796731 158.7794141  72.3675696
 118.7848305 159.2953114  70.9773870 124.3449248 153.2061898  77.8599113
 125.0774420 152.6361114  78.0936942 123.5888604 152.8183498  78.3005618
 113.6193827 156.1678992  71.3515766 113.5030085 155.4923895  72.0196850
 113.7296087 155.6811366  70.5347919 115.9625368 155.6289139  75.0562455
 115.5983575 155.1019760  75.7675377 116.8192484 155.2387608  74.8828941
 121.8674668 146.9183472  82.3193721 121.5357993 147.7878883  82.0954936
 121.2720282 146.6019756  82.9987752 115.6030855 150.6579039  70.0523804
 115.7705257 151.5259275  70.4194275 115.4128024 150.8206321  69.1285093
 118.3606188 159.1196018  81.7189634 118.0606911 160.0221057  81.6105441
 118.0157248 158.8528201  82.5710787 111.8118670 155.5709815  77.7526339
 110.8869166 155.4386029  77.9604030 112.0603083 156.3504034  78.2496281
 121.7603332 151.6378558  79.3987071 120.8520209 151.5693966  79.1045832
 121.7090928 152.1150503  80.2268897 115.5820076 153.1136696  71.0370471
 115.4619701 153.5593747  71.8755951 114.8872664 153.4622014  70.4784009
 109.1727481 155.2143088  78.5870128 109.3019862 155.4677567  79.5009539
 108.4924932 155.8070796  78.2674783 115.8344198 153.0568203  87.3421969
 115.0577532 153.6162124  87.3324833 116.4734761 153.5424986  87.8636839
 123.6264978 149.8394996  81.1764945 122.9839358 150.1327529  80.5304740
 123.1219907 149.7247917  81.9818142 121.2805142 153.5858169  71.8650805
 122.1922998 153.8185556  71.6898502 120.7714789 154.1695214  71.3025883
 114.0890570 155.8653657  86.9039936 114.8305254 156.4038701  86.6274759
 113.3827555 156.4919946  87.0611487 119.5645910 158.0082797  85.5012097
 119.9729266 157.5665208  84.7566730 118.8423171 157.4335425  85.7546290
 115.9176980 152.9455404  82.8745654 116.7638175 153.3694818  83.0180303
 115.8575617 152.2889028  83.5684217 119.8874724 158.5683988  79.2564386
 119.2583587 158.7329702  78.5540454 119.5000386 158.9825597  80.0275350
 119.0676425 150.6059772  84.5326828 118.8237357 151.3601833  83.9961103
 119.3436355 150.9845120  85.3674075 121.0214888 157.1498385  83.2104093
 121.2331783 157.7930145  82.5338474 120.9744636 156.3160701  82.7426023
 118.6241117 149.7616205  80.1140665 117.7625596 150.0597459  80.4057403
 118.6503551 149.9786604  79.1821698 115.4402686 158.3058396  76.5214471
 115.9041032 158.5846099  75.7319094 115.1759484 157.4041841  76.3387562
 112.3326767 157.8529878  79.4594234 112.9028124 158.2817146  78.8211719
 112.9234879 157.5712462  80.1578420 114.3771572 154.4281548  73.3304036
 115.0795615 154.8802592  73.7977963 114.0452201 153.7865367  73.9583929
 112.8251934 153.0193305  87.7055246 112.1950594 153.7009586  87.9390643
 112.7188022 152.9076387  86.7608384 108.1196906 152.6865101  78.6321170
 107.3295960 152.9422630  78.1561280 108.6108153 153.5013439  78.7373210
 110.0711651 153.0509680  75.5904647 109.2742815 153.1628375  76.1088142
 109.8437244 153.3896333  74.7245537 115.9017319 159.5754384  83.5387161
 115.9661752 160.0374791  84.3745333 115.1928243 158.9451748  83.6669471
 106.4034609 152.9395592  81.0636161 106.6542647 153.8242601  81.3293737
 106.9394157 152.7600193  80.2911252 115.6165337 161.2422491  73.4066142
 115.4811012 162.0874027  73.8350989 116.1575149 161.4441769  72.6432075
 112.1032676 147.3214071  90.0680497 111.7099622 146.7680269  90.7428141
 112.9198817 147.6324649  90.4587014 109.0694734 158.7597929  73.9794067
 109.5819255 159.5541179  74.1299631 109.7217447 158.0624220  73.9127668
 110.8789619 161.8763685  76.0616820 111.0556247 162.7981650  75.8737804
 111.6746452 161.5622105  76.4911200 115.0200637 148.7371950  87.6600753
 115.7610351 149.3379103  87.5805216 115.2518560 147.9949588  87.1018796
 110.1641975 153.9228317  85.9378983 110.0495491 153.0213574  86.2386082
 109.3086493 154.1692014  85.5863800 112.0020934 163.3941859  82.0627162
 112.5528359 163.2658922  81.2904156 111.1632410 163.6936748  81.7122055
 115.7988105 159.6592987  86.4071393 116.3316442 158.8981275  86.1770701
 115.2702186 159.3666639  87.1495548 118.9657800 144.7653053  81.9365035
 118.6222070 145.6554695  81.8604146 119.3336763 144.5754711  81.0734620
 107.0343651 157.0886583  74.7553637 107.8718873 157.4983592  74.5387345
 107.2121919 156.1486026  74.7253831 118.9308083 154.7561664  70.4437470
 118.4154706 155.5266269  70.6825858 118.6585391 154.0826800  71.0670532
 116.5155194 149.6011365  75.5022708 115.6596790 149.2118215  75.3228347
 116.9282146 149.6803326  74.6422494 118.0454341 147.1357708  79.9014268
 117.5419136 147.0987843  79.0882074 118.3384948 148.0450451  79.9610925
 114.2897227 147.2196438  78.9080450 115.1550223 147.0239246  78.5486339
 114.3574736 146.9906790  79.8349807 118.7194386 152.6288756  72.2697251
 118.4144522 152.9434905  73.1207394 119.6724828 152.7070176  72.3124584
 117.1640818 158.7878979  73.9190205 116.6362180 158.0531739  73.6063443
 116.6628321 159.5653656  73.6730174 122.1433664 156.9828000  79.0357252
 121.4857339 157.6727261  79.1237380 122.9474063 157.3724432  79.3791238
 111.8959546 149.4498646  76.2796817 112.4703298 149.2273827  75.5470010
 112.4830528 149.5187340  77.0325418 120.9539123 155.3372373  77.0861193
 121.4671005 155.9702364  77.5882903 121.6040347 154.7373568  76.7204553
 112.2229133 151.4803107  70.2992702 111.3866445 151.8177793  70.6201977
 112.0833902 151.3452087  69.3619839 114.1982213 146.3239895  75.0071886
 113.5446626 146.0088912  74.3828501 114.1562688 145.7015635  75.7331709
 115.3093418 156.6059190  66.9225178 114.4020480 156.3748443  67.1216327
 115.8064450 155.8096809  67.1099160 117.4319954 152.8121828  79.3319534
 116.5142515 153.0336775  79.1741222 117.8480097 152.8868139  78.4731241
 118.2155002 154.2113244  74.4622214 118.9626820 154.7234641  74.1529336
 118.4846591 153.8897297  75.3226608 116.4881652 156.7071785  71.4449168
 115.5792871 156.4230817  71.5421638 116.5176735 157.1270863  70.5852475
 120.6633839 151.2470360  76.4441003 119.9256595 150.7347746  76.7751246
 120.9160612 150.8070742  75.6324280 120.7645466 144.0246612  77.0382773
 121.0704343 143.1643976  76.7508688 121.4898071 144.6164232  76.8381767
 107.0569822 154.4277299  75.4264371 106.8594222 153.8346659  74.7015437
 106.5016486 154.1229509  76.1440309 115.0366546 154.3200405  77.5458964
 115.0915156 153.3674242  77.4701440 114.2257748 154.4759844  78.0300262
 116.1857739 158.2480528  68.7837247 115.7477169 157.5316387  68.3242884
 116.9268180 158.4756643  68.2222338 112.9758906 152.9377465  75.3049343
 112.1626771 153.2371635  75.7114535 113.4717900 152.5433154  76.0223825
 115.1267484 162.9335222  77.2383607 115.0843662 163.1596068  76.3092139
 116.0430182 162.6998596  77.3869408 118.5733117 153.4019289  84.1364236
 118.9282505 153.6290763  84.9958702 119.2205249 153.7337666  83.5141492
 124.3030854 156.5237725  74.8413566 124.1648753 156.7139321  73.9134755
 123.9467073 157.2857108  75.2981617 112.4672980 150.5095820  80.9210578
 113.1072360 150.3684580  80.2233541 111.6350511 150.2230334  80.5449180
 113.2433284 159.8098251  77.0345570 114.0373883 159.3148571  76.8328145
 112.5324977 159.2816114  76.6713276 109.5516048 153.9541333  73.1105323
 108.6213636 153.8925788  73.3275285 109.6473520 153.4317285  72.3141964
 109.4701597 150.4796145  75.6983564 109.7308414 151.3941479  75.5892725
 110.2918769 150.0120588  75.8480177 110.9426522 151.8933903  82.8682389
 111.6149576 151.6851265  82.2195038 110.1156309 151.6955989  82.4287621
 116.8452094 148.5195844  84.8848050 116.1980009 149.2185793  84.7912526
 117.6153110 148.9531987  85.2524298 120.2530892 158.7844696  87.9598603
 120.1016399 158.5555247  87.0428687 120.2435572 159.7415297  87.9729948
 117.0216229 156.3576608  82.9444869 117.9508289 156.5087768  82.7713837
 116.6007259 156.4460629  82.0893516 115.8204560 160.3827273  80.7143407
 115.6815646 160.0146057  81.5869345 115.0319157 160.8974912  80.5427365
 117.3709775 159.7608876  78.1032245 117.0359608 159.7209645  78.9989895
 116.8713721 159.0953591  77.6302655 111.3454019 155.1676506  83.6284826
 111.2073817 154.4356744  84.2296365 112.2558943 155.0785406  83.3469014
 120.3068967 157.1064910  68.3769305 119.6898138 156.3811738  68.2802357
 119.8385456 157.8674270  68.0336379 113.9736320 154.8796465  83.1168506
 114.6835939 154.2389657  83.0755124 113.9305628 155.1309360  84.0394686
 112.6865254 151.8661683  84.9364145 112.1502611 151.4152421  85.5885742
 112.0981963 152.0007592  84.1934610 112.0967513 151.3250334  67.4990609
 111.2196979 151.2039135  67.1352855 112.5725266 150.5336412  67.2469497
 103.6169653 156.1127494  77.5932116 104.3040693 155.7989224  77.0053131
 103.4617782 157.0168859  77.3199367 108.4204375 151.0017690  82.0217140
 108.3362564 150.3943360  81.2867550 107.5987082 151.4926709  82.0226636
 118.5928089 149.4871254  77.3887335 119.0896789 148.7341216  77.0688405
 117.8215071 149.5235571  76.8230544 119.6757870 158.2442941  74.9625758
 118.7414149 158.3644404  74.7930462 119.8534538 157.3415408  74.6985768
 115.1763058 151.6288637  77.1159019 114.8060845 151.0759677  77.8039925
 115.6722150 151.0246770  76.5634019 123.0630421 154.0860260  75.4975792
 123.5290873 154.9188252  75.4236095 123.5137922 153.6205242  76.2021051
 113.0052256 162.0886132  84.2114037 113.7061716 162.7222615  84.3643431
 112.5347371 162.4300864  83.4509677 121.0347084 146.4540847  79.5366694
 120.1210164 146.6845074  79.7048901 121.4640185 146.5379292  80.3880726
 120.8053542 154.6430739  82.0366588 120.1524993 154.8906647  81.3819040
 121.1833922 153.8294878  81.7029065 116.8541115 155.3850551  88.5232625
 116.1781752 155.2844680  89.1935000 117.6768749 155.2289764  88.9868622
 108.6019975 161.6222487  81.1445140 109.1873411 160.8766175  81.2773044
 108.4044813 161.9326444  82.0281804 111.4558630 164.6573734  76.1607582
 110.7869005 165.1419862  75.6771622 111.3171499 164.9042955  77.0750961
 103.1937629 154.1928087  79.8649583 103.2321729 153.6591678  80.6586701
 102.6877922 153.6663293  79.2460560 110.5728392 149.0392628  83.3612125
 110.6369718 149.9007459  82.9489523 110.5095512 148.4266629  82.6284484
 110.0480664 151.1115760  87.0085160 110.6752703 150.7292838  87.6222684
 109.1908583 150.8929962  87.3740852 106.8246207 152.9192189  72.9403514
 107.1199648 152.0102868  72.8870568 105.9234243 152.8979929  72.6184517
 110.3540454 150.9948186  78.9231063 109.6327040 151.6084154  78.7838536
 111.1433710 151.5305951  78.8447709 113.1566767 148.3302612  85.1971715
 113.6801169 148.5764909  85.9598024 112.9379101 149.1622647  84.7774852
 108.5534048 150.6006287  73.0642840 108.2246755 149.7203666  72.8817946
 108.9073419 150.5453956  73.9519229 111.6675872 150.8879257  73.4318317
 112.0071944 151.4165178  72.7096926 112.1147992 151.2259663  74.2076884
 114.3619312 149.2716308  82.8821385 114.0216133 148.4724121  83.2842065
 113.6558319 149.5718018  82.3098219 115.0135784 146.3565620  81.3348708
 115.8361854 145.8826098  81.2127599 115.2573848 147.1356104  81.8347395
 113.6544019 149.3853878  71.6311610 114.3752381 149.7635131  71.1275327
 113.0309323 150.1042755  71.7346588 117.7975142 150.0899027  72.5669942
 118.0138756 150.9723665  72.2658771 117.3169209 149.6985241  71.8375584
 112.5374363 153.0484741  79.1440687 112.3918944 153.3625044  80.0364969
 112.0599567 153.6669641  78.5911586 114.3970746 150.0387289  79.1921577
 114.3832315 149.1428382  78.8553875 115.1143174 150.0457952  79.8259863
 116.2496877 150.4724629  81.2374704 115.9914654 151.3941699  81.2359034
 115.7181917 150.0755063  81.9275168 107.0120025 155.5890085  82.0828348
 106.4673493 156.3649893  82.2148623 107.8899375 155.9360890  81.9247470
 113.8007642 148.9201669  74.4609147 113.9223553 147.9918315  74.6600034
 113.5109684 148.9340355  73.5487462 116.6698832 146.6056579  77.5975867
 116.6920529 146.6695912  76.6427846 117.0866891 145.7661088  77.7916373
 107.7986047 154.7159981  84.9758505 107.0567783 154.8642617  85.5623135
 107.4778791 154.9768247  84.1125254 108.2442661 162.6025410  77.0068900
 109.0700681 162.3029182  76.6267543 107.8936713 161.8333032  77.4558688
 113.2124194 161.9551878  79.0766573 112.5904203 161.2922583  78.7768801
 113.8829061 161.9813010  78.3940221 106.4451266 160.5211736  77.9657833
 105.6083174 160.0933911  77.7841835 106.4174911 160.7144180  78.9028624
 113.2848721 150.4333666  88.6699079 113.3336877 151.3095789  88.2876849
 113.8271236 149.8911059  88.0970723 112.7737701 160.5055802  72.5525034
 112.9225821 161.1891266  71.8991707 113.5804144 160.4860892  73.0674490
 121.1805204 153.8098184  86.5792252 122.0815067 153.6704649  86.2876249
 121.2553179 153.9752639  87.5190429 115.5148010 151.1865039  85.4245438
 114.6451319 151.4798605  85.1528026 115.7507490 151.7705484  86.1452702
 123.6406827 155.3696812  83.9755024 124.1160949 155.5624458  83.1673876
 122.7172393 155.4255998  83.7298408 110.5290334 156.5320979  73.5586103
 110.2836376 155.6283309  73.7566313 110.6986248 156.5338130  72.6165581
 118.2187044 147.4044656  82.9410858 118.7368988 148.1405683  82.6157347
 117.8642176 147.7108649  83.7757617 109.7985981 152.2649337  71.0572264
 109.1055226 152.3393692  70.4012300 109.5537733 151.5009680  71.5793781
 118.4699638 143.8244938  78.4611755 118.7501392 143.1568127  79.0872181
 119.2550245 144.0174034  77.9486419 122.3408496 152.2462572  82.2083330
 123.2925919 152.3460670  82.2295554 122.1711947 151.4540841  82.7181414
 120.3622876 149.3318155  82.3942731 119.7672808 149.6123168  81.6989220
 120.0772572 149.8212056  83.1659472 124.8196574 155.4668692  81.3225630
 124.7872894 154.5284693  81.5085314 125.4297198 155.5452729  80.5891455
 116.6579905 154.3364745  67.3652834 117.6039010 154.2070953  67.4341252
 116.2794150 153.5979407  67.8422262 124.9691062 152.2579735  81.3683913
 124.4530111 151.4738192  81.1813842 125.8531011 151.9298452  81.5330432
 122.6301789 146.0020751  77.3279726 122.4326610 145.6935839  78.2123058
 123.2401495 146.7282390  77.4577655 116.5418597 158.3882491  88.8253491
 117.4621607 158.5661090  89.0193537 116.5068180 157.4438536  88.6733190
 114.8422822 152.2614721  67.3007719 113.9354277 151.9647834  67.3770433
 115.1198803 151.9644539  66.4342005 105.7600762 153.5821085  77.7506765
 105.4403547 152.7286393  77.4581139 105.2134191 153.7969663  78.5064733
 109.5380670 156.2983526  81.4676272 109.7566680 157.2300633  81.4864306
 109.9506444 155.9391500  82.2531076 116.4584888 146.8051611  73.4551960
 115.6485616 146.4598696  73.8307206 117.1469305 146.4959155  74.0439572
 118.3875436 145.8829658  75.0776257 118.9406475 146.3025111  75.7366280
 118.6245522 144.9565406  75.1199213 114.4108535 151.8716731  90.8579021
 114.3105262 152.8211088  90.7891112 114.1930077 151.5434970  89.9855091
 113.6121607 149.1201656  67.4419698 114.4740771 149.4456555  67.7015516
 113.7971951 148.3333152  66.9292764 105.6289022 157.2023996  79.7199887
 104.9352494 156.7877949  79.2069841 106.3762013 157.2444533  79.1233306
 121.7654243 147.9930183  74.5854921 121.1852912 148.6514987  74.2032974
 121.4990176 147.1707527  74.1742339 120.2157809 147.3935241  76.7876241
 120.7157588 147.5051775  75.9790560 120.8593417 147.0896293  77.4277050
 114.2739805 155.3013870  89.6744082 113.7906887 156.1014230  89.8807971
 114.3600744 155.3121815  88.7211526 107.5425765 157.1342250  77.5965902
 107.5196453 157.2329937  76.6447785 107.8526401 157.9807401  77.9183068
 110.2013143 159.1918405  81.7112516 111.1556396 159.1602347  81.6442448
 110.0025666 158.7309029  82.5262742 110.7912525 157.7619521  84.2783314
 111.6105414 158.2563600  84.3018151 111.0649333 156.8451489  84.2500881
 120.5479121 150.1530273  73.6411269 119.6604976 150.4379924  73.4231464
 120.9633110 149.9924037  72.7938546 123.8993657 150.1776794  77.3565609
 124.6754047 150.6673247  77.6290225 123.1741791 150.6034848  77.8137478
 126.3366216 150.8904413  78.4139549 126.9310707 150.6500149  77.7032858
 126.4092800 150.1711544  79.0413086 108.5563372 164.7338024  78.7282714
 108.4217839 163.9738425  78.1620712 108.1395434 165.4578924  78.2611503
 120.5220145 155.6684809  73.8561560 120.4655346 156.1253361  73.0169192
 121.0748487 154.9075494  73.6784402 124.3324951 151.4574541  74.6811679
 124.0761885 151.0571177  75.5119887 123.7077819 152.1718335  74.5561818
 121.2554924 156.8589590  71.1514089 121.2003728 156.6933862  70.2102533
 120.6300979 157.5665623  71.3076278 106.0447439 152.0957655  84.9775511
 106.6906303 151.5856609  85.4662736 105.8364590 152.8326336  85.5518936
 118.5700831 159.1638502  90.4767652 119.4391991 159.3379155  90.1154286
 118.0907583 159.9832919  90.3543381 114.5651050 146.3597699  70.7299407
 114.5529719 147.3039539  70.8867678 115.4574471 146.1767845  70.4358868
 118.3803169 142.9540476  74.9845344 117.6135565 142.3998963  75.1302026
 118.7913874 143.0262345  75.8459496 110.3844930 149.2425272  89.0750525
 111.2476392 148.8862077  89.2853850 109.8110341 148.9039167  89.7625929
  32.6749518   9.9161992  66.6058233  33.3127928   9.7968739  65.9021573
  32.5570361  10.8642836  66.6646185  29.4839224   9.8689420  66.5419758
  29.1457736   9.7530485  65.6540292  30.3528992   9.4680585  66.5220764
  25.3426040  11.7224896  62.5316648  24.7790905  11.6314833  61.7632936
  25.2278435  10.9024801  63.0119141  29.9659007  11.0224272  72.5005963
  29.9547648  10.6277070  71.6286467  30.1279647  10.2890344  73.0939735
  22.8890472  13.2176088  65.3700869  23.6811764  12.8766913  64.9547168
  23.1287122  13.3271063  66.2903022  30.9225599  15.3895864  57.8431113
  30.2713578  15.9749944  57.4565127  31.7169961  15.9202059  57.9026151
  24.8481226  12.4785001  58.2418248  25.6212102  11.9313988  58.1031124
  25.2006625  13.3429250  58.4532709  26.6866268  13.8061383  71.4485147
  26.3956134  14.7107014  71.3331813  27.3223253  13.8477911  72.1629217
  27.6122475  11.1838232  68.0386507  28.2086047  10.9594254  67.3243470
  27.6697447  10.4422977  68.6411955  27.1847504   8.6377667  55.8736698
  27.4373024   8.1159189  55.1120161  26.2472063   8.4743813  55.9763381
  32.2290786   7.6413446  63.6811441  33.0153876   7.2232869  63.3301858
  32.4929491   8.5459538  63.8493089  32.4000864  13.0786296  58.3800098
  31.7646697  13.1520922  59.0921002  32.0698270  13.6679895  57.7019177
  37.6299214   7.5788679  64.5844419  38.3624385   7.0087896  64.8182249
  36.8738569   7.1910279  65.0250925  26.9043792  10.5405773  58.0761073
  26.7880050   9.8650677  58.7442157  27.0146052  10.0538147  57.2593226
  29.2475333  10.0015920  61.7807762  28.8833540   9.4746541  62.4920683
  30.1042449   9.6114389  61.6074247  35.1524634   1.2910253  69.0439028
  34.8207959   2.1605664  68.8200243  34.5570247   0.9746537  69.7233058
  28.8880820   5.0305820  56.7769110  29.0555223   5.8986056  57.1439581
  28.6977989   5.1933102  55.8530400  31.6456153  13.4922799  68.4434941
  31.3456876  14.3947838  68.3350748  31.3007213  13.2254982  69.2956094
  25.0968635   9.9436596  64.4771645  24.1719131   9.8112810  64.6849337
  25.3453048  10.7230815  64.9741588  35.0453297   6.0105339  66.1232378
  34.1370175   5.9420748  65.8291139  34.9940893   6.4877284  66.9514204
  28.8670041   7.4863477  57.7615777  28.7469666   7.9320528  58.6001257
  28.1722629   7.8348795  57.2029315  22.4577446   9.5869869  65.3115434
  22.5869827   9.8404348  66.2254846  21.7774897  10.1797577  64.9920089
  26.6276933  20.2567119  61.4105908  26.5500963  21.2074944  61.4894389
  26.0238577  19.9112992  62.0680835  29.1194163   7.4294985  74.0667275
  28.3427497   7.9888905  74.0570140  29.7584726   7.9151768  74.5882145
  36.9114944   4.2121777  67.9010252  36.2689324   4.5054311  67.2550047
  36.4069872   4.0974698  68.7063449  34.5655107   7.9584951  58.5896111
  35.4772963   8.1912337  58.4143809  34.0564754   8.5421995  58.0271190
  27.3740535  10.2380438  73.6285242  28.1155220  10.7765482  73.3520066
  26.6677521  10.8646727  73.7856794  32.8495875  12.3809579  72.2257404
  33.2579231  11.9391989  71.4812036  32.1273136  11.8062206  72.4791597
  29.2026945   7.3182185  69.5990961  30.0488140   7.7421599  69.7425610
  29.1425583   6.6615810  70.2929524  33.1724690  12.9410769  65.9809693
  32.5433552  13.1056483  65.2785761  32.7850352  13.3552379  66.7520657
  37.0513921  13.8765207  63.3354056  36.3664960  14.2564108  62.7851090
  37.1357771  14.4860534  64.0686004  32.3526390   4.9786554  71.2572134
  32.1087322   5.7328614  70.7206410  32.6286321   5.3571901  72.0919381
  34.3064853  11.5225166  69.9349400  34.5181748  12.1656926  69.2583781
  34.2594601  10.6887483  69.4671330  31.9091082   4.1342987  66.8385972
  31.0475561   4.4324240  67.1302710  31.9353517   4.3513386  65.9067005
  28.7252651  12.6785177  63.2459778  29.1890997  12.9572880  62.4564400
  28.4609450  11.7768622  63.0632868  25.6176732  12.2256659  66.1839541
  26.1878090  12.6543927  65.5457026  26.2084844  11.9439243  66.8823727
  27.6621537   8.8008330  60.0549343  28.3645581   9.2529373  60.5223269
  27.3302166   8.1592148  60.6829236  26.1101899   7.3920086  74.4300552
  25.4800560   8.0736367  74.6635949  26.0037987   7.2803168  73.4853691
  35.4210681  14.3997121  68.1071757  36.2428125  13.9977309  67.8254439
  35.4173084  14.2965356  69.0587873  29.1867284  13.9481165  70.2632468
  29.2511717  14.4101572  71.0990640  28.4778208  13.3178530  70.3914778
  43.5116674  10.7435870  64.4556729  42.7580382  10.1743268  64.3000733
  43.6464215  10.7098534  65.4027364  28.9015302  15.6149272  60.1311448
  28.7660977  16.4600808  60.5596296  29.4425115  15.8168550  59.3677382
  22.3544699  13.1324710  60.7039373  22.8669220  13.9267960  60.8544938
  23.0067412  12.4351001  60.6372975  24.1639584  16.2490467  62.7862126
  24.3406213  17.1708431  62.5983110  24.9596418  15.9348886  63.2156506
  30.5283778  16.2372839  74.2611790  30.0847633  15.4509217  73.9432695
  31.1900992  16.4251989  73.5955681  25.2870900  17.7668640  68.7872469
  25.8378325  17.6385704  68.0149463  24.4482376  18.0663529  68.4367362
  32.6265017  16.5175639  72.2893192  32.6083492  17.3384520  71.7973461
  33.5484937  16.3929714  72.5143333  29.0838071  14.0319768  73.1316700
  29.6166407  13.2708056  72.9016008  28.5552152  13.7393420  73.8740854
  20.3193616  11.4613365  61.4798944  21.1568838  11.8710373  61.2632652
  20.4971884  10.5212807  61.4499138  32.2158048   9.1288445  57.1682777
  31.7004672   9.8993050  57.4071164  31.9435357   8.4553581  57.7915838
  29.8005159   3.9738146  62.2268015  28.9446756   3.5844996  62.0473654
  30.2132111   4.0530107  61.3667801  37.1892323  11.8820800  59.1035950
  36.4121765  11.5431959  58.6591112  37.8683803  11.8873423  58.4290915
  32.0044352   7.0015537  58.9942558  31.6994487   7.3161686  59.8452701
  32.9574794   7.0796957  59.0369891  30.4490783  13.1605761  60.6435512
  29.9212145  12.4258520  60.3308749  29.9478286  13.9380437  60.3975480
  35.4283629  11.3554781  65.7602558  34.7707304  12.0454042  65.8482687
  36.2324029  11.7451213  66.1036545  34.2389088   9.7099154  63.8106500
  34.7520970  10.3429146  64.3128210  34.8890312   9.1100349  63.4449860
  28.5943384  10.9785971  53.6470485  27.6870445  10.7475224  53.8461634
  29.0914416  10.1823590  53.8344466  31.5011462  19.6883478  56.5667171
  30.8273161  19.9915175  57.1752129  31.8877284  20.4912558  56.2172628
  30.7169919   7.1848609  66.0564840  29.7992480   7.4063556  65.8986529
  31.1330063   7.2594920  65.1976548  31.5004967   8.5840025  61.1867521
  32.2476786   9.0961422  60.8774643  31.7696556   8.2624078  62.0471914
  29.7731617  11.0798566  58.1694475  28.8642836  10.7957599  58.2666945
  29.8026701  11.4997644  57.3097782  35.0050884  14.6905155  61.9385643
  34.5513212  13.8496065  61.9950833  34.3744851  15.3266554  62.2760423
  33.9483804   5.6197141  63.1686310  33.2106561   5.1074527  63.4996553
  34.2010578   5.1797523  62.3569587  33.4483824  16.5281652  62.8735461
  33.7406798  17.0886709  62.1547826  33.9582444  16.8210213  63.6288620
  28.3216511   8.6927186  64.2704270  28.3765121   7.7401023  64.1946747
  27.5107713   8.8486625  64.7545569  29.4707705  12.6207309  55.5082554
  29.0327135  11.9043168  55.0488191  30.2118146  12.8483424  54.9467645
  26.2608871   7.3104246  62.0294649  25.4476737   7.6098417  62.4359841
  26.7567865   6.9159935  62.7469131  28.4117449  17.3062003  63.9628914
  28.3693628  17.5322849  63.0337446  29.3280148  17.0725378  64.1114715
  31.8583083   7.7746071  70.8609543  32.2132470   8.0017544  71.7204009
  32.5055214   8.1064447  70.2386798  37.5880820  10.8964506  61.5658872
  37.4498718  11.0866102  60.6380061  37.2317038  11.6583889  62.0226923
  37.6150199  12.9641033  66.5770144  38.0486706  12.8716323  67.4253198
  38.3281780  12.9398534  65.9390160  26.5283250  14.1825032  63.7590877
  27.3223848  13.6875352  63.5573452  25.8174942  13.6542895  63.3958582
  31.3478094  16.5643128  68.1103244  31.4015116  17.1334064  68.8780960
  30.4792875  16.7345013  67.7457281  38.4765749  13.0064734  69.1103029
  38.6701639  13.9110545  69.3562304  38.3766367  12.5472153  69.9441614
  30.1302060   2.8922625  71.6093356  29.4829975   3.5912574  71.5157833
  30.9003075   3.3258769  71.9769605  33.5380857  13.1571477  74.6843910
  33.3866364  12.9282029  73.7673993  33.5285537  14.1142078  74.6975255
  30.3066194  10.7303390  69.6690176  31.2358254  10.8814549  69.4959143
  29.8857224  10.8187410  68.8138823  29.1054526  14.7554054  67.4388714
  28.9665611  14.3872838  68.3114652  28.3169122  15.2701693  67.2672672
  29.7002678  19.8563150  58.7814250  29.8754433  19.3851194  59.5959873
  29.0135466  20.4828917  59.0095511  30.6559741  14.1335657  64.8277552
  30.3209573  14.0936427  65.7235201  30.1563686  13.4680373  64.3547962
  24.6303985   9.5403287  70.3530133  24.4923783   8.8083526  70.9541672
  25.5408908   9.4512187  70.0714320  33.5918932  11.4791691  55.1014611
  32.9748103  10.7538519  55.0047664  33.1235421  12.2401051  54.7581685
  27.2586285   9.2523246  69.8413812  27.9685904   8.6116438  69.8000431
  27.2155594   9.5036141  70.7639993  35.2473064  16.1890599  72.7620392
  35.1885610  15.5049820  72.0950975  35.6492582  16.9309589  72.3101018
  24.2663763  23.0052513  65.5554110  24.5060361  23.6371037  66.2333129
  23.4232959  22.6540553  65.8419470  35.2490471  14.1530183  70.9934371
  34.3617250  13.8156105  71.1160770  35.8189022  13.4213215  71.2303137
  28.7791625  18.8131636  67.9595614  28.7061796  19.6186607  68.4714919
  28.3369018  19.0123602  67.1343636  28.5681404  18.0503406  61.4698436
  27.7848926  18.5925086  61.5636660  29.2674150  18.5677385  61.8692677
  31.8778054   3.8598035  64.1132641  32.3746754   3.1067998  63.7933712
  31.1065036   3.8962352  63.5475851  39.7307812   9.5638401  65.7550933
  39.7197688  10.4463116  65.3844866  38.8625191   9.2109952  65.5605470
  31.2390308  18.7118470  70.1153773  31.9518280  19.3465935  70.0429675
  30.7480337  18.8082336  69.2993775  32.9607835  12.6169722  61.6871065
  32.0264114  12.7371185  61.5175769  33.1384504  11.7142189  61.4231075
  28.4613023   6.0015418  63.8404326  28.0910811   5.4486459  64.5285232
  28.9572116   5.3973552  63.2879326  36.3480387   8.4587042  62.2221099
  36.8140839   9.2915033  62.1481402  36.7987887   7.9932023  62.9266357
  26.2902222  16.4612913  70.9359344  26.9911681  17.0949396  71.0888738
  25.8197337  16.8027645  70.1754983  34.4156618  14.8030863  59.2207251
  34.6916462  14.6887458  60.1301125  33.5461116  14.4048348  59.1819424
  34.3197049   0.8267629  66.2612000  33.4060129   1.0571856  66.4294207
  34.7490151   0.9106073  67.1126033  34.0903508   9.0157521  68.7611894
  33.4374958   9.2633428  68.1064347  34.4683888   8.2021659  68.4274372
  31.0510682  19.0517214  62.8640065  31.2333076  18.2338870  63.3267817
  31.8743668  19.2684906  62.4264955  31.3852847  17.9785399  60.1255113
  31.9140614  17.4677854  59.5125275  31.6481067  17.6627929  60.9900646
  30.1391081   9.7577332  75.2477931  29.4631718   9.6571461  75.9180307
  30.9618715   9.6016545  75.7113929  21.8869940  15.9949268  67.8690447
  22.4723377  15.2492956  68.0018351  21.6894778  16.3053225  68.7527110
  24.7408595  19.0300516  62.8852889  24.0718970  19.5146643  62.4016929
  24.6021465  19.2769736  63.7996268  28.8813864  21.0644259  69.4835547
  29.4332172  21.2275881  70.2484633  29.2220057  21.6548697  68.8115572
  33.7324738  15.8905517  75.3384202  34.2764642  16.5035475  74.8439157
  33.1511583  16.4485095  75.8551215  32.0182251  19.0126235  66.4699230
  31.8933390  18.2115975  65.9610175  32.6761342  19.5072428  65.9813199
  34.0817159  16.8135255  68.0978780  33.1347495  16.6940606  68.0257106
  34.4299932  15.9257753  68.1805041  31.0863593  16.6087971  64.2983132
  30.9388555  15.6804678  64.4790702  31.9117086  16.6308062  63.8140207
  34.6897714  17.4316530  65.3848005  35.6144262  17.2259391  65.2472456
  34.5213018  17.1832931  66.2937346  31.0825107   4.4625809  59.2915249
  31.2988721   5.3450446  58.9904077  30.6019174   4.0712022  58.5620891
  25.8224328   7.4211522  65.8685994  25.6768909   7.7351825  66.7610275
  25.3449532   8.0396422  65.3156892  29.5346842   4.8451410  67.9620011
  29.2764620   5.7668481  67.9604341  29.0031882   4.4481845  68.6520475
  34.4793031  17.9502197  60.7410096  34.6529908  17.3848620  59.9883948
  34.9721922  18.7503092  60.5589586  20.2969990   9.9616866  68.8073655
  19.7523459  10.7376674  68.9393929  21.1749340  10.3087671  68.6492776
  40.3332422  10.7138620  62.3600396  40.7763568   9.9645945  61.9619519
  39.4558932  10.7048756  61.9774128  35.4668203  17.2668962  57.8406994
  36.1619108  17.8875654  58.0594309  35.8091353  16.4164313  58.1159372
  37.3659626  14.7168667  59.3694325  37.8910950  15.0555940  58.6443645
  37.2781979  13.7815682  59.1857460  29.0279675  18.6302741  71.4984202
  29.3366801  18.3851888  72.3706901  29.8255157  18.8349379  71.0103072
  29.0500287  20.7840650  63.7289578  28.6105277  20.2917029  64.4222435
  29.8008404  20.2413618  63.4881653  21.5292626  16.9752191  63.7314206
  22.3550646  16.6755963  63.3512850  21.1786678  16.2059814  64.1803995
  26.4974159  16.3278659  65.8011880  25.8754168  15.6649364  65.5014108
  27.1679026  16.3539791  65.1185528  19.7301231  14.8938518  64.6903140
  18.8933139  14.4660692  64.5087141  19.7024877  15.0870961  65.6273931
  37.0553532  15.3501571  74.6745523  36.2649076  15.3325710  74.1350022
  36.8186887  15.8889864  75.4294560  37.1751407  12.1994037  71.9878252
  37.2249412  12.0344045  72.9293774  37.0665331  11.3321296  71.5976132
  26.0587666  14.8782583  59.2770340  26.2075786  15.5618047  58.6237013
  26.8654110  14.8587673  59.7919796  34.4655170   8.1824965  73.3037558
  35.3665033   8.0431430  73.0121556  34.5403144   8.3479420  74.2435736
  28.7997975   5.5591820  72.1490745  27.9301285   5.8525386  71.8773333
  29.0357456   6.1432265  72.8698008  38.6769604  14.6190979  72.2320273
  38.3854413  14.9820959  73.0683734  38.0641736  13.9057987  72.0533605
  39.8765287  12.1843858  64.7522843  40.7112178  12.6233662  64.9160404
  40.0124415  11.7082512  63.9331089  36.9256792   9.7423593  70.7000331
  37.4010914   9.9351240  69.8919182  36.0022358   9.7982779  70.4543715
  23.8140299  10.9047760  60.2831409  23.5686341  10.0010090  60.4811620
  23.9836214  10.9064911  59.3410887  31.5037009   1.7771437  69.6656165
  32.0218953   2.5132464  69.3402654  31.1492142   2.0835430  70.5002924
  29.5583072  17.3730713  56.7482088  28.9857039  17.9920900  56.2952560
  30.1315865  17.9230075  57.2822010  35.6258461   6.6189353  68.9328637
  36.5775884   6.7187451  68.9540861  35.4561912   5.8267622  69.4426721
  33.6472841   3.7044937  69.1188038  33.0522773   3.9849949  68.4234526
  33.3622538   4.1938837  69.8904779  32.7780331  17.6567863  57.8790670
  33.7111005  17.5913425  58.0823546  32.6903544  18.4924130  57.4205203
  35.4068348  16.9733734  54.8394618  35.3281980  16.6393597  55.7330376
  36.2278015  17.4655502  54.8386090  38.1046539   9.8395473  68.0470936
  38.0722859   8.9011474  68.2330620  38.7147163   9.9179510  67.3136761
  29.9429870   8.7091526  54.0898140  30.8888975   8.5797734  54.1586558
  29.5644115   7.9706188  54.5667569  38.2541028   6.6306516  68.0929220
  37.7380076   5.8464973  67.9059148  39.1380976   6.3025233  68.2575739
  35.9151755   0.3747532  64.0525032  35.7176576   0.0662620  64.9368364
  36.5251460   1.1009171  64.1822962  43.9223089  10.9011480  67.1876973
  44.6526478  10.6396768  67.7484676  43.3130035  10.1640202  67.2279041
  42.0038386   9.0419342  67.7851424  41.2771550   8.9075307  67.1767916
  41.5885673   9.3496171  68.5908142  29.8268563  12.7609272  75.5498797
  30.7471572  12.9387871  75.7438844  29.7918146  11.8165317  75.3978497
  28.1272787   6.6341502  54.0253026  27.2204243   6.3374615  54.1015739
  28.4048768   6.3371320  53.1587312  22.8230635  10.6710307  68.1921579
  23.0416645  11.6027415  68.2109612  23.2356409  10.3118281  68.9776382
  27.6958501   6.2443513  77.5824327  27.5955227   7.1937870  77.5136419
  27.4780043   5.9161751  76.7100398  18.9138988  11.5750777  66.4445194
  18.2202459  11.1604730  65.9315148  19.6611979  11.6171314  65.8478613
  35.0504208   2.3656964  61.3100228  34.4702877   3.0241768  60.9278280
  34.7840141   1.5434309  60.8987645  33.5007775   1.7662022  63.5121548
  34.0007553   1.8778556  62.7035867  34.1443383   1.4623075  64.1522357
  27.5589771   9.6740651  76.3989389  27.0756852  10.4741012  76.6053278
  27.6450710   9.6848596  75.4456833  20.8275730  11.5069031  64.3211208
  20.8046418  11.6056718  63.3693092  21.1376367  12.3534182  64.6428375
  23.4863108  13.5645186  68.4357823  24.4406362  13.5329128  68.3687754
  23.2875632  13.1035810  69.2508049  24.0762490  12.1346302  71.0028621
  24.8955379  12.6290381  71.0263458  24.3499298  11.2178270  70.9746188
  33.8329086   4.5257054  60.3656576  32.9454941   4.8106705  60.1476771
  34.2483075   4.3650818  59.5183853  37.1843623   4.5503575  64.0810915
  37.9604013   5.0400028  64.3535532  36.4591757   4.9761630  64.5382785
  39.6216181   5.2631195  65.1384856  40.2160672   5.0226931  64.4278164
  39.6942765   4.5438325  65.7658392  21.8413337  19.1064806  65.4528021
  21.7067805  18.3465206  64.8866019  21.4245399  19.8305705  64.9856810
  32.9772300  14.2901729  54.4604596  33.6808150  14.4951732  55.0762252
  32.2534949  14.8578491  54.7253680  33.8070110  10.0411590  60.5806866
  33.7505312  10.4980142  59.7414499  34.3598453   9.2802275  60.4029709
  37.6174916   5.8301322  61.4056986  37.3611850   5.4297958  62.2365193
  36.9927784   6.5445116  61.2807125  41.9287254   8.5697395  63.9128277
  41.3686812   8.6390585  64.6859839  41.3230757   8.3938380  63.1927773
  24.9982463  20.0034123  65.6646463  24.8814847  20.9479555  65.5625154
  24.1774909  19.7007684  66.0532263  34.8858997  14.7284258  56.5103056
  35.7204601  14.2965457  56.3280531  34.7243340  14.5566272  57.4379951
  34.5404889  11.2316372  57.8759395  34.4853693  11.0660643  56.9347840
  33.9150945  11.9392405  58.0321585  31.8550797  13.5365283  77.2012958
  32.7241956  13.7105936  76.8399593  31.3757548  14.3559700  77.0788688
  26.0236977  20.6562384  68.8802392  26.9264224  20.6885995  69.1968887
  25.7974347  19.7262835  68.8948728  27.7790579  19.4093371  65.5412470
  26.8286210  19.4095233  65.4276843  28.0823065  18.6626106  65.0248505
  43.5143272  25.2453909  66.6058233  44.1521682  25.1260657  65.9021573
  43.3964115  26.1934753  66.6646185  40.3232979  25.1981338  66.5419758
  39.9851490  25.0822402  65.6540292  41.1922747  24.7972503  66.5220764
  36.1819794  27.0516814  62.5316648  35.6184659  26.9606751  61.7632936
  36.0672189  26.2316718  63.0119141  40.8052762  26.3516189  72.5005963
  40.7941402  25.9568988  71.6286467  40.9673401  25.6182262  73.0939735
  33.7284226  28.5468006  65.3700869  34.5205518  28.2058830  64.9547168
  33.9680876  28.6562981  66.2903022  41.7619353  30.7187782  57.8431113
  41.1107333  31.3041862  57.4565127  42.5563716  31.2493977  57.9026151
  35.6874980  27.8076919  58.2418248  36.4605856  27.2605906  58.1031124
  36.0400379  28.6721168  58.4532709  37.5260023  29.1353301  71.4485147
  37.2349889  30.0398932  71.3331813  38.1617007  29.1769829  72.1629217
  38.4516230  26.5130150  68.0386507  39.0479802  26.2886172  67.3243470
  38.5091201  25.7714895  68.6411955  38.0241258  23.9669585  55.8736698
  38.2766779  23.4451106  55.1120161  37.0865817  23.8035730  55.9763381
  43.0684541  22.9705363  63.6811441  43.8547630  22.5524786  63.3301858
  43.3323245  23.8751455  63.8493089  43.2394618  28.4078214  58.3800098
  42.6040451  28.4812840  59.0921002  42.9092025  28.9971812  57.7019177
  48.4692968  22.9080596  64.5844419  49.2018140  22.3379813  64.8182249
  47.7132324  22.5202197  65.0250925  37.7437547  25.8697691  58.0761073
  37.6273805  25.1942594  58.7442157  37.8539807  25.3830065  57.2593226
  40.0869088  25.3307838  61.7807762  39.7227295  24.8038459  62.4920683
  40.9436204  24.9406307  61.6074247  45.9918388  16.6202171  69.0439028
  45.6601713  17.4897582  68.8200243  45.3964002  16.3038455  69.7233058
  39.7274575  20.3597738  56.7769110  39.8948977  21.2277974  57.1439581
  39.5371744  20.5225019  55.8530400  42.4849908  28.8214717  68.4434941
  42.1850631  29.7239755  68.3350748  42.1400967  28.5546900  69.2956094
  35.9362389  25.2728513  64.4771645  35.0112886  25.1404728  64.6849337
  36.1846803  26.0522733  64.9741588  45.8847052  21.3397257  66.1232378
  44.9763929  21.2712665  65.8291139  45.8334647  21.8169202  66.9514204
  39.7063796  22.8155395  57.7615777  39.5863421  23.2612446  58.6001257
  39.0116384  23.1640713  57.2029315  33.2971200  24.9161787  65.3115434
  33.4263582  25.1696266  66.2254846  32.6168652  25.5089495  64.9920089
  37.4670688  35.5859037  61.4105908  37.3894717  36.5366862  61.4894389
  36.8632331  35.2404909  62.0680835  39.9587917  22.7586902  74.0667275
  39.1821252  23.3180822  74.0570140  40.5978480  23.2443685  74.5882145
  47.7508698  19.5413695  67.9010252  47.1083078  19.8346228  67.2550047
  47.2463627  19.4266615  68.7063449  45.4048862  23.2876868  58.5896111
  46.3166718  23.5204255  58.4143809  44.8958509  23.8713913  58.0271190
  38.2134290  25.5672356  73.6285242  38.9548974  26.1057400  73.3520066
  37.5071275  26.1938644  73.7856794  43.6889629  27.7101496  72.2257404
  44.0972985  27.2683907  71.4812036  42.9666891  27.1354124  72.4791597
  40.0420699  22.6474103  69.5990961  40.8881895  23.0713517  69.7425610
  39.9819337  21.9907727  70.2929524  44.0118444  28.2702687  65.9809693
  43.3827306  28.4348401  65.2785761  43.6244106  28.6844296  66.7520657
  47.8907676  29.2057125  63.3354056  47.2058714  29.5856026  62.7851090
  47.9751525  29.8152451  64.0686004  43.1920145  20.3078471  71.2572134
  42.9481077  21.0620532  70.7206410  43.4680075  20.6863819  72.0919381
  45.1458608  26.8517084  69.9349400  45.3575503  27.4948844  69.2583781
  45.0988356  26.0179400  69.4671330  42.7484836  19.4634904  66.8385972
  41.8869316  19.7616158  67.1302710  42.7747271  19.6805303  65.9067005
  39.5646406  28.0077095  63.2459778  40.0284751  28.2864798  62.4564400
  39.3003204  27.1060539  63.0632868  36.4570487  27.5548576  66.1839541
  37.0271844  27.9835845  65.5457026  37.0478599  27.2731161  66.8823727
  38.5015292  24.1300247  60.0549343  39.2039335  24.5821291  60.5223269
  38.1695920  23.4884066  60.6829236  36.9495653  22.7212004  74.4300552
  36.3194314  23.4028285  74.6635949  36.8431741  22.6095085  73.4853691
  32.2440626  22.3883800  65.3566477  31.4539680  22.6441328  64.8806587
  32.7351873  23.2032138  65.4618517  46.2604435  29.7289039  68.1071757
  47.0821879  29.3269226  67.8254439  46.2566838  29.6257273  69.0587873
  34.1955371  22.7528379  62.3149953  33.3986535  22.8647073  62.8333449
  33.9680964  23.0915031  61.4490844  40.0261039  29.2773082  70.2632468
  40.0905471  29.7393490  71.0990640  39.3171963  28.6470447  70.3914778
  30.5278329  22.6414290  67.7881467  30.7786367  23.5261300  68.0539043
  31.0637877  22.4618892  67.0156559  54.3510429  26.0727788  64.4556729
  53.5974137  25.5035186  64.3000733  54.4857970  26.0390452  65.4027364
  39.7409057  30.9441190  60.1311448  39.6054731  31.7892726  60.5596296
  40.2818869  31.1460468  59.3677382  36.2276396  17.0232770  76.7925803
  35.8343342  16.4698968  77.4673448  37.0442537  17.3343348  77.1832321
  33.1938454  28.4616628  60.7039373  33.7062975  29.2559878  60.8544938
  33.8461167  27.7642918  60.6372975  35.0033339  31.5782384  62.7862126
  35.1799967  32.5000349  62.5983110  35.7990172  31.2640803  63.2156506
  39.1444357  18.4390649  74.3846060  39.8854071  19.0397802  74.3050522
  39.3762280  17.6968287  73.8264103  34.2885695  23.6247016  72.6624290
  34.1739210  22.7232273  72.9631389  33.4330213  23.8710713  72.3109106
  41.3677533  31.5664756  74.2611790  40.9241387  30.7801135  73.9432695
  42.0294747  31.7543907  73.5955681  36.1264654  33.0960558  68.7872469
  36.6772079  32.9677621  68.0149463  35.2876130  33.3955447  68.4367362
  43.4658771  31.8467556  72.2893192  43.4477246  32.6676437  71.7973461
  44.3878691  31.7221632  72.5143333  39.9231825  29.3611686  73.1316700
  40.4560162  28.5999974  72.9016008  39.3945906  29.0685338  73.8740854
  43.0901520  14.4671752  68.6610342  42.7465790  15.3573393  68.5849452
  43.4580483  14.2773409  67.7979927  31.1587371  26.7905282  61.4798944
  31.9962593  27.2002291  61.2632652  31.3365638  25.8504724  61.4499138
  43.0551803  24.4580363  57.1682777  42.5398426  25.2284968  57.4071164
  42.7829111  23.7845499  57.7915838  40.6398914  19.3030064  62.2268015
  39.7840510  18.9136914  62.0473654  41.0525866  19.3822024  61.3667801
  42.1698061  16.8376407  66.6259575  41.6662856  16.8006542  65.8127380
  42.4628667  17.7469150  66.6856232  38.4140946  16.9215137  65.6325757
  39.2793943  16.7257945  65.2731646  38.4818455  16.6925488  66.5595113
  48.0286077  27.2112718  59.1035950  47.2515520  26.8723877  58.6591112
  48.7077558  27.2165341  58.4290915  42.8438106  22.3307455  58.9942558
  42.5388242  22.6453604  59.8452701  43.7968548  22.4088875  59.0369891
  41.2884538  28.4897678  60.6435512  40.7605899  27.7550438  60.3308749
  40.7872041  29.2672355  60.3975480  46.2677384  26.6846699  65.7602558
  45.6101058  27.3745960  65.8482687  47.0717783  27.0743131  66.1036545
  36.0203266  19.1517345  63.0042123  36.5947017  18.9292526  62.2715316
  36.6074248  19.2206039  63.7570725  45.0782843  25.0391071  63.8106500
  45.5914724  25.6721063  64.3128210  45.7284067  24.4392267  63.4449860
  36.3472853  21.1821806  57.0238009  35.5110165  21.5196492  57.3447283
  36.2077622  21.0470785  56.0865146  38.3225933  16.0258593  61.7317193
  37.6690346  15.7107611  61.1073808  38.2806407  15.4034334  62.4577016
  39.4337138  26.3077889  53.6470485  38.5264200  26.0767142  53.8461634
  39.9308170  25.5115508  53.8344466  42.3405217  35.0175396  56.5667171
  41.6666916  35.3207092  57.1752129  42.7271039  35.8204476  56.2172628
  41.5563674  22.5140527  66.0564840  40.6386235  22.7355474  65.8986529
  41.9723817  22.5886837  65.1976548  42.3398721  23.9131943  61.1867521
  43.0870540  24.4253340  60.8774643  42.6090311  23.5915995  62.0471914
  40.6125372  26.4090483  58.1694475  39.7036591  26.1249516  58.2666945
  40.6420455  26.8289562  57.3097782  45.8444639  30.0197073  61.9385643
  45.3906966  29.1787983  61.9950833  45.2138606  30.6558471  62.2760423
  44.7877558  20.9489059  63.1686310  44.0500315  20.4366445  63.4996553
  45.0404332  20.5089441  62.3569587  44.2877578  31.8573570  62.8735461
  44.5800553  32.4178627  62.1547826  44.7976199  32.1502131  63.6288620
  44.8889186  13.7265311  63.7628079  45.1948063  12.8662674  63.4753994
  45.6141791  14.3182931  63.5627073  31.1813542  24.1295998  62.1509677
  30.9837942  23.5365358  61.4260744  30.6260206  23.8248208  62.8685616
  39.1610266  24.0219104  64.2704270  39.2158875  23.0692940  64.1946747
  38.3501468  24.1778543  64.7545569  40.3101459  27.9499227  55.5082554
  39.8720889  27.2335086  55.0488191  41.0511900  28.1775342  54.9467645
  37.1002625  22.6396164  62.0294649  36.2870491  22.9390334  62.4359841
  37.5961620  22.2451853  62.7469131  39.2511203  32.6353921  63.9628914
  39.2087382  32.8614767  63.0337446  40.1673902  32.4017295  64.1114715
  42.6976837  23.1037988  70.8609543  43.0526225  23.3309461  71.7204009
  43.3448968  23.4356365  70.2386798  48.4274574  26.2256424  61.5658872
  48.2892473  26.4158020  60.6380061  48.0710793  26.9875807  62.0226923
  36.5916700  20.2114519  67.6455884  37.2316080  20.0703278  66.9478848
  35.7594231  19.9249033  67.2694486  48.4543954  28.2932951  66.5770144
  48.8880460  28.2008240  67.4253198  49.1675534  28.2690452  65.9390160
  37.3677004  29.5116950  63.7590877  38.1617603  29.0167270  63.5573452
  36.6568697  28.9834813  63.3958582  42.1871849  31.8935045  68.1103244
  42.2408871  32.4625982  68.8780960  41.3186630  32.0636930  67.7457281
  33.6759768  23.6560031  59.8350629  32.7457356  23.5944487  60.0520591
  33.7717240  23.1335984  59.0387271  33.5945317  20.1814844  62.4228871
  33.8552134  21.0960178  62.3138031  34.4162489  19.7139287  62.5725484
  35.0670242  21.5952601  69.5927696  35.7393295  21.3869964  68.9440344
  34.2400029  21.3974687  69.1532928  49.3159503  28.3356652  69.1103029
  49.5095393  29.2402462  69.3562304  49.2160121  27.8764071  69.9441614
  40.9695814  18.2214542  71.6093356  40.3223729  18.9204492  71.5157833
  41.7396829  18.6550686  71.9769605  44.3774612  28.4863395  74.6843910
  44.2260118  28.2573946  73.7673993  44.3679291  29.4433996  74.6975255
  41.1459948  26.0595307  69.6690176  42.0752008  26.2106467  69.4959143
  40.7250978  26.1479328  68.8138823  39.9448280  30.0845972  67.4388714
  39.8059366  29.7164756  68.3114652  39.1562876  30.5993611  67.2672672
  40.5396432  35.1855068  58.7814250  40.7148188  34.7143111  59.5959873
  39.8529220  35.8120834  59.0095511  41.4953495  29.4627574  64.8277552
  41.1603328  29.4228344  65.7235201  40.9957441  28.7972290  64.3547962
  35.4697739  24.8695204  70.3530133  35.3317537  24.1375443  70.9541672
  36.3802663  24.7804105  70.0714320  44.4312687  26.8083609  55.1014611
  43.8141858  26.0830437  55.0047664  43.9629175  27.5692969  54.7581685
  38.0980040  24.5815164  69.8413812  38.8079658  23.9408356  69.8000431
  38.0549348  24.8328059  70.7639993  46.0866819  31.5182517  72.7620392
  46.0279365  30.8341737  72.0950975  46.4886337  32.2601507  72.3101018
  36.8108974  21.5680382  71.6609452  36.2746331  21.1171120  72.3131048
  36.2225682  21.7026290  70.9179916  35.1057517  38.3344431  65.5554110
  35.3454116  38.9662955  66.2333129  34.2626714  37.9832471  65.8419470
  36.2211233  21.0269033  54.2235915  35.3440699  20.9057834  53.8598162
  36.6968986  20.2355111  53.9714804  46.0884226  29.4822101  70.9934371
  45.2011005  29.1448023  71.1160770  46.6582777  28.7505132  71.2303137
  27.7413373  25.8146193  64.3177423  28.4284413  25.5007923  63.7298438
  27.5861502  26.7187557  64.0444674  32.5448095  20.7036389  68.7462446
  32.4606284  20.0962059  68.0112856  31.7230802  21.1945408  68.7471943
  39.6185379  34.1423553  67.9595614  39.5455551  34.9478525  68.4714919
  39.1762772  34.3415519  67.1343636  39.4075159  33.3795323  61.4698436
  38.6242681  33.9217004  61.5636660  40.1067904  33.8969303  61.8692677
  42.7171809  19.1889953  64.1132641  43.2140509  18.4359915  63.7933712
  41.9458790  19.2254270  63.5475851  50.5701566  24.8930318  65.7550933
  50.5591443  25.7755034  65.3844866  49.7018946  24.5401869  65.5605470
  42.0784063  34.0410387  70.1153773  42.7912035  34.6757852  70.0429675
  41.5874091  34.1374253  69.2993775  43.8001590  27.9461640  61.6871065
  42.8657868  28.0663103  61.5175769  43.9778258  27.0434107  61.4231075
  39.3006778  21.3307336  63.8404326  38.9304565  20.7778376  64.5285232
  39.7965870  20.7265469  63.2879326  47.1874141  23.7878959  62.2221099
  47.6534593  24.6206951  62.1481402  47.6381642  23.3223941  62.9266357
  37.1295976  31.7904831  70.9359344  37.8305436  32.4241314  71.0888738
  36.6591091  32.1319562  70.1754983  45.2550372  30.1322781  59.2207251
  45.5310216  30.0179375  60.1301125  44.3854871  29.7340266  59.1819424
  45.1590804  16.1559546  66.2612000  44.2453884  16.3863773  66.4294207
  45.5883905  16.2397990  67.1126033  44.9297262  24.3449438  68.7611894
  44.2768713  24.5925346  68.1064347  45.3077642  23.5313577  68.4274372
  41.8904436  34.3809131  62.8640065  42.0726831  33.5630787  63.3267817
  42.7137422  34.5976824  62.4264955  42.2246602  33.3077317  60.1255113
  42.7534368  32.7969771  59.5125275  42.4874821  32.9919847  60.9900646
  40.9784835  25.0869249  75.2477931  40.3025472  24.9863379  75.9180307
  41.8012469  24.9308463  75.7113929  32.7263694  31.3241186  67.8690447
  33.3117131  30.5784874  68.0018351  32.5288533  31.6345143  68.7527110
  35.5802350  34.3592433  62.8852889  34.9112725  34.8438561  62.4016929
  35.4415219  34.6061654  63.7996268  27.3181349  23.8946786  66.5894890
  27.3565449  23.3610377  67.3832008  26.8121642  23.3681992  65.9705867
  39.7207618  36.3936177  69.4835547  40.2725926  36.5567798  70.2484633
  40.0613812  36.9840615  68.8115572  34.6972111  18.7411327  70.0857432
  34.7613438  19.6026158  69.6734830  34.6339232  18.1285328  69.3529791
  34.1724384  20.8134459  73.7330466  34.7996423  20.4311536  74.3467991
  33.3152303  20.5948661  74.0986159  30.9489927  22.6210888  59.6648821
  31.2443368  21.7121567  59.6115875  30.0477962  22.5998628  59.3429823
  42.8576005  34.3418152  66.4699230  42.7327145  33.5407892  65.9610175
  43.5155097  34.8364346  65.9813199  34.4784174  20.6966885  65.6476370
  33.7570759  21.3102853  65.5083843  35.2677429  21.2324650  65.5693016
  44.9210914  32.1427172  68.0978780  43.9741249  32.0232524  68.0257106
  45.2693687  31.2549670  68.1805041  37.2810487  18.0321311  71.9217021
  37.8044889  18.2783608  72.6843331  37.0622820  18.8641346  71.5020159
  32.6777768  20.3024986  59.7888146  32.3490474  19.4222365  59.6063252
  33.0317139  20.2472655  60.6764536  41.9257347  31.9379889  64.2983132
  41.7782310  31.0096596  64.4790702  42.7510841  31.9599979  63.8140207
  35.7919591  20.5897956  60.1563624  36.1315664  21.1183877  59.4342232
  36.2391712  20.9278362  60.9322191  45.5291469  32.7608447  65.3848005
  46.4538016  32.5551309  65.2472456  45.3606772  32.5124849  66.2937346
  38.4863032  18.9735006  69.6066692  38.1459853  18.1742820  70.0087372
  37.7802039  19.2736717  69.0343525  39.1379504  16.0584319  68.0594015
  39.9605573  15.5844797  67.9372905  39.3817568  16.8374803  68.5592701
  37.7787739  19.0872577  58.3556917  38.4996101  19.4653830  57.8520634
  37.1553043  19.8061454  58.4591895  41.9218861  19.7917726  59.2915249
  42.1382476  20.6742364  58.9904077  41.4412929  19.4003940  58.5620891
  36.6618083  22.7503440  65.8685994  36.5162664  23.0643743  66.7610275
  36.1843286  23.3688340  65.3156892  38.5214466  19.7405988  65.9166883
  38.5076034  18.8447081  65.5799181  39.2386894  19.7476651  66.5505169
  40.3740596  20.1743328  67.9620011  40.1158374  21.0960398  67.9604341
  39.8425637  19.7773762  68.6520475  45.3186785  33.2794115  60.7410096
  45.4923663  32.7140537  59.9883948  45.8115676  34.0795010  60.5589586
  31.1363745  25.2908784  68.8073655  30.5917213  26.0668592  68.9393929
  32.0143095  25.6379588  68.6492776  37.9251362  18.6220368  61.1854453
  38.0467273  17.6937014  61.3845341  37.6353404  18.6359054  60.2732769
  40.7942552  16.3075278  64.3221173  40.8164249  16.3714611  63.3673153
  41.2110611  15.4679787  64.5161679  51.1726176  26.0430538  62.3600396
  51.6157322  25.2937863  61.9619519  50.2952687  26.0340674  61.9774128
  46.3061958  32.5960879  57.8406994  47.0012862  33.2167572  58.0594309
  46.6485108  31.7456230  58.1159372  31.9229767  24.4178680  71.7003812
  31.1811503  24.5661316  72.2868442  31.6022511  24.6786946  70.8370561
  48.2053381  30.0460585  59.3694325  48.7304705  30.3847858  58.6443645
  48.1175733  29.1107600  59.1857460  39.8673429  33.9594658  71.4984202
  40.1760556  33.7143805  72.3706901  40.6648912  34.1641297  71.0103072
  39.8894042  36.1132568  63.7289578  39.4499032  35.6208947  64.4222435
  40.6402158  35.5705536  63.4881653  32.3686381  32.3044109  63.7314206
  33.1944400  32.0047881  63.3512850  32.0180433  31.5351731  64.1803995
  37.3367914  31.6570577  65.8011880  36.7147923  30.9941282  65.5014108
  38.0072781  31.6831709  65.1185528  30.5694986  30.2230435  64.6903140
  29.7326894  29.7952610  64.5087141  30.5418631  30.4162879  65.6273931
  37.4092441  20.1352365  75.3944386  37.4580597  21.0114488  75.0122156
  37.9514955  19.5929758  74.8216029  47.8947287  30.6793488  74.6745523
  47.1042831  30.6617627  74.1350022  47.6580641  31.2181782  75.4294560
  48.0145162  27.5285955  71.9878252  48.0643167  27.3635962  72.9293774
  47.9059085  26.6613214  71.5976132  36.8981421  30.2074500  59.2770340
  37.0469541  30.8909965  58.6237013  37.7047864  30.1879591  59.7919796
  45.3048924  23.5116883  73.3037558  46.2058787  23.3723348  73.0121556
  45.3796899  23.6771338  74.2435736  39.6391730  20.8883738  72.1490745
  38.7695039  21.1817304  71.8773333  39.8751210  21.4724183  72.8698008
  49.5163359  29.9482896  72.2320273  49.2248167  30.3112877  73.0683734
  48.9035490  29.2349905  72.0533605  50.7159041  27.5135776  64.7522843
  51.5505932  27.9525580  64.9160404  50.8518170  27.0374429  63.9331089
  47.7650547  25.0715511  70.7000331  48.2404669  25.2643157  69.8919182
  46.8416112  25.1274697  70.4543715  34.6534054  26.2339678  60.2831409
  34.4080096  25.3302008  60.4811620  34.8229968  26.2356829  59.3410887
  42.3430763  17.1063354  69.6656165  42.8612707  17.8424381  69.3402654
  41.9885896  17.4127348  70.5002924  33.9229701  21.9668036  57.7817571
  33.2298946  22.0412391  57.1257607  33.6781453  21.2028379  58.3039088
  42.5943358  13.5263637  65.1857062  42.8745111  12.8586826  65.8117488
  43.3793965  13.7192733  64.6731725  40.3976826  32.7022631  56.7482088
  39.8250793  33.3212818  56.2952560  40.9709620  33.2521993  57.2822010
  46.4652216  21.9481271  68.9328637  47.4169639  22.0479369  68.9540861
  46.2955666  21.1559540  69.4426721  44.4866595  19.0336854  69.1188038
  43.8916528  19.3141867  68.4234526  44.2016292  19.5230755  69.8904779
  43.6174086  32.9859781  57.8790670  44.5504759  32.9205343  58.0823546
  43.5297299  33.8216048  57.4205203  46.2462103  32.3025651  54.8394618
  46.1675734  31.9685515  55.7330376  47.0671769  32.7947419  54.8386090
  48.9440294  25.1687391  68.0470936  48.9116614  24.2303391  68.2330620
  49.5540917  25.2471427  67.3136761  40.7823625  24.0383444  54.0898140
  41.7282729  23.9089652  54.1586558  40.4037870  23.2998106  54.5667569
  49.0934782  21.9598434  68.0929220  48.5773831  21.1756891  67.9059148
  49.9774731  21.6317151  68.2575739  46.7545509  15.7039450  64.0525032
  46.5570330  15.3954538  64.9368364  47.3645215  16.4301089  64.1822962
  54.7616844  26.2303398  67.1876973  55.4920232  25.9688686  67.7484676
  54.1523789  25.4932119  67.2279041  52.8432141  24.3711260  67.7851424
  52.1165304  24.2367225  67.1767916  52.4279428  24.6788089  68.5908142
  40.6662317  28.0901190  75.5498797  41.5865327  28.2679789  75.7438844
  40.6311900  27.1457235  75.3978497  38.9666542  21.9633420  54.0253026
  38.0597997  21.6666533  54.1015739  39.2442523  21.6663238  53.1587312
  29.8844482  23.2839783  64.4752072  29.5647267  22.4305092  64.1826446
  29.3377910  23.4988362  65.2310039  33.6624390  26.0002224  68.1921579
  33.8810399  26.9319332  68.2109612  34.0750164  25.6410199  68.9776382
  40.5828608  16.5070310  60.1797267  39.7729336  16.1617395  60.5552513
  41.2713024  16.1977854  60.7684878  42.5119156  15.5848357  61.8021564
  43.0650194  16.0043810  62.4611587  42.7489242  14.6584105  61.8444520
  38.5352255  21.5735430  77.5824327  38.4348982  22.5229787  77.5136419
  38.3173797  21.2453669  76.7100398  37.7365326  18.8220355  54.1665005
  38.5984490  19.1475254  54.4260822  37.9215671  18.0351851  53.6538071
  29.7532742  26.9042695  66.4445194  29.0596214  26.4896648  65.9315148
  30.5005733  26.9463231  65.8478613  45.8897963  17.6948882  61.3100228
  45.3096632  18.3533686  60.9278280  45.6233896  16.8726226  60.8987645
  44.3401529  17.0953939  63.5121548  44.8401308  17.2070474  62.7035867
  44.9837137  16.7914992  64.1522357  38.3983525  25.0032569  76.3989389
  37.9150607  25.8032929  76.6053278  38.4844464  25.0140514  75.4456833
  31.6669485  26.8360949  64.3211208  31.6440173  26.9348636  63.3693092
  31.9770121  27.6826100  64.6428375  34.3256863  28.8937104  68.4357823
  35.2800116  28.8621046  68.3687754  34.1269386  28.4327728  69.2508049
  34.9156245  27.4638220  71.0028621  35.7349134  27.9582298  71.0263458
  35.1893052  26.5470188  70.9746188  44.6722841  19.8548972  60.3656576
  43.7848696  20.1398623  60.1476771  45.0876830  19.6942735  59.5183853
  48.0237377  19.8795493  64.0810915  48.7997767  20.3691946  64.3535532
  47.2985511  20.3053547  64.5382785  50.4609936  20.5923112  65.1384856
  51.0554426  20.3518848  64.4278164  50.5336519  19.8730243  65.7658392
  32.6807091  34.4356723  65.4528021  32.5461559  33.6757124  64.8866019
  32.2639154  35.1597623  64.9856810  43.8166054  29.6193647  54.4604596
  44.5201904  29.8243649  55.0762252  43.0928703  30.1870409  54.7253680
  44.6463865  25.3703508  60.5806866  44.5899066  25.8272059  59.7414499
  45.1992207  24.6094193  60.4029709  48.4568671  21.1593240  61.4056986
  48.2005605  20.7589876  62.2365193  47.8321539  21.8737034  61.2807125
  52.7681008  23.8989313  63.9128277  52.2080566  23.9682502  64.6859839
  52.1624512  23.7230298  63.1927773  35.8376217  35.3326040  65.6646463
  35.7208601  36.2771473  65.5625154  35.0168664  35.0299602  66.0532263
  45.7252752  30.0576176  56.5103056  46.5598356  29.6257374  56.3280531
  45.5637095  29.8858190  57.4379951  45.3798644  26.5608289  57.8759395
  45.3247448  26.3952561  56.9347840  44.7544699  27.2684322  58.0321585
  30.1691159  21.7976354  71.7020818  30.8150023  21.2875308  72.1908043
  29.9608310  22.5345035  72.2764243  42.6944551  28.8657201  77.2012958
  43.5635711  29.0397853  76.8399593  42.2151303  29.6851618  77.0788688
  38.6894769  16.0616398  57.4544714  38.6773439  17.0058238  57.6112985
  39.5818191  15.8786544  57.1604175  36.8630731  35.9854302  68.8802392
  37.7657978  36.0177912  69.1968887  36.6368101  35.0554753  68.8948728
  38.6184333  34.7385289  65.5412470  37.6679964  34.7387150  65.4276843
  38.9216820  33.9918023  65.0248505  42.5046889  12.6559175  61.7090651
  41.7379285  12.1017662  61.8547333  42.9157594  12.7281044  62.5704802
  34.5088650  18.9443971  75.7995832  35.3720111  18.5880776  76.0099156
  33.9354061  18.6057866  76.4871236  54.3537027  40.5745827  66.6058233
  54.9915437  40.4552574  65.9021573  54.2357870  41.5226671  66.6646185
  51.1626733  40.5273255  66.5419758  50.8245245  40.4114320  65.6540292
  52.0316501  40.1264420  66.5220764  47.0213549  42.3808732  62.5316648
  46.4578414  42.2898669  61.7632936  46.9065944  41.5608636  63.0119141
  51.6446516  41.6808107  72.5005963  51.6335157  41.2860905  71.6286467
  51.8067156  40.9474180  73.0939735  44.5677981  43.8759923  65.3700869
  45.3599273  43.5350748  64.9547168  44.8074631  43.9854898  66.2903022
  52.6013108  46.0479699  57.8431113  51.9501087  46.6333780  57.4565127
  53.3957470  46.5785894  57.9026151  46.5268735  43.1368836  58.2418248
  47.2999611  42.5897824  58.1031124  46.8794134  44.0013086  58.4532709
  48.3653777  44.4645219  71.4485147  48.0743643  45.3690850  71.3331813
  49.0010762  44.5061746  72.1629217  49.2909984  41.8422067  68.0386507
  49.8873556  41.6178090  67.3243470  49.3484956  41.1006813  68.6411955
  48.8635013  39.2961503  55.8736698  49.1160533  38.7743024  55.1120161
  47.9259572  39.1327648  55.9763381  53.9078295  38.2997281  63.6811441
  54.6941385  37.8816704  63.3301858  54.1717000  39.2043373  63.8493089
  54.0788373  43.7370131  58.3800098  53.4434206  43.8104758  59.0921002
  53.7485779  44.3263730  57.7019177  59.3086722  38.2372514  64.5844419
  60.0411894  37.6671731  64.8182249  58.5526078  37.8494115  65.0250925
  48.5831301  41.1989609  58.0761073  48.4667559  40.5234512  58.7442157
  48.6933561  40.7121982  57.2593226  50.9262842  40.6599756  61.7807762
  50.5621049  40.1330377  62.4920683  51.7829958  40.2698225  61.6074247
  56.8312143  31.9494088  69.0439028  56.4995468  32.8189499  68.8200243
  56.2357756  31.6330372  69.7233058  50.5668329  35.6889655  56.7769110
  50.7342732  36.5569892  57.1439581  50.3765498  35.8516937  55.8530400
  53.3243662  44.1506634  68.4434941  53.0244385  45.0531673  68.3350748
  52.9794722  43.8838817  69.2956094  46.7756144  40.6020431  64.4771645
  45.8506640  40.4696645  64.6849337  47.0240557  41.3814650  64.9741588
  56.7240806  36.6689174  66.1232378  55.8157683  36.6004583  65.8291139
  56.6728402  37.1461119  66.9514204  50.5457550  38.1447313  57.7615777
  50.4257175  38.5904364  58.6001257  49.8510138  38.4932631  57.2029315
  44.1364955  40.2453705  65.3115434  44.2657336  40.4988184  66.2254846
  43.4562406  40.8381413  64.9920089  48.3064442  50.9150955  61.4105908
  48.2288472  51.8658780  61.4894389  47.7026086  50.5696827  62.0680835
  50.7981672  38.0878820  74.0667275  50.0215006  38.6472740  74.0570140
  51.4372235  38.5735603  74.5882145  58.5902453  34.8705613  67.9010252
  57.9476833  35.1638146  67.2550047  58.0857381  34.7558533  68.7063449
  56.2442616  38.6168786  58.5896111  57.1560472  38.8496173  58.4143809
  55.7352263  39.2005830  58.0271190  49.0528044  40.8964273  73.6285242
  49.7942729  41.4349317  73.3520066  48.3465030  41.5230562  73.7856794
  54.5283384  43.0393414  72.2257404  54.9366740  42.5975824  71.4812036
  53.8060645  42.4646041  72.4791597  50.8814454  37.9766021  69.5990961
  51.7275649  38.4005434  69.7425610  50.8213092  37.3199645  70.2929524
  54.8512199  43.5994604  65.9809693  54.2221061  43.7640319  65.2785761
  54.4637861  44.0136214  66.7520657  58.7301430  44.5349042  63.3354056
  58.0452469  44.9147944  62.7851090  58.8145280  45.1444369  64.0686004
  54.0313899  35.6370389  71.2572134  53.7874831  36.3912450  70.7206410
  54.3073830  36.0155737  72.0919381  55.9852362  42.1809001  69.9349400
  56.1969257  42.8240761  69.2583781  55.9382110  41.3471318  69.4671330
  53.5878591  34.7926822  66.8385972  52.7263070  35.0908076  67.1302710
  53.6141026  35.0097221  65.9067005  50.4040160  43.3369013  63.2459778
  50.8678506  43.6156716  62.4564400  50.1396959  42.4352457  63.0632868
  47.2964241  42.8840494  66.1839541  47.8665599  43.3127762  65.5457026
  47.8872353  42.6023079  66.8823727  49.3409046  39.4592165  60.0549343
  50.0433090  39.9113209  60.5223269  49.0089675  38.8175984  60.6829236
  47.7889408  38.0503922  74.4300552  47.1588069  38.7320202  74.6635949
  47.6825496  37.9387003  73.4853691  43.0834380  37.7175718  65.3566477
  42.2933434  37.9733246  64.8806587  43.5745628  38.5324055  65.4618517
  57.0998190  45.0580957  68.1071757  57.9215634  44.6561144  67.8254439
  57.0960593  44.9549191  69.0587873  45.0349126  38.0820297  62.3149953
  44.2380289  38.1938991  62.8333449  44.8074718  38.4206949  61.4490844
  50.8654793  44.6065000  70.2632468  50.9299226  45.0685407  71.0990640
  50.1565717  43.9762365  70.3914778  41.3672083  37.9706208  67.7881467
  41.6180122  38.8553218  68.0539043  41.9031632  37.7910810  67.0156559
  65.1904183  41.4019705  64.4556729  64.4367891  40.8327103  64.3000733
  65.3251724  41.3682370  65.4027364  50.5802811  46.2733108  60.1311448
  50.4448486  47.1184643  60.5596296  51.1212624  46.4752385  59.3677382
  44.0332208  43.7908546  60.7039373  44.5456729  44.5851796  60.8544938
  44.6854921  43.0934836  60.6372975  45.8427093  46.9074302  62.7862126
  46.0193722  47.8292267  62.5983110  46.6383927  46.5932721  63.2156506
  49.9838112  33.7682567  74.3846060  50.7247825  34.3689720  74.3050522
  50.2156035  33.0260204  73.8264103  45.1279450  38.9538934  72.6624290
  45.0132965  38.0524191  72.9631389  44.2723967  39.2002631  72.3109106
  46.9658409  48.4252476  68.7872469  47.5165834  48.2969539  68.0149463
  46.1269885  48.7247365  68.4367362  54.3052526  47.1759474  72.2893192
  54.2871001  47.9968355  71.7973461  55.2272446  47.0513549  72.5143333
  53.9295275  29.7963669  68.6610342  53.5859544  30.6865311  68.5849452
  54.2974237  29.6065327  67.7979927  41.9981125  42.1197200  61.4798944
  42.8356347  42.5294208  61.2632652  42.1759393  41.1796642  61.4499138
  53.8945557  39.7872281  57.1682777  53.3792181  40.5576885  57.4071164
  53.6222866  39.1137417  57.7915838  51.4792668  34.6321981  62.2268015
  50.6234265  34.2428832  62.0473654  51.8919620  34.7113942  61.3667801
  53.0091815  32.1668325  66.6259575  52.5056611  32.1298460  65.8127380
  53.3022422  33.0761067  66.6856232  49.2534701  32.2507054  65.6325757
  50.1187698  32.0549863  65.2731646  49.3212210  32.0217406  66.5595113
  58.8679831  42.5404635  59.1035950  58.0909274  42.2015795  58.6591112
  59.5471312  42.5457258  58.4290915  53.6831861  37.6599373  58.9942558
  53.3781996  37.9745522  59.8452701  54.6362303  37.7380793  59.0369891
  52.1278292  43.8189596  60.6435512  51.5999654  43.0842356  60.3308749
  51.6265795  44.5964272  60.3975480  57.1071138  42.0138616  65.7602558
  56.4494813  42.7037878  65.8482687  57.9111538  42.4035048  66.1036545
  46.8597020  34.4809262  63.0042123  47.4340772  34.2584444  62.2715316
  47.4468002  34.5497957  63.7570725  55.9176597  40.3682989  63.8106500
  56.4308479  41.0012981  64.3128210  56.5677821  39.7684185  63.4449860
  47.1866607  36.5113723  57.0238009  46.3503919  36.8488410  57.3447283
  47.0471377  36.3762703  56.0865146  49.1619688  31.3550511  61.7317193
  48.5084100  31.0399528  61.1073808  49.1200162  30.7326252  62.4577016
  50.2730893  41.6369806  53.6470485  49.3657954  41.4059060  53.8461634
  50.7701925  40.8407425  53.8344466  53.1798971  50.3467313  56.5667171
  52.5060670  50.6499010  57.1752129  53.5664793  51.1496394  56.2172628
  52.3957428  37.8432445  66.0564840  51.4779989  38.0647392  65.8986529
  52.8117572  37.9178755  65.1976548  53.1792476  39.2423860  61.1867521
  53.9264295  39.7545258  60.8774643  53.4484065  38.9207913  62.0471914
  51.4519126  41.7382401  58.1694475  50.5430345  41.4541434  58.2666945
  51.4814210  42.1581480  57.3097782  56.6838393  45.3488991  61.9385643
  56.2300721  44.5079900  61.9950833  56.0532360  45.9850389  62.2760423
  55.6271313  36.2780977  63.1686310  54.8894070  35.7658363  63.4996553
  55.8798087  35.8381358  62.3569587  55.1271333  47.1865487  62.8735461
  55.4194307  47.7470544  62.1547826  55.6369953  47.4794048  63.6288620
  55.7282940  29.0557229  63.7628079  56.0341817  28.1954592  63.4753994
  56.4535545  29.6474849  63.5627073  42.0207296  39.4587915  62.1509677
  41.8231696  38.8657276  61.4260744  41.4653960  39.1540125  62.8685616
  50.0004020  39.3511022  64.2704270  50.0552630  38.3984858  64.1946747
  49.1895222  39.5070461  64.7545569  51.1495214  43.2791145  55.5082554
  50.7114644  42.5627004  55.0488191  51.8905655  43.5067260  54.9467645
  47.9396380  37.9688081  62.0294649  47.1264245  38.2682252  62.4359841
  48.4355374  37.5743770  62.7469131  50.0904958  47.9645838  63.9628914
  50.0481137  48.1906685  63.0337446  51.0067657  47.7309213  64.1114715
  53.5370592  38.4329906  70.8609543  53.8919979  38.6601379  71.7204009
  54.1842723  38.7648283  70.2386798  59.2668329  41.5548342  61.5658872
  59.1286227  41.7449938  60.6380061  58.9104547  42.3167725  62.0226923
  47.4310455  35.5406437  67.6455884  48.0709834  35.3995196  66.9478848
  46.5987985  35.2540950  67.2694486  59.2937708  43.6224869  66.5770144
  59.7274215  43.5300158  67.4253198  60.0069289  43.5982369  65.9390160
  48.2070759  44.8408867  63.7590877  49.0011357  44.3459188  63.5573452
  47.4962451  44.3126731  63.3958582  53.0265603  47.2226963  68.1103244
  53.0802625  47.7917899  68.8780960  52.1580384  47.3928848  67.7457281
  44.5153522  38.9851949  59.8350629  43.5851110  38.9236405  60.0520591
  44.6110994  38.4627902  59.0387271  44.4339071  35.5106762  62.4228871
  44.6945888  36.4252095  62.3138031  45.2556243  35.0431205  62.5725484
  45.9063996  36.9244519  69.5927696  46.5787050  36.7161881  68.9440344
  45.0793783  36.7266605  69.1532928  60.1553258  43.6648569  69.1103029
  60.3489148  44.5694380  69.3562304  60.0553876  43.2055989  69.9441614
  51.8089568  33.5506460  71.6093356  51.1617484  34.2496410  71.5157833
  52.5790584  33.9842604  71.9769605  55.2168366  43.8155312  74.6843910
  55.0653873  43.5865864  73.7673993  55.2073046  44.7725914  74.6975255
  51.9853703  41.3887225  69.6690176  52.9145763  41.5398385  69.4959143
  51.5644733  41.4771246  68.8138823  50.7842035  45.4137889  67.4388714
  50.6453120  45.0456674  68.3114652  49.9956631  45.9285529  67.2672672
  51.3790187  50.5146986  58.7814250  51.5541942  50.0435029  59.5959873
  50.6922975  51.1412752  59.0095511  52.3347250  44.7919492  64.8277552
  51.9997082  44.7520262  65.7235201  51.8351195  44.1264208  64.3547962
  46.3091494  40.1987122  70.3530133  46.1711292  39.4667361  70.9541672
  47.2196417  40.1096022  70.0714320  55.2706441  42.1375526  55.1014611
  54.6535612  41.4122355  55.0047664  54.8022930  42.8984887  54.7581685
  48.9373794  39.9107081  69.8413812  49.6473413  39.2700274  69.8000431
  48.8943103  40.1619976  70.7639993  56.9260573  46.8474435  72.7620392
  56.8673119  46.1633655  72.0950975  57.3280091  47.5893425  72.3101018
  47.6502728  36.8972299  71.6609452  47.1140085  36.4463038  72.3131048
  47.0619437  37.0318208  70.9179916  45.9451272  53.6636349  65.5554110
  46.1847870  54.2954873  66.2333129  45.1020468  53.3124389  65.8419470
  47.0604987  36.3560951  54.2235915  46.1834454  36.2349751  53.8598162
  47.5362740  35.5647029  53.9714804  56.9277980  44.8114019  70.9934371
  56.0404759  44.4739940  71.1160770  57.4976531  44.0797050  71.2303137
  38.5807127  41.1438110  64.3177423  39.2678167  40.8299840  63.7298438
  38.4255256  42.0479475  64.0444674  43.3841850  36.0328307  68.7462446
  43.3000038  35.4253977  68.0112856  42.5624556  36.5237325  68.7471943
  50.4579134  49.4715471  67.9595614  50.3849305  50.2770443  68.4714919
  50.0156527  49.6707437  67.1343636  50.2468913  48.7087241  61.4698436
  49.4636435  49.2508921  61.5636660  50.9461659  49.2261221  61.8692677
  53.5565563  34.5181871  64.1132641  54.0534263  33.7651833  63.7933712
  52.7852545  34.5546187  63.5475851  61.4095321  40.2222236  65.7550933
  61.3985197  41.1046951  65.3844866  60.5412700  39.8693787  65.5605470
  52.9177817  49.3702305  70.1153773  53.6305789  50.0049770  70.0429675
  52.4267846  49.4666171  69.2993775  54.6395344  43.2753558  61.6871065
  53.7051623  43.3955020  61.5175769  54.8172013  42.3726025  61.4231075
  50.1400532  36.6599254  63.8404326  49.7698320  36.1070294  64.5285232
  50.6359625  36.0557387  63.2879326  58.0267896  39.1170877  62.2221099
  58.4928348  39.9498869  62.1481402  58.4775396  38.6515859  62.9266357
  47.9689731  47.1196749  70.9359344  48.6699190  47.7533232  71.0888738
  47.4984846  47.4611480  70.1754983  56.0944127  45.4614698  59.2207251
  56.3703971  45.3471293  60.1301125  55.2248625  45.0632183  59.1819424
  55.9984558  31.4851464  66.2612000  55.0847638  31.7155691  66.4294207
  56.4277660  31.5689908  67.1126033  55.7691017  39.6741356  68.7611894
  55.1162467  39.9217263  68.1064347  56.1471397  38.8605494  68.4274372
  52.7298191  49.7101049  62.8640065  52.9120585  48.8922705  63.3267817
  53.5531177  49.9268741  62.4264955  53.0640356  48.6369234  60.1255113
  53.5928123  48.1261689  59.5125275  53.3268576  48.3211765  60.9900646
  51.8178590  40.4161167  75.2477931  51.1419227  40.3155296  75.9180307
  52.6406224  40.2600381  75.7113929  43.5657449  46.6533104  67.8690447
  44.1510886  45.9076791  68.0018351  43.3682287  46.9637060  68.7527110
  46.4196104  49.6884351  62.8852889  45.7506479  50.1730479  62.4016929
  46.2808974  49.9353571  63.7996268  38.1575104  39.2238704  66.5894890
  38.1959203  38.6902294  67.3832008  37.6515396  38.6973909  65.9705867
  50.5601373  51.7228095  69.4835547  51.1119681  51.8859716  70.2484633
  50.9007566  52.3132532  68.8115572  45.5365866  34.0703244  70.0857432
  45.6007192  34.9318075  69.6734830  45.4732986  33.4577246  69.3529791
  45.0118138  36.1426377  73.7330466  45.6390177  35.7603454  74.3467991
  44.1546057  35.9240579  74.0986159  41.7883681  37.9502806  59.6648821
  42.0837122  37.0413484  59.6115875  40.8871717  37.9290545  59.3429823
  53.6969760  49.6710070  66.4699230  53.5720899  48.8699810  65.9610175
  54.3548851  50.1656263  65.9813199  45.3177928  36.0258803  65.6476370
  44.5964514  36.6394770  65.5083843  46.1071184  36.5616567  65.5693016
  55.7604668  47.4719090  68.0978780  54.8135004  47.3524441  68.0257106
  56.1087441  46.5841588  68.1805041  48.1204242  33.3613229  71.9217021
  48.6438644  33.6075526  72.6843331  47.9016575  34.1933264  71.5020159
  43.5171523  35.6316904  59.7888146  43.1884229  34.7514283  59.6063252
  43.8710893  35.5764572  60.6764536  52.7651102  47.2671806  64.2983132
  52.6176064  46.3388514  64.4790702  53.5904595  47.2891897  63.8140207
  46.6313346  35.9189873  60.1563624  46.9709418  36.4475795  59.4342232
  47.0785466  36.2570280  60.9322191  56.3685223  48.0900365  65.3848005
  57.2931771  47.8843226  65.2472456  56.2000527  47.8416766  66.2937346
  49.3256787  34.3026924  69.6066692  48.9853607  33.5034737  70.0087372
  48.6195793  34.6028635  69.0343525  49.9773259  31.3876237  68.0594015
  50.7999328  30.9136715  67.9372905  50.2211322  32.1666720  68.5592701
  48.6181493  34.4164495  58.3556917  49.3389856  34.7945748  57.8520634
  47.9946797  35.1353372  58.4591895  52.7612616  35.1209644  59.2915249
  52.9776230  36.0034282  58.9904077  52.2806683  34.7295857  58.5620891
  47.5011837  38.0795357  65.8685994  47.3556418  38.3935660  66.7610275
  47.0237041  38.6980258  65.3156892  49.3608220  35.0697905  65.9166883
  49.3469789  34.1738998  65.5799181  50.0780648  35.0768569  66.5505169
  51.2134351  35.5035245  67.9620011  50.9552129  36.4252316  67.9604341
  50.6819391  35.1065680  68.6520475  56.1580540  48.6086033  60.7410096
  56.3317417  48.0432455  59.9883948  56.6509431  49.4086927  60.5589586
  41.9757499  40.6200702  68.8073655  41.4310968  41.3960510  68.9393929
  42.8536849  40.9671506  68.6492776  48.7645116  33.9512285  61.1854453
  48.8861027  33.0228932  61.3845341  48.4747159  33.9650971  60.2732769
  51.6336307  31.6367196  64.3221173  51.6558003  31.7006529  63.3673153
  52.0504366  30.7971705  64.5161679  62.0119931  41.3722455  62.3600396
  62.4551077  40.6229781  61.9619519  61.1346441  41.3632592  61.9774128
  57.1455712  47.9252797  57.8406994  57.8406617  48.5459490  58.0594309
  57.4878862  47.0748148  58.1159372  42.7623521  39.7470598  71.7003812
  42.0205257  39.8953233  72.2868442  42.4416266  40.0078863  70.8370561
  59.0447135  45.3752502  59.3694325  59.5698459  45.7139775  58.6443645
  58.9569488  44.4399518  59.1857460  50.7067184  49.2886576  71.4984202
  51.0154310  49.0435723  72.3706901  51.5042666  49.4933215  71.0103072
  50.7287796  51.4424486  63.7289578  50.2892786  50.9500864  64.4222435
  51.4795913  50.8997453  63.4881653  43.2080135  47.6336027  63.7314206
  44.0338155  47.3339798  63.3512850  42.8574187  46.8643649  64.1803995
  48.1761668  46.9862495  65.8011880  47.5541677  46.3233200  65.5014108
  48.8466535  47.0123627  65.1185528  41.4088740  45.5522353  64.6903140
  40.5720648  45.1244527  64.5087141  41.3812385  45.7454796  65.6273931
  48.2486196  35.4644283  75.3944386  48.2974351  36.3406406  75.0122156
  48.7908710  34.9221676  74.8216029  58.7341041  46.0085406  74.6745523
  57.9436585  45.9909545  74.1350022  58.4974396  46.5473700  75.4294560
  58.8538916  42.8577872  71.9878252  58.9036921  42.6927880  72.9293774
  58.7452840  41.9905131  71.5976132  47.7375175  45.5366418  59.2770340
  47.8863295  46.2201883  58.6237013  48.5441619  45.5171508  59.7919796
  56.1442679  38.8408800  73.3037558  57.0452542  38.7015265  73.0121556
  56.2190653  39.0063255  74.2435736  50.4785484  36.2175655  72.1490745
  49.6088794  36.5109221  71.8773333  50.7144964  36.8016100  72.8698008
  60.3557113  45.2774814  72.2320273  60.0641922  45.6404795  73.0683734
  59.7429245  44.5641822  72.0533605  61.5552796  42.8427694  64.7522843
  62.3899687  43.2817498  64.9160404  61.6911924  42.3666347  63.9331089
  58.6044301  40.4007429  70.7000331  59.0798423  40.5935075  69.8919182
  57.6809867  40.4566614  70.4543715  45.4927808  41.5631596  60.2831409
  45.2473850  40.6593926  60.4811620  45.6623723  41.5648746  59.3410887
  53.1824518  32.4355272  69.6656165  53.7006462  33.1716299  69.3402654
  52.8279651  32.7419265  70.5002924  44.7623456  37.2959953  57.7817571
  44.0692701  37.3704308  57.1257607  44.5175208  36.5320297  58.3039088
  53.4337112  28.8555555  65.1857062  53.7138866  28.1878744  65.8117488
  54.2187719  29.0484650  64.6731725  51.2370581  48.0314549  56.7482088
  50.6644548  48.6504736  56.2952560  51.8103374  48.5813910  57.2822010
  57.3045970  37.2773189  68.9328637  58.2563393  37.3771286  68.9540861
  57.1349421  36.4851457  69.4426721  55.3260350  34.3628772  69.1188038
  54.7310282  34.6433785  68.4234526  55.0410047  34.8522673  69.8904779
  54.4567840  48.3151699  57.8790670  55.3898514  48.2497260  58.0823546
  54.3691053  49.1507966  57.4205203  57.0855857  47.6317569  54.8394618
  57.0069489  47.2977433  55.7330376  57.9065524  48.1239337  54.8386090
  59.7834048  40.4979308  68.0470936  59.7510368  39.5595309  68.2330620
  60.3934672  40.5763345  67.3136761  51.6217379  39.3675361  54.0898140
  52.5676484  39.2381569  54.1586558  51.2431624  38.6290023  54.5667569
  59.9328537  37.2890352  68.0929220  59.4167585  36.5048808  67.9059148
  60.8168485  36.9609068  68.2575739  57.5939264  31.0331367  64.0525032
  57.3964085  30.7246456  64.9368364  58.2038969  31.7593006  64.1822962
  65.6010598  41.5595315  67.1876973  66.3313987  41.2980603  67.7484676
  64.9917544  40.8224037  67.2279041  63.6825895  39.7003178  67.7851424
  62.9559059  39.5659143  67.1767916  63.2673182  40.0080006  68.5908142
  49.8060296  37.2925338  54.0253026  48.8991752  36.9958450  54.1015739
  50.0836277  36.9955156  53.1587312  40.7238237  38.6131701  64.4752072
  40.4041021  37.7597009  64.1826446  40.1771665  38.8280279  65.2310039
  44.5018144  41.3294142  68.1921579  44.7204154  42.2611250  68.2109612
  44.9143918  40.9702117  68.9776382  51.4222362  31.8362227  60.1797267
  50.6123090  31.4909312  60.5552513  52.1106779  31.5269771  60.7684878
  53.3512910  30.9140274  61.8021564  53.9043949  31.3335728  62.4611587
  53.5882997  29.9876022  61.8444520  49.3746010  36.9027348  77.5824327
  49.2742736  37.8521705  77.5136419  49.1567552  36.5745587  76.7100398
  48.5759081  34.1512273  54.1665005  49.4378245  34.4767171  54.4260822
  48.7609425  33.3643769  53.6538071  40.5926497  42.2334613  66.4445194
  39.8989968  41.8188565  65.9315148  41.3399488  42.2755149  65.8478613
  56.7291717  33.0240799  61.3100228  56.1490386  33.6825603  60.9278280
  56.4627650  32.2018144  60.8987645  55.1795284  32.4245857  63.5121548
  55.6795062  32.5362392  62.7035867  55.8230892  32.1206910  64.1522357
  49.2377280  40.3324487  76.3989389  48.7544361  41.1324847  76.6053278
  49.3238219  40.3432432  75.4456833  42.5063239  42.1652866  64.3211208
  42.4833927  42.2640554  63.3693092  42.8163876  43.0118017  64.6428375
  45.1650617  44.2229021  68.4357823  46.1193871  44.1912964  68.3687754
  44.9663141  43.7619645  69.2508049  45.7549999  42.7930137  71.0028621
  46.5742888  43.2874216  71.0263458  46.0286807  41.8762106  70.9746188
  55.5116595  35.1840890  60.3656576  54.6242450  35.4690540  60.1476771
  55.9270584  35.0234653  59.5183853  58.8631132  35.2087411  64.0810915
  59.6391522  35.6983863  64.3535532  58.1379266  35.6345465  64.5382785
  61.3003690  35.9215030  65.1384856  61.8948181  35.6810766  64.4278164
  61.3730274  35.2022161  65.7658392  43.5200846  49.7648641  65.4528021
  43.3855314  49.0049042  64.8866019  43.1032908  50.4889541  64.9856810
  54.6559809  44.9485564  54.4604596  55.3595659  45.1535567  55.0762252
  53.9322458  45.5162326  54.7253680  55.4857619  40.6995426  60.5806866
  55.4292821  41.1563977  59.7414499  56.0385962  39.9386110  60.4029709
  59.2962425  36.4885158  61.4056986  59.0399359  36.0881793  62.2365193
  58.6715293  37.2028952  61.2807125  63.6074763  39.2281231  63.9128277
  63.0474321  39.2974420  64.6859839  63.0018266  39.0522215  63.1927773
  46.6769972  50.6617958  65.6646463  46.5602356  51.6063390  65.5625154
  45.8562418  50.3591520  66.0532263  56.5646506  45.3868094  56.5103056
  57.3992110  44.9549292  56.3280531  56.4030849  45.2150107  57.4379951
  56.2192398  41.8900207  57.8759395  56.1641202  41.7244478  56.9347840
  55.5938454  42.5976240  58.0321585  41.0084913  37.1268271  71.7020818
  41.6543777  36.6167225  72.1908043  40.8002065  37.8636953  72.2764243
  49.5288524  31.3908316  57.4544714  49.5167194  32.3350156  57.6112985
  50.4211946  31.2078461  57.1604175  47.7024486  51.3146220  68.8802392
  48.6051733  51.3469830  69.1968887  47.4761856  50.3846671  68.8948728
  49.4578088  50.0677206  65.5412470  48.5073719  50.0679068  65.4276843
  49.7610574  49.3209941  65.0248505  53.3440643  27.9851093  61.7090651
  52.5773039  27.4309579  61.8547333  53.7551348  28.0572961  62.5704802
  65.1930781  55.9037745  66.6058233  65.8309191  55.7844492  65.9021573
  65.0751624  56.8518589  66.6646185  62.0020488  55.8565173  66.5419758
  61.6638999  55.7406238  65.6540292  62.8710256  55.4556338  66.5220764
  57.8607303  57.7100649  62.5316648  57.2972168  57.6190586  61.7632936
  57.7459698  56.8900554  63.0119141  62.4840271  57.0100025  72.5005963
  62.4728911  56.6152823  71.6286467  62.6460910  56.2766097  73.0939735
  55.4071735  59.2051841  65.3700869  56.1993027  58.8642666  64.9547168
  55.6468385  59.3146816  66.2903022  63.4406862  61.3771617  57.8431113
  62.7894842  61.9625697  57.4565127  64.2351225  61.9077812  57.9026151
  57.3662489  58.4660754  58.2418248  58.1393365  57.9189741  58.1031124
  57.7187888  59.3305003  58.4532709  59.2047532  59.7937136  71.4485147
  58.9137398  60.6982767  71.3331813  59.8404516  59.8353664  72.1629217
  60.1303739  57.1713985  68.0386507  60.7267311  56.9470007  67.3243470
  60.1878710  56.4298730  68.6411955  59.7028767  54.6253420  55.8736698
  59.9554288  54.1034942  55.1120161  58.7653326  54.4619566  55.9763381
  64.7472050  53.6289199  63.6811441  65.5335139  53.2108622  63.3301858
  65.0110754  54.5335291  63.8493089  64.9182127  59.0662049  58.3800098
  64.2827960  59.1396675  59.0921002  64.5879534  59.6555648  57.7019177
  70.1480477  53.5664432  64.5844419  70.8805649  52.9963649  64.8182249
  69.3919833  53.1786032  65.0250925  59.4225056  56.5281526  58.0761073
  59.3061314  55.8526430  58.7442157  59.5327316  56.0413900  57.2593226
  61.7656597  55.9891673  61.7807762  61.4014804  55.4622294  62.4920683
  62.6223713  55.5990142  61.6074247  67.6705897  47.2786006  69.0439028
  67.3389222  48.1481417  68.8200243  67.0751511  46.9622290  69.7233058
  61.4062084  51.0181573  56.7769110  61.5736486  51.8861809  57.1439581
  61.2159253  51.1808855  55.8530400  64.1637417  59.4798552  68.4434941
  63.8638140  60.3823591  68.3350748  63.8188476  59.2130735  69.2956094
  57.6149898  55.9312349  64.4771645  56.6900395  55.7988563  64.6849337
  57.8634312  56.7106568  64.9741588  67.5634561  51.9981092  66.1232378
  66.6551438  51.9296501  65.8291139  67.5122156  52.4753037  66.9514204
  61.3851305  53.4739231  57.7615777  61.2650930  53.9196281  58.6001257
  60.6903893  53.8224548  57.2029315  54.9758709  55.5745622  65.3115434
  55.1051091  55.8280101  66.2254846  54.2956161  56.1673330  64.9920089
  59.1458197  66.2442872  61.4105908  59.0682226  67.1950697  61.4894389
  58.5419840  65.8988745  62.0680835  61.6375426  53.4170738  74.0667275
  60.8608760  53.9764658  74.0570140  62.2765989  53.9027521  74.5882145
  69.4296207  50.1997531  67.9010252  68.7870587  50.4930064  67.2550047
  68.9251136  50.0850451  68.7063449  67.0836371  53.9460704  58.5896111
  67.9954227  54.1788090  58.4143809  66.5746018  54.5297748  58.0271190
  59.8921799  56.2256191  73.6285242  60.6336483  56.7641235  73.3520066
  59.1858784  56.8522480  73.7856794  61.7208208  53.3057938  69.5990961
  62.5669404  53.7297352  69.7425610  61.6606846  52.6491563  70.2929524
  65.6905953  58.9286522  65.9809693  65.0614815  59.0932236  65.2785761
  65.3031615  59.3428132  66.7520657  69.5695185  59.8640960  63.3354056
  68.8846223  60.2439861  62.7851090  69.6539034  60.4736287  64.0686004
  66.8246117  57.5100919  69.9349400  67.0363012  58.1532679  69.2583781
  66.7775865  56.6763236  69.4671330  64.4272345  50.1218740  66.8385972
  63.5656825  50.4199993  67.1302710  64.4534780  50.3389139  65.9067005
  61.2433915  58.6660930  63.2459778  61.7072260  58.9448633  62.4564400
  60.9790713  57.7644375  63.0632868  58.1357996  58.2132412  66.1839541
  58.7059353  58.6419680  65.5457026  58.7266108  57.9314996  66.8823727
  60.1802801  54.7884083  60.0549343  60.8826844  55.2405126  60.5223269
  59.8483429  54.1467901  60.6829236  58.6283162  53.3795839  74.4300552
  57.9981823  54.0612120  74.6635949  58.5219250  53.2678921  73.4853691
  53.9228135  53.0467635  65.3566477  53.1327189  53.3025164  64.8806587
  54.4139382  53.8615973  65.4618517  55.8742880  53.4112215  62.3149953
  55.0774044  53.5230909  62.8333449  55.6468472  53.7498867  61.4490844
  61.7048548  59.9356918  70.2632468  61.7692980  60.3977325  71.0990640
  60.9959472  59.3054283  70.3914778  52.2065838  53.2998126  67.7881467
  52.4573876  54.1845136  68.0539043  52.7425386  53.1202727  67.0156559
  61.4196566  61.6025025  60.1311448  61.2842240  62.4476561  60.5596296
  61.9606378  61.8044303  59.3677382  57.9063905  47.6816605  76.7925803
  57.5130851  47.1282804  77.4673448  58.7230046  47.9927184  77.1832321
  54.8725963  59.1200463  60.7039373  55.3850484  59.9143714  60.8544938
  55.5248676  58.4226754  60.6372975  56.6820848  62.2366220  62.7862126
  56.8587476  63.1584184  62.5983110  57.4777681  61.9224639  63.2156506
  60.8231866  49.0974484  74.3846060  61.5641580  49.6981637  74.3050522
  61.0549789  48.3552122  73.8264103  57.8052163  63.7544393  68.7872469
  58.3559588  63.6261457  68.0149463  56.9663639  64.0539282  68.4367362
  61.6019334  60.0195521  73.1316700  62.1347671  59.2583809  72.9016008
  61.0733415  59.7269173  73.8740854  64.7689029  45.1255587  68.6610342
  64.4253299  46.0157229  68.5849452  65.1367992  44.9357245  67.7979927
  52.8374880  57.4489118  61.4798944  53.6750102  57.8586126  61.2632652
  53.0153147  56.5088560  61.4499138  64.7339312  55.1164198  57.1682777
  64.2185935  55.8868803  57.4071164  64.4616620  54.4429334  57.7915838
  62.3186423  49.9613899  62.2268015  61.4628019  49.5720749  62.0473654
  62.7313375  50.0405860  61.3667801  63.8485570  47.4960242  66.6259575
  63.3450365  47.4590377  65.8127380  64.1416176  48.4052985  66.6856232
  60.0928455  47.5798972  65.6325757  60.9581452  47.3841781  65.2731646
  60.1605964  47.3509324  66.5595113  69.7073586  57.8696553  59.1035950
  68.9303029  57.5307712  58.6591112  70.3865067  57.8749176  58.4290915
  64.5225615  52.9891290  58.9942558  64.2175751  53.3037440  59.8452701
  65.4756057  53.0672710  59.0369891  62.9672047  59.1481514  60.6435512
  62.4393408  58.4134273  60.3308749  62.4659550  59.9256190  60.3975480
  67.9464893  57.3430534  65.7602558  67.2888567  58.0329796  65.8482687
  68.7505292  57.7326966  66.1036545  57.6990774  49.8101180  63.0042123
  58.2734526  49.5876361  62.2715316  58.2861757  49.8789874  63.7570725
  66.7570352  55.6974907  63.8106500  67.2702233  56.3304899  64.3128210
  67.4071576  55.0976102  63.4449860  58.0260362  51.8405641  57.0238009
  57.1897674  52.1780327  57.3447283  57.8865131  51.7054621  56.0865146
  60.0013442  46.6842429  61.7317193  59.3477855  46.3691446  61.1073808
  59.9593916  46.0618169  62.4577016  61.1124647  56.9661724  53.6470485
  60.2051709  56.7350977  53.8461634  61.6095679  56.1699343  53.8344466
  64.0192726  65.6759231  56.5667171  63.3454425  65.9790928  57.1752129
  64.4058548  66.4788311  56.2172628  63.2351183  53.1724362  66.0564840
  62.3173744  53.3939309  65.8986529  63.6511326  53.2470673  65.1976548
  64.0186230  54.5715778  61.1867521  64.7658049  55.0837175  60.8774643
  64.2877820  54.2499831  62.0471914  62.2912880  57.0674319  58.1694475
  61.3824100  56.7833352  58.2666945  62.3207964  57.4873397  57.3097782
  67.5232148  60.6780908  61.9385643  67.0694475  59.8371818  61.9950833
  66.8926115  61.3142307  62.2760423  66.4665067  51.6072894  63.1686310
  65.7287824  51.0950281  63.4996553  66.7191841  51.1673276  62.3569587
  65.9665087  62.5157405  62.8735461  66.2588062  63.0762462  62.1547826
  66.4763708  62.8085966  63.6288620  66.5676695  44.3849146  63.7628079
  66.8735572  43.5246510  63.4753994  67.2929300  44.9766766  63.5627073
  52.8601051  54.7879833  62.1509677  52.6625451  54.1949194  61.4260744
  52.3047715  54.4832043  62.8685616  60.8397775  54.6802939  64.2704270
  60.8946384  53.7276776  64.1946747  60.0288977  54.8362378  64.7545569
  61.9888968  58.6083062  55.5082554  61.5508398  57.8918921  55.0488191
  62.7299409  58.8359177  54.9467645  58.7790134  53.2979999  62.0294649
  57.9658000  53.5974170  62.4359841  59.2749129  52.9035688  62.7469131
  60.9298712  63.2937756  63.9628914  60.8874891  63.5198602  63.0337446
  61.8461411  63.0601131  64.1114715  64.3764346  53.7621824  70.8609543
  64.7313734  53.9893297  71.7204009  65.0236477  54.0940200  70.2386798
  70.1062083  56.8840259  61.5658872  69.9679982  57.0741855  60.6380061
  69.7498302  57.6459642  62.0226923  58.2704209  50.8698355  67.6455884
  58.9103589  50.7287114  66.9478848  57.4381740  50.5832868  67.2694486
  70.1331463  58.9516786  66.5770144  70.5667969  58.8592076  67.4253198
  70.8463043  58.9274287  65.9390160  59.0464513  60.1700785  63.7590877
  59.8405112  59.6751105  63.5573452  58.3356206  59.6418648  63.3958582
  63.8659358  62.5518881  68.1103244  63.9196380  63.1209817  68.8780960
  62.9974139  62.7220766  67.7457281  55.3547277  54.3143867  59.8350629
  54.4244865  54.2528322  60.0520591  55.4504749  53.7919820  59.0387271
  55.2732826  50.8398680  62.4228871  55.5339643  51.7544013  62.3138031
  56.0949998  50.3723122  62.5725484  56.7457751  52.2536437  69.5927696
  57.4180804  52.0453799  68.9440344  55.9187537  52.0558523  69.1532928
  62.6483323  48.8798378  71.6093356  62.0011238  49.5788327  71.5157833
  63.4184338  49.3134522  71.9769605  62.8247457  56.7179143  69.6690176
  63.7539517  56.8690302  69.4959143  62.4038487  56.8063163  68.8138823
  61.6235789  60.7429807  67.4388714  61.4846875  60.3748591  68.3114652
  60.8350385  61.2577446  67.2672672  62.2183941  65.8438904  58.7814250
  62.3935697  65.3726947  59.5959873  61.5316729  66.4704670  59.0095511
  63.1741004  60.1211410  64.8277552  62.8390837  60.0812180  65.7235201
  62.6744950  59.4556126  64.3547962  57.1485248  55.5279040  70.3530133
  57.0105046  54.7959279  70.9541672  58.0590172  55.4387940  70.0714320
  66.1100196  57.4667444  55.1014611  65.4929367  56.7414272  55.0047664
  65.6416684  58.2276804  54.7581685  59.7767549  55.2398999  69.8413812
  60.4867167  54.5992191  69.8000431  59.7336857  55.4911894  70.7639993
  58.4896483  52.2264217  71.6609452  57.9533840  51.7754955  72.3131048
  57.9013191  52.3610126  70.9179916  56.7845026  68.9928266  65.5554110
  57.0241625  69.6246790  66.2333129  55.9414223  68.6416306  65.8419470
  57.8998742  51.6852868  54.2235915  57.0228208  51.5641669  53.8598162
  58.3756495  50.8938947  53.9714804  49.4200882  56.4730028  64.3177423
  50.1071922  56.1591758  63.7298438  49.2649011  57.3771393  64.0444674
  54.2235604  51.3620225  68.7462446  54.1393793  50.7545894  68.0112856
  53.4018311  51.8529243  68.7471943  61.0862668  64.0379159  61.4698436
  60.3030190  64.5800839  61.5636660  61.7855413  64.5553138  61.8692677
  64.3959318  49.8473788  64.1132641  64.8928018  49.0943751  63.7933712
  63.6246299  49.8838105  63.5475851  72.2489075  55.5514154  65.7550933
  72.2378952  56.4338869  65.3844866  71.3806455  55.1985705  65.5605470
  65.4789099  58.6045475  61.6871065  64.5445377  58.7246938  61.5175769
  65.6565767  57.7017942  61.4231075  60.9794287  51.9891171  63.8404326
  60.6092074  51.4362212  64.5285232  61.4753379  51.3849305  63.2879326
  68.8661650  54.4462795  62.2221099  69.3322102  55.2790786  62.1481402
  69.3169151  53.9807776  62.9266357  66.9337881  60.7906616  59.2207251
  67.2097725  60.6763211  60.1301125  66.0642380  60.3924101  59.1819424
  66.8378313  46.8143382  66.2612000  65.9241393  47.0447609  66.4294207
  67.2671414  46.8981826  67.1126033  66.6084771  55.0033274  68.7611894
  65.9556221  55.2509181  68.1064347  66.9865151  54.1897412  68.4274372
  63.5691945  65.0392967  62.8640065  63.7514340  64.2214623  63.3267817
  64.3924931  65.2560659  62.4264955  63.9034111  63.9661152  60.1255113
  64.4321877  63.4553607  59.5125275  64.1662330  63.6503682  60.9900646
  62.6572344  55.7453085  75.2477931  61.9812981  55.6447214  75.9180307
  63.4799978  55.5892298  75.7113929  54.4051203  61.9825021  67.8690447
  54.9904640  61.2368709  68.0018351  54.2076042  62.2928978  68.7527110
  57.2589859  65.0176269  62.8852889  56.5900234  65.5022396  62.4016929
  57.1202728  65.2645489  63.7996268  48.9968858  54.5530621  66.5894890
  49.0352958  54.0194212  67.3832008  48.4909151  54.0265827  65.9705867
  56.3759620  49.3995162  70.0857432  56.4400947  50.2609993  69.6734830
  56.3126741  48.7869164  69.3529791  55.8511893  51.4718295  73.7330466
  56.4783932  51.0895372  74.3467991  54.9939812  51.2532496  74.0986159
  52.6277436  53.2794724  59.6648821  52.9230877  52.3705402  59.6115875
  51.7265471  53.2582463  59.3429823  64.5363514  65.0001988  66.4699230
  64.4114654  64.1991728  65.9610175  65.1942606  65.4948181  65.9813199
  56.1571683  51.3550720  65.6476370  55.4358268  51.9686688  65.5083843
  56.9464938  51.8908485  65.5693016  66.5998423  62.8011008  68.0978780
  65.6528758  62.6816359  68.0257106  66.9481196  61.9133506  68.1805041
  58.9597996  48.6905147  71.9217021  59.4832398  48.9367443  72.6843331
  58.7410329  49.5225182  71.5020159  54.3565277  50.9608821  59.7888146
  54.0277983  50.0806200  59.6063252  54.7104648  50.9056490  60.6764536
  63.6044856  62.5963724  64.2983132  63.4569819  61.6680431  64.4790702
  64.4298350  62.6183815  63.8140207  57.4707100  51.2481791  60.1563624
  57.8103173  51.7767712  59.4342232  57.9179221  51.5862197  60.9322191
  67.2078978  63.4192283  65.3848005  68.1325525  63.2135144  65.2472456
  67.0394281  63.1708684  66.2937346  60.1650541  49.6318842  69.6066692
  59.8247362  48.8326655  70.0087372  59.4589547  49.9320553  69.0343525
  60.8167013  46.7168154  68.0594015  61.6393082  46.2428632  67.9372905
  61.0605077  47.4958638  68.5592701  59.4575248  49.7456413  58.3556917
  60.1783610  50.1237665  57.8520634  58.8340552  50.4645289  58.4591895
  63.6006370  50.4501562  59.2915249  63.8169985  51.3326200  58.9904077
  63.1200438  50.0587775  58.5620891  58.3405592  53.4087275  65.8685994
  58.1950173  53.7227578  66.7610275  57.8630795  54.0272175  65.3156892
  60.2001975  50.3989823  65.9166883  60.1863543  49.5030916  65.5799181
  60.9174403  50.4060487  66.5505169  62.0528105  50.8327163  67.9620011
  61.7945883  51.7544234  67.9604341  61.5213146  50.4357598  68.6520475
  66.9974294  63.9377950  60.7410096  67.1711172  63.3724373  59.9883948
  67.4903185  64.7378845  60.5589586  52.8151254  55.9492619  68.8073655
  52.2704722  56.7252427  68.9393929  53.6930604  56.2963424  68.6492776
  59.6038871  49.2804203  61.1854453  59.7254782  48.3520849  61.3845341
  59.3140913  49.2942889  60.2732769  62.4730061  46.9659114  64.3221173
  62.4951758  47.0298447  63.3673153  62.8898120  46.1263622  64.5161679
  72.8513685  56.7014373  62.3600396  73.2944831  55.9521698  61.9619519
  71.9740196  56.6924509  61.9774128  67.9849467  63.2544715  57.8406994
  68.6800371  63.8751407  58.0594309  68.3272617  62.4040066  58.1159372
  69.8840890  60.7044420  59.3694325  70.4092214  61.0431693  58.6443645
  69.7963242  59.7691435  59.1857460  61.5681551  66.7716403  63.7289578
  61.1286541  66.2792782  64.4222435  62.3189667  66.2289371  63.4881653
  54.0473890  62.9627944  63.7314206  54.8731909  62.6631716  63.3512850
  53.6967941  62.1935567  64.1803995  59.0155423  62.3154412  65.8011880
  58.3935432  61.6525118  65.5014108  59.6860290  62.3415544  65.1185528
  52.2482495  60.8814271  64.6903140  51.4114403  60.4536445  64.5087141
  52.2206140  61.0746714  65.6273931  59.0879950  50.7936201  75.3944386
  59.1368106  51.6698323  75.0122156  59.6302464  50.2513594  74.8216029
  58.5768930  60.8658336  59.2770340  58.7257050  61.5493800  58.6237013
  59.3835373  60.8463426  59.7919796  61.3179239  51.5467573  72.1490745
  60.4482548  51.8401139  71.8773333  61.5538719  52.1308018  72.8698008
  72.3946550  58.1719611  64.7522843  73.2293441  58.6109415  64.9160404
  72.5305679  57.6958265  63.9331089  56.3321563  56.8923513  60.2831409
  56.0867605  55.9885843  60.4811620  56.5017477  56.8940664  59.3410887
  64.0218272  47.7647190  69.6656165  64.5400216  48.5008217  69.3402654
  63.6673405  48.0711183  70.5002924  55.6017210  52.6251871  57.7817571
  54.9086455  52.6996226  57.1257607  55.3568962  51.8612215  58.3039088
  64.2730867  44.1847472  65.1857062  64.5532620  43.5170661  65.8117488
  65.0581474  44.3776568  64.6731725  62.0764335  63.3606466  56.7482088
  61.5038302  63.9796653  56.2952560  62.6497129  63.9105828  57.2822010
  66.1654104  49.6920690  69.1188038  65.5704037  49.9725702  68.4234526
  65.8803801  50.1814591  69.8904779  65.2961595  63.6443616  57.8790670
  66.2292268  63.5789178  58.0823546  65.2084808  64.4799883  57.4205203
  67.9249612  62.9609487  54.8394618  67.8463243  62.6269350  55.7330376
  68.7459278  63.4531255  54.8386090  70.6227803  55.8271226  68.0470936
  70.5904123  54.8887227  68.2330620  71.2328426  55.9055263  67.3136761
  62.4611134  54.6967279  54.0898140  63.4070238  54.5673487  54.1586558
  62.0825379  53.9581941  54.5667569  68.4333018  46.3623285  64.0525032
  68.2357839  46.0538373  64.9368364  69.0432724  47.0884924  64.1822962
  62.3449826  58.7485025  75.5498797  63.2652836  58.9263624  75.7438844
  62.3099409  57.8041071  75.3978497  60.6454051  52.6217255  54.0253026
  59.7385506  52.3250368  54.1015739  60.9230032  52.3247073  53.1587312
  51.5631991  53.9423619  64.4752072  51.2434775  53.0888927  64.1826446
  51.0165419  54.1572197  65.2310039  55.3411899  56.6586060  68.1921579
  55.5597908  57.5903168  68.2109612  55.7537673  56.2994034  68.9776382
  62.2616116  47.1654145  60.1797267  61.4516845  46.8201230  60.5552513
  62.9500533  46.8561689  60.7684878  64.1906665  46.2432192  61.8021564
  64.7437703  46.6627645  62.4611587  64.4276751  45.3167940  61.8444520
  60.2139764  52.2319266  77.5824327  60.1136491  53.1813623  77.5136419
  59.9961306  51.9037504  76.7100398  59.4152835  49.4804191  54.1665005
  60.2771999  49.8059089  54.4260822  59.6003180  48.6935687  53.6538071
  51.4320251  57.5626530  66.4445194  50.7383723  57.1480483  65.9315148
  52.1793242  57.6047067  65.8478613  67.5685472  48.3532717  61.3100228
  66.9884141  49.0117521  60.9278280  67.3021405  47.5310062  60.8987645
  66.0189038  47.7537775  63.5121548  66.5188817  47.8654309  62.7035867
  66.6624646  47.4498828  64.1522357  60.0771034  55.6616404  76.3989389
  59.5938116  56.4616765  76.6053278  60.1631973  55.6724349  75.4456833
  53.3456994  57.4944784  64.3211208  53.3227682  57.5932471  63.3693092
  53.6557630  58.3409935  64.6428375  56.0044372  59.5520939  68.4357823
  56.9587625  59.5204881  68.3687754  55.8056895  59.0911563  69.2508049
  56.5943754  58.1222055  71.0028621  57.4136643  58.6166134  71.0263458
  56.8680561  57.2054023  70.9746188  66.3510350  50.5132807  60.3656576
  65.4636205  50.7982458  60.1476771  66.7664339  50.3526571  59.5183853
  69.7024886  50.5379328  64.0810915  70.4785276  51.0275781  64.3535532
  68.9773020  50.9637383  64.5382785  72.1397445  51.2506948  65.1384856
  72.7341935  51.0102684  64.4278164  72.2124028  50.5314078  65.7658392
  54.3594600  65.0940559  65.4528021  54.2249068  64.3340959  64.8866019
  53.9426663  65.8181458  64.9856810  65.4953563  60.2777482  54.4604596
  66.1989413  60.4827485  55.0762252  64.7716212  60.8454244  54.7253680
  66.3251374  56.0287343  60.5806866  66.2686575  56.4855895  59.7414499
  66.8779716  55.2678028  60.4029709  70.1356180  51.8177075  61.4056986
  69.8793114  51.4173711  62.2365193  69.5109048  52.5320869  61.2807125
  74.4468517  54.5573149  63.9128277  73.8868075  54.6266338  64.6859839
  73.8412021  54.3814133  63.1927773  57.5163726  65.9909876  65.6646463
  57.3996110  66.9355308  65.5625154  56.6956172  65.6883437  66.0532263
  67.4040261  60.7160011  56.5103056  68.2385865  60.2841210  56.3280531
  67.2424604  60.5442025  57.4379951  67.0586153  57.2192125  57.8759395
  67.0034957  57.0536396  56.9347840  66.4332208  57.9268158  58.0321585
  51.8478668  52.4560189  71.7020818  52.4937532  51.9459143  72.1908043
  51.6395819  53.1928871  72.2764243  60.3682278  46.7200234  57.4544714
  60.3560948  47.6642074  57.6112985  61.2605700  46.5370379  57.1604175
  60.2971842  65.3969124  65.5412470  59.3467473  65.3970986  65.4276843
  60.6004329  64.6501859  65.0248505  64.1834398  43.3143010  61.7090651
  63.4166794  42.7601497  61.8547333  64.5945103  43.3864879  62.5704802
  56.1876159  49.6027806  75.7995832  57.0507620  49.2464611  76.0099156
  55.6141570  49.2641701  76.4871236  66.2465490  74.5343759  65.3700869
  67.0386782  74.1934583  64.9547168  66.4862140  74.6438734  66.2903022
  72.2455838  66.3473491  56.7769110  72.4130241  67.2153727  57.1439581
  72.0553007  66.5100772  55.8530400  68.4543653  71.2604266  64.4771645
  67.5294149  71.1280481  64.6849337  68.7028066  72.0398486  64.9741588
  65.8152464  70.9037540  65.3115434  65.9444845  71.1572019  66.2254846
  65.1349915  71.4965248  64.9920089  64.7621889  68.3759553  65.3566477
  63.9720943  68.6317081  64.8806587  65.2533137  69.1907891  65.4618517
  66.7136635  68.7404132  62.3149953  65.9167798  68.8522826  62.8333449
  66.4862227  69.0790784  61.4490844  63.0459592  68.6290043  67.7881467
  63.2967631  69.5137053  68.0539043  63.5819141  68.4494645  67.0156559
  65.7119717  74.4492381  60.7039373  66.2244238  75.2435631  60.8544938
  66.3642430  73.7518671  60.6372975  63.6768634  72.7781035  61.4798944
  64.5143856  73.1878044  61.2632652  63.8546902  71.8380477  61.4499138
  70.9322210  62.9090890  65.6325757  71.7975207  62.7133698  65.2731646
  70.9999719  62.6801241  66.5595113  68.5384529  65.1393098  63.0042123
  69.1128281  64.9168279  62.2715316  69.1255511  65.2081792  63.7570725
  68.8654116  67.1697559  57.0238009  68.0291428  67.5072245  57.3447283
  68.7258886  67.0346538  56.0865146  70.8407197  62.0134346  61.7317193
  70.1871609  61.6983364  61.1073808  70.7987671  61.3910087  62.4577016
  63.6994805  70.1171751  62.1509677  63.5019205  69.5241111  61.4260744
  63.1441469  69.8123961  62.8685616  69.6183889  68.6271917  62.0294649
  68.8051754  68.9266087  62.4359841  70.1142883  68.2327606  62.7469131
  66.1941031  69.6435784  59.8350629  65.2638619  69.5820240  60.0520591
  66.2898503  69.1211737  59.0387271  66.1126580  66.1690597  62.4228871
  66.3733397  67.0835931  62.3138031  66.9343752  65.7015040  62.5725484
  68.7392496  67.0144786  54.2235915  67.8621963  66.8933587  53.8598162
  69.2150249  66.2230864  53.9714804  60.2594636  71.8021946  64.3177423
  60.9465676  71.4883676  63.7298438  60.1042765  72.7063310  64.0444674
  65.0629359  66.6912142  68.7462446  64.9787547  66.0837812  68.0112856
  64.2412065  67.1821161  68.7471943  65.2444958  77.3116939  67.8690447
  65.8298395  76.5660627  68.0018351  65.0469796  77.6220896  68.7527110
  59.8362613  69.8822539  66.5894890  59.8746712  69.3486130  67.3832008
  59.3302905  69.3557745  65.9705867  67.2153375  64.7287080  70.0857432
  67.2794701  65.5901911  69.6734830  67.1520495  64.1161081  69.3529791
  63.4671190  68.6086641  59.6648821  63.7624631  67.6997320  59.6115875
  62.5659226  68.5874381  59.3429823  66.9965437  66.6842638  65.6476370
  66.2752023  67.2978606  65.5083843  67.7858693  67.2200403  65.5693016
  65.1959032  66.2900739  59.7888146  64.8671738  65.4098118  59.6063252
  65.5498402  66.2348408  60.6764536  68.3100855  66.5773709  60.1563624
  68.6496927  67.1059630  59.4342232  68.7572975  66.9154115  60.9322191
  70.2969002  65.0748330  58.3556917  71.0177365  65.4529583  57.8520634
  69.6734306  65.7937207  58.4591895  63.6545008  71.2784537  68.8073655
  63.1098477  72.0544345  68.9393929  64.5324358  71.6255341  68.6492776
  70.4432625  64.6096121  61.1854453  70.5648536  63.6812767  61.3845341
  70.1534667  64.6234807  60.2732769  64.8867644  78.2919862  63.7314206
  65.7125664  77.9923634  63.3512850  64.5361696  77.5227484  64.1803995
  63.0876249  76.2106188  64.6903140  62.2508157  75.7828363  64.5087141
  63.0599894  76.4038632  65.6273931  67.1715317  72.2215431  60.2831409
  66.9261359  71.3177761  60.4811620  67.3411232  72.2232582  59.3410887
  66.4410965  67.9543789  57.7817571  65.7480210  68.0288144  57.1257607
  66.1962716  67.1904132  58.3039088  62.4025746  69.2715537  64.4752072
  62.0828530  68.4180845  64.1826446  61.8559174  69.4864115  65.2310039
  70.2546590  64.8096108  54.1665005  71.1165754  65.1351007  54.4260822
  70.4396934  64.0227604  53.6538071  62.2714006  72.8918448  66.4445194
  61.5777477  72.4772401  65.9315148  63.0186997  72.9338985  65.8478613
  64.1850748  72.8236702  64.3211208  64.1621436  72.9224389  63.3693092
  64.4951385  73.6701853  64.6428375  65.1988355  80.4232476  65.4528021
  65.0642823  79.6632877  64.8866019  64.7820417  81.1473376  64.9856810
  71.2076033  62.0492151  57.4544714  71.1954703  62.9933991  57.6112985
  72.0999455  61.8662297  57.1604175  88.7623880  84.6044539  58.5896111
  89.6741736  84.8371926  58.4143809  88.2533527  85.1881583  58.0271190
  88.5033625  88.1684754  69.9349400  88.7150521  88.8116514  69.2583781
  88.4563374  87.3347071  69.4671330  88.4357861  86.3558742  63.8106500
  88.9489742  86.9888734  64.3128210  89.0859085  85.7559938  63.4449860
  91.7849592  87.5424095  61.5658872  91.6467491  87.7325691  60.6380061
  91.4285811  88.3043478  62.0226923  90.5449159  85.1046630  62.2221099
  91.0109611  85.9374622  62.1481402  90.9956659  84.6391612  62.9266357
  91.8143689  82.4760911  61.4056986  91.5580623  82.0757546  62.2365193
  91.1896557  83.1904705  61.2807125  96.0873209 111.0268720  62.8640065
  96.2695603 110.2090376  63.3267817  96.9106195 111.2436412  62.4264955
  96.1226120 108.5839477  64.2983132  95.9751082 107.6556184  64.4790702
  96.9479613 108.6059568  63.8140207  99.5155558 109.9253703  60.7410096
  99.6892435 109.3600126  59.9883948 100.0084449 110.7254598  60.5589586
 100.4430875 108.9485240  54.8394618 100.3644507 108.6145103  55.7330376
 101.2640542 109.4407008  54.8386090 108.9585616 102.8762986  67.1876973
 109.6889005 102.6148274  67.7484676 108.3492562 102.1391708  67.2279041
 101.2182321 119.0268320  62.5316648 100.6547186 118.9358257  61.7632936
 101.1034716 118.2068224  63.0119141 106.7981880 122.6939288  57.8431113
 106.1469860 123.2793368  57.4565127 107.5926243 123.2245483  57.9026151
 100.7237507 119.7828425  58.2418248 101.4968383 119.2357412  58.1031124
 101.0762906 120.6472674  58.4532709 103.0603785 115.9421091  55.8736698
 103.3129306 115.4202612  55.1120161 102.1228344 115.7787236  55.9763381
 108.2757145 120.3829720  58.3800098 107.6402978 120.4564346  59.0921002
 107.9454552 120.9723318  57.7019177 113.5055495 114.8832103  64.5844419
 114.2380667 114.3131319  64.8182249 112.7494851 114.4953703  65.0250925
 102.7800074 117.8449197  58.0761073 102.6636332 117.1694100  58.7442157
 102.8902334 117.3581571  57.2593226 105.1231615 117.3059344  61.7807762
 104.7589822 116.7789965  62.4920683 105.9798731 116.9157813  61.6074247
 111.0280915 108.5953677  69.0439028 110.6964240 109.4649088  68.8200243
 110.4326529 108.2789961  69.7233058 104.7637102 112.3349244  56.7769110
 104.9311504 113.2029480  57.1439581 104.5734271 112.4976525  55.8530400
 110.9209579 113.3148763  66.1232378 110.0126456 113.2464171  65.8291139
 110.8697174 113.7920708  66.9514204 104.7426323 114.7906901  57.7615777
 104.6225948 115.2363952  58.6001257 104.0478911 115.1392219  57.2029315
 102.5033215 127.5610543  61.4105908 102.4257244 128.5118368  61.4894389
 101.8994858 127.2156415  62.0680835 112.7871225 111.5165201  67.9010252
 112.1445605 111.8097734  67.2550047 112.2826154 111.4018122  68.7063449
 110.4411389 115.2628374  58.5896111 111.3529245 115.4955761  58.4143809
 109.9321036 115.8465419  58.0271190 109.0480971 120.2454193  65.9809693
 108.4189833 120.4099907  65.2785761 108.6606633 120.6595802  66.7520657
 112.9270203 121.1808631  63.3354056 112.2421241 121.5607532  62.7851090
 113.0114052 121.7903957  64.0686004 104.6008933 119.9828601  63.2459778
 105.0647278 120.2616304  62.4564400 104.3365731 119.0812046  63.0632868
 103.5377819 116.1051753  60.0549343 104.2401862 116.5572797  60.5223269
 103.2058447 115.4635572  60.6829236  97.2803153 114.3635306  65.3566477
  96.4902207 114.6192835  64.8806587  97.7714400 115.1783644  65.4618517
  99.2317898 114.7279885  62.3149953  98.4349062 114.8398579  62.8333449
  99.0043490 115.0666537  61.4490844 119.3872955 118.0479294  64.4556729
 118.6336664 117.4786692  64.3000733 119.5220497 118.0141958  65.4027364
 104.7771584 122.9192696  60.1311448 104.6417258 123.7644232  60.5596296
 105.3181396 123.1211974  59.3677382  98.2300981 120.4368134  60.7039373
  98.7425501 121.2311384  60.8544938  98.8823694 119.7394424  60.6372975
 100.0395866 123.5533890  62.7862126 100.2162494 124.4751855  62.5983110
 100.8352699 123.2392309  63.2156506  96.1949898 118.7656788  61.4798944
  97.0325120 119.1753797  61.2632652  96.3728165 117.8256230  61.4499138
 108.0914330 116.4331869  57.1682777 107.5760953 117.2036474  57.4071164
 107.8191638 115.7597005  57.7915838 105.6761441 111.2781570  62.2268015
 104.8203037 110.8888420  62.0473654 106.0888393 111.3573531  61.3667801
 113.0648604 119.1864224  59.1035950 112.2878047 118.8475383  58.6591112
 113.7440085 119.1916847  58.4290915 107.8800633 114.3058961  58.9942558
 107.5750769 114.6205110  59.8452701 108.8331075 114.3840381  59.0369891
 106.3247065 120.4649184  60.6435512 105.7968426 119.7301944  60.3308749
 105.8234568 121.2423861  60.3975480 101.3835380 113.1573312  57.0238009
 100.5472692 113.4947998  57.3447283 101.2440149 113.0222291  56.0865146
 103.3588460 108.0010100  61.7317193 102.7052872 107.6859117  61.1073808
 103.3168934 107.3785840  62.4577016 104.4699665 118.2829395  53.6470485
 103.5626727 118.0518648  53.8461634 104.9670697 117.4867014  53.8344466
 107.3767744 126.9926902  56.5667171 106.7029443 127.2958599  57.1752129
 107.7633566 127.7955982  56.2172628 107.3761248 115.8883449  61.1867521
 108.1233067 116.4004846  60.8774643 107.6452838 115.5667501  62.0471914
 105.6487898 118.3841989  58.1694475 104.7399118 118.1001022  58.2666945
 105.6782982 118.8041068  57.3097782 109.8240085 112.9240565  63.1686310
 109.0862842 112.4117951  63.4996553 110.0766859 112.4840947  62.3569587
 109.3240105 123.8325076  62.8735461 109.6163079 124.3930133  62.1547826
 109.8338726 124.1253637  63.6288620 109.9251713 105.7016817  63.7628079
 110.2310590 104.8414180  63.4753994 110.6504318 106.2934437  63.5627073
  96.2176069 116.1047504  62.1509677  96.0200469 115.5116864  61.4260744
  95.6622733 115.7999714  62.8685616 105.3463986 119.9250733  55.5082554
 104.9083416 119.2086592  55.0488191 106.0874427 120.1526848  54.9467645
 102.1365152 114.6147670  62.0294649 101.3233018 114.9141840  62.4359841
 102.6324147 114.2203359  62.7469131 104.2873730 124.6105427  63.9628914
 104.2449909 124.8366273  63.0337446 105.2036429 124.3768801  64.1114715
 113.4637101 118.2007930  61.5658872 113.3255000 118.3909526  60.6380061
 113.1073320 118.9627313  62.0226923 102.4039531 121.4868456  63.7590877
 103.1980130 120.9918776  63.5573452 101.6931223 120.9586319  63.3958582
  98.7122295 115.6311538  59.8350629  97.7819883 115.5695993  60.0520591
  98.8079767 115.1087490  59.0387271  98.6307844 112.1566350  62.4228871
  98.8914661 113.0711684  62.3138031  99.4525016 111.6890793  62.5725484
 105.5758959 127.1606574  58.7814250 105.7510715 126.6894617  59.5959873
 104.8891747 127.7872340  59.0095511 109.4675214 118.7835115  55.1014611
 108.8504385 118.0581943  55.0047664 108.9991702 119.5444475  54.7581685
 101.2573760 113.0020539  54.2235915 100.3803226 112.8809340  53.8598162
 101.7331513 112.2106617  53.9714804 104.6547906 126.1175059  67.9595614
 104.5818078 126.9230031  68.4714919 104.2125299 126.3167025  67.1343636
 104.4437686 125.3546829  61.4698436 103.6605208 125.8968510  61.5636660
 105.1430431 125.8720809  61.8692677 107.7534336 111.1641459  64.1132641
 108.2503035 110.4111421  63.7933712 106.9821317 111.2005776  63.5475851
 115.6064093 116.8681824  65.7550933 115.5953970 117.7506540  65.3844866
 114.7381473 116.5153375  65.5605470 108.8364117 119.9213146  61.6871065
 107.9020395 120.0414609  61.5175769 109.0140785 119.0185613  61.4231075
 112.2236668 115.7630465  62.2221099 112.6897120 116.5958457  62.1481402
 112.6744168 115.2975447  62.9266357 110.2912899 122.1074287  59.2207251
 110.5672743 121.9930881  60.1301125 109.4217398 121.7091772  59.1819424
 110.1953331 108.1311052  66.2612000 109.2816411 108.3615279  66.4294207
 110.6246432 108.2149496  67.1126033 106.9266963 126.3560638  62.8640065
 107.1089358 125.5382293  63.3267817 107.7499949 126.5728330  62.4264955
 107.2609129 125.2828823  60.1255113 107.7896895 124.7721277  59.5125275
 107.5237348 124.9671353  60.9900646 107.8938532 126.3169658  66.4699230
 107.7689672 125.5159398  65.9610175 108.5517624 126.8115852  65.9813199
 109.9573441 124.1178678  68.0978780 109.0103776 123.9984030  68.0257106
 110.3056214 123.2301177  68.1805041 106.9619874 123.9131395  64.2983132
 106.8144837 122.9848102  64.4790702 107.7873368 123.9351485  63.8140207
 100.8282118 112.5649462  60.1563624 101.1678191 113.0935383  59.4342232
 101.2754239 112.9029868  60.9322191 110.5653996 124.7359953  65.3848005
 111.4900543 124.5302815  65.2472456 110.3969299 124.4876355  66.2937346
 102.8150266 111.0624083  58.3556917 103.5358628 111.4405336  57.8520634
 102.1915570 111.7812960  58.4591895 106.9581388 111.7669232  59.2915249
 107.1745003 112.6493870  58.9904077 106.4775456 111.3755446  58.5620891
 110.3549312 125.2545621  60.7410096 110.5286190 124.6892043  59.9883948
 110.8478203 126.0546516  60.5589586 102.9613889 110.5971874  61.1854453
 103.0829800 109.6688520  61.3845341 102.6715931 110.6110560  60.2732769
 116.2088703 118.0182044  62.3600396 116.6519849 117.2689369  61.9619519
 115.3315214 118.0092180  61.9774128 111.3424485 124.5712385  57.8406994
 112.0375389 125.1919078  58.0594309 111.6847635 123.7207737  58.1159372
 113.2415908 122.0212091  59.3694325 113.7667232 122.3599364  58.6443645
 113.1538260 121.0859106  59.1857460 104.9256568 128.0884074  63.7289578
 104.4861559 127.5960453  64.4222435 105.6764685 127.5457042  63.4881653
  95.6057513 122.1981941  64.6903140  94.7689421 121.7704116  64.5087141
  95.5781158 122.3914385  65.6273931 101.9343948 122.1826007  59.2770340
 102.0832068 122.8661471  58.6237013 102.7410391 122.1631097  59.7919796
 115.7521568 119.4887282  64.7522843 116.5868459 119.9277086  64.9160404
 115.8880697 119.0125935  63.9331089  99.6896581 118.2091184  60.2831409
  99.4442622 117.3053514  60.4811620  99.8592495 118.2108335  59.3410887
  98.9592228 113.9419542  57.7817571  98.2661473 114.0163897  57.1257607
  98.7143980 113.1779885  58.3039088 105.4339353 124.6774137  56.7482088
 104.8613320 125.2964324  56.2952560 106.0072147 125.2273499  57.2822010
 111.5014743 113.9232777  68.9328637 112.4532166 114.0230875  68.9540861
 111.3318193 113.1311046  69.4426721 108.6536613 124.9611287  57.8790670
 109.5867286 124.8956849  58.0823546 108.5659826 125.7967554  57.4205203
 111.2824630 124.2777157  54.8394618 111.2038261 123.9437021  55.7330376
 112.1034296 124.7698925  54.8386090 105.8186152 116.0134950  54.0898140
 106.7645256 115.8841158  54.1586558 105.4400397 115.2749612  54.5667569
 114.1297309 113.9349940  68.0929220 113.6136358 113.1508397  67.9059148
 115.0137258 113.6068657  68.2575739 111.7908036 107.6790956  64.0525032
 111.5932857 107.3706044  64.9368364 112.4007742 108.4052595  64.1822962
 104.0029069 113.9384926  54.0253026 103.0960524 113.6418039  54.1015739
 104.2805050 113.6414744  53.1587312  94.9207009 115.2591290  64.4752072
  94.6009793 114.4056598  64.1826446  94.3740437 115.4739868  65.2310039
 105.6191134 108.4821816  60.1797267 104.8091863 108.1368901  60.5552513
 106.3075551 108.1729360  60.7684878 107.5481683 107.5599863  61.8021564
 108.1012721 107.9795316  62.4611587 107.7851769 106.6335611  61.8444520
 102.7727853 110.7971861  54.1665005 103.6347017 111.1226760  54.4260822
 102.9578198 110.0103357  53.6538071 110.9260490 109.6700388  61.3100228
 110.3459159 110.3285192  60.9278280 110.6596423 108.8477732  60.8987645
 109.3764056 109.0705446  63.5121548 109.8763835 109.1821980  62.7035867
 110.0199664 108.7666498  64.1522357  96.7032012 118.8112455  64.3211208
  96.6802700 118.9100142  63.3693092  97.0132648 119.6577606  64.6428375
 109.7085368 111.8300478  60.3656576 108.8211223 112.1150129  60.1476771
 110.1239357 111.6694242  59.5183853 113.0599904 111.8546999  64.0810915
 113.8360294 112.3443452  64.3535532 112.3348038 112.2805053  64.5382785
 115.4972463 112.5674618  65.1384856 116.0916953 112.3270354  64.4278164
 115.5699046 111.8481749  65.7658392 108.8528581 121.5945153  54.4604596
 109.5564431 121.7995155  55.0762252 108.1291230 122.1621915  54.7253680
 109.6826392 117.3455014  60.5806866 109.6261593 117.8023566  59.7414499
 110.2354734 116.5845699  60.4029709 113.4931198 113.1344746  61.4056986
 113.2368132 112.7341382  62.2365193 112.8684066 113.8488540  61.2807125
 117.8043535 115.8740819  63.9128277 117.2443093 115.9434009  64.6859839
 117.1987039 115.6981804  63.1927773 110.7615279 122.0327682  56.5103056
 111.5960883 121.6008881  56.3280531 110.5999622 121.8609696  57.4379951
 110.4161171 118.5359795  57.8759395 110.3609975 118.3704067  56.9347840
 109.7907226 119.2435828  58.0321585 103.7257296 108.0367904  57.4544714
 103.7135966 108.9809744  57.6112985 104.6180718 107.8538050  57.1604175
 103.6546860 126.7136795  65.5412470 102.7042491 126.7138656  65.4276843
 103.9579346 125.9669529  65.0248505 119.3899554 132.5497333  66.6058233
 120.0277964 132.4304081  65.9021573 119.2720397 133.4978177  66.6646185
 116.1989260 132.5024761  66.5419758 115.8607772 132.3865826  65.6540292
 117.0679028 132.1015926  66.5220764 112.0576076 134.3560238  62.5316648
 111.4940941 134.2650175  61.7632936 111.9428471 133.5360142  63.0119141
 116.6809043 133.6559613  72.5005963 116.6697684 133.2612411  71.6286467
 116.8429683 132.9225686  73.0939735 109.6040508 135.8511429  65.3700869
 110.3961800 135.5102254  64.9547168 109.8437158 135.9606404  66.2903022
 117.6375635 138.0231205  57.8431113 116.9863614 138.6085286  57.4565127
 118.4319997 138.5537400  57.9026151 111.5631262 135.1120343  58.2418248
 112.3362138 134.5649330  58.1031124 111.9156661 135.9764592  58.4532709
 113.4016304 136.4396725  71.4485147 113.1106170 137.3442356  71.3331813
 114.0373289 136.4813252  72.1629217 114.3272511 133.8173573  68.0386507
 114.9236083 133.5929596  67.3243470 114.3847483 133.0758319  68.6411955
 113.8997539 131.2713009  55.8736698 114.1523060 130.7494530  55.1120161
 112.9622099 131.1079154  55.9763381 118.9440822 130.2748787  63.6811441
 119.7303912 129.8568210  63.3301858 119.2079527 131.1794879  63.8493089
 119.1150900 135.7121637  58.3800098 118.4796733 135.7856264  59.0921002
 118.7848306 136.3015236  57.7019177 124.3449249 130.2124020  64.5844419
 125.0774421 129.6423237  64.8182249 123.5888605 129.8245621  65.0250925
 113.6193828 133.1741115  58.0761073 113.5030086 132.4986018  58.7442157
 113.7296088 132.6873489  57.2593226 115.9625369 132.6351262  61.7807762
 115.5983576 132.1081883  62.4920683 116.8192485 132.2449731  61.6074247
 115.6030856 127.6641161  56.7769110 115.7705258 128.5321398  57.1439581
 115.4128025 127.8268443  55.8530400 118.3606189 136.1258140  68.4434941
 118.0606912 137.0283179  68.3350748 118.0157249 135.8590324  69.2956094
 111.8118671 132.5771937  64.4771645 110.8869167 132.4448151  64.6849337
 112.0603084 133.3566156  64.9741588 121.7603333 128.6440681  66.1232378
 120.8520210 128.5756089  65.8291139 121.7090929 129.1212625  66.9514204
 115.5820077 130.1198819  57.7615777 115.4619702 130.5655870  58.6001257
 114.8872665 130.4684137  57.2029315 109.1727482 132.2205211  65.3115434
 109.3019863 132.4739690  66.2254846 108.4924933 132.8132919  64.9920089
 113.3426969 142.8902461  61.4105908 113.2650999 143.8410286  61.4894389
 112.7388613 142.5448333  62.0680835 115.8344199 130.0630326  74.0667275
 115.0577533 130.6224246  74.0570140 116.4734762 130.5487109  74.5882145
 123.6264979 126.8457119  67.9010252 122.9839360 127.1389652  67.2550047
 123.1219908 126.7310039  68.7063449 121.2805143 130.5920292  58.5896111
 122.1922999 130.8247679  58.4143809 120.7714790 131.1757336  58.0271190
 114.0890571 132.8715779  73.6285242 114.8305256 133.4100823  73.3520066
 113.3827557 133.4982068  73.7856794 119.5645911 135.0144920  72.2257404
 119.9729267 134.5727330  71.4812036 118.8423172 134.4397547  72.4791597
 115.9176981 129.9517527  69.5990961 116.7638176 130.3756940  69.7425610
 115.8575619 129.2951151  70.2929524 119.8874725 135.5746111  65.9809693
 119.2583588 135.7391825  65.2785761 119.5000388 135.9887720  66.7520657
 123.7663957 136.5100548  63.3354056 123.0814996 136.8899450  62.7851090
 123.8507807 137.1195875  64.0686004 121.0214889 134.1560507  69.9349400
 121.2331784 134.7992267  69.2583781 120.9744637 133.3222824  69.4671330
 118.6241118 126.7678328  66.8385972 117.7625597 127.0659582  67.1302710
 118.6503553 126.9848727  65.9067005 115.4402687 135.3120519  63.2459778
 115.9041033 135.5908222  62.4564400 115.1759485 134.4103963  63.0632868
 112.3326768 134.8592000  66.1839541 112.9028125 135.2879269  65.5457026
 112.9234880 134.5774585  66.8823727 114.3771573 131.4343671  60.0549343
 115.0795617 131.8864715  60.5223269 114.0452202 130.7927490  60.6829236
 112.8251935 130.0255428  74.4300552 112.1950596 130.7071708  74.6635949
 112.7188023 129.9138509  73.4853691 108.1196907 129.6927224  65.3566477
 107.3295961 129.9484752  64.8806587 108.6108155 130.5075562  65.4618517
 122.1360717 137.0332463  68.1071757 122.9578161 136.6312650  67.8254439
 122.1323120 136.9300697  69.0587873 110.0711653 130.0571803  62.3149953
 109.2742816 130.1690497  62.8333449 109.8437245 130.3958455  61.4490844
 115.9017320 136.5816506  70.2632468 115.9661753 137.0436913  71.0990640
 115.1928244 135.9513871  70.3914778 106.4034610 129.9457714  67.7881467
 106.6542649 130.8304724  68.0539043 106.9394159 129.7662316  67.0156559
 130.2266710 133.3771211  64.4556729 129.4730418 132.8078609  64.3000733
 130.3614251 133.3433876  65.4027364 115.6165338 138.2484614  60.1311448
 115.4811013 139.0936149  60.5596296 116.1575151 138.4503891  59.3677382
 109.0694735 135.7660052  60.7039373 109.5819256 136.5603302  60.8544938
 109.7217448 135.0686342  60.6372975 110.8789620 138.8825808  62.7862126
 111.0556248 139.8043773  62.5983110 111.6746454 138.5684227  63.2156506
 110.1641977 130.9290440  72.6624290 110.0495492 130.0275697  72.9631389
 109.3086494 131.1754137  72.3109106 117.2433814 138.8708180  74.2611790
 116.7997669 138.0844559  73.9432695 117.9051028 139.0587331  73.5955681
 112.0020936 140.4003982  68.7872469 112.5528361 140.2721045  68.0149463
 111.1632411 140.6998871  68.4367362 119.3415052 139.1510980  72.2893192
 119.3233528 139.9719861  71.7973461 120.2634973 139.0265055  72.5143333
 115.7988107 136.6655110  73.1316700 116.3316443 135.9043398  72.9016008
 115.2702188 136.3728761  73.8740854 107.0343652 134.0948706  61.4798944
 107.8718874 134.5045714  61.2632652 107.2121920 133.1548148  61.4499138
 118.9308084 131.7623787  57.1682777 118.4154708 132.5328391  57.4071164
 118.6585393 131.0888923  57.7915838 116.5155195 126.6073487  62.2268015
 115.6596792 126.2180338  62.0473654 116.9282147 126.6865448  61.3667801
 114.2897228 124.2258560  65.6325757 115.1550225 124.0301369  65.2731646
 114.3574737 123.9968912  66.5595113 123.9042358 134.5156141  59.1035950
 123.1271801 134.1767301  58.6591112 124.5833839 134.5208764  58.4290915
 118.7194387 129.6350879  58.9942558 118.4144523 129.9497028  59.8452701
 119.6724830 129.7132299  59.0369891 117.1640819 135.7941102  60.6435512
 116.6362181 135.0593862  60.3308749 116.6628322 136.5715778  60.3975480
 122.1433665 133.9890123  65.7602558 121.4857340 134.6789384  65.8482687
 122.9474065 134.3786554  66.1036545 111.8959547 126.4560768  63.0042123
 112.4703299 126.2335950  62.2715316 112.4830529 126.5249463  63.7570725
 120.9539124 132.3434495  63.8106500 121.4671006 132.9764487  64.3128210
 121.6040348 131.7435691  63.4449860 112.2229134 128.4865229  57.0238009
 111.3866446 128.8239916  57.3447283 112.0833904 128.3514209  56.0865146
 114.1982215 123.3302017  61.7317193 113.5446627 123.0151034  61.1073808
 114.1562689 122.7077758  62.4577016 115.3093419 133.6121312  53.6470485
 114.4020481 133.3810566  53.8461634 115.8064451 132.8158932  53.8344466
 118.2161498 142.3218819  56.5667171 117.5423197 142.6250516  57.1752129
 118.6027320 143.1247900  56.2172628 117.4319955 129.8183951  66.0564840
 116.5142516 130.0398898  65.8986529 117.8480099 129.8930261  65.1976548
 118.2155003 131.2175366  61.1867521 118.9626822 131.7296764  60.8774643
 118.4846592 130.8959419  62.0471914 116.4881653 133.7133907  58.1694475
 115.5792872 133.4292940  58.2666945 116.5176737 134.1332986  57.3097782
 121.7200920 137.3240497  61.9385643 121.2663247 136.4831407  61.9950833
 121.0894887 137.9601895  62.2760423 120.6633840 128.2532483  63.1686310
 119.9256597 127.7409869  63.4996553 120.9160613 127.8132864  62.3569587
 120.1633860 139.1616993  62.8735461 120.4556834 139.7222050  62.1547826
 120.6732480 139.4545554  63.6288620 120.7645467 121.0308735  63.7628079
 121.0704344 120.1706098  63.4753994 121.4898072 121.6226355  63.5627073
 107.0569823 131.4339421  62.1509677 106.8594223 130.8408782  61.4260744
 106.5016487 131.1291631  62.8685616 115.0366547 131.3262528  64.2704270
 115.0915157 130.3736364  64.1946747 114.2257749 131.4821967  64.7545569
 116.1857741 135.2542651  55.5082554 115.7477171 134.5378510  55.0488191
 116.9268182 135.4818766  54.9467645 112.9758907 129.9439587  62.0294649
 112.1626772 130.2433758  62.4359841 113.4717901 129.5495276  62.7469131
 115.1267485 139.9397344  63.9628914 115.0843664 140.1658191  63.0337446
 116.0430184 139.7060719  64.1114715 118.5733119 130.4081412  70.8609543
 118.9282506 130.6352885  71.7204009 119.2205250 130.7399789  70.2386798
 124.3030856 133.5299848  61.5658872 124.1648754 133.7201444  60.6380061
 123.9467074 134.2919231  62.0226923 112.4672982 127.5157943  67.6455884
 113.1072361 127.3746702  66.9478848 111.6350512 127.2292456  67.2694486
 124.3300235 135.5976375  66.5770144 124.7636742 135.5051664  67.4253198
 125.0431816 135.5733875  65.9390160 113.2433286 136.8160373  63.7590877
 114.0373884 136.3210694  63.5573452 112.5324978 136.2878237  63.3958582
 118.0628130 139.1978469  68.1103244 118.1165152 139.7669405  68.8780960
 117.1942911 139.3680354  67.7457281 109.5516049 130.9603455  59.8350629
 108.6213637 130.8987911  60.0520591 109.6473521 130.4379408  59.0387271
 109.4701598 127.4858268  62.4228871 109.7308415 128.4003601  62.3138031
 110.2918770 127.0182711  62.5725484 110.9426523 128.8996025  69.5927696
 111.6149577 128.6913387  68.9440344 110.1156310 128.7018111  69.1532928
 125.1915785 135.6400076  69.1103029 125.3851675 136.5445886  69.3562304
 125.0916403 135.1807495  69.9441614 120.2530893 135.7906818  74.6843910
 120.1016400 135.5617370  73.7673993 120.2435573 136.7477420  74.6975255
 117.0216230 133.3638731  69.6690176 117.9508290 133.5149891  69.4959143
 116.6007260 133.4522752  68.8138823 115.8204562 137.3889395  67.4388714
 115.6815647 137.0208180  68.3114652 115.0319158 137.9037035  67.2672672
 116.4152714 142.4898492  58.7814250 116.5904469 142.0186535  59.5959873
 115.7285502 143.1164258  59.0095511 117.3709777 136.7670998  64.8277552
 117.0359609 136.7271768  65.7235201 116.8713722 136.1015714  64.3547962
 111.3454021 132.1738628  70.3530133 111.2073819 131.4418867  70.9541672
 112.2558944 132.0847528  70.0714320 120.3068968 134.1127032  55.1014611
 119.6898139 133.3873861  55.0047664 119.8385457 134.8736393  54.7581685
 113.9736321 131.8858587  69.8413812 114.6835940 131.2451780  69.8000431
 113.9305629 132.1371482  70.7639993 121.9623100 138.8225941  72.7620392
 121.9035646 138.1385161  72.0950975 122.3642618 139.5644931  72.3101018
 112.6865255 128.8723805  71.6609452 112.1502612 128.4214544  72.3131048
 112.0981964 129.0069714  70.9179916 110.9813799 145.6387855  65.5554110
 111.2210397 146.2706379  66.2333129 110.1382995 145.2875895  65.8419470
 112.0967514 128.3312457  54.2235915 111.2196981 128.2101258  53.8598162
 112.5725267 127.5398535  53.9714804 121.9640507 136.7865525  70.9934371
 121.0767286 136.4491447  71.1160770 122.5339058 136.0548556  71.2303137
 103.6169654 133.1189616  64.3177423 104.3040694 132.8051347  63.7298438
 103.4617783 134.0230981  64.0444674 108.4204377 128.0079813  68.7462446
 108.3362565 127.4005483  68.0112856 107.5987083 128.4988831  68.7471943
 115.4941661 141.4466977  67.9595614 115.4211832 142.2521949  68.4714919
 115.0519054 141.6458943  67.1343636 115.2831440 140.6838747  61.4698436
 114.4998962 141.2260427  61.5636660 115.9824185 141.2012727  61.8692677
 118.5928090 126.4933377  64.1132641 119.0896790 125.7403339  63.7933712
 117.8215072 126.5297693  63.5475851 126.4457848 132.1973742  65.7550933
 126.4347724 133.0798458  65.3844866 125.5775227 131.8445293  65.5605470
 117.9540344 141.3453811  70.1153773 118.6668316 141.9801276  70.0429675
 117.4630373 141.4417677  69.2993775 119.6757871 135.2505064  61.6871065
 118.7414150 135.3706526  61.5175769 119.8534540 134.3477531  61.4231075
 115.1763059 128.6350760  63.8404326 114.8060847 128.0821800  64.5285232
 115.6722152 128.0308893  63.2879326 123.0630422 131.0922383  62.2221099
 123.5290875 131.9250375  62.1481402 123.5137923 130.6267365  62.9266357
 113.0052258 139.0948255  70.9359344 113.7061717 139.7284738  71.0888738
 112.5347373 139.4362986  70.1754983 121.1306654 137.4366204  59.2207251
 121.4066497 137.3222799  60.1301125 120.2611152 137.0383689  59.1819424
 120.8053544 131.6492862  68.7611894 120.1524994 131.8968769  68.1064347
 121.1833924 130.8357000  68.4274372 117.7660718 141.6852555  62.8640065
 117.9483112 140.8674211  63.3267817 118.5893704 141.9020247  62.4264955
 118.1002883 140.6120740  60.1255113 118.6290649 140.1013195  59.5125275
 118.3631103 140.2963271  60.9900646 116.8541117 132.3912673  75.2477931
 116.1781754 132.2906802  75.9180307 117.6768751 132.2351887  75.7113929
 108.6019976 138.6284610  67.8690447 109.1873413 137.8828298  68.0018351
 108.4044814 138.9388566  68.7527110 111.4558631 141.6635857  62.8852889
 110.7869006 142.1481985  62.4016929 111.3171501 141.9105077  63.7996268
 103.1937631 131.1990210  66.5894890 103.2321730 130.6653801  67.3832008
 102.6877923 130.6725415  65.9705867 115.5963900 143.6979601  69.4835547
 116.1482208 143.8611222  70.2484633 115.9370093 144.2884038  68.8115572
 110.5728393 126.0454750  70.0857432 110.6369719 126.9069581  69.6734830
 110.5095513 125.4328752  69.3529791 110.0480665 128.1177883  73.7330466
 110.6752704 127.7354960  74.3467991 109.1908584 127.8992085  74.0986159
 120.4474774 138.5240858  75.3384202 120.9914678 139.1370816  74.8439157
 119.8661619 139.0820436  75.8551215 106.8246208 129.9254312  59.6648821
 107.1199649 129.0164990  59.6115875 105.9234244 129.9042051  59.3429823
 118.7332287 141.6461576  66.4699230 118.6083426 140.8451316  65.9610175
 119.3911378 142.1407769  65.9813199 110.3540455 128.0010309  65.6476370
 109.6327041 128.6146276  65.5083843 111.1433711 128.5368073  65.5693016
 120.7967195 139.4470596  68.0978780 119.8497531 139.3275947  68.0257106
 121.1449968 138.5593094  68.1805041 108.5534050 127.6068410  59.7888146
 108.2246756 126.7265789  59.6063252 108.9073420 127.5516078  60.6764536
 117.8013629 139.2423312  64.2983132 117.6538591 138.3140020  64.4790702
 118.6267122 139.2643403  63.8140207 111.6675873 127.8941379  60.1563624
 112.0071945 128.4227301  59.4342232 112.1147993 128.2321786  60.9322191
 121.4047750 140.0651871  65.3848005 122.3294298 139.8594732  65.2472456
 121.2363054 139.8168272  66.2937346 113.6544020 126.3916001  58.3556917
 114.3752382 126.7697254  57.8520634 113.0309324 127.1104878  58.4591895
 117.7975143 127.0961150  59.2915249 118.0138757 127.9785788  58.9904077
 117.3169210 126.7047363  58.5620891 112.5374364 130.0546863  65.8685994
 112.3918945 130.3687166  66.7610275 112.0599568 130.6731764  65.3156892
 114.3970747 127.0449411  65.9166883 114.3832316 126.1490505  65.5799181
 115.1143175 127.0520075  66.5505169 116.2496878 127.4786751  67.9620011
 115.9914656 128.4003822  67.9604341 115.7181918 127.0817186  68.6520475
 121.1943067 140.5837539  60.7410096 121.3679944 140.0183961  59.9883948
 121.6871958 141.3838433  60.5589586 107.0120026 132.5952208  68.8073655
 106.4673494 133.3712016  68.9393929 107.8899376 132.9423012  68.6492776
 113.8007643 125.9263792  61.1854453 113.9223554 124.9980438  61.3845341
 113.5109685 125.9402477  60.2732769 116.6698833 123.6118702  64.3221173
 116.6920530 123.6758035  63.3673153 117.0866892 122.7723211  64.5161679
 127.0482458 133.3473962  62.3600396 127.4913604 132.5981287  61.9619519
 126.1708968 133.3384098  61.9774128 122.1818239 139.9004303  57.8406994
 122.8769144 140.5210996  58.0594309 122.5241389 139.0499654  58.1159372
 107.7986048 131.7222104  71.7003812 107.0567784 131.8704739  72.2868442
 107.4778793 131.9830370  70.8370561 124.0809662 137.3504009  59.3694325
 124.6060986 137.6891281  58.6443645 123.9932015 136.4151024  59.1857460
 115.7429711 141.2638082  71.4984202 116.0516837 141.0187229  72.3706901
 116.5405193 141.4684721  71.0103072 115.7650323 143.4175992  63.7289578
 115.3255313 142.9252370  64.4222435 116.5158440 142.8748959  63.4881653
 108.2442662 139.6087533  63.7314206 109.0700682 139.3091305  63.3512850
 107.8936714 138.8395155  64.1803995 113.2124195 138.9614001  65.8011880
 112.5904204 138.2984706  65.5014108 113.8829062 138.9875133  65.1185528
 106.4451267 137.5273859  64.6903140 105.6083175 137.0996033  64.5087141
 106.4174912 137.7206302  65.6273931 113.2848723 127.4395789  75.3944386
 113.3336878 128.3157912  75.0122156 113.8271237 126.8973182  74.8216029
 123.7703568 137.9836912  74.6745523 122.9799112 137.9661051  74.1350022
 123.5336923 138.5225206  75.4294560 123.8901443 134.8329379  71.9878252
 123.9399448 134.6679386  72.9293774 123.7815367 133.9656638  71.5976132
 112.7737702 137.5117924  59.2770340 112.9225822 138.1953389  58.6237013
 113.5804145 137.4923014  59.7919796 121.1805206 130.8160307  73.3037558
 122.0815068 130.6766771  73.0121556 121.2553180 130.9814761  74.2435736
 115.5148011 128.1927161  72.1490745 114.6451320 128.4860727  71.8773333
 115.7507491 128.7767606  72.8698008 125.3919640 137.2526320  72.2320273
 125.1004448 137.6156301  73.0683734 124.7791771 136.5393328  72.0533605
 126.5915322 134.8179200  64.7522843 127.4262214 135.2569004  64.9160404
 126.7274451 134.3417853  63.9331089 123.6406828 132.3758935  70.7000331
 124.1160950 132.5686581  69.8919182 122.7172394 132.4318120  70.4543715
 110.5290335 133.5383102  60.2831409 110.2836377 132.6345432  60.4811620
 110.6986250 133.5400252  59.3410887 109.7985983 129.2711459  57.7817571
 109.1055227 129.3455814  57.1257607 109.5537734 128.5071803  58.3039088
 116.2733108 140.0066055  56.7482088 115.7007075 140.6256242  56.2952560
 116.8465901 140.5565416  57.2822010 122.3408497 129.2524695  68.9328637
 123.2925920 129.3522792  68.9540861 122.1711948 128.4602963  69.4426721
 119.4930367 140.2903205  57.8790670 120.4261040 140.2248766  58.0823546
 119.4053580 141.1259472  57.4205203 122.1218384 139.6069075  54.8394618
 122.0432016 139.2728939  55.7330376 122.9428051 140.0990843  54.8386090
 124.8196575 132.4730814  68.0470936 124.7872895 131.5346815  68.2330620
 125.4297199 132.5514851  67.3136761 116.6579906 131.3426867  54.0898140
 117.6039011 131.2133076  54.1586558 116.2794151 130.6041529  54.5667569
 124.9691064 129.2641858  68.0929220 124.4530112 128.4800315  67.9059148
 125.8531012 128.9360574  68.2575739 122.6301791 123.0082873  64.0525032
 122.4326612 122.6997962  64.9368364 123.2401496 123.7344512  64.1822962
 130.6373125 133.5346821  67.1876973 131.3676514 133.2732109  67.7484676
 130.0280071 132.7975543  67.2279041 128.7188422 131.6754684  67.7851424
 127.9921586 131.5410649  67.1767916 128.3035709 131.9831512  68.5908142
 116.5418599 135.3944614  75.5498797 117.4621608 135.5723213  75.7438844
 116.5068182 134.4500659  75.3978497 114.8422823 129.2676844  54.0253026
 113.9354279 128.9709957  54.1015739 115.1198804 128.9706662  53.1587312
 105.7600764 130.5883207  64.4752072 105.4403548 129.7348515  64.1826446
 105.2134192 130.8031785  65.2310039 109.5380671 133.3045648  68.1921579
 109.7566681 134.2362756  68.2109612 109.9506445 132.9453623  68.9776382
 116.4584889 123.8113734  60.1797267 115.6485617 123.4660818  60.5552513
 117.1469306 123.5021277  60.7684878 118.3875437 122.8891780  61.8021564
 118.9406476 123.3087234  62.4611587 118.6245524 121.9627528  61.8444520
 114.4108536 128.8778854  77.5824327 114.3105263 129.8273211  77.5136419
 114.1930079 128.5497093  76.7100398 113.6121608 126.1263779  54.1665005
 114.4740772 126.4518677  54.4260822 113.7971952 125.3395275  53.6538071
 105.6289024 134.2086119  66.4445194 104.9352495 133.7940071  65.9315148
 106.3762015 134.2506655  65.8478613 121.7654244 124.9992305  61.3100228
 121.1852913 125.6577110  60.9278280 121.4990177 124.1769650  60.8987645
 120.2157811 124.3997363  63.5121548 120.7157589 124.5113898  62.7035867
 120.8593419 124.0958416  64.1522357 114.2739807 132.3075993  76.3989389
 113.7906888 133.1076353  76.6053278 114.3600746 132.3183938  75.4456833
 107.5425766 134.1404372  64.3211208 107.5196454 134.2392060  63.3693092
 107.8526403 134.9869523  64.6428375 110.2013144 136.1980528  68.4357823
 111.1556398 136.1664470  68.3687754 110.0025668 135.7371151  69.2508049
 110.7912526 134.7681644  71.0028621 111.6105415 135.2625722  71.0263458
 111.0649334 133.8513612  70.9746188 120.5479122 127.1592396  60.3656576
 119.6604977 127.4442046  60.1476771 120.9633111 126.9986159  59.5183853
 123.8993658 127.1838917  64.0810915 124.6754049 127.6735369  64.3535532
 123.1741793 127.6096971  64.5382785 126.3366217 127.8966536  65.1384856
 126.9310708 127.6562272  64.4278164 126.4092801 127.1773667  65.7658392
 108.5563373 141.7400147  65.4528021 108.4217841 140.9800548  64.8866019
 108.1395435 142.4641047  64.9856810 119.6922336 136.9237071  54.4604596
 120.3958186 137.1287073  55.0762252 118.9684985 137.4913832  54.7253680
 120.5220146 132.6746932  60.5806866 120.4655347 133.1315483  59.7414499
 121.0748489 131.9137616  60.4029709 124.3324952 128.4636664  61.4056986
 124.0761886 128.0633299  62.2365193 123.7077820 129.1780458  61.2807125
 128.6437290 131.2032737  63.9128277 128.0836848 131.2725926  64.6859839
 128.0380793 131.0273722  63.1927773 111.7132499 142.6369464  65.6646463
 111.5964883 143.5814897  65.5625154 110.8924945 142.3343026  66.0532263
 121.6009033 137.3619600  56.5103056 122.4354637 136.9300798  56.3280531
 121.4393376 137.1901613  57.4379951 121.2554925 133.8651713  57.8759395
 121.2003729 133.6995984  56.9347840 120.6300981 134.5727746  58.0321585
 118.5700833 136.1700625  77.2012958 119.4391992 136.3441277  76.8399593
 118.0907584 136.9895042  77.0788688 114.5651051 123.3659822  57.4544714
 114.5529721 124.3101662  57.6112985 115.4574473 123.1829967  57.1604175
 112.7387013 143.2897726  68.8802392 113.6414259 143.3221336  69.1968887
 112.5124383 142.3598177  68.8948728 114.4940615 142.0428712  65.5412470
 113.5436246 142.0430574  65.4276843 114.7973101 141.2961447  65.0248505
 118.3803170 119.9602599  61.7090651 117.6135566 119.4061085  61.8547333
 118.7913875 120.0324467  62.5704802 110.3844931 126.2487394  75.7995832
 111.2476393 125.8924199  76.0099156 109.8110342 125.9101289  76.4871236
 130.2293308 147.8789251  66.6058233 130.8671718 147.7595998  65.9021573
 130.1114151 148.8270095  66.6646185 127.0383015 147.8316679  66.5419758
 126.7001526 147.7157744  65.6540292 127.9072783 147.4307844  66.5220764
 122.8969830 149.6852155  62.5316648 122.3334695 149.5942092  61.7632936
 122.7822225 148.8652060  63.0119141 127.5202798 148.9851531  72.5005963
 127.5091438 148.5904329  71.6286467 127.6823437 148.2517603  73.0939735
 120.4434262 151.1803347  65.3700869 121.2355554 150.8394172  64.9547168
 120.6830912 151.2898322  66.2903022 122.4025016 150.4412260  58.2418248
 123.1755892 149.8941247  58.1031124 122.7550415 151.3056510  58.4532709
 124.2410059 151.7688642  71.4485147 123.9499925 152.6734273  71.3331813
 124.8767043 151.8105170  72.1629217 125.1666266 149.1465491  68.0386507
 125.7629838 148.9221513  67.3243470 125.2241237 148.4050236  68.6411955
 124.7391294 146.6004926  55.8736698 124.9916815 146.0786448  55.1120161
 123.8015853 146.4371072  55.9763381 129.7834577 145.6040705  63.6811441
 130.5697666 145.1860128  63.3301858 130.0473281 146.5086797  63.8493089
 129.9544654 151.0413555  58.3800098 129.3190487 151.1148182  59.0921002
 129.6242061 151.6307154  57.7019177 135.1843004 145.5415938  64.5844419
 135.9168176 144.9715155  64.8182249 134.4282360 145.1537538  65.0250925
 124.4587583 148.5033032  58.0761073 124.3423841 147.8277936  58.7442157
 124.5689843 148.0165406  57.2593226 126.8019124 147.9643179  61.7807762
 126.4377331 147.4373800  62.4920683 127.6586240 147.5741648  61.6074247
 132.7068424 139.2537512  69.0439028 132.3751749 140.1232923  68.8200243
 132.1114038 138.9373796  69.7233058 126.4424611 142.9933079  56.7769110
 126.6099013 143.8613315  57.1439581 126.2521780 143.1560361  55.8530400
 129.1999944 151.4550058  68.4434941 128.9000667 152.3575097  68.3350748
 128.8551003 151.1882241  69.2956094 122.6512425 147.9063855  64.4771645
 121.7262922 147.7740069  64.6849337 122.8996838 148.6858074  64.9741588
 132.5997088 143.9732598  66.1232378 131.6913965 143.9048007  65.8291139
 132.5484683 144.4504543  66.9514204 126.4213831 145.4490737  57.7615777
 126.3013457 145.8947787  58.6001257 125.7266420 145.7976054  57.2029315
 120.0121236 147.5497128  65.3115434 120.1413617 147.8031607  66.2254846
 119.3318688 148.1424836  64.9920089 126.6737953 145.3922244  74.0667275
 125.8971287 145.9516164  74.0570140 127.3128516 145.8779027  74.5882145
 134.4658734 142.1749037  67.9010252 133.8233114 142.4681570  67.2550047
 133.9613663 142.0601957  68.7063449 132.1198898 145.9212210  58.5896111
 133.0316754 146.1539597  58.4143809 131.6108545 146.5049254  58.0271190
 124.9284326 148.2007697  73.6285242 125.6699010 148.7392741  73.3520066
 124.2221311 148.8273986  73.7856794 130.4039665 150.3436838  72.2257404
 130.8123021 149.9019248  71.4812036 129.6816927 149.7689465  72.4791597
 126.7570735 145.2809444  69.5990961 127.6031931 145.7048858  69.7425610
 126.6969373 144.6243069  70.2929524 130.7268480 150.9038028  65.9809693
 130.0977342 151.0683742  65.2785761 130.3394142 151.3179638  66.7520657
 129.9070181 142.9413813  71.2572134 129.6631113 143.6955873  70.7206410
 130.1830111 143.3199160  72.0919381 131.8608643 149.4852425  69.9349400
 132.0725539 150.1284185  69.2583781 131.8138392 148.6514742  69.4671330
 129.4634872 142.0970246  66.8385972 128.6019351 142.3951499  67.1302710
 129.4897307 142.3140645  65.9067005 126.2796442 150.6412436  63.2459778
 126.7434787 150.9200139  62.4564400 126.0153240 149.7395881  63.0632868
 123.1720523 150.1883918  66.1839541 123.7421880 150.6171186  65.5457026
 123.7628635 149.9066503  66.8823727 125.2165328 146.7635589  60.0549343
 125.9189371 147.2156632  60.5223269 124.8845956 146.1219408  60.6829236
 123.6645689 145.3547345  74.4300552 123.0344350 146.0363626  74.6635949
 123.5581777 145.2430427  73.4853691 118.9590662 145.0219141  65.3566477
 118.1689716 145.2776670  64.8806587 119.4501909 145.8367479  65.4618517
 120.9105407 145.3863721  62.3149953 120.1136570 145.4982415  62.8333449
 120.6830999 145.7250373  61.4490844 126.7411075 151.9108424  70.2632468
 126.8055507 152.3728831  71.0990640 126.0321999 151.2805789  70.3914778
 117.2428365 145.2749632  67.7881467 117.4936403 146.1596642  68.0539043
 117.7787913 145.0954233  67.0156559 126.4559092 153.5776531  60.1311448
 126.3204767 154.4228067  60.5596296 126.9968905 153.7795809  59.3677382
 122.9426432 139.6568111  76.7925803 122.5493378 139.1034310  77.4673448
 123.7592572 139.9678690  77.1832321 119.9088490 151.0951969  60.7039373
 120.4213010 151.8895220  60.8544938 120.5611203 150.3978260  60.6372975
 121.7183375 154.2117726  62.7862126 121.8950003 155.1335690  62.5983110
 122.5140208 153.8976145  63.2156506 125.8594393 141.0725990  74.3846060
 126.6004106 141.6733143  74.3050522 126.0912316 140.3303628  73.8264103
 121.0035731 146.2582358  72.6624290 120.8889246 145.3567615  72.9631389
 120.1480249 146.5046054  72.3109106 122.8414690 155.7295899  68.7872469
 123.3922115 155.6012963  68.0149463 122.0026166 156.0290788  68.4367362
 126.6381861 151.9947027  73.1316700 127.1710198 151.2335315  72.9016008
 126.1095942 151.7020679  73.8740854 129.8051556 137.1007093  68.6610342
 129.4615825 137.9908735  68.5849452 130.1730519 136.9108751  67.7979927
 117.8737407 149.4240624  61.4798944 118.7112629 149.8337632  61.2632652
 118.0515674 148.4840066  61.4499138 129.7701839 147.0915704  57.1682777
 129.2548462 147.8620309  57.4071164 129.4979147 146.4180840  57.7915838
 127.3548950 141.9365405  62.2268015 126.4990546 141.5472255  62.0473654
 127.7675902 142.0157366  61.3667801 128.8848096 139.4711748  66.6259575
 128.3812892 139.4341883  65.8127380 129.1778703 140.3804491  66.6856232
 125.1290982 139.5550478  65.6325757 125.9943979 139.3593287  65.2731646
 125.1968491 139.3260830  66.5595113 129.5588142 144.9642796  58.9942558
 129.2538278 145.2788946  59.8452701 130.5118584 145.0424216  59.0369891
 128.0034574 151.1233020  60.6435512 127.4755935 150.3885779  60.3308749
 127.5022077 151.9007696  60.3975480 132.9827420 149.3182040  65.7602558
 132.3251094 150.0081302  65.8482687 133.7867819 149.7078472  66.1036545
 122.7353301 141.7852686  63.0042123 123.3097053 141.5627867  62.2715316
 123.3224284 141.8541380  63.7570725 131.7932879 147.6726413  63.8106500
 132.3064760 148.3056405  64.3128210 132.4434103 147.0727608  63.4449860
 123.0622889 143.8157147  57.0238009 122.2260201 144.1531834  57.3447283
 122.9227658 143.6806127  56.0865146 125.0375969 138.6593935  61.7317193
 124.3840381 138.3442952  61.1073808 124.9956443 138.0369675  62.4577016
 126.1487174 148.9413230  53.6470485 125.2414236 148.7102483  53.8461634
 126.6458206 148.1450849  53.8344466 128.2713709 145.1475868  66.0564840
 127.3536271 145.3690815  65.8986529 128.6873853 145.2222179  65.1976548
 129.0548757 146.5467284  61.1867521 129.8020576 147.0588681  60.8774643
 129.3240347 146.2251337  62.0471914 127.3275407 149.0425825  58.1694475
 126.4186627 148.7584858  58.2666945 127.3570491 149.4624903  57.3097782
 131.5027594 143.5824400  63.1686310 130.7650351 143.0701787  63.4996553
 131.7554368 143.1424782  62.3569587 131.6039222 136.3600652  63.7628079
 131.9098099 135.4998016  63.4753994 132.3291827 136.9518273  63.5627073
 117.8963578 146.7631339  62.1509677 117.6987978 146.1700700  61.4260744
 117.3410242 146.4583549  62.8685616 125.8760301 146.6554445  64.2704270
 125.9308911 145.7028282  64.1946747 125.0651503 146.8113885  64.7545569
 127.0251495 150.5834568  55.5082554 126.5870925 149.8670427  55.0488191
 127.7661936 150.8110683  54.9467645 123.8152661 145.2731505  62.0294649
 123.0020527 145.5725676  62.4359841 124.3111656 144.8787194  62.7469131
 125.9661239 155.2689262  63.9628914 125.9237418 155.4950108  63.0337446
 126.8823938 155.0352637  64.1114715 129.4126873 145.7373330  70.8609543
 129.7676261 145.9644803  71.7204009 130.0599004 146.0691706  70.2386798
 135.1424610 148.8591766  61.5658872 135.0042509 149.0493362  60.6380061
 134.7860829 149.6211148  62.0226923 123.3066736 142.8449861  67.6455884
 123.9466115 142.7038620  66.9478848 122.4744267 142.5584374  67.2694486
 124.0827040 152.1452291  63.7590877 124.8767639 151.6502611  63.5573452
 123.3718732 151.6170154  63.3958582 120.3909804 146.2895373  59.8350629
 119.4607392 146.2279828  60.0520591 120.4867276 145.7671326  59.0387271
 120.3095353 142.8150186  62.4228871 120.5702170 143.7295519  62.3138031
 121.1312525 142.3474628  62.5725484 121.7820278 144.2287943  69.5927696
 122.4543331 144.0205305  68.9440344 120.9550064 144.0310029  69.1532928
 127.6845850 140.8549884  71.6093356 127.0373765 141.5539833  71.5157833
 128.4546865 141.2886028  71.9769605 131.0924648 151.1198736  74.6843910
 130.9410154 150.8909288  73.7673993 131.0829327 152.0769337  74.6975255
 127.8609984 148.6930649  69.6690176 128.7902044 148.8441808  69.4959143
 127.4401014 148.7814669  68.8138823 126.6598316 152.7181313  67.4388714
 126.5209402 152.3500098  68.3114652 125.8712912 153.2328953  67.2672672
 128.2103531 152.0962916  64.8277552 127.8753364 152.0563686  65.7235201
 127.7107477 151.4307632  64.3547962 122.1847775 147.5030546  70.3530133
 122.0467573 146.7710785  70.9541672 123.0952699 147.4139446  70.0714320
 131.1462723 149.4418950  55.1014611 130.5291893 148.7165778  55.0047664
 130.6779211 150.2028310  54.7581685 124.8130076 147.2150505  69.8413812
 125.5229694 146.5743697  69.8000431 124.7699384 147.4663400  70.7639993
 123.5259010 144.2015723  71.6609452 122.9896367 143.7506461  72.3131048
 122.9375718 144.3361632  70.9179916 122.9361269 143.6604374  54.2235915
 122.0590735 143.5393175  53.8598162 123.4119022 142.8690453  53.9714804
 114.4563409 148.4481534  64.3177423 115.1434449 148.1343264  63.7298438
 114.3011538 149.3522899  64.0444674 119.2598131 143.3371731  68.7462446
 119.1756320 142.7297400  68.0112856 118.4380837 143.8280749  68.7471943
 129.4321845 141.8225294  64.1132641 129.9290544 141.0695257  63.7933712
 128.6608826 141.8589611  63.5475851 130.5151626 150.5796981  61.6871065
 129.5807904 150.6998444  61.5175769 130.6928294 149.6769448  61.4231075
 126.0156814 143.9642677  63.8404326 125.6454601 143.4113718  64.5285232
 126.5115906 143.3600811  63.2879326 133.9024177 146.4214301  62.2221099
 134.3684629 147.2542292  62.1481402 134.3531677 145.9559282  62.9266357
 123.8446012 154.4240172  70.9359344 124.5455472 155.0576655  71.0888738
 123.3741127 154.7654904  70.1754983 131.8740840 138.7894888  66.2612000
 130.9603919 139.0199115  66.4294207 132.3033941 138.8733332  67.1126033
 131.6447298 146.9784780  68.7611894 130.9918748 147.2260687  68.1064347
 132.0227678 146.1648918  68.4274372 127.6934871 147.7204591  75.2477931
 127.0175508 147.6198720  75.9180307 128.5162505 147.5643805  75.7113929
 119.4413730 153.9576527  67.8690447 120.0267167 153.2120215  68.0018351
 119.2438569 154.2680484  68.7527110 122.2952385 156.9927775  62.8852889
 121.6262761 157.4773902  62.4016929 122.1565255 157.2396995  63.7996268
 114.0331385 146.5282128  66.5894890 114.0715485 145.9945718  67.3832008
 113.5271678 146.0017333  65.9705867 121.4122147 141.3746668  70.0857432
 121.4763474 142.2361499  69.6734830 121.3489268 140.7620670  69.3529791
 120.8874420 143.4469801  73.7330466 121.5146459 143.0646878  74.3467991
 120.0302339 143.2284003  74.0986159 117.6639963 145.2546230  59.6648821
 117.9593404 144.3456908  59.6115875 116.7627998 145.2333969  59.3429823
 121.1934210 143.3302226  65.6476370 120.4720795 143.9438194  65.5083843
 121.9827465 143.8659991  65.5693016 123.9960523 140.6656653  71.9217021
 124.5194925 140.9118949  72.6843331 123.7772856 141.4976688  71.5020159
 119.3927804 142.9360327  59.7888146 119.0640510 142.0557706  59.6063252
 119.7467175 142.8807996  60.6764536 122.5069627 143.2233297  60.1563624
 122.8465700 143.7519218  59.4342232 122.9541748 143.5613703  60.9322191
 125.2013068 141.6070348  69.6066692 124.8609889 140.8078161  70.0087372
 124.4952074 141.9072059  69.0343525 125.8529540 138.6919660  68.0594015
 126.6755609 138.2180138  67.9372905 126.0967604 139.4710144  68.5592701
 124.4937774 141.7207919  58.3556917 125.2146137 142.0989172  57.8520634
 123.8703079 142.4396796  58.4591895 128.6368897 142.4253068  59.2915249
 128.8532512 143.3077706  58.9904077 128.1562965 142.0339281  58.5620891
 123.3768119 145.3838781  65.8685994 123.2312699 145.6979084  66.7610275
 122.8993322 146.0023681  65.3156892 125.2364502 142.3741329  65.9166883
 125.2226070 141.4782422  65.5799181 125.9536930 142.3811993  66.5505169
 127.0890632 142.8078669  67.9620011 126.8308410 143.7295740  67.9604341
 126.5575673 142.4109104  68.6520475 117.8513781 147.9244125  68.8073655
 117.3067249 148.7003933  68.9393929 118.7293131 148.2714930  68.6492776
 124.6401398 141.2555709  61.1854453 124.7617309 140.3272355  61.3845341
 124.3503440 141.2694395  60.2732769 127.5092588 138.9410620  64.3221173
 127.5314285 139.0049953  63.3673153 127.9260647 138.1015128  64.5161679
 118.6379803 147.0514022  71.7003812 117.8961539 147.1996657  72.2868442
 118.3172547 147.3122287  70.8370561 119.0836416 154.9379450  63.7314206
 119.9094436 154.6383222  63.3512850 118.7330468 154.1687073  64.1803995
 124.0517950 154.2905919  65.8011880 123.4297959 153.6276624  65.5014108
 124.7222817 154.3167050  65.1185528 117.2845021 152.8565777  64.6903140
 116.4476930 152.4287951  64.5087141 117.2568667 153.0498220  65.6273931
 124.1242477 142.7687707  75.3944386 124.1730633 143.6449829  75.0122156
 124.6664991 142.2265100  74.8216029 123.6131457 152.8409842  59.2770340
 123.7619577 153.5245306  58.6237013 124.4197900 152.8214932  59.7919796
 132.0198960 146.1452224  73.3037558 132.9208823 146.0058689  73.0121556
 132.0946935 146.3106679  74.2435736 126.3541766 143.5219079  72.1490745
 125.4845075 143.8152645  71.8773333 126.5901246 144.1059524  72.8698008
 134.4800583 147.7050852  70.7000331 134.9554704 147.8978499  69.8919182
 133.5566148 147.7610038  70.4543715 121.3684089 148.8675020  60.2831409
 121.1230131 147.9637350  60.4811620 121.5380004 148.8692170  59.3410887
 129.0580799 139.7398696  69.6656165 129.5762743 140.4759723  69.3402654
 128.7035932 140.0462689  70.5002924 120.6379737 144.6003377  57.7817571
 119.9448982 144.6747732  57.1257607 120.3931489 143.8363721  58.3039088
 129.3093394 136.1598978  65.1857062 129.5895147 135.4922167  65.8117488
 130.0944000 136.3528074  64.6731725 133.1802252 144.5816612  68.9328637
 134.1319675 144.6814710  68.9540861 133.0105702 143.7894881  69.4426721
 131.2016631 141.6672196  69.1188038 130.6066563 141.9477208  68.4234526
 130.9166328 142.1566097  69.8904779 135.6590330 147.8022732  68.0470936
 135.6266650 146.8638733  68.2330620 136.2690953 147.8806769  67.3136761
 127.4973661 146.6718785  54.0898140 128.4432765 146.5424993  54.1586558
 127.1187905 145.9333447  54.5667569 135.8084818 144.5933776  68.0929220
 135.2923867 143.8092232  67.9059148 136.6924767 144.2652492  68.2575739
 133.4695545 138.3374791  64.0525032 133.2720366 138.0289879  64.9368364
 134.0795251 139.0636430  64.1822962 127.3812353 150.7236531  75.5498797
 128.3015363 150.9015130  75.7438844 127.3461936 149.7792577  75.3978497
 125.6816578 144.5968761  54.0253026 124.7748033 144.3001874  54.1015739
 125.9592559 144.2998580  53.1587312 116.5994518 145.9175125  64.4752072
 116.2797302 145.0640433  64.1826446 116.0527946 146.1323703  65.2310039
 120.3774426 148.6337566  68.1921579 120.5960435 149.5654674  68.2109612
 120.7900199 148.2745540  68.9776382 127.2978643 139.1405651  60.1797267
 126.4879372 138.7952736  60.5552513 127.9863060 138.8313195  60.7684878
 129.2269192 138.2183698  61.8021564 129.7800230 138.6379151  62.4611587
 129.4639278 137.2919446  61.8444520 125.2502291 144.2070772  77.5824327
 125.1499018 145.1565129  77.5136419 125.0323833 143.8789011  76.7100398
 124.4515362 141.4555697  54.1665005 125.3134526 141.7810595  54.4260822
 124.6365706 140.6687193  53.6538071 116.4682778 149.5378036  66.4445194
 115.7746250 149.1231989  65.9315148 117.2155769 149.5798573  65.8478613
 132.6047999 140.3284223  61.3100228 132.0246668 140.9869027  60.9278280
 132.3383931 139.5061568  60.8987645 131.0551565 139.7289281  63.5121548
 131.5551344 139.8405815  62.7035867 131.6987173 139.4250334  64.1522357
 125.1133561 147.6367910  76.3989389 124.6300643 148.4368271  76.6053278
 125.1994500 147.6475855  75.4456833 118.3819521 149.4696290  64.3211208
 118.3590209 149.5683977  63.3693092 118.6920157 150.3161441  64.6428375
 121.0406898 151.5272445  68.4357823 121.9950152 151.4956388  68.3687754
 120.8419422 151.0663069  69.2508049 121.6306281 150.0973561  71.0028621
 122.4499170 150.5917640  71.0263458 121.9043088 149.1805529  70.9746188
 131.3872877 142.4884314  60.3656576 130.4998732 142.7733964  60.1476771
 131.8026866 142.3278077  59.5183853 134.7387413 142.5130835  64.0810915
 135.5147803 143.0027287  64.3535532 134.0135547 142.9388889  64.5382785
 137.1759972 143.2258454  65.1384856 137.7704462 142.9854190  64.4278164
 137.2486555 142.5065584  65.7658392 119.3957127 157.0692065  65.4528021
 119.2611595 156.3092466  64.8866019 118.9789190 157.7932965  64.9856810
 131.3613901 148.0038849  60.5806866 131.3049102 148.4607401  59.7414499
 131.9142243 147.2429534  60.4029709 135.1718706 143.7928581  61.4056986
 134.9155641 143.3925217  62.2365193 134.5471575 144.5072375  61.2807125
 132.0948680 149.1943631  57.8759395 132.0397484 149.0287902  56.9347840
 131.4694735 149.9019664  58.0321585 116.8841195 144.4311695  71.7020818
 117.5300058 143.9210649  72.1908043 116.6758346 145.1680377  72.2764243
 129.4094587 151.4992543  77.2012958 130.2785747 151.6733195  76.8399593
 128.9301339 152.3186959  77.0788688 125.4044805 138.6951740  57.4544714
 125.3923475 139.6393580  57.6112985 126.2968227 138.5121885  57.1604175
 129.2196925 135.2894516  61.7090651 128.4529321 134.7353003  61.8547333
 129.6307630 135.3616385  62.5704802 121.2238686 141.5779312  75.7995832
 122.0870147 141.2216117  76.0099156 120.6504097 141.2393207  76.4871236
  43.5143274   2.2516032  53.3303539  44.1521684   2.1322779  52.6266880
  43.3964117   3.1996876  53.3891492  40.3232980   2.2043460  53.2665064
  39.9851491   2.0884525  52.3785599  41.1922748   1.8034625  53.2466070
  36.1819796   4.0578937  49.2561955  35.6184661   3.9668873  48.4878243
  36.0672191   3.2378841  49.7364448  40.8052763   3.3578312  59.2251270
  40.7941404   2.9631110  58.3531773  40.9673402   2.6244384  59.8185041
  33.7284228   5.5530128  52.0946176  34.5205519   5.2120953  51.6792475
  33.9680878   5.6625103  53.0148329  41.7619354   7.7249904  44.5676420
  41.1107334   8.3103985  44.1810434  42.5563717   8.2556099  44.6271458
  35.6874981   4.8139041  44.9663554  36.4605857   4.2668028  44.8276430
  36.0400380   5.6783291  45.1778016  37.5260024   6.1415424  58.1730454
  37.2349890   7.0461055  58.0577120  38.1617008   6.1831951  58.8874523
  38.4516231   3.5192272  54.7631813  39.0479803   3.2948295  54.0488776
  38.5091202   2.7777018  55.3657261  43.0684542  -0.0232514  50.4056748
  43.8547631  -0.4413091  50.0547165  43.3323246   0.8813578  50.5738396
  43.2394619   5.4140336  45.1045404  42.6040452   5.4874963  45.8166309
  42.9092026   6.0033935  44.4264484  48.4692969  -0.0857281  51.3089726
  49.2018141  -0.6558064  51.5427556  47.7132325  -0.4735680  51.7496232
  37.7437548   2.8759813  44.8006379  37.6273806   2.2004717  45.4687464
  37.8539808   2.3892187  43.9838532  40.0869089   2.3369961  48.5053069
  39.7227296   1.8100582  49.2165990  40.9436205   1.9468430  48.3319554
  45.9918390  -6.3735707  55.7684335  45.6601714  -5.5040296  55.5445550
  45.3964003  -6.6899423  56.4478365  42.4849909   5.8276839  55.1680247
  42.1850632   6.7301878  55.0596055  42.1400969   5.5609022  56.0201400
  35.9362391   2.2790636  51.2016952  35.0112887   2.1466850  51.4094644
  36.1846804   3.0584855  51.6986894  45.8847053  -1.6540621  52.8477685
  44.9763930  -1.7225212  52.5536446  45.8334649  -1.1768676  53.6759510
  33.2971202   1.9223910  52.0360741  33.4263583   2.1758388  52.9500153
  32.6168653   2.5151618  51.7165396  37.4670689  12.5921160  48.1351215
  37.3894719  13.5428985  48.2139696  36.8632333  12.2467032  48.7926141
  39.9587919  -0.2350975  60.7912582  39.1821253   0.3242945  60.7815447
  40.5978482   0.2505808  61.3127452  47.7508699  -3.4524182  54.6255559
  47.1083080  -3.1591649  53.9795353  47.2463628  -3.5671262  55.4308755
  45.4048863   0.2938991  45.3141418  46.3166719   0.5266378  45.1389115
  44.8958510   0.8776035  44.7516496  38.2134291   2.5734478  60.3530549
  38.9548975   3.1119522  60.0765373  37.5071276   3.2000767  60.5102101
  43.6889631   4.7163619  58.9502710  44.0972987   4.2746029  58.2057343
  42.9666892   4.1416246  59.2036903  40.0420701  -0.3463774  56.3236267
  40.8881896   0.0775639  56.4670916  39.9819338  -1.0030150  57.0174831
  44.0118445   5.2764809  52.7054999  43.3827308   5.4410524  52.0031067
  43.6244107   5.6906419  53.4765963  47.8907677   6.2119247  50.0599363
  47.2058715   6.5918149  49.5096396  47.9751527   6.8214574  50.7931311
  43.1920146  -2.6859406  57.9817441  42.9481078  -1.9317346  57.4451717
  43.4680077  -2.3074058  58.8164688  45.1458609   3.8579206  56.6594707
  45.3575504   4.5010966  55.9829088  45.0988357   3.0241523  56.1916637
  42.7484838  -3.5302973  53.5631279  41.8869317  -3.2321720  53.8548016
  42.7747272  -3.3132574  52.6312311  39.5646407   5.0139217  49.9705084
  40.0284753   5.2926920  49.1809707  39.3003205   4.1122662  49.7878175
  36.4570488   4.5610699  52.9084848  37.0271845   4.9897967  52.2702332
  37.0478600   4.2793284  53.6069033  38.5015293   1.1362370  46.7794650
  39.2039337   1.5883414  47.2468576  38.1695922   0.4946189  47.4074543
  36.9495655  -0.2725874  61.1545859  36.3194315   0.4090407  61.3881256
  36.8431743  -0.3842792  60.2098997  46.2604437   6.7351162  54.8317064
  47.0821880   6.3331349  54.5499746  46.2566840   6.6319396  55.7833180
  40.0261040   6.2835205  56.9877774  40.0905473   6.7455612  57.8235946
  39.3171964   5.6532570  57.1160084  54.3510430   3.0789910  51.1802035
  53.5974138   2.5097308  51.0246040  54.4857971   3.0452575  52.1272670
  39.7409058   7.9503312  46.8556755  39.6054733   8.7954848  47.2841603
  40.2818870   8.1522590  46.0922689  33.1938455   5.4678751  47.4284680
  33.7062976   6.2622001  47.5790245  33.8461168   4.7705041  47.3618281
  35.0033340   8.5844507  49.5107433  35.1799968   9.5062471  49.3228417
  35.7990173   8.2702926  49.9401813  41.3677534   8.5726879  60.9857097
  40.9241388   7.7863258  60.6678001  42.0294748   8.7606029  60.3200988
  36.1264655  10.1022681  55.5117775  36.6772081   9.9739744  54.7394769
  35.2876131  10.4017570  55.1612668  43.4658772   8.8529679  59.0138498
  43.4477248   9.6738560  58.5218767  44.3878692   8.7283754  59.2388639
  39.9231826   6.3673808  59.8562007  40.4560163   5.6062097  59.6261315
  39.3945908   6.0747460  60.5986161  31.1587372   3.7967405  48.2044250
  31.9962594   4.2064413  47.9877958  31.3365640   2.8566847  48.1744444
  43.0551804   1.4642485  43.8928083  42.5398428   2.2347090  44.1316471
  42.7829113   0.7907622  44.5161145  40.6398915  -3.6907814  48.9513322
  39.7840512  -4.0800963  48.7718960  41.0525867  -3.6115853  48.0913107
  48.0286078   4.2174840  45.8281257  47.2515521   3.8786000  45.3836419
  48.7077559   4.2227463  45.1536222  42.8438107  -0.6630422  45.7187865
  42.5388243  -0.3484273  46.5698008  43.7968549  -0.5849003  45.7615198
  41.2884539   5.4959801  47.3680819  40.7605901   4.7612560  47.0554056
  40.7872042   6.2734477  47.1220787  46.2677385   3.6908821  52.4847865
  45.6101060   4.3808083  52.5727993  47.0717784   4.0805253  52.8281851
  45.0782844   2.0453194  50.5351807  45.5914726   2.6783186  51.0373516
  45.7284068   1.4454390  50.1695167  42.3405218  12.0237518  43.2912478
  41.6666917  12.3269215  43.8997436  42.7271040  12.8266599  42.9417935
  41.5563675  -0.4797350  52.7810147  40.6386236  -0.2582403  52.6231835
  41.9723818  -0.4051040  51.9221854  42.3398723   0.9194065  47.9112827
  43.0870542   1.4315463  47.6019949  42.6090312   0.5978118  48.7717221
  40.6125373   3.4152606  44.8939782  39.7036592   3.1311639  44.9912251
  40.6420457   3.8351685  44.0343089  45.8444640   7.0259196  48.6630949
  45.3906967   6.1850105  48.7196140  45.2138607   7.6620594  49.0005729
  44.7877560  -2.0448818  49.8931617  44.0500317  -2.5571432  50.2241859
  45.0404333  -2.4848437  49.0814894  44.2877579   8.8635692  49.5980767
  44.5800554   9.4240749  48.8793133  44.7976200   9.1564253  50.3533926
  39.1610267   1.0281227  50.9949577  39.2158877   0.0755063  50.9192054
  38.3501469   1.1840666  51.4790875  40.3101461   4.9561350  42.2327860
  39.8720891   4.2397209  41.7733498  41.0511901   5.1837465  41.6712952
  37.1002627  -0.3541714  48.7539956  36.2870492  -0.0547543  49.1605148
  37.5961621  -0.7486025  49.4714438  39.2511205   9.6416043  50.6874221
  39.2087383   9.8676890  49.7582753  40.1673903   9.4079418  50.8360022
  42.6976838   0.1100111  57.5854850  43.0526226   0.3371584  58.4449316
  43.3448970   0.4418488  56.9632105  48.4274575   3.2318547  48.2904179
  48.2892474   3.4220143  47.3625368  48.0710794   3.9937930  48.7472230
  48.4543955   5.2995074  53.3015450  48.8880462   5.2070363  54.1498504
  49.1675536   5.2752574  52.6635466  37.3677005   6.5179072  50.4836183
  38.1617604   6.0229392  50.2818758  36.6568698   5.9896935  50.1203889
  42.1871850   8.8997168  54.8348551  42.2408872   9.4688104  55.6026267
  41.3186631   9.0699053  54.4702588  49.3159505   5.3418774  55.8348336
  49.5095395   6.2464585  56.0807611  49.2160123   4.8826193  56.6686921
  40.9695815  -4.7723335  58.3338663  40.3223730  -4.0733385  58.2403139
  41.7396831  -4.3387191  58.7014911  44.3774613   5.4925517  61.4089216
  44.2260120   5.2636069  60.4919300  44.3679293   6.4496119  61.4220561
  41.1459950   3.0657430  56.3935483  42.0752010   3.2168589  56.2204450
  40.7250980   3.1541451  55.5384129  39.9448281   7.0908094  54.1634020
  39.8059367   6.7226879  55.0359958  39.1562878   7.6055734  53.9917978
  40.5396433  12.1917191  45.5059557  40.7148189  11.7205234  46.3205180
  39.8529221  12.8182957  45.7340818  41.4953497   6.4689697  51.5522858
  41.1603329   6.4290467  52.4480508  40.9957442   5.8034413  51.0793268
  35.4697740   1.8757327  57.0775439  35.3317538   1.1437566  57.6786978
  36.3802664   1.7866227  56.7959627  44.4312688   3.8145731  41.8259918
  43.8141859   3.0892559  41.7292971  43.9629177   4.5755092  41.4826992
  38.0980041   1.5877286  56.5659119  38.8079660   0.9470479  56.5245737
  38.0549349   1.8390181  57.4885300  46.0866820   8.5244640  59.4865698
  46.0279366   7.8403860  58.8196281  46.4886338   9.2663630  59.0346324
  35.1057519  15.3406554  52.2799417  35.3454117  15.9725078  52.9578436
  34.2626715  14.9894594  52.5664776  46.0884227   6.4884224  57.7179678
  45.2011006   6.1510145  57.8406077  46.6582778   5.7567255  57.9548443
  39.6185381  11.1485676  54.6840921  39.5455552  11.9540647  55.1960226
  39.1762774  11.3477642  53.8588942  39.4075160  10.3857446  48.1943743
  38.6242682  10.9279126  48.2881967  40.1067905  10.9031426  48.5937984
  42.7171810  -3.8047925  50.8377948  43.2140510  -4.5577962  50.5179018
  41.9458792  -3.7683608  50.2721157  50.5701568   1.8992441  52.4796240
  50.5591444   2.7817156  52.1090173  49.7018947   1.5463992  52.2850777
  42.0784064  11.0472510  56.8399080  42.7912036  11.6819975  56.7674981
  41.5874093  11.1436376  56.0239082  43.8001591   4.9523763  48.4116371
  42.8657870   5.0725225  48.2421076  43.9778259   4.0496229  48.1476381
  39.3006779  -1.6630542  50.5649633  38.9304567  -2.2159501  51.2530538
  39.7965871  -2.2672408  50.0124633  47.1874142   0.7941082  48.9466406
  47.6534594   1.6269074  48.8726708  47.6381643   0.3286064  49.6511664
  37.1295978   8.7966953  57.6604651  37.8305437   9.4303436  57.8134045
  36.6591093   9.1381685  56.9000290  45.2550373   7.1384903  45.9452558
  45.5310217   7.0241498  46.8546432  44.3854872   6.7402388  45.9064731
  45.1590805  -6.8378331  52.9857307  44.2453885  -6.6074104  53.1539514
  45.5883906  -6.7539887  53.8371339  44.9297264   1.3511561  55.4857201
  44.2768714   1.5987468  54.8309654  45.3077643   0.5375699  55.1519678
  41.8904437  11.3871254  49.5885371  42.0726832  10.5692910  50.0513124
  42.7137423  11.6038946  49.1510261  42.2246603  10.3139439  46.8500420
  42.7534369   9.8031894  46.2370582  42.4874822   9.9981969  47.7145953
  40.9784837   2.0931372  61.9723238  40.3025474   1.9925501  62.6425613
  41.8012470   1.9370586  62.4359235  32.7263696   8.3303309  54.5935753
  33.3117132   7.5846996  54.7263657  32.5288534   8.6407265  55.4772417
  35.5802351  11.3654556  49.6098196  34.9112726  11.8500684  49.1262236
  35.4415221  11.6123776  50.5241574  39.7207619  13.3998299  56.2080854
  40.2725927  13.5629921  56.9729939  40.0613813  13.9902737  55.5360879
  44.5718494   8.2259557  62.0629508  45.1158398   8.8389515  61.5684463
  43.9905339   8.7839135  62.5796521  42.8576007  11.3480275  53.1944536
  42.7327146  10.5470015  52.6855482  43.5155098  11.8426468  52.7058506
  44.9210915   9.1489295  54.8224086  43.9741251   9.0294646  54.7502413
  45.2693688   8.2611793  54.9050348  41.9257348   8.9442011  51.0228438
  41.7782311   8.0158719  51.2036008  42.7510842   8.9662102  50.5385514
  45.5291470   9.7670570  52.1093311  46.4538018   9.5613431  51.9717762
  45.3606774   9.5186971  53.0182653  36.6618084  -0.2434438  52.5931300
  36.5162665   0.0705865  53.4855582  36.1843288   0.3750462  52.0402199
  40.3740598  -2.8194550  54.6865317  40.1158376  -1.8977479  54.6849648
  39.8425638  -3.2164115  55.3765781  45.3186786  10.2856237  47.4655403
  45.4923664   9.7202660  46.7129255  45.8115678  11.0857132  47.2834893
  31.1363746   2.2970907  55.5318961  30.5917214   3.0730714  55.6639236
  32.0143096   2.6441711  55.3738083  51.1726178   3.0492660  49.0845702
  51.6157324   2.2999986  48.6864826  50.2952688   3.0402797  48.7019434
  46.3061959   9.6023002  44.5652301  47.0012864  10.2229695  44.7839616
  46.6485109   8.7518353  44.8404679  48.2053382   7.0522707  46.0939632
  48.7304706   7.3909980  45.3688952  48.1175735   6.1169723  45.9102766
  39.8673431  10.9656781  58.2229508  40.1760557  10.7205928  59.0952208
  40.6648913  11.1703419  57.7348379  39.8894043  13.1194691  50.4534885
  39.4499033  12.6271069  51.1467742  40.6402160  12.5767658  50.2126960
  32.3686382   9.3106231  50.4559513  33.1944402   9.0110003  50.0758157
  32.0180434   8.5413854  50.9049302  37.3367915   8.6632700  52.5257187
  36.7147924   8.0003405  52.2259414  38.0072782   8.6893832  51.8430834
  30.5694987   7.2292558  51.4148447  29.7326895   6.8014732  51.2332448
  30.5418632   7.4225001  52.3519238  47.8947288   7.6855611  61.3990830
  47.1042832   7.6679750  60.8595329  47.6580643   8.2243905  62.1539866
  48.0145163   4.5348077  58.7123558  48.0643168   4.3698085  59.6539081
  47.9059087   3.6675336  58.3221439  36.8981422   7.2136623  46.0015647
  37.0469542   7.8972087  45.3482320  37.7047865   7.1941713  46.5165103
  45.3048926   0.5179005  60.0282865  46.2058788   0.3785470  59.7366863
  45.3796900   0.6833460  60.9681042  39.6391731  -2.1054140  58.8736051
  38.7695040  -1.8120574  58.6018640  39.8751211  -1.5213695  59.5943315
  49.5163360   6.9545019  58.9565580  49.2248168   7.3174999  59.7929041
  48.9035491   6.2412027  58.7778912  50.7159042   4.5197899  51.4768150
  51.5505934   4.9587703  51.6405710  50.8518171   4.0436552  50.6576396
  47.7650548   2.0777634  57.4245638  48.2404670   2.2705280  56.6164489
  46.8416114   2.1336819  57.1789021  34.6534055   3.2401801  47.0076716
  34.4080097   2.3364131  47.2056926  34.8229969   3.2418951  46.0656194
  42.3430765  -5.8874523  56.3901472  42.8612709  -5.1513496  56.0647960
  41.9885897  -5.5810530  57.2248231  40.3976827   9.7084754  43.4727395
  39.8250794  10.3274941  43.0197866  40.9709621  10.2584115  44.0067316
  46.4652217  -1.0456606  55.6573943  47.4169640  -0.9458509  55.6786167
  46.2955668  -1.8378338  56.1672028  44.4866597  -3.9601023  55.8433344
  43.8916529  -3.6796010  55.1479833  44.2016293  -3.4707122  56.6150085
  43.6174087   9.9921904  44.6035977  44.5504760   9.9267465  44.8068852
  43.5297300  10.8278170  44.1450509  46.2462104   9.3087774  41.5639924
  46.1675735   8.9747638  42.4575682  47.0671771   9.8009542  41.5631397
  48.9440295   2.1749513  54.7716243  48.9116615   1.2365514  54.9575927
  49.5540919   2.2533550  54.0382068  49.0934784  -1.0339443  54.8174526
  48.5773832  -1.8180987  54.6304455  49.9774732  -1.3620727  54.9821046
  46.7545510  -7.2898428  50.7770339  46.5570332  -7.5983340  51.6613671
  47.3645216  -6.5636789  50.9068269  54.7616845   3.2365520  53.9122280
  55.4920233   2.9750808  54.4729983  54.1523790   2.4994242  53.9524348
  52.8432142   1.3773383  54.5096731  52.1165306   1.2429348  53.9013223
  52.4279429   1.6850211  55.3153449  40.6662318   5.0963312  62.2744104
  41.5865328   5.2741911  62.4684151  40.6311901   4.1519358  62.1223803
  33.6624391   3.0064347  54.9166885  33.8810401   3.9381455  54.9354919
  34.0750165   2.6472321  55.7021689  38.5352256  -1.4202447  64.3069634
  38.4348983  -0.4708090  64.2381725  38.3173798  -1.7484208  63.4345704
  29.7532743   3.9104818  53.1690500  29.0596215   3.4958770  52.6560455
  30.5005734   3.9525354  52.5723919  45.8897964  -5.2988996  48.0345534
  45.3096633  -4.6404192  47.6523587  45.6233897  -6.1211651  47.6232952
  44.3401531  -5.8983938  50.2366855  44.8401309  -5.7867403  49.4281174
  44.9837138  -6.2022885  50.8767663  38.3983526   2.0094692  63.1234696
  37.9150608   2.8095052  63.3298585  38.4844465   2.0202637  62.1702140
  31.6669486   3.8423071  51.0456515  31.6440174   3.9410759  50.0938398
  31.9770122   4.6888222  51.3673681  34.3256864   5.8999226  55.1603130
  35.2800117   5.8683169  55.0933061  34.1269387   5.4389850  55.9753355
  34.9156246   4.4700342  57.7273927  35.7349135   4.9644421  57.7508764
  35.1893054   3.5532311  57.6991495  44.6722842  -3.1388905  47.0901883
  43.7848697  -2.8539255  46.8722077  45.0876831  -3.2995142  46.2429160
  48.0237378  -3.1142384  50.8056222  48.7997768  -2.6245932  51.0780839
  47.2985512  -2.6884330  51.2628091  50.4609937  -2.4014765  51.8630163
  51.0554428  -2.6419029  51.1523471  50.5336521  -3.1207635  52.4903699
  32.6807093  11.4418846  52.1773327  32.5461561  10.6819247  51.6111325
  32.2639155  12.1659746  51.7102116  43.8166056   6.6255769  41.1849903
  44.5201906   6.8305772  41.8007558  43.0928704   7.1932531  41.4498986
  44.6463866   2.3765631  47.3052173  44.5899067   2.8334182  46.4659805
  45.1992208   1.6156315  47.1275016  48.4568672  -1.8344637  48.1302292
  48.2005606  -2.2348002  48.9610500  47.8321540  -1.1200844  48.0052432
  52.7681010   0.9051436  50.6373584  52.2080568   0.9744625  51.4105146
  52.1624513   0.7292420  49.9173080  35.8376218  12.3388163  52.3891770
  35.7208603  13.2833595  52.2870460  35.0168665  12.0361724  52.7777569
  45.7252753   7.0638299  43.2348363  46.5598357   6.6319497  43.0525838
  45.5637096   6.8920312  44.1625257  45.3798645   3.5670412  44.6004702
  45.3247449   3.4014683  43.6593146  44.7544700   4.2746445  44.7566892
  42.6944552   5.8719324  63.9258265  43.5635712   6.0459976  63.5644900
  42.2151304   6.6913741  63.8033994  36.8630733  12.9916425  55.6047698
  37.7657979  13.0240035  55.9214193  36.6368103  12.0616876  55.6194034
  38.6184335  11.7447411  52.2657777  37.6679966  11.7449273  52.1522149
  38.9216821  10.9980146  51.7493812  54.3537028  17.5807950  53.3303539
  54.9915438  17.4614697  52.6266880  54.2357871  18.5288794  53.3891492
  51.1626734  17.5335378  53.2665064  50.8245246  17.4176443  52.3785599
  52.0316503  17.1326543  53.2466070  47.0213550  19.3870854  49.2561955
  46.4578415  19.2960791  48.4878243  46.9065945  18.5670759  49.7364448
  51.6446517  18.6870230  59.2251270  51.6335158  18.2923028  58.3531773
  51.8067157  17.9536302  59.8185041  44.5677982  20.8822046  52.0946176
  45.3599274  20.5412870  51.6792475  44.8074632  20.9917021  53.0148329
  52.6013109  23.0541822  44.5676420  51.9501089  23.6395902  44.1810434
  53.3957472  23.5848017  44.6271458  46.5268736  20.1430959  44.9663554
  47.2999612  19.5959946  44.8276430  46.8794135  21.0075208  45.1778016
  48.3653779  21.4707341  58.1730454  48.0743645  22.3752972  58.0577120
  49.0010763  21.5123869  58.8874523  49.2909985  18.8484190  54.7631813
  49.8873558  18.6240212  54.0488776  49.3484957  18.1068935  55.3657261
  48.8635014  16.3023625  42.5982004  49.1160534  15.7805146  41.8365467
  47.9259573  16.1389771  42.7008688  53.9078297  15.3059404  50.4056748
  54.6941386  14.8878827  50.0547165  54.1717001  16.2105496  50.5738396
  54.0788374  20.7432254  45.1045404  53.4434207  20.8166880  45.8166309
  53.7485780  21.3325853  44.4264484  59.3086724  15.2434637  51.3089726
  60.0411896  14.6733854  51.5427556  58.5526079  14.8556237  51.7496232
  48.5831303  18.2051731  44.8006379  48.4667561  17.5296635  45.4687464
  48.6933562  17.7184105  43.9838532  50.9262843  17.6661878  48.5053069
  50.5621051  17.1392499  49.2165990  51.7829959  17.2760347  48.3319554
  56.8312144   8.9556211  55.7684335  56.4995469   9.8251622  55.5445550
  56.2357757   8.6392495  56.4478365  50.5668330  12.6951778  43.5014417
  50.7342733  13.5632014  43.8684888  50.3765500  12.8579060  42.5775706
  53.3243664  21.1568757  55.1680247  53.0244387  22.0593796  55.0596055
  52.9794723  20.8900940  56.0201400  46.7756145  17.6082554  51.2016952
  45.8506642  17.4758768  51.4094644  47.0240558  18.3876773  51.6986894
  56.7240807  13.6751297  52.8477685  55.8157685  13.6066705  52.5536446
  56.6728403  14.1523242  53.6759510  50.5457551  15.1509435  44.4861084
  50.4257177  15.5966486  45.3246564  49.8510140  15.4994753  43.9274622
  44.1364956  17.2515827  52.0360741  44.2657337  17.5050306  52.9500153
  43.4562407  17.8443535  51.7165396  48.3064443  27.9213077  48.1351215
  48.2288473  28.8720902  48.2139696  47.7026087  27.5758950  48.7926141
  50.7981673  15.0940943  60.7912582  50.0215007  15.6534863  60.7815447
  51.4372236  15.5797726  61.3127452  58.5902454  11.8767735  54.6255559
  57.9476834  12.1700269  53.9795353  58.0857382  11.7620656  55.4308755
  56.2442617  15.6230909  45.3141418  57.1560474  15.8558295  45.1389115
  55.7352265  16.2067953  44.7516496  49.0528045  17.9026396  60.3530549
  49.7942730  18.4411440  60.0765373  48.3465031  18.5292685  60.5102101
  54.5283385  20.0455536  58.9502710  54.9366741  19.6037947  58.2057343
  53.8060647  19.4708164  59.2036903  50.8814455  14.9828143  56.3236267
  51.7275650  15.4067557  56.4670916  50.8213093  14.3261768  57.0174831
  54.8512200  20.6056727  52.7054999  54.2221062  20.7702441  52.0031067
  54.4637862  21.0198337  53.4765963  58.7301432  21.5411165  50.0599363
  58.0452470  21.9210066  49.5096396  58.8145281  22.1506492  50.7931311
  54.0313901  12.6432512  57.9817441  53.7874832  13.3974572  57.4451717
  54.3073831  13.0217859  58.8164688  55.9852363  19.1871124  56.6594707
  56.1969259  19.8302884  55.9829088  55.9382112  18.3533441  56.1916637
  53.5878592  11.7988945  53.5631279  52.7263071  12.0970198  53.8548016
  53.6141027  12.0159343  52.6312311  50.4040162  20.3431135  49.9705084
  50.8678507  20.6218838  49.1809707  50.1396960  19.4414580  49.7878175
  47.2964243  19.8902617  52.9084848  47.8665600  20.3189885  52.2702332
  47.8872355  19.6085201  53.6069033  49.3409048  16.4654288  46.7794650
  50.0433091  16.9175331  47.2468576  49.0089676  15.8238106  47.4074543
  47.7889409  15.0566044  61.1545859  47.1588070  15.7382325  61.3881256
  47.6825497  14.9449126  60.2098997  43.0834382  14.7237840  52.0811783
  42.2933436  14.9795369  51.6051894  43.5745629  15.5386178  52.1863824
  57.0998191  22.0643079  54.8317064  57.9215635  21.6623267  54.5499746
  57.0960594  21.9611314  55.7833180  45.0349127  15.0882419  49.0395260
  44.2380290  15.2001114  49.5578756  44.8074719  15.4269072  48.1736150
  50.8654795  21.6127123  56.9877774  50.9299227  22.0747530  57.8235946
  50.1565719  20.9824488  57.1160084  41.3672085  14.9768331  54.5126774
  41.6180123  15.8615341  54.7784350  41.9031633  14.7972932  53.7401866
  65.1904184  18.4081828  51.1802035  64.4367893  17.8389226  51.0246040
  65.3251725  18.3744492  52.1272670  50.5802812  23.2795230  46.8556755
  50.4448487  24.1246766  47.2841603  51.1212625  23.4814508  46.0922689
  47.0670152   9.3586810  63.5171110  46.6737098   8.8053009  64.1918754
  47.8836292   9.6697388  63.9077628  44.0332210  20.7970668  47.4284680
  44.5456730  21.5913918  47.5790245  44.6854923  20.0996959  47.3618281
  45.8427094  23.9136424  49.5107433  46.0193723  24.8354389  49.3228417
  46.6383928  23.5994844  49.9401813  49.9838113  10.7744689  61.1091367
  50.7247826  11.3751842  61.0295829  50.2156036  10.0322327  60.5509409
  45.1279451  15.9601056  59.3869596  45.0132966  15.0586314  59.6876695
  44.2723969  16.2064753  59.0354413  52.2071289  23.9018797  60.9857097
  51.7635143  23.1155175  60.6678001  52.8688502  24.0897947  60.3200988
  46.9658410  25.4314598  55.5117775  47.5165835  25.3031662  54.7394769
  46.1269886  25.7309487  55.1612668  54.3052527  24.1821597  59.0138498
  54.2871002  25.0030478  58.5218767  55.2272447  24.0575672  59.2388639
  50.7625581  21.6965726  59.8562007  51.2953918  20.9354014  59.6261315
  50.2339662  21.4039378  60.5986161  53.9295276   6.8025792  55.3855648
  53.5859545   7.6927434  55.3094759  54.2974239   6.6127450  54.5225233
  41.9981127  19.1259322  48.2044250  42.8356349  19.5356331  47.9877958
  42.1759394  18.1858765  48.1744444  53.8945559  16.7934403  43.8928083
  53.3792182  17.5639008  44.1316471  53.6222867  16.1199539  44.5161145
  51.4792670  11.6384104  48.9513322  50.6234266  11.2490954  48.7718960
  51.8919621  11.7176065  48.0913107  53.0091816   9.1730447  53.3504882
  52.5056612   9.1360582  52.5372687  53.3022423  10.0823190  53.4101538
  49.2534702   9.2569177  52.3571063  50.1187699   9.0611986  51.9976953
  49.3212211   9.0279529  53.2840420  58.8679833  19.5466758  45.8281257
  58.0909276  19.2077917  45.3836419  59.5471314  19.5519381  45.1536222
  53.6831862  14.6661495  45.7187865  53.3781997  14.9807644  46.5698008
  54.6362304  14.7442915  45.7615198  52.1278294  20.8251719  47.3680819
  51.5999655  20.0904478  47.0554056  51.6265796  21.6026395  47.1220787
  57.1071140  19.0200739  52.4847865  56.4494814  19.7100000  52.5727993
  57.9111539  19.4097171  52.8281851  46.8597021  11.4871385  49.7287430
  47.4340773  11.2646566  48.9960623  47.4468004  11.5560079  50.4816031
  55.9176598  17.3745112  50.5351807  56.4308480  18.0075104  51.0373516
  56.5677822  16.7746307  50.1695167  47.1866608  13.5175846  43.7483315
  46.3503921  13.8550532  44.0692590  47.0471378  13.3824826  42.8110452
  49.1619689   8.3612634  48.4562499  48.5084101   8.0461651  47.8319114
  49.1200163   7.7388374  49.1822322  50.2730894  18.6431929  40.3715792
  49.3657956  18.4121182  40.5706941  50.7701926  17.8469548  40.5589773
  53.1798973  27.3529436  43.2912478  52.5060671  27.6561133  43.8997436
  53.5664795  28.1558516  42.9417935  52.3957429  14.8494567  52.7810147
  51.4779991  15.0709514  52.6231835  52.8117573  14.9240878  51.9221854
  53.1792477  16.2485983  47.9112827  53.9264296  16.7607380  47.6019949
  53.4484067  15.9270036  48.7717221  51.4519127  18.7444524  44.8939782
  50.5430347  18.4603557  44.9912251  51.4814211  19.1643602  44.0343089
  56.6838395  22.3551113  48.6630949  56.2300722  21.5142023  48.7196140
  56.0532361  22.9912512  49.0005729  55.6271314  13.2843099  49.8931617
  54.8894071  12.7720485  50.2241859  55.8798088  12.8443481  49.0814894
  55.1271334  24.1927610  49.5980767  55.4194308  24.7532667  48.8793133
  55.6369954  24.4856171  50.3533926  55.7282942   6.0619351  50.4873386
  56.0341818   5.2016715  50.1999301  56.4535546   6.6536971  50.2872380
  42.0207298  16.4650038  48.8754984  41.8231697  15.8719399  48.1506050
  41.4653962  16.1602248  49.5930923  50.0004021  16.3573144  50.9949577
  50.0552631  15.4046981  50.9192054  49.1895223  16.5132583  51.4790875
  51.1495215  20.2853267  42.2327860  50.7114645  19.5689126  41.7733498
  51.8905656  20.5129382  41.6712952  47.9396381  14.9750204  48.7539956
  47.1264247  15.2744375  49.1605148  48.4355375  14.5805893  49.4714438
  50.0904959  24.9707961  50.6874221  50.0481138  25.1968807  49.7582753
  51.0067658  24.7371336  50.8360022  53.5370593  15.4392029  57.5854850
  53.8919981  15.6663502  58.4449316  54.1842724  15.7710405  56.9632105
  59.2668330  18.5610464  48.2904179  59.1286228  18.7512060  47.3625368
  58.9104549  19.3229847  48.7472230  47.4310456  12.5468560  54.3701191
  48.0709835  12.4057319  53.6724154  46.5987987  12.2603073  53.9939793
  59.2937709  20.6286991  53.3015450  59.7274216  20.5362281  54.1498504
  60.0069290  20.6044492  52.6635466  48.2070760  21.8470990  50.4836183
  49.0011358  21.3521310  50.2818758  47.4962452  21.3188853  50.1203889
  53.0265604  24.2289086  54.8348551  53.0802627  24.7980022  55.6026267
  52.1580386  24.3990971  54.4702588  44.5153523  15.9914072  46.5595936
  43.5851111  15.9298527  46.7765898  44.6110995  15.4690024  45.7632577
  44.4339072  12.5168885  49.1474178  44.6945890  13.4314218  49.0383338
  45.2556245  12.0493327  49.2970790  45.9063998  13.9306642  56.3173002
  46.5787051  13.7224004  55.6685651  45.0793784  13.7328728  55.8778234
  60.1553259  20.6710692  55.8348336  60.3489149  21.5756503  56.0807611
  60.0553877  20.2118111  56.6686921  51.8089570  10.5568583  58.3338663
  51.1617485  11.2558532  58.2403139  52.5790585  10.9904727  58.7014911
  55.2168368  20.8217435  61.4089216  55.0653874  20.5927986  60.4919300
  55.2073047  21.7788036  61.4220561  51.9853704  18.3949348  56.3935483
  52.9145764  18.5460507  56.2204450  51.5644734  18.4833368  55.5384129
  50.7842036  22.4200012  54.1634020  50.6453122  22.0518796  55.0359958
  49.9956632  22.9347651  53.9917978  51.3790188  27.5209108  45.5059557
  51.5541944  27.0497152  46.3205180  50.6922976  28.1474875  45.7340818
  52.3347251  21.7981615  51.5522858  51.9997084  21.7582385  52.4480508
  51.8351197  21.1326331  51.0793268  46.3091495  17.2049245  57.0775439
  46.1711293  16.4729484  57.6786978  47.2196418  17.1158145  56.7959627
  55.2706443  19.1437649  41.8259918  54.6535613  18.4184477  41.7292971
  54.8022931  19.9047009  41.4826992  48.9373796  16.9169204  56.5659119
  49.6473414  16.2762396  56.5245737  48.8943104  17.1682099  57.4885300
  56.9260574  23.8536557  59.4865698  56.8673120  23.1695777  58.8196281
  57.3280093  24.5955547  59.0346324  47.6502730  13.9034422  58.3854758
  47.1140087  13.4525160  59.0376355  47.0619438  14.0380331  57.6425223
  45.9451273  30.6698471  52.2799417  46.1847871  31.3016995  52.9578436
  45.1020470  30.3186511  52.5664776  47.0604989  13.3623073  40.9481222
  46.1834455  13.2411874  40.5843469  47.5362742  12.5709152  40.6960111
  56.9277982  21.8176141  57.7179678  56.0404760  21.4802063  57.8406077
  57.4976533  21.0859173  57.9548443  38.5807129  18.1500233  51.0422729
  39.2678169  17.8361963  50.4543745  38.4255257  19.0541598  50.7689981
  43.3841851  13.0390430  55.4707753  43.3000040  12.4316099  54.7358163
  42.5624557  13.5299448  55.4717249  50.4579135  26.4777594  54.6840921
  50.3849306  27.2832565  55.1960226  50.0156528  26.6769559  53.8588942
  50.2468915  25.7149364  48.1943743  49.4636437  26.2571044  48.2881967
  50.9461660  26.2323343  48.5937984  53.5565565  11.5243993  50.8377948
  54.0534264  10.7713955  50.5179018  52.7852546  11.5608310  50.2721157
  61.4095322  17.2284359  52.4796240  61.3985198  18.1109074  52.1090173
  60.5412702  16.8755909  52.2850777  52.9177819  26.3764428  56.8399080
  53.6305791  27.0111892  56.7674981  52.4267847  26.4728294  56.0239082
  54.6395345  20.2815680  48.4116371  53.7051624  20.4017143  48.2421076
  54.8172014  19.3788147  48.1476381  50.1400533  13.6661376  50.5649633
  49.7698321  13.1132417  51.2530538  50.6359626  13.0619510  50.0124633
  58.0267897  16.1233000  48.9466406  58.4928349  16.9560991  48.8726708
  58.4775397  15.6577981  49.6511664  47.9689732  24.1258871  57.6604651
  48.6699192  24.7595354  57.8134045  47.4984847  24.4673603  56.9000290
  56.0944128  22.4676821  45.9452558  56.3703972  22.3533416  46.8546432
  55.2248627  22.0694306  45.9064731  55.9984560   8.4913587  52.9857307
  55.0847639   8.7217813  53.1539514  56.4277661   8.5752031  53.8371339
  55.7691018  16.6803479  55.4857201  55.1162468  16.9279386  54.8309654
  56.1471398  15.8667617  55.1519678  52.7298192  26.7163172  49.5885371
  52.9120586  25.8984828  50.0513124  53.5531178  26.9330864  49.1510261
  53.0640357  25.6431357  46.8500420  53.5928124  25.1323811  46.2370582
  53.3268577  25.3273887  47.7145953  51.8178591  17.4223290  61.9723238
  51.1419228  17.3217419  62.6425613  52.6406225  17.2662503  62.4359235
  43.5657450  23.6595226  54.5935753  44.1510887  22.9138914  54.7263657
  43.3682289  23.9699183  55.4772417  46.4196105  26.6946474  49.6098196
  45.7506481  27.1792601  49.1262236  46.2808975  26.9415694  50.5241574
  38.1575105  16.2300826  53.3140196  38.1959204  15.6964417  54.1077314
  37.6515398  15.7036032  52.6951174  50.5601374  28.7290217  56.2080854
  51.1119682  28.8921839  56.9729939  50.9007567  29.3194655  55.5360879
  45.5365867  11.0765367  56.8102739  45.6007194  11.9380198  56.3980136
  45.4732987  10.4639369  56.0775097  45.0118140  13.1488499  60.4575773
  45.6390178  12.7665577  61.0713297  44.1546059  12.9302701  60.8231465
  55.4112248  23.5551475  62.0629508  55.9552152  24.1681433  61.5684463
  54.8299093  24.1131053  62.5796521  41.7883682  14.9564929  46.3894128
  42.0837124  14.0475607  46.3361181  40.8871718  14.9352668  46.0675130
  53.6969761  26.6772193  53.1944536  53.5720901  25.8761932  52.6855482
  54.3548852  27.1718386  52.7058506  45.3177929  13.0320925  52.3721676
  44.5964515  13.6456893  52.2329150  46.1071185  13.5678690  52.2938322
  55.7604670  24.4781213  54.8224086  54.8135005  24.3586564  54.7502413
  56.1087443  23.5903711  54.9050348  48.1204243  10.3675352  58.6462328
  48.6438645  10.6137648  59.4088637  47.9016576  11.1995386  58.2265465
  43.5171524  12.6379026  46.5133453  43.1884230  11.7576405  46.3308559
  43.8710895  12.5826695  47.4009842  52.7651103  24.2733929  51.0228438
  52.6176065  23.3450636  51.2036008  53.5904596  24.2954020  50.5385514
  46.6313347  12.9251996  46.8808931  46.9709420  13.4537917  46.1587539
  47.0785468  13.2632402  47.6567497  56.3685225  25.0962488  52.1093311
  57.2931772  24.8905349  51.9717762  56.2000528  24.8478889  53.0182653
  49.3256788  11.3089047  56.3311999  48.9853608  10.5096860  56.7332679
  48.6195794  11.6090758  55.7588832  49.9773260   8.3938359  54.7839322
  50.7999329   7.9198837  54.6618212  50.2211323   9.1728843  55.2838008
  48.6181494  11.4226618  45.0802223  49.3389857  11.8007870  44.5765940
  47.9946798  12.1415494  45.1837201  52.7612617  12.1271767  46.0160556
  52.9776232  13.0096404  45.7149384  52.2806684  11.7357980  45.2866198
  47.5011839  15.0857480  52.5931300  47.3556419  15.3997783  53.4855582
  47.0237042  15.7042380  52.0402199  49.3608221  12.0760028  52.6412190
  49.3469790  11.1801121  52.3044488  50.0780650  12.0830692  53.2750476
  51.2134352  12.5097368  54.6865317  50.9552130  13.4314439  54.6849648
  50.6819393  12.1127803  55.3765781  56.1580541  25.6148155  47.4655403
  56.3317418  25.0494578  46.7129255  56.6509432  26.4149050  47.2834893
  41.9757501  17.6262824  55.5318961  41.4310969  18.4022632  55.6639236
  42.8536851  17.9733629  55.3738083  48.7645117  10.9574408  47.9099760
  48.8861029  10.0291054  48.1090647  48.4747160  10.9713094  46.9978075
  51.6336308   8.6429318  51.0466480  51.6558005   8.7068652  50.0918459
  52.0504367   7.8033827  51.2406986  62.0119932  18.3784578  49.0845702
  62.4551078  17.6291903  48.6864826  61.1346442  18.3694714  48.7019434
  57.1455713  24.9314920  44.5652301  57.8406618  25.5521612  44.7839616
  57.4878864  24.0810271  44.8404679  42.7623523  16.7532720  58.4249118
  42.0205259  16.9015356  59.0113749  42.4416267  17.0140986  57.5615868
  59.0447137  22.3814625  46.0939632  59.5698461  22.7201898  45.3688952
  58.9569489  21.4461640  45.9102766  50.7067185  26.2948699  58.2229508
  51.0154312  26.0497845  59.0952208  51.5042667  26.4995337  57.7348379
  50.7287797  28.4486608  50.4534885  50.2892788  27.9562987  51.1467742
  51.4795914  27.9059576  50.2126960  43.2080136  24.6398149  50.4559513
  44.0338156  24.3401921  50.0758157  42.8574188  23.8705772  50.9049302
  48.1761669  23.9924617  52.5257187  47.5541679  23.3295322  52.2259414
  48.8466536  24.0185749  51.8430834  41.4088741  22.5584476  51.4148447
  40.5720650  22.1306650  51.2332448  41.3812387  22.7516919  52.3519238
  48.2486197  12.4706405  62.1189693  48.2974352  13.3468528  61.7367462
  48.7908711  11.9283798  61.5461336  58.7341043  23.0147529  61.3990830
  57.9436586  22.9971668  60.8595329  58.4974397  23.5535822  62.1539866
  58.8538918  19.8639995  58.7123558  58.9036923  19.6990002  59.6539081
  58.7452841  18.9967254  58.3221439  47.7375176  22.5428541  46.0015647
  47.8863297  23.2264005  45.3482320  48.5441620  22.5233631  46.5165103
  56.1442680  15.8470923  60.0282865  57.0452543  15.7077388  59.7366863
  56.2190655  16.0125378  60.9681042  50.4785485  13.2237778  58.8736051
  49.6088795  13.5171344  58.6018640  50.7144966  13.8078223  59.5943315
  60.3557114  22.2836937  58.9565580  60.0641923  22.6466917  59.7929041
  59.7429246  21.5703945  58.7778912  61.5552797  19.8489816  51.4768150
  62.3899688  20.2879620  51.6405710  61.6911926  19.3728470  50.6576396
  58.6044303  17.4069551  57.4245638  59.0798424  17.5997198  56.6164489
  57.6809868  17.4628737  57.1789021  45.4927809  18.5693718  47.0076716
  45.2473851  17.6656048  47.2056926  45.6623724  18.5710869  46.0656194
  53.1824519   9.4417395  56.3901472  53.7006463  10.1778422  56.0647960
  52.8279652   9.7481388  57.2248231  44.7623457  14.3022076  44.5062877
  44.0692702  14.3766431  43.8502913  44.5175209  13.5382420  45.0284394
  53.4337113   5.8617677  51.9102368  53.7138867   5.1940866  52.5362795
  54.2187720   6.0546773  51.3977032  51.2370582  25.0376671  43.4727395
  50.6644549  25.6566858  43.0197866  51.8103376  25.5876033  44.0067316
  57.3045972  14.2835311  55.6573943  58.2563395  14.3833409  55.6786167
  57.1349422  13.4913580  56.1672028  55.3260351  11.3690894  55.8433344
  54.7310283  11.6495907  55.1479833  55.0410048  11.8584795  56.6150085
  54.4567842  25.3213821  44.6035977  55.3898515  25.2559383  44.8068852
  54.3691054  26.1570088  44.1450509  57.0855858  24.6379692  41.5639924
  57.0069490  24.3039555  42.4575682  57.9065525  25.1301460  41.5631397
  59.7834050  17.5041431  54.7716243  59.7510370  16.5657432  54.9575927
  60.3934673  17.5825468  54.0382068  51.6217380  16.3737484  40.8143447
  52.5676485  16.2443692  40.8831865  51.2431625  15.6352146  41.2912875
  59.9328538  14.2952474  54.8174526  59.4167587  13.5110931  54.6304455
  60.8168487  13.9671191  54.9821046  57.5939265   8.0393490  50.7770339
  57.3964086   7.7308578  51.6613671  58.2038970   8.7655129  50.9068269
  65.6010599  18.5657438  53.9122280  66.3313988  18.3042726  54.4729983
  64.9917545  17.8286160  53.9524348  63.6825896  16.7065300  54.5096731
  62.9559060  16.5721265  53.9013223  63.2673183  17.0142129  55.3153449
  51.5056073  20.4255230  62.2744104  52.4259082  20.6033829  62.4684151
  51.4705656  19.4811275  62.1223803  49.8060298  14.2987460  40.7498332
  48.8991753  14.0020573  40.8261046  50.0836279  14.0017278  39.8832618
  40.7238238  15.6193824  51.1997379  40.4041022  14.7659132  50.9071753
  40.1771666  15.8342402  51.9555346  44.5018145  18.3356265  54.9166885
  44.7204155  19.2673373  54.9354919  44.9143919  17.9764239  55.7021689
  51.4222363   8.8424350  46.9042574  50.6123092   8.4971435  47.2797820
  52.1106780   8.5331894  47.4930185  53.3512912   7.9202397  48.5266870
  53.9043950   8.3397850  49.1856893  53.5882998   6.9938145  48.5689826
  49.3746011  13.9089470  64.3069634  49.2742738  14.8583827  64.2381725
  49.1567553  13.5807709  63.4345704  48.5759082  11.1574396  40.8910311
  49.4378246  11.4829294  41.1506129  48.7609426  10.3705891  40.3783377
  40.5926498  19.2396735  53.1690500  39.8989969  18.8250688  52.6560455
  41.3399489  19.2817272  52.5723919  56.7291719  10.0302922  48.0345534
  56.1490388  10.6887726  47.6523587  56.4627651   9.2080267  47.6232952
  55.1795285   9.4307980  50.2366855  55.6795063   9.5424514  49.4281174
  55.8230893   9.1269033  50.8767663  49.2377281  17.3386609  63.1234696
  48.7544363  18.1386969  63.3298585  49.3238220  17.3494554  62.1702140
  42.5063240  19.1714989  51.0456515  42.4833929  19.2702676  50.0938398
  42.8163877  20.0180140  51.3673681  45.1650618  21.2291144  55.1603130
  46.1193872  21.1975086  55.0933061  44.9663142  20.7681768  55.9753355
  45.7550000  19.7992260  57.7273927  46.5742889  20.2936339  57.7508764
  46.0286808  18.8824228  57.6991495  55.5116597  12.1903012  47.0901883
  54.6242452  12.4752663  46.8722077  55.9270586  12.0296776  46.2429160
  58.8631133  12.2149533  50.8056222  59.6391523  12.7045986  51.0780839
  58.1379267  12.6407588  51.2628091  61.3003691  12.9277153  51.8630163
  61.8948182  12.6872889  51.1523471  61.3730275  12.2084283  52.4903699
  43.5200847  26.7710764  52.1773327  43.3855315  26.0111164  51.6111325
  43.1032909  27.4951663  51.7102116  54.6559810  21.9547687  41.1849903
  55.3595660  22.1597690  41.8007558  53.9322459  22.5224449  41.4498986
  55.4857620  17.7057548  47.3052173  55.4292822  18.1626100  46.4659805
  56.0385963  16.9448233  47.1275016  59.2962426  13.4947280  48.1302292
  59.0399361  13.0943916  48.9610500  58.6715294  14.2091074  48.0052432
  63.6074764  16.2343353  50.6373584  63.0474322  16.3036543  51.4105146
  63.0018268  16.0584338  49.9173080  46.6769973  27.6680081  52.3891770
  46.5602357  28.6125513  52.2870460  45.8562419  27.3653642  52.7777569
  56.5646508  22.3930216  43.2348363  57.3992111  21.9611415  43.0525838
  56.4030850  22.2212230  44.1625257  56.2192400  18.8962330  44.6004702
  56.1641203  18.7306601  43.6593146  55.5938455  19.6038362  44.7566892
  41.0084915  14.1330394  58.4266124  41.6543778  13.6229348  58.9153349
  40.8002066  14.8699076  59.0009550  53.5338307  21.2011241  63.9258265
  54.4029467  21.3751894  63.5644900  53.0545058  22.0205658  63.8033994
  49.5288525   8.3970439  44.1790020  49.5167195   9.3412278  44.3358291
  50.4211947   8.2140584  43.8849482  47.7024487  28.3208342  55.6047698
  48.6051734  28.3531953  55.9214193  47.4761857  27.3908793  55.6194034
  49.4578089  27.0739329  52.2657777  48.5073720  27.0741191  52.1522149
  49.7610575  26.3272064  51.7493812  53.3440645   4.9913215  48.4335957
  52.5773040   4.4371702  48.5792640  53.7551350   5.0635084  49.2950109
  45.3482406  11.2798011  62.5241138  46.2113867  10.9234816  62.7344463
  44.7747816  10.9411906  63.2116543  65.1930783  32.9099867  53.3303539
  65.8309193  32.7906615  52.6266880  65.0751626  33.8580711  53.3891492
  62.0020489  32.8627295  53.2665064  61.6639000  32.7468360  52.3785599
  62.8710257  32.4618461  53.2466070  57.8607305  34.7162772  49.2561955
  57.2972170  34.6252709  48.4878243  57.7459700  33.8962676  49.7364448
  62.4840272  34.0162147  59.2251270  62.4728913  33.6214945  58.3531773
  62.6460911  33.2828220  59.8185041  55.4071737  36.2113963  52.0946176
  56.1993028  35.8704788  51.6792475  55.6468387  36.3208939  53.0148329
  63.4406863  38.3833740  44.5676420  62.7894843  38.9687820  44.1810434
  64.2351226  38.9139935  44.6271458  57.3662490  35.4722877  44.9663554
  58.1393366  34.9251864  44.8276430  57.7187889  36.3367126  45.1778016
  59.2047533  36.7999259  58.1730454  58.9137399  37.7044890  58.0577120
  59.8404517  36.8415787  58.8874523  60.1303740  34.1776108  54.7631813
  60.7267312  33.9532130  54.0488776  60.1878711  33.4360853  55.3657261
  59.7028768  31.6315543  42.5982004  59.9554289  31.1097064  41.8365467
  58.7653327  31.4681688  42.7008688  64.7472051  30.6351321  50.4056748
  65.5335140  30.2170744  50.0547165  65.0110755  31.5397413  50.5738396
  64.9182128  36.0724172  45.1045404  64.2827961  36.1458798  45.8166309
  64.5879535  36.6617770  44.4264484  70.1480478  30.5726554  51.3089726
  70.8805650  30.0025771  51.5427556  69.3919834  30.1848155  51.7496232
  59.4225057  33.5343649  44.8006379  59.3061315  32.8588552  45.4687464
  59.5327317  33.0476023  43.9838532  61.7656598  32.9953796  48.5053069
  61.4014805  32.4684417  49.2165990  62.6223714  32.6052265  48.3319554
  67.6705899  24.2848129  55.7684335  67.3389223  25.1543540  55.5445550
  67.0751512  23.9684413  56.4478365  61.4062085  28.0243696  43.5014417
  61.5736487  28.8923932  43.8684888  61.2159254  28.1870977  42.5775706
  64.1637418  36.4860675  55.1680247  63.8638141  37.3885713  55.0596055
  63.8188478  36.2192858  56.0201400  57.6149900  32.9374471  51.2016952
  56.6900396  32.8050685  51.4094644  57.8634313  33.7168691  51.6986894
  67.5634562  29.0043215  52.8477685  66.6551439  28.9358623  52.5536446
  67.5122158  29.4815160  53.6759510  61.3851306  30.4801353  44.4861084
  61.2650931  30.9258404  45.3246564  60.6903894  30.8286671  43.9274622
  54.9758711  32.5807745  52.0360741  55.1051092  32.8342224  52.9500153
  54.2956162  33.1735453  51.7165396  59.1458198  43.2504995  48.1351215
  59.0682228  44.2012820  48.2139696  58.5419841  42.9050867  48.7926141
  61.6375428  30.4232860  60.7912582  60.8608762  30.9826780  60.7815447
  62.2765991  30.9089643  61.3127452  69.4296208  27.2059653  54.6255559
  68.7870589  27.4992186  53.9795353  68.9251137  27.0912573  55.4308755
  67.0836372  30.9522826  45.3141418  67.9954228  31.1850213  45.1389115
  66.5746019  31.5359871  44.7516496  59.8921800  33.2318314  60.3530549
  60.6336484  33.7703358  60.0765373  59.1858785  33.8584602  60.5102101
  65.3677140  35.3747454  58.9502710  65.7760496  34.9329865  58.2057343
  64.6454401  34.8000082  59.2036903  61.7208210  30.3120061  56.3236267
  62.5669405  30.7359474  56.4670916  61.6606847  29.6553685  57.0174831
  65.6905954  35.9348645  52.7054999  65.0614817  36.0994359  52.0031067
  65.3031616  36.3490254  53.4765963  69.5695186  36.8703083  50.0599363
  68.8846224  37.2501984  49.5096396  69.6539035  37.4798409  50.7931311
  64.8707655  27.9724429  57.9817441  64.6268587  28.7266490  57.4451717
  65.1467586  28.3509777  58.8164688  66.8246118  34.5163042  56.6594707
  67.0363013  35.1594802  55.9829088  66.7775866  33.6825358  56.1916637
  64.4272347  27.1280862  53.5631279  63.5656826  27.4262116  53.8548016
  64.4534781  27.3451261  52.6312311  61.2433916  35.6723053  49.9705084
  61.7072262  35.9510756  49.1809707  60.9790714  34.7706497  49.7878175
  58.1357997  35.2194534  52.9084848  58.7059354  35.6481803  52.2702332
  58.7266109  34.9377119  53.6069033  60.1802802  31.7946205  46.7794650
  60.8826846  32.2467249  47.2468576  59.8483431  31.1530024  47.4074543
  58.6283164  30.3857962  61.1545859  57.9981824  31.0674243  61.3881256
  58.5219252  30.2741043  60.2098997  53.9228136  30.0529758  52.0811783
  53.1327190  30.3087286  51.6051894  54.4139384  30.8678096  52.1863824
  67.9391946  37.3934997  54.8317064  68.7609389  36.9915184  54.5499746
  67.9354349  37.2903231  55.7833180  55.8742882  30.4174337  49.0395260
  55.0774045  30.5293031  49.5578756  55.6468474  30.7560989  48.1736150
  61.7048549  36.9419040  56.9877774  61.7692982  37.4039448  57.8235946
  60.9959473  36.3116405  57.1160084  52.2065839  30.3060248  54.5126774
  52.4573878  31.1907258  54.7784350  52.7425388  30.1264850  53.7401866
  76.0297939  33.7373746  51.1802035  75.2761647  33.1681144  51.0246040
  76.1645480  33.7036410  52.1272670  61.4196567  38.6087148  46.8556755
  61.2842242  39.4538684  47.2841603  61.9606379  38.8106425  46.0922689
  57.9063906  24.6878728  63.5171110  57.5130852  24.1344926  64.1918754
  58.7230047  24.9989306  63.9077628  54.8725964  36.1262586  47.4284680
  55.3850485  36.9205836  47.5790245  55.5248677  35.4288876  47.3618281
  56.6820849  39.2428342  49.5107433  56.8587477  40.1646307  49.3228417
  57.4777682  38.9286761  49.9401813  60.8231867  26.1036607  61.1091367
  61.5641581  26.7043760  61.0295829  61.0549790  25.3614245  60.5509409
  55.9673205  31.2892974  59.3869596  55.8526721  30.3878231  59.6876695
  55.1117723  31.5356671  59.0354413  63.0465043  39.2310714  60.9857097
  62.6028897  38.4447093  60.6678001  63.7082257  39.4189865  60.3200988
  57.8052164  40.7606516  55.5117775  58.3559590  40.6323579  54.7394769
  56.9663640  41.0601405  55.1612668  65.1446281  39.5113514  59.0138498
  65.1264757  40.3322395  58.5218767  66.0666201  39.3867589  59.2388639
  61.6019335  37.0257644  59.8562007  62.1347672  36.2645932  59.6261315
  61.0733417  36.7331296  60.5986161  64.7689030  22.1317710  55.3855648
  64.4253300  23.0219351  55.3094759  65.1367993  21.9419367  54.5225233
  52.8374881  34.4551240  48.2044250  53.6750103  34.8648249  47.9877958
  53.0153149  33.5150682  48.1744444  64.7339313  32.1226321  43.8928083
  64.2185937  32.8930925  44.1316471  64.4616622  31.4491457  44.5161145
  62.3186424  26.9676022  48.9513322  61.4628020  26.5782872  48.7718960
  62.7313376  27.0467982  48.0913107  63.8485571  24.5022365  53.3504882
  63.3450366  24.4652500  52.5372687  64.1416178  25.4115108  53.4101538
  60.0928457  24.5861095  52.3571063  60.9581453  24.3903903  51.9976953
  60.1605966  24.3571446  53.2840420  69.7073587  34.8758675  45.8281257
  68.9303030  34.5369835  45.3836419  70.3865068  34.8811299  45.1536222
  64.5225616  29.9953413  45.7187865  64.2175752  30.3099562  46.5698008
  65.4756058  30.0734833  45.7615198  62.9672048  36.1543636  47.3680819
  62.4393410  35.4196396  47.0554056  62.4659551  36.9318313  47.1220787
  67.9464894  34.3492657  52.4847865  67.2888569  35.0391918  52.5727993
  68.7505293  34.7389089  52.8281851  57.6990776  26.8163303  49.7287430
  58.2734528  26.5938484  48.9960623  58.2861758  26.8851997  50.4816031
  66.7570353  32.7037029  50.5351807  67.2702235  33.3367021  51.0373516
  67.4071577  32.1038225  50.1695167  58.0260363  28.8467764  43.7483315
  57.1897675  29.1842450  44.0692590  57.8865132  28.7116743  42.8110452
  60.0013443  23.6904551  48.4562499  59.3477856  23.3753569  47.8319114
  59.9593918  23.0680292  49.1822322  61.1124648  33.9723846  40.3715792
  60.2051710  33.7413100  40.5706941  61.6095680  33.1761466  40.5589773
  64.0192727  42.6821354  43.2912478  63.3454426  42.9853050  43.8997436
  64.4058549  43.4850434  42.9417935  63.2351184  30.1786485  52.7810147
  62.3173745  30.4001432  52.6231835  63.6511327  30.2532795  51.9221854
  64.0186232  31.5777901  47.9112827  64.7658051  32.0899298  47.6019949
  64.2877821  31.2561953  48.7717221  62.2912882  34.0736441  44.8939782
  61.3824101  33.7895474  44.9912251  62.3207966  34.4935520  44.0343089
  67.5232149  37.6843031  48.6630949  67.0694476  36.8433941  48.7196140
  66.8926116  38.3204429  49.0005729  66.4665069  28.6135017  49.8931617
  65.7287826  28.1012403  50.2241859  66.7191842  28.1735399  49.0814894
  65.9665088  39.5219528  49.5980767  66.2588063  40.0824585  48.8793133
  66.4763709  39.8148089  50.3533926  66.5676696  21.3911269  50.4873386
  66.8735573  20.5308632  50.1999301  67.2929301  21.9828889  50.2872380
  52.8601052  31.7941955  48.8754984  52.6625452  31.2011316  48.1506050
  52.3047716  31.4894166  49.5930923  60.8397776  31.6865062  50.9949577
  60.8946386  30.7338898  50.9192054  60.0288978  31.8424501  51.4790875
  61.9888970  35.6145185  42.2327860  61.5508399  34.8981044  41.7733498
  62.7299410  35.8421300  41.6712952  58.7790136  30.3042122  48.7539956
  57.9658001  30.6036292  49.1605148  59.2749130  29.9097810  49.4714438
  60.9298714  40.2999879  50.6874221  60.8874892  40.5260725  49.7582753
  61.8461412  40.0663253  50.8360022  64.3764347  30.7683946  57.5854850
  64.7313735  30.9955419  58.4449316  65.0236479  31.1002323  56.9632105
  70.1062084  33.8902382  48.2904179  69.9679983  34.0803978  47.3625368
  69.7498303  34.6521765  48.7472230  58.2704210  27.8760477  54.3701191
  58.9103590  27.7349236  53.6724154  57.4381741  27.5894991  53.9939793
  70.1331464  35.9578909  53.3015450  70.5667971  35.8654198  54.1498504
  70.8463045  35.9336410  52.6635466  59.0464514  37.1762908  50.4836183
  59.8405113  36.6813228  50.2818758  58.3356207  36.6480771  50.1203889
  63.8659359  39.5581003  54.8348551  63.9196381  40.1271940  55.6026267
  62.9974140  39.7282888  54.4702588  55.3547278  31.3205989  46.5595936
  54.4244866  31.2590445  46.7765898  55.4504750  30.7981942  45.7632577
  55.2732827  27.8460802  49.1474178  55.5339644  28.7606135  49.0383338
  56.0949999  27.3785245  49.2970790  56.7457752  29.2598559  56.3173002
  57.4180806  29.0515922  55.6685651  55.9187539  29.0620645  55.8778234
  70.9947014  36.0002610  55.8348336  71.1882904  36.9048420  56.0807611
  70.8947632  35.5410029  56.6686921  62.6483324  25.8860500  58.3338663
  62.0011239  26.5850450  58.2403139  63.4184340  26.3196644  58.7014911
  66.0562122  36.1509352  61.4089216  65.9047629  35.9219904  60.4919300
  66.0466802  37.1079954  61.4220561  62.8247459  33.7241265  56.3935483
  63.7539519  33.8752425  56.2204450  62.4038489  33.8125286  55.5384129
  61.6235790  37.7491930  54.1634020  61.4846876  37.3810714  55.0359958
  60.8350387  38.2639569  53.9917978  62.2183942  42.8501026  45.5059557
  62.3935698  42.3789069  46.3205180  61.5316730  43.4766792  45.7340818
  63.1741006  37.1273532  51.5522858  62.8390838  37.0874302  52.4480508
  62.6744951  36.4618248  51.0793268  57.1485249  32.5341162  57.0775439
  57.0105047  31.8021401  57.6786978  58.0590173  32.4450062  56.7959627
  66.1100197  34.4729567  41.8259918  65.4929368  33.7476395  41.7292971
  65.6416686  35.2338927  41.4826992  59.7767550  32.2461122  56.5659119
  60.4867169  31.6054314  56.5245737  59.7336858  32.4974017  57.4885300
  67.7654329  39.1828475  59.4865698  67.7066875  38.4987695  58.8196281
  68.1673847  39.9247465  59.0346324  58.4896484  29.2326340  58.3854758
  57.9533841  28.7817078  59.0376355  57.9013193  29.3672248  57.6425223
  56.7845028  45.9990389  52.2799417  57.0241626  46.6308913  52.9578436
  55.9414224  45.6478429  52.5664776  57.8998743  28.6914991  40.9481222
  57.0228209  28.5703792  40.5843469  58.3756496  27.9001069  40.6960111
  67.7671736  37.1468059  57.7179678  66.8798515  36.8093981  57.8406077
  68.3370287  36.4151090  57.9548443  49.4200883  33.4792151  51.0422729
  50.1071923  33.1653881  50.4543745  49.2649012  34.3833515  50.7689981
  54.2235605  28.3682347  55.4707753  54.1393794  27.7608017  54.7358163
  53.4018312  28.8591366  55.4717249  61.2972889  41.8069511  54.6840921
  61.2243061  42.6124483  55.1960226  60.8550283  42.0061477  53.8588942
  61.0862669  41.0441281  48.1943743  60.3030191  41.5862962  48.2881967
  61.7855414  41.5615261  48.5937984  64.3959319  26.8535911  50.8377948
  64.8928019  26.1005873  50.5179018  63.6246301  26.8900227  50.2721157
  72.2489077  32.5576276  52.4796240  72.2378953  33.4400992  52.1090173
  71.3806456  32.2047827  52.2850777  63.7571573  41.7056345  56.8399080
  64.4699545  42.3403810  56.7674981  63.2661602  41.8020211  56.0239082
  65.4789100  35.6107598  48.4116371  64.5445379  35.7309060  48.2421076
  65.6565768  34.7080065  48.1476381  60.9794288  28.9953294  50.5649633
  60.6092076  28.4424334  51.2530538  61.4753380  28.3911427  50.0124633
  68.8661651  31.4524917  48.9466406  69.3322103  32.2852909  48.8726708
  69.3169152  30.9869899  49.6511664  58.8083487  39.4550789  57.6604651
  59.5092946  40.0887272  57.8134045  58.3378602  39.7965520  56.9000290
  66.9337882  37.7968739  45.9452558  67.2097726  37.6825333  46.8546432
  66.0642381  37.3986223  45.9064731  66.8378314  23.8205504  52.9857307
  65.9241394  24.0509731  53.1539514  67.2671415  23.9043948  53.8371339
  66.6084773  32.0095396  55.4857201  65.9556223  32.2571304  54.8309654
  66.9865152  31.1959534  55.1519678  63.5691946  42.0455089  49.5885371
  63.7514341  41.2276745  50.0513124  64.3924932  42.2622782  49.1510261
  63.9034112  40.9723275  46.8500420  64.4321878  40.4615729  46.2370582
  64.1662331  40.6565805  47.7145953  62.6572346  32.7515207  61.9723238
  61.9812983  32.6509337  62.6425613  63.4799979  32.5954421  62.4359235
  54.4051205  38.9887144  54.5935753  54.9904641  38.2430832  54.7263657
  54.2076043  39.2991101  55.4772417  57.2589860  42.0238391  49.6098196
  56.5900235  42.5084519  49.1262236  57.1202730  42.2707612  50.5241574
  48.9968859  31.5592744  53.3140196  49.0352959  31.0256335  54.1077314
  48.4909152  31.0327950  52.6951174  61.3995128  44.0582135  56.2080854
  61.9513436  44.2213756  56.9729939  61.7401322  44.6486573  55.5360879
  56.3759622  26.4057285  56.8102739  56.4400948  27.2672115  56.3980136
  56.3126742  25.7931286  56.0775097  55.8511894  28.4780417  60.4575773
  56.4783933  28.0957494  61.0713297  54.9939813  28.2594619  60.8231465
  66.2506003  38.8843392  62.0629508  66.7945907  39.4973351  61.5684463
  65.6692848  39.4422971  62.5796521  52.6277437  30.2856846  46.3894128
  52.9230878  29.3767525  46.3361181  51.7265473  30.2644586  46.0675130
  64.5363516  42.0064110  53.1944536  64.4114655  41.2053850  52.6855482
  65.1942607  42.5010304  52.7058506  56.1571684  28.3612843  52.3721676
  55.4358270  28.9748811  52.2329150  56.9464940  28.8970608  52.2938322
  66.5998424  39.8073130  54.8224086  65.6528760  39.6878482  54.7502413
  66.9481197  38.9195628  54.9050348  58.9597997  25.6967269  58.6462328
  59.4832399  25.9429566  59.4088637  58.7410331  26.5287304  58.2265465
  54.3565279  27.9670944  46.5133453  54.0277985  27.0868323  46.3308559
  54.7104649  27.9118613  47.4009842  63.6044857  39.6025847  51.0228438
  63.4569820  38.6742554  51.2036008  64.4298351  39.6245937  50.5385514
  57.4707102  28.2543914  46.8808931  57.8103174  28.7829835  46.1587539
  57.9179222  28.5924320  47.6567497  67.2078979  40.4254405  52.1093311
  68.1325527  40.2197267  51.9717762  67.0394283  40.1770806  53.0182653
  60.1650542  26.6380964  56.3311999  59.8247363  25.8388777  56.7332679
  59.4589549  26.9382675  55.7588832  60.8167014  23.7230277  54.7839322
  61.6393084  23.2490755  54.6618212  61.0605078  24.5020761  55.2838008
  59.4575249  26.7518535  45.0802223  60.1783611  27.1299788  44.5765940
  58.8340553  27.4707412  45.1837201  63.6006372  27.4563684  46.0160556
  63.8169986  28.3388322  45.7149384  63.1200439  27.0649898  45.2866198
  58.3405593  30.4149397  52.5931300  58.1950174  30.7289701  53.4855582
  57.8630797  31.0334298  52.0402199  60.2001976  27.4051945  52.6412190
  60.1863545  26.5093039  52.3044488  60.9174404  27.4122609  53.2750476
  62.0528107  27.8389286  54.6865317  61.7945884  28.7606356  54.6849648
  61.5213147  27.4419720  55.3765781  66.9974295  40.9440073  47.4655403
  67.1711173  40.3786495  46.7129255  67.4903187  41.7440968  47.2834893
  52.8151255  32.9554742  55.5318961  52.2704723  33.7314550  55.6639236
  53.6930605  33.3025546  55.3738083  59.6038872  26.2866326  47.9099760
  59.7254783  25.3582972  48.1090647  59.3140914  26.3005012  46.9978075
  62.4730062  23.9721236  51.0466480  62.4951759  24.0360569  50.0918459
  62.8898121  23.1325745  51.2406986  72.8513687  33.7076496  49.0845702
  73.2944833  32.9583821  48.6864826  71.9740197  33.6986632  48.7019434
  67.9849468  40.2606837  44.5652301  68.6800373  40.8813530  44.7839616
  68.3272618  39.4102188  44.8404679  53.6017277  32.0824638  58.4249118
  52.8599013  32.2307273  59.0113749  53.2810021  32.3432904  57.5615868
  69.8840891  37.7106543  46.0939632  70.4092215  38.0493815  45.3688952
  69.7963244  36.7753558  45.9102766  61.5460940  41.6240616  58.2229508
  61.8548066  41.3789763  59.0952208  62.3436422  41.8287255  57.7348379
  61.5681552  43.7778526  50.4534885  61.1286542  43.2854905  51.1467742
  62.3189669  43.2351494  50.2126960  54.0473891  39.9690067  50.4559513
  54.8731911  39.6693839  50.0758157  53.6967943  39.1997689  50.9049302
  59.0155424  39.3216535  52.5257187  58.3935433  38.6587240  52.2259414
  59.6860291  39.3477667  51.8430834  52.2482496  37.8876393  51.4148447
  51.4114404  37.4598568  51.2332448  52.2206141  38.0808837  52.3519238
  59.0879951  27.7998323  62.1189693  59.1368107  28.6760446  61.7367462
  59.6302466  27.2575716  61.5461336  69.5734797  38.3439446  61.3990830
  68.7830341  38.3263585  60.8595329  69.3368152  38.8827740  62.1539866
  69.6932672  35.1931913  58.7123558  69.7430677  35.0281920  59.6539081
  69.5846595  34.3259172  58.3221439  58.5768931  37.8720458  46.0015647
  58.7257051  38.5555923  45.3482320  59.3835374  37.8525548  46.5165103
  66.9836435  31.1762841  60.0282865  67.8846297  31.0369306  59.7366863
  67.0584409  31.3417296  60.9681042  61.3179240  28.5529696  58.8736051
  60.4482549  28.8463262  58.6018640  61.5538720  29.1370141  59.5943315
  71.1950869  37.6128854  58.9565580  70.9035677  37.9758835  59.7929041
  70.5823000  36.8995863  58.7778912  72.3946551  35.1781734  51.4768150
  73.2293443  35.6171538  51.6405710  72.5305680  34.7020387  50.6576396
  69.4438057  32.7361469  57.4245638  69.9192179  32.9289115  56.6164489
  68.5203623  32.7920655  57.1789021  56.3321564  33.8985636  47.0076716
  56.0867606  32.9947966  47.2056926  56.5017478  33.9002787  46.0656194
  64.0218274  24.7709312  56.3901472  64.5400218  25.5070339  56.0647960
  63.6673406  25.0773306  57.2248231  55.6017211  29.6313994  44.5062877
  54.9086456  29.7058349  43.8502913  55.3568963  28.8674337  45.0284394
  64.2730868  21.1909595  51.9102368  64.5532622  20.5232784  52.5362795
  65.0581475  21.3838691  51.3977032  62.0764336  40.3668589  43.4727395
  61.5038303  40.9858776  43.0197866  62.6497130  40.9167951  44.0067316
  68.1439726  29.6127229  55.6573943  69.0957149  29.7125327  55.6786167
  67.9743177  28.8205498  56.1672028  66.1654106  26.6982812  55.8433344
  65.5704038  26.9787825  55.1479833  65.8803802  27.1876713  56.6150085
  65.2961596  40.6505739  44.6035977  66.2292269  40.5851301  44.8068852
  65.2084809  41.4862006  44.1450509  67.9249613  39.9671609  41.5639924
  67.8463244  39.6331473  42.4575682  68.7459280  40.4593377  41.5631397
  70.6227804  32.8333349  54.7716243  70.5904124  31.8949349  54.9575927
  71.2328428  32.9117385  54.0382068  62.4611135  31.7029402  40.8143447
  63.4070240  31.5735610  40.8831865  62.0825380  30.9644064  41.2912875
  70.7722292  29.6244392  54.8174526  70.2561341  28.8402849  54.6304455
  71.6562241  29.2963109  54.9821046  68.4333019  23.3685408  50.7770339
  68.2357841  23.0600496  51.6613671  69.0432725  24.0947047  50.9068269
  76.4404354  33.8949355  53.9122280  77.1707742  33.6334644  54.4729983
  75.8311299  33.1578077  53.9524348  74.5219651  32.0357218  54.5096731
  73.7952815  31.9013183  53.9013223  74.1066938  32.3434047  55.3153449
  62.3449827  35.7547148  62.2744104  63.2652837  35.9325747  62.4684151
  62.3099410  34.8103193  62.1223803  60.6454052  29.6279378  40.7498332
  59.7385507  29.3312491  40.8261046  60.9230033  29.3309196  39.8832618
  51.5631992  30.9485741  51.1997379  51.2434777  30.0951050  50.9071753
  51.0165421  31.1634320  51.9555346  55.3411900  33.6648182  54.9166885
  55.5597910  34.5965290  54.9354919  55.7537674  33.3056157  55.7021689
  62.2616118  24.1716268  46.9042574  61.4516846  23.8263353  47.2797820
  62.9500535  23.8623811  47.4930185  64.1906666  23.2494315  48.5266870
  64.7437705  23.6689768  49.1856893  64.4276752  22.3230063  48.5689826
  60.2139765  29.2381388  64.3069634  60.1136492  30.1875745  64.2381725
  59.9961307  28.9099627  63.4345704  59.4152837  26.4866313  40.8910311
  60.2772001  26.8121212  41.1506129  59.6003181  25.6997809  40.3783377
  51.4320252  34.5688653  53.1690500  50.7383724  34.1542606  52.6560455
  52.1793243  34.6109189  52.5723919  67.5685473  25.3594840  48.0345534
  66.9884142  26.0179644  47.6523587  67.3021406  24.5372184  47.6232952
  66.0189039  24.7599897  50.2366855  66.5188818  24.8716432  49.4281174
  66.6624647  24.4560950  50.8767663  60.0771035  32.6678527  63.1234696
  59.5938117  33.4678887  63.3298585  60.1631974  32.6786472  62.1702140
  53.3456995  34.5006907  51.0456515  53.3227683  34.5994594  50.0938398
  53.6557631  35.3472057  51.3673681  56.0044373  36.5583062  55.1603130
  56.9587626  36.5267004  55.0933061  55.8056896  36.0973685  55.9753355
  56.5943755  35.1284178  57.7273927  57.4136644  35.6228256  57.7508764
  56.8680563  34.2116146  57.6991495  66.3510351  27.5194930  47.0901883
  65.4636206  27.8044581  46.8722077  66.7664340  27.3588693  46.2429160
  69.7024887  27.5441451  50.8056222  70.4785277  28.0337904  51.0780839
  68.9773021  27.9699505  51.2628091  72.1397446  28.2569070  51.8630163
  72.7341937  28.0164806  51.1523471  72.2124030  27.5376201  52.4903699
  54.3594602  42.1002681  52.1773327  54.2249070  41.3403082  51.6111325
  53.9426664  42.8243581  51.7102116  65.4953565  37.2839605  41.1849903
  66.1989415  37.4889607  41.8007558  64.7716213  37.8516367  41.4498986
  66.3251375  33.0349466  47.3052173  66.2686576  33.4918017  46.4659805
  66.8779717  32.2740151  47.1275016  70.1356181  28.8239198  48.1302292
  69.8793115  28.4235834  48.9610500  69.5109049  29.5382992  48.0052432
  74.4468519  31.5635271  50.6373584  73.8868077  31.6328460  51.4105146
  73.8412022  31.3876256  49.9173080  57.5163727  42.9971998  52.3891770
  57.3996112  43.9417431  52.2870460  56.6956174  42.6945560  52.7777569
  67.4040262  37.7222134  43.2348363  68.2385866  37.2903332  43.0525838
  67.2424605  37.5504148  44.1625257  67.0586154  34.2254247  44.6004702
  67.0034958  34.0598519  43.6593146  66.4332209  34.9330280  44.7566892
  51.8478669  29.4622312  58.4266124  52.4937533  28.9521266  58.9153349
  51.6395820  30.1990993  59.0009550  64.3732061  36.5303159  63.9258265
  65.2423221  36.7043811  63.5644900  63.8938813  37.3497576  63.8033994
  60.3682280  23.7262356  44.1790020  60.3560949  24.6704196  44.3358291
  61.2605702  23.5432502  43.8849482  58.5418242  43.6500260  55.6047698
  59.4445488  43.6823870  55.9214193  58.3155612  42.7200711  55.6194034
  60.2971844  42.4031247  52.2657777  59.3467475  42.4033108  52.1522149
  60.6004330  41.6563981  51.7493812  64.1834399  20.3205133  48.4335957
  63.4166795  19.7663620  48.5792640  64.5945104  20.3927002  49.2950109
  56.1876160  26.6089929  62.5241138  57.0507622  26.2526734  62.7344463
  55.6141571  26.2703824  63.2116543  76.0324537  48.2391785  53.3303539
  76.6702947  48.1198532  52.6266880  75.9145380  49.1872629  53.3891492
  72.8414243  48.1919213  53.2665064  72.5032755  48.0760278  52.3785599
  73.7104012  47.7910378  53.2466070  68.7001059  50.0454690  49.2561955
  68.1365924  49.9544627  48.4878243  68.5853454  49.2254594  49.7364448
  73.3234026  49.3454065  59.2251270  73.3122667  48.9506863  58.3531773
  73.4854666  48.6120138  59.8185041  66.2465491  51.5405881  52.0946176
  67.0386783  51.1996706  51.6792475  66.4862141  51.6500856  53.0148329
  74.2800618  53.7125657  44.5676420  73.6288598  54.2979738  44.1810434
  75.0744981  54.2431852  44.6271458  68.2056245  50.8014794  44.9663554
  68.9787121  50.2543782  44.8276430  68.5581644  51.6659044  45.1778016
  70.0441288  52.1291177  58.1730454  69.7531153  53.0336808  58.0577120
  70.6798272  52.1707704  58.8874523  70.9697494  49.5068025  54.7631813
  71.5661067  49.2824048  54.0488776  71.0272466  48.7652771  55.3657261
  70.5422523  46.9607461  42.5982004  70.7948043  46.4388982  41.8365467
  69.6047082  46.7973606  42.7008688  75.5865806  45.9643239  50.4056748
  76.3728895  45.5462662  50.0547165  75.8504510  46.8689331  50.5738396
  75.7575883  51.4016089  45.1045404  75.1221716  51.4750716  45.8166309
  75.4273289  51.9909688  44.4264484  80.9874233  45.9018472  51.3089726
  81.7199405  45.3317689  51.5427556  80.2313588  45.5140073  51.7496232
  70.2618812  48.8635567  44.8006379  70.1455070  48.1880470  45.4687464
  70.3721071  48.3767940  43.9838532  72.6050352  48.3245714  48.5053069
  72.2408560  47.7976335  49.2165990  73.4617468  47.9344183  48.3319554
  78.5099653  39.6140046  55.7684335  78.1782978  40.4835457  55.5445550
  77.9145266  39.2976330  56.4478365  72.2455839  43.3535613  43.5014417
  72.4130242  44.2215850  43.8684888  72.0553008  43.5162895  42.5775706
  75.0031173  51.8152592  55.1680247  74.7031896  52.7177631  55.0596055
  74.6582232  51.5484775  56.0201400  68.4543654  48.2666389  51.2016952
  67.5294151  48.1342603  51.4094644  68.7028067  49.0460608  51.6986894
  78.4028316  44.3335132  52.8477685  77.4945194  44.2650541  52.5536446
  78.3515912  44.8107077  53.6759510  72.2245060  45.8093271  44.4861084
  72.1044685  46.2550322  45.3246564  71.5297649  46.1578588  43.9274622
  65.8152465  47.9099663  52.0360741  65.9444846  48.1634142  52.9500153
  65.1349916  48.5027371  51.7165396  69.9851952  58.5796913  48.1351215
  69.9075982  59.5304738  48.2139696  69.3813596  58.2342785  48.7926141
  72.4769182  45.7524778  60.7912582  71.7002516  46.3118698  60.7815447
  73.1159745  46.2381561  61.3127452  80.2689963  42.5351571  54.6255559
  79.6264343  42.8284104  53.9795353  79.7644891  42.4204491  55.4308755
  77.9230126  46.2814744  45.3141418  78.8347983  46.5142131  45.1389115
  77.4139774  46.8651788  44.7516496  70.7315554  48.5610231  60.3530549
  71.4730239  49.0995275  60.0765373  70.0252540  49.1876520  60.5102101
  76.2070894  50.7039372  58.9502710  76.6154250  50.2621782  58.2057343
  75.4848156  50.1291999  59.2036903  72.5601964  45.6411979  56.3236267
  73.4063159  46.0651392  56.4670916  72.5000602  44.9845603  57.0174831
  76.5299709  51.2640562  52.7054999  75.9008571  51.4286277  52.0031067
  76.1425371  51.6782172  53.4765963  80.4088941  52.1995000  50.0599363
  79.7239979  52.5793902  49.5096396  80.4932790  52.8090327  50.7931311
  75.7101409  43.3016347  57.9817441  75.4662341  44.0558407  57.4451717
  75.9861340  43.6801695  58.8164688  77.6639872  49.8454959  56.6594707
  77.8756768  50.4886719  55.9829088  77.6169621  49.0117276  56.1916637
  75.2666101  42.4572780  53.5631279  74.4050580  42.7554034  53.8548016
  75.2928536  42.6743179  52.6312311  72.0827671  51.0014971  49.9705084
  72.5466016  51.2802674  49.1809707  71.8184469  50.0998415  49.7878175
  68.9751752  50.5486452  52.9084848  69.5453109  50.9773720  52.2702332
  69.5659864  50.2669037  53.6069033  71.0196557  47.1238123  46.7794650
  71.7220600  47.5759167  47.2468576  70.6877185  46.4821942  47.4074543
  69.4676918  45.7149880  61.1545859  68.8375579  46.3966160  61.3881256
  69.3613006  45.6032961  60.2098997  64.7621891  45.3821676  52.0811783
  63.9720945  45.6379204  51.6051894  65.2533138  46.1970013  52.1863824
  78.7785700  52.7226915  54.8317064  79.6003144  52.3207102  54.5499746
  78.7748103  52.6195149  55.7833180  66.7136636  45.7466255  49.0395260
  65.9167799  45.8584949  49.5578756  66.4862228  46.0852907  48.1736150
  72.5442304  52.2710958  56.9877774  72.6086736  52.7331365  57.8235946
  71.8353228  51.6408323  57.1160084  63.0459594  45.6352166  54.5126774
  63.2967632  46.5199176  54.7784350  63.5819142  45.4556768  53.7401866
  86.8691693  49.0665663  51.1802035  86.1155402  48.4973061  51.0246040
  87.0039234  49.0328328  52.1272670  72.2590321  53.9379066  46.8556755
  72.1235996  54.7830601  47.2841603  72.8000134  54.1398343  46.0922689
  68.7457661  40.0170645  63.5171110  68.3524607  39.4636844  64.1918754
  69.5623801  40.3281224  63.9077628  65.7119719  51.4554504  47.4284680
  66.2244239  52.2497754  47.5790245  66.3642432  50.7580794  47.3618281
  67.5214603  54.5720260  49.5107433  67.6981232  55.4938225  49.3228417
  68.3171437  54.2578679  49.9401813  71.6625622  41.4328524  61.1091367
  72.4035335  42.0335678  61.0295829  71.8943545  40.6906162  60.5509409
  66.8066960  46.6184892  59.3869596  66.6920475  45.7170149  59.6876695
  65.9511478  46.8648588  59.0354413  73.8858798  54.5602632  60.9857097
  73.4422652  53.7739011  60.6678001  74.5476011  54.7481783  60.3200988
  68.6445919  56.0898434  55.5117775  69.1953344  55.9615497  54.7394769
  67.8057395  56.3893323  55.1612668  75.9840036  54.8405432  59.0138498
  75.9658511  55.6614313  58.5218767  76.9059956  54.7159507  59.2388639
  72.4413090  52.3549561  59.8562007  72.9741427  51.5937850  59.6261315
  71.9127171  52.0623213  60.5986161  75.6082785  37.4609627  55.3855648
  75.2647054  38.3511269  55.3094759  75.9761747  37.2711285  54.5225233
  63.6768635  49.7843158  48.2044250  64.5143857  50.1940166  47.9877958
  63.8546903  48.8442600  48.1744444  75.5733068  47.4518238  43.8928083
  75.0579691  48.2222843  44.1316471  75.3010376  46.7783375  44.5161145
  73.1580179  42.2967939  48.9513322  72.3021775  41.9074790  48.7718960
  73.5707130  42.3759900  48.0913107  74.6879325  39.8314283  53.3504882
  74.1844121  39.7944418  52.5372687  74.9809932  40.7407025  53.4101538
  70.9322211  39.9153012  52.3571063  71.7975208  39.7195821  51.9976953
  70.9999720  39.6863364  53.2840420  80.5467342  50.2050593  45.8281257
  79.7696785  49.8661753  45.3836419  81.2258823  50.2103216  45.1536222
  75.3619371  45.3245331  45.7187865  75.0569506  45.6391480  46.5698008
  76.3149813  45.4026750  45.7615198  73.8065803  51.4835554  47.3680819
  73.2787164  50.7488313  47.0554056  73.3053305  52.2610230  47.1220787
  78.7858649  49.6784574  52.4847865  78.1282323  50.3683836  52.5727993
  79.5899048  50.0681006  52.8281851  68.5384530  42.1455220  49.7287430
  69.1128282  41.9230402  48.9960623  69.1255513  42.2143915  50.4816031
  77.5964107  48.0328947  50.5351807  78.1095989  48.6658939  51.0373516
  78.2465331  47.4330143  50.1695167  68.8654117  44.1759681  43.7483315
  68.0291430  44.5134368  44.0692590  68.7258887  44.0408661  42.8110452
  70.8407198  39.0196469  48.4562499  70.1871610  38.7045486  47.8319114
  70.7987672  38.3972210  49.1822322  71.9518403  49.3015764  40.3715792
  71.0445465  49.0705018  40.5706941  72.4489435  48.5053383  40.5589773
  74.8586482  58.0113271  43.2912478  74.1848180  58.3144968  43.8997436
  75.2452304  58.8142352  42.9417935  74.0744938  45.5078403  52.7810147
  73.1567500  45.7293350  52.6231835  74.4905082  45.5824713  51.9221854
  74.8579986  46.9069818  47.9112827  75.6051805  47.4191216  47.6019949
  75.1271576  46.5853871  48.7717221  73.1306636  49.4028359  44.8939782
  72.2217855  49.1187392  44.9912251  73.1601720  49.8227438  44.0343089
  78.3625904  53.0134949  48.6630949  77.9088231  52.1725858  48.7196140
  77.7319870  53.6496347  49.0005729  77.3058823  43.9426935  49.8931617
  76.5681580  43.4304321  50.2241859  77.5585597  43.5027316  49.0814894
  76.8058843  54.8511445  49.5980767  77.0981817  55.4116502  48.8793133
  77.3157463  55.1440006  50.3533926  77.4070451  36.7203187  50.4873386
  77.7129327  35.8600550  50.1999301  78.1323055  37.3120807  50.2872380
  63.6994807  47.1233873  48.8754984  63.5019206  46.5303234  48.1506050
  63.1441471  46.8186083  49.5930923  71.6791530  47.0156980  50.9949577
  71.7340140  46.0630816  50.9192054  70.8682732  47.1716419  51.4790875
  72.8282724  50.9437103  42.2327860  72.3902154  50.2272962  41.7733498
  73.5693165  51.1713218  41.6712952  69.6183890  45.6334039  48.7539956
  68.8051756  45.9328210  49.1605148  70.1142884  45.2389728  49.4714438
  71.7692468  55.6291796  50.6874221  71.7268647  55.8552643  49.7582753
  72.6855167  55.3955171  50.8360022  75.2158102  46.0975864  57.5854850
  75.5707490  46.3247337  58.4449316  75.8630233  46.4294241  56.9632105
  80.9455839  49.2194300  48.2904179  80.8073737  49.4095896  47.3625368
  80.5892058  49.9813683  48.7472230  69.1097965  43.2052395  54.3701191
  69.7497344  43.0641154  53.6724154  68.2775496  42.9186908  53.9939793
  80.9725218  51.2870827  53.3015450  81.4061725  51.1946116  54.1498504
  81.6856799  51.2628327  52.6635466  69.8858269  52.5054825  50.4836183
  70.6798867  52.0105145  50.2818758  69.1749961  51.9772688  50.1203889
  74.7053113  54.8872921  54.8348551  74.7590136  55.4563857  55.6026267
  73.8367895  55.0574806  54.4702588  66.1941032  46.6497907  46.5595936
  65.2638620  46.5882363  46.7765898  66.2898504  46.1273860  45.7632577
  66.1126581  43.1752720  49.1474178  66.3733399  44.0898053  49.0383338
  66.9343754  42.7077162  49.2970790  67.5851507  44.5890477  56.3173002
  68.2574560  44.3807839  55.6685651  66.7581293  44.3912563  55.8778234
  81.8340768  51.3294527  55.8348336  82.0276658  52.2340338  56.0807611
  81.7341386  50.8701946  56.6686921  73.4877079  41.2152418  58.3338663
  72.8404994  41.9142368  58.2403139  74.2578094  41.6488562  58.7014911
  76.8955877  51.4801270  61.4089216  76.7441383  51.2511822  60.4919300
  76.8860556  52.4371872  61.4220561  73.6641213  49.0533183  56.3935483
  74.5933273  49.2044343  56.2204450  73.2432243  49.1417204  55.5384129
  72.4629545  53.0783847  54.1634020  72.3240631  52.7102632  55.0359958
  71.6744141  53.5931487  53.9917978  73.0577697  58.1792944  45.5059557
  73.2329453  57.7080987  46.3205180  72.3710485  58.8058710  45.7340818
  74.0134760  52.4565450  51.5522858  73.6784593  52.4166220  52.4480508
  73.5138706  51.7910166  51.0793268  67.9879004  47.8633080  57.0775439
  67.8498802  47.1313319  57.6786978  68.8983927  47.7741980  56.7959627
  76.9493952  49.8021484  41.8259918  76.3323122  49.0768313  41.7292971
  76.4810440  50.5630845  41.4826992  70.6161305  47.5753039  56.5659119
  71.3260923  46.9346232  56.5245737  70.5730613  47.8265934  57.4885300
  78.6048083  54.5120393  59.4865698  78.5460629  53.8279613  58.8196281
  79.0067602  55.2539383  59.0346324  69.3290239  44.5618257  58.3854758
  68.7927596  44.1108996  59.0376355  68.7406947  44.6964166  57.6425223
  67.6238782  61.3282307  52.2799417  67.8635380  61.9600831  52.9578436
  66.7807979  60.9770347  52.5664776  68.7392498  44.0206909  40.9481222
  67.8621964  43.8995709  40.5843469  69.2150251  43.2292987  40.6960111
  78.6065491  52.4759977  57.7179678  77.7192269  52.1385898  57.8406077
  79.1764042  51.7443008  57.9548443  60.2594638  48.8084068  51.0422729
  60.9465678  48.4945798  50.4543745  60.1042766  49.7125433  50.7689981
  65.0629360  43.6974265  55.4707753  64.9787549  43.0899935  54.7358163
  64.2412066  44.1883283  55.4717249  72.1366644  57.1361429  54.6840921
  72.0636815  57.9416400  55.1960226  71.6944037  57.3353395  53.8588942
  71.9256424  56.3733199  48.1943743  71.1423945  56.9154879  48.2881967
  72.6249169  56.8907179  48.5937984  75.2353074  42.1827828  50.8377948
  75.7321773  41.4297791  50.5179018  74.4640055  42.2192145  50.2721157
  83.0882831  47.8868194  52.4796240  83.0772707  48.7692909  52.1090173
  82.2200211  47.5339745  52.2850777  74.5965327  57.0348263  56.8399080
  75.3093300  57.6695728  56.7674981  74.1055356  57.1312129  56.0239082
  76.3182854  50.9399516  48.4116371  75.3839133  51.0600978  48.2421076
  76.4959523  50.0371982  48.1476381  71.8188042  44.3245211  50.5649633
  71.4485830  43.7716252  51.2530538  72.3147135  43.7203345  50.0124633
  79.7055406  46.7816835  48.9466406  80.1715858  47.6144827  48.8726708
  80.1562906  46.3161817  49.6511664  69.6477241  54.7842706  57.6604651
  70.3486701  55.4179189  57.8134045  69.1772356  55.1257438  56.9000290
  77.7731637  53.1260656  45.9452558  78.0491481  53.0117251  46.8546432
  76.9036136  52.7278141  45.9064731  77.6772069  39.1497422  52.9857307
  76.7635148  39.3801649  53.1539514  78.1065170  39.2335866  53.8371339
  77.4478527  47.3387314  55.4857201  76.7949977  47.5863221  54.8309654
  77.8258907  46.5251452  55.1519678  74.4085701  57.3747007  49.5885371
  74.5908095  56.5568663  50.0513124  75.2318687  57.5914699  49.1510261
  74.7427866  56.3015192  46.8500420  75.2715633  55.7907647  46.2370582
  75.0056086  55.9857722  47.7145953  73.4966100  48.0807125  61.9723238
  72.8206737  47.9801254  62.6425613  74.3193734  47.9246339  62.4359235
  65.2444959  54.3179062  54.5935753  65.8298396  53.5722749  54.7263657
  65.0469798  54.6283018  55.4772417  68.0983614  57.3530309  49.6098196
  67.4293990  57.8376437  49.1262236  67.9596484  57.5999529  50.5241574
  59.8362614  46.8884662  53.3140196  59.8746713  46.3548252  54.1077314
  59.3302907  46.3619867  52.6951174  72.2388883  59.3874052  56.2080854
  72.7907191  59.5505674  56.9729939  72.5795076  59.9778490  55.5360879
  67.2153376  41.7349202  56.8102739  67.2794703  42.5964033  56.3980136
  67.1520496  41.1223204  56.0775097  66.6905649  43.8072335  60.4575773
  67.3177687  43.4249412  61.0713297  65.8333568  43.5886537  60.8231465
  77.0899757  54.2135310  62.0629508  77.6339661  54.8265268  61.5684463
  76.5086602  54.7714888  62.5796521  63.4671191  45.6148764  46.3894128
  63.7624632  44.7059442  46.3361181  62.5659227  45.5936503  46.0675130
  75.3757270  57.3356028  53.1944536  75.2508410  56.5345768  52.6855482
  76.0336361  57.8302221  52.7058506  66.9965438  43.6904760  52.3721676
  66.2752024  44.3040728  52.2329150  67.7858694  44.2262525  52.2938322
  77.4392179  55.1365048  54.8224086  76.4922514  55.0170399  54.7502413
  77.7874952  54.2487546  54.9050348  69.7991752  41.0259187  58.6462328
  70.3226154  41.2721484  59.4088637  69.5804085  41.8579222  58.2265465
  65.1959033  43.2962862  46.5133453  64.8671739  42.4160240  46.3308559
  65.5498404  43.2410530  47.4009842  74.4438612  54.9317764  51.0228438
  74.2963574  54.0034472  51.2036008  75.2692105  54.9537855  50.5385514
  68.3100856  43.5835831  46.8808931  68.6496929  44.1121753  46.1587539
  68.7572977  43.9216237  47.6567497  78.0472734  55.7546323  52.1093311
  78.9719281  55.5489184  51.9717762  77.8788037  55.5062724  53.0182653
  71.0044297  41.9672882  56.3311999  70.6641117  41.1680695  56.7332679
  70.2983303  42.2674593  55.7588832  71.6560769  39.0522194  54.7839322
  72.4786838  38.5782673  54.6618212  71.8998832  39.8312678  55.2838008
  70.2969003  42.0810453  45.0802223  71.0177366  42.4591706  44.5765940
  69.6734307  42.7999330  45.1837201  74.4400126  42.7855602  46.0160556
  74.6563741  43.6680240  45.7149384  73.9594193  42.3941815  45.2866198
  69.1799348  45.7441315  52.5931300  69.0343928  46.0581618  53.4855582
  68.7024551  46.3626215  52.0402199  71.0395730  42.7343863  52.6412190
  71.0257299  41.8384956  52.3044488  71.7568159  42.7414527  53.2750476
  72.8921861  43.1681203  54.6865317  72.6339639  44.0898274  54.6849648
  72.3606902  42.7711638  55.3765781  77.8368050  56.2731990  47.4655403
  78.0104927  55.7078413  46.7129255  78.3296941  57.0732885  47.2834893
  63.6545010  48.2846660  55.5318961  63.1098478  49.0606468  55.6639236
  64.5324360  48.6317464  55.3738083  70.4432626  41.6158243  47.9099760
  70.5648538  40.6874890  48.1090647  70.1534669  41.6296929  46.9978075
  73.3123817  39.3013154  51.0466480  73.3345514  39.3652487  50.0918459
  73.7291876  38.4617662  51.2406986  83.6907441  49.0368413  49.0845702
  84.1338587  48.2875739  48.6864826  82.8133951  49.0278550  48.7019434
  78.8243222  55.5898755  44.5652301  79.5194127  56.2105448  44.7839616
  79.1666373  54.7394106  44.8404679  64.4411032  47.4116556  58.4249118
  63.6992768  47.5599191  59.0113749  64.1203776  47.6724821  57.5615868
  80.7234646  53.0398460  46.0939632  81.2485970  53.3785733  45.3688952
  80.6356998  52.1045476  45.9102766  72.3854694  56.9532534  58.2229508
  72.6941821  56.7081681  59.0952208  73.1830176  57.1579173  57.7348379
  72.4075306  59.1070444  50.4534885  71.9680297  58.6146822  51.1467742
  73.1583423  58.5643411  50.2126960  64.8867645  55.2981985  50.4559513
  65.7125665  54.9985756  50.0758157  64.5361697  54.5289607  50.9049302
  69.8549178  54.6508453  52.5257187  69.2329188  53.9879158  52.2259414
  70.5254045  54.6769585  51.8430834  63.0876250  53.2168311  51.4148447
  62.2508159  52.7890485  51.2332448  63.0599896  53.4100754  52.3519238
  69.9273706  43.1290241  62.1189693  69.9761861  44.0052364  61.7367462
  70.4696220  42.5867634  61.5461336  80.5326427  50.5223830  58.7123558
  80.5824432  50.3573838  59.6539081  80.4240350  49.6551089  58.3221439
  69.4162685  53.2012376  46.0015647  69.5650806  53.8847840  45.3482320
  70.2229129  53.1817466  46.5165103  77.8230189  46.5054758  60.0282865
  78.7240052  46.3661223  59.7366863  77.8978164  46.6709213  60.9681042
  72.1572994  43.8821613  58.8736051  71.2876304  44.1755179  58.6018640
  72.3932475  44.4662058  59.5943315  82.0344623  52.9420772  58.9565580
  81.7429432  53.3050752  59.7929041  81.4216755  52.2287780  58.7778912
  83.2340306  50.5073652  51.4768150  84.0687197  50.9463456  51.6405710
  83.3699435  50.0312305  50.6576396  80.2831812  48.0653387  57.4245638
  80.7585933  48.2581033  56.6164489  79.3597377  48.1212572  57.1789021
  67.1715318  49.2277554  47.0076716  66.9261360  48.3239884  47.2056926
  67.3411233  49.2294704  46.0656194  74.8612028  40.1001230  56.3901472
  75.3793972  40.8362257  56.0647960  74.5067161  40.4065223  57.2248231
  66.4410966  44.9605911  44.5062877  65.7480211  45.0350266  43.8502913
  66.1962718  44.1966255  45.0284394  75.1124622  36.5201513  51.9102368
  75.3926376  35.8524702  52.5362795  75.8975229  36.7130608  51.3977032
  72.9158091  55.6960507  43.4727395  72.3432058  56.3150694  43.0197866
  73.4890885  56.2459868  44.0067316  78.9833481  44.9419147  55.6573943
  79.9350904  45.0417244  55.6786167  78.8136931  44.1497415  56.1672028
  77.0047860  42.0274730  55.8433344  76.4097792  42.3079743  55.1479833
  76.7197557  42.5168631  56.6150085  76.1355351  55.9797657  44.6035977
  77.0686024  55.9143218  44.8068852  76.0478563  56.8153924  44.1450509
  78.7643367  55.2963527  41.5639924  78.6856999  54.9623391  42.4575682
  79.5853034  55.7885295  41.5631397  81.4621558  48.1625266  54.7716243
  81.4297879  47.2241267  54.9575927  82.0722182  48.2409303  54.0382068
  73.3004889  47.0321319  40.8143447  74.2463994  46.9027527  40.8831865
  72.9219134  46.2935981  41.2912875  81.6116047  44.9536310  54.8174526
  81.0955096  44.1694766  54.6304455  82.4955996  44.6255026  54.9821046
  79.2726774  38.6977325  50.7770339  79.0751595  38.3892414  51.6613671
  79.8826479  39.4238964  50.9068269  87.2798108  49.2241273  53.9122280
  88.0101497  48.9626561  54.4729983  86.6705054  48.4869995  53.9524348
  85.3613405  47.3649136  54.5096731  84.6346569  47.2305101  53.9013223
  84.9460692  47.6725964  55.3153449  73.1843582  51.0839065  62.2744104
  74.1046591  51.2617664  62.4684151  73.1493165  50.1395111  62.1223803
  71.4847807  44.9571296  40.7498332  70.5779262  44.6604408  40.8261046
  71.7623788  44.6601114  39.8832618  62.4025747  46.2777659  51.1997379
  62.0828531  45.4242967  50.9071753  61.8559175  46.4926237  51.9555346
  66.1805654  48.9940100  54.9166885  66.3991664  49.9257208  54.9354919
  66.5931428  48.6348074  55.7021689  73.1009872  39.5008185  46.9042574
  72.2910601  39.1555270  47.2797820  73.7894289  39.1915729  47.4930185
  75.0300421  38.5786232  48.5266870  75.5831459  38.9981686  49.1856893
  75.2670507  37.6521980  48.5689826  71.0533520  44.5673306  64.3069634
  70.9530247  45.5167663  64.2381725  70.8355062  44.2391545  63.4345704
  70.2546591  41.8158231  40.8910311  71.1165755  42.1413129  41.1506129
  70.4396935  41.0289727  40.3783377  62.2714007  49.8980571  53.1690500
  61.5777478  49.4834523  52.6560455  63.0186998  49.9401107  52.5723919
  78.4079228  40.6886757  48.0345534  77.8277897  41.3471561  47.6523587
  78.1415160  39.8664102  47.6232952  76.8582794  40.0891815  50.2366855
  77.3582572  40.2008350  49.4281174  77.5018402  39.7852868  50.8767663
  70.9164790  47.9970445  63.1234696  70.4331872  48.7970805  63.3298585
  71.0025729  48.0078390  62.1702140  64.1850749  49.8298824  51.0456515
  64.1621438  49.9286512  50.0938398  64.4951386  50.6763975  51.3673681
  66.8438127  51.8874979  55.1603130  67.7981381  51.8558922  55.0933061
  66.6450651  51.4265603  55.9753355  67.4337509  50.4576095  57.7273927
  68.2530398  50.9520174  57.7508764  67.7074317  49.5408064  57.6991495
  77.1904106  42.8486848  47.0901883  76.3029961  43.1336498  46.8722077
  77.6058095  42.6880611  46.2429160  80.5418642  42.8733369  50.8056222
  81.3179032  43.3629821  51.0780839  79.8166776  43.2991423  51.2628091
  82.9791200  43.5860988  51.8630163  83.5735691  43.3456724  51.1523471
  83.0517784  42.8668119  52.4903699  65.1988356  57.4294599  52.1773327
  65.0642824  56.6695000  51.6111325  64.7820418  58.1535499  51.7102116
  76.3347319  52.6131522  41.1849903  77.0383169  52.8181525  41.8007558
  75.6109968  53.1808284  41.4498986  77.1645129  48.3641384  47.3052173
  77.1080331  48.8209935  46.4659805  77.7173472  47.6032068  47.1275016
  80.9749935  44.1531116  48.1302292  80.7186870  43.7527751  48.9610500
  80.3502803  44.8674909  48.0052432  85.2862273  46.8927189  50.6373584
  84.7261831  46.9620378  51.4105146  84.6805777  46.7168173  49.9173080
  68.3557482  58.3263916  52.3891770  68.2389866  59.2709348  52.2870460
  67.5349928  58.0237477  52.7777569  78.2434016  53.0514052  43.2348363
  79.0779620  52.6195250  43.0525838  78.0818359  52.8796065  44.1625257
  77.8979909  49.5546165  44.6004702  77.8428712  49.3890436  43.6593146
  77.2725964  50.2622198  44.7566892  62.6872424  44.7914229  58.4266124
  63.3331287  44.2813183  58.9153349  62.4789575  45.5282911  59.0009550
  75.2125816  51.8595077  63.9258265  76.0816975  52.0335729  63.5644900
  74.7332567  52.6789494  63.8033994  71.2076034  39.0554274  44.1790020
  71.1954704  39.9996114  44.3358291  72.0999456  38.8724419  43.8849482
  69.3811996  58.9792178  55.6047698  70.2839243  59.0115788  55.9214193
  69.1549366  58.0492629  55.6194034  71.1365598  57.7323164  52.2657777
  70.1861229  57.7325026  52.1522149  71.4398084  56.9855899  51.7493812
  75.0228154  35.6497051  48.4335957  74.2560549  35.0955537  48.5792640
  75.4338859  35.7218919  49.2950109  67.0269915  41.9381846  62.5241138
  67.8901376  41.5818651  62.7344463  66.4535325  41.5995741  63.2116543
  86.8718292  63.5683703  53.3303539  87.5096702  63.4490450  52.6266880
  86.7539134  64.5164547  53.3891492  83.6807998  63.5211131  53.2665064
  83.3426509  63.4052196  52.3785599  84.5497766  63.1202296  53.2466070
  79.5394814  65.3746607  49.2561955  78.9759679  65.2836544  48.4878243
  79.4247209  64.5546512  49.7364448  77.0859246  66.8697799  52.0946176
  77.8780537  66.5288623  51.6792475  77.3255896  66.9792774  53.0148329
  85.1194372  69.0417575  44.5676420  84.4682352  69.6271655  44.1810434
  85.9138735  69.5723770  44.6271458  79.0449999  66.1306712  44.9663554
  79.8180875  65.5835699  44.8276430  79.3975398  66.9950961  45.1778016
  81.8091249  64.8359943  54.7631813  82.4054821  64.6115965  54.0488776
  81.8666220  64.0944688  55.3657261  81.3816277  62.2899378  42.5982004
  81.6341798  61.7680899  41.8365467  80.4440836  62.1265524  42.7008688
  86.4259560  61.2935157  50.4056748  87.2122649  60.8754580  50.0547165
  86.6898264  62.1981249  50.5738396  86.5969637  66.7308007  45.1045404
  85.9615470  66.8042633  45.8166309  86.2667044  67.3201606  44.4264484
  91.8267987  61.2310390  51.3089726  92.5593159  60.6609607  51.5427556
  91.0707343  60.8431990  51.7496232  81.1012566  64.1927484  44.8006379
  80.9848824  63.5172388  45.4687464  81.2114826  63.7059858  43.9838532
  83.4444107  63.6537631  48.5053069  83.0802314  63.1268252  49.2165990
  84.3011223  63.2636100  48.3319554  89.3493408  54.9431964  55.7684335
  89.0176732  55.8127375  55.5445550  88.7539021  54.6268248  56.4478365
  83.0849594  58.6827531  43.5014417  83.2523996  59.5507767  43.8684888
  82.8946763  58.8454813  42.5775706  85.8424927  67.1444510  55.1680247
  85.5425650  68.0469549  55.0596055  85.4975987  66.8776693  56.0201400
  79.2937409  63.5958307  51.2016952  78.3687905  63.4634521  51.4094644
  79.5421822  64.3752526  51.6986894  89.2422071  59.6627050  52.8477685
  88.3338948  59.5942458  52.5536446  89.1909667  60.1398995  53.6759510
  83.0638815  61.1385188  44.4861084  82.9438440  61.5842239  45.3246564
  82.3691403  61.4870506  43.9274622  76.6546220  63.2391580  52.0360741
  76.7838601  63.4926059  52.9500153  75.9743671  63.8319288  51.7165396
  91.1083717  57.8643488  54.6255559  90.4658098  58.1576022  53.9795353
  90.6038646  57.7496409  55.4308755  88.7623881  61.6106662  45.3141418
  89.6741737  61.8434048  45.1389115  88.2533528  62.1943706  44.7516496
  83.3995719  60.9703896  56.3236267  84.2456914  61.3943310  56.4670916
  83.3394356  60.3137521  57.0174831  87.3693463  66.5932480  52.7054999
  86.7402326  66.7578194  52.0031067  86.9819125  67.0074090  53.4765963
  91.2482695  67.5286918  50.0599363  90.5633733  67.9085819  49.5096396
  91.3326544  68.1382245  50.7931311  86.5495164  58.6308265  57.9817441
  86.3056096  59.3850325  57.4451717  86.8255094  59.0093612  58.8164688
  86.1059856  57.7864698  53.5631279  85.2444335  58.0845951  53.8548016
  86.1322290  58.0035097  52.6312311  82.9221425  66.3306888  49.9705084
  83.3859771  66.6094591  49.1809707  82.6578223  65.4290333  49.7878175
  79.8145506  65.8778370  52.9084848  80.3846863  66.3065638  52.2702332
  80.4053618  65.5960954  53.6069033  81.8590311  62.4530041  46.7794650
  82.5614355  62.9051084  47.2468576  81.5270940  61.8113859  47.4074543
  75.6015645  60.7113593  52.0811783  74.8114699  60.9671122  51.6051894
  76.0926893  61.5261931  52.1863824  89.6179455  68.0518832  54.8317064
  90.4396898  67.6499020  54.5499746  89.6141858  67.9487067  55.7833180
  77.5530391  61.0758172  49.0395260  76.7561554  61.1876867  49.5578756
  77.3255983  61.4144825  48.1736150  73.8853348  60.9644084  54.5126774
  74.1361387  61.8491094  54.7784350  74.4212897  60.7848685  53.7401866
  97.7085448  64.3957581  51.1802035  96.9549156  63.8264979  51.0246040
  97.8432989  64.3620245  52.1272670  83.0984076  69.2670983  46.8556755
  82.9629751  70.1122519  47.2841603  83.6393888  69.4690261  46.0922689
  76.5513473  66.7846421  47.4284680  77.0637994  67.5789671  47.5790245
  77.2036186  66.0872712  47.3618281  78.3608358  69.9012178  49.5107433
  78.5374986  70.8230142  49.3228417  79.1565191  69.5870597  49.9401813
  86.4476539  52.7901545  55.3855648  86.1040809  53.6803187  55.3094759
  86.8155502  52.6003203  54.5225233  74.5162390  65.1135076  48.2044250
  75.3537612  65.5232084  47.9877958  74.6940658  64.1734518  48.1744444
  86.4126822  62.7810156  43.8928083  85.8973446  63.5514761  44.1316471
  86.1404131  62.1075292  44.5161145  83.9973933  57.6259857  48.9513322
  83.1415529  57.2366707  48.7718960  84.4100885  57.7051818  48.0913107
  85.5273080  55.1606200  53.3504882  85.0237875  55.1236335  52.5372687
  85.8203687  56.0698943  53.4101538  81.7715966  55.2444930  52.3571063
  82.6368962  55.0487739  51.9976953  81.8393475  55.0155282  53.2840420
  91.3861096  65.5342511  45.8281257  90.6090539  65.1953670  45.3836419
  92.0652577  65.5395134  45.1536222  86.2013125  60.6537248  45.7187865
  85.8963261  60.9683397  46.5698008  87.1543567  60.7318668  45.7615198
  84.6459557  66.8127472  47.3680819  84.1180919  66.0780231  47.0554056
  84.1447060  67.5902148  47.1220787  89.6252403  65.0076492  52.4847865
  88.9676078  65.6975753  52.5727993  90.4292802  65.3972924  52.8281851
  79.3778285  57.4747138  49.7287430  79.9522037  57.2522319  48.9960623
  79.9649267  57.5435832  50.4816031  88.4357862  63.3620865  50.5351807
  88.9489744  63.9950857  51.0373516  89.0859086  62.7622060  50.1695167
  79.7047872  59.5051599  43.7483315  78.8685184  59.8426285  44.0692590
  79.5652641  59.3700579  42.8110452  81.6800952  54.3488387  48.4562499
  81.0265365  54.0337404  47.8319114  81.6381427  53.7264127  49.1822322
  82.7912157  64.6307682  40.3715792  81.8839219  64.3996935  40.5706941
  83.2883189  63.8345301  40.5589773  85.6980236  73.3405189  43.2912478
  85.0241935  73.6436886  43.8997436  86.0846058  74.1434269  42.9417935
  84.9138693  60.8370320  52.7810147  83.9961254  61.0585267  52.6231835
  85.3298836  60.9116631  51.9221854  85.6973741  62.2361736  47.9112827
  86.4445559  62.7483133  47.6019949  85.9665330  61.9145789  48.7717221
  83.9700391  64.7320277  44.8939782  83.0611610  64.4479310  44.9912251
  83.9995475  65.1519355  44.0343089  89.2019658  68.3426866  48.6630949
  88.7481985  67.5017776  48.7196140  88.5713625  68.9788265  49.0005729
  88.1452578  59.2718852  49.8931617  87.4075335  58.7596238  50.2241859
  88.3979351  58.8319234  49.0814894  87.6452597  70.1803363  49.5980767
  87.9375572  70.7408420  48.8793133  88.1551218  70.4731924  50.3533926
  88.2464205  52.0495104  50.4873386  88.5523082  51.1892468  50.1999301
  88.9716810  52.6412724  50.2872380  74.5388561  62.4525791  48.8754984
  74.3412961  61.8595152  48.1506050  73.9835225  62.1478001  49.5930923
  82.5185285  62.3448897  50.9949577  82.5733895  61.3922734  50.9192054
  81.7076487  62.5008336  51.4790875  83.6676479  66.2729020  42.2327860
  83.2295908  65.5564879  41.7733498  84.4086919  66.5005135  41.6712952
  80.4577645  60.9625957  48.7539956  79.6445510  61.2620128  49.1605148
  80.9536639  60.5681646  49.4714438  86.0551856  61.4267782  57.5854850
  86.4101244  61.6539255  58.4449316  86.7023988  61.7586158  56.9632105
  91.7849593  64.5486217  48.2904179  91.6467492  64.7387813  47.3625368
  91.4285812  65.3105600  48.7472230  79.9491719  58.5344313  54.3701191
  80.5891099  58.3933072  53.6724154  79.1169250  58.2478826  53.9939793
  91.8118973  66.6162744  53.3015450  92.2455480  66.5238034  54.1498504
  92.5250554  66.5920245  52.6635466  80.7252023  67.8346743  50.4836183
  81.5192622  67.3397063  50.2818758  80.0143716  67.3064606  50.1203889
  77.0334787  61.9789825  46.5595936  76.1032375  61.9174280  46.7765898
  77.1292259  61.4565778  45.7632577  76.9520336  58.5044638  49.1474178
  77.2127153  59.4189971  49.0383338  77.7737508  58.0369080  49.2970790
  78.4245261  59.9182395  56.3173002  79.0968315  59.7099757  55.6685651
  77.5975048  59.7204481  55.8778234  92.6734522  66.6586445  55.8348336
  92.8670413  67.5632256  56.0807611  92.5735141  66.1993864  56.6686921
  84.5034968  64.3825101  56.3935483  85.4327028  64.5336260  56.2204450
  84.0825998  64.4709121  55.5384129  84.8528514  67.7857368  51.5522858
  84.5178347  67.7458138  52.4480508  84.3532460  67.1202084  51.0793268
  87.7887706  65.1313402  41.8259918  87.1716877  64.4060230  41.7292971
  87.3204195  65.8922762  41.4826992  79.5786252  59.3498826  40.9481222
  78.7015718  59.2287627  40.5843469  80.0544005  58.5584905  40.6960111
  71.0988392  64.1375986  51.0422729  71.7859432  63.8237716  50.4543745
  70.9436521  65.0417351  50.7689981  75.9023114  59.0266183  55.4707753
  75.8181303  58.4191852  54.7358163  75.0805821  59.5175201  55.4717249
  86.0746828  57.5119746  50.8377948  86.5715528  56.7589708  50.5179018
  85.3033810  57.5484063  50.2721157  93.9276586  63.2160112  52.4796240
  93.9166462  64.0984827  52.1090173  93.0593965  62.8631663  52.2850777
  87.1576609  66.2691433  48.4116371  86.2232888  66.3892896  48.2421076
  87.3353277  65.3663900  48.1476381  82.6581797  59.6537129  50.5649633
  82.2879584  59.1008170  51.2530538  83.1540889  59.0495263  50.0124633
  90.5449160  62.1108753  48.9466406  91.0109612  62.9436744  48.8726708
  90.9956661  61.6453734  49.6511664  88.6125391  68.4552574  45.9452558
  88.8885235  68.3409169  46.8546432  87.7429890  68.0570059  45.9064731
  88.5165823  54.4789340  52.9857307  87.6028903  54.7093566  53.1539514
  88.9458924  54.5627784  53.8371339  88.2872281  62.6679232  55.4857201
  87.6343732  62.9155139  54.8309654  88.6652661  61.8543370  55.1519678
  85.2479455  72.7038925  49.5885371  85.4301850  71.8860581  50.0513124
  86.0712441  72.9206617  49.1510261  85.5821621  71.6307110  46.8500420
  86.1109387  71.1199565  46.2370582  85.8449840  71.3149640  47.7145953
  70.6756368  62.2176579  53.3140196  70.7140468  61.6840170  54.1077314
  70.1696661  61.6911785  52.6951174  78.0547131  57.0641120  56.8102739
  78.1188457  57.9255951  56.3980136  77.9914251  56.4515122  56.0775097
  74.3064946  60.9440682  46.3894128  74.6018387  60.0351360  46.3361181
  73.4052982  60.9228421  46.0675130  77.8359193  59.0196678  52.3721676
  77.1145779  59.6332646  52.2329150  78.6252449  59.5554443  52.2938322
  76.0352787  58.6254779  46.5133453  75.7065494  57.7452158  46.3308559
  76.3892158  58.5702448  47.4009842  85.2832366  70.2609682  51.0228438
  85.1357329  69.3326389  51.2036008  86.1085860  70.2829773  50.5385514
  79.1494611  58.9127749  46.8808931  79.4890683  59.4413670  46.1587539
  79.5966731  59.2508155  47.6567497  88.8866488  71.0838241  52.1093311
  89.8113036  70.8781102  51.9717762  88.7181792  70.8354642  53.0182653
  82.4954523  54.3814112  54.7839322  83.3180593  53.9074590  54.6618212
  82.7392587  55.1604596  55.2838008  81.1362758  57.4102371  45.0802223
  81.8571120  57.7883623  44.5765940  80.5128062  58.1291247  45.1837201
  85.2793881  58.1147520  46.0160556  85.4957495  58.9972157  45.7149384
  84.7987948  57.7233733  45.2866198  80.0193102  61.0733233  52.5931300
  79.8737683  61.3873536  53.4855582  79.5418306  61.6918133  52.0402199
  81.8789485  58.0635781  52.6412190  81.8651054  57.1676874  52.3044488
  82.5961913  58.0706445  53.2750476  83.7315616  58.4973121  54.6865317
  83.4733393  59.4190192  54.6849648  83.2000656  58.1003556  55.3765781
  88.6761804  71.6023908  47.4655403  88.8498682  71.0370331  46.7129255
  89.1690696  72.4024803  47.2834893  74.4938764  63.6138577  55.5318961
  73.9492232  64.3898385  55.6639236  75.3718114  63.9609382  55.3738083
  81.2826381  56.9450161  47.9099760  81.4042292  56.0166807  48.1090647
  80.9928423  56.9588847  46.9978075  84.1517571  54.6305072  51.0466480
  84.1739268  54.6944405  50.0918459  84.5685630  53.7909580  51.2406986
  94.5301196  64.3660331  49.0845702  94.9732342  63.6167656  48.6864826
  93.6527706  64.3570467  48.7019434  89.6636977  70.9190673  44.5652301
  90.3587882  71.5397365  44.7839616  90.0060127  70.0686024  44.8404679
  91.5628400  68.3690378  46.0939632  92.0879724  68.7077651  45.3688952
  91.4750753  67.4337393  45.9102766  91.3720181  65.8515748  58.7123558
  91.4218186  65.6865756  59.6539081  91.2634104  64.9843007  58.3221439
  80.2556440  68.5304294  46.0015647  80.4044560  69.2139758  45.3482320
  81.0622883  68.5109384  46.5165103  88.6623944  61.8346676  60.0282865
  89.5633806  61.6953141  59.7366863  88.7371918  62.0001131  60.9681042
  94.0734060  65.8365569  51.4768150  94.9080952  66.2755373  51.6405710
  94.2093189  65.3604223  50.6576396  91.1225566  63.3945304  57.4245638
  91.5979688  63.5872951  56.6164489  90.1991132  63.4504490  57.1789021
  78.0109073  64.5569471  47.0076716  77.7655115  63.6531801  47.2056926
  78.1804987  64.5586622  46.0656194  85.7005783  55.4293148  56.3901472
  86.2187727  56.1654175  56.0647960  85.3460915  55.7357141  57.2248231
  77.2804720  60.2897829  44.5062877  76.5873965  60.3642184  43.8502913
  77.0356472  59.5258173  45.0284394  85.9518377  51.8493430  51.9102368
  86.2320131  51.1816619  52.5362795  86.7368984  52.0422526  51.3977032
  83.7551845  71.0252424  43.4727395  83.1825812  71.6442611  43.0197866
  84.3284639  71.5751786  44.0067316  89.8227235  60.2711064  55.6573943
  90.7744658  60.3709162  55.6786167  89.6530686  59.4789333  56.1672028
  87.8441615  57.3566648  55.8433344  87.2491547  57.6371660  55.1479833
  87.5591311  57.8460548  56.6150085  86.9749105  71.3089574  44.6035977
  87.9079778  71.2435136  44.8068852  86.8872318  72.1445841  44.1450509
  89.6037122  70.6255445  41.5639924  89.5250753  70.2915308  42.4575682
  90.4246789  71.1177213  41.5631397  92.3015313  63.4917184  54.7716243
  92.2691633  62.5533185  54.9575927  92.9115937  63.5701221  54.0382068
  84.1398644  62.3613237  40.8143447  85.0857749  62.2319445  40.8831865
  83.7612889  61.6227899  41.2912875  92.4509801  60.2828227  54.8174526
  91.9348850  59.4986684  54.6304455  93.3349750  59.9546944  54.9821046
  90.1120528  54.0269243  50.7770339  89.9145350  53.7184331  51.6613671
  90.7220234  54.7530882  50.9068269  98.1191863  64.5533191  53.9122280
  98.8495251  64.2918479  54.4729983  97.5098808  63.8161913  53.9524348
  96.2007160  62.6941053  54.5096731  95.4740324  62.5597018  53.9013223
  95.7854447  63.0017882  55.3153449  82.3241561  60.2863213  40.7498332
  81.4173016  59.9896326  40.8261046  82.6017542  59.9893031  39.8832618
  73.2419501  61.6069577  51.1997379  72.9222286  60.7534885  50.9071753
  72.6952930  61.8218155  51.9555346  77.0199409  64.3232018  54.9166885
  77.2385419  65.2549126  54.9354919  77.4325183  63.9639992  55.7021689
  83.9403627  54.8300103  46.9042574  83.1304355  54.4847188  47.2797820
  84.6288044  54.5207647  47.4930185  85.8694175  53.9078150  48.5266870
  86.4225214  54.3273603  49.1856893  86.1064261  52.9813898  48.5689826
  81.0940346  57.1450149  40.8910311  81.9559510  57.4705047  41.1506129
  81.2790690  56.3581644  40.3783377  73.1107761  65.2272488  53.1690500
  72.4171233  64.8126441  52.6560455  73.8580752  65.2693025  52.5723919
  89.2472982  56.0178675  48.0345534  88.6671651  56.6763479  47.6523587
  88.9808915  55.1956020  47.6232952  87.6976548  55.4183733  50.2366855
  88.1976327  55.5300267  49.4281174  88.3412156  55.1144786  50.8767663
  75.0244504  65.1590742  51.0456515  75.0015192  65.2578429  50.0938398
  75.3345140  66.0055893  51.3673681  88.0297860  58.1778765  47.0901883
  87.1423715  58.4628416  46.8722077  88.4451849  58.0172529  46.2429160
  91.3812396  58.2025286  50.8056222  92.1572786  58.6921739  51.0780839
  90.6560530  58.6283341  51.2628091  93.8184955  58.9152906  51.8630163
  94.4129446  58.6748642  51.1523471  93.8911539  58.1960036  52.4903699
  87.1741074  67.9423440  41.1849903  87.8776924  68.1473443  41.8007558
  86.4503722  68.5100202  41.4498986  88.0038884  63.6933301  47.3052173
  87.9474085  64.1501853  46.4659805  88.5567226  62.9323986  47.1275016
  91.8143690  59.4823033  48.1302292  91.5580624  59.0819669  48.9610500
  91.1896558  60.1966827  48.0052432  96.1256028  62.2219106  50.6373584
  95.5655586  62.2912296  51.4105146  95.5199531  62.0460091  49.9173080
  89.0827771  68.3805969  43.2348363  89.9173375  67.9487168  43.0525838
  88.9212114  68.2087983  44.1625257  88.7373663  64.8838083  44.6004702
  88.6822467  64.7182354  43.6593146  88.1119718  65.5914116  44.7566892
  73.5266178  60.1206147  58.4266124  74.1725042  59.6105101  58.9153349
  73.3183329  60.8574829  59.0009550  82.0469789  54.3846192  44.1790020
  82.0348458  55.3288032  44.3358291  82.9393211  54.2016337  43.8849482
  85.8621908  50.9788968  48.4335957  85.0954304  50.4247455  48.5792640
  86.2732613  51.0510837  49.2950109  97.7112046  78.8975620  53.3303539
  98.3490456  78.7782368  52.6266880  97.5932889  79.8456464  53.3891492
  94.5201752  78.8503049  53.2665064  94.1820264  78.7344113  52.3785599
  95.3891521  78.4494214  53.2466070  90.3788568  80.7038525  49.2561955
  89.8153433  80.6128462  48.4878243  90.2640963  79.8838429  49.7364448
  95.0021535  80.0037900  59.2251270  94.9910176  79.6090699  58.3531773
  95.1642175  79.2703973  59.8185041  91.7228796  82.7875012  58.1730454
  91.4318662  83.6920643  58.0577120  92.3585781  82.8291540  58.8874523
  92.6485003  80.1651861  54.7631813  93.2448576  79.9407883  54.0488776
  92.7059975  79.4236606  55.3657261  92.2210032  77.6191296  42.5982004
  92.4735552  77.0972817  41.8365467  91.2834591  77.4557441  42.7008688
  97.2653315  76.6227074  50.4056748  98.0516404  76.2046497  50.0547165
  97.5292019  77.5273166  50.5738396 102.6661742  76.5602307  51.3089726
 103.3986914  75.9901524  51.5427556 101.9101097  76.1723908  51.7496232
  94.2837861  78.9829549  48.5053069  93.9196069  78.4560170  49.2165990
  95.1404977  78.5928018  48.3319554 100.1887162  70.2723882  55.7684335
  99.8570487  71.1419293  55.5445550  99.5932775  69.9560166  56.4478365
  93.9243348  74.0119449  43.5014417  94.0917751  74.8799685  43.8684888
  93.7340517  74.1746730  42.5775706  96.6818682  82.4736428  55.1680247
  96.3819405  83.3761466  55.0596055  96.3369741  82.2068611  56.0201400
  90.1331163  78.9250224  51.2016952  89.2081660  78.7926439  51.4094644
  90.3815576  79.7044444  51.6986894 100.0815825  74.9918968  52.8477685
  99.1732703  74.9234376  52.5536446 100.0303421  75.4690913  53.6759510
  93.9032569  76.4677106  44.4861084  93.7832194  76.9134157  45.3246564
  93.2085158  76.8162424  43.9274622  94.1556691  76.4108613  60.7912582
  93.3790025  76.9702533  60.7815447  94.7947254  76.8965396  61.3127452
 101.9477472  73.1935406  54.6255559 101.3051852  73.4867939  53.9795353
 101.4432400  73.0788326  55.4308755  99.6017635  76.9398579  45.3141418
 100.5135492  77.1725966  45.1389115  99.0927283  77.5235624  44.7516496
  92.4103063  79.2194067  60.3530549  93.1517748  79.7579111  60.0765373
  91.7040049  79.8460355  60.5102101  94.2389473  76.2995814  56.3236267
  95.0850668  76.7235227  56.4670916  94.1788111  75.6429438  57.0174831
  98.2087218  81.9224398  52.7054999  97.5796080  82.0870112  52.0031067
  97.8212880  82.3366007  53.4765963  97.3888918  73.9600182  57.9817441
  97.1449850  74.7142243  57.4451717  97.6648849  74.3385530  58.8164688
  99.3427381  80.5038795  56.6594707  99.5544276  81.1470555  55.9829088
  99.2957129  79.6701111  56.1916637  96.9453610  73.1156615  53.5631279
  96.0838089  73.4137869  53.8548016  96.9716045  73.3327014  52.6312311
  93.7615180  81.6598806  49.9705084  94.2253525  81.9386509  49.1809707
  93.4971978  80.7582250  49.7878175  90.6539261  81.2070287  52.9084848
  91.2240618  81.6357556  52.2702332  91.2447373  80.9252872  53.6069033
  92.6984066  77.7821958  46.7794650  93.4008109  78.2343002  47.2468576
  92.3664694  77.1405777  47.4074543 100.4573209  83.3810750  54.8317064
 101.2790653  82.9790937  54.5499746 100.4535612  83.2778984  55.7833180
  94.2229813  82.9294793  56.9877774  94.2874245  83.3915201  57.8235946
  93.5140737  82.2992158  57.1160084  94.1200599  83.0133397  59.8562007
  94.6528936  82.2521685  59.6261315  93.5914680  82.7207049  60.5986161
  97.2870294  68.1193463  55.3855648  96.9434563  69.0095104  55.3094759
  97.6549256  67.9295120  54.5225233  97.2520577  78.1102074  43.8928083
  96.7367200  78.8806678  44.1316471  96.9797885  77.4367210  44.5161145
  94.8367688  72.9551775  48.9513322  93.9809284  72.5658625  48.7718960
  95.2494639  73.0343735  48.0913107  96.3666834  70.4898118  53.3504882
  95.8631630  70.4528253  52.5372687  96.6597441  71.3990861  53.4101538
  92.6109720  70.5736848  52.3571063  93.4762717  70.3779656  51.9976953
  92.6787229  70.3447199  53.2840420  97.0406880  75.9829166  45.7187865
  96.7357015  76.2975315  46.5698008  97.9937322  76.0610586  45.7615198
 100.4646158  80.3368410  52.4847865  99.8069832  81.0267671  52.5727993
 101.2686557  80.7264842  52.8281851  90.2172039  72.8039056  49.7287430
  90.7915791  72.5814237  48.9960623  90.8043022  72.8727750  50.4816031
  99.2751616  78.6912782  50.5351807  99.7883498  79.3242774  51.0373516
  99.9252840  78.0913978  50.1695167  90.5441626  74.8343517  43.7483315
  89.7078939  75.1718203  44.0692590  90.4046396  74.6992496  42.8110452
  92.5194707  69.6780304  48.4562499  91.8659119  69.3629322  47.8319114
  92.4775181  69.0556045  49.1822322  93.6305912  79.9599600  40.3715792
  92.7232974  79.7288853  40.5706941  94.1276944  79.1637219  40.5589773
  95.7532447  76.1662238  52.7810147  94.8355009  76.3877185  52.6231835
  96.1692591  76.2408548  51.9221854  96.5367495  77.5653654  47.9112827
  97.2839314  78.0775051  47.6019949  96.8059085  77.2437706  48.7717221
  94.8094145  80.0612194  44.8939782  93.9005364  79.7771227  44.9912251
  94.8389229  80.4811273  44.0343089  98.9846332  74.6010770  49.8931617
  98.2469089  74.0888156  50.2241859  99.2373106  74.1611152  49.0814894
  98.4846352  85.5095281  49.5980767  98.7769326  86.0700338  48.8793133
  98.9944972  85.8023842  50.3533926  99.0857960  67.3787022  50.4873386
  99.3916836  66.5184385  50.1999301  99.8110564  67.9704642  50.2872380
  93.3579039  77.6740815  50.9949577  93.4127649  76.7214651  50.9192054
  92.5470241  77.8300254  51.4790875  94.5070233  81.6020938  42.2327860
  94.0689663  80.8856797  41.7733498  95.2480674  81.8297053  41.6712952
  91.2971399  76.2917875  48.7539956  90.4839265  76.5912045  49.1605148
  91.7930393  75.8973564  49.4714438  96.8945611  76.7559699  57.5854850
  97.2494999  76.9831172  58.4449316  97.5417742  77.0878076  56.9632105
  90.7885474  73.8636230  54.3701191  91.4284853  73.7224989  53.6724154
  89.9563004  73.5770744  53.9939793 102.6512727  81.9454662  53.3015450
 103.0849234  81.8529951  54.1498504 103.3644308  81.9212163  52.6635466
  91.5645778  83.1638661  50.4836183  92.3586376  82.6688981  50.2818758
  90.8537470  82.6356524  50.1203889  87.7914090  73.8336555  49.1474178
  88.0520908  74.7481889  49.0383338  88.6131263  73.3660998  49.2970790
 103.5128277  81.9878363  55.8348336 103.7064167  82.8924173  56.0807611
 103.4128895  81.5285782  56.6686921  95.1664588  71.8736253  58.3338663
  94.5192503  72.5726203  58.2403139  95.9365603  72.3072397  58.7014911
  95.3428722  79.7117018  56.3935483  96.2720782  79.8628178  56.2204450
  94.9219752  79.8001039  55.5384129  94.1417054  83.7367683  54.1634020
  94.0028140  83.3686467  55.0359958  93.3531650  84.2515322  53.9917978
  95.6922269  83.1149285  51.5522858  95.3572102  83.0750055  52.4480508
  95.1926215  82.4494001  51.0793268  98.6281461  80.4605320  41.8259918
  98.0110631  79.7352148  41.7292971  98.1597949  81.2214680  41.4826992
  92.2948814  78.2336875  56.5659119  93.0048432  77.5930067  56.5245737
  92.2518122  78.4849770  57.4885300  91.0077748  75.2202093  58.3854758
  90.4715105  74.7692831  59.0376355  90.4194456  75.3548001  57.6425223
  90.4180007  74.6790744  40.9481222  89.5409473  74.5579545  40.5843469
  90.8937760  73.8876822  40.6960111  96.9140583  72.8411664  50.8377948
  97.4109282  72.0881626  50.5179018  96.1427564  72.8775980  50.2721157
 104.7670340  78.5452029  52.4796240 104.7560216  79.4276745  52.1090173
 103.8987720  78.1923580  52.2850777  93.4975551  74.9829047  50.5649633
  93.1273339  74.4300087  51.2530538  93.9934644  74.3787180  50.0124633
 101.3842915  77.4400670  48.9466406 101.8503367  78.2728662  48.8726708
 101.8350415  76.9745652  49.6511664  91.3264750  85.4426542  57.6604651
  92.0274210  86.0763025  57.8134045  90.8559865  85.7841273  56.9000290
  99.3559577  69.8081257  52.9857307  98.4422657  70.0385484  53.1539514
  99.7852679  69.8919701  53.8371339  99.1266036  77.9971149  55.4857201
  98.4737486  78.2447057  54.8309654  99.5046416  77.1835287  55.1519678
  95.1753609  78.7390960  61.9723238  94.4994246  78.6385090  62.6425613
  95.9981243  78.5830174  62.4359235  86.8746542  73.9546697  46.5133453
  86.5459248  73.0744076  46.3308559  87.2285913  73.8994366  47.4009842
  89.9888365  74.2419667  46.8808931  90.3284438  74.7705588  46.1587539
  90.4360486  74.5800073  47.6567497  92.6831806  72.6256717  56.3311999
  92.3428626  71.8264531  56.7332679  91.9770812  72.9258428  55.7588832
  93.3348278  69.7106030  54.7839322  94.1574347  69.2366508  54.6618212
  93.5786341  70.4896514  55.2838008  91.9756512  72.7394288  45.0802223
  92.6964875  73.1175541  44.5765940  91.3521816  73.4583165  45.1837201
  96.1187635  73.4439437  46.0160556  96.3351250  74.3264075  45.7149384
  95.6381702  73.0525651  45.2866198  90.8586857  76.4025151  52.5931300
  90.7131437  76.7165454  53.4855582  90.3812060  77.0210051  52.0402199
  92.7183239  73.3927698  52.6412190  92.7044808  72.4968792  52.3044488
  93.4355668  73.3998362  53.2750476  94.5709370  73.8265039  54.6865317
  94.3127148  74.7482109  54.6849648  94.0394411  73.4295473  55.3765781
  92.1220135  72.2742079  47.9099760  92.2436047  71.3458725  48.1090647
  91.8322178  72.2880765  46.9978075  94.9911326  69.9596989  51.0466480
  95.0133023  70.0236322  50.0918459  95.4079385  69.1201498  51.2406986
  99.5017698  77.1638594  60.0282865 100.4027561  77.0245059  59.7366863
  99.5765673  77.3293049  60.9681042  93.8360503  74.5405449  58.8736051
  92.9663813  74.8339015  58.6018640  94.0719984  75.1245894  59.5943315
 101.9619321  78.7237222  57.4245638 102.4373442  78.9164868  56.6164489
 101.0384886  78.7796408  57.1789021  96.5399537  70.7585065  56.3901472
  97.0581481  71.4946092  56.0647960  96.1854670  71.0649059  57.2248231
  96.7912131  67.1785348  51.9102368  97.0713885  66.5108537  52.5362795
  97.5762738  67.3714444  51.3977032 100.6620990  75.6002982  55.6573943
 101.6138413  75.7001080  55.6786167 100.4924440  74.8081251  56.1672028
  98.6835369  72.6858565  55.8433344  98.0885301  72.9663578  55.1479833
  98.3985066  73.1752466  56.6150085 100.4430876  85.9547362  41.5639924
 100.3644508  85.6207226  42.4575682 101.2640543  86.4469130  41.5631397
 103.1409067  78.8209102  54.7716243 103.1085388  77.8825102  54.9575927
 103.7509691  78.8993138  54.0382068  94.9792398  77.6905155  40.8143447
  95.9251503  77.5611363  40.8831865  94.6006643  76.9519817  41.2912875
 103.2903556  75.6120145  54.8174526 102.7742605  74.8278602  54.6304455
 104.1743504  75.2838862  54.9821046 100.9514283  69.3561161  50.7770339
 100.7539104  69.0476249  51.6613671 101.5613988  70.0822800  50.9068269
  93.1635315  75.6155131  40.7498332  92.2566771  75.3188244  40.8261046
  93.4411296  75.3184949  39.8832618  94.7797381  70.1592021  46.9042574
  93.9698110  69.8139106  47.2797820  95.4681798  69.8499564  47.4930185
  96.7087929  69.2370068  48.5266870  97.2618968  69.6565521  49.1856893
  96.9458016  68.3105816  48.5689826  91.9334100  72.4742066  40.8910311
  92.7953264  72.7996965  41.1506129  92.1184444  71.6873562  40.3783377
 100.0866737  71.3470593  48.0345534  99.5065406  72.0055397  47.6523587
  99.8202669  70.5247937  47.6232952  98.5370303  70.7475650  50.2366855
  99.0370081  70.8592185  49.4281174  99.1805911  70.4436703  50.8767663
  89.1125018  81.1159931  57.7273927  89.9317907  81.6104009  57.7508764
  89.3861826  80.1991899  57.6991495  98.8691615  73.5070683  47.0901883
  97.9817470  73.7920334  46.8722077  99.2845604  73.3464446  46.2429160
 102.2206151  73.5317204  50.8056222 102.9966541  74.0213657  51.0780839
 101.4954285  73.9575258  51.2628091 104.6578709  74.2444823  51.8630163
 105.2523200  74.0040559  51.1523471 104.7305293  73.5251954  52.4903699
  98.0134828  83.2715358  41.1849903  98.7170678  83.4765360  41.8007558
  97.2897477  83.8392120  41.4498986 102.6537444  74.8114951  48.1302292
 102.3974378  74.4111587  48.9610500 102.0290312  75.5258745  48.0052432
  92.8863543  69.7138109  44.1790020  92.8742213  70.6579949  44.3358291
  93.7786965  69.5308255  43.8849482  96.7015663  66.3080886  48.4335957
  95.9348058  65.7539373  48.5792640  97.1126368  66.3802755  49.2950109
 106.7981881  99.7001410  44.5676420 106.1469861 100.2855491  44.1810434
 107.5926244 100.2307605  44.6271458 108.2757146  97.3891842  45.1045404
 107.6402979  97.4626469  45.8166309 107.9454553  97.9785441  44.4264484
 102.5033216 104.5672666  48.1351215 102.4257246 105.5180491  48.2139696
 101.8994859 104.2218538  48.7926141 112.9270204  98.1870753  50.0599363
 112.2421242  98.5669655  49.5096396 113.0114053  98.7966080  50.7931311
 104.6008934  96.9890724  49.9705084 105.0647280  97.2678427  49.1809707
 104.3365732  96.0874168  49.7878175 119.3872957  95.0541416  51.1802035
 118.6336665  94.4848814  51.0246040 119.5220498  95.0204081  52.1272670
 104.7771585  99.9254819  46.8556755 104.6417260 100.7706354  47.2841603
 105.3181397 100.1274096  46.0922689 113.0648605  96.1926346  45.8281257
 112.2878048  95.8537506  45.3836419 113.7440086  96.1978969  45.1536222
 106.3247066  97.4711307  47.3680819 105.7968428  96.7364067  47.0554056
 105.8234569  98.2485983  47.1220787 104.4699666  95.2891517  40.3715792
 103.5626728  95.0580771  40.5706941 104.9670698  94.4929136  40.5589773
 107.3767745 103.9989024  43.2912478 106.7029444 104.3020721  43.8997436
 107.7633567 104.8018105  42.9417935 110.8807167  99.0010702  48.6630949
 110.4269494  98.1601611  48.7196140 110.2501134  99.6372100  49.0005729
 109.3240106 100.8387198  49.5980767 109.6163081 101.3992255  48.8793133
 109.8338727 101.1315759  50.3533926 105.3463988  96.9312856  42.2327860
 104.9083417  96.2148715  41.7733498 106.0874428  97.1588971  41.6712952
 113.4637102  95.2070053  48.2904179 113.3255001  95.3971649  47.3625368
 113.1073321  95.9689436  48.7472230 114.3522031  97.3170280  55.8348336
 114.5457922  98.2216091  56.0807611 114.2522650  96.8577700  56.6686921
 105.5758960 104.1668697  45.5059557 105.7510716 103.6956740  46.3205180
 104.8891748 104.7934463  45.7340818 106.5316023  98.4441203  51.5522858
 106.1965856  98.4041973  52.4480508 106.0319969  97.7785919  51.0793268
 109.4675215  95.7897237  41.8259918 108.8504386  95.0644066  41.7292971
 108.9991704  96.5506598  41.4826992 100.1420046 107.3158060  52.2799417
 100.3816644 107.9476584  52.9578436  99.2989242 106.9646100  52.5664776
 101.2573761  90.0082662  40.9481222 100.3803227  89.8871462  40.5843469
 101.7331514  89.2168740  40.6960111 104.4437687 102.3608952  48.1943743
 103.6605209 102.9030632  48.2881967 105.1430432 102.8782932  48.5937984
 115.6064095  93.8743947  52.4796240 115.5953971  94.7568662  52.1090173
 114.7381474  93.5215498  52.2850777 108.8364118  96.9275269  48.4116371
 107.9020397  97.0476731  48.2421076 109.0140786  96.0247736  48.1476381
 110.2912900  99.1136409  45.9452558 110.5672744  98.9993004  46.8546432
 109.4217399  98.7153894  45.9064731 106.9266964 103.3622760  49.5885371
 107.1089359 102.5444416  50.0513124 107.7499950 103.5790452  49.1510261
 107.2609130 102.2890945  46.8500420 107.7896896 101.7783400  46.2370582
 107.5237349 101.9733475  47.7145953 110.5653997 101.7422076  52.1093311
 111.4900545 101.5364937  51.9717762 110.3969301 101.4938477  53.0182653
 110.3549313 102.2607743  47.4655403 110.5286191 101.6954166  46.7129255
 110.8478205 103.0608638  47.2834893 116.2088705  95.0244166  49.0845702
 116.6519851  94.2751492  48.6864826 115.3315215  95.0154303  48.7019434
 111.3424486 101.5774508  44.5652301 112.0375390 102.1981201  44.7839616
 111.6847636 100.7269859  44.8404679 113.2415909  99.0274213  46.0939632
 113.7667233  99.3661486  45.3688952 113.1538262  98.0921229  45.9102766
 104.9256570 105.0946197  50.4534885 104.4861560 104.6022575  51.1467742
 105.6764687 104.5519164  50.2126960 115.7521569  96.4949405  51.4768150
 116.5868461  96.9339209  51.6405710 115.8880698  96.0188058  50.6576396
 105.4339354 101.6836260  43.4727395 104.8613321 102.3026447  43.0197866
 106.0072148 102.2335621  44.0067316 108.6536614 101.9673410  44.6035977
 109.5867287 101.9018971  44.8068852 108.5659827 102.8029677  44.1450509
 111.2824631 101.2839280  41.5639924 111.2038262 100.9499144  42.4575682
 112.1034298 101.7761048  41.5631397 105.8186153  93.0197072  40.8143447
 106.7645258  92.8903280  40.8831865 105.4400398  92.2811734  41.2912875
 119.7979372  95.2117026  53.9122280 120.5282760  94.9502314  54.4729983
 119.1886317  94.4745748  53.9524348 117.8794669  93.3524889  54.5096731
 117.1527833  93.2180854  53.9013223 117.4641956  93.6601717  55.3153449
 104.0029070  90.9447049  40.7498332 103.0960525  90.6480161  40.8261046
 104.2805051  90.6476867  39.8832618 102.7727855  87.8033984  40.8910311
 103.6347019  88.1288882  41.1506129 102.9578199  87.0165480  40.3783377
 115.4972464  89.5736741  51.8630163 116.0916955  89.3332477  51.1523471
 115.5699048  88.8543872  52.4903699 108.8528583  98.6007275  41.1849903
 109.5564433  98.8057278  41.8007558 108.1291231  99.1684037  41.4498986
 113.4931199  90.1406869  48.1302292 113.2368133  89.7403504  48.9610500
 112.8684067  90.8550663  48.0052432 117.8043537  92.8802942  50.6373584
 117.2443095  92.9496131  51.4105146 117.1987040  92.7043926  49.9173080
 110.7615280  99.0389805  43.2348363 111.5960884  98.6071003  43.0525838
 110.5999623  98.8671818  44.1625257 110.4161172  95.5421918  44.6004702
 110.3609976  95.3766189  43.6593146 109.7907227  96.2497951  44.7566892
 119.3899555 109.5559456  53.3303539 120.0277965 109.4366203  52.6266880
 119.2720398 110.5040300  53.3891492 116.1989261 109.5086884  53.2665064
 115.8607773 109.3927949  52.3785599 117.0679030 109.1078049  53.2466070
 112.0576077 111.3622360  49.2561955 111.4940942 111.2712297  48.4878243
 111.9428472 110.5422265  49.7364448 116.6809044 110.6621736  59.2251270
 116.6697685 110.2674534  58.3531773 116.8429684 109.9287808  59.8185041
 109.6040509 112.8573552  52.0946176 110.3961801 112.5164377  51.6792475
 109.8437159 112.9668527  53.0148329 117.6375636 115.0293328  44.5676420
 116.9863616 115.6147408  44.1810434 118.4319999 115.5599523  44.6271458
 111.5631263 112.1182465  44.9663554 112.3362139 111.5711452  44.8276430
 111.9156662 112.9826714  45.1778016 113.4016305 113.4458847  58.1730454
 113.1106171 114.3504478  58.0577120 114.0373290 113.4875375  58.8874523
 114.3272512 110.8235696  54.7631813 114.9236085 110.5991718  54.0488776
 114.3847484 110.0820441  55.3657261 113.8997541 108.2775131  42.5982004
 114.1523061 107.7556653  41.8365467 112.9622100 108.1141277  42.7008688
 118.9440824 107.2810910  50.4056748 119.7303913 106.8630333  50.0547165
 119.2079528 108.1857002  50.5738396 119.1150901 112.7183760  45.1045404
 118.4796734 112.7918386  45.8166309 118.7848307 113.3077359  44.4264484
 124.3449251 107.2186143  51.3089726 125.0774423 106.6485360  51.5427556
 123.5888606 106.8307743  51.7496232 113.6193829 110.1803237  44.8006379
 113.5030088 109.5048141  45.4687464 113.7296089 109.6935611  43.9838532
 115.9625370 109.6413384  48.5053069 115.5983578 109.1144005  49.2165990
 116.8192486 109.2511853  48.3319554 121.8674671 100.9307717  55.7684335
 121.5357996 101.8003128  55.5445550 121.2720284 100.6144001  56.4478365
 115.6030857 104.6703284  43.5014417 115.7705260 105.5383520  43.8684888
 115.4128026 104.8330566  42.5775706 118.3606191 113.1320263  55.1680247
 118.0606914 114.0345302  55.0596055 118.0157250 112.8652446  56.0201400
 111.8118672 109.5834060  51.2016952 110.8869169 109.4510274  51.4094644
 112.0603085 110.3628279  51.6986894 121.7603334 105.6502803  52.8477685
 120.8520212 105.5818212  52.5536446 121.7090930 106.1274748  53.6759510
 115.5820078 107.1260942  44.4861084 115.4619703 107.5717992  45.3246564
 114.8872667 107.4746259  43.9274622 109.1727483 109.2267333  52.0360741
 109.3019864 109.4801812  52.9500153 108.4924934 109.8195041  51.7165396
 113.3426970 119.8964583  48.1351215 113.2651000 120.8472408  48.2139696
 112.7388614 119.5510456  48.7926141 115.8344200 107.0692449  60.7912582
 115.0577534 107.6286369  60.7815447 116.4734763 107.5549232  61.3127452
 123.6264981 103.8519241  54.6255559 122.9839361 104.1451775  53.9795353
 123.1219909 103.7372162  55.4308755 121.2805144 107.5982415  45.3141418
 122.1923001 107.8309801  45.1389115 120.7714791 108.1819459  44.7516496
 114.0890572 109.8777902  60.3530549 114.8305257 110.4162946  60.0765373
 113.3827558 110.5044191  60.5102101 119.5645912 112.0207043  58.9502710
 119.9729268 111.5789453  58.2057343 118.8423174 111.4459670  59.2036903
 115.9176982 106.9579649  56.3236267 116.7638177 107.3819063  56.4670916
 115.8575620 106.3013274  57.0174831 119.8874727 112.5808233  52.7054999
 119.2583589 112.7453947  52.0031067 119.5000389 112.9949843  53.4765963
 123.7663959 113.5162671  50.0599363 123.0814997 113.8961572  49.5096396
 123.8507808 114.1257998  50.7931311 119.0676427 104.6184018  57.9817441
 118.8237359 105.3726078  57.4451717 119.3436358 104.9969365  58.8164688
 121.0214890 111.1622630  56.6594707 121.2331785 111.8054390  55.9829088
 120.9744638 110.3284947  56.1916637 118.6241119 103.7740451  53.5631279
 117.7625598 104.0721704  53.8548016 118.6503554 103.9910850  52.6312311
 115.4402689 112.3182641  49.9705084 115.9041034 112.5970344  49.1809707
 115.1759487 111.4166086  49.7878175 112.3326770 111.8654123  52.9084848
 112.9028127 112.2941391  52.2702332 112.9234882 111.5836707  53.6069033
 114.3771575 108.4405794  46.7794650 115.0795618 108.8926837  47.2468576
 114.0452203 107.7989612  47.4074543 112.8251936 107.0317550  61.1545859
 112.1950597 107.7133831  61.3881256 112.7188024 106.9200632  60.2098997
 108.1196909 106.6989346  52.0811783 107.3295963 106.9546875  51.6051894
 108.6108156 107.5137684  52.1863824 122.1360718 114.0394585  54.8317064
 122.9578162 113.6374773  54.5499746 122.1323121 113.9362820  55.7833180
 110.0711654 107.0633926  49.0395260 109.2742817 107.1752620  49.5578756
 109.8437246 107.4020578  48.1736150 115.9017322 113.5878629  56.9877774
 115.9661754 114.0499036  57.8235946 115.1928245 112.9575994  57.1160084
 106.4034612 106.9519837  54.5126774 106.6542650 107.8366847  54.7784350
 106.9394160 106.7724438  53.7401866 130.2266711 110.3833334  51.1802035
 129.4730420 109.8140732  51.0246040 130.3614252 110.3495998  52.1272670
 115.6165339 115.2546736  46.8556755 115.4811014 116.0998272  47.2841603
 116.1575152 115.4566014  46.0922689 109.0694737 112.7722174  47.4284680
 109.5819257 113.5665425  47.5790245 109.7217449 112.0748465  47.3618281
 110.8789621 115.8887931  49.5107433 111.0556250 116.8105895  49.3228417
 111.6746455 115.5746350  49.9401813 115.0200640 102.7496195  61.1091367
 115.7610353 103.3503348  61.0295829 115.2518563 102.0073833  60.5509409
 110.1641978 107.9352562  59.3869596 110.0495493 107.0337820  59.6876695
 109.3086496 108.1816259  59.0354413 117.2433816 115.8770303  60.9857097
 116.7997670 115.0906681  60.6678001 117.9051029 116.0649453  60.3200988
 112.0020937 117.4066104  55.5117775 112.5528362 117.2783168  54.7394769
 111.1632413 117.7060993  55.1612668 119.3415054 116.1573103  59.0138498
 119.3233529 116.9781984  58.5218767 120.2634974 116.0327178  59.2388639
 115.7988108 113.6717232  59.8562007 116.3316445 112.9105520  59.6261315
 115.2702189 113.3790884  60.5986161 118.9657803  98.7777298  55.3855648
 118.6222072  99.6678940  55.3094759 119.3336765  98.5878956  54.5225233
 107.0343653 111.1010829  48.2044250 107.8718875 111.5107837  47.9877958
 107.2121921 110.1610271  48.1744444 118.9308086 108.7685909  43.8928083
 118.4154709 109.5390514  44.1316471 118.6585394 108.0951045  44.5161145
 116.5155197 103.6135610  48.9513322 115.6596793 103.2242460  48.7718960
 116.9282148 103.6927571  48.0913107 118.0454343 101.1481953  53.3504882
 117.5419139 101.1112088  52.5372687 118.3384950 102.0574696  53.4101538
 114.2897229 101.2320683  52.3571063 115.1550226 101.0363492  51.9976953
 114.3574738 101.0031035  53.2840420 123.9042360 111.5218264  45.8281257
 123.1271802 111.1829423  45.3836419 124.5833841 111.5270887  45.1536222
 118.7194389 106.6413001  45.7187865 118.4144524 106.9559150  46.5698008
 119.6724831 106.7194421  45.7615198 117.1640821 112.8003225  47.3680819
 116.6362182 112.0655984  47.0554056 116.6628323 113.5777901  47.1220787
 122.1433667 110.9952245  52.4847865 121.4857341 111.6851506  52.5727993
 122.9474066 111.3848677  52.8281851 111.8959548 103.4622891  49.7287430
 112.4703300 103.2398072  48.9960623 112.4830531 103.5311585  50.4816031
 120.9539125 109.3496618  50.5351807 121.4671007 109.9826610  51.0373516
 121.6040349 108.7497813  50.1695167 112.2229135 105.4927352  43.7483315
 111.3866448 105.8302038  44.0692590 112.0833905 105.3576332  42.8110452
 114.1982216 100.3364140  48.4562499 113.5446628 100.0213157  47.8319114
 114.1562690  99.7139880  49.1822322 115.3093421 110.6183435  40.3715792
 114.4020482 110.3872688  40.5706941 115.8064453 109.8221054  40.5589773
 118.2161500 119.3280942  43.2912478 117.5423198 119.6312639  43.8997436
 118.6027322 120.1310022  42.9417935 117.4319956 106.8246073  52.7810147
 116.5142518 107.0461020  52.6231835 117.8480100 106.8992384  51.9221854
 118.2155004 108.2237489  47.9112827 118.9626823 108.7358886  47.6019949
 118.4846594 107.9021542  48.7717221 116.4881654 110.7196030  44.8939782
 115.5792873 110.4355063  44.9912251 116.5176738 111.1395108  44.0343089
 121.7200922 114.3302619  48.6630949 121.2663249 113.4893529  48.7196140
 121.0894888 114.9664018  49.0005729 120.6633841 105.2594605  49.8931617
 119.9256598 104.7471991  50.2241859 120.9160615 104.8194987  49.0814894
 120.1633861 116.1679116  49.5980767 120.4556835 116.7284173  48.8793133
 120.6732481 116.4607677  50.3533926 120.7645468  98.0370857  50.4873386
 121.0704345  97.1768221  50.1999301 121.4898073  98.6288477  50.2872380
 107.0569825 108.4401544  48.8754984 106.8594224 107.8470905  48.1506050
 106.5016489 108.1353754  49.5930923 115.0366548 108.3324650  50.9949577
 115.0915158 107.3798487  50.9192054 114.2257750 108.4884089  51.4790875
 116.1857742 112.2604773  42.2327860 115.7477172 111.5440632  41.7733498
 116.9268183 112.4880888  41.6712952 112.9758908 106.9501710  48.7539956
 112.1626774 107.2495881  49.1605148 113.4717902 106.5557399  49.4714438
 115.1267486 116.9459467  50.6874221 115.0843665 117.1720313  49.7582753
 116.0430185 116.7122842  50.8360022 118.5733120 107.4143535  57.5854850
 118.9282508 107.6415008  58.4449316 119.2205251 107.7461911  56.9632105
 124.3030857 110.5361970  48.2904179 124.1648755 110.7263566  47.3625368
 123.9467076 111.2981353  48.7472230 112.4672983 104.5220066  54.3701191
 113.1072362 104.3808825  53.6724154 111.6350513 104.2354579  53.9939793
 124.3300236 112.6038497  53.3015450 124.7636743 112.5113787  54.1498504
 125.0431817 112.5795998  52.6635466 113.2433287 113.8222496  50.4836183
 114.0373885 113.3272816  50.2818758 112.5324979 113.2940359  50.1203889
 118.0628131 116.2040592  54.8348551 118.1165154 116.7731528  55.6026267
 117.1942913 116.3742477  54.4702588 109.5516050 107.9665578  46.5595936
 108.6213638 107.9050033  46.7765898 109.6473522 107.4441531  45.7632577
 109.4701599 104.4920391  49.1474178 109.7308417 105.4065724  49.0383338
 110.2918772 104.0244833  49.2970790 110.9426525 105.9058148  56.3173002
 111.6149578 105.6975510  55.6685651 110.1156311 105.7080234  55.8778234
 125.1915786 112.6462198  55.8348336 125.3851676 113.5508009  56.0807611
 125.0916404 112.1869617  56.6686921 116.8452097 102.5320089  58.3338663
 116.1980012 103.2310038  58.2403139 117.6153112 102.9656233  58.7014911
 120.2530895 112.7968941  61.4089216 120.1016401 112.5679493  60.4919300
 120.2435574 113.7539542  61.4220561 117.0216231 110.3700854  56.3935483
 117.9508291 110.5212013  56.2204450 116.6007261 110.4584874  55.5384129
 115.8204563 114.3951518  54.1634020 115.6815649 114.0270302  55.0359958
 115.0319159 114.9099157  53.9917978 116.4152715 119.4960614  45.5059557
 116.5904470 119.0248658  46.3205180 115.7285503 120.1226381  45.7340818
 117.3709778 113.7733121  51.5522858 117.0359611 113.7333891  52.4480508
 116.8713724 113.1077837  51.0793268 111.3454022 109.1800751  57.0775439
 111.2073820 108.4480990  57.6786978 112.2558945 109.0909651  56.7959627
 120.3068970 111.1189155  41.8259918 119.6898140 110.3935983  41.7292971
 119.8385458 111.8798515  41.4826992 113.9736323 108.8920710  56.5659119
 114.6835941 108.2513902  56.5245737 113.9305631 109.1433605  57.4885300
 121.9623101 115.8288063  59.4865698 121.9035647 115.1447284  58.8196281
 122.3642620 116.5707053  59.0346324 112.6865257 105.8785928  58.3854758
 112.1502614 105.4276666  59.0376355 112.0981965 106.0131837  57.6425223
 110.9813800 122.6449977  52.2799417 111.2210398 123.2768501  52.9578436
 110.1382997 122.2938017  52.5664776 112.0967516 105.3374579  40.9481222
 111.2196982 105.2163380  40.5843469 112.5725269 104.5460658  40.6960111
 121.9640509 113.7927647  57.7179678 121.0767287 113.4553569  57.8406077
 122.5339060 113.0610679  57.9548443 103.6169656 110.1251739  51.0422729
 104.3040695 109.8113469  50.4543745 103.4617784 111.0293104  50.7689981
 115.4941662 118.4529100  54.6840921 115.4211833 119.2584071  55.1960226
 115.0519055 118.6521066  53.8588942 115.2831442 117.6900870  48.1943743
 114.4998963 118.2322550  48.2881967 115.9824187 118.2074849  48.5937984
 118.5928092 103.4995499  50.8377948 119.0896791 102.7465462  50.5179018
 117.8215073 103.5359816  50.2721157 126.4457849 109.2035865  52.4796240
 126.4347725 110.0860580  52.1090173 125.5775229 108.8507416  52.2850777
 117.9540345 118.3515934  56.8399080 118.6668318 118.9863399  56.7674981
 117.4630374 118.4479800  56.0239082 119.6757872 112.2567186  48.4116371
 118.7414151 112.3768649  48.2421076 119.8534541 111.3539653  48.1476381
 115.1763060 105.6412882  50.5649633 114.8060848 105.0883923  51.2530538
 115.6722153 105.0371016  50.0124633 123.0630424 108.0984506  48.9466406
 123.5290876 108.9312497  48.8726708 123.5137924 107.6329487  49.6511664
 113.0052259 116.1010377  57.6604651 113.7061718 116.7346860  57.8134045
 112.5347374 116.4425109  56.9000290 121.1306655 114.4428327  45.9452558
 121.4066499 114.3284922  46.8546432 120.2611154 114.0445812  45.9064731
 121.0347086 100.4665093  52.9857307 120.1210166 100.6969320  53.1539514
 121.4640188 100.5503537  53.8371339 120.8053545 108.6554985  55.4857201
 120.1524995 108.9030892  54.8309654 121.1833925 107.8419123  55.1519678
 117.7660719 118.6914678  49.5885371 117.9483113 117.8736334  50.0513124
 118.5893705 118.9082370  49.1510261 118.1002884 117.6182863  46.8500420
 118.6290651 117.1075318  46.2370582 118.3631104 117.3025393  47.7145953
 116.8541118 109.3974796  61.9723238 116.1781755 109.2968925  62.6425613
 117.6768752 109.2414009  62.4359235 108.6019977 115.6346732  54.5935753
 109.1873414 114.8890420  54.7263657 108.4044816 115.9450689  55.4772417
 111.4558632 118.6697980  49.6098196 110.7869008 119.1544107  49.1262236
 111.3171502 118.9167200  50.5241574 103.1937632 108.2052332  53.3140196
 103.2321731 107.6715923  54.1077314 102.6877925 107.6787538  52.6951174
 115.5963901 120.7041723  56.2080854 116.1482209 120.8673345  56.9729939
 115.9370094 121.2946161  55.5360879 110.0480667 105.1240006  60.4575773
 110.6752705 104.7417083  61.0713297 109.1908585 104.9054207  60.8231465
 120.4474775 115.5302981  62.0629508 120.9914679 116.1432939  61.5684463
 119.8661620 116.0882559  62.5796521 106.8246209 106.9316435  46.3894128
 107.1199650 106.0227113  46.3361181 105.9234245 106.9104174  46.0675130
 118.7332288 118.6523699  53.1944536 118.6083428 117.8513439  52.6855482
 119.3911379 119.1469892  52.7058506 110.3540456 105.0072431  52.3721676
 109.6327042 105.6208399  52.2329150 111.1433712 105.5430196  52.2938322
 120.7967197 116.4532719  54.8224086 119.8497532 116.3338070  54.7502413
 121.1449970 115.5655217  54.9050348 113.1566770 102.3426858  58.6462328
 113.6801172 102.5889154  59.4088637 112.9379103 103.1746892  58.2265465
 108.5534051 104.6130532  46.5133453 108.2246757 103.7327911  46.3308559
 108.9073422 104.5578201  47.4009842 117.8013630 116.2485435  51.0228438
 117.6538592 115.3202142  51.2036008 118.6267123 116.2705526  50.5385514
 111.6675874 104.9003502  46.8808931 112.0071947 105.4289423  46.1587539
 112.1147995 105.2383908  47.6567497 121.4047752 117.0713994  52.1093311
 122.3294299 116.8656855  51.9717762 121.2363055 116.8230395  53.0182653
 114.3619315 103.2840553  56.3311999 114.0216135 102.4848366  56.7332679
 113.6558321 103.5842264  55.7588832 115.0135787 100.3689865  54.7839322
 115.8361856  99.8950343  54.6618212 115.2573850 101.1480349  55.2838008
 113.6544021 103.3978124  45.0802223 114.3752384 103.7759376  44.5765940
 113.0309325 104.1167000  45.1837201 117.7975144 104.1023273  46.0160556
 118.0138759 104.9847911  45.7149384 117.3169211 103.7109486  45.2866198
 112.5374366 107.0608986  52.5931300 112.3918946 107.3749289  53.4855582
 112.0599569 107.6793886  52.0402199 114.3970748 104.0511534  52.6412190
 114.3832317 103.1552627  52.3044488 115.1143177 104.0582198  53.2750476
 116.2496879 104.4848874  54.6865317 115.9914657 105.4065945  54.6849648
 115.7181919 104.0879309  55.3765781 121.1943068 117.5899661  47.4655403
 121.3679945 117.0246084  46.7129255 121.6871959 118.3900556  47.2834893
 107.0120028 109.6014330  55.5318961 106.4673496 110.3774138  55.6639236
 107.8899378 109.9485135  55.3738083 113.8007644 102.9325914  47.9099760
 113.9223556 102.0042560  48.1090647 113.5109687 102.9464600  46.9978075
 116.6698835 100.6180825  51.0466480 116.6920532 100.6820158  50.0918459
 117.0866894  99.7785333  51.2406986 127.0482459 110.3536084  49.0845702
 127.4913605 109.6043409  48.6864826 126.1708969 110.3446220  48.7019434
 122.1818240 116.9066426  44.5652301 122.8769145 117.5273118  44.7839616
 122.5241391 116.0561777  44.8404679 107.7986050 108.7284227  58.4249118
 107.0567786 108.8766862  59.0113749 107.4778794 108.9892492  57.5615868
 124.0809663 114.3566131  46.0939632 124.6060988 114.6953404  45.3688952
 123.9932016 113.4213146  45.9102766 115.7429712 118.2700205  58.2229508
 116.0516839 118.0249352  59.0952208 116.5405194 118.4746843  57.7348379
 115.7650324 120.4238114  50.4534885 115.3255315 119.9314493  51.1467742
 116.5158441 119.8811082  50.2126960 108.2442663 116.6149655  50.4559513
 109.0700683 116.3153427  50.0758157 107.8936715 115.8457278  50.9049302
 113.2124196 115.9676123  52.5257187 112.5904206 115.3046828  52.2259414
 113.8829063 115.9937255  51.8430834 106.4451268 114.5335982  51.4148447
 105.6083177 114.1058156  51.2332448 106.4174914 114.7268425  52.3519238
 113.2848724 104.4457911  62.1189693 113.3336879 105.3220034  61.7367462
 113.8271238 103.9035305  61.5461336 123.7703570 114.9899035  61.3990830
 122.9799113 114.9723174  60.8595329 123.5336924 115.5287328  62.1539866
 123.8901445 111.8391501  58.7123558 123.9399450 111.6741509  59.6539081
 123.7815368 110.9718760  58.3221439 112.7737703 114.5180047  46.0015647
 112.9225824 115.2015511  45.3482320 113.5804147 114.4985137  46.5165103
 121.1805207 107.8222429  60.0282865 122.0815070 107.6828894  59.7366863
 121.2553181 107.9876884  60.9681042 115.5148012 105.1989284  58.8736051
 114.6451322 105.4922850  58.6018640 115.7507493 105.7829729  59.5943315
 125.3919641 114.2588443  58.9565580 125.1004450 114.6218423  59.7929041
 124.7791773 113.5455451  58.7778912 126.5915324 111.8241322  51.4768150
 127.4262215 112.2631126  51.6405710 126.7274453 111.3479976  50.6576396
 123.6406830 109.3821057  57.4245638 124.1160951 109.5748704  56.6164489
 122.7172395 109.4380243  57.1789021 110.5290336 110.5445224  47.0076716
 110.2836378 109.6407554  47.2056926 110.6986251 110.5462375  46.0656194
 118.2187046 101.4168901  56.3901472 118.7368990 102.1529928  56.0647960
 117.8642179 101.7232894  57.2248231 109.7985984 106.2773582  44.5062877
 109.1055229 106.3517937  43.8502913 109.5537736 105.5133926  45.0284394
 118.4699640  97.8369183  51.9102368 118.7501394  97.1692372  52.5362795
 119.2550247  98.0298279  51.3977032 116.2733109 117.0128177  43.4727395
 115.7007076 117.6318364  43.0197866 116.8465902 117.5627539  44.0067316
 122.3408499 106.2586817  55.6573943 123.2925922 106.3584915  55.6786167
 122.1711949 105.4665086  56.1672028 120.3622878 103.3442401  55.8433344
 119.7672810 103.6247413  55.1479833 120.0772575 103.8336301  56.6150085
 119.4930369 117.2965327  44.6035977 120.4261042 117.2310889  44.8068852
 119.4053581 118.1321594  44.1450509 122.1218385 116.6131198  41.5639924
 122.0432017 116.2791061  42.4575682 122.9428052 117.1052966  41.5631397
 124.8196576 109.4792937  54.7716243 124.7872897 108.5408938  54.9575927
 125.4297200 109.5576974  54.0382068 116.6579907 108.3488990  40.8143447
 117.6039012 108.2195198  40.8831865 116.2794152 107.6103652  41.2912875
 124.9691065 106.2703980  54.8174526 124.4530114 105.4862437  54.6304455
 125.8531013 105.9422697  54.9821046 122.6301792 100.0144996  50.7770339
 122.4326613  99.7060084  51.6613671 123.2401497 100.7406635  50.9068269
 130.6373126 110.5408944  53.9122280 131.3676515 110.2794232  54.4729983
 130.0280072 109.8037666  53.9524348 128.7188423 108.6816806  54.5096731
 127.9921587 108.5472771  53.9013223 128.3035710 108.9893635  55.3153449
 116.5418600 112.4006736  62.2744104 117.4621609 112.5785335  62.4684151
 116.5068183 111.4562781  62.1223803 114.8422824 106.2738966  40.7498332
 113.9354280 105.9772079  40.8261046 115.1198805 105.9768784  39.8832618
 105.7600765 107.5945330  51.1997379 105.4403549 106.7410638  50.9071753
 105.2134193 107.8093908  51.9555346 109.5380672 110.3107771  54.9166885
 109.7566682 111.2424879  54.9354919 109.9506446 109.9515745  55.7021689
 116.4584890 100.8175856  46.9042574 115.6485619 100.4722941  47.2797820
 117.1469307 100.5083400  47.4930185 118.3875438  99.8953903  48.5266870
 118.9406477 100.3149356  49.1856893 118.6245525  98.9689651  48.5689826
 114.4108538 105.8840977  64.3069634 114.3105265 106.8335334  64.2381725
 114.1930080 105.5559215  63.4345704 113.6121609 103.1325902  40.8910311
 114.4740773 103.4580800  41.1506129 113.7971953 102.3457398  40.3783377
 105.6289025 111.2148241  53.1690500 104.9352496 110.8002194  52.6560455
 106.3762016 111.2568778  52.5723919 121.7654246 102.0054428  48.0345534
 121.1852915 102.6639232  47.6523587 121.4990178 101.1831773  47.6232952
 120.2157812 101.4059486  50.2366855 120.7157590 101.5176020  49.4281174
 120.8593420 101.1020539  50.8767663 114.2739808 109.3138115  63.1234696
 113.7906889 110.1138476  63.3298585 114.3600747 109.3246060  62.1702140
 107.5425767 111.1466495  51.0456515 107.5196455 111.2454182  50.0938398
 107.8526404 111.9931646  51.3673681 110.2013145 113.2042650  55.1603130
 111.1556399 113.1726592  55.0933061 110.0025669 112.7433274  55.9753355
 110.7912527 111.7743766  57.7273927 111.6105416 112.2687845  57.7508764
 111.0649335 110.8575734  57.6991495 120.5479124 104.1654518  47.0901883
 119.6604979 104.4504169  46.8722077 120.9633113 104.0048282  46.2429160
 123.8993660 104.1901039  50.8056222 124.6754050 104.6797492  51.0780839
 123.1741794 104.6159094  51.2628091 126.3366218 104.9028659  51.8630163
 126.9310709 104.6624395  51.1523471 126.4092802 104.1835789  52.4903699
 108.5563374 118.7462270  52.1773327 108.4217842 117.9862670  51.6111325
 108.1395436 119.4703169  51.7102116 119.6922337 113.9299193  41.1849903
 120.3958187 114.1349196  41.8007558 118.9684986 114.4975955  41.4498986
 120.5220147 109.6809054  47.3052173 120.4655349 110.1377606  46.4659805
 121.0748490 108.9199739  47.1275016 124.3324953 105.4698786  48.1302292
 124.0761887 105.0695422  48.9610500 123.7077821 106.1842580  48.0052432
 128.6437291 108.2094860  50.6373584 128.0836849 108.2788049  51.4105146
 128.0380794 108.0335844  49.9173080 111.7132500 119.6431587  52.3891770
 111.5964884 120.5877019  52.2870460 110.8924946 119.3405148  52.7777569
 121.6009034 114.3681722  43.2348363 122.4354638 113.9362921  43.0525838
 121.4393377 114.1963736  44.1625257 121.2554927 110.8713836  44.6004702
 121.2003730 110.7058107  43.6593146 120.6300982 111.5789869  44.7566892
 106.0447442 106.1081900  58.4266124 106.6906305 105.5980854  58.9153349
 105.8364593 106.8450582  59.0009550 118.5700834 113.1762747  63.9258265
 119.4391993 113.3503400  63.5644900 118.0907585 113.9957164  63.8033994
 114.5651052 100.3721945  44.1790020 114.5529722 101.3163785  44.3358291
 115.4574474 100.1892090  43.8849482 112.7387014 120.2959848  55.6047698
 113.6414261 120.3283459  55.9214193 112.5124384 119.3660299  55.6194034
 114.4940616 119.0490835  52.2657777 113.5436247 119.0492697  52.1522149
 114.7973102 118.3023570  51.7493812 118.3803172  96.9664721  48.4335957
 117.6135567  96.4123208  48.5792640 118.7913877  97.0386590  49.2950109
 110.3844933 103.2549517  62.5241138 111.2476394 102.8986322  62.7344463
 109.8110343 102.9163412  63.2116543 130.2293310 124.8851373  53.3303539
 130.8671720 124.7658121  52.6266880 130.1114152 125.8332217  53.3891492
 127.0383016 124.8378802  53.2665064 126.7001527 124.7219866  52.3785599
 127.9072784 124.4369967  53.2466070 122.8969832 126.6914278  49.2561955
 122.3334697 126.6004215  48.4878243 122.7822227 125.8714182  49.7364448
 127.5202799 125.9913653  59.2251270 127.5091440 125.5966452  58.3531773
 127.6823438 125.2579726  59.8185041 120.4434263 128.1865470  52.0946176
 121.2355555 127.8456294  51.6792475 120.6830914 128.2960445  53.0148329
 128.4769390 130.3585246  44.5676420 127.8257370 130.9439326  44.1810434
 129.2713753 130.8891441  44.6271458 122.4025017 127.4474383  44.9663554
 123.1755893 126.9003370  44.8276430 122.7550416 128.3118632  45.1778016
 124.2410060 128.7750765  58.1730454 123.9499926 129.6796396  58.0577120
 124.8767044 128.8167293  58.8874523 125.1666267 126.1527614  54.7631813
 125.7629839 125.9283636  54.0488776 125.2241238 125.4112359  55.3657261
 124.7391295 123.6067049  42.5982004 124.9916816 123.0848570  41.8365467
 123.8015854 123.4433194  42.7008688 129.7834578 122.6102827  50.4056748
 130.5697667 122.1922250  50.0547165 130.0473282 123.5148919  50.5738396
 129.9544655 128.0475678  45.1045404 129.3190488 128.1210304  45.8166309
 129.6242062 128.6369276  44.4264484 135.1843005 122.5478060  51.3089726
 135.9168177 121.9777277  51.5427556 134.4282361 122.1599661  51.7496232
 124.4587584 125.5095155  44.8006379 124.3423842 124.8340058  45.4687464
 124.5689844 125.0227529  43.9838532 126.8019125 124.9705302  48.5053069
 126.4377332 124.4435923  49.2165990 127.6586241 124.5803771  48.3319554
 132.7068426 116.2599635  55.7684335 132.3751750 117.1295046  55.5445550
 132.1114039 115.9435919  56.4478365 126.4424612 119.9995202  43.5014417
 126.6099014 120.8675438  43.8684888 126.2521781 120.1622483  42.5775706
 129.1999945 128.4612181  55.1680247 128.9000668 129.3637219  55.0596055
 128.8551005 128.1944364  56.0201400 122.6512427 124.9125977  51.2016952
 121.7262923 124.7802192  51.4094644 122.8996840 125.6920197  51.6986894
 132.5997089 120.9794721  52.8477685 131.6913966 120.9110129  52.5536446
 132.5484685 121.4566666  53.6759510 126.4213833 122.4552859  44.4861084
 126.3013458 122.9009910  45.3246564 125.7266421 122.8038177  43.9274622
 120.0121238 124.5559251  52.0360741 120.1413619 124.8093730  52.9500153
 119.3318689 125.1486959  51.7165396 124.1820725 135.2256501  48.1351215
 124.1044755 136.1764326  48.2139696 123.5782368 134.8802373  48.7926141
 126.6737955 122.3984366  60.7912582 125.8971289 122.9578286  60.7815447
 127.3128518 122.8841149  61.3127452 134.4658735 119.1811159  54.6255559
 133.8233115 119.4743692  53.9795353 133.9613664 119.0664080  55.4308755
 132.1198899 122.9274332  45.3141418 133.0316755 123.1601719  45.1389115
 131.6108546 123.5111377  44.7516496 124.9284327 125.2069820  60.3530549
 125.6699011 125.7454864  60.0765373 124.2221312 125.8336108  60.5102101
 130.4039667 127.3498960  58.9502710 130.8123023 126.9081371  58.2057343
 129.6816928 126.7751588  59.2036903 126.7570737 122.2871567  56.3236267
 127.6031932 122.7110981  56.4670916 126.6969374 121.6305191  57.0174831
 130.7268481 127.9100151  52.7054999 130.0977344 128.0745865  52.0031067
 130.3394143 128.3241760  53.4765963 134.6057713 128.8454589  50.0599363
 133.9208751 129.2253490  49.5096396 134.6901562 129.4549915  50.7931311
 129.9070182 119.9475935  57.9817441 129.6631114 120.7017996  57.4451717
 130.1830112 120.3261283  58.8164688 131.8608645 126.4914548  56.6594707
 132.0725540 127.1346308  55.9829088 131.8138393 125.6576864  56.1916637
 129.4634874 119.1032368  53.5631279 128.6019353 119.4013622  53.8548016
 129.4897308 119.3202767  52.6312311 126.2796443 127.6474559  49.9705084
 126.7434789 127.9262262  49.1809707 126.0153241 126.7458003  49.7878175
 123.1720524 127.1946040  52.9084848 123.7421881 127.6233309  52.2702332
 123.7628636 126.9128625  53.6069033 125.2165329 123.7697711  46.7794650
 125.9189372 124.2218755  47.2468576 124.8845958 123.1281530  47.4074543
 123.6645691 122.3609468  61.1545859 123.0344351 123.0425749  61.3881256
 123.5581779 122.2492550  60.2098997 118.9590663 122.0281264  52.0811783
 118.1689717 122.2838792  51.6051894 119.4501910 122.8429602  52.1863824
 132.9754473 129.3686503  54.8317064 133.7971916 128.9666690  54.5499746
 132.9716876 129.2654737  55.7833180 120.9105408 122.3925843  49.0395260
 120.1136572 122.5044537  49.5578756 120.6831001 122.7312495  48.1736150
 126.7411076 128.9170546  56.9877774 126.8055509 129.3790954  57.8235946
 126.0322000 128.2867911  57.1160084 117.2428366 122.2811754  54.5126774
 117.4936404 123.1658764  54.7784350 117.7787914 122.1016356  53.7401866
 141.0660466 125.7125252  51.1802035 140.3124174 125.1432650  51.0246040
 141.2008007 125.6787916  52.1272670 126.4559094 130.5838654  46.8556755
 126.3204769 131.4290190  47.2841603 126.9968906 130.7857932  46.0922689
 122.9426433 116.6630234  63.5171110 122.5493379 116.1096432  64.1918754
 123.7592574 116.9740812  63.9077628 119.9088491 128.1014092  47.4284680
 120.4213012 128.8957342  47.5790245 120.5611204 127.4040382  47.3618281
 121.7183376 131.2179848  49.5107433 121.8950004 132.1397813  49.3228417
 122.5140209 130.9038267  49.9401813 125.8594394 118.0788113  61.1091367
 126.6004108 118.6795266  61.0295829 126.0912317 117.3365751  60.5509409
 121.0035732 123.2644480  59.3869596 120.8889248 122.3629737  59.6876695
 120.1480250 123.5108177  59.0354413 128.0827570 131.2062220  60.9857097
 127.6391424 130.4198599  60.6678001 128.7444784 131.3941371  60.3200988
 122.8414691 132.7358022  55.5117775 123.3922116 132.6075085  54.7394769
 122.0026167 133.0352911  55.1612668 130.1808808 131.4865020  59.0138498
 130.1627284 132.3073901  58.5218767 131.1028728 131.3619096  59.2388639
 126.6381862 129.0009150  59.8562007 127.1710199 128.2397438  59.6261315
 126.1095943 128.7082802  60.5986161 129.8051557 114.1069216  55.3855648
 129.4615827 114.9970857  55.3094759 130.1730520 113.9170873  54.5225233
 117.8737408 126.4302746  48.2044250 118.7112630 126.8399755  47.9877958
 118.0515676 125.4902188  48.1744444 129.7701840 124.0977827  43.8928083
 129.2548463 124.8682432  44.1316471 129.4979148 123.4242963  44.5161145
 127.3548951 118.9427528  48.9513322 126.4990547 118.5534378  48.7718960
 127.7675903 119.0219488  48.0913107 128.8848098 116.4773871  53.3504882
 128.3812893 116.4404006  52.5372687 129.1778705 117.3866614  53.4101538
 125.1290984 116.5612601  52.3571063 125.9943980 116.3655409  51.9976953
 125.1968493 116.3322952  53.2840420 134.7436114 126.8510182  45.8281257
 133.9665557 126.5121341  45.3836419 135.4227595 126.8562805  45.1536222
 129.5588143 121.9704919  45.7187865 129.2538279 122.2851068  46.5698008
 130.5118585 122.0486339  45.7615198 128.0034575 128.1295142  47.3680819
 127.4755937 127.3947902  47.0554056 127.5022078 128.9069819  47.1220787
 132.9827421 126.3244163  52.4847865 132.3251096 127.0143424  52.5727993
 133.7867820 126.7140595  52.8281851 122.7353303 118.7914809  49.7287430
 123.3097055 118.5689990  48.9960623 123.3224285 118.8603503  50.4816031
 131.7932880 124.6788535  50.5351807 132.3064762 125.3118527  51.0373516
 132.4434104 124.0789731  50.1695167 123.0622890 120.8219270  43.7483315
 122.2260202 121.1593956  44.0692590 122.9227659 120.6868249  42.8110452
 125.0375970 115.6656057  48.4562499 124.3840383 115.3505075  47.8319114
 124.9956445 115.0431798  49.1822322 126.1487175 125.9475353  40.3715792
 125.2414237 125.7164606  40.5706941 126.6458207 125.1512972  40.5589773
 129.0555254 134.6572860  43.2912478 128.3816953 134.9604556  43.8997436
 129.4421076 135.4601940  42.9417935 128.2713711 122.1537991  52.7810147
 127.3536272 122.3752938  52.6231835 128.6873854 122.2284301  51.9221854
 129.0548759 123.5529407  47.9112827 129.8020577 124.0650804  47.6019949
 129.3240348 123.2313459  48.7717221 127.3275409 126.0487947  44.8939782
 126.4186628 125.7646980  44.9912251 127.3570492 126.4687026  44.0343089
 132.5594676 129.6594537  48.6630949 132.1057003 128.8185447  48.7196140
 131.9288643 130.2955935  49.0005729 131.5027596 120.5886523  49.8931617
 130.7650352 120.0763909  50.2241859 131.7554369 120.1486905  49.0814894
 131.0027615 131.4971034  49.5980767 131.2950590 132.0576091  48.8793133
 131.5126236 131.7899595  50.3533926 131.6039223 113.3662775  50.4873386
 131.9098100 112.5060138  50.1999301 132.3291828 113.9580395  50.2872380
 117.8963579 123.7693462  48.8754984 117.6987979 123.1762822  48.1506050
 117.3410243 123.4645672  49.5930923 125.8760303 123.6616568  50.9949577
 125.9308913 122.7090404  50.9192054 125.0651505 123.8176007  51.4790875
 127.0251496 127.5896691  42.2327860 126.5870926 126.8732550  41.7733498
 127.7661937 127.8172806  41.6712952 123.8152663 122.2793628  48.7539956
 123.0020528 122.5787798  49.1605148 124.3111657 121.8849317  49.4714438
 125.9661241 132.2751385  50.6874221 125.9237419 132.5012231  49.7582753
 126.8823939 132.0414759  50.8360022 129.4126874 122.7435452  57.5854850
 129.7676262 122.9706925  58.4449316 130.0599006 123.0753829  56.9632105
 135.1424611 125.8653888  48.2904179 135.0042510 126.0555484  47.3625368
 134.7860830 126.6273271  48.7472230 123.3066737 119.8511983  54.3701191
 123.9466117 119.7100742  53.6724154 122.4744268 119.5646497  53.9939793
 135.1693991 127.9330415  53.3015450 135.6030498 127.8405704  54.1498504
 135.8825572 127.9087916  52.6635466 124.0827041 129.1514414  50.4836183
 124.8767640 128.6564734  50.2818758 123.3718734 128.6232277  50.1203889
 128.9021886 131.5332509  54.8348551 128.9558908 132.1023446  55.6026267
 128.0336667 131.7034394  54.4702588 120.3909805 123.2957495  46.5595936
 119.4607393 123.2341951  46.7765898 120.4867277 122.7733448  45.7632577
 120.3095354 119.8212308  49.1474178 120.5702171 120.7357642  49.0383338
 121.1312526 119.3536751  49.2970790 121.7820279 121.2350065  56.3173002
 122.4543333 121.0267428  55.6685651 120.9550066 121.0372151  55.8778234
 136.0309540 127.9754116  55.8348336 136.2245431 128.8799926  56.0807611
 135.9310159 127.5161535  56.6686921 127.6845851 117.8612006  58.3338663
 127.0373766 118.5601956  58.2403139 128.4546867 118.2948150  58.7014911
 131.0924649 128.1260859  61.4089216 130.9410156 127.8971410  60.4919300
 131.0829329 129.0831460  61.4220561 127.8609986 125.6992771  56.3935483
 128.7902046 125.8503931  56.2204450 127.4401016 125.7876792  55.5384129
 126.6598317 129.7243436  54.1634020 126.5209403 129.3562220  55.0359958
 125.8712914 130.2391075  53.9917978 127.2546469 134.8252532  45.5059557
 127.4298225 134.3540575  46.3205180 126.5679257 135.4518298  45.7340818
 128.2103532 129.1025038  51.5522858 127.8753365 129.0625808  52.4480508
 127.7107478 128.4369754  51.0793268 122.1847776 124.5092668  57.0775439
 122.0467574 123.7772907  57.6786978 123.0952700 124.4201569  56.7959627
 131.1462724 126.4481073  41.8259918 130.5291895 125.7227901  41.7292971
 130.6779213 127.2090433  41.4826992 124.8130077 124.2212628  56.5659119
 125.5229696 123.5805820  56.5245737 124.7699385 124.4725523  57.4885300
 132.8016856 131.1579981  59.4865698 132.7429402 130.4739201  58.8196281
 133.2036374 131.8998971  59.0346324 123.5259011 121.2077846  58.3854758
 122.9896368 120.7568584  59.0376355 122.9375720 121.3423754  57.6425223
 121.8207555 137.9741895  52.2799417 122.0604153 138.6060419  52.9578436
 120.9776751 137.6229935  52.5664776 122.9361270 120.6666497  40.9481222
 122.0590736 120.5455298  40.5843469 123.4119023 119.8752575  40.6960111
 132.8034263 129.1219565  57.7179678 131.9161042 128.7845487  57.8406077
 133.3732814 128.3902596  57.9548443 114.4563410 125.4543657  51.0422729
 115.1434450 125.1405387  50.4543745 114.3011539 126.3585021  50.7689981
 119.2598132 120.3433853  55.4707753 119.1756321 119.7359523  54.7358163
 118.4380839 120.8342872  55.4717249 126.3335416 133.7821017  54.6840921
 126.2605588 134.5875989  55.1960226 125.8912810 133.9812983  53.8588942
 126.1225196 133.0192787  48.1943743 125.3392718 133.5614468  48.2881967
 126.8217941 133.5366767  48.5937984 129.4321846 118.8287417  50.8377948
 129.9290546 118.0757379  50.5179018 128.6608828 118.8651734  50.2721157
 137.2851604 124.5327782  52.4796240 137.2741480 125.4152498  52.1090173
 136.4168983 124.1799333  52.2850777 128.7934100 133.6807851  56.8399080
 129.5062072 134.3155316  56.7674981 128.3024129 133.7771717  56.0239082
 130.5151627 127.5859104  48.4116371 129.5807906 127.7060567  48.2421076
 130.6928295 126.6831571  48.1476381 126.0156815 120.9704800  50.5649633
 125.6454602 120.4175840  51.2530538 126.5115907 120.3662933  50.0124633
 133.9024178 123.4276423  48.9466406 134.3684630 124.2604415  48.8726708
 134.3531679 122.9621405  49.6511664 123.8446013 131.4302295  57.6604651
 124.5455473 132.0638778  57.8134045 123.3741128 131.7717026  56.9000290
 131.9700409 129.7720245  45.9452558 132.2460253 129.6576839  46.8546432
 131.1004908 129.3737730  45.9064731 131.8740841 115.7957010  52.9857307
 130.9603921 116.0261237  53.1539514 132.3033942 115.8795454  53.8371339
 131.6447299 123.9846902  55.4857201 130.9918750 124.2322810  54.8309654
 132.0227679 123.1711041  55.1519678 128.6054473 134.0206596  49.5885371
 128.7876868 133.2028251  50.0513124 129.4287459 134.2374288  49.1510261
 128.9396639 132.9474781  46.8500420 129.4684405 132.4367235  46.2370582
 129.2024858 132.6317311  47.7145953 127.6934872 124.7266713  61.9723238
 127.0175509 124.6260843  62.6425613 128.5162506 124.5705927  62.4359235
 119.4413732 130.9638650  54.5935753 120.0267168 130.2182338  54.7263657
 119.2438570 131.2742607  55.4772417 122.2952387 133.9989897  49.6098196
 121.6262762 134.4836025  49.1262236 122.1565256 134.2459118  50.5241574
 114.0331386 123.5344250  53.3140196 114.0715486 123.0007841  54.1077314
 113.5271679 123.0079456  52.6951174 126.4357655 136.0333641  56.2080854
 126.9875963 136.1965262  56.9729939 126.7763849 136.6238079  55.5360879
 121.4122149 118.3808791  56.8102739 121.4763475 119.2423622  56.3980136
 121.3489269 117.7682792  56.0775097 120.8874421 120.4531923  60.4575773
 121.5146460 120.0709000  61.0713297 120.0302340 120.2346125  60.8231465
 131.2868530 130.8594898  62.0629508 131.8308434 131.4724857  61.5684463
 130.7055375 131.4174477  62.5796521 117.6639964 122.2608352  46.3894128
 117.9593405 121.3519031  46.3361181 116.7628000 122.2396092  46.0675130
 129.5726043 133.9815616  53.1944536 129.4477182 133.1805356  52.6855482
 130.2305134 134.4761810  52.7058506 121.1934211 120.3364349  52.3721676
 120.4720797 120.9500317  52.2329150 121.9827467 120.8722114  52.2938322
 131.6360951 131.7824636  54.8224086 130.6891287 131.6629988  54.7502413
 131.9843724 130.8947134  54.9050348 123.9960524 117.6718775  58.6462328
 124.5194926 117.9181072  59.4088637 123.7772858 118.5038810  58.2265465
 119.3927805 119.9422450  46.5133453 119.0640512 119.0619829  46.3308559
 119.7467176 119.8870119  47.4009842 128.6407384 131.5777353  51.0228438
 128.4932347 130.6494060  51.2036008 129.4660878 131.5997443  50.5385514
 122.5069629 120.2295420  46.8808931 122.8465701 120.7581341  46.1587539
 122.9541749 120.5675826  47.6567497 132.2441506 132.4005911  52.1093311
 133.1688054 132.1948773  51.9717762 132.0756810 132.1522313  53.0182653
 125.2013069 118.6132470  56.3311999 124.8609890 117.8140284  56.7332679
 124.4952076 118.9134181  55.7588832 125.8529541 115.6981783  54.7839322
 126.6755611 115.2242261  54.6618212 126.0967605 116.4772267  55.2838008
 124.4937776 118.7270041  45.0802223 125.2146138 119.1051294  44.5765940
 123.8703080 119.4458918  45.1837201 128.6368899 119.4315190  46.0160556
 128.8532513 120.3139828  45.7149384 128.1562966 119.0401404  45.2866198
 123.3768120 122.3900904  52.5931300 123.2312701 122.7041207  53.4855582
 122.8993324 123.0085804  52.0402199 125.2364503 119.3803452  52.6412190
 125.2226072 118.4844545  52.3044488 125.9536931 119.3874115  53.2750476
 127.0890634 119.8140792  54.6865317 126.8308411 120.7357862  54.6849648
 126.5575674 119.4171226  55.3765781 132.0336822 132.9191579  47.4655403
 132.2073700 132.3538001  46.7129255 132.5265714 133.7192474  47.2834893
 117.8513782 124.9306248  55.5318961 117.3067250 125.7066056  55.6639236
 118.7293132 125.2777052  55.3738083 124.6401399 118.2617832  47.9099760
 124.7617310 117.3334478  48.1090647 124.3503441 118.2756518  46.9978075
 127.5092589 115.9472742  51.0466480 127.5314286 116.0112075  50.0918459
 127.9260648 115.1077251  51.2406986 137.8876214 125.6828002  49.0845702
 138.3307360 124.9335327  48.6864826 137.0102724 125.6738138  48.7019434
 133.0211995 132.2358343  44.5652301 133.7162899 132.8565036  44.7839616
 133.3635145 131.3853694  44.8404679 118.6379804 124.0576144  58.4249118
 117.8961540 124.2058780  59.0113749 118.3172548 124.3184410  57.5615868
 134.9203418 129.6858049  46.0939632 135.4454742 130.0245322  45.3688952
 134.8325771 128.7505064  45.9102766 126.5823467 133.5992122  58.2229508
 126.8910593 133.3541269  59.0952208 127.3798949 133.8038761  57.7348379
 126.6044079 135.7530032  50.4534885 126.1649069 135.2606411  51.1467742
 127.3552196 135.2103000  50.2126960 119.0836418 131.9441573  50.4559513
 119.9094438 131.6445345  50.0758157 118.7330470 131.1749195  50.9049302
 124.0517951 131.2968041  52.5257187 123.4297960 130.6338746  52.2259414
 124.7222818 131.3229173  51.8430834 117.2845023 129.8627899  51.4148447
 116.4476931 129.4350074  51.2332448 117.2568668 130.0560343  52.3519238
 124.1242478 119.7749829  62.1189693 124.1730634 120.6511952  61.7367462
 124.6664993 119.2327222  61.5461336 134.6097324 130.3190952  61.3990830
 133.8192868 130.3015091  60.8595329 134.3730679 130.8579246  62.1539866
 134.7295199 127.1683419  58.7123558 134.7793204 127.0033426  59.6539081
 134.6209122 126.3010678  58.3221439 123.6131458 129.8471964  46.0015647
 123.7619578 130.5307429  45.3482320 124.4197901 129.8277055  46.5165103
 132.0198961 123.1514347  60.0282865 132.9208824 123.0120812  59.7366863
 132.0946936 123.3168802  60.9681042 126.3541767 120.5281202  58.8736051
 125.4845076 120.8214768  58.6018640 126.5901247 121.1121647  59.5943315
 136.2313396 129.5880360  58.9565580 135.9398204 129.9510341  59.7929041
 135.6185527 128.8747369  58.7778912 137.4309078 127.1533240  51.4768150
 138.2655970 127.5923044  51.6405710 137.5668207 126.6771893  50.6576396
 134.4800584 124.7112975  57.4245638 134.9554706 124.9040621  56.6164489
 133.5566150 124.7672161  57.1789021 121.3684091 125.8737142  47.0076716
 121.1230133 124.9699472  47.2056926 121.5380005 125.8754293  46.0656194
 129.0580801 116.7460818  56.3901472 129.5762745 117.4821845  56.0647960
 128.7035933 117.0524812  57.2248231 120.6379738 121.6065500  44.5062877
 119.9448983 121.6809855  43.8502913 120.3931490 120.8425843  45.0284394
 129.3093395 113.1661101  51.9102368 129.5895149 112.4984290  52.5362795
 130.0944002 113.3590197  51.3977032 127.1126863 132.3420095  43.4727395
 126.5400830 132.9610282  43.0197866 127.6859657 132.8919457  44.0067316
 133.1802253 121.5878735  55.6573943 134.1319676 121.6876833  55.6786167
 133.0105704 120.7957004  56.1672028 131.2016633 118.6734318  55.8433344
 130.6066565 118.9539331  55.1479833 130.9166329 119.1628219  56.6150085
 130.3324123 132.6257245  44.6035977 131.2654796 132.5602807  44.8068852
 130.2447336 133.4613512  44.1450509 132.9612140 131.9423115  41.5639924
 132.8825771 131.6082979  42.4575682 133.7821807 132.4344883  41.5631397
 135.6590331 124.8084855  54.7716243 135.6266651 123.8700855  54.9575927
 136.2690955 124.8868891  54.0382068 127.4973662 123.6780908  40.8143447
 128.4432767 123.5487116  40.8831865 127.1187907 122.9395570  41.2912875
 135.8084819 121.5995898  54.8174526 135.2923868 120.8154355  54.6304455
 136.6924768 121.2714615  54.9821046 133.4695546 115.3436914  50.7770339
 133.2720367 115.0352002  51.6613671 134.0795252 116.0698553  50.9068269
 141.4766881 125.8700862  53.9122280 142.2070269 125.6086150  54.4729983
 140.8673826 125.1329583  53.9524348 139.5582178 124.0108724  54.5096731
 138.8315341 123.8764689  53.9013223 139.1429465 124.3185553  55.3153449
 127.3812354 127.7298654  62.2744104 128.3015364 127.9077253  62.4684151
 127.3461937 126.7854699  62.1223803 125.6816579 121.6030884  40.7498332
 124.7748034 121.3063997  40.8261046 125.9592560 121.3060702  39.8832618
 116.5994519 122.9237247  51.1997379 116.2797304 122.0702556  50.9071753
 116.0527948 123.1385826  51.9555346 120.3774427 125.6399688  54.9166885
 120.5960437 126.5716796  54.9354919 120.7900201 125.2807663  55.7021689
 127.2978645 116.1467774  46.9042574 126.4879373 115.8014859  47.2797820
 127.9863062 115.8375318  47.4930185 129.2269193 115.2245821  48.5266870
 129.7800232 115.6441274  49.1856893 129.4639279 114.2981569  48.5689826
 125.2502292 121.2132894  64.3069634 125.1499019 122.1627251  64.2381725
 125.0323834 120.8851133  63.4345704 124.4515364 118.4617819  40.8910311
 125.3134528 118.7872718  41.1506129 124.6365708 117.6749315  40.3783377
 116.4682779 126.5440159  53.1690500 115.7746251 126.1294112  52.6560455
 117.2155770 126.5860695  52.5723919 132.6048000 117.3346346  48.0345534
 132.0246669 117.9931150  47.6523587 132.3383933 116.5123690  47.6232952
 131.0551566 116.7351403  50.2366855 131.5551345 116.8467938  49.4281174
 131.6987174 116.4312456  50.8767663 125.1133562 124.6430033  63.1234696
 124.6300644 125.4430393  63.3298585 125.1994501 124.6537978  62.1702140
 118.3819522 126.4758413  51.0456515 118.3590210 126.5746100  50.0938398
 118.6920158 127.3223564  51.3673681 121.0406900 128.5334568  55.1603130
 121.9950153 128.5018510  55.0933061 120.8419423 128.0725192  55.9753355
 121.6306282 127.1035684  57.7273927 122.4499171 127.5979762  57.7508764
 121.9043090 126.1867652  57.6991495 131.3872878 119.4946436  47.0901883
 130.4998733 119.7796087  46.8722077 131.8026867 119.3340200  46.2429160
 134.7387414 119.5192957  50.8056222 135.5147804 120.0089410  51.0780839
 134.0135548 119.9451011  51.2628091 137.1759973 120.2320576  51.8630163
 137.7704464 119.9916312  51.1523471 137.2486557 119.5127707  52.4903699
 119.3957129 134.0754187  52.1773327 119.2611596 133.3154588  51.6111325
 118.9789191 134.7995087  51.7102116 130.5316092 129.2591111  41.1849903
 131.2351942 129.4641113  41.8007558 129.8078740 129.8267873  41.4498986
 131.3613902 125.0100972  47.3052173 131.3049103 125.4669523  46.4659805
 131.9142244 124.2491657  47.1275016 135.1718708 120.7990704  48.1302292
 134.9155642 120.3987340  48.9610500 134.5471576 121.5134498  48.0052432
 139.4831046 123.5386777  50.6373584 138.9230604 123.6079966  51.4105146
 138.8774549 123.3627762  49.9173080 122.5526254 134.9723504  52.3891770
 122.4358639 135.9168937  52.2870460 121.7318701 134.6697066  52.7777569
 132.4402789 129.6973640  43.2348363 133.2748393 129.2654838  43.0525838
 132.2787132 129.5255654  44.1625257 132.0948681 126.2005753  44.6004702
 132.0397485 126.0350025  43.6593146 131.4694736 126.9081786  44.7566892
 116.8841196 121.4373818  58.4266124 117.5300060 120.9272772  58.9153349
 116.6758347 122.1742499  59.0009550 129.4094588 128.5054665  63.9258265
 130.2785748 128.6795317  63.5644900 128.9301340 129.3249082  63.8033994
 125.4044807 115.7013862  44.1790020 125.3923476 116.6455702  44.3358291
 126.2968228 115.5184008  43.8849482 123.5780769 135.6251766  55.6047698
 124.4808015 135.6575376  55.9214193 123.3518139 134.6952217  55.6194034
 125.3334371 134.3782753  52.2657777 124.3830002 134.3784614  52.1522149
 125.6366857 133.6315487  51.7493812 129.2196926 112.2956639  48.4335957
 128.4529322 111.7415126  48.5792640 129.6307631 112.3678508  49.2950109
 121.2238687 118.5841435  62.5241138 122.0870149 118.2278240  62.7344463
 120.6504098 118.2455330  63.2116543 141.0687064 140.2143291  53.3303539
 141.7065474 140.0950038  52.6266880 140.9507907 141.1624135  53.3891492
 137.8776770 140.1670719  53.2665064 137.5395282 140.0511784  52.3785599
 138.7466539 139.7661884  53.2466070 133.7363586 142.0206196  49.2561955
 133.1728451 141.9296133  48.4878243 133.6215981 141.2006100  49.7364448
 138.3596553 141.3205571  59.2251270 138.3485194 140.9258369  58.3531773
 138.5217193 140.5871644  59.8185041 131.2828018 143.5157387  52.0946176
 132.0749310 143.1748212  51.6792475 131.5224668 143.6252362  53.0148329
 133.2418772 142.7766300  44.9663554 134.0149648 142.2295288  44.8276430
 133.5944171 143.6410550  45.1778016 135.0803814 144.1042683  58.1730454
 134.7893680 145.0088314  58.0577120 135.7160799 144.1459210  58.8874523
 136.0060021 141.4819531  54.7631813 136.6023594 141.2575554  54.0488776
 136.0634993 140.7404277  55.3657261 135.5785050 138.9358967  42.5982004
 135.8310570 138.4140488  41.8365467 134.6409609 138.7725112  42.7008688
 140.6228333 137.9394745  50.4056748 141.4091422 137.5214168  50.0547165
 140.8867037 138.8440837  50.5738396 146.0236760 137.8769978  51.3089726
 146.7561932 137.3069195  51.5427556 145.2676115 137.4891579  51.7496232
 135.2981338 140.8387073  44.8006379 135.1817597 140.1631976  45.4687464
 135.4083598 140.3519446  43.9838532 137.6412879 140.2997220  48.5053069
 137.2771087 139.7727841  49.2165990 138.4979995 139.9095689  48.3319554
 143.5462180 131.5891552  55.7684335 143.2145505 132.4586963  55.5445550
 142.9507793 131.2727836  56.4478365 137.2818366 135.3287119  43.5014417
 137.4492769 136.1967356  43.8684888 137.0915535 135.4914401  42.5775706
 140.0393700 143.7904098  55.1680247 139.7394423 144.6929137  55.0596055
 139.6944759 143.5236281  56.0201400 133.4906181 140.2417895  51.2016952
 132.5656677 140.1094109  51.4094644 133.7390594 141.0212114  51.6986894
 143.4390843 136.3086638  52.8477685 142.5307721 136.2402047  52.5536446
 143.3878439 136.7858583  53.6759510 137.2607587 137.7844777  44.4861084
 137.1407212 138.2301828  45.3246564 136.5660176 138.1330095  43.9274622
 130.8514992 139.8851169  52.0360741 130.9807373 140.1385648  52.9500153
 130.1712443 140.4778877  51.7165396 137.5131709 137.7276284  60.7912582
 136.7365043 138.2870204  60.7815447 138.1522272 138.2133067  61.3127452
 145.3052490 134.5103077  54.6255559 144.6626870 134.8035610  53.9795353
 144.8007418 134.3955997  55.4308755 142.9592653 138.2566250  45.3141418
 143.8710509 138.4893637  45.1389115 142.4502300 138.8403294  44.7516496
 135.7678081 140.5361737  60.3530549 136.5092766 141.0746781  60.0765373
 135.0615067 141.1628026  60.5102101 141.2433421 142.6790878  58.9502710
 141.6516777 142.2373288  58.2057343 140.5210683 142.1043505  59.2036903
 137.5964491 137.6163485  56.3236267 138.4425686 138.0402898  56.4670916
 137.5363129 136.9597109  57.0174831 141.5662236 143.2392068  52.7054999
 140.9371098 143.4037783  52.0031067 141.1787898 143.6533678  53.4765963
 140.7463936 135.2767853  57.9817441 140.5024868 136.0309914  57.4451717
 141.0223867 135.6553201  58.8164688 142.7002399 141.8206465  56.6594707
 142.9119294 142.4638225  55.9829088 142.6532147 140.9868782  56.1916637
 140.3028628 134.4324286  53.5631279 139.4413107 134.7305540  53.8548016
 140.3291063 134.6494685  52.6312311 137.1190198 142.9766477  49.9705084
 137.5828543 143.2554180  49.1809707 136.8546996 142.0749921  49.7878175
 134.0114279 142.5237958  52.9084848 134.5815636 142.9525226  52.2702332
 134.6022390 142.2420543  53.6069033 136.0559084 139.0989629  46.7794650
 136.7583127 139.5510673  47.2468576 135.7239712 138.4573448  47.4074543
 134.5039445 137.6901386  61.1545859 133.8738106 138.3717666  61.3881256
 134.3975533 137.5784467  60.2098997 129.7984418 137.3573182  52.0811783
 129.0083472 137.6130710  51.6051894 130.2895665 138.1721519  52.1863824
 131.7499163 137.7217761  49.0395260 130.9530326 137.8336455  49.5578756
 131.5224755 138.0604413  48.1736150 137.5804831 144.2462464  56.9877774
 137.6449263 144.7082871  57.8235946 136.8715754 143.6159829  57.1160084
 128.0822121 137.6103672  54.5126774 128.3330159 138.4950682  54.7784350
 128.6181669 137.4308274  53.7401866 137.2952848 145.9130572  46.8556755
 137.1598523 146.7582107  47.2841603 137.8362661 146.1149849  46.0922689
 133.7820188 131.9922151  63.5171110 133.3887133 131.4388350  64.1918754
 134.5986328 132.3032730  63.9077628 130.7482246 143.4306010  47.4284680
 131.2606766 144.2249260  47.5790245 131.4004958 142.7332300  47.3618281
 132.5577130 146.5471766  49.5107433 132.7343759 147.4689731  49.3228417
 133.3533964 146.2330185  49.9401813 136.6988149 133.4080031  61.1091367
 137.4397862 134.0087184  61.0295829 136.9306072 132.6657668  60.5509409
 131.8429487 138.5936398  59.3869596 131.7283002 137.6921655  59.6876695
 130.9874005 138.8400095  59.0354413 133.6808446 148.0649940  55.5117775
 134.2315871 147.9367003  54.7394769 132.8419922 148.3644829  55.1612668
 137.4775617 144.3301067  59.8562007 138.0103954 143.5689356  59.6261315
 136.9489698 144.0374719  60.5986161 140.6445312 129.4361133  55.3855648
 140.3009581 130.3262775  55.3094759 141.0124274 129.2462791  54.5225233
 128.7131162 141.7594664  48.2044250 129.5506384 142.1691672  47.9877958
 128.8909430 140.8194106  48.1744444 140.6095595 139.4269745  43.8928083
 140.0942218 140.1974349  44.1316471 140.3372903 138.7534881  44.5161145
 138.1942706 134.2719445  48.9513322 137.3384302 133.8826296  48.7718960
 138.6069657 134.3511406  48.0913107 139.7241852 131.8065789  53.3504882
 139.2206648 131.7695924  52.5372687 140.0172459 132.7158531  53.4101538
 135.9684738 131.8904518  52.3571063 136.8337735 131.6947327  51.9976953
 136.0362247 131.6614870  53.2840420 140.3981898 137.2996837  45.7187865
 140.0932033 137.6142986  46.5698008 141.3512340 137.3778257  45.7615198
 138.8428330 143.4587060  47.3680819 138.3149691 142.7239820  47.0554056
 138.3415832 144.2361736  47.1220787 143.8221176 141.6536080  52.4847865
 143.1644850 142.3435342  52.5727993 144.6261575 142.0432512  52.8281851
 133.5747057 134.1206726  49.7287430 134.1490809 133.8981908  48.9960623
 134.1618040 134.1895421  50.4816031 142.6326634 140.0080453  50.5351807
 143.1458516 140.6410445  51.0373516 143.2827858 139.4081649  50.1695167
 133.9016644 136.1511187  43.7483315 133.0653957 136.4885874  44.0692590
 133.7621414 136.0160167  42.8110452 135.8769725 130.9947975  48.4562499
 135.2234137 130.6796992  47.8319114 135.8350199 130.3723716  49.1822322
 139.1107465 137.4829909  52.7810147 138.1930027 137.7044856  52.6231835
 139.5267609 137.5576219  51.9221854 139.8942513 138.8821324  47.9112827
 140.6414332 139.3942722  47.6019949 140.1634103 138.5605377  48.7717221
 138.1669163 141.3779865  44.8939782 137.2580382 141.0938898  44.9912251
 138.1964247 141.7978944  44.0343089 142.3421350 135.9178441  49.8931617
 141.6044107 135.4055827  50.2241859 142.5948124 135.4778822  49.0814894
 142.4432977 128.6954693  50.4873386 142.7491854 127.8352056  50.1999301
 143.1685582 129.2872313  50.2872380 128.7357334 139.0985379  48.8754984
 128.5381733 138.5054740  48.1506050 128.1803998 138.7937589  49.5930923
 136.7154057 138.9908486  50.9949577 136.7702667 138.0382322  50.9192054
 135.9045259 139.1467925  51.4790875 134.6546417 137.6085545  48.7539956
 133.8414283 137.9079716  49.1605148 135.1505411 137.2141234  49.4714438
 136.8054995 147.6043302  50.6874221 136.7631174 147.8304149  49.7582753
 137.7217694 147.3706677  50.8360022 140.2520629 138.0727370  57.5854850
 140.6070017 138.2998843  58.4449316 140.8992760 138.4045747  56.9632105
 145.9818366 141.1945806  48.2904179 145.8436264 141.3847402  47.3625368
 145.6254585 141.9565189  48.7472230 134.1460492 135.1803901  54.3701191
 134.7859871 135.0392660  53.6724154 133.3138022 134.8938414  53.9939793
 134.9220796 144.4806331  50.4836183 135.7161394 143.9856652  50.2818758
 134.2112488 143.9524195  50.1203889 131.2303559 138.6249413  46.5595936
 130.3001147 138.5633869  46.7765898 131.3261031 138.1025366  45.7632577
 131.1489108 135.1504226  49.1474178 131.4095926 136.0649559  49.0383338
 131.9706281 134.6828669  49.2970790 132.6214034 136.5641983  56.3173002
 133.2937087 136.3559345  55.6685651 131.7943820 136.3664069  55.8778234
 138.5239606 133.1903924  58.3338663 137.8767521 133.8893874  58.2403139
 139.2940621 133.6240068  58.7014911 141.9318404 143.4552776  61.4089216
 141.7803910 143.2263328  60.4919300 141.9223083 144.4123378  61.4220561
 138.7003740 141.0284689  56.3935483 139.6295800 141.1795849  56.2204450
 138.2794770 141.1168710  55.5384129 137.4992072 145.0535353  54.1634020
 137.3603157 144.6854138  55.0359958 136.7106668 145.5682993  53.9917978
 139.0497287 144.4316956  51.5522858 138.7147120 144.3917726  52.4480508
 138.5501233 143.7661672  51.0793268 133.0241531 139.8384586  57.0775439
 132.8861329 139.1064825  57.6786978 133.9346454 139.7493486  56.7959627
 135.6523832 139.5504545  56.5659119 136.3623450 138.9097738  56.5245737
 135.6093140 139.8017440  57.4885300 134.3652766 136.5369763  58.3854758
 133.8290123 136.0860502  59.0376355 133.7769474 136.6715672  57.6425223
 133.7755025 135.9958415  40.9481222 132.8984491 135.8747216  40.5843469
 134.2512778 135.2044493  40.6960111 125.2957165 140.7835574  51.0422729
 125.9828204 140.4697304  50.4543745 125.1405293 141.6876939  50.7689981
 130.0991887 135.6725771  55.4707753 130.0150076 135.0651441  54.7358163
 129.2774593 136.1634789  55.4717249 140.2715601 134.1579335  50.8377948
 140.7684300 133.4049297  50.5179018 139.5002582 134.1943651  50.2721157
 141.3545381 142.9151022  48.4116371 140.4201660 143.0352484  48.2421076
 141.5322050 142.0123489  48.1476381 136.8550569 136.2996718  50.5649633
 136.4848357 135.7467758  51.2530538 137.3509662 135.6954851  50.0124633
 144.7417933 138.7568341  48.9466406 145.2078385 139.5896333  48.8726708
 145.1925433 138.2913323  49.6511664 134.6839768 146.7594213  57.6604651
 135.3849227 147.3930696  57.8134045 134.2134883 147.1008944  56.9000290
 142.7134595 131.1248928  52.9857307 141.7997675 131.3553155  53.1539514
 143.1427697 131.2087372  53.8371339 142.4841054 139.3138820  55.4857201
 141.8312504 139.5614727  54.8309654 142.8621434 138.5002958  55.1519678
 138.5328627 140.0558631  61.9723238 137.8569264 139.9552760  62.6425613
 139.3556261 139.8997845  62.4359235 130.2807486 146.2930568  54.5935753
 130.8660923 145.5474256  54.7263657 130.0832324 146.6034524  55.4772417
 133.1346141 149.3281815  49.6098196 132.4656517 149.8127943  49.1262236
 132.9959011 149.5751035  50.5241574 124.8725141 138.8636168  53.3140196
 124.9109240 138.3299758  54.1077314 124.3665434 138.3371373  52.6951174
 132.2515903 133.7100708  56.8102739 132.3157230 134.5715539  56.3980136
 132.1883023 133.0974710  56.0775097 131.7268176 135.7823841  60.4575773
 132.3540214 135.4000918  61.0713297 130.8696094 135.5638043  60.8231465
 128.5033718 137.5900270  46.3894128 128.7987159 136.6810948  46.3361181
 127.6021754 137.5688009  46.0675130 132.0327965 135.6656267  52.3721676
 131.3114551 136.2792234  52.2329150 132.8221221 136.2014031  52.2938322
 134.8354279 133.0010693  58.6462328 135.3588681 133.2472990  59.4088637
 134.6166612 133.8330728  58.2265465 130.2321560 135.2714368  46.5133453
 129.9034266 134.3911747  46.3308559 130.5860931 135.2162036  47.4009842
 133.3463383 135.5587337  46.8808931 133.6859456 136.0873259  46.1587539
 133.7935504 135.8967744  47.6567497 136.0406824 133.9424388  56.3311999
 135.7003644 133.1432201  56.7332679 135.3345830 134.2426099  55.7588832
 136.6923296 131.0273701  54.7839322 137.5149365 130.5534179  54.6618212
 136.9361359 131.8064184  55.2838008 135.3331530 134.0561959  45.0802223
 136.0539893 134.4343212  44.5765940 134.7096834 134.7750836  45.1837201
 139.4762653 134.7607108  46.0160556 139.6926268 135.6431746  45.7149384
 138.9956720 134.3693321  45.2866198 134.2161874 137.7192821  52.5931300
 134.0706455 138.0333124  53.4855582 133.7387078 138.3377722  52.0402199
 136.0758257 134.7095369  52.6412190 136.0619826 133.8136463  52.3044488
 136.7930685 134.7166033  53.2750476 137.9284388 135.1432709  54.6865317
 137.6702166 136.0649780  54.6849648 137.3969428 134.7463144  55.3765781
 128.6907537 140.2598166  55.5318961 128.1461005 141.0357974  55.6639236
 129.5686887 140.6068970  55.3738083 135.4795153 133.5909749  47.9099760
 135.6011065 132.6626396  48.1090647 135.1897196 133.6048435  46.9978075
 138.3486344 131.2764660  51.0466480 138.3708041 131.3403993  50.0918459
 138.7654403 130.4369169  51.2406986 129.4773559 139.3868062  58.4249118
 128.7355295 139.5350697  59.0113749 129.1566303 139.6476327  57.5615868
 129.9230172 147.2733491  50.4559513 130.7488192 146.9737262  50.0758157
 129.5724224 146.5041113  50.9049302 134.8911705 146.6259959  52.5257187
 134.2691715 145.9630664  52.2259414 135.5616572 146.6521091  51.8430834
 128.1238777 145.1919817  51.4148447 127.2870686 144.7641991  51.2332448
 128.0962423 145.3852260  52.3519238 134.9636233 135.1041747  62.1189693
 135.0124388 135.9803870  61.7367462 135.5058747 134.5619140  61.5461336
 134.4525212 145.1763882  46.0015647 134.6013333 145.8599347  45.3482320
 135.2591656 145.1568972  46.5165103 142.8592716 138.4806264  60.0282865
 143.7602579 138.3412729  59.7366863 142.9340690 138.6460719  60.9681042
 137.1935521 135.8573119  58.8736051 136.3238831 136.1506685  58.6018640
 137.4295002 136.4413564  59.5943315 145.3194339 140.0404893  57.4245638
 145.7948460 140.2332539  56.6164489 144.3959904 140.0964078  57.1789021
 132.2077845 141.2029060  47.0076716 131.9623887 140.2991390  47.2056926
 132.3773760 141.2046210  46.0656194 139.8974555 132.0752736  56.3901472
 140.4156499 132.8113763  56.0647960 139.5429688 132.3816729  57.2248231
 131.4773493 136.9357417  44.5062877 130.7842738 137.0101772  43.8502913
 131.2325245 136.1717761  45.0284394 140.1487149 128.4953019  51.9102368
 140.4288903 127.8276208  52.5362795 140.9337756 128.6882114  51.3977032
 144.0196008 136.9170653  55.6573943 144.9713431 137.0168750  55.6786167
 143.8499458 136.1248921  56.1672028 142.0410387 134.0026236  55.8433344
 141.4460319 134.2831249  55.1479833 141.7560084 134.4920137  56.6150085
 146.4984085 140.1376772  54.7716243 146.4660406 139.1992773  54.9575927
 147.1084709 140.2160809  54.0382068 146.6478574 136.9287816  54.8174526
 146.1317623 136.1446272  54.6304455 147.5318522 136.6006532  54.9821046
 144.3089301 130.6728831  50.7770339 144.1114122 130.3643920  51.6613671
 144.9189006 131.3990470  50.9068269 138.2206109 143.0590571  62.2744104
 139.1409118 143.2369170  62.4684151 138.1855692 142.1146617  62.1223803
 136.5210333 136.9322802  40.7498332 135.6141789 136.6355914  40.8261046
 136.7986314 136.6352620  39.8832618 127.4388274 138.2529165  51.1997379
 127.1191058 137.3994473  50.9071753 126.8921702 138.4677743  51.9555346
 131.2168181 140.9691606  54.9166885 131.4354191 141.9008714  54.9354919
 131.6293955 140.6099581  55.7021689 138.1372399 131.4759691  46.9042574
 137.3273127 131.1306776  47.2797820 138.8256816 131.1667235  47.4930185
 140.0662947 130.5537738  48.5266870 140.6193986 130.9733192  49.1856893
 140.3033034 129.6273486  48.5689826 136.0896047 136.5424812  64.3069634
 135.9892774 137.4919169  64.2381725 135.8717589 136.2143051  63.4345704
 135.2909118 133.7909737  40.8910311 136.1528282 134.1164635  41.1506129
 135.4759462 133.0041233  40.3783377 127.3076534 141.8732077  53.1690500
 126.6140005 141.4586029  52.6560455 128.0549525 141.9152613  52.5723919
 143.4441755 132.6638263  48.0345534 142.8640424 133.3223067  47.6523587
 143.1777687 131.8415608  47.6232952 141.8945321 132.0643321  50.2366855
 142.3945099 132.1759856  49.4281174 142.5380929 131.7604374  50.8767663
 135.9527317 139.9721951  63.1234696 135.4694398 140.7722311  63.3298585
 136.0388256 139.9829896  62.1702140 129.2213276 141.8050330  51.0456515
 129.1983964 141.9038018  50.0938398 129.5313913 142.6515481  51.3673681
 131.8800654 143.8626485  55.1603130 132.8343908 143.8310428  55.0933061
 131.6813178 143.4017109  55.9753355 132.4700036 142.4327601  57.7273927
 133.2892925 142.9271680  57.7508764 132.7436844 141.5159570  57.6991495
 142.2266633 134.8238354  47.0901883 141.3392488 135.1088004  46.8722077
 142.6420622 134.6632117  46.2429160 145.5781169 134.8484875  50.8056222
 146.3541559 135.3381327  51.0780839 144.8529303 135.2742929  51.2628091
 148.0153727 135.5612494  51.8630163 148.6098218 135.3208230  51.1523471
 148.0880311 134.8419625  52.4903699 130.2350883 149.4046105  52.1773327
 130.1005351 148.6446506  51.6111325 129.8182945 150.1287005  51.7102116
 142.2007656 140.3392890  47.3052173 142.1442858 140.7961441  46.4659805
 142.7535999 139.5783574  47.1275016 146.0112462 136.1282622  48.1302292
 145.7549396 135.7279257  48.9610500 145.3865330 136.8426416  48.0052432
 127.7234951 136.7665735  58.4266124 128.3693814 136.2564689  58.9153349
 127.5152102 137.5034417  59.0009550 140.2488343 143.8346583  63.9258265
 141.1179502 144.0087235  63.5644900 139.7695094 144.6541000  63.8033994
 136.2438561 131.0305780  44.1790020 136.2317231 131.9747620  44.3358291
 137.1361983 130.8475925  43.8849482 140.0590681 127.6248557  48.4335957
 139.2923076 127.0707043  48.5792640 140.4701386 127.6970425  49.2950109
 132.0632442 133.9133352  62.5241138 132.9263903 133.5570157  62.7344463
 131.4897852 133.5747247  63.2116543  51.6446519  -4.3067648  45.9496576
  51.6335159  -4.7014850  45.0777080  51.8067158  -5.0401575  46.5430348
  48.3653780  -1.5230536  44.8975760  48.0743646  -0.6184905  44.7822427
  49.0010764  -1.4814008  45.6119830  53.3243665  -1.8369121  41.8925554
  53.0244388  -0.9344082  41.7841361  52.9794724  -2.1036937  42.7446707
  50.7981674  -7.8996935  47.5157889  50.0215009  -7.3403015  47.5060753
  51.4372238  -7.4140152  48.0372759  49.0528047  -5.0911481  47.0775856
  49.7942731  -4.5526437  46.8010679  48.3465032  -4.4645193  47.2347407
  54.5283386  -2.9482341  45.6748017  54.9366742  -3.3899930  44.9302649
  53.8060648  -3.5229713  45.9282210  54.0313902 -10.3505366  44.7062748
  53.7874834  -9.5963305  44.1697023  54.3073832  -9.9720018  45.5409995
  55.9852365  -3.8066753  43.3840013  56.1969260  -3.1634994  42.7074394
  55.9382113  -4.6404437  42.9161943  47.7889410  -7.9371833  47.8791166
  47.1588071  -7.2555552  48.1126562  47.6825498  -8.0488752  46.9344304
  57.0998192  -0.9294798  41.5562371  57.9215636  -1.3314611  41.2745052
  57.0960595  -1.0326564  42.5078486  50.8654796  -1.3810755  43.7123081
  50.9299228  -0.9190348  44.5481253  50.1565720  -2.0113390  43.8405391
  65.1904186  -4.5856050  37.9047342  64.4367894  -5.1548651  37.7491347
  65.3251727  -4.6193385  38.8517977  52.2071290   0.9080919  47.7102404
  51.7635144   0.1217298  47.3923308  52.8688504   1.0960070  47.0446294
  46.9658411   2.4376721  42.2363082  47.5165836   2.3093784  41.4640076
  46.1269887   2.7371610  41.8857975  54.3052528   1.1883719  45.7383805
  54.2871003   2.0092600  45.2464074  55.2272448   1.0637794  45.9633946
  50.7625582  -1.2972151  46.5807313  51.2953919  -2.0583863  46.3506621
  50.2339663  -1.5898500  47.3231468  53.5370594  -7.5545849  44.3100156
  53.8919982  -7.3274376  45.1694622  54.1842725  -7.2227472  43.6877412
  59.2937711  -2.3650886  40.0260757  59.7274217  -2.4575597  40.8743811
  60.0069291  -2.3893386  39.3880773  53.0265606   1.2351208  41.5593858
  53.0802628   1.8042144  42.3271573  52.1580387   1.4053093  41.1947895
  60.1553260  -2.3227185  42.5593642  60.3489150  -1.4181375  42.8052917
  60.0553878  -2.7819766  43.3932227  55.2168369  -2.1720443  48.1334523
  55.0653875  -2.4009891  47.2164607  55.2073048  -1.2149841  48.1465868
  51.9853705  -4.5988530  43.1180789  52.9145765  -4.4477370  42.9449757
  51.5644735  -4.5104509  42.2629436  50.7842037  -0.5737865  40.8879327
  50.6453123  -0.9419081  41.7605265  49.9956633  -0.0590226  40.7163285
  56.9260576   0.8598680  46.2111005  56.8673122   0.1757900  45.5441588
  57.3280094   1.6017670  45.7591631  45.9451274   7.6760594  39.0044724
  46.1847873   8.3079118  39.6823742  45.1020471   7.3248634  39.2910083
  56.9277983  -1.1761736  44.4424984  56.0404762  -1.5135814  44.5651383
  57.4976534  -1.9078705  44.6793750  50.4579136   3.4839716  41.4086228
  50.3849308   4.2894688  41.9205532  50.0156529   3.6831682  40.5834249
  52.9177820   3.3826550  43.5644386  53.6305792   4.0174015  43.4920288
  52.4267848   3.4790416  42.7484388  47.9689733   1.1320994  44.3849957
  48.6699193   1.7657477  44.5379351  47.4984848   1.4735725  43.6245596
  55.7691019  -6.3134399  42.2102508  55.1162470  -6.0658491  41.5554960
  56.1471399  -7.1270261  41.8764985  51.8178592  -5.5714588  48.6968545
  51.1419229  -5.6720458  49.3670920  52.6406226  -5.7275374  49.1604542
  50.5601375   5.7352340  42.9326161  51.1119683   5.8983961  43.6975246
  50.9007569   6.3256778  42.2606185  55.4112250   0.5613597  48.7874815
  55.9552153   1.1743555  48.2929770  54.8299094   1.1193176  49.3041828
  53.6969762   3.6834315  39.9189843  53.5720902   2.8824055  39.4100788
  54.3548854   4.1780509  39.4303813  55.7604671   1.4843335  41.5469393
  54.8135006   1.3648686  41.4747720  56.1087444   0.5965833  41.6295654
  56.3685226   2.1024610  38.8338618  57.2931773   1.8967472  38.6963069
  56.2000529   1.8541011  39.7427959  50.7067186   3.3010821  44.9474815
  51.0154313   3.0559968  45.8197515  51.5042669   3.5057460  44.4593685
  50.7287799   5.4548731  37.1780192  50.2892789   4.9625110  37.8713048
  51.4795916   4.9121699  36.9372267  58.7341044   0.0209651  48.1236136
  57.9436588   0.0033790  47.5840636  58.4974398   0.5597945  48.8785173
  58.8538919  -3.1297882  45.4368865  58.9036924  -3.2947875  46.3784388
  58.7452842  -3.9970623  45.0466746  56.1442681  -7.1466954  46.7528172
  57.0452544  -7.2860489  46.4612169  56.2190656  -6.9812499  47.6926349
  60.3557116  -0.7100941  45.6810886  60.0641924  -0.3470960  46.5174347
  59.7429247  -1.4233933  45.5024218  61.5552798  -3.1448061  38.2013457
  62.3899689  -2.7058257  38.3651017  61.6911927  -3.6209408  37.3821702
  58.6044304  -5.5868326  44.1490944  59.0798426  -5.3940680  43.3409796
  57.6809869  -5.5309140  43.9034328  57.3045973  -8.7102566  42.3819250
  58.2563396  -8.6104468  42.4031474  57.1349423  -9.5024298  42.8917334
  59.7834051  -5.4896446  41.4961550  59.7510371  -6.4280446  41.6821233
  60.3934674  -5.4112410  40.7627374  65.6010601  -4.4280440  40.6367586
  66.3313989  -4.6895151  41.1975290  64.9917546  -5.1651718  40.6769654
  63.6825898  -6.2872577  41.2342038  62.9559061  -6.4216612  40.6258529
  63.2673185  -5.9795748  42.0398756  51.5056074  -2.5682647  48.9989411
  52.4259084  -2.3904048  49.1929457  51.4705657  -3.5126602  48.8469110
  49.3746012  -9.0848407  51.0314941  49.2742739  -8.1354050  50.9627032
  49.1567554  -9.4130168  50.1591011  49.2377282  -5.6551268  49.8480002
  48.7544364  -4.8550908  50.0543891  49.3238221  -5.6443323  48.8947446
  45.7550002  -3.1945617  44.4519234  46.5742891  -2.7001539  44.4754071
  46.0286809  -4.1113649  44.4236801  46.6769974   4.6742203  39.1137077
  46.5602358   5.6187636  39.0115767  45.8562421   4.3715765  39.5022876
  53.5338308  -1.7926636  50.6503571  54.4029468  -1.6185984  50.2890206
  53.0545060  -0.9732219  50.5279301  47.7024488   5.3270465  42.3293005
  48.6051735   5.3594075  42.6459500  47.4761858   4.3970916  42.3439341
  49.4578090   4.0801452  38.9903084  48.5073721   4.0803313  38.8767456
  49.7610577   3.3334186  38.4739118  65.1930784   9.9161990  40.0548846
  65.8309194   9.7968737  39.3512186  65.0751627  10.8642834  40.1136798
  62.0020490   9.8689418  39.9910371  61.6639002   9.7530483  39.1030906
  62.8710258   9.4680583  39.9711377  57.8607306  11.7224894  35.9807262
  57.2972171  11.6314831  35.2123550  57.7459701  10.9024799  36.4609754
  62.4840273  11.0224270  45.9496576  62.4728914  10.6277068  45.0777080
  62.6460913  10.2890342  46.5430348  55.4071738  13.2176086  38.8191482
  56.1993030  12.8766911  38.4037782  55.6468388  13.3271061  39.7393636
  63.4406865  15.3895862  31.2921727  62.7894844  15.9749943  30.9055740
  64.2351227  15.9202057  31.3516764  57.3662492  12.4784999  31.6908861
  58.1393368  11.9313986  31.5521737  57.7187891  13.3429249  31.9023322
  59.2047534  13.8061382  44.8975760  58.9137400  14.7107012  44.7822427
  59.8404519  13.8477909  45.6119830  60.1303741  11.1838230  41.4877120
  60.7267313  10.9594253  40.7734083  60.1878713  10.4422976  42.0902568
  64.7472052   7.6413444  37.1302054  65.5335142   7.2232867  36.7792471
  65.0110757   8.5459536  37.2983703  64.9182130  13.0786294  31.8290711
  64.2827963  13.1520921  32.5411616  64.5879536  13.6679893  31.1509790
  70.1480479   7.5788677  38.0335033  70.8805651   7.0087894  38.2672862
  69.3919835   7.1910277  38.4741538  59.4225058  10.5405771  31.5251686
  59.3061316   9.8650675  32.1932770  59.5327318  10.0538145  30.7083839
  61.7656599  10.0015919  35.2298375  61.4014806   9.4746539  35.9411297
  62.6223715   9.6114388  35.0564861  67.6705900   1.2910251  42.4929641
  67.3389225   2.1605662  42.2690856  67.0751513   0.9746535  43.1723672
  64.1637419  13.4922797  41.8925554  63.8638142  14.3947836  41.7841361
  63.8188479  13.2254980  42.7446707  57.6149901   9.9436594  37.9262258
  56.6900397   9.8112808  38.1339950  57.8634314  10.7230813  38.4232201
  67.5634563   6.0105337  39.5722991  66.6551440   5.9420746  39.2781752
  67.5122159   6.4877282  40.4004817  54.9758712   9.5869868  38.7606048
  55.1051093   9.8404346  39.6745459  54.2956163  10.1797576  38.4410703
  59.1458199  20.2567117  34.8596522  59.0682229  21.2074943  34.9385002
  58.5419843  19.9112990  35.5171448  61.6375429   7.4294983  47.5157889
  60.8608763   7.9888903  47.5060753  62.2765992   7.9151766  48.0372759
  69.4296210   4.2121776  41.3500865  68.7870590   4.5054309  40.7040660
  68.9251138   4.0974696  42.1554062  67.0836373   7.9584949  32.0386725
  67.9954229   8.1912336  31.8634422  66.5746020   8.5421993  31.4761803
  59.8921801  10.2380436  47.0775856  60.6336486  10.7765480  46.8010679
  59.1858787  10.8646725  47.2347407  65.3677141  12.3809577  45.6748017
  65.7760497  11.9391987  44.9302649  64.6454402  11.8062204  45.9282210
  61.7208211   7.3182183  43.0481574  62.5669406   7.7421597  43.1916223
  61.6606849   6.6615808  43.7420137  65.6905956  12.9410767  39.4300306
  65.0614818  13.1056481  38.7276374  65.3031618  13.3552377  40.2011270
  69.5695187  13.8765205  36.7844670  68.8846226  14.2564107  36.2341703
  69.6539037  14.4860532  37.5176618  64.8707656   4.9786552  44.7062748
  64.6268588   5.7328612  44.1697023  65.1467587   5.3571899  45.5409995
  66.8246119  11.5225164  43.3840013  67.0363014  12.1656924  42.7074394
  66.7775867  10.6887481  42.9161943  64.4272348   4.1342985  40.2876585
  63.5656827   4.4324238  40.5793323  64.4534783   4.3513384  39.3557618
  61.2433917  12.6785175  36.6950391  61.7072263  12.9572878  35.9055014
  60.9790716  11.7768620  36.5123482  58.1357998  12.2256657  39.6330154
  58.7059356  12.6543925  38.9947639  58.7266110  11.9439242  40.3314340
  60.1802803   8.8008328  33.5039956  60.8826847   9.2529371  33.9713883
  59.8483432   8.1592147  34.1319849  58.6283165   7.3920084  47.8791166
  57.9981826   8.0736365  48.1126562  58.5219253   7.2803166  46.9344304
  53.9228137   7.0591880  38.8057090  53.1327191   7.3149409  38.3297200
  54.4139385   7.8740218  38.9109130  67.9391947  14.3997120  41.5562371
  68.7609391  13.9977307  41.2745052  67.9354350  14.2965354  42.5078486
  55.8742883   7.4236460  35.7640566  55.0774046   7.5355154  36.2824062
  55.6468475   7.7623112  34.8981457  61.7048550  13.9481163  43.7123081
  61.7692983  14.4101570  44.5481253  60.9959474  13.3178528  43.8405391
  52.2065840   7.3122371  41.2372081  52.4573879   8.1969381  41.5029657
  52.7425389   7.1326972  40.4647172  76.0297940  10.7435868  37.9047342
  75.2761648  10.1743266  37.7491347  76.1645481  10.7098533  38.8517977
  61.4196568  15.6149270  33.5802061  61.2842243  16.4600806  34.0086909
  61.9606381  15.8168548  32.8167995  57.9063908   1.6940850  50.2416417
  57.5130853   1.1407049  50.9164061  58.7230048   2.0051429  50.6322934
  54.8725965  13.1324708  34.1529987  55.3850486  13.9267959  34.3035551
  55.5248678  12.4350999  34.0863588  56.6820850  16.2490465  36.2352740
  56.8587479  17.1708429  36.0473724  57.4777684  15.9348884  36.6647119
  60.8231869   3.1098729  47.8336673  61.5641582   3.7105883  47.7541136
  61.0549792   2.3676367  47.2754716  55.9673207   8.2955097  46.1114903
  55.8526722   7.3940354  46.4122002  55.1117724   8.5418793  45.7599719
  63.0465044  16.2372837  47.7102404  62.6028899  15.4509215  47.3923308
  63.7082258  16.4251987  47.0446294  57.8052166  17.7668639  42.2363082
  58.3559591  17.6385702  41.4640076  56.9663642  18.0663528  41.8857975
  65.1446283  16.5175637  45.7383805  65.1264758  17.3384518  45.2464074
  66.0666203  16.3929712  45.9633946  61.6019337  14.0319766  46.5807313
  62.1347673  13.2708055  46.3506621  61.0733418  13.7393418  47.3231468
  64.7689032  -0.8620168  42.1100955  64.4253301   0.0281474  42.0340065
  65.1367994  -1.0518510  41.2470540  52.8374882  11.4613363  34.9289557
  53.6750104  11.8710371  34.7123265  53.0153150  10.5212805  34.8989751
  64.7339314   9.1288443  30.6173390  64.2185938   9.8993048  30.8561777
  64.4616623   8.4553580  31.2406451  62.3186425   3.9738144  35.6758628
  61.4628022   3.5844995  35.4964267  62.7313377   4.0530105  34.8158414
  63.8485572   1.5084487  40.0750188  63.3450368   1.4714623  39.2617993
  64.1416179   2.4177230  40.1346845  60.0928458   1.5923217  39.0816370
  60.9581455   1.3966026  38.7222259  60.1605967   1.3633569  40.0085727
  69.7073589  11.8820798  32.5526563  68.9303031  11.5431958  32.1081726
  70.3865069  11.8873421  31.8781529  64.5225618   7.0015536  32.4433171
  64.2175753   7.3161685  33.2943314  65.4756060   7.0796955  32.4860504
  62.9672049  13.1605759  34.0926125  62.4393411  12.4258518  33.7799363
  62.4659552  13.9380435  33.8466094  67.9464895  11.3554779  39.2093171
  67.2888570  12.0454041  39.2973300  68.7505295  11.7451211  39.5527158
  57.6990777   3.8225425  36.4532737  58.2734529   3.6000607  35.7205930
  58.2861759   3.8914120  37.2061338  66.7570354   9.7099152  37.2597113
  67.2702236  10.3429144  37.7618823  67.4071578   9.1100348  36.8940473
  64.0192728  19.6883476  30.0157784  63.3454427  19.9915173  30.6242742
  64.4058550  20.4912557  29.6663241  63.2351185   7.1848608  39.5055454
  62.3173746   7.4063555  39.3477142  63.6511329   7.2594918  38.6467161
  64.0186233   8.5840023  34.6358134  64.7658052   9.0961420  34.3265256
  64.2877822   8.2624076  35.4962528  62.2912883  11.0798564  31.6185088
  61.3824102  10.7957597  31.7157558  62.3207967  11.4997643  30.7588395
  67.5232150  14.6905153  35.3876256  67.0694478  13.8496063  35.4441446
  66.8926117  15.3266552  35.7251036  66.4665070   5.6197139  36.6176923
  65.7287827   5.1074526  36.9487166  66.7191844   5.1797521  35.8060200
  65.9665090  16.5281650  36.3226074  66.2588064  17.0886707  35.6038440
  66.4763710  16.8210211  37.0779233  66.5676697  -1.6026609  37.2118693
  66.8735574  -2.4629245  36.9244608  67.2929302  -1.0108988  37.0117686
  52.8601053   8.8004078  35.6000291  52.6625453   8.2073439  34.8751357
  52.3047717   8.4956288  36.3176229  60.8397777   8.6927185  37.7194884
  60.8946387   7.7401021  37.6437360  60.0288979   8.8486624  38.2036182
  61.9888971  12.6207308  28.9573167  61.5508401  11.9043167  28.4978804
  62.7299412  12.8483422  28.3958258  58.7790137   7.3104244  35.4785263
  57.9658003   7.6098415  35.8850455  59.2749131   6.9159933  36.1959745
  60.9298715  17.3062001  37.4119527  60.8874894  17.5322848  36.4828059
  61.8461414  17.0725376  37.5605328  64.3764349   7.7746069  44.3100156
  64.7313736   8.0017542  45.1694622  65.0236480   8.1064446  43.6877412
  70.1062086  10.8964505  35.0149485  69.9679984  11.0866101  34.0870675
  69.7498304  11.6583887  35.4717537  58.2704212   4.8822600  41.0946497
  58.9103591   4.7411359  40.3969461  57.4381742   4.5957113  40.7185099
  70.1331465  12.9641032  40.0260757  70.5667972  12.8716321  40.8743811
  70.8463046  12.9398532  39.3880773  59.0464516  14.1825030  37.2081490
  59.8405114  13.6875350  37.0064065  58.3356208  13.6542893  36.8449195
  63.8659360  16.5643126  41.5593858  63.9196382  17.1334062  42.3271573
  62.9974141  16.7345011  41.1947895  55.2732828   4.8522925  35.8719484
  55.5339645   5.7668258  35.7628645  56.0950000   4.3847367  36.0216097
  56.7457753   6.2660682  43.0418309  57.4180807   6.0578044  42.3930958
  55.9187540   6.0682768  42.6023541  70.9947015  13.0064732  42.5593642
  71.1882905  13.9110543  42.8052917  70.8947633  12.5472151  43.3932227
  62.6483325   2.8922623  45.0583970  62.0011241   3.5912573  44.9648446
  63.4184341   3.3258767  45.4260218  66.0562123  13.1571475  48.1334523
  65.9047630  12.9282027  47.2164607  66.0466803  14.1142076  48.1465868
  62.8247460  10.7303388  43.1180789  63.7539520  10.8814547  42.9449757
  62.4038490  10.8187409  42.2629436  61.6235792  14.7554052  40.8879327
  61.4846877  14.3872837  41.7605265  60.8350388  15.2701692  40.7163285
  62.2183944  19.8563149  32.2304864  62.3935699  19.3851192  33.0450486
  61.5316732  20.4828915  32.4586124  63.1741007  14.1335655  38.2768165
  62.8390839  14.0936425  39.1725815  62.6744952  13.4680371  37.8038575
  57.1485251   9.5403285  43.8020746  57.0105049   8.8083524  44.4032285
  58.0590174   9.4512185  43.5204934  66.1100198  11.4791689  28.5505224
  65.4929369  10.7538517  28.4538277  65.6416687  12.2401050  28.2072299
  59.7767551   9.2523244  43.2904426  60.4867170   8.6116436  43.2491044
  59.7336860   9.5036139  44.2130606  67.7654330  16.1890598  46.2111005
  67.7066876  15.5049818  45.5441588  68.1673848  16.9309588  45.7591631
  58.4896485   6.2388462  45.1100065  57.9533842   5.7879201  45.7621661
  57.9013194   6.3734371  44.3670529  56.7845029  23.0052511  39.0044724
  57.0241627  23.6371036  39.6823742  55.9414225  22.6540551  39.2910083
  67.7671737  14.1530182  44.4424984  66.8798516  13.8156103  44.5651383
  68.3370288  13.4213213  44.6793750  49.4200884  10.4854273  37.7668036
  50.1071924  10.1716003  37.1789051  49.2649013  11.3895638  37.4935287
  54.2235607   5.3744470  42.1953060  54.1393795   4.7670139  41.4603470
  53.4018313   5.8653488  42.1962556  61.2972891  18.8131634  41.4086228
  61.2243062  19.6186605  41.9205532  60.8550284  19.0123600  40.5834249
  61.0862670  18.0503404  34.9189049  60.3030192  18.5925084  35.0127274
  61.7855416  18.5677384  35.3183290  64.3959320   3.8598033  37.5623255
  64.8928020   3.1067996  37.2424325  63.6246302   3.8962350  36.9966464
  72.2489078   9.5638399  39.2041546  72.2378954  10.4463114  38.8335479
  71.3806457   9.2109950  39.0096083  63.7571574  18.7118468  43.5644386
  64.4699546  19.3465933  43.4920288  63.2661603  18.8082334  42.7484388
  65.4789101  12.6169721  35.1361678  64.5445380  12.7371183  34.9666382
  65.6565770  11.7142187  34.8721688  60.9794289   6.0015416  37.2894939
  60.6092077   5.4486457  37.9775845  61.4753382   5.3973550  36.7369939
  68.8661653   8.4587040  35.6711712  69.3322105   9.2915031  35.5972015
  69.3169153   7.9932021  36.3756971  58.8083488  16.4612911  44.3849957
  59.5092947  17.0949394  44.5379351  58.3378603  16.8027643  43.6245596
  66.9337884  14.8030861  32.6697864  67.2097728  14.6887456  33.5791738
  66.0642382  14.4048346  32.6310037  66.8378315   0.8267627  39.7102614
  65.9241395   1.0571854  39.8784820  67.2671417   0.9106071  40.5616646
  66.6084774   9.0157519  42.2102508  65.9556224   9.2633426  41.5554960
  66.9865154   8.2021657  41.8764985  63.5691948  19.0517212  36.3130678
  63.7514342  18.2338868  36.7758430  64.3924934  19.2684904  35.8755568
  63.9034113  17.9785397  33.5745726  64.4321880  17.4677852  32.9615888
  64.1662333  17.6627927  34.4391259  62.6572347   9.7577330  48.6968545
  61.9812984   9.6571459  49.3670920  63.4799981   9.6016544  49.1604542
  54.4051206  15.9949266  41.3181060  54.9904643  15.2492954  41.4508964
  54.2076044  16.3053223  42.2017724  57.2589861  19.0300514  36.3343502
  56.5900236  19.5146641  35.8507542  57.1202731  19.2769734  37.2486881
  48.9968861   8.5654867  40.0385503  49.0352960   8.0318457  40.8322621
  48.4909153   8.0390072  39.4196480  61.3995130  21.0644257  42.9326161
  61.9513438  21.2275879  43.6975246  61.7401323  21.6548695  42.2606185
  56.3759623   3.4119407  43.5348045  56.4400949   4.2734238  43.1225443
  56.3126743   2.7993409  42.8020404  55.8511895   5.4842540  47.1821080
  56.4783934   5.1019617  47.7958604  54.9939814   5.2656742  47.5476772
  66.2506004  15.8905515  48.7874815  66.7945908  16.5035473  48.2929770
  65.6692849  16.4485093  49.3041828  64.5363517  19.0126233  39.9189843
  64.4114656  18.2115973  39.4100788  65.1942608  19.5072426  39.4303813
  56.1571685   5.3674965  39.0966983  55.4358271   5.9810933  38.9574456
  56.9464941   5.9032730  39.0183629  66.5998425  16.8135253  41.5469393
  65.6528761  16.6940604  41.4747720  66.9481198  15.9257751  41.6295654
  58.9597999   2.7029392  45.3707635  59.4832401   2.9491688  46.1333944
  58.7410332   3.5349427  44.9510772  63.6044859  16.6087969  37.7473745
  63.4569821  15.6804677  37.9281315  64.4298352  16.6308060  37.2630820
  67.2078980  17.4316528  38.8338618  68.1325528  17.2259389  38.6963069
  67.0394284  17.1832929  39.7427959  60.1650544   3.6443087  43.0557305
  59.8247364   2.8450900  43.4577985  59.4589550   3.9444798  42.4834138
  60.8167016   0.7292399  41.5084628  61.6393085   0.2552878  41.3863519
  61.0605079   1.5082883  42.0083315  58.3405594   7.4211520  39.3176607
  58.1950175   7.7351823  40.2100888  57.8630798   8.0396420  38.7647506
  60.2001977   4.4114068  39.3657496  60.1863546   3.5155161  39.0289794
  60.9174405   4.4184732  39.9995783  62.0528108   4.8451408  41.4110624
  61.7945886   5.7668479  41.4094954  61.5213148   4.4481843  42.1011088
  66.9974297  17.9502195  34.1900709  67.1711174  17.3848618  33.4374562
  67.4903188  18.7503090  34.0080199  52.8151256   9.9616864  42.2564268
  52.2704725  10.7376672  42.3884542  53.6930606  10.3087669  42.0983390
  62.4730064   0.9783359  37.7711786  62.4951760   1.0422692  36.8163766
  62.8898123   0.1387867  37.9652293  72.8513688  10.7138618  35.8091009
  73.2944834   9.9645944  35.4110132  71.9740198  10.7048755  35.4264741
  67.9849469  17.2668960  31.2897608  68.6800374  17.8875652  31.5084922
  68.3272619  16.4164311  31.5649985  53.6017278   9.0886761  45.1494425
  52.8599014   9.2369396  45.7359055  53.2810023   9.3495026  44.2861174
  69.8840892  14.7168665  32.8184938  70.4092216  15.0555938  32.0934258
  69.7963245  13.7815681  32.6348073  61.5460941  18.6302739  44.9474815
  61.8548067  18.3851886  45.8197515  62.3436423  18.8349377  44.4593685
  61.5681553  20.7840649  37.1780192  61.1286543  20.2917027  37.8713048
  62.3189670  20.2413616  36.9372267  54.0473892  16.9752189  37.1804820
  54.8731912  16.6755961  36.8003463  53.6967944  16.2059812  37.6294608
  59.0155425  16.3278658  39.2502493  58.3935434  15.6649363  38.9504721
  59.6860292  16.3539790  38.5676141  52.2482497  14.8938516  38.1393753
  51.4114405  14.4660690  37.9577754  52.2206142  15.0870959  39.0764544
  59.0879953   4.8060446  48.8434999  59.1368108   5.6822569  48.4612769
  59.6302467   4.2637839  48.2706642  69.5734798  15.3501569  48.1236136
  68.7830342  15.3325708  47.5840636  69.3368153  15.8889863  48.8785173
  69.6932673  12.1994035  45.4368865  69.7430678  12.0344043  46.3784388
  69.5846597  11.3321294  45.0466746  58.5768932  14.8782581  32.7260954
  58.7257052  15.5618045  32.0727626  59.3835376  14.8587671  33.2410409
  66.9836436   8.1824963  46.7528172  67.8846299   8.0431428  46.4612169
  67.0584410   8.3479418  47.6926349  61.3179241   5.5591818  45.5981358
  60.4482551   5.8525384  45.3263946  61.5538721   6.1432263  46.3188622
  71.1950870  14.6190977  45.6810886  70.9035679  14.9820957  46.5174347
  70.5823002  13.9057985  45.5024218  72.3946553  12.1843857  38.2013457
  73.2293444  12.6233661  38.3651017  72.5305681  11.7082510  37.3821702
  69.4438058   9.7423591  44.1490944  69.9192180   9.9351238  43.3409796
  68.5203624   9.7982777  43.9034328  56.3321565  10.9047759  33.7322023
  56.0867607  10.0010089  33.9302233  56.5017480  10.9064909  32.7901501
  64.0218275   1.7771435  43.1146778  64.5400219   2.5132462  42.7893267
  63.6673408   2.0835428  43.9493537  64.2730869  -1.8028282  38.6347675
  64.5532623  -2.4705093  39.2608101  65.0581476  -1.6099187  38.1222339
  62.0764338  17.3730711  30.1972701  61.5038305  17.9920899  29.7443173
  62.6497131  17.9230073  30.7312623  68.1439727   6.6189352  42.3819250
  69.0957150   6.7187449  42.4031474  67.9743178   5.8267620  42.8917334
  66.1654107   3.7044935  42.5678651  65.5704039   3.9849947  41.8725140
  65.8803804   4.1938836  43.3395392  65.2961597  17.6567862  31.3281283
  66.2292271  17.5913423  31.5314159  65.2084810  18.4924128  30.8695816
  67.9249614  16.9733732  28.2885231  67.8463246  16.6393596  29.1820989
  68.7459281  17.4655500  28.2876703  70.6227805   9.8395471  41.4961550
  70.5904125   8.9011472  41.6821233  71.2328429   9.9179508  40.7627374
  70.7722294   6.6306515  41.5419833  70.2561342   5.8464971  41.3549762
  71.6562242   6.3025231  41.7066352  68.4333021   0.3747530  37.5015645
  68.2357842   0.0662618  38.3858977  69.0432726   1.1009169  37.6313575
  76.4404355  10.9011478  40.6367586  77.1707744  10.6396766  41.1975290
  75.8311301  10.1640200  40.6769654  74.5219652   9.0419341  41.2342038
  73.7952816   8.9075306  40.6258529  74.1066939   9.3496169  42.0398756
  62.3449829  12.7609270  48.9989411  63.2652838  12.9387869  49.1929457
  62.3099412  11.8165316  48.8469110  51.5631994   7.9547864  37.9242685
  51.2434778   7.1013172  37.6317059  51.0165422   8.1696442  38.6800653
  55.3411901  10.6710305  41.6412192  55.5597911  11.6027413  41.6600226
  55.7537675  10.3118279  42.4266996  64.1906667   0.2556437  35.2512177
  64.7437706   0.6751891  35.9102200  64.4276754  -0.6707815  35.2935133
  60.2139767   6.2443511  51.0314941  60.1136493   7.1937868  50.9627032
  59.9961309   5.9161750  50.1591011  51.4320254  11.5750775  39.8935807
  50.7383725  11.1604728  39.3805761  52.1793245  11.6171312  39.2969226
  67.5685474   2.3656962  34.7590841  66.9884143   3.0241766  34.3768893
  67.3021407   1.5434307  34.3478259  66.0189041   1.7662020  36.9612161
  66.5188819   1.8778555  36.1526480  66.6624649   1.4623073  37.6012970
  60.0771037   9.6740650  49.8480002  59.5938118  10.4741010  50.0543891
  60.1631976   9.6848594  48.8947446  53.3456996  11.5069029  37.7701822
  53.3227684  11.6056717  36.8183705  53.6557633  12.3534180  38.0918988
  56.0044374  13.5645184  41.8848436  56.9587628  13.5329127  41.8178368
  55.8056898  13.1035808  42.6998662  56.5943756  12.1346300  44.4519234
  57.4136645  12.6290379  44.4754071  56.8680564  11.2178268  44.4236801
  66.3510352   4.5257053  33.8147189  65.4636207   4.8106703  33.5967384
  66.7664341   4.3650816  32.9674466  69.7024889   4.5503574  37.5301529
  70.4785279   5.0400026  37.8026145  68.9773023   4.9761628  37.9873398
  72.1397447   5.2631193  38.5875469  72.7341938   5.0226929  37.8768777
  72.2124031   4.5438323  39.2149005  54.3594603  19.1064804  38.9018634
  54.2249071  18.3465205  38.3356632  53.9426665  19.8305704  38.4347423
  65.4953566  14.2901727  27.9095209  66.1989416  14.4951730  28.5252865
  64.7716215  14.8578489  28.1744293  66.3251376  10.0411589  34.0297479
  66.2686578  10.4980140  33.1905112  66.8779719   9.2802273  33.8520322
  70.1356182   5.8301320  34.8547599  69.8793116   5.4297956  35.6855807
  69.5109050   6.5445114  34.7297738  74.4468520   8.5697394  37.3618890
  73.8868078   8.6390583  38.1350452  73.8412023   8.3938378  36.6418387
  57.5163729  20.0034121  39.1137077  57.3996113  20.9479553  39.0115767
  56.6956175  19.7007682  39.5022876  67.4040263  14.7284257  29.9593669
  68.2385867  14.2965455  29.7771144  67.2424606  14.5566270  30.8870564
  67.0586155  11.2316370  31.3250009  67.0034959  11.0660641  30.3838453
  66.4332211  11.9392403  31.4812198  51.8478670   6.4684434  45.1511431
  52.4937534   5.9583388  45.6398656  51.6395822   7.2053116  45.7254856
  64.3732063  13.5365282  50.6503571  65.2423222  13.7105934  50.2890206
  63.8938814  14.3559699  50.5279301  58.5418243  20.6562383  42.3293005
  59.4445490  20.6885993  42.6459500  58.3155613  19.7262834  42.3439341
  60.2971845  19.4093369  38.9903084  59.3467476  19.4095231  38.8767456
  60.6004331  18.6626104  38.4739118  56.1876161   3.6152051  49.2486445
  57.0507623   3.2588856  49.4589770  55.6141572   3.2765946  49.9361849
  76.0324538  25.2453908  40.0548846  76.6702948  25.1260655  39.3512186
  75.9145381  26.1934752  40.1136798  72.8414245  25.1981336  39.9910371
  72.5032756  25.0822400  39.1030906  73.7104013  24.7972501  39.9711377
  68.7001060  27.0516812  35.9807262  68.1365925  26.9606749  35.2123550
  68.5853455  26.2316717  36.4609754  73.3234028  26.3516187  45.9496576
  73.3122668  25.9568986  45.0777080  73.4854667  25.6182260  46.5430348
  66.2465492  28.5468004  38.8191482  67.0386784  28.2058828  38.4037782
  66.4862142  28.6562979  39.7393636  74.2800619  30.7187780  31.2921727
  73.6288599  31.3041860  30.9055740  75.0744982  31.2493975  31.3516764
  68.2056246  27.8076917  31.6908861  68.9787122  27.2605904  31.5521737
  68.5581645  28.6721166  31.9023322  70.0441289  29.1353299  44.8975760
  69.7531155  30.0398930  44.7822427  70.6798273  29.1769827  45.6119830
  70.9697496  26.5130148  41.4877120  71.5661068  26.2886170  40.7734083
  71.0272467  25.7714893  42.0902568  70.5422524  23.9669583  29.3227311
  70.7948045  23.4451104  28.5610774  69.6047083  23.8035729  29.4253995
  75.5865807  22.9705361  37.1302054  76.3728896  22.5524785  36.7792471
  75.8504511  23.8751454  37.2983703  75.7575884  28.4078212  31.8290711
  75.1221717  28.4812838  32.5411616  75.4273291  28.9971811  31.1509790
  80.9874234  22.9080595  38.0335033  81.7199406  22.3379812  38.2672862
  80.2313590  22.5202195  38.4741538  70.2618813  25.8697689  31.5251686
  70.1455071  25.1942592  32.1932770  70.3721073  25.3830063  30.7083839
  72.6050354  25.3307836  35.2298375  72.2408561  24.8038457  35.9411297
  73.4617470  24.9406305  35.0564861  78.5099654  16.6202169  42.4929641
  78.1782979  17.4897580  42.2690856  77.9145268  16.3038453  43.1723672
  72.2455841  20.3597736  30.2259724  72.4130243  21.2277972  30.5930195
  72.0553010  20.5225018  29.3021013  75.0031174  28.8214715  41.8925554
  74.7031897  29.7239754  41.7841361  74.6582233  28.5546898  42.7446707
  68.4543655  25.2728512  37.9262258  67.5294152  25.1404726  38.1339950
  68.7028069  26.0522731  38.4232201  78.4028318  21.3397255  39.5722991
  77.4945195  21.2712663  39.2781752  78.3515913  21.8169200  40.4004817
  72.2245062  22.8155393  31.2106390  72.1044687  23.2612444  32.0491871
  71.5297650  23.1640711  30.6519929  65.8152466  24.9161785  38.7606048
  65.9444848  25.1696264  39.6745459  65.1349918  25.5089493  38.4410703
  69.9851954  35.5859035  34.8596522  69.9075983  36.5366860  34.9385002
  69.3813597  35.2404908  35.5171448  72.4769183  22.7586901  47.5157889
  71.7002517  23.3180821  47.5060753  73.1159746  23.2443684  48.0372759
  80.2689964  19.5413693  41.3500865  79.6264344  19.8346227  40.7040660
  79.7644893  19.4266614  42.1554062  77.9230128  23.2876867  32.0386725
  78.8347984  23.5204253  31.8634422  77.4139775  23.8713911  31.4761803
  70.7315556  25.5672354  47.0775856  71.4730240  26.1057398  46.8010679
  70.0252541  26.1938643  47.2347407  76.2070895  27.7101494  45.6748017
  76.6154251  27.2683905  44.9302649  75.4848157  27.1354122  45.9282210
  72.5601965  22.6474101  43.0481574  73.4063161  23.0713515  43.1916223
  72.5000603  21.9907725  43.7420137  76.5299710  28.2702685  39.4300306
  75.9008572  28.4348399  38.7276374  76.1425372  28.6844295  40.2011270
  80.4088942  29.2057123  36.7844670  79.7239980  29.5856024  36.2341703
  80.4932791  29.8152450  37.5176618  75.7101411  20.3078470  44.7062748
  75.4662343  21.0620530  44.1697023  75.9861341  20.6863817  45.5409995
  77.6639874  26.8517082  43.3840013  77.8756769  27.4948842  42.7074394
  77.6169622  26.0179398  42.9161943  75.2666102  19.4634903  40.2876585
  74.4050582  19.7616156  40.5793323  75.2928537  19.6805301  39.3557618
  72.0827672  28.0077093  36.6950391  72.5466017  28.2864796  35.9055014
  71.8184470  27.1060538  36.5123482  68.9751753  27.5548575  39.6330154
  69.5453110  27.9835843  38.9947639  69.5659865  27.2731159  40.3314340
  71.0196558  24.1300245  33.5039956  71.7220601  24.5821289  33.9713883
  70.6877186  23.4884064  34.1319849  69.4676919  22.7212002  47.8791166
  68.8375580  23.4028283  48.1126562  69.3613007  22.6095084  46.9344304
  64.7621892  22.3883798  38.8057090  63.9720946  22.6441327  38.3297200
  65.2533139  23.2032136  38.9109130  78.7785701  29.7289037  41.5562371
  79.6003145  29.3269225  41.2745052  78.7748104  29.6257271  42.5078486
  66.7136637  22.7528377  35.7640566  65.9167801  22.8647072  36.2824062
  66.4862229  23.0915030  34.8981457  72.5442305  29.2773081  43.7123081
  72.6086737  29.7393488  44.5481253  71.8353229  28.6470446  43.8405391
  63.0459595  22.6414289  41.2372081  63.2967633  23.5261299  41.5029657
  63.5819143  22.4618890  40.4647172  86.8691695  26.0727786  37.9047342
  86.1155403  25.5035184  37.7491347  87.0039236  26.0390450  38.8517977
  72.2590323  30.9441188  33.5802061  72.1235997  31.7892724  34.0086909
  72.8000135  31.1460466  32.8167995  68.7457662  17.0232768  50.2416417
  68.3524608  16.4698967  50.9164061  69.5623803  17.3343346  50.6322934
  65.7119720  28.4616626  34.1529987  66.2244241  29.2559876  34.3035551
  66.3642433  27.7642917  34.0863588  67.5214605  31.5782382  36.2352740
  67.6981233  32.5000347  36.0473724  68.3171438  31.2640802  36.6647119
  71.6625623  18.4390647  47.8336673  72.4035337  19.0397800  47.7541136
  71.8943546  17.6968285  47.2754716  66.8066961  23.6247014  46.1114903
  66.6920476  22.7232272  46.4122002  65.9511479  23.8710711  45.7599719
  73.8858799  31.5664755  47.7102404  73.4422653  30.7801133  47.3923308
  74.5476013  31.7543905  47.0446294  68.6445920  33.0960556  42.2363082
  69.1953345  32.9677620  41.4640076  67.8057396  33.3955445  41.8857975
  75.9840037  31.8467555  45.7383805  75.9658512  32.6676436  45.2464074
  76.9059957  31.7221630  45.9633946  72.4413091  29.3611684  46.5807313
  72.9741428  28.5999972  46.3506621  71.9127172  29.0685336  47.3231468
  75.6082786  14.4671750  42.1100955  75.2647056  15.3573392  42.0340065
  75.9761749  14.2773408  41.2470540  63.6768637  26.7905280  34.9289557
  64.5143859  27.2002289  34.7123265  63.8546904  25.8504723  34.8989751
  75.5733069  24.4580361  30.6173390  75.0579692  25.2284966  30.8561777
  75.3010377  23.7845497  31.2406451  73.1580180  19.3030062  35.6758628
  72.3021776  18.9136912  35.4964267  73.5707132  19.3822023  34.8158414
  74.6879327  16.8376405  40.0750188  74.1844122  16.8006540  39.2617993
  74.9809933  17.7469148  40.1346845  70.9322212  16.9215135  39.0816370
  71.7975209  16.7257944  38.7222259  70.9999721  16.6925487  40.0085727
  80.5467343  27.2112716  32.5526563  79.7696786  26.8723875  32.1081726
  81.2258824  27.2165339  31.8781529  75.3619372  22.3307453  32.4433171
  75.0569508  22.6453602  33.2943314  76.3149814  22.4088873  32.4860504
  73.8065804  28.4897677  34.0926125  73.2787165  27.7550436  33.7799363
  73.3053307  29.2672353  33.8466094  78.7858650  26.6846697  39.2093171
  78.1282324  27.3745958  39.2973300  79.5899049  27.0743129  39.5527158
  68.5384531  19.1517343  36.4532737  69.1128283  18.9292524  35.7205930
  69.1255514  19.2206037  37.2061338  77.5964109  25.0391070  37.2597113
  78.1095990  25.6721062  37.7618823  78.2465333  24.4392265  36.8940473
  68.8654119  21.1821804  30.4728622  68.0291431  21.5196490  30.7937897
  68.7258888  21.0470784  29.5355759  70.8407199  16.0258592  35.1807806
  70.1871612  15.7107609  34.5564421  70.7987673  15.4034332  35.9067629
  71.9518404  26.3077887  27.0961098  71.0445466  26.0767140  27.2952247
  72.4489436  25.5115506  27.2835080  74.8586483  35.0175394  30.0157784
  74.1848182  35.3207091  30.6242742  75.2452305  35.8204474  29.6663241
  74.0744940  22.5140525  39.5055454  73.1567501  22.7355472  39.3477142
  74.4905083  22.5886836  38.6467161  74.8579987  23.9131941  34.6358134
  75.6051806  24.4253338  34.3265256  75.1271577  23.5915994  35.4962528
  73.1306637  26.4090482  31.6185088  72.2217857  26.1249514  31.7157558
  73.1601721  26.8289560  30.7588395  78.3625905  30.0197071  35.3876256
  77.9088232  29.1787981  35.4441446  77.7319872  30.6558470  35.7251036
  77.3058824  20.9489057  36.6176923  76.5681581  20.4366443  36.9487166
  77.5585598  20.5089439  35.8060200  76.8058844  31.8573568  36.3226074
  77.0981819  32.4178625  35.6038440  77.3157465  32.1502129  37.0779233
  77.4070452  13.7265309  37.2118693  77.7129329  12.8662673  36.9244608
  78.1323057  14.3182929  37.0117686  63.6994808  24.1295996  35.6000291
  63.5019208  23.5365356  34.8751357  63.1441472  23.8248206  36.3176229
  71.6791532  24.0219102  37.7194884  71.7340141  23.0692939  37.6437360
  70.8682734  24.1778541  38.2036182  72.8282725  27.9499225  28.9573167
  72.3902155  27.2335084  28.4978804  73.5693166  28.1775340  28.3958258
  69.6183891  22.6396162  35.4785263  68.8051757  22.9390333  35.8850455
  70.1142886  22.2451851  36.1959745  71.7692469  32.6353919  37.4119527
  71.7268648  32.8614765  36.4828059  72.6855168  32.4017294  37.5605328
  75.2158103  23.1037986  44.3100156  75.5707491  23.3309460  45.1694622
  75.8630234  23.4356363  43.6877412  80.9455840  26.2256422  35.0149485
  80.8073739  26.4158018  34.0870675  80.5892059  26.9875805  35.4717537
  69.1097966  20.2114518  41.0946497  69.7497346  20.0703277  40.3969461
  68.2775497  19.9249031  40.7185099  80.9725220  28.2932949  40.0260757
  81.4061726  28.2008238  40.8743811  81.6856800  28.2690450  39.3880773
  69.8858270  29.5116948  37.2081490  70.6798869  29.0167268  37.0064065
  69.1749963  28.9834811  36.8449195  74.7053115  31.8935043  41.5593858
  74.7590137  32.4625980  42.3271573  73.8367896  32.0636928  41.1947895
  66.1941034  23.6560030  33.2841243  65.2638622  23.5944485  33.5011205
  66.2898506  23.1335982  32.4877884  66.1126583  20.1814842  35.8719484
  66.3733400  21.0960176  35.7628645  66.9343755  19.7139285  36.0216097
  67.5851508  21.5952600  43.0418309  68.2574561  21.3869962  42.3930958
  66.7581294  21.3974686  42.6023541  81.8340769  28.3356650  42.5593642
  82.0276659  29.2402461  42.8052917  81.7341387  27.8764069  43.3932227
  73.4877080  18.2214541  45.0583970  72.8404995  18.9204490  44.9648446
  74.2578095  18.6550685  45.4260218  76.8955878  28.4863393  48.1334523
  76.7441384  28.2573944  47.2164607  76.8860557  29.4433994  48.1465868
  73.6641214  26.0595305  43.1180789  74.5933274  26.2106465  42.9449757
  73.2432244  26.1479326  42.2629436  72.4629546  30.0845970  40.8879327
  72.3240632  29.7164754  41.7605265  71.6744142  30.5993609  40.7163285
  73.0577698  35.1855066  32.2304864  73.2329454  34.7143110  33.0450486
  72.3710486  35.8120833  32.4586124  74.0134761  29.4627573  38.2768165
  73.6784594  29.4228343  39.1725815  73.5138707  28.7972289  37.8038575
  67.9879005  24.8695203  43.8020746  67.8498803  24.1375441  44.4032285
  68.8983929  24.7804103  43.5204934  76.9493953  26.8083607  28.5505224
  76.3323124  26.0830435  28.4538277  76.4810441  27.5692967  28.2072299
  70.6161306  24.5815162  43.2904426  71.3260924  23.9408354  43.2491044
  70.5730614  24.8328057  44.2130606  78.6048085  31.5182515  46.2111005
  78.5460631  30.8341735  45.5441588  79.0067603  32.2601505  45.7591631
  69.3290240  21.5680380  45.1100065  68.7927597  21.1171118  45.7621661
  68.7406948  21.7026289  44.3670529  67.6238783  38.3344429  39.0044724
  67.8635382  38.9662953  39.6823742  66.7807980  37.9832469  39.2910083
  68.7392499  21.0269031  27.6726529  67.8621965  20.9057832  27.3088775
  69.2150252  20.2355110  27.4205417  78.6065492  29.4822099  44.4424984
  77.7192271  29.1448021  44.5651383  79.1764043  28.7505130  44.6793750
  60.2594639  25.8146191  37.7668036  60.9465679  25.5007921  37.1789051
  60.1042768  26.7187556  37.4935287  65.0629361  20.7036388  42.1953060
  64.9787550  20.0962057  41.4603470  64.2412068  21.1945406  42.1962556
  72.1366645  34.1423552  41.4086228  72.0636817  34.9478523  41.9205532
  71.6944038  34.3415517  40.5834249  71.9256425  33.3795322  34.9189049
  71.1423947  33.9217002  35.0127274  72.6249170  33.8969301  35.3183290
  75.2353075  19.1889951  37.5623255  75.7321775  18.4359913  37.2424325
  74.4640056  19.2254268  36.9966464  83.0882832  24.8930317  39.2041546
  83.0772709  25.7755032  38.8335479  82.2200212  24.5401867  39.0096083
  74.5965329  34.0410386  43.5644386  75.3093301  34.6757850  43.4920288
  74.1055357  34.1374252  42.7484388  76.3182856  27.9461638  35.1361678
  75.3839134  28.0663101  34.9666382  76.4959524  27.0434105  34.8721688
  71.8188044  21.3307334  37.2894939  71.4485831  20.7778374  37.9775845
  72.3147136  20.7265468  36.7369939  79.7055407  23.7878958  35.6711712
  80.1715859  24.6206949  35.5972015  80.1562908  23.3223939  36.3756971
  69.6477242  31.7904829  44.3849957  70.3486702  32.4241312  44.5379351
  69.1772357  32.1319561  43.6245596  77.7731638  30.1322779  32.6697864
  78.0491482  30.0179373  33.5791738  76.9036137  29.7340264  32.6310037
  77.6772070  16.1559545  39.7102614  76.7635150  16.3863771  39.8784820
  78.1065171  16.2397989  40.5616646  77.4478528  24.3449437  42.2102508
  76.7949978  24.5925344  41.5554960  77.8258908  23.5313575  41.8764985
  74.4085702  34.3809130  36.3130678  74.5908097  33.5630786  36.7758430
  75.2318688  34.5976822  35.8755568  74.7427868  33.3077315  33.5745726
  75.2715634  32.7969769  32.9615888  75.0056087  32.9919845  34.4391259
  73.4966101  25.0869248  48.6968545  72.8206738  24.9863377  49.3670920
  74.3193735  24.9308461  49.1604542  65.2444960  31.3241184  41.3181060
  65.8298397  30.5784872  41.4508964  65.0469799  31.6345141  42.2017724
  68.0983616  34.3592432  36.3343502  67.4293991  34.8438559  35.8507542
  67.9596485  34.6061652  37.2486881  59.8362615  23.8946784  40.0385503
  59.8746715  23.3610375  40.8322621  59.3302908  23.3681990  39.4196480
  72.2388884  36.3936175  42.9326161  72.7907192  36.5567797  43.6975246
  72.5795078  36.9840613  42.2606185  67.2153377  18.7411325  43.5348045
  67.2794704  19.6026156  43.1225443  67.1520498  18.1285327  42.8020404
  66.6905650  20.8134457  47.1821080  67.3177689  20.4311535  47.7958604
  65.8333569  20.5948659  47.5476772  77.0899758  31.2197433  48.7874815
  77.6339662  31.8327391  48.2929770  76.5086603  31.7777011  49.3041828
  63.4671193  22.6210887  33.1139434  63.7624634  21.7121565  33.0606488
  62.5659228  22.5998626  32.7920437  75.3757271  34.3418151  39.9189843
  75.2508411  33.5407890  39.4100788  76.0336363  34.8364344  39.4303813
  66.9965440  20.6966883  39.0966983  66.2752025  21.3102851  38.9574456
  67.7858695  21.2324648  39.0183629  77.4392180  32.1427171  41.5469393
  76.4922515  32.0232522  41.4747720  77.7874953  31.2549669  41.6295654
  69.7991753  18.0321310  45.3707635  70.3226155  18.2783606  46.1333944
  69.5804086  18.8641344  44.9510772  65.1959034  20.3024984  33.2378760
  64.8671740  19.4222363  33.0553865  65.5498405  20.2472653  34.1255149
  74.4438613  31.9379887  37.7473745  74.2963576  31.0096594  37.9281315
  75.2692107  31.9599978  37.2630820  68.3100857  20.5897954  33.6054237
  68.6496930  21.1183875  32.8832846  68.7572978  20.9278360  34.3812804
  78.0472735  32.7608446  38.8338618  78.9719282  32.5551307  38.6963069
  77.8788038  32.5124847  39.7427959  71.0044298  18.9735005  43.0557305
  70.6641119  18.1742818  43.4577985  70.2983305  19.2736716  42.4834138
  71.6560770  16.0584317  41.5084628  72.4786839  15.5844795  41.3863519
  71.8998834  16.8374801  42.0083315  70.2969005  19.0872576  31.8047530
  71.0177367  19.4653828  31.3011247  69.6734309  19.8061452  31.9082508
  74.4400127  19.7917725  32.7405862  74.6563742  20.6742362  32.4394690
  73.9594195  19.4003938  32.0111504  69.1799349  22.7503438  39.3176607
  69.0343930  23.0643741  40.2100888  68.7024552  23.3688338  38.7647506
  71.0395732  19.7405986  39.3657496  71.0257300  18.8447079  39.0289794
  71.7568160  19.7476649  39.9995783  72.8921862  20.1743326  41.4110624
  72.6339640  21.0960397  41.4094954  72.3606903  19.7773760  42.1011088
  77.8368051  33.2794113  34.1900709  78.0104929  32.7140536  33.4374562
  78.3296942  34.0795008  34.0080199  63.6545011  25.2908782  42.2564268
  63.1098479  26.0668590  42.3884542  64.5324361  25.6379587  42.0983390
  70.4432628  18.6220366  34.6345067  70.5648539  17.6937012  34.8335954
  70.1534670  18.6359052  33.7223382  73.3123818  16.3075276  37.7711786
  73.3345515  16.3714610  36.8163766  73.7291877  15.4679785  37.9652293
  83.6907442  26.0430536  35.8091009  84.1338588  25.2937861  35.4110132
  82.8133953  26.0340672  35.4264741  78.8243224  32.5960877  31.2897608
  79.5194128  33.2167570  31.5084922  79.1666374  31.7456229  31.5649985
  64.4411033  24.4178678  45.1494425  63.6992769  24.5661314  45.7359055
  64.1203777  24.6786944  44.2861174  80.7234647  30.0460583  32.8184938
  81.2485971  30.3847856  32.0934258  80.6356999  29.1107598  32.6348073
  72.3854695  33.9594657  44.9474815  72.6941822  33.7143803  45.8197515
  73.1830178  34.1641295  44.4593685  72.4075308  36.1132566  37.1780192
  71.9680298  35.6208945  37.8713048  73.1583424  35.5705534  36.9372267
  64.8867647  32.3044107  37.1804820  65.7125666  32.0047879  36.8003463
  64.5361699  31.5351730  37.6294608  69.8549180  31.6570575  39.2502493
  69.2329189  30.9941280  38.9504721  70.5254047  31.6831707  38.5676141
  63.0876252  30.2230434  38.1393753  62.2508160  29.7952608  37.9577754
  63.0599897  30.4162877  39.0764544  69.9273707  20.1352363  48.8434999
  69.9761863  21.0114486  48.4612769  70.4696221  19.5929756  48.2706642
  80.4128553  30.6793487  48.1236136  79.6224097  30.6617625  47.5840636
  80.1761907  31.2181780  48.8785173  80.5326428  27.5285953  45.4368865
  80.5824433  27.3635960  46.3784388  80.4240351  26.6613212  45.0466746
  69.4162687  30.2074499  32.7260954  69.5650807  30.8909963  32.0727626
  70.2229130  30.1879589  33.2410409  77.8230190  23.5116881  46.7528172
  78.7240053  23.3723346  46.4612169  77.8978165  23.6771336  47.6926349
  72.1572996  20.8883736  45.5981358  71.2876305  21.1817302  45.3263946
  72.3932476  21.4724181  46.3188622  82.0344625  29.9482895  45.6810886
  81.7429433  30.3112875  46.5174347  81.4216756  29.2349903  45.5024218
  83.2340307  27.5135774  38.2013457  84.0687198  27.9525578  38.3651017
  83.3699436  27.0374428  37.3821702  80.2831813  25.0715509  44.1490944
  80.7585935  25.2643155  43.3409796  79.3597378  25.1274695  43.9034328
  67.1715320  26.2339676  33.7322023  66.9261362  25.3302006  33.9302233
  67.3411234  26.2356827  32.7901501  74.8612029  17.1063353  43.1146778
  75.3793973  17.8424380  42.7893267  74.5067162  17.4127346  43.9493537
  66.4410967  21.9668034  31.2308184  65.7480212  22.0412389  30.5748220
  66.1962719  21.2028378  31.7529701  75.1124624  13.5263635  38.6347675
  75.3926377  12.8586824  39.2608101  75.8975231  13.7192731  38.1222339
  72.9158092  32.7022629  30.1972701  72.3432059  33.3212816  29.7443173
  73.4890886  33.2521991  30.7312623  78.9833482  21.9481269  42.3819250
  79.9350905  22.0479367  42.4031474  78.8136932  21.1559538  42.8917334
  77.0047861  19.0336852  42.5678651  76.4097794  19.3141865  41.8725140
  76.7197558  19.5230753  43.3395392  76.1355352  32.9859779  31.3281283
  77.0686025  32.9205341  31.5314159  76.0478565  33.8216046  30.8695816
  78.7643369  32.3025650  28.2885231  78.6857000  31.9685513  29.1820989
  79.5853035  32.7947418  28.2876703  81.4621560  25.1687389  41.4961550
  81.4297880  24.2303390  41.6821233  82.0722183  25.2471426  40.7627374
  73.3004891  24.0383442  27.5388754  74.2463995  23.9089650  27.6077172
  72.9219136  23.2998104  28.0158182  81.6116048  21.9598432  41.5419833
  81.0955097  21.1756889  41.3549762  82.4955997  21.6317149  41.7066352
  79.2726775  15.7039448  37.5015645  79.0751596  15.3954536  38.3858977
  79.8826481  16.4301087  37.6313575  87.2798110  26.2303396  40.6367586
  88.0101498  25.9688684  41.1975290  86.6705055  25.4932118  40.6769654
  85.3613407  24.3711258  41.2342038  84.6346570  24.2367223  40.6258529
  84.9460694  24.6788087  42.0398756  73.1843583  28.0901188  48.9989411
  74.1046593  28.2679787  49.1929457  73.1493166  27.1457233  48.8469110
  71.4847808  21.9633418  27.4743639  70.5779263  21.6666531  27.5506352
  71.7623789  21.6663236  26.6077925  62.4025748  23.2839782  37.9242685
  62.0828532  22.4305090  37.6317059  61.8559176  23.4988360  38.6800653
  66.1805656  26.0002223  41.6412192  66.3991665  26.9319330  41.6600226
  66.5931430  25.6410197  42.4266996  73.1009873  16.5070308  33.6287880
  72.2910602  16.1617393  34.0043126  73.7894290  16.1977852  34.2175492
  75.0300422  15.5848355  35.2512177  75.5831460  16.0043808  35.9102200
  75.2670508  14.6584103  35.2935133  71.0533521  21.5735428  51.0314941
  70.9530248  22.5229785  50.9627032  70.8355063  21.2453667  50.1591011
  70.2546592  18.8220354  27.6155618  71.1165756  19.1475252  27.8751435
  70.4396937  18.0351849  27.1028684  62.2714008  26.9042693  39.8935807
  61.5777480  26.4896646  39.3805761  63.0186999  26.9463230  39.2969226
  78.4079229  17.6948880  34.7590841  77.8277898  18.3533684  34.3768893
  78.1415162  16.8726225  34.3478259  76.8582795  17.0953938  36.9612161
  77.3582574  17.2070472  36.1526480  77.5018403  16.7914991  37.6012970
  70.9164791  25.0032567  49.8480002  70.4331873  25.8032927  50.0543891
  71.0025730  25.0140512  48.8947446  64.1850751  26.8360947  37.7701822
  64.1621439  26.9348634  36.8183705  64.4951387  27.6826098  38.0918988
  66.8438129  28.8937102  41.8848436  67.7981382  28.8621044  41.8178368
  66.6450652  28.4327726  42.6998662  67.4337511  27.4638218  44.4519234
  68.2530400  27.9582297  44.4754071  67.7074318  26.5470186  44.4236801
  77.1904107  19.8548970  33.8147189  76.3029962  20.1398621  33.5967384
  77.6058096  19.6942734  32.9674466  80.5418643  19.8795491  37.5301529
  81.3179033  20.3691944  37.8026145  79.8166777  20.3053546  37.9873398
  82.9791202  20.5923111  38.5875469  83.5735692  20.3518847  37.8768777
  83.0517785  19.8730241  39.2149005  65.1988357  34.4356721  38.9018634
  65.0642825  33.6757122  38.3356632  64.7820420  35.1597621  38.4347423
  76.3347320  29.6193645  27.9095209  77.0383170  29.8243648  28.5252865
  75.6109969  30.1870407  28.1744293  77.1645131  25.3703506  34.0297479
  77.1080332  25.8272058  33.1905112  77.7173473  24.6094191  33.8520322
  80.9749937  21.1593238  34.8547599  80.7186871  20.7589874  35.6855807
  80.3502805  21.8737032  34.7297738  85.2862274  23.8989311  37.3618890
  84.7261832  23.9682501  38.1350452  84.6805778  23.7230296  36.6418387
  68.3557483  35.3326039  39.1137077  68.2389867  36.2771471  39.0115767
  67.5349929  35.0299600  39.5022876  78.2434018  30.0576174  29.9593669
  79.0779622  29.6257373  29.7771144  78.0818361  29.8858188  30.8870564
  77.8979910  26.5608288  31.3250009  77.8428714  26.3952559  30.3838453
  77.2725965  27.2684320  31.4812198  62.6872425  21.7976352  45.1511431
  63.3331289  21.2875306  45.6398656  62.4789576  22.5345034  45.7254856
  75.2125817  28.8657199  50.6503571  76.0816977  29.0397852  50.2890206
  74.7332569  29.6851616  50.5279301  71.2076035  16.0616397  30.9035327
  71.1954705  17.0058236  31.0603598  72.0999457  15.8786542  30.6094788
  69.3811997  35.9854300  42.3293005  70.2839244  36.0177911  42.6459500
  69.1549367  35.0554751  42.3439341  71.1365599  34.7385287  38.9903084
  70.1861230  34.7387149  38.8767456  71.4398086  33.9918022  38.4739118
  75.0228155  12.6559173  35.1581264  74.2560551  12.1017660  35.3037946
  75.4338860  12.7281042  36.0195415  67.0269916  18.9443969  49.2486445
  67.8901377  18.5880774  49.4589770  66.4535327  18.6057864  49.9361849
  86.8718293  40.5745825  40.0548846  87.5096703  40.4552573  39.3512186
  86.7539136  41.5226669  40.1136798  83.6807999  40.5273253  39.9910371
  83.3426511  40.4114318  39.1030906  84.5497767  40.1264419  39.9711377
  79.5394815  42.3808730  35.9807262  78.9759680  42.2898667  35.2123550
  79.4247210  41.5608634  36.4609754  84.1627782  41.6808105  45.9496576
  84.1516423  41.2860903  45.0777080  84.3248422  40.9474178  46.5430348
  77.0859247  43.8759921  38.8191482  77.8780539  43.5350746  38.4037782
  77.3255897  43.9854896  39.7393636  85.1194374  46.0479698  31.2921727
  84.4682353  46.6333778  30.9055740  85.9138736  46.5785892  31.3516764
  79.0450001  43.1368835  31.6908861  79.8180877  42.5897822  31.5521737
  79.3975400  44.0013084  31.9023322  80.8835043  44.4645217  44.8975760
  80.5924909  45.3690848  44.7822427  81.5192028  44.5061745  45.6119830
  81.8091250  41.8422065  41.4877120  82.4054822  41.6178088  40.7734083
  81.8666222  41.1006811  42.0902568  81.3816279  39.2961501  29.3227311
  81.6341799  38.7743022  28.5610774  80.4440838  39.1327646  29.4253995
  86.4259561  38.2997279  37.1302054  87.2122651  37.8816702  36.7792471
  86.6898266  39.2043371  37.2983703  86.5969639  43.7370129  31.8290711
  85.9615472  43.8104756  32.5411616  86.2667045  44.3263728  31.1509790
  91.8267988  38.2372512  38.0335033  92.5593160  37.6671729  38.2672862
  91.0707344  37.8494113  38.4741538  81.1012567  41.1989607  31.5251686
  80.9848825  40.5234510  32.1932770  81.2114827  40.7121981  30.7083839
  83.4444108  40.6599754  35.2298375  83.0802315  40.1330375  35.9411297
  84.3011224  40.2698223  35.0564861  89.3493409  31.9494086  42.4929641
  89.0176734  32.8189497  42.2690856  88.7539022  31.6330370  43.1723672
  83.0849595  35.6889654  30.2259724  83.2523998  36.5569890  30.5930195
  82.8946764  35.8516935  29.3021013  85.8424928  44.1506632  41.8925554
  85.5425651  45.0531671  41.7841361  85.4975988  43.8838816  42.7446707
  79.2937410  40.6020429  37.9262258  78.3687906  40.4696643  38.1339950
  79.5421823  41.3814649  38.4232201  89.2422072  36.6689173  39.5722991
  88.3338949  36.6004581  39.2781752  89.1909668  37.1461118  40.4004817
  83.0638816  38.1447311  31.2106390  82.9438441  38.5904362  32.0491871
  82.3691404  38.4932629  30.6519929  76.6546221  40.2453703  38.7606048
  76.7838602  40.4988182  39.6745459  75.9743672  40.8381411  38.4410703
  80.8245708  50.9150953  34.8596522  80.7469738  51.8658778  34.9385002
  80.2207352  50.5696825  35.5171448  83.3162938  38.0878818  47.5157889
  82.5396272  38.6472738  47.5060753  83.9553501  38.5735601  48.0372759
  91.1083719  34.8705611  41.3500865  90.4658099  35.1638144  40.7040660
  90.6038647  34.7558531  42.1554062  88.7623882  38.6168784  32.0386725
  89.6741738  38.8496171  31.8634422  88.2533529  39.2005828  31.4761803
  81.5709310  40.8964272  47.0775856  82.3123995  41.4349316  46.8010679
  80.8646296  41.5230560  47.2347407  87.0464650  43.0393412  45.6748017
  87.4548006  42.5975823  44.9302649  86.3241911  42.4646040  45.9282210
  83.3995720  37.9766019  43.0481574  84.2456915  38.4005432  43.1916223
  83.3394358  37.3199643  43.7420137  87.3693465  43.5994603  39.4300306
  86.7402327  43.7640317  38.7276374  86.9819127  44.0136212  40.2011270
  91.2482696  44.5349041  36.7844670  90.5633735  44.9147942  36.2341703
  91.3326546  45.1444367  37.5176618  86.5495165  35.6370387  44.7062748
  86.3056097  36.3912448  44.1697023  86.8255096  36.0155735  45.5409995
  88.5033628  42.1809000  43.3840013  88.7150523  42.8240759  42.7074394
  88.4563376  41.3471316  42.9161943  86.1059857  34.7926820  40.2876585
  85.2444336  35.0908074  40.5793323  86.1322292  35.0097219  39.3557618
  82.9221426  43.3369011  36.6950391  83.3859772  43.6156714  35.9055014
  82.6578224  42.4352455  36.5123482  79.8145507  42.8840492  39.6330154
  80.3846865  43.3127761  38.9947639  80.4053619  42.6023077  40.3314340
  81.8590312  39.4592163  33.5039956  82.5614356  39.9113207  33.9713883
  81.5270941  38.8175982  34.1319849  80.3070674  38.0503920  47.8791166
  79.6769335  38.7320201  48.1126562  80.2006762  37.9387001  46.9344304
  75.6015646  37.7175716  38.8057090  74.8114700  37.9733244  38.3297200
  76.0926894  38.5324054  38.9109130  89.6179456  45.0580955  41.5562371
  90.4396900  44.6561142  41.2745052  89.6141859  44.9549189  42.5078486
  77.5530392  38.0820295  35.7640566  76.7561555  38.1938989  36.2824062
  77.3255984  38.4206947  34.8981457  83.3836059  44.6064998  43.7123081
  83.4480492  45.0685406  44.5481253  82.6746983  43.9762363  43.8405391
  73.8853349  37.9706206  41.2372081  74.1361388  38.8553216  41.5029657
  74.4212898  37.7910808  40.4647172  97.7085449  41.4019703  37.9047342
  96.9549157  40.8327102  37.7491347  97.8432990  41.3682368  38.8517977
  83.0984077  46.2733106  33.5802061  82.9629752  47.1184642  34.0086909
  83.6393890  46.4752383  32.8167995  79.5851417  32.3524686  50.2416417
  79.1918362  31.7990884  50.9164061  80.4017557  32.6635264  50.6322934
  76.5513474  43.7908544  34.1529987  77.0637995  44.5851794  34.3035551
  77.2036187  43.0934834  34.0863588  78.3608359  46.9074300  36.2352740
  78.5374987  47.8292265  36.0473724  79.1565193  46.5932719  36.6647119
  82.5019378  33.7682565  47.8336673  83.2429091  34.3689718  47.7541136
  82.7337301  33.0260203  47.2754716  77.6460716  38.9538932  46.1114903
  77.5314231  38.0524189  46.4122002  76.7905233  39.2002629  45.7599719
  84.7252553  46.8956672  47.7102404  84.2816408  46.1093051  47.3923308
  85.3869767  47.0835823  47.0446294  79.4839675  48.4252474  42.2363082
  80.0347100  48.2969537  41.4640076  78.6451151  48.7247363  41.8857975
  86.8233792  47.1759472  45.7383805  86.8052267  47.9968353  45.2464074
  87.7453712  47.0513547  45.9633946  83.2806846  44.6903602  46.5807313
  83.8135182  43.9291890  46.3506621  82.7520927  44.3977254  47.3231468
  86.4476541  29.7963668  42.1100955  86.1040810  30.6865309  42.0340065
  86.8155503  29.6065325  41.2470540  74.5162391  42.1197198  34.9289557
  75.3537613  42.5294206  34.7123265  74.6940659  41.1796640  34.8989751
  86.4126823  39.7872279  30.6173390  85.8973447  40.5576883  30.8561777
  86.1404132  39.1137415  31.2406451  83.9973934  34.6321980  35.6758628
  83.1415531  34.2428830  35.4964267  84.4100886  34.7113940  34.8158414
  85.5273081  32.1668323  40.0750188  85.0237877  32.1298458  39.2617993
  85.8203688  33.0761066  40.1346845  81.7715967  32.2507053  39.0816370
  82.6368964  32.0549861  38.7222259  81.8393476  32.0217404  40.0085727
  91.3861097  42.5404633  32.5526563  90.6090540  42.2015793  32.1081726
  92.0652578  42.5457257  31.8781529  86.2013127  37.6599371  32.4433171
  85.8963262  37.9745520  33.2943314  87.1543569  37.7380791  32.4860504
  84.6459558  43.8189594  34.0926125  84.1180920  43.0842354  33.7799363
  84.1447061  44.5964271  33.8466094  89.6252404  42.0138615  39.2093171
  88.9676079  42.7037876  39.2973300  90.4292804  42.4035047  39.5527158
  79.3778286  34.4809260  36.4532737  79.9522038  34.2584442  35.7205930
  79.9649268  34.5497955  37.2061338  88.4357863  40.3682987  37.2597113
  88.9489745  41.0012979  37.7618823  89.0859087  39.7684183  36.8940473
  79.7047873  36.5113721  30.4728622  78.8685185  36.8488408  30.7937897
  79.5652643  36.3762701  29.5355759  81.6800954  31.3550509  35.1807806
  81.0265366  31.0399527  34.5564421  81.6381428  30.7326250  35.9067629
  82.7912159  41.6369804  27.0961098  81.8839220  41.4059058  27.2952247
  83.2883191  40.8407424  27.2835080  85.6980237  50.3467312  30.0157784
  85.0241936  50.6499008  30.6242742  86.0846059  51.1496392  29.6663241
  84.9138694  37.8432443  39.5055454  83.9961255  38.0647390  39.3477142
  85.3298838  37.9178753  38.6467161  85.6973742  39.2423859  34.6358134
  86.4445561  39.7545256  34.3265256  85.9665331  38.9207911  35.4962528
  83.9700392  41.7382399  31.6185088  83.0611611  41.4541432  31.7157558
  83.9995476  42.1581478  30.7588395  89.2019659  45.3488989  35.3876256
  88.7481987  44.5079899  35.4441446  88.5713626  45.9850387  35.7251036
  88.1452579  36.2780975  36.6176923  87.4075336  35.7658361  36.9487166
  88.3979352  35.8381356  35.8060200  87.6452599  47.1865486  36.3226074
  87.9375573  47.7470543  35.6038440  88.1551219  47.4794047  37.0779233
  88.2464206  29.0557227  37.2118693  88.5523083  28.1954590  36.9244608
  88.9716811  29.6474847  37.0117686  74.5388562  39.4587913  35.6000291
  74.3412962  38.8657274  34.8751357  73.9835226  39.1540124  36.3176229
  82.5185286  39.3511020  37.7194884  82.5733896  38.3984856  37.6437360
  81.7076488  39.5070459  38.2036182  83.6676480  43.2791143  28.9573167
  83.2295910  42.5627002  28.4978804  84.4086921  43.5067258  28.3958258
  80.4577646  37.9688080  35.4785263  79.6445511  38.2682250  35.8850455
  80.9536640  37.5743768  36.1959745  82.6086224  47.9645837  37.4119527
  82.5662403  48.1906683  36.4828059  83.5248923  47.7309211  37.5605328
  86.0551858  38.4329904  44.3100156  86.4101245  38.6601377  45.1694622
  86.7023989  38.7648281  43.6877412  91.7849595  41.5548340  35.0149485
  91.6467493  41.7449936  34.0870675  91.4285813  42.3167723  35.4717537
  79.9491721  35.5406435  41.0946497  80.5891100  35.3995194  40.3969461
  79.1169251  35.2540949  40.7185099  91.8118974  43.6224867  40.0260757
  92.2455481  43.5300156  40.8743811  92.5250555  43.5982367  39.3880773
  80.7252025  44.8408866  37.2081490  81.5192623  44.3459186  37.0064065
  80.0143717  44.3126729  36.8449195  85.5446869  47.2226961  41.5593858
  85.5983891  47.7917897  42.3271573  84.6761650  47.3928846  41.1947895
  77.0334788  38.9851947  33.2841243  76.1032376  38.9236403  33.5011205
  77.1292260  38.4627900  32.4877884  76.9520337  35.5106760  35.8719484
  77.2127154  36.4252093  35.7628645  77.7737509  35.0431203  36.0216097
  78.4245262  36.9244517  43.0418309  79.0968316  36.7161879  42.3930958
  77.5975049  36.7266603  42.6023541  92.6734524  43.6648568  42.5593642
  92.8670414  44.5694378  42.8052917  92.5735142  43.2055987  43.3932227
  84.3270834  33.5506458  45.0583970  83.6798750  34.2496408  44.9648446
  85.0971850  33.9842602  45.4260218  87.7349632  43.8155310  48.1334523
  87.5835139  43.5865862  47.2164607  87.7254312  44.7725912  48.1465868
  84.5034969  41.3887223  43.1180789  85.4327029  41.5398383  42.9449757
  84.0825999  41.4771244  42.2629436  83.3023301  45.4137888  40.8879327
  83.1634386  45.0456672  41.7605265  82.5137897  45.9285527  40.7163285
  83.8971453  50.5146984  32.2304864  84.0723208  50.0435027  33.0450486
  83.2104241  51.1412750  32.4586124  84.8528516  44.7919490  38.2768165
  84.5178348  44.7520260  39.1725815  84.3532461  44.1264206  37.8038575
  78.8272760  40.1987120  43.8020746  78.6892558  39.4667359  44.4032285
  79.7377683  40.1096020  43.5204934  87.7887707  42.1375525  28.5505224
  87.1716878  41.4122353  28.4538277  87.3204196  42.8984885  28.2072299
  81.4555060  39.9107080  43.2904426  82.1654679  39.2700272  43.2491044
  81.4124369  40.1619974  44.2130606  89.4441839  46.8474433  46.2111005
  89.3854385  46.1633653  45.5441588  89.8461357  47.5893423  45.7591631
  80.1683994  36.8972298  45.1100065  79.6321351  36.4463036  45.7621661
  79.5800703  37.0318206  44.3670529  78.4632538  53.6636347  39.0044724
  78.7029136  54.2954871  39.6823742  77.6201734  53.3124387  39.2910083
  79.5786253  36.3560949  27.6726529  78.7015720  36.2349750  27.3088775
  80.0544006  35.5647027  27.4205417  89.4459246  44.8114017  44.4424984
  88.5586025  44.4739939  44.5651383  90.0157797  44.0797048  44.6793750
  71.0988393  41.1438109  37.7668036  71.7859433  40.8299839  37.1789051
  70.9436522  42.0479473  37.4935287  75.9023116  36.0328305  42.1953060
  75.8181304  35.4253975  41.4603470  75.0805822  36.5237324  42.1962556
  82.9760400  49.4715469  41.4086228  82.9030571  50.2770441  41.9205532
  82.5337793  49.6707435  40.5834249  82.7650179  48.7087239  34.9189049
  81.9817701  49.2508919  35.0127274  83.4642925  49.2261219  35.3183290
  86.0746829  34.5181869  37.5623255  86.5715529  33.7651831  37.2424325
  85.3033811  34.5546185  36.9966464  93.9276587  40.2222234  39.2041546
  93.9166463  41.1046950  38.8335479  93.0593966  39.8693785  39.0096083
  85.4359083  49.3702303  43.5644386  86.1487055  50.0049768  43.4920288
  84.9449112  49.4666169  42.7484388  87.1576610  43.2753556  35.1361678
  86.2232889  43.3955018  34.9666382  87.3353279  42.3726023  34.8721688
  82.6581798  36.6599252  37.2894939  82.2879586  36.1070292  37.9775845
  83.1540891  36.0557385  36.7369939  90.5449161  39.1170875  35.6711712
  91.0109614  39.9498867  35.5972015  90.9956662  38.6515857  36.3756971
  80.4870997  47.1196747  44.3849957  81.1880456  47.7533230  44.5379351
  80.0166112  47.4611478  43.6245596  88.6125393  45.4614697  32.6697864
  88.8885237  45.3471291  33.5791738  87.7429891  45.0632181  32.6310037
  88.5165824  31.4851462  39.7102614  87.6028904  31.7155689  39.8784820
  88.9458926  31.5689906  40.5616646  88.2872283  39.6741354  42.2102508
  87.6343733  39.9217262  41.5554960  88.6652663  38.8605492  41.8764985
  85.2479457  49.7101047  36.3130678  85.4301851  48.8922703  36.7758430
  86.0712443  49.9268740  35.8755568  85.5821622  48.6369233  33.5745726
  86.1109389  48.1261687  32.9615888  85.8449842  48.3211763  34.4391259
  84.3359856  40.4161165  48.6968545  83.6600493  40.3155295  49.3670920
  85.1587490  40.2600379  49.1604542  76.0838715  46.6533102  41.3181060
  76.6692152  45.9076790  41.4508964  75.8863553  46.9637059  42.2017724
  78.9377370  49.6884349  36.3343502  78.2687745  50.1730477  35.8507542
  78.7990240  49.9353570  37.2486881  70.6756370  39.2238702  40.0385503
  70.7140469  38.6902293  40.8322621  70.1696662  38.6973908  39.4196480
  83.0782639  51.7228093  42.9326161  83.6300947  51.8859714  43.6975246
  83.4188832  52.3132531  42.2606185  78.0547132  34.0703243  43.5348045
  78.1188458  34.9318073  43.1225443  77.9914252  33.4577244  42.8020404
  77.5299404  36.1426375  47.1821080  78.1571443  35.7603452  47.7958604
  76.6727323  35.9240577  47.5476772  87.9293513  46.5489350  48.7874815
  88.4733417  47.1619309  48.2929770  87.3480358  47.1068929  49.3041828
  74.3064947  37.9502804  33.1139434  74.6018388  37.0413483  33.0606488
  73.4052983  37.9290544  32.7920437  86.2151026  49.6710068  39.9189843
  86.0902165  48.8699808  39.4100788  86.8730117  50.1656262  39.4303813
  77.8359194  36.0258801  39.0966983  77.1145780  36.6394768  38.9574456
  78.6252450  36.5616566  39.0183629  88.2785934  47.4719088  41.5469393
  87.3316270  47.3524440  41.4747720  88.6268707  46.5841586  41.6295654
  80.6385508  33.3613227  45.3707635  81.1619909  33.6075524  46.1333944
  80.4197841  34.1933262  44.9510772  76.0352789  35.6316902  33.2378760
  75.7065495  34.7514281  33.0553865  76.3892159  35.5764571  34.1255149
  85.2832368  47.2671805  37.7473745  85.1357330  46.3388512  37.9281315
  86.1085861  47.2891895  37.2630820  79.1494612  35.9189872  33.6054237
  79.4890684  36.4475793  32.8832846  79.5966732  36.2570278  34.3812804
  88.8866489  48.0900363  38.8338618  89.8113037  47.8843225  38.6963069
  88.7181793  47.8416764  39.7427959  81.8438053  34.3026922  43.0557305
  81.5034873  33.5034735  43.4577985  81.1377059  34.6028633  42.4834138
  82.4954525  31.3876235  41.5084628  83.3180594  30.9136713  41.3863519
  82.7392588  32.1666719  42.0083315  81.1362759  34.4164493  31.8047530
  81.8571122  34.7945746  31.3011247  80.5128063  35.1353370  31.9082508
  85.2793882  35.1209642  32.7405862  85.4957496  36.0034280  32.4394690
  84.7987949  34.7295856  32.0111504  80.0193103  38.0795355  39.3176607
  79.8737684  38.3935658  40.2100888  79.5418307  38.6980256  38.7647506
  81.8789486  35.0697903  39.3657496  81.8651055  34.1738997  39.0289794
  82.5961914  35.0768567  39.9995783  83.7315617  35.5035244  41.4110624
  83.4733395  36.4252314  41.4094954  83.2000657  35.1065678  42.1011088
  88.6761806  48.6086031  34.1900709  88.8498683  48.0432453  33.4374562
  89.1690697  49.4086926  34.0080199  74.4938765  40.6200700  42.2564268
  73.9492234  41.3960508  42.3884542  75.3718115  40.9671504  42.0983390
  81.2826382  33.9512284  34.6345067  81.4042293  33.0228930  34.8335954
  80.9928424  33.9650970  33.7223382  84.1517573  31.6367194  37.7711786
  84.1739269  31.7006527  36.8163766  84.5685632  30.7971703  37.9652293
  94.5301197  41.3722454  35.8091009  94.9732343  40.6229779  35.4110132
  93.6527707  41.3632590  35.4264741  89.6636978  47.9252795  31.2897608
  90.3587883  48.5459488  31.5084922  90.0060128  47.0748146  31.5649985
  75.2804787  39.7470596  45.1494425  74.5386523  39.8953231  45.7359055
  74.9597532  40.0078862  44.2861174  91.5628401  45.3752501  32.8184938
  92.0879725  45.7139773  32.0934258  91.4750754  44.4399516  32.6348073
  83.2248450  49.2886574  44.9474815  83.5335576  49.0435721  45.8197515
  84.0223932  49.4933213  44.4593685  83.2469062  51.4424484  37.1780192
  82.8074052  50.9500863  37.8713048  83.9977179  50.8997452  36.9372267
  75.7261401  47.6336025  37.1804820  76.5519421  47.3339797  36.8003463
  75.3755453  46.8643647  37.6294608  80.6942934  46.9862493  39.2502493
  80.0722943  46.3233198  38.9504721  81.3647801  47.0123625  38.5676141
  73.9270006  45.5522351  38.1393753  73.0901914  45.1244526  37.9577754
  73.8993651  45.7454795  39.0764544  80.7667462  35.4644281  48.8434999
  80.8155617  36.3406404  48.4612769  81.3089976  34.9221674  48.2706642
  91.2522307  46.0085404  48.1236136  90.4617851  45.9909543  47.5840636
  91.0155662  46.5473698  48.8785173  91.3720182  42.8577871  45.4368865
  91.4218187  42.6927878  46.3784388  91.2634106  41.9905130  45.0466746
  80.2556441  45.5366416  32.7260954  80.4044561  46.2201881  32.0727626
  81.0622885  45.5171506  33.2410409  88.6623945  38.8408799  46.7528172
  89.5633808  38.7015264  46.4612169  88.7371919  39.0063254  47.6926349
  82.9966750  36.2175653  45.5981358  82.1270060  36.5109220  45.3263946
  83.2326230  36.8016098  46.3188622  92.8738379  45.2774812  45.6810886
  92.5823188  45.6404793  46.5174347  92.2610510  44.5641820  45.5024218
  94.0734062  42.8427692  38.2013457  94.9080953  43.2817496  38.3651017
  94.2093190  42.3666345  37.3821702  91.1225567  40.4007427  44.1490944
  91.5979689  40.5935073  43.3409796  90.1991133  40.4566613  43.9034328
  78.0109074  41.5631594  33.7322023  77.7655116  40.6593924  33.9302233
  78.1804989  41.5648744  32.7901501  85.7005784  32.4355270  43.1146778
  86.2187728  33.1716297  42.7893267  85.3460917  32.7419264  43.9493537
  77.2804722  37.2959952  31.2308184  76.5873967  37.3704307  30.5748220
  77.0356473  36.5320295  31.7529701  85.9518378  28.8555553  38.6347675
  86.2320132  28.1878742  39.2608101  86.7368985  29.0484649  38.1222339
  83.7551847  48.0314547  30.1972701  83.1825814  48.6504734  29.7443173
  84.3284640  48.5813909  30.7312623  89.8227236  37.2773187  42.3819250
  90.7744659  37.3771285  42.4031474  89.6530687  36.4851455  42.8917334
  87.8441616  34.3628770  42.5678651  87.2491548  34.6433783  41.8725140
  87.5591313  34.8522671  43.3395392  86.9749106  48.3151697  31.3281283
  87.9079780  48.2497259  31.5314159  86.8872319  49.1507964  30.8695816
  89.6037123  47.6317567  28.2885231  89.5250755  47.2977431  29.1820989
  90.4246790  48.1239335  28.2876703  92.3015314  40.4979307  41.4961550
  92.2691634  39.5595307  41.6821233  92.9115938  40.5763343  40.7627374
  84.1398645  39.3675360  27.5388754  85.0857750  39.2381568  27.6077172
  83.7612890  38.6290021  28.0158182  92.4509803  37.2890350  41.5419833
  91.9348851  36.5048807  41.3549762  93.3349751  36.9609067  41.7066352
  90.1120530  31.0331366  37.5015645  89.9145351  30.7246454  38.3858977
  90.7220235  31.7593005  37.6313575  98.1191864  41.5595313  40.6367586
  98.8495253  41.2980602  41.1975290  97.5098810  40.8224035  40.6769654
  96.2007161  39.7003176  41.2342038  95.4740325  39.5659141  40.6258529
  95.7854448  40.0080005  42.0398756  84.0237338  43.4193106  48.9989411
  84.9440347  43.5971705  49.1929457  83.9886921  42.4749151  48.8469110
  82.3241562  37.2925336  27.4743639  81.4173018  36.9958449  27.5506352
  82.6017543  36.9955154  26.6077925  73.2419503  38.6131699  37.9242685
  72.9222287  37.7597008  37.6317059  72.6952931  38.8280278  38.6800653
  77.0199410  41.3294140  41.6412192  77.2385420  42.2611248  41.6600226
  77.4325184  40.9702115  42.4266996  83.9403628  31.8362226  33.6287880
  83.1304356  31.4909311  34.0043126  84.6288045  31.5269769  34.2175492
  85.8694176  30.9140272  35.2512177  86.4225215  31.3335726  35.9102200
  86.1064263  29.9876021  35.2935133  81.8927275  36.9027346  51.0314941
  81.7924002  37.8521703  50.9627032  81.6748818  36.5745585  50.1591011
  81.0940347  34.1512271  27.6155618  81.9559511  34.4767169  27.8751435
  81.2790691  33.3643767  27.1028684  73.1107763  42.2334611  39.8935807
  72.4171234  41.8188564  39.3805761  73.8580754  42.2755147  39.2969226
  89.2472983  33.0240798  34.7590841  88.6671652  33.6825602  34.3768893
  88.9808916  32.2018142  34.3478259  87.6976550  32.4245855  36.9612161
  88.1976328  32.5362390  36.1526480  88.3412158  32.1206908  37.6012970
  81.7558546  40.3324485  49.8480002  81.2725627  41.1324845  50.0543891
  81.8419485  40.3432430  48.8947446  75.0244505  42.1652865  37.7701822
  75.0015193  42.2640552  36.8183705  75.3345142  43.0118015  38.0918988
  77.6831883  44.2229020  41.8848436  78.6375137  44.1912962  41.8178368
  77.4844407  43.7619643  42.6998662  78.2731265  42.7930136  44.4519234
  79.0924154  43.2874214  44.4754071  78.5468073  41.8762104  44.4236801
  88.0297861  35.1840888  33.8147189  87.1423716  35.4690539  33.5967384
  88.4451850  35.0234651  32.9674466  91.3812398  35.2087409  37.5301529
  92.1572788  35.6983861  37.8026145  90.6560532  35.6345463  37.9873398
  93.8184956  35.9215028  38.5875469  94.4129447  35.6810764  37.8768777
  93.8911540  35.2022159  39.2149005  76.0382112  49.7648639  38.9018634
  75.9036580  49.0049040  38.3356632  75.6214174  50.4889539  38.4347423
  87.1741075  44.9485563  27.9095209  87.8776925  45.1535565  28.5252865
  86.4503724  45.5162325  28.1744293  88.0038885  40.6995424  34.0297479
  87.9474087  41.1563975  33.1905112  88.5567228  39.9386109  33.8520322
  91.8143691  36.4885156  34.8547599  91.5580625  36.0881791  35.6855807
  91.1896559  37.2028950  34.7297738  96.1256029  39.2281229  37.3618890
  95.5655587  39.2974418  38.1350452  95.5199532  39.0522214  36.6418387
  79.1951238  50.6617956  39.1137077  79.0783622  51.6063389  39.0115767
  78.3743684  50.3591518  39.5022876  89.0827772  45.3868092  29.9593669
  89.9173376  44.9549290  29.7771144  88.9212115  45.2150106  30.8870564
  88.7373664  41.8900205  31.3250009  88.6822468  41.7244477  30.3838453
  88.1119720  42.5976238  31.4812198  73.5266179  37.1268270  45.1511431
  74.1725043  36.6167224  45.6398656  73.3183331  37.8636951  45.7254856
  86.0519572  44.1949117  50.6503571  86.9210731  44.3689769  50.2890206
  85.5726323  45.0143534  50.5279301  82.0469790  31.3908314  30.9035327
  82.0348460  32.3350154  31.0603598  82.9393212  31.2078460  30.6094788
  80.2205752  51.3146218  42.3293005  81.1232999  51.3469828  42.6459500
  79.9943122  50.3846669  42.3439341  81.9759354  50.0677205  38.9903084
  81.0254985  50.0679066  38.8767456  82.2791840  49.3209939  38.4739118
  85.8621909  27.9851091  35.1581264  85.0954305  27.4309578  35.3037946
  86.2732614  28.0572960  36.0195415  77.8663670  34.2735887  49.2486445
  78.7295132  33.9172692  49.4589770  77.2929081  33.9349781  49.9361849
  97.7112047  55.9037743  40.0548846  98.3490457  55.7844490  39.3512186
  97.5932890  56.8518587  40.1136798  94.5201754  55.8565171  39.9910371
  94.1820265  55.7406236  39.1030906  95.3891522  55.4556336  39.9711377
  90.3788569  57.7100648  35.9807262  89.8153434  57.6190584  35.2123550
  90.2640964  56.8900552  36.4609754  95.0021537  57.0100023  45.9496576
  94.9910177  56.6152821  45.0777080  95.1642176  56.2766095  46.5430348
  87.9253001  59.2051839  38.8191482  88.7174293  58.8642664  38.4037782
  88.1649651  59.3146814  39.7393636  95.9588128  61.3771615  31.2921727
  95.3076108  61.9625696  30.9055740  96.7532491  61.9077810  31.3516764
  89.8843755  58.4660752  31.6908861  90.6574631  57.9189739  31.5521737
  90.2369154  59.3305002  31.9023322  91.7228798  59.7937135  44.8975760
  91.4318664  60.6982765  44.7822427  92.3585782  59.8353662  45.6119830
  92.6485005  57.1713983  41.4877120  93.2448577  56.9470006  40.7734083
  92.7059976  56.4298729  42.0902568  92.2210033  54.6253418  29.3227311
  92.4735554  54.1034940  28.5610774  91.2834592  54.4619564  29.4253995
  97.2653316  53.6289197  37.1302054  98.0516405  53.2108620  36.7792471
  97.5292020  54.5335289  37.2983703  97.4363393  59.0662047  31.8290711
  96.8009226  59.1396674  32.5411616  97.1060800  59.6555646  31.1509790
 102.6661743  53.5664430  38.0335033 103.3986915  52.9963647  38.2672862
 101.9101099  53.1786031  38.4741538  91.9406322  56.5281524  31.5251686
  91.8242580  55.8526428  32.1932770  92.0508582  56.0413898  30.7083839
  94.2837863  55.9891672  35.2298375  93.9196070  55.4622293  35.9411297
  95.1404979  55.5990141  35.0564861 100.1887163  47.2786004  42.4929641
  99.8570488  48.1481415  42.2690856  99.5932777  46.9622288  43.1723672
  93.9243350  51.0181571  30.2259724  94.0917752  51.8861808  30.5930195
  93.7340519  51.1808853  29.3021013  96.6818683  59.4798550  41.8925554
  96.3819406  60.3823589  41.7841361  96.3369742  59.2130733  42.7446707
  90.1331164  55.9312347  37.9262258  89.2081661  55.7988561  38.1339950
  90.3815578  56.7106566  38.4232201 100.0815827  51.9981090  39.5722991
  99.1732704  51.9296499  39.2781752 100.0303422  52.4753035  40.4004817
  93.9032571  53.4739229  31.2106390  93.7832196  53.9196280  32.0491871
  93.2085159  53.8224546  30.6519929  87.4939975  55.5745621  38.7606048
  87.6232357  55.8280099  39.6745459  86.8137427  56.1673329  38.4410703
  91.6639463  66.2442871  34.8596522  91.5863492  67.1950696  34.9385002
  91.0601106  65.8988743  35.5171448  94.1556692  53.4170736  47.5157889
  93.3790026  53.9764656  47.5060753  94.7947255  53.9027519  48.0372759
 101.9477473  50.1997529  41.3500865 101.3051853  50.4930062  40.7040660
 101.4432402  50.0850449  42.1554062  99.6017637  53.9460702  32.0386725
 100.5135493  54.1788089  31.8634422  99.0927284  54.5297746  31.4761803
  92.4103065  56.2256189  47.0775856  93.1517749  56.7641233  46.8010679
  91.7040050  56.8522478  47.2347407  97.8858404  58.3685330  45.6748017
  98.2941760  57.9267740  44.9302649  97.1635666  57.7937957  45.9282210
  94.2389474  53.3057937  43.0481574  95.0850670  53.7297350  43.1916223
  94.1788112  52.6491561  43.7420137  98.2087219  58.9286520  39.4300306
  97.5796081  59.0932235  38.7276374  97.8212881  59.3428130  40.2011270
 102.0876451  59.8640958  36.7844670 101.4027489  60.2439860  36.2341703
 102.1720300  60.4736285  37.5176618  97.3888920  50.9662305  44.7062748
  97.1449852  51.7204365  44.1697023  97.6648850  51.3447652  45.5409995
  99.3427383  57.5100917  43.3840013  99.5544278  58.1532677  42.7074394
  99.2957131  56.6763234  42.9161943  96.9453611  50.1218738  40.2876585
  96.0838090  50.4199991  40.5793323  96.9716046  50.3389137  39.3557618
  93.7615181  58.6660928  36.6950391  94.2253526  58.9448631  35.9055014
  93.4971979  57.7644373  36.5123482  90.6539262  58.2132410  39.6330154
  91.2240619  58.6419678  38.9947639  91.2447374  57.9314995  40.3314340
  92.6984067  54.7884081  33.5039956  93.4008110  55.2405125  33.9713883
  92.3664695  54.1467900  34.1319849  91.1464428  53.3795837  47.8791166
  90.5163089  54.0612118  48.1126562  91.0400516  53.2678919  46.9344304
  86.4409401  53.0467633  38.8057090  85.6508455  53.3025162  38.3297200
  86.9320648  53.8615971  38.9109130 100.4573210  60.3872873  41.5562371
 101.2790654  59.9853060  41.2745052 100.4535613  60.2841107  42.5078486
  88.3924146  53.4112213  35.7640566  87.5955310  53.5230907  36.2824062
  88.1649738  53.7498865  34.8981457  94.2229814  59.9356916  43.7123081
  94.2874246  60.3977323  44.5481253  93.5140738  59.3054281  43.8405391
  84.7247104  53.2998124  41.2372081  84.9755142  54.1845134  41.5029657
  85.2606652  53.1202725  40.4647172 108.5479204  56.7311621  37.9047342
 107.7942912  56.1619019  37.7491347 108.6826745  56.6974286  38.8517977
  93.9377832  61.6025023  33.5802061  93.8023506  62.4476559  34.0086909
  94.4787644  61.8044301  32.8167995  90.4245171  47.6816603  50.2416417
  90.0312117  47.1282802  50.9164061  91.2411312  47.9927182  50.6322934
  87.3907229  59.1200461  34.1529987  87.9031750  59.9143712  34.3035551
  88.0429942  58.4226752  34.0863588  89.2002114  62.2366218  36.2352740
  89.3768742  63.1584182  36.0473724  89.9958947  61.9224637  36.6647119
  93.3413132  49.0974482  47.8336673  94.0822846  49.6981636  47.7541136
  93.5731055  48.3552120  47.2754716  88.4854470  54.2830850  46.1114903
  88.3707985  53.3816107  46.4122002  87.6298988  54.5294546  45.7599719
  95.5646308  62.2248590  47.7102404  95.1210162  61.4384969  47.3923308
  96.2263522  62.4127740  47.0446294  90.3233429  63.7544392  42.2363082
  90.8740854  63.6261455  41.4640076  89.4844905  64.0539281  41.8857975
  97.6627546  62.5051390  45.7383805  97.6446021  63.3260271  45.2464074
  98.5847466  62.3805465  45.9633946  94.1200600  60.0195519  46.5807313
  94.6528937  59.2583808  46.3506621  93.5914681  59.7269171  47.3231468
  97.2870295  45.1255585  42.1100955  96.9434565  46.0157227  42.0340065
  97.6549258  44.9357243  41.2470540  85.3556146  57.4489116  34.9289557
  86.1931368  57.8586124  34.7123265  85.5334413  56.5088558  34.8989751
  97.2520578  55.1164196  30.6173390  96.7367201  55.8868801  30.8561777
  96.9797886  54.4429333  31.2406451  94.8367689  49.9613897  35.6758628
  93.9809285  49.5720748  35.4964267  95.2494641  50.0405858  34.8158414
  96.3666836  47.4960240  40.0750188  95.8631631  47.4590376  39.2617993
  96.6597442  48.4052983  40.1346845  92.6109721  47.5798970  39.0816370
  93.4762718  47.3841779  38.7222259  92.6787230  47.3509322  40.0085727
 102.2254852  57.8696551  32.5526563 101.4484295  57.5307711  32.1081726
 102.9046333  57.8749174  31.8781529  97.0406881  52.9891289  32.4433171
  96.7357017  53.3037438  33.2943314  97.9937323  53.0672708  32.4860504
  95.4853313  59.1481512  34.0926125  94.9574674  58.4134271  33.7799363
  94.9840816  59.9256188  33.8466094 100.4646159  57.3430532  39.2093171
  99.8069833  58.0329794  39.2973300 101.2686558  57.7326964  39.5527158
  90.2172040  49.8101178  36.4532737  90.7915792  49.5876360  35.7205930
  90.8043023  49.8789873  37.2061338  99.2751618  55.6974905  37.2597113
  99.7883499  56.3304897  37.7618823  99.9252842  55.0976101  36.8940473
  90.5441628  51.8405639  30.4728622  89.7078940  52.1780326  30.7937897
  90.4046397  51.7054619  29.5355759  92.5194708  46.6842427  35.1807806
  91.8659121  46.3691444  34.5564421  92.4775182  46.0618168  35.9067629
  93.6305913  56.9661722  27.0961098  92.7232975  56.7350976  27.2952247
  94.1276945  56.1699341  27.2835080  96.5373992  65.6759229  30.0157784
  95.8635691  65.9790926  30.6242742  96.9239814  66.4788310  29.6663241
  95.7532449  53.1724361  39.5055454  94.8355010  53.3939308  39.3477142
  96.1692592  53.2470671  38.6467161  96.5367496  54.5715776  34.6358134
  97.2839315  55.0837173  34.3265256  96.8059086  54.2499829  35.4962528
  94.8094146  57.0674317  31.6185088  93.9005366  56.7833350  31.7157558
  94.8389230  57.4873396  30.7588395 100.0413414  60.6780906  35.3876256
  99.5875741  59.8371816  35.4441446  99.4107381  61.3142305  35.7251036
  98.9846333  51.6072893  36.6176923  98.2469090  51.0950279  36.9487166
  99.2373107  51.1673274  35.8060200  98.4846353  62.5157403  36.3226074
  98.7769328  63.0762460  35.6038440  98.9944974  62.8085964  37.0779233
  99.0857961  44.3849145  37.2118693  99.3916838  43.5246508  36.9244608
  99.8110566  44.9766765  37.0117686  85.3782317  54.7879831  35.6000291
  85.1806717  54.1949192  34.8751357  84.8228981  54.4832041  36.3176229
  93.3579041  54.6802938  37.7194884  93.4127650  53.7276774  37.6437360
  92.5470243  54.8362377  38.2036182  94.5070234  58.6083061  28.9573167
  94.0689664  57.8918920  28.4978804  95.2480675  58.8359175  28.3958258
  91.2971400  53.2979997  35.4785263  90.4839266  53.5974168  35.8850455
  91.7930395  52.9035686  36.1959745  93.4479978  63.2937754  37.4119527
  93.4056157  63.5198601  36.4828059  94.3642677  63.0601129  37.5605328
  96.8945612  53.7621822  44.3100156  97.2495000  53.9893295  45.1694622
  97.5417743  54.0940199  43.6877412 102.6243349  56.8840258  35.0149485
 102.4861248  57.0741854  34.0870675 102.2679568  57.6459641  35.4717537
  90.7885475  50.8698353  41.0946497  91.4284855  50.7287112  40.3969461
  89.9563006  50.5832866  40.7185099 102.6512729  58.9516785  40.0260757
 103.0849235  58.8592074  40.8743811 103.3644309  58.9274285  39.3880773
  91.5645779  60.1700783  37.2081490  92.3586378  59.6751103  37.0064065
  90.8537471  59.6418646  36.8449195  96.3840624  62.5518879  41.5593858
  96.4377646  63.1209815  42.3271573  95.5155405  62.7220764  41.1947895
  87.8728543  54.3143865  33.2841243  86.9426131  54.2528321  33.5011205
  87.9686015  53.7919818  32.4877884  87.7914092  50.8398678  35.8719484
  88.0520909  51.7544011  35.7628645  88.6131264  50.3723120  36.0216097
  89.2639017  52.2536435  43.0418309  89.9362070  52.0453797  42.3930958
  88.4368803  52.0558521  42.6023541 103.5128278  58.9940485  42.5593642
 103.7064168  59.8986296  42.8052917 103.4128896  58.5347904  43.3932227
  95.1664589  48.8798376  45.0583970  94.5192504  49.5788326  44.9648446
  95.9365604  49.3134520  45.4260218  98.5743387  59.1447228  48.1334523
  98.4228893  58.9157780  47.2164607  98.5648066  60.1017830  48.1465868
  95.3428723  56.7179141  43.1180789  96.2720783  56.8690300  42.9449757
  94.9219753  56.8063162  42.2629436  94.1417055  60.7429805  40.8879327
  94.0028141  60.3748590  41.7605265  93.3531651  61.2577445  40.7163285
  94.7365207  65.8438902  32.2304864  94.9116963  65.3726945  33.0450486
  94.0497995  66.4704668  32.4586124  95.6922270  60.1211408  38.2768165
  95.3572103  60.0812178  39.1725815  95.1926216  59.4556124  37.8038575
  89.6666514  55.5279038  43.8020746  89.5286312  54.7959277  44.4032285
  90.5771438  55.4387938  43.5204934  98.6281462  57.4667442  28.5505224
  98.0110633  56.7414270  28.4538277  98.1597950  58.2276803  28.2072299
  92.2948815  55.2398997  43.2904426  93.0048433  54.5992190  43.2491044
  92.2518123  55.4911892  44.2130606 100.2835594  62.1766351  46.2111005
 100.2248140  61.4925571  45.5441588 100.6855112  62.9185341  45.7591631
  91.0077749  52.2264215  45.1100065  90.4715106  51.7754954  45.7621661
  90.4194457  52.3610124  44.3670529  89.3026292  68.9928265  39.0044724
  89.5422891  69.6246789  39.6823742  88.4595489  68.6416305  39.2910083
  90.4180008  51.6852867  27.6726529  89.5409474  51.5641667  27.3088775
  90.8937761  50.8938945  27.4205417 100.2853001  60.1405935  44.4424984
  99.3979780  59.8031856  44.5651383 100.8551552  59.4088966  44.6793750
  81.9382148  56.4730026  37.7668036  82.6253188  56.1591756  37.1789051
  81.7830277  57.3771391  37.4935287  86.7416870  51.3620223  42.1953060
  86.6575059  50.7545892  41.4603470  85.9199576  51.8529241  42.1962556
  93.8154154  64.8007387  41.4086228  93.7424326  65.6062358  41.9205532
  93.3731547  64.9999353  40.5834249  93.6043934  64.0379157  34.9189049
  92.8211456  64.5800837  35.0127274  94.3036679  64.5553137  35.3183290
  96.9140584  49.8473786  37.5623255  97.4109283  49.0943749  37.2424325
  96.1427565  49.8838103  36.9966464 104.7670341  55.5514152  39.2041546
 104.7560218  56.4338867  38.8335479 103.8987721  55.1985703  39.0096083
  96.2752838  64.6994221  43.5644386  96.9880810  65.3341686  43.4920288
  95.7842866  64.7958087  42.7484388  97.9970365  58.6045474  35.1361678
  97.0626643  58.7246936  34.9666382  98.1747033  57.7017940  34.8721688
  93.4975553  51.9891169  37.2894939  93.1273340  51.4362210  37.9775845
  93.9934645  51.3849303  36.7369939 101.3842916  54.4462793  35.6711712
 101.8503368  55.2790785  35.5972015 101.8350416  53.9807775  36.3756971
  91.3264751  62.4488664  44.3849957  92.0274211  63.0825147  44.5379351
  90.8559866  62.7903396  43.6245596  99.4519147  60.7906614  32.6697864
  99.7278991  60.6763209  33.5791738  98.5823646  60.3924099  32.6310037
  99.3559579  46.8143380  39.7102614  98.4422659  47.0447607  39.8784820
  99.7852680  46.8981824  40.5616646  99.1266037  55.0033272  42.2102508
  98.4737487  55.2509179  41.5554960  99.5046417  54.1897410  41.8764985
  96.0873211  65.0392965  36.3130678  96.2695606  64.2214621  36.7758430
  96.9106197  65.2560657  35.8755568  96.4215377  63.9661150  33.5745726
  96.9503143  63.4553605  32.9615888  96.6843596  63.6503680  34.4391259
  95.1753610  55.7453083  48.6968545  94.4994247  55.6447212  49.3670920
  95.9981244  55.5892297  49.1604542  86.9232469  61.9825019  41.3181060
  87.5085906  61.2368707  41.4508964  86.7257308  62.2928976  42.2017724
  89.7771125  65.0176267  36.3343502  89.1081500  65.5022395  35.8507542
  89.6383994  65.2645487  37.2486881  81.5150124  54.5530620  40.0385503
  81.5534224  54.0194210  40.8322621  81.0090417  54.0265825  39.4196480
  93.9176393  67.0520010  42.9326161  94.4694701  67.2151632  43.6975246
  94.2582587  67.6424448  42.2606185  88.8940886  49.3995160  43.5348045
  88.9582213  50.2609991  43.1225443  88.8308007  48.7869162  42.8020404
  88.3693159  51.4718293  47.1821080  88.9965198  51.0895370  47.7958604
  87.5121078  51.2532495  47.5476772  98.7687267  61.8781268  48.7874815
  99.3127171  62.4911226  48.2929770  98.1874112  62.4360846  49.3041828
  85.1458702  53.2794722  33.1139434  85.4412143  52.3705400  33.0606488
  84.2446737  53.2582461  32.7920437  97.0544780  65.0001986  39.9189843
  96.9295920  64.1991726  39.4100788  97.7123872  65.4948179  39.4303813
  88.6752949  51.3550718  39.0966983  87.9539534  51.9686686  38.9574456
  89.4646204  51.8908483  39.0183629  99.1179689  62.8011006  41.5469393
  98.1710024  62.6816357  41.4747720  99.4662462  61.9133504  41.6295654
  91.4779262  48.6905145  45.3707635  92.0013664  48.9367441  46.1333944
  91.2591595  49.5225180  44.9510772  86.8746543  50.9608820  33.2378760
  86.5459249  50.0806198  33.0553865  87.2285914  50.9056488  34.1255149
  96.1226122  62.5963722  37.7473745  95.9751085  61.6680430  37.9281315
  96.9479616  62.6183813  37.2630820  89.9888366  51.2481789  33.6054237
  90.3284439  51.7767711  32.8832846  90.4360487  51.5862195  34.3812804
  99.7260244  63.4192281  38.8338618 100.6506791  63.2135142  38.6963069
  99.5575547  63.1708682  39.7427959  92.6831807  49.6318840  43.0557305
  92.3428628  48.8326653  43.4577985  91.9770813  49.9320551  42.4834138
  93.3348279  46.7168152  41.5084628  94.1574348  46.2428631  41.3863519
  93.5786343  47.4958636  42.0083315  91.9756514  49.7456411  31.8047530
  92.6964876  50.1237664  31.3011247  91.3521818  50.4645288  31.9082508
  96.1187636  50.4501560  32.7405862  96.3351251  51.3326198  32.4394690
  95.6381704  50.0587773  32.0111504  90.8586858  53.4087273  39.3176607
  90.7131439  53.7227576  40.2100888  90.3812061  54.0272173  38.7647506
  92.7183241  50.3989821  39.3657496  92.7044809  49.5030914  39.0289794
  93.4355669  50.4060485  39.9995783  94.5709371  50.8327161  41.4110624
  94.3127149  51.7544232  41.4094954  94.0394412  50.4357596  42.1011088
  99.5155560  63.9377948  34.1900709  99.6892438  63.3724371  33.4374562
 100.0084451  64.7378843  34.0080199  85.3332520  55.9492617  42.2564268
  84.7885988  56.7252425  42.3884542  86.2111870  56.2963422  42.0983390
  92.1220137  49.2804201  34.6345067  92.2436048  48.3520848  34.8335954
  91.8322179  49.2942887  33.7223382  94.9911327  46.9659112  37.7711786
  95.0133024  47.0298445  36.8163766  95.4079386  46.1263620  37.9652293
 105.3694951  56.7014371  35.8091009 105.8126097  55.9521697  35.4110132
 104.4921462  56.6924508  35.4264741 100.5030733  63.2544713  31.2897608
 101.1981637  63.8751405  31.5084922 100.8453883  62.4040064  31.5649985
  86.1198542  55.0762514  45.1494425  85.3780278  55.2245149  45.7359055
  85.7991286  55.3370779  44.2861174 102.4022156  60.7044418  32.8184938
 102.9273480  61.0431691  32.0934258 102.3144508  59.7691434  32.6348073
  94.0642204  64.6178492  44.9474815  94.3729331  64.3727639  45.8197515
  94.8617686  64.8225130  44.4593685  94.0862817  66.7716402  37.1780192
  93.6467807  66.2792780  37.8713048  94.8370933  66.2289369  36.9372267
  86.5655155  62.9627942  37.1804820  87.3913175  62.6631714  36.8003463
  86.2149207  62.1935565  37.6294608  91.5336689  62.3154411  39.2502493
  90.9116698  61.6525116  38.9504721  92.2041556  62.3415543  38.5676141
  84.7663761  60.8814269  38.1393753  83.9295669  60.4536443  37.9577754
  84.7387406  61.0746712  39.0764544  91.6061216  50.7936199  48.8434999
  91.6549372  51.6698322  48.4612769  92.1483730  50.2513592  48.2706642
 102.0916062  61.3377322  48.1236136 101.3011606  61.3201461  47.5840636
 101.8549416  61.8765616  48.8785173 102.2113937  58.1869788  45.4368865
 102.2611942  58.0219796  46.3784388 102.1027860  57.3197047  45.0466746
  91.0950196  60.8658334  32.7260954  91.2438316  61.5493798  32.0727626
  91.9016639  60.8463424  33.2410409  99.5017699  54.1700716  46.7528172
 100.4027562  54.0307181  46.4612169  99.5765674  54.3355171  47.6926349
  93.8360505  51.5467571  45.5981358  92.9663814  51.8401137  45.3263946
  94.0719985  52.1308016  46.3188622 103.7132134  60.6066730  45.6810886
 103.4216942  60.9696710  46.5174347 103.1004265  59.8933738  45.5024218
 104.9127816  58.1719610  38.2013457 105.7474707  58.6109414  38.3651017
 105.0486945  57.6958263  37.3821702 101.9619322  55.7299344  44.1490944
 102.4373444  55.9226991  43.3409796 101.0384887  55.7858530  43.9034328
  88.8502829  56.8923512  33.7322023  88.6048870  55.9885842  33.9302233
  89.0198743  56.8940662  32.7901501  96.5399538  47.7647188  43.1146778
  97.0581482  48.5008215  42.7893267  96.1854671  48.0711181  43.9493537
  88.1198476  52.6251869  31.2308184  87.4267721  52.6996224  30.5748220
  87.8750228  51.8612213  31.7529701  96.7912133  44.1847471  38.6347675
  97.0713886  43.5170660  39.2608101  97.5762740  44.3776566  38.1222339
  94.5945601  63.3606464  30.1972701  94.0219568  63.9796652  29.7443173
  95.1678395  63.9105826  30.7312623 100.6620991  52.6065105  42.3819250
 101.6138414  52.7063202  42.4031474 100.4924441  51.8143373  42.8917334
  98.6835370  49.6920688  42.5678651  98.0885303  49.9725701  41.8725140
  98.3985067  50.1814589  43.3395392  97.8142861  63.6443615  31.3281283
  98.7473534  63.5789176  31.5314159  97.7266074  64.4799881  30.8695816
 100.4430878  62.9609485  28.2885231 100.3644509  62.6269349  29.1820989
 101.2640544  63.4531253  28.2876703 103.1409069  55.8271224  41.4961550
 103.1085389  54.8887225  41.6821233 103.7509692  55.9055261  40.7627374
  94.9792400  54.6967277  27.5388754  95.9251504  54.5673485  27.6077172
  94.6006645  53.9581939  28.0158182 103.2903557  52.6182268  41.5419833
 102.7742606  51.8340724  41.3549762 104.1743506  52.2900984  41.7066352
 100.9514284  46.3623283  37.5015645 100.7539105  46.0538371  38.3858977
 101.5613990  47.0884922  37.6313575 108.9585619  56.8887231  40.6367586
 109.6889007  56.6272519  41.1975290 108.3492564  56.1515953  40.6769654
 107.0400916  55.0295094  41.2342038 106.3134079  54.8951059  40.6258529
 106.6248203  55.3371922  42.0398756  94.8631092  58.7485023  48.9989411
  95.7834102  58.9263622  49.1929457  94.8280675  57.8041069  48.8469110
  93.1635317  52.6217254  27.4743639  92.2566772  52.3250366  27.5506352
  93.4411298  52.3247072  26.6077925  84.0813257  53.9423617  37.9242685
  83.7616041  53.0888925  37.6317059  83.5346685  54.1572195  38.6800653
  87.8593165  56.6586058  41.6412192  88.0779174  57.5903166  41.6600226
  88.2718938  56.2994032  42.4266996  94.7797382  47.1654143  33.6287880
  93.9698111  46.8201228  34.0043126  95.4681799  46.8561687  34.2175492
  96.7087931  46.2432190  35.2512177  97.2618969  46.6627644  35.9102200
  96.9458017  45.3167938  35.2935133  92.7321030  52.2319264  51.0314941
  92.6317757  53.1813621  50.9627032  92.5142572  51.9037503  50.1591011
  91.9334101  49.4804189  27.6155618  92.7953265  49.8059087  27.8751435
  92.1184446  48.6935685  27.1028684  83.9501517  57.5626529  39.8935807
  83.2564989  57.1480481  39.3805761  84.6974508  57.6047065  39.2969226
 100.0866738  48.3532715  34.7590841  99.5065407  49.0117519  34.3768893
  99.8202671  47.5310060  34.3478259  98.5370304  47.7537773  36.9612161
  99.0370083  47.8654308  36.1526480  99.1805912  47.4498826  37.6012970
  92.5952300  55.6616403  49.8480002  92.1119382  56.4616763  50.0543891
  92.6813239  55.6724348  48.8947446  85.8638260  57.4944782  37.7701822
  85.8408948  57.5932470  36.8183705  86.1738896  58.3409933  38.0918988
  88.5225638  59.5520937  41.8848436  89.4768891  59.5204880  41.8178368
  88.3238161  59.0911561  42.6998662  89.1125020  58.1222053  44.4519234
  89.9317909  58.6166132  44.4754071  89.3861827  57.2054022  44.4236801
  98.8691616  50.5132806  33.8147189  97.9817471  50.7982456  33.5967384
  99.2845605  50.3526569  32.9674466 102.2206152  50.5379327  37.5301529
 102.9966542  51.0275779  37.8026145 101.4954286  50.9637381  37.9873398
 104.6578711  51.2506946  38.5875469 105.2523201  51.0102682  37.8768777
 104.7305294  50.5314076  39.2149005  86.8775866  65.0940557  38.9018634
  86.7430334  64.3340958  38.3356632  86.4607929  65.8181457  38.4347423
  98.0134829  60.2777480  27.9095209  98.7170679  60.4827483  28.5252865
  97.2897478  60.8454242  28.1744293  98.8432640  56.0287342  34.0297479
  98.7867841  56.4855893  33.1905112  99.3960982  55.2678026  33.8520322
 102.6537446  51.8177073  34.8547599 102.3974380  51.4173709  35.6855807
 102.0290314  52.5320867  34.7297738 106.9649783  54.5573147  37.3618890
 106.4049341  54.6266336  38.1350452 106.3593287  54.3814131  36.6418387
  90.0344992  65.9909874  39.1137077  89.9177376  66.9355306  39.0115767
  89.2137438  65.6883435  39.5022876  99.9221527  60.7160010  29.9593669
 100.7567131  60.2841208  29.7771144  99.7605870  60.5442023  30.8870564
  99.5767419  57.2192123  31.3250009  99.5216223  57.0536394  30.3838453
  98.9513474  57.9268156  31.4812198  84.3659934  52.4560187  45.1511431
  85.0118798  51.9459141  45.6398656  84.1577085  53.1928869  45.7254856
  96.8913326  59.5241035  50.6503571  97.7604486  59.6981687  50.2890206
  96.4120078  60.3435452  50.5279301  92.8863544  46.7200232  30.9035327
  92.8742214  47.6642072  31.0603598  93.7786966  46.5370377  30.6094788
  91.0599506  66.6438136  42.3293005  91.9626753  66.6761746  42.6459500
  90.8336876  65.7138587  42.3439341  92.8153108  65.3969122  38.9903084
  91.8648739  65.3970984  38.8767456  93.1185594  64.6501857  38.4739118
  96.7015664  43.3143009  35.1581264  95.9348060  42.7601495  35.3037946
  97.1126369  43.3864877  36.0195415  88.7057425  49.6027804  49.2486445
  89.5688886  49.2464609  49.4589770  88.1322836  49.2641699  49.9361849
 108.5505802  71.2329661  40.0548846 109.1884212  71.1136408  39.3512186
 108.4326645  72.1810505  40.1136798 105.3595508  71.1857089  39.9910371
 105.0214020  71.0698153  39.1030906 106.2285276  70.7848254  39.9711377
 101.2182324  73.0392565  35.9807262 100.6547189  72.9482502  35.2123550
 101.1034719  72.2192470  36.4609754 105.8415291  72.3391941  45.9496576
 105.8303932  71.9444739  45.0777080 106.0035931  71.6058013  46.5430348
  98.7646756  74.5343757  38.8191482  99.5568048  74.1934581  38.4037782
  99.0043406  74.6438732  39.7393636 106.7981883  76.7063533  31.2921727
 106.1469862  77.2917613  30.9055740 107.5926245  77.2369728  31.3516764
 100.7237510  73.7952670  31.6908861 101.4968386  73.2481657  31.5521737
 101.0762909  74.6596919  31.9023322 102.5622552  75.1229052  44.8975760
 102.2712418  76.0274683  44.7822427 103.1979537  75.1645580  45.6119830
 103.4878759  72.5005901  41.4877120 104.0842331  72.2761923  40.7734083
 103.5453731  71.7590646  42.0902568 103.0603788  69.9545336  29.3227311
 103.3129308  69.4326857  28.5610774 102.1228347  69.7911482  29.4253995
 108.1047070  68.9581115  37.1302054 108.8910160  68.5400538  36.7792471
 108.3685775  69.8627207  37.2983703 108.2757148  74.3953965  31.8290711
 107.6402981  74.4688591  32.5411616 107.9454554  74.9847564  31.1509790
 113.5055497  68.8956348  38.0335033 114.2380669  68.3255565  38.2672862
 112.7494853  68.5077948  38.4741538 102.7800076  71.8573442  31.5251686
 102.6636334  71.1818346  32.1932770 102.8902336  71.3705816  30.7083839
 105.1231617  71.3183589  35.2298375 104.7589824  70.7914210  35.9411297
 105.9798733  70.9282058  35.0564861 111.0280918  62.6077922  42.4929641
 110.6964243  63.4773333  42.2690856 110.4326531  62.2914206  43.1723672
 104.7637104  66.3473489  30.2259724 104.9311506  67.2153725  30.5930195
 104.5734273  66.5100771  29.3021013 107.5212437  74.8090468  41.8925554
 107.2213160  75.7115507  41.7841361 107.1763497  74.5422651  42.7446707
 100.9724919  71.2604265  37.9262258 100.0475415  71.1280479  38.1339950
 101.2209332  72.0398484  38.4232201 110.9209581  67.3273008  39.5722991
 110.0126458  67.2588416  39.2781752 110.8697177  67.8044953  40.4004817
 104.7426325  68.8031146  31.2106390 104.6225950  69.2488197  32.0491871
 104.0478913  69.1516464  30.6519929  98.3333730  70.9037538  38.7606048
  98.4626111  71.1572017  39.6745459  97.6531181  71.4965246  38.4410703
 102.5033217  81.5734788  34.8596522 102.4257247  82.5242613  34.9385002
 101.8994861  81.2280661  35.5171448 104.9950447  68.7462654  47.5157889
 104.2183781  69.3056574  47.5060753 105.6341010  69.2319437  48.0372759
 112.7871228  65.5289446  41.3500865 112.1445608  65.8221980  40.7040660
 112.2826156  65.4142367  42.1554062 110.4411391  69.2752620  32.0386725
 111.3529247  69.5080006  31.8634422 109.9321038  69.8589664  31.4761803
 103.2496819  71.5548107  47.0775856 103.9911504  72.0933151  46.8010679
 102.5433805  72.1814396  47.2347407 108.7252159  73.6977247  45.6748017
 109.1335515  73.2559658  44.9302649 108.0029420  73.1229875  45.9282210
 105.0783229  68.6349854  43.0481574 105.9244424  69.0589268  43.1916223
 105.0181867  67.9783479  43.7420137 109.0480973  74.2578438  39.4300306
 108.4189836  74.4224152  38.7276374 108.6606636  74.6720048  40.2011270
 112.9270205  75.1932876  36.7844670 112.2421244  75.5731777  36.2341703
 113.0114055  75.8028203  37.5176618 108.2282674  66.2954223  44.7062748
 107.9843606  67.0496283  44.1697023 108.5042605  66.6739570  45.5409995
 110.1821137  72.8392835  43.3840013 110.3938032  73.4824595  42.7074394
 110.1350885  72.0055151  42.9161943 107.7847366  65.4510656  40.2876585
 106.9231845  65.7491909  40.5793323 107.8109801  65.6681054  39.3557618
 104.6008935  73.9952846  36.6950391 105.0647281  74.2740549  35.9055014
 104.3365733  73.0936291  36.5123482 101.4933016  73.5424328  39.6330154
 102.0634373  73.9711596  38.9947639 102.0841128  73.2606912  40.3314340
 103.5377821  70.1175999  33.5039956 104.2401865  70.5697042  33.9713883
 103.2058450  69.4759817  34.1319849 101.9858183  68.7087755  47.8791166
 101.3556844  69.3904036  48.1126562 101.8794271  68.5970837  46.9344304
  97.2803155  68.3759551  38.8057090  96.4902209  68.6317080  38.3297200
  97.7714403  69.1907889  38.9109130 111.2966965  75.7164790  41.5562371
 112.1184409  75.3144978  41.2745052 111.2929368  75.6133025  42.5078486
  99.2317901  68.7404130  35.7640566  98.4349064  68.8522825  36.2824062
  99.0043493  69.0790783  34.8981457 105.0623568  75.2648834  43.7123081
 105.1268001  75.7269241  44.5481253 104.3534492  74.6346199  43.8405391
  95.5640858  68.6290042  41.2372081  95.8148897  69.5137052  41.5029657
  96.1000407  68.4494643  40.4647172 119.3872958  72.0603539  37.9047342
 118.6336666  71.4910937  37.7491347 119.5220499  72.0266203  38.8517977
 104.7771586  76.9316941  33.5802061 104.6417261  77.7768477  34.0086909
 105.3181399  77.1336219  32.8167995 101.2638926  63.0108521  50.2416417
 100.8705871  62.4574720  50.9164061 102.0805066  63.3219099  50.6322934
  98.2300983  74.4492379  34.1529987  98.7425504  75.2435629  34.3035551
  98.8823696  73.7518670  34.0863588 100.0395868  77.5658135  36.2352740
 100.2162496  78.4876100  36.0473724 100.8352702  77.2516555  36.6647119
 104.1806887  64.4266400  47.8336673 104.9216600  65.0273553  47.7541136
 104.4124809  63.6844038  47.2754716  99.3248225  69.6122767  46.1114903
  99.2101740  68.7108025  46.4122002  98.4692742  69.8586464  45.7599719
 106.4040062  77.5540508  47.7102404 105.9603917  76.7676886  47.3923308
 107.0657276  77.7419658  47.0446294 101.1627184  79.0836309  42.2363082
 101.7134609  78.9553373  41.4640076 100.3238659  79.3831198  41.8857975
 108.5021300  77.8343308  45.7383805 108.4839776  78.6552189  45.2464074
 109.4241221  77.7097383  45.9633946 104.9594355  75.3487437  46.5807313
 105.4922691  74.5875725  46.3506621 104.4308436  75.0561089  47.3231468
 108.1264050  60.4547503  42.1100955 107.7828319  61.3449145  42.0340065
 108.4943012  60.2649161  41.2470540  96.1949900  72.7781033  34.9289557
  97.0325122  73.1878042  34.7123265  96.3728168  71.8380476  34.8989751
 108.0914332  70.4456114  30.6173390 107.5760956  71.2160719  30.8561777
 107.8191641  69.7721250  31.2406451 105.6761443  65.2905815  35.6758628
 104.8203040  64.9012665  35.4964267 106.0888395  65.3697776  34.8158414
 107.2060590  62.8252158  40.0750188 106.7025386  62.7882293  39.2617993
 107.4991197  63.7344901  40.1346845 103.4503476  62.9090888  39.0816370
 104.3156473  62.7133697  38.7222259 103.5180985  62.6801240  40.0085727
 113.0648606  73.1988469  32.5526563 112.2878049  72.8599628  32.1081726
 113.7440087  73.2041092  31.8781529 107.8800635  68.3183206  32.4433171
 107.5750771  68.6329355  33.2943314 108.8331078  68.3964626  32.4860504
 106.3247067  74.4773430  34.0926125 105.7968429  73.7426189  33.7799363
 105.8234570  75.2548106  33.8466094 111.3039913  72.6722450  39.2093171
 110.6463588  73.3621711  39.2973300 112.1080313  73.0618882  39.5527158
 101.0565795  65.1393096  36.4532737 101.6309547  64.9168277  35.7205930
 101.6436777  65.2081790  37.2061338 110.1145372  71.0266823  37.2597113
 110.6277254  71.6596815  37.7618823 110.7646596  70.4268018  36.8940473
 101.3835382  67.1697557  30.4728622 100.5472694  67.5072243  30.7937897
 101.2440152  67.0346537  29.5355759 103.3588463  62.0134345  35.1807806
 102.7052875  61.6983362  34.5564421 103.3168937  61.3910085  35.9067629
 104.4699668  72.2953640  27.0961098 103.5626729  72.0642893  27.2952247
 104.9670700  71.4991259  27.2835080 107.3767746  81.0051147  30.0157784
 106.7029445  81.3082844  30.6242742 107.7633568  81.8080227  29.6663241
 106.5926203  68.5016278  39.5055454 105.6748764  68.7231225  39.3477142
 107.0086347  68.5762589  38.6467161 107.3761251  69.9007694  34.6358134
 108.1233070  70.4129091  34.3265256 107.6452840  69.5791747  35.4962528
 105.6487901  72.3966235  31.6185088 104.7399120  72.1125267  31.7157558
 105.6782985  72.8165313  30.7588395 110.8807168  76.0072824  35.3876256
 110.4269495  75.1663734  35.4441446 110.2501135  76.6434223  35.7251036
 109.8240088  66.9364810  36.6176923 109.0862845  66.4242196  36.9487166
 110.0766861  66.4965192  35.8060200 109.3240108  77.8449321  36.3226074
 109.6163082  78.4054378  35.6038440 109.8338728  78.1377882  37.0779233
 109.9251715  59.7141062  37.2118693 110.2310592  58.8538426  36.9244608
 110.6504320  60.3058682  37.0117686  96.2176071  70.1171749  35.6000291
  96.0200471  69.5241109  34.8751357  95.6622735  69.8123959  36.3176229
 104.1972795  70.0094855  37.7194884 104.2521405  69.0568692  37.6437360
 103.3863997  70.1654294  38.2036182 105.3463989  73.9374978  28.9573167
 104.9083419  73.2210837  28.4978804 106.0874430  74.1651093  28.3958258
 102.1365155  68.6271915  35.4785263 101.3233020  68.9266086  35.8850455
 102.6324149  68.2327604  36.1959745 104.2873733  78.6229672  37.4119527
 104.2449912  78.8490518  36.4828059 105.2036432  78.3893047  37.5605328
 107.7339367  69.0913739  44.3100156 108.0888754  69.3185213  45.1694622
 108.3811498  69.4232116  43.6877412 113.4637104  72.2132175  35.0149485
 113.3255002  72.4033771  34.0870675 113.1073322  72.9751558  35.4717537
 101.6279230  66.1990271  41.0946497 102.2678609  66.0579030  40.3969461
 100.7956760  65.9124784  40.7185099 113.4906483  74.2808702  40.0260757
 113.9242990  74.1883991  40.8743811 114.2038064  74.2566203  39.3880773
 102.4039534  75.4992701  37.2081490 103.1980132  75.0043021  37.0064065
 101.6931226  74.9710564  36.8449195 107.2234378  77.8810796  41.5593858
 107.2771400  78.4501733  42.3271573 106.3549159  78.0512682  41.1947895
  98.7122297  69.6435783  33.2841243  97.7819885  69.5820238  33.5011205
  98.8079769  69.1211735  32.4877884  98.6307846  66.1690596  35.8719484
  98.8914663  67.0835929  35.7628645  99.4525018  65.7015038  36.0216097
 100.1032771  67.5828353  43.0418309 100.7755825  67.3745715  42.3930958
  99.2762558  67.3850439  42.6023541 114.3522033  74.3232403  42.5593642
 114.5457923  75.2278214  42.8052917 114.2522651  73.8639822  43.3932227
 106.0058343  64.2090294  45.0583970 105.3586258  64.9080243  44.9648446
 106.7759359  64.6426438  45.4260218 109.4137141  74.4739146  48.1334523
 109.2622648  74.2449697  47.2164607 109.4041821  75.4309747  48.1465868
 106.1822478  72.0471059  43.1180789 107.1114538  72.1982218  42.9449757
 105.7613508  72.1355079  42.2629436 104.9810810  76.0721723  40.8879327
 104.8421895  75.7040507  41.7605265 104.1925406  76.5869362  40.7163285
 105.5758962  81.1730819  32.2304864 105.7510717  80.7018863  33.0450486
 104.8891750  81.7996586  32.4586124 106.5316025  75.4503326  38.2768165
 106.1965857  75.4104096  39.1725815 106.0319970  74.7848042  37.8038575
 100.5060269  70.8570956  43.8020746 100.3680067  70.1251194  44.4032285
 101.4165192  70.7679856  43.5204934 109.4675216  72.7959360  28.5505224
 108.8504387  72.0706188  28.4538277 108.9991705  73.5568720  28.2072299
 103.1342569  70.5690915  43.2904426 103.8442188  69.9284107  43.2491044
 103.0911878  70.8203810  44.2130606 111.1229348  77.5058268  46.2111005
 111.0641894  76.8217488  45.5441588 111.5248866  78.2477258  45.7591631
 101.8471503  67.5556133  45.1100065 101.3108860  67.1046871  45.7621661
 101.2588212  67.6902042  44.3670529 100.1420047  84.3220182  39.0044724
 100.3816645  84.9538706  39.6823742  99.2989243  83.9708222  39.2910083
 101.2573762  67.0144784  27.6726529 100.3803229  66.8933585  27.3088775
 101.7331515  66.2230863  27.4205417 111.1246755  75.4697852  44.4424984
 110.2373534  75.1323774  44.5651383 111.6945306  74.7380884  44.6793750
  92.7775902  71.8021944  37.7668036  93.4646942  71.4883674  37.1789051
  92.6224031  72.7063309  37.4935287  97.5810625  66.6912141  42.1953060
  97.4968813  66.0837810  41.4603470  96.7593331  67.1821159  42.1962556
 104.6547909  80.1299305  41.4086228 104.5818080  80.9354276  41.9205532
 104.2125302  80.3291270  40.5834249 104.4437688  79.3671075  34.9189049
 103.6605210  79.9092755  35.0127274 105.1430433  79.8845054  35.3183290
 107.7534338  65.1765704  37.5623255 108.2503038  64.4235666  37.2424325
 106.9821320  65.2130021  36.9966464 115.6064096  70.8806070  39.2041546
 115.5953972  71.7630785  38.8335479 114.7381475  70.5277620  39.0096083
 107.1146592  80.0286139  43.5644386 107.8274564  80.6633603  43.4920288
 106.6236621  80.1250005  42.7484388 108.8364119  73.9337391  35.1361678
 107.9020398  74.0538854  34.9666382 109.0140788  73.0309858  34.8721688
 104.3369307  67.3183087  37.2894939 103.9667095  66.7654127  37.9775845
 104.8328400  66.7141221  36.7369939 112.2236670  69.7754711  35.6711712
 112.6897123  70.6082702  35.5972015 112.6744171  69.3099692  36.3756971
 102.1658506  77.7780582  44.3849957 102.8667965  78.4117065  44.5379351
 101.6953621  78.1195314  43.6245596 110.2912902  76.1198532  32.6697864
 110.5672745  76.0055126  33.5791738 109.4217400  75.7216017  32.6310037
 110.1953333  62.1435298  39.7102614 109.2816413  62.3739524  39.8784820
 110.6246435  62.2273742  40.5616646 109.9659792  70.3325190  42.2102508
 109.3131242  70.5801097  41.5554960 110.3440172  69.5189328  41.8764985
 106.9266966  80.3684883  36.3130678 107.1089360  79.5506539  36.7758430
 107.7499952  80.5852575  35.8755568 107.2609131  79.2953068  33.5745726
 107.7896898  78.7845522  32.9615888 107.5237351  78.9795598  34.4391259
 106.0147365  71.0745001  48.6968545 105.3388002  70.9739130  49.3670920
 106.8374999  70.9184214  49.1604542  97.7626224  77.3116937  41.3181060
  98.3479661  76.5660625  41.4508964  97.5651062  77.6220894  42.2017724
 100.6164879  80.3468185  36.3343502  99.9475254  80.8314312  35.8507542
 100.4777749  80.5937405  37.2486881  92.3543879  69.8822537  40.0385503
  92.3927978  69.3486128  40.8322621  91.8484171  69.3557743  39.4196480
 104.7570148  82.3811928  42.9326161 105.3088456  82.5443550  43.6975246
 105.0976341  82.9716366  42.2606185  99.7334641  64.7287078  43.5348045
  99.7975967  65.5901909  43.1225443  99.6701761  64.1161080  42.8020404
  99.2086913  66.8010210  47.1821080  99.8358952  66.4187288  47.7958604
  98.3514832  66.5824412  47.5476772  95.9852456  68.6086640  33.1139434
  96.2805897  67.6997318  33.0606488  95.0840492  68.5874379  32.7920437
 107.8938535  80.3293904  39.9189843 107.7689674  79.5283643  39.4100788
 108.5517626  80.8240097  39.4303813  99.5146703  66.6842636  39.0966983
  98.7933289  67.2978604  38.9574456 100.3039959  67.2200401  39.0183629
 109.9573443  78.1302924  41.5469393 109.0103779  78.0108275  41.4747720
 110.3056216  77.2425422  41.6295654 102.3173017  64.0197063  45.3707635
 102.8407418  64.2659359  46.1333944 102.0985350  64.8517097  44.9510772
  97.7140298  66.2900737  33.2378760  97.3853004  65.4098116  33.0553865
  98.0679668  66.2348406  34.1255149 106.9619877  77.9255640  37.7473745
 106.8144839  76.9972347  37.9281315 107.7873370  77.9475731  37.2630820
 100.8282121  66.5773707  33.6054237 101.1678193  67.1059628  32.8832846
 101.2754241  66.9154113  34.3812804 110.5653998  78.7484199  38.8338618
 111.4900546  78.5427060  38.6963069 110.3969302  78.5000600  39.7427959
 103.5225562  64.9610758  43.0557305 103.1822382  64.1618571  43.4577985
 102.8164568  65.2612469  42.4834138 104.1742034  62.0460070  41.5084628
 104.9968103  61.5720548  41.3863519 104.4180097  62.8250554  42.0083315
 102.8150268  65.0748329  31.8047530 103.5358631  65.4529581  31.3011247
 102.1915572  65.7937205  31.9082508 106.9581391  65.7793478  32.7405862
 107.1745005  66.6618115  32.4394690 106.4775458  65.3879691  32.0111504
 101.6980612  68.7379191  39.3176607 101.5525193  69.0519494  40.2100888
 101.2205816  69.3564091  38.7647506 103.5576995  65.7281739  39.3657496
 103.5438564  64.8322832  39.0289794 104.2749423  65.7352403  39.9995783
 105.4103126  66.1619079  41.4110624 105.1520904  67.0836150  41.4094954
 104.8788166  65.7649513  42.1011088 110.3549315  79.2669866  34.1900709
 110.5286192  78.7016289  33.4374562 110.8478206  80.0670761  34.0080199
  96.1726274  71.2784535  42.2564268  95.6279743  72.0544343  42.3884542
  97.0505624  71.6255340  42.0983390 102.9613891  64.6096119  34.6345067
 103.0829802  63.6812765  34.8335954 102.6715933  64.6234805  33.7223382
 105.8305081  62.2951029  37.7711786 105.8526778  62.3590363  36.8163766
 106.2473140  61.4555538  37.9652293 116.2088706  72.0306289  35.8091009
 116.6519852  71.2813614  35.4110132 115.3315216  72.0216425  35.4264741
 111.3424487  78.5836630  31.2897608 112.0375392  79.2043323  31.5084922
 111.6847637  77.7331982  31.5649985  96.9592296  70.4054431  45.1494425
  96.2174032  70.5537067  45.7359055  96.6385041  70.6662697  44.2861174
 113.2415910  76.0336336  32.8184938 113.7667234  76.3723609  32.0934258
 113.1538263  75.0983351  32.6348073 104.9035959  79.9470410  44.9474815
 105.2123085  79.7019556  45.8197515 105.7011441  80.1517048  44.4593685
 104.9256571  82.1008319  37.1780192 104.4861561  81.6084698  37.8713048
 105.6764688  81.5581287  36.9372267  97.4048910  78.2919860  37.1804820
  98.2306930  77.9923632  36.8003463  97.0542962  77.5227483  37.6294608
 102.3730443  77.6446328  39.2502493 101.7510452  76.9817033  38.9504721
 103.0435310  77.6707460  38.5676141  95.6057515  76.2106187  38.1393753
  94.7689423  75.7828361  37.9577754  95.5781160  76.4038630  39.0764544
 102.4454971  66.1228116  48.8434999 102.4943126  66.9990239  48.4612769
 102.9877485  65.5805509  48.2706642 113.0507691  73.5161706  45.4368865
 113.1005696  73.3511713  46.3784388 112.9421615  72.6488965  45.0466746
 101.9343950  76.1950252  32.7260954 102.0832070  76.8785716  32.0727626
 102.7410394  76.1755342  33.2410409 110.3411454  69.4992634  46.7528172
 111.2421317  69.3599099  46.4612169 110.4159428  69.6647089  47.6926349
 104.6754259  66.8759489  45.5981358 103.8057568  67.1693055  45.3263946
 104.9113739  67.4599934  46.3188622 114.5525888  75.9358648  45.6810886
 114.2610696  76.2988628  46.5174347 113.9398019  75.2225656  45.5024218
 115.7521571  73.5011527  38.2013457 116.5868462  73.9401331  38.3651017
 115.8880699  73.0250181  37.3821702 112.8013076  71.0591262  44.1490944
 113.2767198  71.2518908  43.3409796 111.8778642  71.1150448  43.9034328
  99.6896583  72.2215429  33.7322023  99.4442625  71.3177759  33.9302233
  99.8592498  72.2232580  32.7901501 107.3793293  63.0939106  43.1146778
 107.8975237  63.8300133  42.7893267 107.0248426  63.4003099  43.9493537
  98.9592231  67.9543787  31.2308184  98.2661476  68.0288142  30.5748220
  98.7143982  67.1904131  31.7529701 107.6305887  59.5139388  38.6347675
 107.9107641  58.8462577  39.2608101 108.4156494  59.7068484  38.1222339
 105.4339356  78.6898382  30.1972701 104.8613323  79.3088569  29.7443173
 106.0072149  79.2397744  30.7312623 111.5014745  67.9357022  42.3819250
 112.4532168  68.0355120  42.4031474 111.3318196  67.1435291  42.8917334
 109.5229125  65.0212605  42.5678651 108.9279057  65.3017618  41.8725140
 109.2378822  65.5106506  43.3395392 108.6536615  78.9735532  31.3281283
 109.5867289  78.9081094  31.5314159 108.5659828  79.8091799  30.8695816
 111.2824632  78.2901403  28.2885231 111.2038264  77.9561266  29.1820989
 112.1034299  78.7823171  28.2876703 113.9802823  71.1563142  41.4961550
 113.9479143  70.2179143  41.6821233 114.5903447  71.2347179  40.7627374
 105.8186154  70.0259195  27.5388754 106.7645259  69.8965403  27.6077172
 105.4400399  69.2873857  28.0158182 114.1297312  67.9474185  41.5419833
 113.6136360  67.1632642  41.3549762 115.0137260  67.6192902  41.7066352
 111.7908039  61.6915201  37.5015645 111.5932860  61.3830289  38.3858977
 112.4007744  62.4176840  37.6313575 119.7979373  72.2179149  40.6367586
 120.5282762  71.9564437  41.1975290 119.1886319  71.4807871  40.6769654
 117.8794670  70.3587011  41.2342038 117.1527834  70.2242976  40.6258529
 117.4641957  70.6663840  42.0398756 105.7024847  74.0776941  48.9989411
 106.6227856  74.2555540  49.1929457 105.6674430  73.1332986  48.8469110
 104.0029071  67.9509171  27.4743639 103.0960527  67.6542284  27.5506352
 104.2805052  67.6538989  26.6077925  94.9207012  69.2715535  37.9242685
  94.6009796  68.4180843  37.6317059  94.3740440  69.4864113  38.6800653
  98.6986919  71.9877976  41.6412192  98.9172929  72.9195084  41.6600226
  99.1112693  71.6285950  42.4266996 105.6191137  62.4946061  33.6287880
 104.8091865  62.1493146  34.0043126 106.3075554  62.1853605  34.2175492
 107.5481685  61.5724108  35.2512177 108.1012724  61.9919561  35.9102200
 107.7851772  60.6459856  35.2935133 103.5714784  67.5611181  51.0314941
 103.4711511  68.5105538  50.9627032 103.3536327  67.2329420  50.1591011
 102.7727856  64.8096107  27.6155618 103.6347020  65.1351005  27.8751435
 102.9578200  64.0227602  27.1028684  94.7895272  72.8918446  39.8935807
  94.0958743  72.4772399  39.3805761  95.5368263  72.9338983  39.2969226
 110.9260492  63.6824633  34.7590841 110.3459161  64.3409437  34.3768893
 110.6596425  62.8601978  34.3478259 109.3764059  63.0829691  36.9612161
 109.8763837  63.1946225  36.1526480 110.0199667  62.7790744  37.6012970
 103.4346055  70.9908320  49.8480002 102.9513136  71.7908680  50.0543891
 103.5206994  71.0016265  48.8947446  96.7032014  72.8236700  37.7701822
  96.6802702  72.9224387  36.8183705  97.0132651  73.6701851  38.0918988
  99.3619392  74.8812855  41.8848436 100.3162646  74.8496797  41.8178368
  99.1631916  74.4203479  42.6998662  99.9518774  73.4513971  44.4519234
 100.7711663  73.9458050  44.4754071 100.2255582  72.5345939  44.4236801
 109.7085370  65.8424723  33.8147189 108.8211225  66.1274374  33.5967384
 110.1239359  65.6818487  32.9674466 113.0599906  65.8671244  37.5301529
 113.8360297  66.3567697  37.8026145 112.3348041  66.2929299  37.9873398
 115.4972465  66.5798864  38.5875469 116.0916956  66.3394600  37.8768777
 115.5699049  65.8605994  39.2149005  97.7169621  80.4232475  38.9018634
  97.5824089  79.6632875  38.3356632  97.3001683  81.1473374  38.4347423
 108.8528584  75.6069398  27.9095209 109.5564434  75.8119401  28.5252865
 108.1291233  76.1746160  28.1744293 109.6826394  71.3579259  34.0297479
 109.6261596  71.8147811  33.1905112 110.2354737  70.5969944  33.8520322
 113.4931200  67.1468991  34.8547599 113.2368134  66.7465627  35.6855807
 112.8684068  67.8612785  34.7297738 117.8043538  69.8865064  37.3618890
 117.2443096  69.9558254  38.1350452 117.1987041  69.7106049  36.6418387
 100.8738747  81.3201792  39.1137077 100.7571131  82.2647224  39.0115767
 100.0531193  81.0175353  39.5022876 110.7615281  76.0451927  29.9593669
 111.5960885  75.6133126  29.7771144 110.5999624  75.8733941  30.8870564
 110.4161173  72.5484041  31.3250009 110.3609977  72.3828312  30.3838453
 109.7907229  73.2560073  31.4812198  95.2053688  67.7852105  45.1511431
  95.8512552  67.2751059  45.6398656  94.9970840  68.5220787  45.7254856
 107.7307081  74.8532952  50.6503571 108.5998240  75.0273605  50.2890206
 107.2513832  75.6727369  50.5279301 103.7257299  62.0492150  30.9035327
 103.7135969  62.9933989  31.0603598 104.6180721  61.8662295  30.6094788
 101.8993261  81.9730053  42.3293005 102.8020508  82.0053664  42.6459500
 101.6730631  81.0430504  42.3439341 103.6546863  80.7261040  38.9903084
 102.7042494  80.7262902  38.8767456 103.9579349  79.9793775  38.4739118
 107.5409418  58.6434926  35.1581264 106.7741814  58.0893413  35.3037946
 107.9520123  58.7156795  36.0195415  99.5451179  64.9319722  49.2486445
 100.4082641  64.5756527  49.4589770  98.9716590  64.5933617  49.9361849
 119.3899556  86.5621578  40.0548846 120.0277966  86.4428326  39.3512186
 119.2720399  87.5102422  40.1136798 116.1989263  86.5149006  39.9910371
 115.8607774  86.3990071  39.1030906 117.0679031  86.1140172  39.9711377
 112.0576078  88.3684483  35.9807262 111.4940943  88.2774420  35.2123550
 111.9428473  87.5484387  36.4609754 116.6809046  87.6683858  45.9496576
 116.6697686  87.2736656  45.0777080 116.8429685  86.9349931  46.5430348
 109.6040510  89.8635674  38.8191482 110.3961802  89.5226499  38.4037782
 109.8437160  89.9730650  39.7393636 117.6375637  92.0355451  31.2921727
 116.9863617  92.6209531  30.9055740 118.4320000  92.5661645  31.3516764
 111.5631264  89.1244588  31.6908861 112.3362140  88.5773575  31.5521737
 111.9156663  89.9888837  31.9023322 113.4016307  90.4520970  44.8975760
 113.1106173  91.3566601  44.7822427 114.0373291  90.4937498  45.6119830
 114.3272514  87.8297819  41.4877120 114.9236086  87.6053841  40.7734083
 114.3847485  87.0882564  42.0902568 113.8997542  85.2837254  29.3227311
 114.1523063  84.7618775  28.5610774 112.9622101  85.1203399  29.4253995
 118.9440825  84.2873032  37.1302054 119.7303914  83.8692455  36.7792471
 119.2079529  85.1919124  37.2983703 119.1150902  89.7245883  31.8290711
 118.4796735  89.7980509  32.5411616 118.7848309  90.3139481  31.1509790
 124.3449252  84.2248265  38.0335033 125.0774424  83.6547482  38.2672862
 123.5888608  83.8369866  38.4741538 113.6193831  87.1865360  31.5251686
 113.5030089  86.5110263  32.1932770 113.7296091  86.6997734  30.7083839
 115.9625372  86.6475507  35.2298375 115.5983579  86.1206128  35.9411297
 116.8192488  86.2573976  35.0564861 121.8674672  77.9369840  42.4929641
 121.5357997  78.8065250  42.2690856 121.2720286  77.6206124  43.1723672
 115.6030859  81.6765407  30.2259724 115.7705261  82.5445643  30.5930195
 115.4128028  81.8392688  29.3021013 118.3606192  90.1382386  41.8925554
 118.0606915  91.0407424  41.7841361 118.0157251  89.8714569  42.7446707
 111.8118673  86.5896182  37.9262258 110.8869170  86.4572396  38.1339950
 112.0603086  87.3690402  38.4232201 121.7603336  82.6564926  39.5722991
 120.8520213  82.5880334  39.2781752 121.7090931  83.1336871  40.4004817
 115.5820080  84.1323064  31.2106390 115.4619705  84.5780115  32.0491871
 114.8872668  84.4808382  30.6519929 109.1727484  86.2329456  38.7606048
 109.3019866  86.4863935  39.6745459 108.4924936  86.8257164  38.4410703
 113.3426972  96.9026706  34.8596522 113.2651001  97.8534531  34.9385002
 112.7388615  96.5572578  35.5171448 115.8344201  84.0754571  47.5157889
 115.0577535  84.6348491  47.5060753 116.4734764  84.5611354  48.0372759
 123.6264982  80.8581364  41.3500865 122.9839362  81.1513897  40.7040660
 123.1219911  80.7434284  42.1554062 121.2805146  84.6044537  32.0386725
 122.1923002  84.8371924  31.8634422 120.7714793  85.1881581  31.4761803
 114.0890574  86.8840025  47.0775856 114.8305258  87.4225069  46.8010679
 113.3827559  87.5106313  47.2347407 119.5645913  89.0269165  45.6748017
 119.9729269  88.5851576  44.9302649 118.8423175  88.4521793  45.9282210
 115.9176983  83.9641772  43.0481574 116.7638179  84.3881185  43.1916223
 115.8575621  83.3075396  43.7420137 119.8874728  89.5870356  39.4300306
 119.2583590  89.7516070  38.7276374 119.5000390  90.0011965  40.2011270
 123.7663960  90.5224794  36.7844670 123.0814998  90.9023695  36.2341703
 123.8507809  91.1320120  37.5176618 119.0676429  81.6246140  44.7062748
 118.8237361  82.3788201  44.1697023 119.3436359  82.0031488  45.5409995
 121.0214891  88.1684753  43.3840013 121.2331787  88.8116512  42.7074394
 120.9744640  87.3347069  42.9161943 118.6241120  80.7802573  40.2876585
 117.7625599  81.0783827  40.5793323 118.6503555  80.9972972  39.3557618
 115.4402690  89.3244764  36.6950391 115.9041035  89.6032467  35.9055014
 115.1759488  88.4228208  36.5123482 112.3326771  88.8716245  39.6330154
 112.9028128  89.3003514  38.9947639 112.9234883  88.5898830  40.3314340
 114.3771576  85.4467916  33.5039956 115.0795619  85.8988960  33.9713883
 114.0452204  84.8051735  34.1319849 112.8251937  84.0379673  47.8791166
 112.1950598  84.7195954  48.1126562 112.7188025  83.9262754  46.9344304
 108.1196910  83.7051469  38.8057090 107.3295964  83.9608997  38.3297200
 108.6108157  84.5199807  38.9109130 122.1360719  91.0456708  41.5562371
 122.9578163  90.6436895  41.2745052 122.1323122  90.9424942  42.5078486
 110.0711655  84.0696048  35.7640566 109.2742819  84.1814742  36.2824062
 109.8437247  84.4082700  34.8981457 115.9017323  90.5940751  43.7123081
 115.9661755  91.0561159  44.5481253 115.1928247  89.9638116  43.8405391
 106.4034613  83.9581959  41.2372081 106.6542651  84.8428969  41.5029657
 106.9394161  83.7786561  40.4647172 130.2266712  87.3895457  37.9047342
 129.4730421  86.8202855  37.7491347 130.3614254  87.3558121  38.8517977
 115.6165341  92.2608859  33.5802061 115.4811015  93.1060395  34.0086909
 116.1575153  92.4628136  32.8167995 109.0694738  89.7784297  34.1529987
 109.5819258  90.5727547  34.3035551 109.7217451  89.0810587  34.0863588
 110.8789623  92.8950053  36.2352740 111.0556251  93.8168018  36.0473724
 111.6746456  92.5808472  36.6647119 115.0200641  79.7558318  47.8336673
 115.7610355  80.3565471  47.7541136 115.2518564  79.0135956  47.2754716
 110.1641979  84.9414685  46.1114903 110.0495494  84.0399942  46.4122002
 109.3086497  85.1878382  45.7599719 117.2433817  92.8832425  47.7102404
 116.7997671  92.0968804  47.3923308 117.9051030  93.0711576  47.0446294
 112.0020938  94.4128227  42.2363082 112.5528363  94.2845290  41.4640076
 111.1632414  94.7123116  41.8857975 119.3415055  93.1635225  45.7383805
 119.3233530  93.9844106  45.2464074 120.2634975  93.0389300  45.9633946
 115.7988109  90.6779355  46.5807313 116.3316446  89.9167643  46.3506621
 115.2702190  90.3853007  47.3231468 118.9657804  75.7839421  42.1100955
 118.6222073  76.6741062  42.0340065 119.3336767  75.5941078  41.2470540
 107.0343655  88.1072951  34.9289557 107.8718877  88.5169960  34.7123265
 107.2121922  87.1672393  34.8989751 118.9308087  85.7748032  30.6173390
 118.4154710  86.5452636  30.8561777 118.6585395  85.1013168  31.2406451
 116.5155198  80.6197733  35.6758628 115.6596794  80.2304583  35.4964267
 116.9282150  80.6989693  34.8158414 118.0454344  78.1544076  40.0750188
 117.5419140  78.1174211  39.2617993 118.3384951  79.0636819  40.1346845
 114.2897230  78.2382806  39.0816370 115.1550227  78.0425614  38.7222259
 114.3574739  78.0093157  40.0085727 123.9042361  88.5280386  32.5526563
 123.1271804  88.1891546  32.1081726 124.5833842  88.5333010  31.8781529
 118.7194390  83.6475124  32.4433171 118.4144526  83.9621273  33.2943314
 119.6724832  83.7256544  32.4860504 117.1640822  89.8065347  34.0926125
 116.6362183  89.0718107  33.7799363 116.6628325  90.5840024  33.8466094
 122.1433668  88.0014368  39.2093171 121.4857342  88.6913629  39.2973300
 122.9474067  88.3910800  39.5527158 111.8959549  80.4685013  36.4532737
 112.4703301  80.2460195  35.7205930 112.4830532  80.5373708  37.2061338
 120.9539127  86.3558740  37.2597113 121.4671008  86.9888732  37.7618823
 121.6040351  85.7559936  36.8940473 112.2229137  82.4989475  30.4728622
 111.3866449  82.8364161  30.7937897 112.0833906  82.3638454  29.5355759
 114.1982217  77.3426262  35.1807806 113.5446629  77.0275280  34.5564421
 114.1562691  76.7202003  35.9067629 115.3093422  87.6245557  27.0961098
 114.4020484  87.3934811  27.2952247 115.8064454  86.8283177  27.2835080
 118.2161501  96.3343065  30.0157784 117.5423200  96.6374761  30.6242742
 118.6027323  97.1372145  29.6663241 117.4319958  83.8308196  39.5055454
 116.5142519  84.0523143  39.3477142 117.8480101  83.9054506  38.6467161
 118.2155005  85.2299612  34.6358134 118.9626824  85.7421009  34.3265256
 118.4846595  84.9083664  35.4962528 116.4881655  87.7258152  31.6185088
 115.5792875  87.4417185  31.7157558 116.5176739  88.1457231  30.7588395
 121.7200923  91.3364742  35.3876256 121.2663250  90.4955652  35.4441446
 121.0894890  91.9726140  35.7251036 120.6633842  82.2656728  36.6176923
 119.9256599  81.7534114  36.9487166 120.9160616  81.8257109  35.8060200
 120.1633862  93.1741239  36.3226074 120.4556836  93.7346296  35.6038440
 120.6732483  93.4669800  37.0779233 120.7645470  75.0432980  37.2118693
 121.0704347  74.1830343  36.9244608 121.4898075  75.6350600  37.0117686
 107.0569826  85.4463666  35.6000291 106.8594226  84.8533027  34.8751357
 106.5016490  85.1415877  36.3176229 115.0366549  85.3386773  37.7194884
 115.0915159  84.3860609  37.6437360 114.2257752  85.4946212  38.2036182
 116.1857743  89.2666896  28.9573167 115.7477173  88.5502755  28.4978804
 116.9268184  89.4943011  28.3958258 112.9758909  83.9563833  35.4785263
 112.1626775  84.2558003  35.8850455 113.4717904  83.5619521  36.1959745
 115.1267487  93.9521590  37.4119527 115.0843666  94.1782436  36.4828059
 116.0430186  93.7184964  37.5605328 118.5733121  84.4205657  44.3100156
 118.9282509  84.6477130  45.1694622 119.2205252  84.7524034  43.6877412
 124.3030858  87.5424093  35.0149485 124.1648757  87.7325689  34.0870675
 123.9467077  88.3043476  35.4717537 112.4672984  81.5282188  41.0946497
 113.1072363  81.3870947  40.3969461 111.6350515  81.2416702  40.7185099
 124.3300238  89.6100620  40.0260757 124.7636744  89.5175909  40.8743811
 125.0431818  89.5858121  39.3880773 113.2433288  90.8284619  37.2081490
 114.0373887  90.3334939  37.0064065 112.5324980  90.3002482  36.8449195
 118.0628133  93.2102714  41.5593858 118.1165155  93.7793650  42.3271573
 117.1942914  93.3804599  41.1947895 109.5516052  84.9727700  33.2841243
 108.6213640  84.9112156  33.5011205 109.6473524  84.4503653  32.4877884
 109.4701601  81.4982513  35.8719484 109.7308418  82.4127846  35.7628645
 110.2918773  81.0306956  36.0216097 110.9426526  82.9120270  43.0418309
 111.6149579  82.7037633  42.3930958 110.1156312  82.7142356  42.6023541
 125.1915787  89.6524321  42.5593642 125.3851677  90.5570131  42.8052917
 125.0916405  89.1931740  43.3932227 116.8452098  79.5382211  45.0583970
 116.1980013  80.2372161  44.9648446 117.6153113  79.9718355  45.4260218
 120.2530896  89.8031063  48.1334523 120.1016402  89.5741615  47.2164607
 120.2435575  90.7601665  48.1465868 117.0216232  87.3762976  43.1180789
 117.9508292  87.5274136  42.9449757 116.6007262  87.4646997  42.2629436
 115.8204564  91.4013641  40.8879327 115.6815650  91.0332425  41.7605265
 115.0319160  91.9161280  40.7163285 116.4152716  96.5022737  32.2304864
 116.5904472  96.0310780  33.0450486 115.7285504  97.1288503  32.4586124
 117.3709779  90.7795243  38.2768165 117.0359612  90.7396013  39.1725815
 116.8713725  90.1139959  37.8038575 111.3454023  86.1862873  43.8020746
 111.2073821  85.4543112  44.4032285 112.2558947  86.0971773  43.5204934
 120.3068971  88.1251278  28.5505224 119.6898142  87.3998106  28.4538277
 119.8385459  88.8860638  28.2072299 113.9736324  85.8982833  43.2904426
 114.6835942  85.2576025  43.2491044 113.9305632  86.1495728  44.2130606
 121.9623103  92.8350186  46.2111005 121.9035649  92.1509406  45.5441588
 122.3642621  93.5769176  45.7591631 112.6865258  82.8848051  45.1100065
 112.1502615  82.4338789  45.7621661 112.0981966  83.0193959  44.3670529
 110.9813801  99.6512100  39.0044724 111.2210400 100.2830624  39.6823742
 110.1382998  99.3000140  39.2910083 112.0967517  82.3436702  27.6726529
 111.2196983  82.2225503  27.3088775 112.5725270  81.5522780  27.4205417
 121.9640510  90.7989770  44.4424984 121.0767289  90.4615692  44.5651383
 122.5339061  90.0672801  44.6793750 103.6169657  87.1313862  37.7668036
 104.3040697  86.8175592  37.1789051 103.4617786  88.0355226  37.4935287
 108.4204379  82.0204058  42.1953060 108.3362568  81.4129728  41.4603470
 107.5987085  82.5113077  42.1962556 115.4941663  95.4591222  41.4086228
 115.4211835  96.2646194  41.9205532 115.0519056  95.6583188  40.5834249
 115.2831443  94.6962992  34.9189049 114.4998965  95.2384673  35.0127274
 115.9824188  95.2136972  35.3183290 118.5928093  80.5057622  37.5623255
 119.0896792  79.7527584  37.2424325 117.8215074  80.5421938  36.9966464
 126.4457850  86.2097987  39.2041546 126.4347727  87.0922703  38.8335479
 125.5775230  85.8569538  39.0096083 117.9540347  95.3578056  43.5644386
 118.6668319  95.9925521  43.4920288 117.4630375  95.4541922  42.7484388
 119.6757874  89.2629309  35.1361678 118.7414152  89.3830771  34.9666382
 119.8534542  88.3601776  34.8721688 115.1763062  82.6475005  37.2894939
 114.8060849  82.0946045  37.9775845 115.6722154  82.0433138  36.7369939
 123.0630425  85.1046628  35.6711712 123.5290877  85.9374620  35.5972015
 123.5137925  84.6391610  36.3756971 113.0052260  93.1072500  44.3849957
 113.7061720  93.7408983  44.5379351 112.5347375  93.4487231  43.6245596
 121.1306656  91.4490450  32.6697864 121.4066500  91.3347044  33.5791738
 120.2611155  91.0507934  32.6310037 121.0347088  77.4727215  39.7102614
 120.1210168  77.7031442  39.8784820 121.4640189  77.5565659  40.5616646
 120.8053546  85.6617107  42.2102508 120.1524996  85.9093015  41.5554960
 121.1833926  84.8481245  41.8764985 117.7660720  95.6976800  36.3130678
 117.9483115  94.8798456  36.7758430 118.5893706  95.9144493  35.8755568
 118.1002886  94.6244986  33.5745726 118.6290652  94.1137440  32.9615888
 118.3631105  94.3087516  34.4391259 116.8541119  86.4036918  48.6968545
 116.1781756  86.3031048  49.3670920 117.6768753  86.2476132  49.1604542
 111.4558634  95.6760102  36.3343502 110.7869009  96.1606230  35.8507542
 111.3171503  95.9229323  37.2486881 103.1937633  85.2114455  40.0385503
 103.2321733  84.6778046  40.8322621 102.6877926  84.6849661  39.4196480
 115.5963902  97.7103846  42.9326161 116.1482210  97.8735467  43.6975246
 115.9370096  98.3008284  42.2606185 110.5728395  80.0578996  43.5348045
 110.6369722  80.9193826  43.1225443 110.5095516  79.4452997  42.8020404
 110.0480668  82.1302128  47.1821080 110.6752707  81.7479205  47.7958604
 109.1908587  81.9116330  47.5476772 120.4474776  92.5365103  48.7874815
 120.9914680  93.1495062  48.2929770 119.8661621  93.0944682  49.3041828
 106.8246211  83.9378557  33.1139434 107.1199652  83.0289236  33.0606488
 105.9234246  83.9166297  32.7920437 118.7332289  95.6585821  39.9189843
 118.6083429  94.8575561  39.4100788 119.3911381  96.1532015  39.4303813
 110.3540458  82.0134554  39.0966983 109.6327043  82.6270521  38.9574456
 111.1433713  82.5492319  39.0183629 120.7967198  93.4594841  41.5469393
 119.8497533  93.3400193  41.4747720 121.1449971  92.5717339  41.6295654
 113.1566771  79.3488980  45.3707635 113.6801173  79.5951277  46.1333944
 112.9379104  80.1809015  44.9510772 108.5534052  81.6192655  33.2378760
 108.2246758  80.7390034  33.0553865 108.9073423  81.5640324  34.1255149
 117.8013631  93.2547558  37.7473745 117.6538594  92.3264265  37.9281315
 118.6267125  93.2767648  37.2630820 111.6675875  81.9065625  33.6054237
 112.0071948  82.4351546  32.8832846 112.1147996  82.2446031  34.3812804
 121.4047753  94.0776116  38.8338618 122.3294300  93.8718978  38.6963069
 121.2363056  93.8292517  39.7427959 114.3619316  80.2902675  43.0557305
 114.0216137  79.4910488  43.4577985 113.6558322  80.5904386  42.4834138
 115.0135788  77.3751988  41.5084628 115.8361857  76.9012466  41.3863519
 115.2573852  78.1542472  42.0083315 113.6544023  80.4040246  31.8047530
 114.3752385  80.7821499  31.3011247 113.0309327  81.1229123  31.9082508
 117.7975145  81.1085395  32.7405862 118.0138760  81.9910033  32.4394690
 117.3169213  80.7171609  32.0111504 112.5374367  84.0671108  39.3176607
 112.3918947  84.3811412  40.2100888 112.0599570  84.6856009  38.7647506
 114.3970750  81.0573656  39.3657496 114.3832318  80.1614750  39.0289794
 115.1143178  81.0644320  39.9995783 116.2496880  81.4910997  41.4110624
 115.9914658  82.4128067  41.4094954 115.7181921  81.0941431  42.1011088
 121.1943069  94.5961784  34.1900709 121.3679947  94.0308206  33.4374562
 121.6871960  95.3962679  34.0080199 107.0120029  86.6076453  42.2564268
 106.4673497  87.3836261  42.3884542 107.8899379  86.9547257  42.0983390
 113.8007646  79.9388037  34.6345067 113.9223557  79.0104683  34.8335954
 113.5109688  79.9526723  33.7223382 116.6698836  77.6242947  37.7711786
 116.6920533  77.6882280  36.8163766 117.0866895  76.7847456  37.9652293
 127.0482460  87.3598207  35.8091009 127.4913606  86.6105532  35.4110132
 126.1708971  87.3508343  35.4264741 122.1818242  93.9128548  31.2897608
 122.8769146  94.5335241  31.5084922 122.5241392  93.0623899  31.5649985
 124.0809665  91.3628254  32.8184938 124.6060989  91.7015526  32.0934258
 123.9932017  90.4275269  32.6348073 115.7429713  95.2762327  44.9474815
 116.0516840  95.0311474  45.8197515 116.5405195  95.4808966  44.4593685
 115.7650325  97.4300237  37.1780192 115.3255316  96.9376616  37.8713048
 116.5158442  96.8873205  36.9372267 108.2442664  93.6211778  37.1804820
 109.0700684  93.3215550  36.8003463 107.8936716  92.8519400  37.6294608
 113.2124198  92.9738246  39.2502493 112.5904207  92.3108951  38.9504721
 113.8829065  92.9999378  38.5676141 106.4451270  91.5398104  38.1393753
 105.6083178  91.1120279  37.9577754 106.4174915  91.7330548  39.0764544
 113.2848725  81.4520034  48.8434999 113.3336881  82.3282157  48.4612769
 113.8271239  80.9097427  48.2706642 123.7703571  91.9961157  48.1236136
 122.9799115  91.9785296  47.5840636 123.5336925  92.5349451  48.8785173
 123.8901446  88.8453624  45.4368865 123.9399451  88.6803631  46.3784388
 123.7815369  87.9780883  45.0466746 112.7737705  91.5242169  32.7260954
 112.9225825  92.2077634  32.0727626 113.5804148  91.5047259  33.2410409
 121.1805208  84.8284552  46.7528172 122.0815071  84.6891017  46.4612169
 121.2553183  84.9939007  47.6926349 115.5148014  82.2051406  45.5981358
 114.6451323  82.4984973  45.3263946 115.7507494  82.7891851  46.3188622
 125.3919643  91.2650565  45.6810886 125.1004451  91.6280546  46.5174347
 124.7791774  90.5517574  45.5024218 126.5915325  88.8303445  38.2013457
 127.4262216  89.2693249  38.3651017 126.7274454  88.3542098  37.3821702
 123.6406831  86.3883180  44.1490944 124.1160953  86.5810826  43.3409796
 122.7172396  86.4442366  43.9034328 110.5290338  87.5507347  33.7322023
 110.2836379  86.6469677  33.9302233 110.6986252  87.5524497  32.7901501
 118.2187047  78.4231023  43.1146778 118.7368991  79.1592050  42.7893267
 117.8642180  78.7295017  43.9493537 109.7985985  83.2835705  31.2308184
 109.1055230  83.3580060  30.5748220 109.5537737  82.5196048  31.7529701
 118.4699642  74.8431306  38.6347675 118.7501395  74.1754495  39.2608101
 119.2550249  75.0360402  38.1222339 116.2733110  94.0190300  30.1972701
 115.7007077  94.6380487  29.7443173 116.8465904  94.5689662  30.7312623
 122.3408500  83.2648940  42.3819250 123.2925923  83.3647038  42.4031474
 122.1711950  82.4727208  42.8917334 120.3622879  80.3504523  42.5678651
 119.7672812  80.6309536  41.8725140 120.0772576  80.8398424  43.3395392
 119.4930370  94.3027450  31.3281283 120.4261043  94.2373012  31.5314159
 119.4053583  95.1383717  30.8695816 122.1218387  93.6193320  28.2885231
 122.0432018  93.2853184  29.1820989 122.9428053  94.1115088  28.2876703
 124.8196578  86.4855060  41.4961550 124.7872898  85.5471060  41.6821233
 125.4297201  86.5639096  40.7627374 116.6579909  85.3551113  27.5388754
 117.6039013  85.2257321  27.6077172 116.2794154  84.6165775  28.0158182
 124.9691066  83.2766103  41.5419833 124.4530115  82.4924560  41.3549762
 125.8531015  82.9484820  41.7066352 122.6301793  77.0207119  37.5015645
 122.4326614  76.7122207  38.3858977 123.2401499  77.7468758  37.6313575
 130.6373128  87.5471066  40.6367586 131.3676516  87.2856355  41.1975290
 130.0280073  86.8099788  40.6769654 128.7188425  85.6878929  41.2342038
 127.9921588  85.5534894  40.6258529 128.3035712  85.9955758  42.0398756
 116.5418601  89.4068859  48.9989411 117.4621611  89.5847458  49.1929457
 116.5068184  88.4624904  48.8469110 114.8422826  83.2801089  27.4743639
 113.9354281  82.9834202  27.5506352 115.1198807  82.9830907  26.6077925
 105.7600766  84.6007452  37.9242685 105.4403550  83.7472761  37.6317059
 105.2134194  84.8156031  38.6800653 109.5380674  87.3169893  41.6412192
 109.7566683  88.2487001  41.6600226 109.9506447  86.9577868  42.4266996
 116.4584891  77.8237979  33.6287880 115.6485620  77.4785064  34.0043126
 117.1469308  77.5145522  34.2175492 118.3875440  76.9016026  35.2512177
 118.9406478  77.3211479  35.9102200 118.6245526  75.9751774  35.2935133
 113.6121610  80.1388024  27.6155618 114.4740774  80.4642923  27.8751435
 113.7971955  79.3519520  27.1028684 105.6289026  88.2210364  39.8935807
 104.9352498  87.8064317  39.3805761 106.3762017  88.2630900  39.2969226
 121.7654247  79.0116551  34.7590841 121.1852916  79.6701355  34.3768893
 121.4990180  78.1893895  34.3478259 120.2157813  78.4121608  36.9612161
 120.7157592  78.5238143  36.1526480 120.8593421  78.1082661  37.6012970
 107.5425769  88.1528618  37.7701822 107.5196457  88.2516305  36.8183705
 107.8526405  88.9993768  38.0918988 110.2013147  90.2104773  41.8848436
 111.1556400  90.1788715  41.8178368 110.0025670  89.7495396  42.6998662
 110.7912529  88.7805889  44.4519234 111.6105418  89.2749967  44.4754071
 111.0649336  87.8637857  44.4236801 120.5479125  81.1716641  33.8147189
 119.6604980  81.4566292  33.5967384 120.9633114  81.0110404  32.9674466
 123.8993661  81.1963162  37.5301529 124.6754051  81.6859614  37.8026145
 123.1741795  81.6221216  37.9873398 126.3366220  81.9090781  38.5875469
 126.9310710  81.6686517  37.8768777 126.4092803  81.1897912  39.2149005
 108.5563375  95.7524392  38.9018634 108.4217843  94.9924793  38.3356632
 108.1395438  96.4765292  38.4347423 119.6922338  90.9361316  27.9095209
 120.3958188  91.1411318  28.5252865 118.9684987  91.5038078  28.1744293
 120.5220149  86.6871177  34.0297479 120.4655350  87.1439728  33.1905112
 121.0748491  85.9261862  33.8520322 124.3324955  82.4760909  34.8547599
 124.0761889  82.0757545  35.6855807 123.7077823  83.1904703  34.7297738
 128.6437292  85.2156982  37.3618890 128.0836850  85.2850171  38.1350452
 128.0380796  85.0397967  36.6418387 111.7132501  96.6493709  39.1137077
 111.5964885  97.5939142  39.0115767 110.8924947  96.3467271  39.5022876
 121.6009036  91.3743845  29.9593669 122.4354640  90.9425043  29.7771144
 121.4393379  91.2025859  30.8870564 121.2554928  87.8775958  31.3250009
 121.2003732  87.7120230  30.3838453 120.6300983  88.5851991  31.4812198
 118.5700835  90.1824870  50.6503571 119.4391995  90.3565522  50.2890206
 118.0907587  91.0019287  50.5279301 114.5651053  77.3784067  30.9035327
 114.5529723  78.3225907  31.0603598 115.4574475  77.1954213  30.6094788
 112.7387015  97.3021971  42.3293005 113.6414262  97.3345581  42.6459500
 112.5124385  96.3722422  42.3439341 114.4940617  96.0552958  38.9903084
 113.5436248  96.0554819  38.8767456 114.7973103  95.3085692  38.4739118
 118.3803173  73.9726844  35.1581264 117.6135569  73.4185331  35.3037946
 118.7913878  74.0448713  36.0195415 130.2293311 101.8913496  40.0548846
 130.8671721 101.7720243  39.3512186 130.1114154 102.8394340  40.1136798
 127.0383017 101.8440924  39.9910371 126.7001529 101.7281989  39.1030906
 127.9072785 101.4432089  39.9711377 122.8969833 103.6976401  35.9807262
 122.3334698 103.6066337  35.2123550 122.7822228 102.8776305  36.4609754
 127.5202800 102.9975776  45.9496576 127.5091441 102.6028574  45.0777080
 127.6823440 102.2641848  46.5430348 120.4434265 105.1927592  38.8191482
 121.2355557 104.8518417  38.4037782 120.6830915 105.3022567  39.7393636
 128.4769392 107.3647368  31.2921727 127.8257371 107.9501449  30.9055740
 129.2713754 107.8953563  31.3516764 122.4025019 104.4536505  31.6908861
 123.1755895 103.9065492  31.5521737 122.7550418 105.3180755  31.9023322
 124.2410061 105.7812888  44.8975760 123.9499927 106.6858519  44.7822427
 124.8767046 105.8229415  45.6119830 125.1666268 103.1589736  41.4877120
 125.7629840 102.9345759  40.7734083 125.2241240 102.4174482  42.0902568
 124.7391296 100.6129172  29.3227311 124.9916817 100.0910693  28.5610774
 123.8015856 100.4495317  29.4253995 129.7834579  99.6164950  37.1302054
 130.5697669  99.1984373  36.7792471 130.0473284 100.5211042  37.2983703
 129.9544657 105.0537800  31.8290711 129.3190490 105.1272427  32.5411616
 129.6242063 105.6431399  31.1509790 135.1843006  99.5540183  38.0335033
 135.9168178  98.9839400  38.2672862 134.4282362  99.1661784  38.4741538
 124.4587585 102.5157277  31.5251686 124.3423843 101.8402181  32.1932770
 124.5689845 102.0289651  30.7083839 126.8019126 101.9767425  35.2298375
 126.4377333 101.4498046  35.9411297 127.6586242 101.5865894  35.0564861
 132.7068427  93.2661757  42.4929641 132.3751752  94.1357168  42.2690856
 132.1114040  92.9498041  43.1723672 126.4424613  97.0057324  30.2259724
 126.6099015  97.8737561  30.5930195 126.2521782  97.1684606  29.3021013
 129.1999946 105.4674303  41.8925554 128.9000669 106.3699342  41.7841361
 128.8551006 105.2006486  42.7446707 122.6512428 101.9188100  37.9262258
 121.7262924 101.7864314  38.1339950 122.8996841 102.6982319  38.4232201
 132.5997090  97.9856843  39.5722991 131.6913967  97.9172252  39.2781752
 132.5484686  98.4628788  40.4004817 126.4213834  99.4614982  31.2106390
 126.3013459  99.9072033  32.0491871 125.7266422  99.8100299  30.6519929
 120.0121239 101.5621374  38.7606048 120.1413620 101.8155853  39.6745459
 119.3318690 102.1549082  38.4410703 124.1820726 112.2318624  34.8596522
 124.1044756 113.1826449  34.9385002 123.5782370 111.8864496  35.5171448
 126.6737956  99.4046489  47.5157889 125.8971290  99.9640409  47.5060753
 127.3128519  99.8903272  48.0372759 134.4658736  96.1873282  41.3500865
 133.8233117  96.4805815  40.7040660 133.9613665  96.0726202  42.1554062
 132.1198900  99.9336455  32.0386725 133.0316756 100.1663842  31.8634422
 131.6108547 100.5173499  31.4761803 124.9284328 102.2131942  47.0775856
 125.6699013 102.7516986  46.8010679 124.2221314 102.8398231  47.2347407
 130.4039668 104.3561083  45.6748017 130.8123024 103.9143493  44.9302649
 129.6816929 103.7813710  45.9282210 126.7570738  99.2933690  43.0481574
 127.6031933  99.7173103  43.1916223 126.6969376  98.6367314  43.7420137
 130.7268482 104.9162273  39.4300306 130.0977345 105.0807988  38.7276374
 130.3394145 105.3303883  40.2011270 134.6057714 105.8516711  36.7844670
 133.9208753 106.2315613  36.2341703 134.6901564 106.4612038  37.5176618
 129.9070183  96.9538058  44.7062748 129.6631115  97.7080118  44.1697023
 130.1830114  97.3323406  45.5409995 131.8608646 103.4976670  43.3840013
 132.0725541 104.1408430  42.7074394 131.8138394 102.6638987  42.9161943
 129.4634875  96.1094491  40.2876585 128.6019354  96.4075744  40.5793323
 129.4897310  96.3264890  39.3557618 126.2796444 104.6536681  36.6950391
 126.7434790 104.9324384  35.9055014 126.0153242 103.7520126  36.5123482
 123.1720525 104.2008163  39.6330154 123.7421882 104.6295431  38.9947639
 123.7628637 103.9190748  40.3314340 125.2165330 100.7759834  33.5039956
 125.9189374 101.2280878  33.9713883 124.8845959 100.1343653  34.1319849
 123.6645692  99.3671590  47.8791166 123.0344353 100.0487871  48.1126562
 123.5581780  99.2554672  46.9344304 118.9590664  99.0343387  38.8057090
 118.1689718  99.2900915  38.3297200 119.4501912  99.8491724  38.9109130
 132.9754474 106.3748626  41.5562371 133.7971918 105.9728813  41.2745052
 132.9716877 106.2716860  42.5078486 120.9105410  99.3987966  35.7640566
 120.1136573  99.5106660  36.2824062 120.6831002  99.7374618  34.8981457
 126.7411077 105.9232669  43.7123081 126.8055510 106.3853076  44.5481253
 126.0322001 105.2930034  43.8405391 117.2428367  99.2873877  41.2372081
 117.4936406 100.1720887  41.5029657 117.7787916  99.1078479  40.4647172
 141.0660467 102.7187374  37.9047342 140.3124175 102.1494772  37.7491347
 141.2008008 102.6850039  38.8517977 126.4559095 107.5900776  33.5802061
 126.3204770 108.4352312  34.0086909 126.9968908 107.7920054  32.8167995
 122.9426435  93.6692356  50.2416417 122.5493380  93.1158555  50.9164061
 123.7592575  93.9802935  50.6322934 119.9088492 105.1076215  34.1529987
 120.4213013 105.9019465  34.3035551 120.5611205 104.4102505  34.0863588
 121.7183377 108.2241971  36.2352740 121.8950005 109.1459936  36.0473724
 122.5140211 107.9100390  36.6647119 125.8594396  95.0850235  47.8336673
 126.6004109  95.6857389  47.7541136 126.0912318  94.3427873  47.2754716
 121.0035734 100.2706603  46.1114903 120.8889249  99.3691860  46.4122002
 120.1480251 100.5170299  45.7599719 128.0827571 108.2124343  47.7102404
 127.6391426 107.4260722  47.3923308 128.7444785 108.4003494  47.0446294
 122.8414693 109.7420145  42.2363082 123.3922118 109.6137208  41.4640076
 122.0026168 110.0415034  41.8857975 130.1808809 108.4927143  45.7383805
 130.1627285 109.3136024  45.2464074 131.1028730 108.3681218  45.9633946
 126.6381864 106.0071272  46.5807313 127.1710200 105.2459561  46.3506621
 126.1095945 105.7144924  47.3231468 129.8051559  91.1131338  42.1100955
 129.4615828  92.0032980  42.0340065 130.1730521  90.9232996  41.2470540
 117.8737409 103.4364869  34.9289557 118.7112631 103.8461877  34.7123265
 118.0515677 102.4964311  34.8989751 129.7701841 101.1039949  30.6173390
 129.2548465 101.8744554  30.8561777 129.4979150 100.4305086  31.2406451
 127.3548952  95.9489650  35.6758628 126.4990549  95.5596501  35.4964267
 127.7675904  96.0281611  34.8158414 128.8848099  93.4835994  40.0750188
 128.3812895  93.4466129  39.2617993 129.1778706  94.3928736  40.1346845
 125.1290985  93.5674723  39.0816370 125.9943982  93.3717532  38.7222259
 125.1968494  93.3385075  40.0085727 134.7436115 103.8572304  32.5526563
 133.9665558 103.5183464  32.1081726 135.4227596 103.8624927  31.8781529
 129.5588144  98.9767042  32.4433171 129.2538280  99.2913191  33.2943314
 130.5118587  99.0548461  32.4860504 128.0034576 105.1357265  34.0926125
 127.4755938 104.4010024  33.7799363 127.5022079 105.9131941  33.8466094
 132.9827422 103.3306285  39.2093171 132.3251097 104.0205547  39.2973300
 133.7867822 103.7202717  39.5527158 122.7353304  95.7976931  36.4532737
 123.3097056  95.5752113  35.7205930 123.3224286  95.8665626  37.2061338
 131.7932881 101.6850658  37.2597113 132.3064763 102.3180650  37.7618823
 132.4434105 101.0851854  36.8940473 123.0622891  97.8281392  30.4728622
 122.2260203  98.1656079  30.7937897 122.9227661  97.6930372  29.5355759
 125.0375972  92.6718180  35.1807806 124.3840384  92.3567197  34.5564421
 124.9956446  92.0493921  35.9067629 126.1487177 102.9537475  27.0961098
 125.2414238 102.7226729  27.2952247 126.6458208 102.1575094  27.2835080
 129.0555255 111.6634982  30.0157784 128.3816954 111.9666679  30.6242742
 129.4421077 112.4664063  29.6663241 128.2713712  99.1600114  39.5055454
 127.3536273  99.3815061  39.3477142 128.6873856  99.2346424  38.6467161
 129.0548760 100.5591529  34.6358134 129.8020579 101.0712927  34.3265256
 129.3240349 100.2375582  35.4962528 127.3275410 103.0550070  31.6185088
 126.4186629 102.7709103  31.7157558 127.3570494 103.4749149  30.7588395
 132.5594677 106.6656660  35.3876256 132.1057004 105.8247569  35.4441446
 131.9288644 107.3018058  35.7251036 131.5027597  97.5948646  36.6176923
 130.7650354  97.0826032  36.9487166 131.7554370  97.1549027  35.8060200
 131.0027617 108.5033156  36.3226074 131.2950591 109.0638213  35.6038440
 131.5126237 108.7961717  37.0779233 131.6039224  90.3724898  37.2118693
 131.9098101  89.5122261  36.9244608 132.3291829  90.9642518  37.0117686
 117.8963580 100.7755584  35.6000291 117.6987980 100.1824945  34.8751357
 117.3410244 100.4707794  36.3176229 125.8760304 100.6678691  37.7194884
 125.9308914  99.7152527  37.6437360 125.0651506 100.8238130  38.2036182
 127.0251498 104.5958814  28.9573167 126.5870928 103.8794673  28.4978804
 127.7661939 104.8234929  28.3958258 123.8152664  99.2855750  35.4785263
 123.0020529  99.5849921  35.8850455 124.3111658  98.8911439  36.1959745
 125.9661242 109.2813507  37.4119527 125.9237421 109.5074354  36.4828059
 126.8823941 109.0476882  37.5605328 129.4126876  99.7497575  44.3100156
 129.7676263  99.9769048  45.1694622 130.0599007 100.0815952  43.6877412
 135.1424613 102.8716011  35.0149485 135.0042511 103.0617607  34.0870675
 134.7860831 103.6335394  35.4717537 123.3066739  96.8574106  41.0946497
 123.9466118  96.7162865  40.3969461 122.4744269  96.5708619  40.7185099
 135.1693992 104.9392538  40.0260757 135.6030499 104.8467827  40.8743811
 135.8825573 104.9150038  39.3880773 124.0827043 106.1576536  37.2081490
 124.8767641 105.6626856  37.0064065 123.3718735 105.6294399  36.8449195
 128.9021887 108.5394632  41.5593858 128.9558909 109.1085568  42.3271573
 128.0336668 108.7096517  41.1947895 120.3909806 100.3019618  33.2841243
 119.4607394 100.2404074  33.5011205 120.4867278  99.7795571  32.4877884
 120.3095355  96.8274431  35.8719484 120.5702172  97.7419764  35.7628645
 121.1312527  96.3598873  36.0216097 121.7820280  98.2412188  43.0418309
 122.4543334  98.0329550  42.3930958 120.9550067  98.0434274  42.6023541
 136.0309542 104.9816238  42.5593642 136.2245432 105.8862049  42.8052917
 135.9310160 104.5223657  43.3932227 127.6845852  94.8674129  45.0583970
 127.0373767  95.5664079  44.9648446 128.4546868  95.3010273  45.4260218
 131.0924650 105.1322981  48.1334523 130.9410157 104.9033533  47.2164607
 131.0829330 106.0893583  48.1465868 127.8609987 102.7054894  43.1180789
 128.7902047 102.8566053  42.9449757 127.4401017 102.7938915  42.2629436
 126.6598319 106.7305558  40.8879327 126.5209404 106.3624343  41.7605265
 125.8712915 107.2453198  40.7163285 127.2546471 111.8314655  32.2304864
 127.4298226 111.3602698  33.0450486 126.5679259 112.4580421  32.4586124
 128.2103534 106.1087161  38.2768165 127.8753366 106.0687931  39.1725815
 127.7107479 105.4431877  37.8038575 122.1847778 101.5154791  43.8020746
 122.0467576 100.7835030  44.4032285 123.0952701 101.4263691  43.5204934
 131.1462725 103.4543195  28.5505224 130.5291896 102.7290023  28.4538277
 130.6779214 104.2152556  28.2072299 124.8130078 101.2274750  43.2904426
 125.5229697 100.5867943  43.2491044 124.7699386 101.4787645  44.2130606
 132.8016857 108.1642104  46.2111005 132.7429403 107.4801324  45.5441588
 133.2036375 108.9061094  45.7591631 123.5259012  98.2139968  45.1100065
 122.9896369  97.7630707  45.7621661 122.9375721  98.3485877  44.3670529
 121.8207556 114.9804018  39.0044724 122.0604154 115.6122542  39.6823742
 120.9776752 114.6292058  39.2910083 122.9361271  97.6728620  27.6726529
 122.0590738  97.5517420  27.3088775 123.4119024  96.8814698  27.4205417
 132.8034264 106.1281688  44.4424984 131.9161043 105.7907609  44.5651383
 133.3732815 105.3964719  44.6793750 114.4563411 102.4605779  37.7668036
 115.1434451 102.1467509  37.1789051 114.3011540 103.3647144  37.4935287
 119.2598134  97.3495976  42.1953060 119.1756322  96.7421645  41.4603470
 118.4380840  97.8404994  42.1962556 126.3335418 110.7883140  41.4086228
 126.2605589 111.5938111  41.9205532 125.8912811 110.9875106  40.5834249
 126.1225197 110.0254910  34.9189049 125.3392719 110.5676590  35.0127274
 126.8217942 110.5428890  35.3183290 129.4321847  95.8349539  37.5623255
 129.9290547  95.0819502  37.2424325 128.6608829  95.8713856  36.9966464
 137.2851605 101.5389905  39.2041546 137.2741481 102.4214620  38.8335479
 136.4168984 101.1861456  39.0096083 128.7934101 110.6869974  43.5644386
 129.5062073 111.3217439  43.4920288 128.3024130 110.7833840  42.7484388
 130.5151628 104.5921227  35.1361678 129.5807907 104.7122689  34.9666382
 130.6928297 103.6893693  34.8721688 126.0156816  97.9766922  37.2894939
 125.6454604  97.4237963  37.9775845 126.5115909  97.3725056  36.7369939
 133.9024179 100.4338546  35.6711712 134.3684632 101.2666538  35.5972015
 134.3531680  99.9683528  36.3756971 123.8446015 108.4364417  44.3849957
 124.5455474 109.0700900  44.5379351 123.3741130 108.7779149  43.6245596
 131.9700411 106.7782367  32.6697864 132.2460254 106.6638962  33.5791738
 131.1004909 106.3799852  32.6310037 131.8740842  92.8019133  39.7102614
 130.9603922  93.0323360  39.8784820 132.3033944  92.8857577  40.5616646
 131.6447301 100.9909025  42.2102508 130.9918751 101.2384932  41.5554960
 132.0227681 100.1773163  41.8764985 128.6054475 111.0268718  36.3130678
 128.7876869 110.2090374  36.7758430 129.4287461 111.2436410  35.8755568
 128.9396640 109.9536903  33.5745726 129.4684407 109.4429358  32.9615888
 129.2024860 109.6379433  34.4391259 127.6934874 101.7328836  48.6968545
 127.0175511 101.6322965  49.3670920 128.5162508 101.5768050  49.1604542
 119.4413733 107.9700773  41.3181060 120.0267170 107.2244460  41.4508964
 119.2438571 108.2804729  42.2017724 122.2952388 111.0052020  36.3343502
 121.6262763 111.4898148  35.8507542 122.1565258 111.2521240  37.2486881
 114.0331388 100.5406373  40.0385503 114.0715487 100.0069963  40.8322621
 113.5271680 100.0141578  39.4196480 126.4357657 113.0395763  42.9326161
 126.9875965 113.2027385  43.6975246 126.7763850 113.6300201  42.2606185
 121.4122150  95.3870913  43.5348045 121.4763476  96.2485744  43.1225443
 121.3489270  94.7744915  42.8020404 120.8874422  97.4594046  47.1821080
 121.5146461  97.0771123  47.7958604 120.0302341  97.2408248  47.5476772
 131.2868531 107.8657021  48.7874815 131.8308435 108.4786979  48.2929770
 130.7055376 108.4236599  49.3041828 117.6639965  99.2670475  33.1139434
 117.9593406  98.3581153  33.0606488 116.7628001  99.2458214  32.7920437
 129.5726044 110.9877739  39.9189843 129.4477183 110.1867479  39.4100788
 130.2305135 111.4823932  39.4303813 121.1934212  97.3426471  39.0966983
 120.4720798  97.9562439  38.9574456 121.9827468  97.8784236  39.0183629
 131.6360952 108.7886759  41.5469393 130.6891288 108.6692110  41.4747720
 131.9843725 107.9009257  41.6295654 123.9960526  94.6780898  45.3707635
 124.5194927  94.9243194  46.1333944 123.7772859  95.5100933  44.9510772
 119.3927807  96.9484573  33.2378760 119.0640513  96.0681951  33.0553865
 119.7467177  96.8932241  34.1255149 128.6407386 108.5839475  37.7473745
 128.4932348 107.6556183  37.9281315 129.4660879 108.6059566  37.2630820
 122.5069630  97.2357542  33.6054237 122.8465702  97.7643464  32.8832846
 122.9541750  97.5737948  34.3812804 132.2441507 109.4068034  38.8338618
 133.1688055 109.2010895  38.6963069 132.0756811 109.1584435  39.7427959
 125.2013071  95.6194593  43.0557305 124.8609891  94.8202406  43.4577985
 124.4952077  95.9196304  42.4834138 125.8529542  92.7043905  41.5084628
 126.6755612  92.2304384  41.3863519 126.0967606  93.4834389  42.0083315
 124.4937777  95.7332164  31.8047530 125.2146139  96.1113417  31.3011247
 123.8703081  96.4521041  31.9082508 128.6368900  96.4377313  32.7405862
 128.8532514  97.3201951  32.4394690 128.1562967  96.0463526  32.0111504
 123.3768121  99.3963026  39.3176607 123.2312702  99.7103329  40.2100888
 122.8993325 100.0147926  38.7647506 125.2364504  96.3865574  39.3657496
 125.2226073  95.4906667  39.0289794 125.9536932  96.3936238  39.9995783
 127.0890635  96.8202914  41.4110624 126.8308413  97.7419985  41.4094954
 126.5575675  96.4233349  42.1011088 132.0336824 109.9253701  34.1900709
 132.2073701 109.3600124  33.4374562 132.5265715 110.7254596  34.0080199
 117.8513783 101.9368371  42.2564268 117.3067251 102.7128178  42.3884542
 118.7293133 102.2839175  42.0983390 124.6401400  95.2679954  34.6345067
 124.7617311  94.3396601  34.8335954 124.3503442  95.2818640  33.7223382
 127.5092590  92.9534865  37.7711786 127.5314287  93.0174198  36.8163766
 127.9260649  92.1139373  37.9652293 137.8876215 102.6890124  35.8091009
 138.3307361 101.9397450  35.4110132 137.0102725 102.6800261  35.4264741
 133.0211996 109.2420466  31.2897608 133.7162901 109.8627159  31.5084922
 133.3635146 108.3915817  31.5649985 118.6379805 101.0638267  45.1494425
 117.8961541 101.2120902  45.7359055 118.3172550 101.3246532  44.2861174
 134.9203419 106.6920171  32.8184938 135.4454743 107.0307444  32.0934258
 134.8325772 105.7567187  32.6348073 126.5823468 110.6054245  44.9474815
 126.8910594 110.3603392  45.8197515 127.3798950 110.8100883  44.4593685
 126.6044080 112.7592155  37.1780192 126.1649070 112.2668533  37.8713048
 127.3552197 112.2165122  36.9372267 119.0836419 108.9503696  37.1804820
 119.9094439 108.6507467  36.8003463 118.7330471 108.1811318  37.6294608
 124.0517952 108.3030164  39.2502493 123.4297961 107.6400869  38.9504721
 124.7222819 108.3291296  38.5676141 117.2845024 106.8690022  38.1393753
 116.4476932 106.4412196  37.9577754 117.2568669 107.0622465  39.0764544
 124.1242480  96.7811952  48.8434999 124.1730635  97.6574075  48.4612769
 124.6664994  96.2389345  48.2706642 134.6097325 107.3253075  48.1236136
 133.8192869 107.3077214  47.5840636 134.3730680 107.8641369  48.8785173
 134.7295200 104.1745541  45.4368865 134.7793205 104.0095549  46.3784388
 134.6209124 103.3072800  45.0466746 123.6131459 106.8534087  32.7260954
 123.7619579 107.5369551  32.0727626 124.4197902 106.8339177  33.2410409
 132.0198963 100.1576469  46.7528172 132.9208825 100.0182934  46.4612169
 132.0946937 100.3230924  47.6926349 126.3541768  97.5343324  45.5981358
 125.4845077  97.8276890  45.3263946 126.5901248  98.1183769  46.3188622
 136.2313397 106.5942483  45.6810886 135.9398205 106.9572463  46.5174347
 135.6185528 105.8809491  45.5024218 137.4309079 104.1595363  38.2013457
 138.2655971 104.5985167  38.3651017 137.5668208 103.6834016  37.3821702
 134.4800585 101.7175098  44.1490944 134.9554707 101.9102744  43.3409796
 133.5566151 101.7734283  43.9034328 121.3684092 102.8799265  33.7322023
 121.1230134 101.9761595  33.9302233 121.5380007 102.8816415  32.7901501
 129.0580802  93.7522941  43.1146778 129.5762746  94.4883968  42.7893267
 128.7035935  94.0586934  43.9493537 120.6379740  98.6127622  31.2308184
 119.9448984  98.6871977  30.5748220 120.3931491  97.8487966  31.7529701
 129.3093396  90.1723224  38.6347675 129.5895150  89.5046413  39.2608101
 130.0944003  90.3652319  38.1222339 127.1126865 109.3482218  30.1972701
 126.5400832 109.9672405  29.7443173 127.6859658 109.8981579  30.7312623
 133.1802254  98.5940858  42.3819250 134.1319677  98.6938955  42.4031474
 133.0105705  97.8019126  42.8917334 131.2016634  95.6796441  42.5678651
 130.6066566  95.9601454  41.8725140 130.9166331  96.1690342  43.3395392
 130.3324124 109.6319368  31.3281283 131.2654797 109.5664929  31.5314159
 130.2447337 110.4675635  30.8695816 132.9612141 108.9485238  28.2885231
 132.8825773 108.6145102  29.1820989 133.7821808 109.4407006  28.2876703
 135.6590332 101.8146977  41.4961550 135.6266652 100.8762978  41.6821233
 136.2690956 101.8931014  40.7627374 127.4973663 100.6843030  27.5388754
 128.4432768 100.5549238  27.6077172 127.1187908  99.9457692  28.0158182
 135.8084821  98.6058021  41.5419833 135.2923869  97.8216477  41.3549762
 136.6924769  98.2776737  41.7066352 133.4695548  92.3499036  37.5015645
 133.2720369  92.0414124  38.3858977 134.0795253  93.0760675  37.6313575
 141.4766882 102.8762984  40.6367586 142.2070271 102.6148272  41.1975290
 140.8673828 102.1391706  40.6769654 139.5582179 101.0170847  41.2342038
 138.8315343 100.8826812  40.6258529 139.1429466 101.3247675  42.0398756
 127.3812356 104.7360776  48.9989411 128.3015365 104.9139375  49.1929457
 127.3461939 103.7916822  48.8469110 125.6816580  98.6093007  27.4743639
 124.7748036  98.3126119  27.5506352 125.9592561  98.3122825  26.6077925
 116.5994521  99.9299370  37.9242685 116.2797305  99.0764678  37.6317059
 116.0527949 100.1447948  38.6800653 120.3774428 102.6461811  41.6412192
 120.5960438 103.5778919  41.6600226 120.7900202 102.2869785  42.4266996
 127.2978646  93.1529896  33.6287880 126.4879374  92.8076981  34.0043126
 127.9863063  92.8437440  34.2175492 129.2269194  92.2307943  35.2512177
 129.7800233  92.6503397  35.9102200 129.4639281  91.3043691  35.2935133
 125.2502293  98.2195017  51.0314941 125.1499020  99.1689374  50.9627032
 125.0323836  97.8913256  50.1591011 124.4515365  95.4679942  27.6155618
 125.3134529  95.7934840  27.8751435 124.6365709  94.6811438  27.1028684
 116.4682781 103.5502282  39.8935807 115.7746252 103.1356234  39.3805761
 117.2155772 103.5922818  39.2969226 132.6048001  94.3408468  34.7590841
 132.0246670  94.9993272  34.3768893 132.3383934  93.5185813  34.3478259
 131.0551568  93.7413526  36.9612161 131.5551346  93.8530061  36.1526480
 131.6987176  93.4374579  37.6012970 125.1133564 101.6492156  49.8480002
 124.6300645 102.4492516  50.0543891 125.1994503 101.6600101  48.8947446
 118.3819523 103.4820535  37.7701822 118.3590211 103.5808223  36.8183705
 118.6920160 104.3285686  38.0918988 121.0406901 105.5396690  41.8848436
 121.9950155 105.5080633  41.8178368 120.8419425 105.0787314  42.6998662
 121.6306283 104.1097806  44.4519234 122.4499172 104.6041885  44.4754071
 121.9043091 103.1929775  44.4236801 131.3872879  96.5008559  33.8147189
 130.4998734  96.7858209  33.5967384 131.8026868  96.3402322  32.9674466
 134.7387415  96.5255080  37.5301529 135.5147806  97.0151532  37.8026145
 134.0135550  96.9513134  37.9873398 137.1759974  97.2382699  38.5875469
 137.7704465  96.9978435  37.8768777 137.2486558  96.5189829  39.2149005
 119.3957130 111.0816310  38.9018634 119.2611598 110.3216711  38.3356632
 118.9789192 111.8057210  38.4347423 130.5316093 106.2653233  27.9095209
 131.2351943 106.4703236  28.5252865 129.8078742 106.8329995  28.1744293
 131.3613903 102.0163095  34.0297479 131.3049104 102.4731646  33.1905112
 131.9142246 101.2553779  33.8520322 135.1718709  97.8052827  34.8547599
 134.9155643  97.4049462  35.6855807 134.5471577  98.5196620  34.7297738
 139.4831047 100.5448900  37.3618890 138.9230605 100.6142089  38.1350452
 138.8774550 100.3689884  36.6418387 122.5526256 111.9785627  39.1137077
 122.4358640 112.9231059  39.0115767 121.7318702 111.6759188  39.5022876
 132.4402790 106.7035763  29.9593669 133.2748394 106.2716961  29.7771144
 132.2787133 106.5317776  30.8870564 132.0948682 103.2067876  31.3250009
 132.0397486 103.0412147  30.3838453 131.4694738 103.9143909  31.4812198
 116.8841197  98.4435940  45.1511431 117.5300061  97.9334894  45.6398656
 116.6758348  99.1804622  45.7254856 129.4094590 105.5116788  50.6503571
 130.2785749 105.6857440  50.2890206 128.9301341 106.3311205  50.5279301
 125.4044808  92.7075985  30.9035327 125.3923478  93.6517825  31.0603598
 126.2968230  92.5246130  30.6094788 123.5780770 112.6313889  42.3293005
 124.4808016 112.6637499  42.6459500 123.3518140 111.7014340  42.3439341
 125.3334372 111.3844875  38.9903084 124.3830003 111.3846737  38.8767456
 125.6366858 110.6377610  38.4739118 129.2196927  89.3018762  35.1581264
 128.4529323  88.7477248  35.3037946 129.6307632  89.3740630  36.0195415
 121.2238688  95.5903557  49.2486445 122.0870150  95.2340362  49.4589770
 120.6504099  95.2517452  49.9361849 141.0687065 117.2205414  40.0548846
 141.7065475 117.1012161  39.3512186 140.9507908 118.1686258  40.1136798
 137.8776772 117.1732842  39.9910371 137.5395283 117.0573907  39.1030906
 138.7466540 116.7724007  39.9711377 133.7363587 119.0268318  35.9807262
 133.1728452 118.9358255  35.2123550 133.6215982 118.2068223  36.4609754
 138.3596555 118.3267694  45.9496576 138.3485195 117.9320492  45.0777080
 138.5217194 117.5933766  46.5430348 131.2828019 120.5219510  38.8191482
 132.0749311 120.1810334  38.4037782 131.5224669 120.6314485  39.7393636
 133.2418773 119.7828423  31.6908861 134.0149649 119.2357410  31.5521737
 133.5944172 120.6472672  31.9023322 135.0803816 121.1104805  44.8975760
 134.7893682 122.0150436  44.7822427 135.7160800 121.1521333  45.6119830
 136.0060023 118.4881654  41.4877120 136.6023595 118.2637676  40.7734083
 136.0634994 117.7466399  42.0902568 135.5785051 115.9421089  29.3227311
 135.8310572 115.4202610  28.5610774 134.6409610 115.7787235  29.4253995
 140.6228334 114.9456868  37.1302054 141.4091423 114.5276291  36.7792471
 140.8867038 115.8502960  37.2983703 146.0236761 114.8832101  38.0335033
 146.7561933 114.3131318  38.2672862 145.2676117 114.4953701  38.4741538
 135.2981340 117.8449195  31.5251686 135.1817598 117.1694099  32.1932770
 135.4083600 117.3581569  30.7083839 137.6412881 117.3059342  35.2298375
 137.2771088 116.7789963  35.9411297 138.4979997 116.9157811  35.0564861
 143.5462181 108.5953675  42.4929641 143.2145506 109.4649086  42.2690856
 142.9507795 108.2789959  43.1723672 137.2818368 112.3349242  30.2259724
 137.4492770 113.2029478  30.5930195 137.0915537 112.4976524  29.3021013
 140.0393701 120.7966221  41.8925554 139.7394424 121.6991260  41.7841361
 139.6944760 120.5298404  42.7446707 133.4906182 117.2480018  37.9262258
 132.5656679 117.1156232  38.1339950 133.7390595 118.0274237  38.4232201
 143.4390845 113.3148761  39.5722991 142.5307722 113.2464169  39.2781752
 143.3878440 113.7920706  40.4004817 137.2607588 114.7906899  31.2106390
 137.1407214 115.2363950  32.0491871 136.5660177 115.1392217  30.6519929
 130.8514993 116.8913291  38.7606048 130.9807374 117.1447770  39.6745459
 130.1712445 117.4840999  38.4410703 135.0214481 127.5610541  34.8596522
 134.9438510 128.5118366  34.9385002 134.4176124 127.2156414  35.5171448
 137.5131710 114.7338407  47.5157889 136.7365044 115.2932327  47.5060753
 138.1522273 115.2195190  48.0372759 145.3052491 111.5165199  41.3500865
 144.6626871 111.8097733  40.7040660 144.8007420 111.4018120  42.1554062
 142.9592655 115.2628373  32.0386725 143.8710511 115.4955759  31.8634422
 142.4502302 115.8465417  31.4761803 135.7678083 117.5423860  47.0775856
 136.5092767 118.0808904  46.8010679 135.0615068 118.1690149  47.2347407
 141.2433422 119.6853000  45.6748017 141.6516778 119.2435411  44.9302649
 140.5210684 119.1105628  45.9282210 137.5964492 114.6225607  43.0481574
 138.4425688 115.0465021  43.1916223 137.5363130 113.9659232  43.7420137
 141.5662237 120.2454191  39.4300306 140.9371099 120.4099905  38.7276374
 141.1787899 120.6595801  40.2011270 145.4451469 121.1808629  36.7844670
 144.7602507 121.5607530  36.2341703 145.5295318 121.7903956  37.5176618
 140.7463938 112.2829976  44.7062748 140.5024870 113.0372036  44.1697023
 141.0223868 112.6615323  45.5409995 142.7002400 118.8268588  43.3840013
 142.9119296 119.4700348  42.7074394 142.6532149 117.9930905  42.9161943
 140.3028629 111.4386409  40.2876585 139.4413108 111.7367662  40.5793323
 140.3291064 111.6556808  39.3557618 137.1190199 119.9828599  36.6950391
 137.5828544 120.2616302  35.9055014 136.8546997 119.0812044  36.5123482
 134.0114280 119.5300081  39.6330154 134.5815637 119.9587349  38.9947639
 134.6022392 119.2482665  40.3314340 136.0559085 116.1051752  33.5039956
 136.7583128 116.5572795  33.9713883 135.7239713 115.4635570  34.1319849
 134.5039446 114.6963508  47.8791166 133.8738107 115.3779789  48.1126562
 134.3975534 114.5846590  46.9344304 129.7984419 114.3635304  38.8057090
 129.0083473 114.6192833  38.3297200 130.2895666 115.1783642  38.9109130
 143.8148228 121.7040543  41.5562371 144.6365672 121.3020731  41.2745052
 143.8110631 121.6008778  42.5078486 131.7499164 114.7279883  35.7640566
 130.9530328 114.8398578  36.2824062 131.5224756 115.0666536  34.8981457
 137.5804832 121.2524587  43.7123081 137.6449264 121.7144994  44.5481253
 136.8715756 120.6221952  43.8405391 128.0822122 114.6165795  41.2372081
 128.3330160 115.5012805  41.5029657 128.6181670 114.4370396  40.4647172
 151.9054221 118.0479292  37.9047342 151.1517930 117.4786690  37.7491347
 152.0401763 118.0141956  38.8517977 137.2952850 122.9192694  33.5802061
 137.1598524 123.7644230  34.0086909 137.8362662 123.1211972  32.8167995
 133.7820189 108.9984274  50.2416417 133.3887135 108.4450473  50.9164061
 134.5986329 109.3094852  50.6322934 130.7482247 120.4368132  34.1529987
 131.2606767 121.2311382  34.3035551 131.4004960 119.7394423  34.0863588
 132.5577132 123.5533888  36.2352740 132.7343760 124.4751853  36.0473724
 133.3533965 123.2392308  36.6647119 136.6988150 110.4142153  47.8336673
 137.4397864 111.0149306  47.7541136 136.9306073 109.6719791  47.2754716
 131.8429488 115.5998520  46.1114903 131.7283003 114.6983778  46.4122002
 130.9874006 115.8462217  45.7599719 138.9221326 123.5416261  47.7102404
 138.4785180 122.7552639  47.3923308 139.5838539 123.7295411  47.0446294
 133.6808447 125.0712062  42.2363082 134.2315872 124.9429126  41.4640076
 132.8419923 125.3706951  41.8857975 141.0202564 123.8219061  45.7383805
 141.0021039 124.6427942  45.2464074 141.9422484 123.6973136  45.9633946
 137.4775618 121.3363190  46.5807313 138.0103955 120.5751478  46.3506621
 136.9489699 121.0436842  47.3231468 140.6445313 106.4423256  42.1100955
 140.3009582 107.3324898  42.0340065 141.0124276 106.2524914  41.2470540
 128.7131164 118.7656787  34.9289557 129.5506386 119.1753795  34.7123265
 128.8909431 117.8256229  34.8989751 140.6095596 116.4331867  30.6173390
 140.0942219 117.2036472  30.8561777 140.3372904 115.7597003  31.2406451
 138.1942707 111.2781568  35.6758628 137.3384303 110.8888418  35.4964267
 138.6069659 111.3573529  34.8158414 139.7241853 108.8127911  40.0750188
 139.2206649 108.7758046  39.2617993 140.0172460 109.7220654  40.1346845
 135.9684739 108.8966641  39.0816370 136.8337736 108.7009450  38.7222259
 136.0362248 108.6676993  40.0085727 140.3981899 114.3058959  32.4433171
 140.0932035 114.6205108  33.2943314 141.3512341 114.3840379  32.4860504
 138.8428331 120.4649183  34.0926125 138.3149692 119.7301942  33.7799363
 138.3415834 121.2423859  33.8466094 143.8221177 118.6598203  39.2093171
 143.1644851 119.3497464  39.2973300 144.6261576 119.0494635  39.5527158
 133.5747058 111.1268849  36.4532737 134.1490810 110.9044030  35.7205930
 134.1618041 111.1957543  37.2061338 142.6326636 117.0142576  37.2597113
 143.1458517 117.6472568  37.7618823 143.2827860 116.4143771  36.8940473
 133.9016646 113.1573310  30.4728622 133.0653958 113.4947996  30.7937897
 133.7621415 113.0222290  29.5355759 135.8769726 108.0010098  35.1807806
 135.2234138 107.6859115  34.5564421 135.8350200 107.3785838  35.9067629
 139.1107466 114.4892031  39.5055454 138.1930028 114.7106978  39.3477142
 139.5267610 114.5638342  38.6467161 139.8942514 115.8883447  34.6358134
 140.6414333 116.4004844  34.3265256 140.1634104 115.5667500  35.4962528
 138.1669164 118.3841988  31.6185088 137.2580384 118.1001021  31.7157558
 138.1964248 118.8041066  30.7588395 143.3988432 121.9948577  35.3876256
 142.9450759 121.1539487  35.4441446 142.7682399 122.6309976  35.7251036
 142.3421351 112.9240563  36.6176923 141.6044108 112.4117949  36.9487166
 142.5948125 112.4840945  35.8060200 141.8421371 123.8325074  36.3226074
 142.1344345 124.3930131  35.6038440 142.3519992 124.1253635  37.0779233
 142.4432979 105.7016815  37.2118693 142.7491856 104.8414179  36.9244608
 143.1685584 106.2934435  37.0117686 128.7357335 116.1047502  35.6000291
 128.5381735 115.5116863  34.8751357 128.1803999 115.7999712  36.3176229
 136.7154058 115.9970608  37.7194884 136.7702668 115.0444445  37.6437360
 135.9045261 116.1530047  38.2036182 134.6546418 114.6147668  35.4785263
 133.8414284 114.9141839  35.8850455 135.1505413 114.2203357  36.1959745
 136.8054996 124.6105425  37.4119527 136.7631175 124.8366271  36.4828059
 137.7217695 124.3768800  37.5605328 140.2520630 115.0789493  44.3100156
 140.6070018 115.3060966  45.1694622 140.8992761 115.4107869  43.6877412
 145.9818367 118.2007928  35.0149485 145.8436266 118.3909524  34.0870675
 145.6254586 118.9627311  35.4717537 134.1460493 112.1866024  41.0946497
 134.7859872 112.0454783  40.3969461 133.3138024 111.9000537  40.7185099
 146.0087747 120.2684455  40.0260757 146.4424253 120.1759745  40.8743811
 146.7219327 120.2441956  39.3880773 134.9220797 121.4868454  37.2081490
 135.7161396 120.9918774  37.0064065 134.2112489 120.9586317  36.8449195
 139.7415642 123.8686550  41.5593858 139.7952664 124.4377486  42.3271573
 138.8730423 124.0388435  41.1947895 131.2303561 115.6311536  33.2841243
 130.3001149 115.5695991  33.5011205 131.3261033 115.1087488  32.4877884
 131.1489110 112.1566349  35.8719484 131.4095927 113.0711682  35.7628645
 131.9706282 111.6890791  36.0216097 132.6214035 113.5704106  43.0418309
 133.2937088 113.3621468  42.3930958 131.7943821 113.3726192  42.6023541
 146.8703296 120.3108156  42.5593642 147.0639186 121.2153967  42.8052917
 146.7703914 119.8515575  43.3932227 138.5239607 110.1966047  45.0583970
 137.8767522 110.8955996  44.9648446 139.2940622 110.6302191  45.4260218
 141.9318405 120.4614899  48.1334523 141.7803911 120.2325451  47.2164607
 141.9223084 121.4185500  48.1465868 138.7003741 118.0346812  43.1180789
 139.6295801 118.1857971  42.9449757 138.2794771 118.1230832  42.2629436
 137.4992073 122.0597476  40.8879327 137.3603159 121.6916260  41.7605265
 136.7106669 122.5745115  40.7163285 139.0497288 121.4379079  38.2768165
 138.7147121 121.3979849  39.1725815 138.5501234 120.7723795  37.8038575
 133.0241532 116.8446709  43.8020746 132.8861330 116.1126948  44.4032285
 133.9346456 116.7555609  43.5204934 135.6523833 116.5566668  43.2904426
 136.3623451 115.9159860  43.2491044 135.6093141 116.8079563  44.2130606
 143.6410612 123.4934021  46.2111005 143.5823158 122.8093241  45.5441588
 144.0430130 124.2353011  45.7591631 134.3652767 113.5431886  45.1100065
 133.8290124 113.0922624  45.7621661 133.7769475 113.6777795  44.3670529
 132.6601310 130.3095935  39.0044724 132.8997909 130.9414459  39.6823742
 131.8170507 129.9583975  39.2910083 133.7755026 113.0020537  27.6726529
 132.8984492 112.8809338  27.3088775 134.2512779 112.2106616  27.4205417
 143.6428019 121.4573605  44.4424984 142.7554798 121.1199527  44.5651383
 144.2126570 120.7256637  44.6793750 125.2957166 117.7897697  37.7668036
 125.9828206 117.4759427  37.1789051 125.1405295 118.6939062  37.4935287
 130.0991888 112.6787894  42.1953060 130.0150077 112.0713563  41.4603470
 129.2774594 113.1696912  42.1962556 137.1729172 126.1175058  41.4086228
 137.0999344 126.9230029  41.9205532 136.7306565 126.3167023  40.5834249
 136.9618952 125.3546828  34.9189049 136.1786474 125.8968508  35.0127274
 137.6611697 125.8720807  35.3183290 140.2715602 111.1641457  37.5623255
 140.7684301 110.4111419  37.2424325 139.5002583 111.2005774  36.9966464
 148.1245359 116.8681823  39.2041546 148.1135236 117.7506538  38.8335479
 147.2562739 116.5153373  39.0096083 139.6327856 126.0161892  43.5644386
 140.3455828 126.6509357  43.4920288 139.1417884 126.1125758  42.7484388
 141.3545383 119.9213144  35.1361678 140.4201661 120.0414607  34.9666382
 141.5322051 119.0185611  34.8721688 136.8550571 113.3058840  37.2894939
 136.4848358 112.7529881  37.9775845 137.3509663 112.7016974  36.7369939
 144.7417934 115.7630464  35.6711712 145.2078386 116.5958455  35.5972015
 145.1925434 115.2975445  36.3756971 134.6839769 123.7656335  44.3849957
 135.3849229 124.3992818  44.5379351 134.2134884 124.1071067  43.6245596
 142.7134597 108.1311051  39.7102614 141.7997676 108.3615277  39.8784820
 143.1427698 108.2149495  40.5616646 142.4841055 116.3200943  42.2102508
 141.8312505 116.5676850  41.5554960 142.8621435 115.5065081  41.8764985
 139.4448229 126.3560636  36.3130678 139.6270624 125.5382292  36.7758430
 140.2681215 126.5728328  35.8755568 138.5328628 117.0620754  48.6968545
 137.8569265 116.9614883  49.3670920 139.3556262 116.9059967  49.1604542
 130.2807487 123.2992690  41.3181060 130.8660924 122.5536378  41.4508964
 130.0832326 123.6096647  42.2017724 133.1346143 126.3343938  36.3343502
 132.4656518 126.8190065  35.8507542 132.9959012 126.5813158  37.2486881
 124.8725142 115.8698290  40.0385503 124.9109242 115.3361881  40.8322621
 124.3665435 115.3433496  39.4196480 137.2751411 128.3687681  42.9326161
 137.8269719 128.5319303  43.6975246 137.6157605 128.9592119  42.2606185
 132.2515904 110.7162831  43.5348045 132.3157231 111.5777662  43.1225443
 132.1883025 110.1036833  42.8020404 131.7268177 112.7885963  47.1821080
 132.3540216 112.4063041  47.7958604 130.8696096 112.5700165  47.5476772
 142.1262285 123.1948939  48.7874815 142.6702189 123.8078897  48.2929770
 141.5449130 123.7528517  49.3041828 128.5033720 114.5962393  33.1139434
 128.7987161 113.6873071  33.0606488 127.6021755 114.5750132  32.7920437
 140.4119798 126.3169657  39.9189843 140.2870938 125.5159396  39.4100788
 141.0698889 126.8115850  39.4303813 132.0327967 112.6718389  39.0966983
 131.3114552 113.2854357  38.9574456 132.8221222 113.2076154  39.0183629
 142.4754707 124.1178677  41.5469393 141.5285042 123.9984028  41.4747720
 142.8237480 123.2301175  41.6295654 134.8354280 110.0072816  45.3707635
 135.3588682 110.2535112  46.1333944 134.6166613 110.8392850  44.9510772
 130.2321561 112.2776490  33.2378760 129.9034267 111.3973869  33.0553865
 130.5860932 112.2224159  34.1255149 139.4801140 123.9131393  37.7473745
 139.3326102 122.9848100  37.9281315 140.3054634 123.9351484  37.2630820
 133.3463384 112.5649460  33.6054237 133.6859457 113.0935381  32.8832846
 133.7935505 112.9029866  34.3812804 143.0835262 124.7359952  38.8338618
 144.0081809 124.5302813  38.6963069 142.9150565 124.4876353  39.7427959
 136.0406825 110.9486511  43.0557305 135.7003646 110.1494324  43.4577985
 135.3345831 111.2488222  42.4834138 136.6923297 108.0335823  41.5084628
 137.5149366 107.5596301  41.3863519 136.9361361 108.8126307  42.0083315
 135.3331531 111.0624082  31.8047530 136.0539894 111.4405334  31.3011247
 134.7096836 111.7812958  31.9082508 139.4762654 111.7669231  32.7405862
 139.6926269 112.6493868  32.4394690 138.9956722 111.3755444  32.0111504
 134.2161876 114.7254944  39.3176607 134.0706456 115.0395247  40.2100888
 133.7387079 115.3439844  38.7647506 136.0758259 111.7157492  39.3657496
 136.0619827 110.8198585  39.0289794 136.7930687 111.7228156  39.9995783
 137.9284389 112.1494832  41.4110624 137.6702167 113.0711903  41.4094954
 137.3969430 111.7525267  42.1011088 128.6907538 117.2660288  42.2564268
 128.1461006 118.0420096  42.3884542 129.5686888 117.6131093  42.0983390
 135.4795155 110.5971872  34.6345067 135.6011066 109.6688518  34.8335954
 135.1897197 110.6110558  33.7223382 138.3486345 108.2826783  37.7711786
 138.3708042 108.3466116  36.8163766 138.7654404 107.4431291  37.9652293
 148.7269969 118.0182042  35.8091009 149.1701115 117.2689367  35.4110132
 147.8496480 118.0092178  35.4264741 129.4773560 116.3930184  45.1494425
 128.7355296 116.5412820  45.7359055 129.1566304 116.6538450  44.2861174
 137.4217222 125.9346163  44.9474815 137.7304349 125.6895309  45.8197515
 138.2192704 126.1392801  44.4593685 137.4437834 128.0884072  37.1780192
 137.0042825 127.5960451  37.8713048 138.1945951 127.5457040  36.9372267
 129.9230173 124.2795613  37.1804820 130.7488193 123.9799385  36.8003463
 129.5724225 123.5103236  37.6294608 134.8911707 123.6322081  39.2502493
 134.2691716 122.9692786  38.9504721 135.5616574 123.6583213  38.5676141
 128.1238778 122.1981940  38.1393753 127.2870687 121.7704114  37.9577754
 128.0962424 122.3914383  39.0764544 134.9636234 112.1103869  48.8434999
 135.0124390 112.9865992  48.4612769 135.5058748 111.5681262  48.2706642
 145.4491080 122.6544993  48.1236136 144.6586623 122.6369132  47.5840636
 145.2124434 123.1933286  48.8785173 145.5688955 119.5037459  45.4368865
 145.6186960 119.3387467  46.3784388 145.4602878 118.6364718  45.0466746
 134.4525214 122.1826005  32.7260954 134.6013334 122.8661469  32.0727626
 135.2591657 122.1631095  33.2410409 142.8592717 115.4868387  46.7528172
 143.7602580 115.3474852  46.4612169 142.9340692 115.6522842  47.6926349
 137.1935523 112.8635242  45.5981358 136.3238832 113.1568808  45.3263946
 137.4295003 113.4475687  46.3188622 147.0707152 121.9234401  45.6810886
 146.7791960 122.2864381  46.5174347 146.4579283 121.2101409  45.5024218
 148.2702834 119.4887280  38.2013457 149.1049725 119.9277084  38.3651017
 148.4061963 119.0125934  37.3821702 145.3194340 117.0467015  44.1490944
 145.7948461 117.2394662  43.3409796 144.3959905 117.1026201  43.9034328
 132.2077847 118.2091182  33.7322023 131.9623888 117.3053512  33.9302233
 132.3773761 118.2108333  32.7901501 139.8974556 109.0814859  43.1146778
 140.4156500 109.8175886  42.7893267 139.5429689 109.3878852  43.9493537
 131.4773494 113.9419540  31.2308184 130.7842739 114.0163895  30.5748220
 131.2325246 113.1779884  31.7529701 140.1487151 105.5015141  38.6347675
 140.4288904 104.8338330  39.2608101 140.9337757 105.6944237  38.1222339
 144.0196009 113.9232775  42.3819250 144.9713432 114.0230873  42.4031474
 143.8499459 113.1311044  42.8917334 142.0410388 111.0088359  42.5678651
 141.4460320 111.2893371  41.8725140 141.7560085 111.4982259  43.3395392
 146.4984087 117.1438895  41.4961550 146.4660407 116.2054896  41.6821233
 147.1084710 117.2222932  40.7627374 146.6478575 113.9349938  41.5419833
 146.1317624 113.1508395  41.3549762 147.5318524 113.6068655  41.7066352
 144.3089302 107.6790954  37.5015645 144.1114123 107.3706042  38.3858977
 144.9189008 108.4052593  37.6313575 152.3160637 118.2054902  40.6367586
 153.0464025 117.9440190  41.1975290 151.7067582 117.4683624  40.6769654
 150.3975934 116.3462764  41.2342038 149.6709097 116.2118729  40.6258529
 149.9823221 116.6539593  42.0398756 138.2206110 120.0652694  48.9989411
 139.1409120 120.2431293  49.1929457 138.1855693 119.1208739  48.8469110
 136.5210335 113.9384924  27.4743639 135.6141790 113.6418037  27.5506352
 136.7986316 113.6414742  26.6077925 127.4388275 115.2591288  37.9242685
 127.1191059 114.4056596  37.6317059 126.8921703 115.4739866  38.6800653
 131.2168183 117.9753729  41.6412192 131.4354192 118.9070837  41.6600226
 131.6293956 117.6161703  42.4266996 138.1372400 108.4821814  33.6287880
 137.3273129 108.1368899  34.0043126 138.8256817 108.1729358  34.2175492
 140.0662949 107.5599861  35.2512177 140.6193987 107.9795314  35.9102200
 140.3033035 106.6335609  35.2935133 136.0896048 113.5486935  51.0314941
 135.9892775 114.4981291  50.9627032 135.8717590 113.2205173  50.1591011
 135.2909119 110.7971860  27.6155618 136.1528283 111.1226758  27.8751435
 135.4759463 110.0103355  27.1028684 127.3076535 118.8794199  39.8935807
 126.6140007 118.4648152  39.3805761 128.0549526 118.9214736  39.2969226
 143.4441756 109.6700386  34.7590841 142.8640425 110.3285190  34.3768893
 143.1777688 108.8477731  34.3478259 141.8945322 109.0705444  36.9612161
 142.3945101 109.1821978  36.1526480 142.5380930 108.7666497  37.6012970
 135.9527318 116.9784073  49.8480002 135.4694400 117.7784433  50.0543891
 136.0388257 116.9892018  48.8947446 129.2213278 118.8112453  37.7701822
 129.1983966 118.9100140  36.8183705 129.5313914 119.6577604  38.0918988
 131.8800655 120.8688608  41.8848436 132.8343909 120.8372550  41.8178368
 131.6813179 120.4079232  42.6998662 132.4700038 119.4389724  44.4519234
 133.2892927 119.9333803  44.4754071 132.7436845 118.5221692  44.4236801
 142.2266634 111.8300476  33.8147189 141.3392489 112.1150127  33.5967384
 142.6420623 111.6694240  32.9674466 145.5781170 111.8546997  37.5301529
 146.3541560 112.3443450  37.8026145 144.8529304 112.2805052  37.9873398
 148.0153729 112.5674617  38.5875469 148.6098219 112.3270353  37.8768777
 148.0880312 111.8481747  39.2149005 130.2350884 126.4108228  38.9018634
 130.1005352 125.6508628  38.3356632 129.8182947 127.1349127  38.4347423
 142.2007658 117.3455012  34.0297479 142.1442859 117.8023564  33.1905112
 142.7536000 116.5845697  33.8520322 146.0112463 113.1344744  34.8547599
 145.7549398 112.7341380  35.6855807 145.3865332 113.8488538  34.7297738
 150.3224801 115.8740817  37.3618890 149.7624359 115.9434007  38.1350452
 149.7168305 115.6981802  36.6418387 133.3920010 127.3077545  39.1137077
 133.2752394 128.2522977  39.0115767 132.5712456 127.0051106  39.5022876
 127.7234952 113.7727858  45.1511431 128.3693815 113.2626812  45.6398656
 127.5152103 114.5096540  45.7254856 140.2488344 120.8408705  50.6503571
 141.1179504 121.0149358  50.2890206 139.7695096 121.6603122  50.5279301
 136.2438562 108.0367903  30.9035327 136.2317232 108.9809743  31.0603598
 137.1361984 107.8538048  30.6094788 134.4174524 127.9605806  42.3293005
 135.3201771 127.9929417  42.6459500 134.1911894 127.0306257  42.3439341
 136.1728126 126.7136793  38.9903084 135.2223757 126.7138655  38.8767456
 136.4760612 125.9669528  38.4739118 140.0590682 104.6310679  35.1581264
 139.2923078 104.0769166  35.3037946 140.4701387 104.7032548  36.0195415
 132.0632443 110.9195475  49.2486445 132.9263904 110.5632280  49.4589770
 131.4897854 110.5809370  49.9361849 149.1990309 133.6559611  45.9496576
 149.1878950 133.2612409  45.0777080 149.3610949 132.9225684  46.5430348
 145.9197570 136.4396723  44.8975760 145.6287436 137.3442354  44.7822427
 146.5554555 136.4813251  45.6119830 154.3855936 123.9245593  42.4929641
 154.0539261 124.7941004  42.2690856 153.7901549 123.6081877  43.1723672
 148.3525465 130.0630324  47.5157889 147.5758799 130.6224244  47.5060753
 148.9916028 130.5487107  48.0372759 146.6071837 132.8715778  47.0775856
 147.3486522 133.4100822  46.8010679 145.9008823 133.4982066  47.2347407
 148.4358247 129.9517525  43.0481574 149.2819442 130.3756938  43.1916223
 148.3756885 129.2951149  43.7420137 151.5857692 127.6121893  44.7062748
 151.3418624 128.3663954  44.1697023 151.8617623 127.9907241  45.5409995
 145.3433201 130.0255426  47.8791166 144.7131861 130.7071707  48.1126562
 145.2369289 129.9138507  46.9344304 140.6378173 129.6927222  38.8057090
 139.8477227 129.9484750  38.3297200 141.1289421 130.5075560  38.9109130
 138.9215876 129.9457712  41.2372081 139.1723915 130.8304722  41.5029657
 139.4575425 129.7662314  40.4647172 144.6213944 124.3276192  50.2416417
 144.2280889 123.7742390  50.9164061 145.4380084 124.6386770  50.6322934
 147.5381905 125.7434071  47.8336673 148.2791618 126.3441224  47.7541136
 147.7699827 125.0011709  47.2754716 142.6823243 130.9290438  46.1114903
 142.5676758 130.0275695  46.4122002 141.8267760 131.1754135  45.7599719
 148.3169373 136.6655108  46.5807313 148.8497709 135.9043396  46.3506621
 147.7883454 136.3728760  47.3231468 151.4839068 121.7715174  42.1100955
 151.1403337 122.6616815  42.0340065 151.8518030 121.5816831  41.2470540
 150.5635608 124.1419829  40.0750188 150.0600404 124.1049964  39.2617993
 150.8566215 125.0512572  40.1346845 146.8078494 124.2258559  39.0816370
 147.6731491 124.0301367  38.7222259 146.8756003 123.9968910  40.0085727
 151.0914385 130.4081410  44.3100156 151.4463772 130.6352883  45.1694622
 151.7386516 130.7399787  43.6877412 144.9854248 127.5157941  41.0946497
 145.6253627 127.3746700  40.3969461 144.1531778 127.2292455  40.7185099
 143.4607789 128.8996023  43.0418309 144.1330843 128.6913386  42.3930958
 142.6337576 128.7018109  42.6023541 149.3633361 125.5257964  45.0583970
 148.7161276 126.2247914  44.9648446 150.1334377 125.9594108  45.4260218
 152.7712159 135.7906816  48.1334523 152.6197666 135.5617368  47.2164607
 152.7616839 136.7477418  48.1465868 143.8635287 132.1738626  43.8020746
 143.7255085 131.4418865  44.4032285 144.7740210 132.0847526  43.5204934
 146.4917587 131.8858586  43.2904426 147.2017206 131.2451778  43.2491044
 146.4486895 132.1371481  44.2130606 145.2046521 128.8723804  45.1100065
 144.6683878 128.4214542  45.7621661 144.6163230 129.0069712  44.3670529
 140.9385643 128.0079811  42.1953060 140.8543831 127.4005481  41.4603470
 140.1168349 128.4988830  42.1962556 153.5528351 123.4602968  39.7102614
 152.6391431 123.6907195  39.8784820 153.9821453 123.5441412  40.5616646
 149.3722383 132.3912671  48.6968545 148.6963020 132.2906801  49.3670920
 150.1950017 132.2351885  49.1604542 135.7118897 131.1990208  40.0385503
 135.7502996 130.6653799  40.8322621 135.2059189 130.6725414  39.4196480
 143.0909659 126.0454749  43.5348045 143.1550985 126.9069579  43.1225443
 143.0276779 125.4328750  42.8020404 142.5661931 128.1177881  47.1821080
 143.1933970 127.7354958  47.7958604 141.7089850 127.8992083  47.5476772
 142.8721721 128.0010307  39.0966983 142.1508307 128.6146275  38.9574456
 143.6614977 128.5368072  39.0183629 145.6748035 125.3364733  45.3707635
 146.1982436 125.5827030  46.1333944 145.4560368 126.1684768  44.9510772
 146.8800580 126.2778428  43.0557305 146.5397400 125.4786241  43.4577985
 146.1739586 126.5780139  42.4834138 147.5317051 123.3627741  41.5084628
 148.3543121 122.8888219  41.3863519 147.7755115 124.1418225  42.0083315
 146.9152013 127.0449409  39.3657496 146.9013582 126.1490503  39.0289794
 147.6324441 127.0520073  39.9995783 148.7678144 127.4786750  41.4110624
 148.5095922 128.4003820  41.4094954 148.2363184 127.0817184  42.1011088
 139.5301292 132.5952206  42.2564268 138.9854760 133.3712014  42.3884542
 140.4080642 132.9423010  42.0983390 140.3167314 131.7222102  45.1494425
 139.5749050 131.8704737  45.7359055 139.9960059 131.9830368  44.2861174
 145.8029989 127.4395787  48.8434999 145.8518144 128.3157910  48.4612769
 146.3452503 126.8973180  48.2706642 153.6986472 130.8160305  46.7528172
 154.5996334 130.6766770  46.4612169 153.7734446 130.9814760  47.6926349
 148.0329277 128.1927160  45.5981358 147.1632586 128.4860726  45.3263946
 148.2688757 128.7767605  46.3188622 150.7368311 124.4106776  43.1146778
 151.2550255 125.1467803  42.7893267 150.3823444 124.7170770  43.9493537
 150.9880905 120.8307059  38.6347675 151.2682659 120.1630248  39.2608101
 151.7731512 121.0236155  38.1222339 152.8804143 126.3380276  42.5678651
 152.2854075 126.6185289  41.8725140 152.5953840 126.8274177  43.3395392
 149.0599865 135.3944612  48.9989411 149.9802874 135.5723211  49.1929457
 149.0249448 134.4500657  48.8469110 138.2782030 130.5883205  37.9242685
 137.9584814 129.7348514  37.6317059 137.7315458 130.8031784  38.6800653
 142.0561937 133.3045646  41.6412192 142.2747947 134.2362754  41.6600226
 142.4687711 132.9453621  42.4266996 146.9289802 128.8778852  51.0314941
 146.8286529 129.8273209  50.9627032 146.7111344 128.5497091  50.1591011
 138.1470290 134.2086117  39.8935807 137.4533761 133.7940070  39.3805761
 138.8943281 134.2506653  39.2969226 146.7921072 132.3075991  49.8480002
 146.3088154 133.1076351  50.0543891 146.8782012 132.3183936  48.8947446
 143.3093792 134.7681642  44.4519234 144.1286681 135.2625720  44.4754071
 143.5830600 133.8513610  44.4236801 138.5628706 129.1019776  45.1511431
 139.2087570 128.5918730  45.6398656 138.3545857 129.8388457  45.7254856
 151.0882099 136.1700623  50.6503571 151.9573258 136.3441275  50.2890206
 150.6088850 136.9895040  50.5279301 142.9026197 126.2487393  49.2486445
 143.7657659 125.8924198  49.4589770 142.3291608 125.9101288  49.9361849
  73.3234029   3.3578310  32.6741883  73.3122670   2.9631108  31.8022387
  73.4854668   2.6244383  33.2675654  70.0441290   6.1415422  31.6221067
  69.7531156   7.0461053  31.5067733  70.6798274   6.1831949  32.3365137
  75.0031175   5.8276837  28.6170861  74.7031898   6.7301876  28.5086668
  74.6582235   5.5609021  29.4692014  72.4769185  -0.2350977  34.2403195
  71.7002519   0.3242943  34.2306060  73.1159748   0.2505806  34.7618065
  70.7315557   2.5734477  33.8021162  71.4730241   3.1119520  33.5255986
  70.0252542   3.2000765  33.9592714  76.2070897   4.7163617  32.3993324
  76.6154253   4.2746028  31.6547956  75.4848158   4.1416245  32.6527517
  75.7101412  -2.6859408  31.4308054  75.4662344  -1.9317347  30.8942330
  75.9861343  -2.3074060  32.2655301  77.6639875   3.8579204  30.1085320
  77.8756770   4.5010964  29.4319701  77.6169623   3.0241521  29.6407250
  69.4676921  -0.2725875  34.6036472  68.8375581   0.4090406  34.8371869
  69.3613009  -0.3842794  33.6589611  78.7785703   6.7351160  28.2807677
  79.6003146   6.3331347  27.9990359  78.7748106   6.6319394  29.2323793
  72.5442306   6.2835203  30.4368388  72.6086739   6.7455610  31.2726560
  71.8353230   5.6532568  30.5650698  86.8691696   3.0789908  24.6292649
  86.1155404   2.5097306  24.4736653  87.0039237   3.0452573  25.5763283
  68.7457663  -5.9705109  36.9661723  68.3524609  -6.5238911  37.6409368
  69.5623804  -5.6594531  37.3568241  73.8858800   8.5726877  34.4347710
  73.4422654   7.7863256  34.1168615  74.5476014   8.7606028  33.7691601
  68.6445921  10.1022679  28.9608389  69.1953347   9.9739742  28.1885383
  67.8057397  10.4017568  28.6103281  75.9840038   8.8529677  32.4629111
  75.9658514   9.6738558  31.9709381  76.9059958   8.7283752  32.6879253
  72.4413092   6.3673807  33.3052620  72.9741429   5.6062095  33.0751928
  71.9127174   6.0747458  34.0476774  75.2158104   0.1100109  31.0345463
  75.5707492   0.3371582  31.8939929  75.8630236   0.4418486  30.4122718
  80.9725221   5.2995072  26.7506064  81.4061728   5.2070361  27.5989118
  81.6856802   5.2752572  26.1126080  74.7053116   8.8997166  28.2839164
  74.7590138   9.4688102  29.0516880  73.8367897   9.0699051  27.9193201
  81.8340771   5.3418773  29.2838949  82.0276661   6.2464583  29.5298224
  81.7341389   4.8826192  30.1177534  76.8955879   5.4925515  34.8579830
  76.7441386   5.2636067  33.9409913  76.8860559   6.4496117  34.8711175
  73.6641216   3.0657428  29.8426096  74.5933276   3.2168588  29.6695063
  73.2432246   3.1541449  28.9874743  72.4629547   7.0908093  27.6124634
  72.3240633   6.7226877  28.4850572  71.6744144   7.6055732  27.4408591
  78.6048086   8.5244638  32.9356311  78.5460632   7.8403858  32.2686894
  79.0067604   9.2663628  32.4836937  67.6238785  15.3406552  25.7290030
  67.8635383  15.9725076  26.4069049  66.7807981  14.9894592  26.0155390
  78.6065493   6.4884222  31.1670291  77.7192272   6.1510144  31.2896690
  79.1764044   5.7567253  31.4039057  72.1366647  11.1485674  28.1331534
  72.0636818  11.9540646  28.6450839  71.6944040  11.3477640  27.3079556
  74.5965330  11.0472508  30.2889693  75.3093302  11.6819973  30.2165594
  74.1055359  11.1436374  29.4729695  69.6477244   8.7966952  31.1095264
  70.3486703   9.4303435  31.2624658  69.1772359   9.1381683  30.3490903
  77.4478530   1.3511559  28.9347814  76.7949980   1.5987467  28.2800267
  77.8258909   0.5375697  28.6010291  73.4966103   2.0931370  35.4213851
  72.8206740   1.9925500  36.0916226  74.3193736   1.9370584  35.8849848
  72.2388885  13.3998298  29.6571467  72.7907193  13.5629919  30.4220552
  72.5795079  13.9902735  28.9851492  77.0899760   8.2259555  35.5120122
  77.6339664   8.8389513  35.0175076  76.5086605   8.7839134  36.0287135
  75.3757273  11.3480273  26.6435149  75.2508412  10.5470013  26.1346095
  76.0336364  11.8426467  26.1549119  77.4392181   9.1489293  28.2714699
  76.4922517   9.0294644  28.1993026  77.7874954   8.2611791  28.3540961
  78.0472736   9.7670568  25.5583924  78.9719284   9.5613430  25.4208376
  77.8788040   9.5186969  26.4673266  72.3854697  10.9656779  31.6720122
  72.6941823  10.7205926  32.5442821  73.1830179  11.1703418  31.1838992
  72.4075309  13.1194689  23.9025498  71.9680299  12.6271068  24.5958355
  73.1583426  12.5767657  23.6617573  69.9273708  -2.8585514  35.5680306
  69.9761864  -1.9823391  35.1858075  70.4696223  -3.4008121  34.9951949
  80.4128554   7.6855609  34.8481443  79.6224098   7.6679748  34.3085942
  80.1761909   8.2243903  35.6030480  80.5326429   4.5348076  32.1614171
  80.5824434   4.3698083  33.1029694  80.4240353   3.6675335  31.7712052
  77.8230192   0.5179004  33.4773478  78.7240054   0.3785468  33.1857476
  77.8978166   0.6833458  34.4171656  82.0344626   6.9545017  32.4056193
  81.7429434   7.3174998  33.2419654  81.4216757   6.2412025  32.2269525
  83.2340308   4.5197897  24.9258763  84.0687200   4.9587701  25.0896324
  83.3699437   4.0436550  24.1067009  80.2831814   2.0777632  30.8736251
  80.7585936   2.2705278  30.0655102  79.3597380   2.1336818  30.6279635
  78.9833483  -1.0456608  29.1064557  79.9350906  -0.9458511  29.1276781
  78.8136934  -1.8378340  29.6162641  81.4621561   2.1749512  28.2206856
  81.4297881   1.2365512  28.4066540  82.0722185   2.2533548  27.4872681
  87.2798111   3.2365518  27.3612893  88.0101499   2.9750806  27.9220596
  86.6705056   2.4994240  27.4014961  85.3613408   1.3773381  27.9587344
  84.6346572   1.2429346  27.3503836  84.9460695   1.6850210  28.7644062
  73.1843584   5.0963311  35.7234717  74.1046594   5.2741910  35.9174764
  73.1493167   4.1519356  35.5714417  71.0533522  -1.4202449  37.7560247
  70.9530249  -0.4708092  37.6872338  70.8355064  -1.7484210  36.8836317
  70.9164792   2.0094690  36.5725309  70.4331874   2.8095050  36.7789198
  71.0025731   2.0202635  35.6192753  67.4337512   4.4700341  31.1764540
  68.2530401   4.9644419  31.1999378  67.7074320   3.5532309  31.1482108
  68.3557484  12.3388161  25.8382383  68.2389869  13.2833594  25.7361074
  67.5349931  12.0361723  26.2268183  75.2125818   5.8719322  37.3748878
  76.0816978   6.0459974  37.0135513  74.7332570   6.6913739  37.2524607
  69.3811999  12.9916423  29.0538312  70.2839245  13.0240033  29.3704807
  69.1549369  12.0616874  29.0684648  71.1365601  11.7447410  25.7148390
  70.1861232  11.7449271  25.6012763  71.4398087  10.9980144  25.1984425
  67.0269917  -4.0493908  35.9731752  67.8901379  -4.4057104  36.1835076
  66.4535328  -4.3880014  36.6607156  86.8718294  17.5807948  26.7794153
  87.5096704  17.4614695  26.0757493  86.7539137  18.5288792  26.8382105
  83.6808000  17.5335376  26.7155677  83.3426512  17.4176441  25.8276212
  84.5497769  17.1326541  26.6956684  79.5394816  19.3870852  22.7052568
  78.9759681  19.2960789  21.9368856  79.4247211  18.5670757  23.1855061
  84.1627783  18.6870228  32.6741883  84.1516424  18.2923026  31.8022387
  84.3248423  17.9536300  33.2675654  77.0859248  20.8822044  25.5436789
  77.8780540  20.5412869  25.1283088  77.3255898  20.9917019  26.4638942
  85.1194375  23.0541820  18.0167033  84.4682355  23.6395901  17.6301047
  85.9138738  23.5848015  18.0762071  79.0450002  20.1430957  18.4154168
  79.8180878  19.5959944  18.2767043  79.3975401  21.0075207  18.6268629
  80.8835045  21.4707340  31.6221067  80.5924910  22.3752970  31.5067733
  81.5192029  21.5123867  32.3365137  81.8091251  18.8484188  28.2122427
  82.4054824  18.6240210  27.4979390  81.8666223  18.1068934  28.8147874
  86.4259563  15.3059402  23.8547361  87.2122652  14.8878825  23.5037778
  86.6898267  16.2105494  24.0229009  86.5969640  20.7432252  18.5536018
  85.9615473  20.8166879  19.2656922  86.2667046  21.3325851  17.8755097
  91.8267990  15.2434635  24.7580339  92.5593162  14.6733852  24.9918169
  91.0707345  14.8556235  25.1986845  81.1012569  18.2051729  18.2496993
  80.9848827  17.5296633  18.9178077  81.2114828  17.7184103  17.4329146
  83.4444109  17.6661876  21.9543682  83.0802317  17.1392497  22.6656603
  84.3011225  17.2760346  21.7810167  89.3493410   8.9556209  29.2174948
  89.0176735   9.8251620  28.9936163  88.7539023   8.6392493  29.8968978
  85.8424930  21.1568755  28.6170861  85.5425653  22.0593794  28.5086668
  85.4975989  20.8900938  29.4692014  79.2937411  17.6082552  24.6507565
  78.3687908  17.4758766  24.8585257  79.5421824  18.3876771  25.1477507
  89.2422073  13.6751295  26.2968298  88.3338951  13.6066704  26.0027059
  89.1909669  14.1523240  27.1250123  76.6546222  17.2515825  25.4851354
  76.7838603  17.5050304  26.3990766  75.9743673  17.8443533  25.1656009
  80.8245709  27.9213075  21.5841828  80.7469739  28.8720901  21.6630309
  80.2207353  27.5758948  22.2416755  83.3162939  15.0940941  34.2403195
  82.5396273  15.6534861  34.2306060  83.9553502  15.5797724  34.7618065
  91.1083720  11.8767734  28.0746172  90.4658100  12.1700267  27.4285966
  90.6038648  11.7620654  28.8799369  88.7623883  15.6230907  18.7632031
  89.6741740  15.8558294  18.5879729  88.2533531  16.2067951  18.2007110
  81.5709311  17.9026394  33.8021162  82.3123996  18.4411438  33.5255986
  80.8646297  18.5292683  33.9592714  87.0464651  20.0455535  32.3993324
  87.4548007  19.6037945  31.6547956  86.3241913  19.4708162  32.6527517
  83.3995721  14.9828141  29.7726881  84.2456916  15.4067555  29.9161530
  83.3394359  14.3261766  30.4665444  87.3693466  20.6056725  26.1545613
  86.7402328  20.7702439  25.4521680  86.9819128  21.0198335  26.9256577
  91.2482698  21.5411163  23.5089976  90.5633736  21.9210065  22.9587010
  91.3326547  22.1506490  24.2421924  86.5495167  12.6432510  31.4308054
  86.3056098  13.3974570  30.8942330  86.8255097  13.0217857  32.2655301
  88.5033629  19.1871122  30.1085320  88.7150525  19.8302882  29.4319701
  88.4563378  18.3533439  29.6407250  86.1059858  11.7988943  27.0121892
  85.2444337  12.0970196  27.3038630  86.1322293  12.0159342  26.0802925
  82.9221428  20.3431133  23.4195698  83.3859773  20.6218836  22.6300320
  82.6578226  19.4414578  23.2368788  79.8145509  19.8902615  26.3575461
  80.3846866  20.3189883  25.7192945  80.4053621  19.6085200  27.0559647
  81.8590314  16.4654286  20.2285263  82.5614357  16.9175329  20.6959189
  81.5270942  15.8238105  20.8565156  80.3070675  15.0566042  34.6036472
  79.6769336  15.7382323  34.8371869  80.2006763  14.9449124  33.6589611
  75.6015648  14.7237838  25.5302396  74.8114702  14.9795367  25.0542507
  76.0926895  15.5386176  25.6354437  89.6179457  22.0643078  28.2807677
  90.4396901  21.6623265  27.9990359  89.6141860  21.9611312  29.2323793
  77.5530393  15.0882418  22.4885873  76.7561556  15.2001112  23.0069369
  77.3255985  15.4269070  21.6226764  83.3836061  21.6127121  30.4368388
  83.4480493  22.0747528  31.2726560  82.6746985  20.9824486  30.5650698
  73.8853351  14.9768329  27.9617387  74.1361389  15.8615339  28.2274963
  74.4212899  14.7972930  27.1892479  97.7085450  18.4081826  24.6292649
  96.9549159  17.8389224  24.4736653  97.8432991  18.3744491  25.5763283
  83.0984078  23.2795228  20.3047368  82.9629753  24.1246764  20.7332216
  83.6393891  23.4814506  19.5413302  79.5851418   9.3586808  36.9661723
  79.1918364   8.8053007  37.6409368  80.4017558   9.6697387  37.3568241
  76.5513476  20.7970666  20.8775293  77.0637996  21.5913917  21.0280858
  77.2036189  20.0996957  20.8108895  78.3608360  23.9136423  22.9598046
  78.5374989  24.8354387  22.7719030  79.1565194  23.5994842  23.3892426
  82.5019379  10.7744687  34.5581980  83.2429092  11.3751840  34.4786442
  82.7337302  10.0322325  34.0000022  77.6460717  15.9601055  32.8360210
  77.5314232  15.0586312  33.1367308  76.7905235  16.2064751  32.4845026
  84.7252555  23.9018795  34.4347710  84.2816409  23.1155173  34.1168615
  85.3869768  24.0897945  33.7691601  79.4839676  25.4314596  28.9608389
  80.0347101  25.3031660  28.1885383  78.6451152  25.7309485  28.6103281
  86.8233793  24.1821595  32.4629111  86.8052268  25.0030476  31.9709381
  87.7453713  24.0575670  32.6879253  83.2806847  21.6965724  33.3052620
  83.8135184  20.9354012  33.0751928  82.7520928  21.4039376  34.0476774
  86.4476542   6.8025790  28.8346262  86.1040811   7.6927432  28.7585372
  86.8155504   6.6127448  27.9715847  74.5162392  19.1259321  21.6534864
  75.3537614  19.5356329  21.4368571  74.6940660  18.1858763  21.6235058
  86.4126825  16.7934401  17.3418697  85.8973448  17.5639006  17.5807084
  86.1404133  16.1199538  17.9651758  83.9973936  11.6384102  22.4003935
  83.1415532  11.2490953  22.2209574  84.4100887  11.7176063  21.5403721
  85.5273082   9.1730445  26.7995495  85.0237878   9.1360581  25.9863300
  85.8203689  10.0823188  26.8592151  81.7715968   9.2569175  25.8061677
  82.6368965   9.0611984  25.4467566  81.8393477   9.0279527  26.7331033
  91.3861099  19.5466756  19.2771870  90.6090542  19.2077916  18.8327032
  92.0652580  19.5519379  18.6026835  86.2013128  14.6661493  19.1678478
  85.8963263  14.9807643  20.0188621  87.1543570  14.7442913  19.2105811
  84.6459560  20.8251717  20.8171432  84.1180921  20.0904476  20.5044669
  84.1447062  21.6026393  20.5711400  89.6252406  19.0200737  25.9338478
  88.9676080  19.7099999  26.0218607  90.4292805  19.4097169  26.2772464
  79.3778287  11.4871383  23.1778043  79.9522039  11.2646565  22.4451236
  79.9649270  11.5560078  23.9306645  88.4357864  17.3745110  23.9842420
  88.9489746  18.0075102  24.4864130  89.0859088  16.7746305  23.6185780
  85.6980239  27.3529434  16.7403091  85.0241937  27.6561131  17.3488049
  86.0846061  28.1558515  16.3908548  84.9138695  14.8494566  26.2300760
  83.9961257  15.0709513  26.0722448  85.3298839  14.9240876  25.3712468
  85.6973743  16.2485981  21.3603441  86.4445562  16.7607378  21.0510563
  85.9665333  15.9270034  22.2207834  83.9700393  18.7444522  18.3430395
  83.0611613  18.4603555  18.4402865  83.9995477  19.1643600  17.4833702
  89.2019661  22.3551111  22.1121563  88.7481988  21.5142021  22.1686753
  88.5713627  22.9912510  22.4496343  88.1452580  13.2843097  23.3422230
  87.4075337  12.7720484  23.6732473  88.3979354  12.8443479  22.5305507
  87.6452600  24.1927608  23.0471381  87.9375574  24.7532665  22.3283746
  88.1551220  24.4856169  23.8024540  88.2464208   6.0619349  23.9363999
  88.5523084   5.2016713  23.6489914  88.9716812   6.6536970  23.7362993
  74.5388564  16.4650036  22.3245597  74.3412963  15.8719397  21.5996664
  73.9835228  16.1602246  23.0421536  82.5185287  16.3573143  24.4440190
  82.5733897  15.4046979  24.3682667  81.7076489  16.5132582  24.9281489
  83.6676481  20.2853266  15.6818474  83.2295911  19.5689125  15.2224111
  84.4086922  20.5129380  15.1203565  80.4577647  14.9750202  22.2030569
  79.6445513  15.2744373  22.6095761  80.9536641  14.5805891  22.9205051
  82.6086225  24.9707959  24.1364834  82.5662404  25.1968805  23.2073366
  83.5248924  24.7371334  24.2850635  86.0551859  15.4392027  31.0345463
  86.4101247  15.6663500  31.8939929  86.7023990  15.7710404  30.4122718
  91.7849596  18.5610463  21.7394792  91.6467494  18.7512059  20.8115981
  91.4285815  19.3229845  22.1962843  79.9491722  12.5468558  27.8191804
  80.5891101  12.4057317  27.1214767  79.1169253  12.2603071  27.4430406
  91.8118975  20.6286990  26.7506064  92.2455482  20.5362279  27.5989118
  92.5250556  20.6044490  26.1126080  80.7252026  21.8470988  23.9326797
  81.5192624  21.3521308  23.7309372  80.0143718  21.3188851  23.5694502
  85.5446870  24.2289084  28.2839164  85.5983893  24.7980020  29.0516880
  84.6761652  24.3990969  27.9193201  76.9520338  12.5168883  22.5964791
  77.2127156  13.4314216  22.4873951  77.7737511  12.0493325  22.7461404
  78.4245264  13.9306640  29.7663615  79.0968317  13.7224002  29.1176264
  77.5975050  13.7328726  29.3268848  92.6734525  20.6710690  29.2838949
  92.8670415  21.5756501  29.5298224  92.5735143  20.2118109  30.1177534
  84.3270836  10.5568581  31.7829276  83.6798751  11.2558531  31.6893753
  85.0971851  10.9904725  32.1505525  87.7349634  20.8217433  34.8579830
  87.5835140  20.5927985  33.9409913  87.7254313  21.7788034  34.8711175
  84.5034970  18.3949346  29.8426096  85.4327030  18.5460505  29.6695063
  84.0826000  18.4833367  28.9874743  83.3023302  22.4200010  27.6124634
  83.1634388  22.0518795  28.4850572  82.5137898  22.9347650  27.4408591
  83.8971454  27.5209107  18.9550170  84.0723210  27.0497150  19.7695793
  83.2104242  28.1474873  19.1831431  84.8528517  21.7981613  25.0013471
  84.5178350  21.7582383  25.8971121  84.3532463  21.1326329  24.5283882
  78.8272761  17.2049243  30.5266053  78.6892559  16.4729482  31.1277592
  79.7377684  17.1158143  30.2450240  87.7887709  19.1437647  15.2750531
  87.1716879  18.4184475  15.1783584  87.3204197  19.9047008  14.9317605
  81.4555062  16.9169202  30.0149732  82.1654680  16.2762394  29.9736351
  81.4124370  17.1682097  30.9375913  89.4441840  23.8536556  32.9356311
  89.3854386  23.1695776  32.2686894  89.8461359  24.5955546  32.4836937
  80.1683996  13.9034420  31.8345372  79.6321353  13.4525159  32.4866968
  79.5800704  14.0380329  31.0915836  78.4632539  30.6698469  25.7290030
  78.7029137  31.3016994  26.4069049  77.6201736  30.3186509  26.0155390
  89.4459248  21.8176140  31.1670291  88.5586026  21.4802061  31.2896690
  90.0157799  21.0859171  31.4039057  71.0988395  18.1500231  24.4913343
  71.7859435  17.8361961  23.9034358  70.9436523  19.0541596  24.2180594
  75.9023117  13.0390428  28.9198366  75.8181306  12.4316097  28.1848776
  75.0805823  13.5299446  28.9207863  82.9760401  26.4777592  28.1331534
  82.9030572  27.2832563  28.6450839  82.5337794  26.6769558  27.3079556
  82.7650181  25.7149362  21.6434356  81.9817703  26.2571042  21.7372580
  83.4642926  26.2323342  22.0428597  86.0746831  11.5243991  24.2868561
  86.5715530  10.7713954  23.9669632  85.3033812  11.5608308  23.7211771
  93.9276588  17.2284357  25.9286853  93.9166464  18.1109072  25.5580786
  93.0593968  16.8755908  25.7341390  85.4359085  26.3764426  30.2889693
  86.1487057  27.0111891  30.2165594  84.9449113  26.4728292  29.4729695
  87.1576611  20.2815679  21.8606985  86.2232890  20.4017141  21.6911689
  87.3353280  19.3788145  21.5966995  82.6581799  13.6661374  24.0140246
  82.2879587  13.1132415  24.7021151  83.1540892  13.0619508  23.4615246
  90.5449163  16.1232998  22.3957019  91.0109615  16.9560989  22.3217321
  90.9956663  15.6577979  23.1002277  80.4870998  24.1258869  31.1095264
  81.1880458  24.7595352  31.2624658  80.0166113  24.4673601  30.3490903
  88.6125394  22.4676819  19.3943171  88.8885238  22.3533414  20.3037045
  87.7429893  22.0694304  19.3555344  88.5165826   8.4913585  26.4347920
  87.6028905   8.7217812  26.6030127  88.9458927   8.5752029  27.2861953
  88.2872284  16.6803477  28.9347814  87.6343734  16.9279384  28.2800267
  88.6652664  15.8667615  28.6010291  85.2479458  26.7163170  23.0375984
  85.4301852  25.8984826  23.5003737  86.0712444  26.9330862  22.6000874
  85.5821623  25.6431355  20.2991033  86.1109390  25.1323810  19.6861195
  85.8449843  25.3273885  21.1636566  84.3359857  17.4223288  35.4213851
  83.6600494  17.3217417  36.0916226  85.1587491  17.2662502  35.8849848
  76.0838716  23.6595224  28.0426366  76.6692153  22.9138912  28.1754271
  75.8863555  23.9699181  28.9263030  78.9377371  26.6946472  23.0588809
  78.2687747  27.1792599  22.5752849  78.7990241  26.9415692  23.9732187
  70.6756371  16.2300825  26.7630810  70.7140470  15.6964415  27.5567928
  70.1696664  15.7036030  26.1441787  83.0782640  28.7290215  29.6571467
  83.6300948  28.8921837  30.4220552  83.4188833  29.3194653  28.9851492
  78.0547133  11.0765365  30.2593352  78.1188460  11.9380196  29.8470750
  77.9914253  10.4639367  29.5265710  77.5299406  13.1488498  33.9066386
  78.1571444  12.7665575  34.5203911  76.6727325  12.9302700  34.2722079
  87.9293514  23.5551473  35.5120122  88.4733418  24.1681431  35.0175076
  87.3480359  24.1131051  36.0287135  86.2151027  26.6772191  26.6435149
  86.0902167  25.8761931  26.1346095  86.8730118  27.1718384  26.1549119
  77.8359195  13.0320923  25.8212290  77.1145781  13.6456891  25.6819763
  78.6252451  13.5678688  25.7428936  88.2785936  24.4781211  28.2714699
  87.3316271  24.3586562  28.1993026  88.6268709  23.5903709  28.3540961
  80.6385509  10.3675350  32.0952941  81.1619911  10.6137646  32.8579251
  80.4197842  11.1995385  31.6756079  85.2832369  24.2733927  24.4719052
  85.1357331  23.3450635  24.6526622  86.1085862  24.2954018  23.9876127
  88.8866491  25.0962486  25.5583924  89.8113038  24.8905347  25.4208376
  88.7181794  24.8478887  26.4673266  81.8438054  11.3089045  29.7802612
  81.5034874  10.5096858  30.1823292  81.1377060  11.6090756  29.2079445
  82.4954526   8.3938357  28.2329935  83.3180595   7.9198836  28.1108825
  82.7392589   9.1728841  28.7328621  80.0193105  15.0857478  26.0421914
  79.8737685  15.3997781  26.9346195  79.5418308  15.7042378  25.4892812
  81.8789487  12.0760026  26.0902803  81.8651056  11.1801119  25.7535101
  82.5961916  12.0830690  26.7241089  83.7315618  12.5097366  28.1355931
  83.4733396  13.4314437  28.1340261  83.2000659  12.1127801  28.8256395
  88.6761807  25.6148153  20.9146016  88.8498684  25.0494576  20.1619868
  89.1690698  26.4149048  20.7325506  74.4938767  17.6262822  28.9809575
  73.9492235  18.4022630  29.1129849  75.3718117  17.9733627  28.8228696
  84.1517574   8.6429317  24.4957093  84.1739271   8.7068650  23.5409073
  84.5685633   7.8033825  24.6897599  94.5301198  18.3784576  22.5336316
  94.9732344  17.6291901  22.1355439  93.6527708  18.3694713  22.1510048
  89.6636979  24.9314918  18.0142914  90.3587884  25.5521610  18.2330229
  90.0060130  24.0810269  18.2895292  75.2804789  16.7532719  31.8739732
  74.5386525  16.9015354  32.4604362  74.9597533  17.0140984  31.0106481
  91.5628403  22.3814623  19.5430245  92.0879727  22.7201896  18.8179565
  91.4750755  21.4461639  19.3593380  83.2248451  26.2948697  31.6720122
  83.5335578  26.0497844  32.5442821  84.0223933  26.4995335  31.1838992
  83.2469063  28.4486607  23.9025498  82.8074054  27.9562985  24.5958355
  83.9977180  27.9059574  23.6617573  75.7261402  24.6398147  23.9050126
  76.5519422  24.3401919  23.5248770  75.3755454  23.8705770  24.3539915
  80.6942935  23.9924616  25.9747800  80.0722945  23.3295321  25.6750028
  81.3647802  24.0185748  25.2921448  73.9270007  22.5584474  24.8639060
  73.0901916  22.1306648  24.6823061  73.8993653  22.7516917  25.8009851
  80.7667463  12.4706404  35.5680306  80.8155618  13.3468526  35.1858075
  81.3089977  11.9283797  34.9951949  91.2522309  23.0147527  34.8481443
  90.4617852  22.9971666  34.3085942  91.0155663  23.5535821  35.6030480
  91.3720184  19.8639993  32.1614171  91.4218189  19.6990001  33.1029694
  91.2634107  18.9967252  31.7712052  80.2556442  22.5428539  19.4506260
  80.4044563  23.2264003  18.7972933  81.0622886  22.5233629  19.9655716
  88.6623946  15.8470921  33.4773478  89.5633809  15.7077386  33.1857476
  88.7371921  16.0125376  34.4171656  82.9966751  13.2237776  32.3226665
  82.1270061  13.5171342  32.0509253  83.2326232  13.8078221  33.0433928
  92.8738380  22.2836935  32.4056193  92.5823189  22.6466915  33.2419654
  92.2610512  21.5703943  32.2269525  94.0734063  19.8489815  24.9258763
  94.9080954  20.2879619  25.0896324  94.2093192  19.3728468  24.1067009
  91.1225569  17.4069549  30.8736251  91.5979690  17.5997196  30.0655102
  90.1991134  17.4628735  30.6279635  78.0109075  18.5693717  20.4567329
  77.7655117  17.6656047  20.6547539  78.1804990  18.5710867  19.5146807
  85.7005785   9.4417393  29.8392085  86.2187729  10.1778420  29.5138573
  85.3460918   9.7481386  30.6738844  85.9518379   5.8617676  25.3592981
  86.2320133   5.1940865  25.9853408  86.7368986   6.0546771  24.8467645
  83.7551848  25.0376669  16.9218008  83.1825815  25.6566857  16.4688480
  84.3284642  25.5876031  17.4557930  89.8227238  14.2835310  29.1064557
  90.7744661  14.3833407  29.1276781  89.6530688  13.4913578  29.6162641
  87.8441617  11.3690893  29.2923958  87.2491549  11.6495905  28.5970446
  87.5591314  11.8584794  30.0640699  86.9749108  25.3213820  18.0526590
  87.9079781  25.2559381  18.2559466  86.8872320  26.1570086  17.5941123
  89.6037124  24.6379690  15.0130538  89.5250756  24.3039553  15.9066296
  90.4246791  25.1301458  15.0122010  92.3015316  17.5041429  28.2206856
  92.2691636  16.5657430  28.4066540  92.9115939  17.5825466  27.4872681
  92.4509804  14.2952473  28.2665139  91.9348853  13.5110929  28.0795068
  93.3349753  13.9671189  28.4311659  90.1120531   8.0393488  24.2260952
  89.9145352   7.7308576  25.1104284  90.7220236   8.7655127  24.3558882
  98.1191865  18.5657436  27.3612893  98.8495254  18.3042724  27.9220596
  97.5098811  17.8286158  27.4014961  96.2007162  16.7065299  27.9587344
  95.4740326  16.5721264  27.3503836  95.7854449  17.0142127  28.7644062
  84.0237339  20.4255228  35.7234717  84.9440348  20.6033827  35.9174764
  83.9886922  19.4811274  35.5714417  73.2419504  15.6193822  24.6487992
  72.9222288  14.7659130  24.3562366  72.6952932  15.8342400  25.4045959
  77.0199411  18.3356263  28.3657498  77.2385421  19.2673371  28.3845532
  77.4325185  17.9764237  29.1512302  85.8694178   7.9202395  21.9757483
  86.4225216   8.3397848  22.6347507  86.1064264   6.9938143  22.0180439
  81.8927277  13.9089469  37.7560247  81.7924004  14.8583826  37.6872338
  81.6748819  13.5807708  36.8836317  73.1107764  19.2396733  26.6181114
  72.4171235  18.8250686  26.1051068  73.8580755  19.2817270  26.0214532
  89.2472985  10.0302920  21.4836148  88.6671654  10.6887724  21.1014200
  88.9808917   9.2080265  21.0723565  87.6976551   9.4307978  23.6857468
  88.1976329   9.5424512  22.8771787  88.3412159   9.1269031  24.3258276
  81.7558547  17.3386608  36.5725309  81.2725629  18.1386968  36.7789198
  81.8419486  17.3494552  35.6192753  75.0244506  19.1714987  24.4947128
  75.0015195  19.2702675  23.5429011  75.3345143  20.0180138  24.8164295
  77.6831884  21.2291142  28.6093743  78.6375138  21.1975085  28.5423674
  77.4844408  20.7681766  29.4243969  78.2731266  19.7992258  31.1764540
  79.0924155  20.2936337  31.1999378  78.5468074  18.8824226  31.1482108
  88.0297863  12.1903011  20.5392496  87.1423718  12.4752661  20.3212691
  88.4451852  12.0296774  19.6919773  91.3812399  12.2149532  24.2546835
  92.1572789  12.7045984  24.5271452  90.6560533  12.6407586  24.7118705
  93.8184957  12.9277151  25.3120776  94.4129448  12.6872887  24.6014084
  93.8911541  12.2084281  25.9394312  76.0382113  26.7710762  25.6263941
  75.9036581  26.0111163  25.0601939  75.6214175  27.4951662  25.1592730
  87.1741076  21.9547685  14.6340516  87.8776926  22.1597688  15.2498172
  86.4503725  22.5224447  14.8989599  88.0038886  17.7057547  20.7542786
  87.9474088  18.1626098  19.9150419  88.5567229  16.9448231  20.5765629
  91.8143692  13.4947278  21.5792906  91.5580627  13.0943914  22.4101113
  91.1896560  14.2091072  21.4543045  96.1256030  16.2343352  24.0864197
  95.5655588  16.3036541  24.8595759  95.5199534  16.0584336  23.3663693
  79.1951239  27.6680079  25.8382383  79.0783623  28.6125511  25.7361074
  78.3743685  27.3653640  26.2268183  89.0827774  22.3930214  16.6838976
  89.9173377  21.9611413  16.5016451  88.9212116  22.2212228  17.6115870
  88.7373666  18.8962328  18.0495315  88.6822469  18.7306599  17.1083759
  88.1119721  19.6038361  18.2057505  73.5266181  14.1330392  31.8756738
  74.1725044  13.6229346  32.3643963  73.3183332  14.8699074  32.4500163
  86.0519573  21.2011240  37.3748878  86.9210732  21.3751892  37.0135513
  85.5726324  22.0205656  37.2524607  80.2205753  28.3208341  29.0538312
  81.1233000  28.3531951  29.3704807  79.9943123  27.3908792  29.0684648
  81.9759355  27.0739327  25.7148390  81.0254986  27.0741189  25.6012763
  82.2791841  26.3272062  25.1984425  77.8663672  11.2798009  35.9731752
  78.7295133  10.9234814  36.1835076  77.2929082  10.9411904  36.6607156
  97.7112049  32.9099866  26.7794153  98.3490459  32.7906613  26.0757493
  97.5932891  33.8580710  26.8382105  94.5201755  32.8627294  26.7155677
  94.1820266  32.7468358  25.8276212  95.3891523  32.4618459  26.6956684
  90.3788571  34.7162770  22.7052568  89.8153436  34.6252707  21.9368856
  90.2640966  33.8962675  23.1855061  95.0021538  34.0162145  32.6741883
  94.9910179  33.6214944  31.8022387  95.1642177  33.2828218  33.2675654
  87.9253003  36.2113962  25.5436789  88.7174294  35.8704786  25.1283088
  88.1649653  36.3208937  26.4638942  95.9588129  38.3833738  18.0167033
  95.3076109  38.9687818  17.6301047  96.7532492  38.9139933  18.0762071
  89.8843756  35.4722875  18.4154168  90.6574632  34.9251862  18.2767043
  90.2369155  36.3367124  18.6268629  91.7228799  36.7999257  31.6221067
  91.4318665  37.7044888  31.5067733  92.3585783  36.8415785  32.3365137
  92.6485006  34.1776106  28.2122427  93.2448578  33.9532128  27.4979390
  92.7059977  33.4360851  28.8147874  92.2210034  31.6315541  16.0472618
  92.4735555  31.1097062  15.2856081  91.2834593  31.4681687  16.1499301
  97.2653317  30.6351319  23.8547361  98.0516406  30.2170743  23.5037778
  97.5292021  31.5397412  24.0229009  97.4363394  36.0724170  18.5536018
  96.8009227  36.1458796  19.2656922  97.1060801  36.6617769  17.8755097
 102.6661744  30.5726553  24.7580339 103.3986916  30.0025769  24.9918169
 101.9101100  30.1848153  25.1986845  91.9406323  33.5343647  18.2496993
  91.8242581  32.8588550  18.9178077  92.0508583  33.0476021  17.4329146
  94.2837864  32.9953794  21.9543682  93.9196071  32.4684415  22.6656603
  95.1404980  32.6052263  21.7810167 100.1887165  24.2848127  29.2174948
  99.8570489  25.1543538  28.9936163  99.5932778  23.9684411  29.8968978
  93.9243351  28.0243694  16.9505030  94.0917753  28.8923930  17.3175501
  93.7340520  28.1870976  16.0266320  96.6818684  36.4860673  28.6170861
  96.3819407  37.3885712  28.5086668  96.3369744  36.2192856  29.4692014
  90.1331166  32.9374470  24.6507565  89.2081662  32.8050684  24.8585257
  90.3815579  33.7168689  25.1477507 100.0815828  29.0043213  26.2968298
  99.1732705  28.9358621  26.0027059 100.0303424  29.4815158  27.1250123
  93.9032572  30.4801351  17.9351697  93.7832197  30.9258402  18.7737177
  93.2085160  30.8286669  17.3765235  87.4939977  32.5807743  25.4851354
  87.6232358  32.8342222  26.3990766  86.8137428  33.1735451  25.1656009
  91.6639464  43.2504993  21.5841828  91.5863494  44.2012818  21.6630309
  91.0601107  42.9050866  22.2416755  94.1556694  30.4232859  34.2403195
  93.3790028  30.9826779  34.2306060  94.7947257  30.9089642  34.7618065
 101.9477474  27.2059651  28.0746172 101.3051855  27.4992184  27.4285966
 101.4432403  27.0912572  28.8799369  99.6017638  30.9522825  18.7632031
 100.5135494  31.1850211  18.5879729  99.0927285  31.5359869  18.2007110
  92.4103066  33.2318312  33.8021162  93.1517750  33.7703356  33.5255986
  91.7040051  33.8584601  33.9592714  97.8858406  35.3747452  32.3993324
  98.2941762  34.9329863  31.6547956  97.1635667  34.8000080  32.6527517
  94.2389476  30.3120059  29.7726881  95.0850671  30.7359473  29.9161530
  94.1788113  29.6553683  30.4665444  98.2087220  35.9348643  26.1545613
  97.5796083  36.0994357  25.4521680  97.8212882  36.3490253  26.9256577
 102.0876452  36.8703081  23.5089976 101.4027490  37.2501982  22.9587010
 102.1720301  37.4798407  24.2421924  97.3888921  27.9724427  31.4308054
  97.1449853  28.7266488  30.8942330  97.6648851  28.3509775  32.2655301
  99.3427384  34.5163040  30.1085320  99.5544279  35.1594800  29.4319701
  99.2957132  33.6825356  29.6407250  96.9453613  27.1280860  27.0121892
  96.0838092  27.4262114  27.3038630  96.9716047  27.3451259  26.0802925
  93.7615182  35.6723051  23.4195698  94.2253528  35.9510754  22.6300320
  93.4971980  34.7706496  23.2368788  90.6539263  35.2194533  26.3575461
  91.2240620  35.6481801  25.7192945  91.2447375  34.9377117  27.0559647
  92.6984068  31.7946203  20.2285263  93.4008112  32.2467247  20.6959189
  92.3664697  31.1530022  20.8565156  91.1464430  30.3857960  34.6036472
  90.5163090  31.0674241  34.8371869  91.0400518  30.2741042  33.6589611
  86.4409402  30.0529756  25.5302396  85.6508456  30.3087285  25.0542507
  86.9320650  30.8678094  25.6354437 100.4573212  37.3934995  28.2807677
 101.2790655  36.9915183  27.9990359 100.4535615  37.2903229  29.2323793
  88.3924148  30.4174335  22.4885873  87.5955311  30.5293030  23.0069369
  88.1649740  30.7560988  21.6226764  94.2229815  36.9419039  30.4368388
  94.2874248  37.4039446  31.2726560  93.5140739  36.3116403  30.5650698
  84.7247105  30.3060247  27.9617387  84.9755144  31.1907256  28.2274963
  85.2606654  30.1264848  27.1892479 108.5479205  33.7373744  24.6292649
 107.7942913  33.1681142  24.4736653 108.6826746  33.7036408  25.5763283
  93.9377833  38.6087146  20.3047368  93.8023508  39.4538682  20.7332216
  94.4787645  38.8106424  19.5413302  90.4245172  24.6878726  36.9661723
  90.0312118  24.1344924  37.6409368  91.2411313  24.9989304  37.3568241
  87.3907230  36.1262584  20.8775293  87.9031751  36.9205834  21.0280858
  88.0429943  35.4288875  20.8108895  89.2002115  39.2428340  22.9598046
  89.3768743  40.1646305  22.7719030  89.9958948  38.9286760  23.3892426
  93.3413133  26.1036605  34.5581980  94.0822847  26.7043758  34.4786442
  93.5731056  25.3614243  34.0000022  88.4854471  31.2892972  32.8360210
  88.3707987  30.3878229  33.1367308  87.6298989  31.5356669  32.4845026
  95.5646309  39.2310713  34.4347710  95.1210163  38.4447091  34.1168615
  96.2263523  39.4189863  33.7691601  90.3233430  40.7606514  28.9608389
  90.8740855  40.6323578  28.1885383  89.4844906  41.0601403  28.6103281
  97.6627547  39.5113512  32.4629111  97.6446023  40.3322394  31.9709381
  98.5847467  39.3867588  32.6879253  94.1200601  37.0257642  33.3052620
  94.6528938  36.2645930  33.0751928  93.5914683  36.7331294  34.0476774
  97.2870296  22.1317708  28.8346262  96.9434566  23.0219350  28.7585372
  97.6549259  21.9419366  27.9715847  85.3556147  34.4551238  21.6534864
  86.1931369  34.8648247  21.4368571  85.5334415  33.5150681  21.6235058
  97.2520579  32.1226319  17.3418697  96.7367203  32.8930924  17.5807084
  96.9797888  31.4491455  17.9651758  94.8367690  26.9676020  22.4003935
  93.9809286  26.5782870  22.2209574  95.2494642  27.0467981  21.5403721
  96.3666837  24.5022363  26.7995495  95.8631632  24.4652498  25.9863300
  96.6597444  25.4115106  26.8592151  92.6109723  24.5861093  25.8061677
  93.4762719  24.3903901  25.4467566  92.6787232  24.3571445  26.7331033
 102.2254853  34.8758674  19.2771870 101.4484296  34.5369833  18.8327032
 102.9046334  34.8811297  18.6026835  97.0406882  29.9953411  19.1678478
  96.7357018  30.3099560  20.0188621  97.9937324  30.0734831  19.2105811
  95.4853314  36.1543634  20.8171432  94.9574676  35.4196394  20.5044669
  94.9840817  36.9318311  20.5711400 100.4646160  34.3492655  25.9338478
  99.8069835  35.0391916  26.0218607 101.2686559  34.7389087  26.2772464
  90.2172042  26.8163301  23.1778043  90.7915794  26.5938482  22.4451236
  90.8043024  26.8851995  23.9306645  99.2751619  32.7037028  23.9842420
  99.7883501  33.3367019  24.4864130  99.9252843  32.1038223  23.6185780
  90.5441629  28.8467762  17.1973929  89.7078941  29.1842448  17.5183203
  90.4046398  28.7116742  16.2601066  92.5194709  23.6904550  21.9053113
  91.8659122  23.3753567  21.2809728  92.4775184  23.0680290  22.6312936
  93.6305914  33.9723845  13.8206405  92.7232976  33.7413098  14.0197554
  94.1276946  33.1761464  14.0080386  96.5373993  42.6821352  16.7403091
  95.8635692  42.9853049  17.3488049  96.9239815  43.4850432  16.3908548
  95.7532450  30.1786483  26.2300760  94.8355011  30.4001430  26.0722448
  96.1692593  30.2532794  25.3712468  96.5367498  31.5777899  21.3603441
  97.2839317  32.0899296  21.0510563  96.8059087  31.2561952  22.2207834
  94.8094148  34.0736440  18.3430395  93.9005367  33.7895472  18.4402865
  94.8389232  34.4935518  17.4833702 100.0413415  37.6843029  22.1121563
  99.5875742  36.8433939  22.1686753  99.4107382  38.3204427  22.4496343
  98.9846335  28.6135015  23.3422230  98.2469092  28.1012401  23.6732473
  99.2373108  28.1735397  22.5305507  98.4846354  39.5219526  23.0471381
  98.7769329  40.0824583  22.3283746  98.9944975  39.8148087  23.8024540
  99.0857962  21.3911267  23.9363999  99.3916839  20.5308631  23.6489914
  99.8110567  21.9828887  23.7362993  85.3782318  31.7941954  22.3245597
  85.1806718  31.2011314  21.5996664  84.8228982  31.4894164  23.0421536
  93.3579042  31.6865060  24.4440190  93.4127652  30.7338897  24.3682667
  92.5470244  31.8424499  24.9281489  94.5070236  35.6145183  15.6818474
  94.0689665  34.8981042  15.2224111  95.2480676  35.8421298  15.1203565
  91.2971402  30.3042120  22.2030569  90.4839267  30.6036290  22.6095761
  91.7930396  29.9097809  22.9205051  93.4479980  40.2999877  24.1364834
  93.4056158  40.5260723  23.2073366  94.3642678  40.0663251  24.2850635
  96.8945613  30.7683944  31.0345463  97.2495001  30.9955418  31.8939929
  97.5417745  31.1002321  30.4122718 102.6243350  33.8902380  21.7394792
 102.4861249  34.0803976  20.8115981 102.2679569  34.6521763  22.1962843
  90.7885476  27.8760475  27.8191804  91.4284856  27.7349235  27.1214767
  89.9563007  27.5894989  27.4430406 102.6512730  35.9578907  26.7506064
 103.0849237  35.8654196  27.5989118 103.3644311  35.9336408  26.1126080
  91.5645780  37.1762906  23.9326797  92.3586379  36.6813226  23.7309372
  90.8537473  36.6480769  23.5694502  96.3840625  39.5581001  28.2839164
  96.4377647  40.1271938  29.0516880  95.5155406  39.7282886  27.9193201
  87.8728544  31.3205988  20.0086549  86.9426132  31.2590443  20.2256511
  87.9686016  30.7981940  19.2123191  87.7914093  27.8460800  22.5964791
  88.0520910  28.7606134  22.4873951  88.6131265  27.3785243  22.7461404
  89.2639018  29.2598558  29.7663615  89.9362072  29.0515920  29.1176264
  88.4368805  29.0620644  29.3268848 103.5128279  36.0002608  29.2838949
 103.7064170  36.9048418  29.5298224 103.4128898  35.5410027  30.1177534
  95.1664590  25.8860499  31.7829276  94.5192505  26.5850448  31.6893753
  95.9365606  26.3196642  32.1505525  98.5743388  36.1509351  34.8579830
  98.4228895  35.9219902  33.9409913  98.5648068  37.1079952  34.8711175
  95.3428725  33.7241263  29.8426096  96.2720785  33.8752423  29.6695063
  94.9219755  33.8125284  28.9874743  94.1417056  37.7491928  27.6124634
  94.0028142  37.3810712  28.4850572  93.3531653  38.2639567  27.4408591
  94.7365208  42.8501024  18.9550170  94.9116964  42.3789068  19.7695793
  94.0497996  43.4766791  19.1831431  95.6922272  37.1273531  25.0013471
  95.3572104  37.0874301  25.8971121  95.1926217  36.4618246  24.5283882
  89.6666515  32.5341161  30.5266053  89.5286313  31.8021399  31.1277592
  90.5771439  32.4450061  30.2450240  98.6281463  34.4729565  15.2750531
  98.0110634  33.7476393  15.1783584  98.1597952  35.2338925  14.9317605
  92.2948816  32.2461120  30.0149732  93.0048435  31.6054312  29.9736351
  92.2518124  32.4974015  30.9375913 100.2835595  39.1828473  32.9356311
 100.2248141  38.4987693  32.2686894 100.6855113  39.9247463  32.4836937
  91.0077750  29.2326338  31.8345372  90.4715107  28.7817076  32.4866968
  90.4194459  29.3672247  31.0915836  89.3026294  45.9990387  25.7290030
  89.5422892  46.6308911  26.4069049  88.4595490  45.6478427  26.0155390
  90.4180009  28.6914989  14.3971835  89.5409475  28.5703790  14.0334082
  90.8937762  27.9001068  14.1450724 100.2853002  37.1468057  31.1670291
  99.3979781  36.8093979  31.2896690 100.8551553  36.4151088  31.4039057
  81.9382149  33.4792149  24.4913343  82.6253189  33.1653879  23.9034358
  81.7830278  34.3833514  24.2180594  86.7416871  28.3682345  28.9198366
  86.6575060  27.7608015  28.1848776  85.9199578  28.8591364  28.9207863
  93.8154155  41.8069510  28.1331534  93.7424327  42.6124481  28.6450839
  93.3731549  42.0061475  27.3079556  93.6043935  41.0441280  21.6434356
  92.8211457  41.5862960  21.7372580  94.3036680  41.5615259  22.0428597
  96.9140585  26.8535909  24.2868561  97.4109285  26.1005871  23.9669632
  96.1427567  26.8900226  23.7211771 104.7670343  32.5576275  25.9286853
 104.7560219  33.4400990  25.5580786 103.8987722  32.2047825  25.7341390
  96.2752839  41.7056344  30.2889693  96.9880811  42.3403808  30.2165594
  95.7842868  41.8020210  29.4729695  97.9970366  35.6107596  21.8606985
  97.0626645  35.7309059  21.6911689  98.1747034  34.7080063  21.5966995
  93.4975554  28.9953292  24.0140246  93.1273341  28.4424332  24.7021151
  93.9934646  28.3911425  23.4615246 101.3842917  31.4524916  22.3957019
 101.8503369  32.2852907  22.3217321 101.8350418  30.9869897  23.1002277
  91.3264753  39.4550787  31.1095264  92.0274212  40.0887270  31.2624658
  90.8559868  39.7965519  30.3490903  99.4519148  37.7968737  19.3943171
  99.7278992  37.6825331  20.3037045  98.5823647  37.3986222  19.3555344
  99.3559580  23.8205503  26.4347920  98.4422660  24.0509729  26.6030127
  99.7852681  23.9043947  27.2861953  99.1266038  32.0095394  28.9347814
  98.4737489  32.2571302  28.2800267  99.5046418  31.1959533  28.6010291
  96.0873212  42.0455088  23.0375984  96.2695607  41.2276744  23.5003737
  96.9106198  42.2622780  22.6000874  96.4215378  40.9723273  20.2991033
  96.9503144  40.4615727  19.6861195  96.6843597  40.6565803  21.1636566
  95.1753612  32.7515206  35.4213851  94.4994249  32.6509335  36.0916226
  95.9981245  32.5954419  35.8849848  86.9232471  38.9887142  28.0426366
  87.5085907  38.2430830  28.1754271  86.7257309  39.2991099  28.9263030
  89.7771126  42.0238389  23.0588809  89.1081501  42.5084517  22.5752849
  89.6383996  42.2707610  23.9732187  81.5150125  31.5592742  26.7630810
  81.5534225  31.0256333  27.5567928  81.0090418  31.0327948  26.1441787
  93.9176394  44.0582133  29.6571467  94.4694702  44.2213754  30.4220552
  94.2582588  44.6486571  28.9851492  88.8940888  26.4057283  30.2593352
  88.9582214  27.2672114  29.8470750  88.8308008  25.7931284  29.5265710
  88.3693160  28.4780415  33.9066386  88.9965199  28.0957493  34.5203911
  87.5121079  28.2594617  34.2722079  98.7687269  38.8843391  35.5120122
  99.3127173  39.4973349  35.0175076  98.1874114  39.4422969  36.0287135
  85.1458703  30.2856844  19.8384741  85.4412144  29.3767523  19.7851795
  84.2446739  30.2644584  19.5165743  97.0544782  42.0064109  26.6435149
  96.9295921  41.2053848  26.1346095  97.7123873  42.5010302  26.1549119
  88.6752950  28.3612841  25.8212290  87.9539536  28.9748809  25.6819763
  89.4646206  28.8970606  25.7428936  99.1179690  39.8073129  28.2714699
  98.1710026  39.6878480  28.1993026  99.4662463  38.9195627  28.3540961
  91.4779263  25.6967268  32.0952941  92.0013665  25.9429564  32.8579251
  91.2591597  26.5287302  31.6756079  86.8746544  27.9670942  19.9624066
  86.5459251  27.0868321  19.7799172  87.2285915  27.9118611  20.8500455
  96.1226123  39.6025845  24.4719052  95.9751086  38.6742552  24.6526622
  96.9479617  39.6245936  23.9876127  89.9888368  28.2543912  20.3299544
  90.3284440  28.7829833  19.6078152  90.4360488  28.5924318  21.1058110
  99.7260245  40.4254404  25.5583924 100.6506793  40.2197265  25.4208376
  99.5575549  40.1770805  26.4673266  92.6831808  26.6380963  29.7802612
  92.3428629  25.8388776  30.1823292  91.9770815  26.9382673  29.2079445
  93.3348280  23.7230275  28.2329935  94.1574350  23.2490753  28.1108825
  93.5786344  24.5020759  28.7328621  91.9756515  26.7518533  18.5292837
  92.6964877  27.1299786  18.0256553  91.3521819  27.4707410  18.6327815
  96.1187638  27.4563682  19.4651169  96.3351252  28.3388320  19.1639997
  95.6381705  27.0649896  18.7356811  90.8586859  30.4149396  26.0421914
  90.7131440  30.7289699  26.9346195  90.3812063  31.0334296  25.4892812
  92.7183242  27.4051944  26.0902803  92.7044811  26.5093037  25.7535101
  93.4355670  27.4122607  26.7241089  94.5709373  27.8389284  28.1355931
  94.3127150  28.7606355  28.1340261  94.0394413  27.4419718  28.8256395
  99.5155561  40.9440071  20.9146016  99.6892439  40.3786493  20.1619868
 100.0084453  41.7440966  20.7325506  85.3332521  32.9554740  28.9809575
  84.7885989  33.7314548  29.1129849  86.2111871  33.3025545  28.8228696
  92.1220138  26.2866324  21.3590373  92.2436049  25.3582970  21.5581261
  91.8322180  26.3005010  20.4468689  94.9911328  23.9721234  24.4957093
  95.0133025  24.0360567  23.5409073  95.4079387  23.1325743  24.6897599
 105.3694953  33.7076494  22.5336316 105.8126099  32.9583819  22.1355439
 104.4921463  33.6986630  22.1510048 100.5030734  40.2606835  18.0142914
 101.1981639  40.8813528  18.2330229 100.8453884  39.4102187  18.2895292
  86.1198543  32.0824636  31.8739732  85.3780279  32.2307272  32.4604362
  85.7991287  32.3432902  31.0106481 102.4022157  37.7106541  19.5430245
 102.9273481  38.0493814  18.8179565 102.3144510  36.7753556  19.3593380
  94.0642206  41.6240615  31.6720122  94.3729332  41.3789761  32.5442821
  94.8617688  41.8287253  31.1838992  94.0862818  43.7778524  23.9025498
  93.6467808  43.2854903  24.5958355  94.8370935  43.2351492  23.6617573
  86.5655157  39.9690065  23.9050126  87.3913177  39.6693837  23.5248770
  86.2149209  39.1997688  24.3539915  91.5336690  39.3216533  25.9747800
  90.9116699  38.6587238  25.6750028  92.2041557  39.3477665  25.2921448
  84.7663762  37.8876392  24.8639060  83.9295670  37.4598566  24.6823061
  84.7387407  38.0808835  25.8009851  91.6061217  27.7998321  35.5680306
  91.6549373  28.6760444  35.1858075  92.1483732  27.2575714  34.9951949
 102.0916063  38.3439445  34.8481443 101.3011607  38.3263583  34.3085942
 101.8549418  38.8827738  35.6030480 102.2113938  35.1931911  32.1614171
 102.2611943  35.0281918  33.1029694 102.1027861  34.3259170  31.7712052
  91.0950197  37.8720457  19.4506260  91.2438317  38.5555921  18.7972933
  91.9016640  37.8525547  19.9655716  99.5017701  31.1762839  33.4773478
 100.4027563  31.0369304  33.1857476  99.5765675  31.3417294  34.4171656
  93.8360506  28.5529694  32.3226665  92.9663815  28.8463260  32.0509253
  94.0719986  29.1370139  33.0433928 103.7132135  37.6128852  32.4056193
 103.4216943  37.9758833  33.2419654 103.1004266  36.8995861  32.2269525
 104.9127817  35.1781732  24.9258763 105.7474709  35.6171536  25.0896324
 105.0486946  34.7020385  24.1067009 101.9619323  32.7361467  30.8736251
 102.4373445  32.9289113  30.0655102 101.0384889  32.7920653  30.6279635
  88.8502830  33.8985634  20.4567329  88.6048872  32.9947964  20.6547539
  89.0198744  33.9002785  19.5146807  96.5399540  24.7709311  29.8392085
  97.0581484  25.5070338  29.5138573  96.1854672  25.0773304  30.6738844
  88.1198477  29.6313992  17.9553491  87.4267722  29.7058347  17.2993527
  87.8750229  28.8674335  18.4775008  96.7912134  21.1909593  25.3592981
  97.0713888  20.5232782  25.9853408  97.5762741  21.3838689  24.8467645
  94.5945602  40.3668587  16.9218008  94.0219569  40.9858774  16.4688480
  95.1678396  40.9167949  17.4557930 100.6620992  29.6127227  29.1064557
 101.6138415  29.7125325  29.1276781 100.4924443  28.8205496  29.6162641
  98.6835372  26.6982810  29.2923958  98.0885304  26.9787823  28.5970446
  98.3985068  27.1876711  30.0640699  97.8142862  40.6505737  18.0526590
  98.7473535  40.5851299  18.2559466  97.7266075  41.4862004  17.5941123
 100.4430879  39.9671608  15.0130538 100.3644510  39.6331471  15.9066296
 101.2640546  40.4593375  15.0122010 103.1409070  32.8333347  28.2206856
 103.1085390  31.8949348  28.4066540 103.7509694  32.9117384  27.4872681
  94.9792401  31.7029400  14.2634060  95.9251506  31.5735608  14.3322478
  94.6006646  30.9644062  14.7403488 103.2903558  29.6244390  28.2665139
 102.7742607  28.8402847  28.0795068 104.1743507  29.2963107  28.4311659
 100.9514285  23.3685406  24.2260952 100.7539107  23.0600494  25.1104284
 101.5613991  24.0947045  24.3558882 108.9585620  33.8949354  27.3612893
 109.6889008  33.6334642  27.9220596 108.3492565  33.1578076  27.4014961
 107.0400917  32.0357216  27.9587344 106.3134081  31.9013181  27.3503836
 106.6248204  32.3434045  28.7644062  94.8631093  35.7547146  35.7234717
  95.7834103  35.9325745  35.9174764  94.8280676  34.8103191  35.5714417
  93.1635318  29.6279376  14.1988946  92.2566773  29.3312489  14.2751659
  93.4411299  29.3309194  13.3323232  84.0813258  30.9485740  24.6487992
  83.7616043  30.0951048  24.3562366  83.5346687  31.1634318  25.4045959
  87.8593166  33.6648181  28.3657498  88.0779176  34.5965288  28.3845532
  88.2718940  33.3056155  29.1512302  94.7797384  24.1716266  20.3533187
  93.9698112  23.8263351  20.7288433  95.4681801  23.8623810  20.9420798
  96.7087932  23.2494313  21.9757483  97.2618971  23.6689766  22.6347507
  96.9458018  22.3230061  22.0180439  92.7321031  29.2381386  37.7560247
  92.6317758  30.1875743  37.6872338  92.5142573  28.9099625  36.8836317
  91.9334103  26.4866311  14.3400925  92.7953267  26.8121210  14.5996742
  92.1184447  25.6997807  13.8273991  83.9501518  34.5688651  26.6181114
  83.2564990  34.1542604  26.1051068  84.6974509  34.6109188  26.0214532
 100.0866739  25.3594838  21.4836148  99.5065408  26.0179642  21.1014200
  99.8202672  24.5372183  21.0723565  98.5370305  24.7599896  23.6857468
  99.0370084  24.8716430  22.8771787  99.1805913  24.4560948  24.3258276
  92.5952301  32.6678525  36.5725309  92.1119383  33.4678885  36.7789198
  92.6813240  32.6786470  35.6192753  85.8638261  34.5006905  24.4947128
  85.8408949  34.5994592  23.5429011  86.1738897  35.3472056  24.8164295
  88.5225639  36.5583060  28.6093743  89.4768892  36.5267002  28.5423674
  88.3238162  36.0973684  29.4243969  89.1125021  35.1284176  31.1764540
  89.9317910  35.6228255  31.1999378  89.3861829  34.2116144  31.1482108
  98.8691617  27.5194928  20.5392496  97.9817472  27.8044579  20.3212691
  99.2845606  27.3588692  19.6919773 102.2206153  27.5441449  24.2546835
 102.9966543  28.0337902  24.5271452 101.4954287  27.9699503  24.7118705
 104.6578712  28.2569068  25.3120776 105.2523203  28.0164804  24.6014084
 104.7305296  27.5376199  25.9394312  86.8775868  42.1002679  25.6263941
  86.7430336  41.3403080  25.0601939  86.4607930  42.8243579  25.1592730
  98.0134831  37.2839603  14.6340516  98.7170681  37.4889605  15.2498172
  97.2897479  37.8516365  14.8989599  98.8432641  33.0349464  20.7542786
  98.7867842  33.4918016  19.9150419  99.3960983  32.2740149  20.5765629
 102.6537447  28.8239196  21.5792906 102.3974381  28.4235832  22.4101113
 102.0290315  29.5382990  21.4543045 106.9649785  31.5635269  24.0864197
 106.4049343  31.6328459  24.8595759 106.3593288  31.3876254  23.3663693
  90.0344993  42.9971996  25.8382383  89.9177378  43.9417429  25.7361074
  89.2137440  42.6945558  26.2268183  99.9221528  37.7222132  16.6838976
 100.7567132  37.2903331  16.5016451  99.7605871  37.5504146  17.6115870
  99.5767420  34.2254245  18.0495315  99.5216224  34.0598517  17.1083759
  98.9513475  34.9330278  18.2057505  84.3659935  29.4622310  31.8756738
  85.0118799  28.9521264  32.3643963  84.1577086  30.1990991  32.4500163
  96.8913327  36.5303157  37.3748878  97.7604487  36.7043810  37.0135513
  96.4120079  37.3497574  37.2524607  92.8863546  23.7262354  17.6280634
  92.8742215  24.6704194  17.7848905  93.7786968  23.5432500  17.3340095
  91.0599508  43.6500258  29.0538312  91.9626754  43.6823869  29.3704807
  90.8336878  42.7200709  29.0684648  92.8153110  42.4031245  25.7148390
  91.8648741  42.4033106  25.6012763  93.1185596  41.6563979  25.1984425
  96.7015665  20.3205131  21.8826571  95.9348061  19.7663618  22.0283253
  97.1126370  20.3927000  22.7440722  88.7057426  26.6089927  35.9731752
  89.5688888  26.2526732  36.1835076  88.1322837  26.2703822  36.6607156
 108.5505803  48.2391783  26.7794153 109.1884213  48.1198531  26.0757493
 108.4326646  49.1872627  26.8382105 105.3595509  48.1919211  26.7155677
 105.0214021  48.0760276  25.8276212 106.2285278  47.7910376  26.6956684
 101.2182325  50.0454688  22.7052568 100.6547190  49.9544625  21.9368856
 101.1034720  49.2254592  23.1855061 105.8415292  49.3454063  32.6741883
 105.8303933  48.9506861  31.8022387 106.0035932  48.6120136  33.2675654
  98.7646757  51.5405879  25.5436789  99.5568049  51.1996704  25.1283088
  99.0043407  51.6500854  26.4638942 106.7981884  53.7125655  18.0167033
 106.1469864  54.2979736  17.6301047 107.5926247  54.2431850  18.0762071
 100.7237511  50.8014793  18.4154168 101.4968387  50.2543780  18.2767043
 101.0762910  51.6659042  18.6268629 102.5622554  52.1291175  31.6221067
 102.2712419  53.0336806  31.5067733 103.1979538  52.1707703  32.3365137
 103.4878760  49.5068023  28.2122427 104.0842333  49.2824046  27.4979390
 103.5453732  48.7652769  28.8147874 103.0603789  46.9607459  16.0472618
 103.3129309  46.4388980  15.2856081 102.1228348  46.7973604  16.1499301
 108.1047072  45.9643237  23.8547361 108.8910161  45.5462660  23.5037778
 108.3685776  46.8689329  24.0229009 108.2757149  51.4016087  18.5536018
 107.6402982  51.4750714  19.2656922 107.9454555  51.9909686  17.8755097
 113.5055499  45.9018470  24.7580339 114.2380671  45.3317687  24.9918169
 112.7494854  45.5140071  25.1986845 102.7800077  48.8635565  18.2496993
 102.6636336  48.1880468  18.9178077 102.8902337  48.3767939  17.4329146
 105.1231618  48.3245712  21.9543682 104.7589826  47.7976333  22.6656603
 105.9798734  47.9344181  21.7810167 111.0280919  39.6140044  29.2174948
 110.6964244  40.4835455  28.9936163 110.4326532  39.2976328  29.8968978
 104.7637105  43.3535612  16.9505030 104.9311508  44.2215848  17.3175501
 104.5734274  43.5162893  16.0266320 107.5212439  51.8152590  28.6170861
 107.2213162  52.7177629  28.5086668 107.1763498  51.5484774  29.4692014
 100.9724920  48.2666387  24.6507565 100.0475417  48.1342601  24.8585257
 101.2209333  49.0460607  25.1477507 110.9209582  44.3335131  26.2968298
 110.0126460  44.2650539  26.0027059 110.8697178  44.8107076  27.1250123
 104.7426326  45.8093269  17.9351697 104.6225951  46.2550320  18.7737177
 104.0478915  46.1578587  17.3765235  98.3333731  47.9099661  25.4851354
  98.4626112  48.1634140  26.3990766  97.6531182  48.5027369  25.1656009
 102.5033218  58.5796911  21.5841828 102.4257248  59.5304736  21.6630309
 101.8994862  58.2342783  22.2416755 104.9950448  45.7524776  34.2403195
 104.2183782  46.3118696  34.2306060 105.6341011  46.2381559  34.7618065
 112.7871229  42.5351569  28.0746172 112.1445609  42.8284102  27.4285966
 112.2826157  42.4204489  28.8799369 110.4411392  46.2814742  18.7632031
 111.3529249  46.5142129  18.5879729 109.9321040  46.8651786  18.2007110
 103.2496820  48.5610230  33.8021162 103.9911505  49.0995274  33.5255986
 102.5433806  49.1876518  33.9592714 108.7252160  50.7039370  32.3993324
 109.1335516  50.2621781  31.6547956 108.0029422  50.1291998  32.6527517
 105.0783230  45.6411977  29.7726881 105.9244425  46.0651390  29.9161530
 105.0181868  44.9845601  30.4665444 109.0480975  51.2640561  26.1545613
 108.4189837  51.4286275  25.4521680 108.6606637  51.6782170  26.9256577
 112.9270207  52.1994999  23.5089976 112.2421245  52.5793900  22.9587010
 113.0114056  52.8090325  24.2421924 108.2282675  43.3016345  31.4308054
 107.9843607  44.0558406  30.8942330 108.5042606  43.6801693  32.2655301
 110.1821138  49.8454958  30.1085320 110.3938033  50.4886717  29.4319701
 110.1350886  49.0117274  29.6407250 107.7847367  42.4572778  27.0121892
 106.9231846  42.7554032  27.3038630 107.8109802  42.6743177  26.0802925
 104.6008937  51.0014969  23.4195698 105.0647282  51.2802672  22.6300320
 104.3365735  50.0998413  23.2368788 101.4933018  50.5486450  26.3575461
 102.0634375  50.9773719  25.7192945 102.0841130  50.2669035  27.0559647
 103.5377823  47.1238121  20.2285263 104.2401866  47.5759165  20.6959189
 103.2058451  46.4821940  20.8565156 101.9858184  45.7149878  34.6036472
 101.3556845  46.3966159  34.8371869 101.8794272  45.6032959  33.6589611
  97.2803157  45.3821674  25.5302396  96.4902211  45.6379202  25.0542507
  97.7714404  46.1970012  25.6354437 111.2966966  52.7226913  28.2807677
 112.1184410  52.3207100  27.9990359 111.2929369  52.6195147  29.2323793
  99.2317902  45.7466253  22.4885873  98.4349065  45.8584947  23.0069369
  99.0043494  46.0852905  21.6226764 105.0623570  52.2710956  30.4368388
 105.1268002  52.7331363  31.2726560 104.3534494  51.6408321  30.5650698
  95.5640860  45.6352164  27.9617387  95.8148898  46.5199174  28.2274963
  96.1000408  45.4556766  27.1892479 119.3872959  49.0665661  24.6292649
 118.6336668  48.4973060  24.4736653 119.5220500  49.0328326  25.5763283
 104.7771587  53.9379064  20.3047368 104.6417262  54.7830599  20.7332216
 105.3181400  54.1398341  19.5413302 101.2638927  40.0170644  36.9661723
 100.8705873  39.4636842  37.6409368 102.0805067  40.3281222  37.3568241
  98.2300985  51.4554502  20.8775293  98.7425505  52.2497752  21.0280858
  98.8823698  50.7580792  20.8108895 100.0395869  54.5720258  22.9598046
 100.2162498  55.4938223  22.7719030 100.8352703  54.2578677  23.3892426
 104.1806888  41.4328523  34.5581980 104.9216601  42.0335676  34.4786442
 104.4124811  40.6906160  34.0000022  99.3248226  46.6184890  32.8360210
  99.2101741  45.7170147  33.1367308  98.4692744  46.8648587  32.4845026
 106.4040064  54.5602630  34.4347710 105.9603918  53.7739009  34.1168615
 107.0657277  54.7481781  33.7691601 101.1627185  56.0898432  28.9608389
 101.7134610  55.9615495  28.1885383 100.3238661  56.3893321  28.6103281
 108.5021302  54.8405430  32.4629111 108.4839777  55.6614311  31.9709381
 109.4241222  54.7159505  32.6879253 104.9594356  52.3549560  33.3052620
 105.4922693  51.5937848  33.0751928 104.4308437  52.0623211  34.0476774
 108.1264051  37.4609626  28.8346262 107.7828320  38.3511267  28.7585372
 108.4943013  37.2711283  27.9715847  96.1949901  49.7843156  21.6534864
  97.0325123  50.1940164  21.4368571  96.3728169  48.8442598  21.6235058
 108.0914334  47.4518237  17.3418697 107.5760957  48.2222841  17.5807084
 107.8191642  46.7783373  17.9651758 105.6761445  42.2967937  22.4003935
 104.8203041  41.9074788  22.2209574 106.0888396  42.3759898  21.5403721
 107.2060591  39.8314281  26.7995495 106.7025387  39.7944416  25.9863300
 107.4991198  40.7407023  26.8592151 103.4503477  39.9153010  25.8061677
 104.3156474  39.7195819  25.4467566 103.5180986  39.6863362  26.7331033
 113.0648608  50.2050591  19.2771870 112.2878050  49.8661751  18.8327032
 113.7440089  50.2103215  18.6026835 107.8800637  45.3245329  19.1678478
 107.5750772  45.6391478  20.0188621 108.8331079  45.4026749  19.2105811
 106.3247069  51.4835552  20.8171432 105.7968430  50.7488312  20.5044669
 105.8234571  52.2610228  20.5711400 111.3039915  49.6784573  25.9338478
 110.6463589  50.3683834  26.0218607 112.1080314  50.0681005  26.2772464
 101.0565796  42.1455218  23.1778043 101.6309548  41.9230400  22.4451236
 101.6436779  42.2143913  23.9306645 110.1145373  48.0328945  23.9842420
 110.6277255  48.6658937  24.4864130 110.7646597  47.4330141  23.6185780
 101.3835383  44.1759679  17.1973929 100.5472696  44.5134366  17.5183203
 101.2440153  44.0408659  16.2601066 103.3588464  39.0196467  21.9053113
 102.7052876  38.7045484  21.2809728 103.3168938  38.3972208  22.6312936
 104.4699669  49.3015762  13.8206405 103.5626731  49.0705016  14.0197554
 104.9670701  48.5053382  14.0080386 107.3767748  58.0113270  16.7403091
 106.7029446  58.3144966  17.3488049 107.7633570  58.8142350  16.3908548
 106.5926204  45.5078401  26.2300760 105.6748766  45.7293348  26.0722448
 107.0086348  45.5824711  25.3712468 107.3761252  46.9069817  21.3603441
 108.1233071  47.4191214  21.0510563 107.6452842  46.5853869  22.2207834
 105.6487902  49.4028357  18.3430395 104.7399121  49.1187390  18.4402865
 105.6782986  49.8227436  17.4833702 110.8807170  53.0134947  22.1121563
 110.4269497  52.1725857  22.1686753 110.2501136  53.6496345  22.4496343
 109.8240089  43.9426933  23.3422230 109.0862846  43.4304319  23.6732473
 110.0766863  43.5027314  22.5305507 109.3240109  54.8511443  23.0471381
 109.6163083  55.4116501  22.3283746 109.8338729  55.1440004  23.8024540
 109.9251717  36.7203185  23.9363999 110.2310593  35.8600548  23.6489914
 110.6504321  37.3120805  23.7362993  96.2176073  47.1233871  22.3245597
  96.0200472  46.5303232  21.5996664  95.6622737  46.8186082  23.0421536
 104.1972796  47.0156978  24.4440190 104.2521406  46.0630814  24.3682667
 103.3863998  47.1716417  24.9281489 105.3463990  50.9437101  15.6818474
 104.9083420  50.2272960  15.2224111 106.0874431  51.1713216  15.1203565
 102.1365156  45.6334038  22.2030569 101.3233022  45.9328208  22.6095761
 102.6324150  45.2389726  22.9205051 104.2873734  55.6291795  24.1364834
 104.2449913  55.8552641  23.2073366 105.2036433  55.3955169  24.2850635
 107.7339368  46.0975862  31.0345463 108.0888756  46.3247335  31.8939929
 108.3811499  46.4294239  30.4122718 113.4637105  49.2194298  21.7394792
 113.3255003  49.4095894  20.8115981 113.1073324  49.9813681  22.1962843
 101.6279231  43.2052393  27.8191804 102.2678610  43.0641152  27.1214767
 100.7956761  42.9186907  27.4430406 113.4906484  51.2870825  26.7506064
 113.9242991  51.1946114  27.5989118 114.2038065  51.2628325  26.1126080
 102.4039535  52.5054824  23.9326797 103.1980133  52.0105144  23.7309372
 101.6931227  51.9772687  23.5694502 107.2234379  54.8872919  28.2839164
 107.2771402  55.4563855  29.0516880 106.3549161  55.0574804  27.9193201
  98.7122298  46.6497905  20.0086549  97.7819886  46.5882361  20.2256511
  98.8079770  46.1273858  19.2123191  98.6307847  43.1752718  22.5964791
  98.8914665  44.0898051  22.4873951  99.4525020  42.7077161  22.7461404
 100.1032773  44.5890475  29.7663615 100.7755826  44.3807837  29.1176264
  99.2762559  44.3912561  29.3268848 114.3522034  51.3294526  29.2838949
 114.5457924  52.2340336  29.5298224 114.2522652  50.8701945  30.1177534
 106.0058345  41.2152416  31.7829276 105.3586260  41.9142366  31.6893753
 106.7759360  41.6488560  32.1505525 109.4137143  51.4801268  34.8579830
 109.2622649  51.2511820  33.9409913 109.4041822  52.4371870  34.8711175
 106.1822479  49.0533181  29.8426096 107.1114539  49.2044341  29.6695063
 105.7613509  49.1417202  28.9874743 104.9810811  53.0783846  27.6124634
 104.8421897  52.7102630  28.4850572 104.1925407  53.5931485  27.4408591
 105.5758963  58.1792942  18.9550170 105.7510719  57.7080985  19.7695793
 104.8891751  58.8058708  19.1831431 106.5316026  52.4565448  25.0013471
 106.1965859  52.4166218  25.8971121 106.0319972  51.7910164  24.5283882
 100.5060270  47.8633078  30.5266053 100.3680068  47.1313317  31.1277592
 101.4165193  47.7741978  30.2450240 109.4675218  49.8021483  15.2750531
 108.8504388  49.0768311  15.1783584 108.9991706  50.5630843  14.9317605
 103.1342571  47.5753038  30.0149732 103.8442189  46.9346230  29.9736351
 103.0911879  47.8265932  30.9375913 111.1229349  54.5120391  32.9356311
 111.0641895  53.8279611  32.2686894 111.5248868  55.2539381  32.4836937
 101.8471505  44.5618255  31.8345372 101.3108862  44.1108994  32.4866968
 101.2588213  44.6964164  31.0915836 100.1420048  61.3282305  25.7290030
 100.3816646  61.9600829  26.4069049  99.2989245  60.9770345  26.0155390
 101.2573764  44.0206907  14.3971835 100.3803230  43.8995708  14.0334082
 101.7331517  43.2292985  14.1450724 111.1246757  52.4759975  31.1670291
 110.2373535  52.1385897  31.2896690 111.6945308  51.7443006  31.4039057
  92.7775904  48.8084067  24.4913343  93.4646944  48.4945797  23.9034358
  92.6224032  49.7125431  24.2180594  97.5810626  43.6974263  28.9198366
  97.4968815  43.0899933  28.1848776  96.7593332  44.1883281  28.9207863
 104.6547910  57.1361427  28.1331534 104.5818081  57.9416399  28.6450839
 104.2125303  57.3353393  27.3079556 104.4437690  56.3733197  21.6434356
 103.6605211  56.9154877  21.7372580 105.1430435  56.8907177  22.0428597
 107.7534340  42.1827827  24.2868561 108.2503039  41.4297789  23.9669632
 106.9821321  42.2192143  23.7211771 115.6064097  47.8868192  25.9286853
 115.5953973  48.7692908  25.5580786 114.7381477  47.5339743  25.7341390
 107.1146593  57.0348261  30.2889693 107.8274566  57.6695726  30.2165594
 106.6236622  57.1312127  29.4729695 108.8364120  50.9399514  21.8606985
 107.9020399  51.0600976  21.6911689 109.0140789  50.0371981  21.5966995
 104.3369308  44.3245210  24.0140246 103.9667096  43.7716250  24.7021151
 104.8328401  43.7203343  23.4615246 112.2236672  46.7816833  22.3957019
 112.6897124  47.6144825  22.3217321 112.6744172  46.3161815  23.1002277
 102.1658507  54.7842705  31.1095264 102.8667967  55.4179188  31.2624658
 101.6953622  55.1257436  30.3490903 110.2912903  53.1260654  19.3943171
 110.5672747  53.0117249  20.3037045 109.4217402  52.7278139  19.3555344
 110.1953334  39.1497420  26.4347920 109.2816414  39.3801647  26.6030127
 110.6246436  39.2335864  27.2861953 109.9659793  47.3387312  28.9347814
 109.3131243  47.5863220  28.2800267 110.3440173  46.5251450  28.6010291
 106.9266967  57.3747005  23.0375984 107.1089361  56.5568661  23.5003737
 107.7499953  57.5914698  22.6000874 107.2609132  56.3015190  20.2991033
 107.7896899  55.7907645  19.6861195 107.5237352  55.9857721  21.1636566
 106.0147366  48.0807123  35.4213851 105.3388003  47.9801253  36.0916226
 106.8375000  47.9246337  35.8849848  97.7626225  54.3179060  28.0426366
  98.3479662  53.5722748  28.1754271  97.5651064  54.6283016  28.9263030
 100.6164880  57.3530307  23.0588809  99.9475256  57.8376435  22.5752849
 100.4777750  57.5999528  23.9732187  92.3543880  46.8884660  26.7630810
  92.3927979  46.3548251  27.5567928  91.8484173  46.3619865  26.1441787
 104.7570149  59.3874051  29.6571467 105.3088457  59.5505672  30.4220552
 105.0976342  59.9778488  28.9851492  99.7334642  41.7349200  30.2593352
  99.7975969  42.5964031  29.8470750  99.6701762  41.1223202  29.5265710
  99.2086915  43.8072333  33.9066386  99.8358953  43.4249410  34.5203911
  98.3514833  43.5886535  34.2722079 109.6081023  54.2135308  35.5120122
 110.1520927  54.8265266  35.0175076 109.0267868  54.7714887  36.0287135
  95.9852457  45.6148762  19.8384741  96.2805898  44.7059441  19.7851795
  95.0840493  45.5936502  19.5165743 107.8938536  57.3356026  26.6435149
 107.7689676  56.5345766  26.1346095 108.5517627  57.8302220  26.1549119
  99.5146704  43.6904759  25.8212290  98.7933290  44.3040726  25.6819763
 100.3039960  44.2262524  25.7428936 109.9573445  55.1365046  28.2714699
 109.0103780  55.0170397  28.1993026 110.3056218  54.2487544  28.3540961
 102.3173018  41.0259185  32.0952941 102.8407420  41.2721482  32.8579251
 102.0985351  41.8579220  31.6756079  97.7140299  43.2962860  19.9624066
  97.3853005  42.4160239  19.7799172  98.0679670  43.2410528  20.8500455
 106.9619878  54.9317762  24.4719052 106.8144840  54.0034470  24.6526622
 107.7873371  54.9537853  23.9876127 100.8282122  43.5835830  20.3299544
 101.1678195  44.1121751  19.6078152 101.2754243  43.9216236  21.1058110
 110.5654000  55.7546321  25.5583924 111.4900547  55.5489183  25.4208376
 110.3969303  55.5062722  26.4673266 103.5225563  41.9672880  29.7802612
 103.1822383  41.1680693  30.1823292 102.8164569  42.2674591  29.2079445
 104.1742035  39.0522193  28.2329935 104.9968104  38.5782671  28.1108825
 104.4180098  39.8312676  28.7328621 102.8150269  42.0810451  18.5292837
 103.5358632  42.4591704  18.0256553 102.1915573  42.7999328  18.6327815
 106.9581392  42.7855600  19.4651169 107.1745007  43.6680238  19.1639997
 106.4775459  42.3941814  18.7356811 101.6980614  45.7441313  26.0421914
 101.5525194  46.0581616  26.9346195 101.2205817  46.3626214  25.4892812
 103.5576996  42.7343861  26.0902803 103.5438565  41.8384955  25.7535101
 104.2749425  42.7414525  26.7241089 105.4103127  43.1681202  28.1355931
 105.1520905  44.0898272  28.1340261 104.8788168  42.7711636  28.8256395
 110.3549316  56.2731989  20.9146016 110.5286193  55.7078411  20.1619868
 110.8478207  57.0732884  20.7325506  96.1726276  48.2846658  28.9809575
  95.6279744  49.0606466  29.1129849  97.0505626  48.6317462  28.8228696
 102.9613892  41.6158242  21.3590373 103.0829804  40.6874888  21.5581261
 102.6715935  41.6296928  20.4468689 105.8305083  39.3013152  24.4957093
 105.8526780  39.3652485  23.5409073 106.2473142  38.4617661  24.6897599
 116.2088707  49.0368412  22.5336316 116.6519853  48.2875737  22.1355439
 115.3315217  49.0278548  22.1510048 111.3424488  55.5898753  18.0142914
 112.0375393  56.2105446  18.2330229 111.6847639  54.7394104  18.2895292
  96.9592298  47.4116554  31.8739732  96.2174034  47.5599189  32.4604362
  96.6385042  47.6724820  31.0106481 113.2415912  53.0398459  19.5430245
 113.7667236  53.3785731  18.8179565 113.1538264  52.1045474  19.3593380
 104.9035960  56.9532532  31.6720122 105.2123087  56.7081679  32.5442821
 105.7011442  57.1579171  31.1838992 104.9256572  59.1070442  23.9025498
 104.4861563  58.6146821  24.5958355 105.6764689  58.5643410  23.6617573
  97.4048911  55.2981983  23.9050126  98.2306931  54.9985755  23.5248770
  97.0542963  54.5289605  24.3539915 102.3730444  54.6508451  25.9747800
 101.7510454  53.9879156  25.6750028 103.0435311  54.6769583  25.2921448
  95.6057516  53.2168309  24.8639060  94.7689425  52.7890484  24.6823061
  95.5781162  53.4100753  25.8009851 102.4454972  43.1290239  35.5680306
 102.4943127  44.0052362  35.1858075 102.9877486  42.5867632  34.9951949
 112.9309818  53.6731362  34.8481443 112.1405361  53.6555501  34.3085942
 112.6943172  54.2119656  35.6030480 113.0507693  50.5223829  32.1614171
 113.1005698  50.3573836  33.1029694 112.9421616  49.6551088  31.7712052
 101.9343951  53.2012374  19.4506260 102.0832072  53.8847839  18.7972933
 102.7410395  53.1817464  19.9655716 110.3411455  46.5054757  33.4773478
 111.2421318  46.3661222  33.1857476 110.4159430  46.6709211  34.4171656
 104.6754260  43.8821611  32.3226665 103.8057570  44.1755177  32.0509253
 104.9113741  44.4662056  33.0433928 114.5525889  52.9420770  32.4056193
 114.2610698  53.3050751  33.2419654 113.9398021  52.2287778  32.2269525
 115.7521572  50.5073650  24.9258763 116.5868463  50.9463454  25.0896324
 115.8880701  50.0312303  24.1067009 112.8013078  48.0653385  30.8736251
 113.2767199  48.2581031  30.0655102 111.8778643  48.1212571  30.6279635
  99.6896584  49.2277552  20.4567329  99.4442626  48.3239882  20.6547539
  99.8592499  49.2294702  19.5146807 107.3793294  40.1001228  29.8392085
 107.8975238  40.8362255  29.5138573 107.0248427  40.4065222  30.6738844
  98.9592232  44.9605910  17.9553491  98.2661477  45.0350265  17.2993527
  98.7143984  44.1966253  18.4775008 107.6305888  36.5201511  25.3592981
 107.9107642  35.8524700  25.9853408 108.4156495  36.7130606  24.8467645
 105.4339357  55.6960505  16.9218008 104.8613324  56.3150692  16.4688480
 106.0072151  56.2459866  17.4557930 111.5014747  44.9419145  29.1064557
 112.4532170  45.0417243  29.1276781 111.3318197  44.1497413  29.6162641
 109.5229126  42.0274728  29.2923958 108.9279058  42.3079741  28.5970446
 109.2378823  42.5168629  30.0640699 108.6536617  55.9797655  18.0526590
 109.5867290  55.9143217  18.2559466 108.5659829  56.8153922  17.5941123
 111.2824633  55.2963525  15.0130538 111.2038265  54.9623389  15.9066296
 112.1034300  55.7885293  15.0122010 113.9802824  48.1625265  28.2206856
 113.9479145  47.2241265  28.4066540 114.5903448  48.2409301  27.4872681
 105.8186155  47.0321318  14.2634060 106.7645260  46.9027526  14.3322478
 105.4400400  46.2935979  14.7403488 114.1297313  44.9536308  28.2665139
 113.6136362  44.1694765  28.0795068 115.0137261  44.6255025  28.4311659
 111.7908040  38.6977324  24.2260952 111.5932861  38.3892412  25.1104284
 112.4007745  39.4238962  24.3558882 119.7979374  49.2241271  27.3612893
 120.5282763  48.9626560  27.9220596 119.1886320  48.4869993  27.4014961
 117.8794671  47.3649134  27.9587344 117.1527835  47.2305099  27.3503836
 117.4641958  47.6725963  28.7644062 105.7024848  51.0839064  35.7234717
 106.6227857  51.2617663  35.9174764 105.6674431  50.1395109  35.5714417
 104.0029072  44.9571294  14.1988946 103.0960528  44.6604407  14.2751659
 104.2805054  44.6601112  13.3323232  94.9207013  46.2777657  24.6487992
  94.6009797  45.4242966  24.3562366  94.3740441  46.4926235  25.4045959
  98.6986920  48.9940098  28.3657498  98.9172930  49.9257206  28.3845532
  99.1112694  48.6348073  29.1512302 105.6191138  39.5008184  20.3533187
 104.8091867  39.1555269  20.7288433 106.3075555  39.1915727  20.9420798
 107.5481687  38.5786230  21.9757483 108.1012725  38.9981684  22.6347507
 107.7851773  37.6521979  22.0180439 103.5714786  44.5673304  37.7560247
 103.4711513  45.5167661  37.6872338 103.3536328  44.2391543  36.8836317
 102.7727857  41.8158229  14.3400925 103.6347021  42.1413127  14.5996742
 102.9578201  41.0289725  13.8273991  94.7895273  49.8980569  26.6181114
  94.0958744  49.4834522  26.1051068  95.5368264  49.9401105  26.0214532
 110.9260494  40.6886756  21.4836148 110.3459163  41.3471560  21.1014200
 110.6596426  39.8664100  21.0723565 109.3764060  40.0891813  23.6857468
 109.8763838  40.2008348  22.8771787 110.0199668  39.7852866  24.3258276
 103.4346056  47.9970443  36.5725309 102.9513137  48.7970803  36.7789198
 103.5206995  48.0078388  35.6192753  96.7032015  49.8298823  24.4947128
  96.6802704  49.9286510  23.5429011  97.0132652  50.6763973  24.8164295
  99.3619393  51.8874978  28.6093743 100.3162647  51.8558920  28.5423674
  99.1631917  51.4265601  29.4243969  99.9518775  50.4576094  31.1764540
 100.7711664  50.9520172  31.1999378 100.2255583  49.5408062  31.1482108
 109.7085372  42.8486846  20.5392496 108.8211227  43.1336497  20.3212691
 110.1239361  42.6880609  19.6919773 113.0599908  42.8733367  24.2546835
 113.8360298  43.3629819  24.5271452 112.3348042  43.2991421  24.7118705
 115.4972466  43.5860986  25.3120776 116.0916957  43.3456722  24.6014084
 115.5699050  42.8668117  25.9394312  97.7169622  57.4294597  25.6263941
  97.5824090  56.6694998  25.0601939  97.3001684  58.1535497  25.1592730
 108.8528585  52.6131521  14.6340516 109.5564435  52.8181523  15.2498172
 108.1291234  53.1808283  14.8989599 109.6826395  48.3641382  20.7542786
 109.6261597  48.8209933  19.9150419 110.2354738  47.6032067  20.5765629
 113.4931201  44.1531114  21.5792906 113.2368136  43.7527749  22.4101113
 112.8684069  44.8674908  21.4543045 117.8043539  46.8927187  24.0864197
 117.2443097  46.9620376  24.8595759 117.1987042  46.7168172  23.3663693
 100.8738748  58.3263914  25.8382383 100.7571132  59.2709347  25.7361074
 100.0531194  58.0237476  26.2268183 110.7615282  53.0514050  16.6838976
 111.5960886  52.6195248  16.5016451 110.5999625  52.8796064  17.6115870
 110.4161175  49.5546163  18.0495315 110.3609978  49.3890435  17.1083759
 109.7907230  50.2622196  18.2057505  95.2053690  44.7914228  31.8756738
  95.8512553  44.2813182  32.3643963  94.9970841  45.5282909  32.4500163
 107.7307082  51.8595075  37.3748878 108.5998241  52.0335727  37.0135513
 107.2513833  52.6789492  37.2524607 103.7257300  39.0554272  17.6280634
 103.7135970  39.9996112  17.7848905 104.6180722  38.8724418  17.3340095
 101.8993262  58.9792176  29.0538312 102.8020509  59.0115786  29.3704807
 101.6730632  58.0492627  29.0684648 103.6546864  57.7323163  25.7148390
 102.7042495  57.7325024  25.6012763 103.9579350  56.9855897  25.1984425
 107.5409420  35.6497049  21.8826571 106.7741815  35.0955535  22.0283253
 107.9520125  35.7218918  22.7440722  99.5451181  41.9381845  35.9731752
 100.4082642  41.5818649  36.1835076  98.9716591  41.5995739  36.6607156
 119.3899558  63.5683701  26.7794153 120.0277968  63.4490448  26.0757493
 119.2720400  64.5164545  26.8382105 116.1989264  63.5211129  26.7155677
 115.8607775  63.4052194  25.8276212 117.0679032  63.1202294  26.6956684
 112.0576080  65.3746605  22.7052568 111.4940945  65.2836542  21.9368856
 111.9428475  64.5546510  23.1855061 116.6809047  64.6745981  32.6741883
 116.6697688  64.2798779  31.8022387 116.8429686  63.9412053  33.2675654
 109.6040511  66.8697797  25.5436789 110.3961803  66.5288622  25.1283088
 109.8437162  66.9792772  26.4638942 117.6375638  69.0417573  18.0167033
 116.9863618  69.6271654  17.6301047 118.4320001  69.5723768  18.0762071
 111.5631265  66.1306710  18.4154168 112.3362141  65.5835697  18.2767043
 111.9156664  66.9950960  18.6268629 113.4016308  67.4583093  31.6221067
 113.1106174  68.3628723  31.5067733 114.0373292  67.4999620  32.3365137
 114.3272515  64.8359941  28.2122427 114.9236087  64.6115964  27.4979390
 114.3847486  64.0944687  28.8147874 113.8997543  62.2899376  16.0472618
 114.1523064  61.7680898  15.2856081 112.9622102  62.1265522  16.1499301
 118.9440826  61.2935155  23.8547361 119.7303915  60.8754578  23.5037778
 119.2079530  62.1981247  24.0229009 119.1150903  66.7308005  18.5536018
 118.4796736  66.8042632  19.2656922 118.7848310  67.3201604  17.8755097
 124.3449253  61.2310388  24.7580339 125.0774425  60.6609605  24.9918169
 123.5888609  60.8431988  25.1986845 113.6193832  64.1927482  18.2496993
 113.5030090  63.5172386  18.9178077 113.7296092  63.7059856  17.4329146
 115.9625373  63.6537630  21.9543682 115.5983580  63.1268250  22.6656603
 116.8192489  63.2636099  21.7810167 121.8674674  54.9431962  29.2174948
 121.5357998  55.8127373  28.9936163 121.2720287  54.6268246  29.8968978
 115.6030860  58.6827529  16.9505030 115.7705262  59.5507766  17.3175501
 115.4128029  58.8454811  16.0266320 118.3606193  67.1444508  28.6170861
 118.0606916  68.0469547  28.5086668 118.0157253  66.8776691  29.4692014
 111.8118675  63.5958305  24.6507565 110.8869171  63.4634519  24.8585257
 112.0603088  64.3752524  25.1477507 121.7603337  59.6627048  26.2968298
 120.8520214  59.5942457  26.0027059 121.7090933  60.1398993  27.1250123
 115.5820081  61.1385187  17.9351697 115.4619706  61.5842237  18.7737177
 114.8872669  61.4870504  17.3765235 109.1727486  63.2391578  25.4851354
 109.3019867  63.4926057  26.3990766 108.4924937  63.8319286  25.1656009
 113.3426973  73.9088828  21.5841828 113.2651003  74.8596654  21.6630309
 112.7388616  73.5634701  22.2416755 115.8344203  61.0816694  34.2403195
 115.0577537  61.6410614  34.2306060 116.4734766  61.5673477  34.7618065
 123.6264983  57.8643487  28.0746172 122.9839364  58.1576020  27.4285966
 123.1219912  57.7496407  28.8799369 121.2805147  61.6106660  18.7632031
 122.1923003  61.8434047  18.5879729 120.7714794  62.1943704  18.2007110
 114.0890575  63.8902147  33.8021162 114.8305259  64.4287191  33.5255986
 113.3827560  64.5168436  33.9592714 119.5645915  66.0331288  32.3993324
 119.9729271  65.5913698  31.6547956 118.8423176  65.4583915  32.6527517
 115.9176985  60.9703894  29.7726881 116.7638180  61.3943308  29.9161530
 115.8575622  60.3137519  30.4665444 119.8874729  66.5932478  26.1545613
 119.2583592  66.7578192  25.4521680 119.5000391  67.0074088  26.9256577
 123.7663961  67.5286916  23.5089976 123.0814999  67.9085818  22.9587010
 123.8507810  68.1382243  24.2421924 119.0676430  58.6308263  31.4308054
 118.8237362  59.3850323  30.8942330 119.3436360  59.0093610  32.2655301
 121.0214893  65.1746875  30.1085320 121.2331788  65.8178635  29.4319701
 120.9744641  64.3409192  29.6407250 118.6241122  57.7864696  27.0121892
 117.7625601  58.0845949  27.3038630 118.6503556  58.0035095  26.0802925
 115.4402691  66.3306886  23.4195698 115.9041037  66.6094589  22.6300320
 115.1759489  65.4290331  23.2368788 112.3326772  65.8778368  26.3575461
 112.9028129  66.3065636  25.7192945 112.9234884  65.5960953  27.0559647
 114.3771577  62.4530039  20.2285263 115.0795621  62.9051082  20.6959189
 114.0452206  61.8113858  20.8565156 112.8251939  61.0441795  34.6036472
 112.1950599  61.7258076  34.8371869 112.7188027  60.9324877  33.6589611
 108.1196911  60.7113591  25.5302396 107.3295965  60.9671120  25.0542507
 108.6108158  61.5261929  25.6354437 122.1360721  68.0518831  28.2807677
 122.9578164  67.6499018  27.9990359 122.1323124  67.9487065  29.2323793
 110.0711657  61.0758171  22.4885873 109.2742820  61.1876865  23.0069369
 109.8437249  61.4144823  21.6226764 115.9017324  67.6002874  30.4368388
 115.9661757  68.0623281  31.2726560 115.1928248  66.9700239  30.5650698
 106.4034614  60.9644082  27.9617387 106.6542653  61.8491092  28.2274963
 106.9394163  60.7848683  27.1892479 130.2266714  64.3957579  24.6292649
 129.4730422  63.8264977  24.4736653 130.3614255  64.3620244  25.5763283
 115.6165342  69.2670981  20.3047368 115.4811017  70.1122517  20.7332216
 116.1575154  69.4690259  19.5413302 112.1032681  55.3462561  36.9661723
 111.7099627  54.7928760  37.6409368 112.9198822  55.6573140  37.3568241
 109.0694739  66.7846419  20.8775293 109.5819260  67.5789670  21.0280858
 109.7217452  66.0872710  20.8108895 110.8789624  69.9012176  22.9598046
 111.0556252  70.8230140  22.7719030 111.6746457  69.5870595  23.3892426
 115.0200642  56.7620440  34.5581980 115.7610356  57.3627593  34.4786442
 115.2518565  56.0198078  34.0000022 110.1641980  61.9476808  32.8360210
 110.0495496  61.0462065  33.1367308 109.3086498  62.1940504  32.4845026
 117.2433818  69.8894548  34.4347710 116.7997672  69.1030926  34.1168615
 117.9051032  70.0773698  33.7691601 112.0020939  71.4190350  28.9608389
 112.5528364  71.2907413  28.1885383 111.1632415  71.7185239  28.6103281
 119.3415056  70.1697348  32.4629111 119.3233532  70.9906229  31.9709381
 120.2634976  70.0451423  32.6879253 115.7988110  67.6841477  33.3052620
 116.3316447  66.9229766  33.0751928 115.2702191  67.3915129  34.0476774
 118.9657805  52.7901543  28.8346262 118.6222075  53.6803185  28.7585372
 119.3336768  52.6003201  27.9715847 107.0343656  65.1135074  21.6534864
 107.8718878  65.5232082  21.4368571 107.2121924  64.1734516  21.6235058
 118.9308088  62.7810154  17.3418697 118.4154712  63.5514759  17.5807084
 118.6585397  62.1075291  17.9651758 116.5155199  57.6259855  22.4003935
 115.6596795  57.2366706  22.2209574 116.9282151  57.7051816  21.5403721
 118.0454346  55.1606198  26.7995495 117.5419141  55.1236334  25.9863300
 118.3384953  56.0698941  26.8592151 114.2897232  55.2444928  25.8061677
 115.1550228  55.0487737  25.4467566 114.3574741  55.0155280  26.7331033
 123.9042362  65.5342509  19.2771870 123.1271805  65.1953669  18.8327032
 124.5833843  65.5395132  18.6026835 118.7194391  60.6537246  19.1678478
 118.4144527  60.9683396  20.0188621 119.6724833  60.7318666  19.2105811
 117.1640823  66.8127470  20.8171432 116.6362185  66.0780229  20.5044669
 116.6628326  67.5902146  20.5711400 122.1433669  65.0076490  25.9338478
 121.4857344  65.6975752  26.0218607 122.9474068  65.3972922  26.2772464
 111.8959551  57.4747136  23.1778043 112.4703303  57.2522318  22.4451236
 112.4830533  57.5435831  23.9306645 120.9539128  63.3620863  23.9842420
 121.4671010  63.9950855  24.4864130 121.6040352  62.7622058  23.6185780
 112.2229138  59.5051597  17.1973929 111.3866450  59.8426284  17.5183203
 112.0833907  59.3700577  16.2601066 114.1982218  54.3488385  21.9053113
 113.5446631  54.0337402  21.2809728 114.1562693  53.7264125  22.6312936
 115.3093423  64.6307680  13.8206405 114.4020485  64.3996934  14.0197554
 115.8064455  63.8345299  14.0080386 118.2161502  73.3405187  16.7403091
 117.5423201  73.6436884  17.3488049 118.6027324  74.1434268  16.3908548
 117.4319959  60.8370319  26.2300760 116.5142520  61.0585266  26.0722448
 117.8480102  60.9116629  25.3712468 118.2155007  62.2361734  21.3603441
 118.9626825  62.7483131  21.0510563 118.4846596  61.9145787  22.2207834
 116.4881657  64.7320275  18.3430395 115.5792876  64.4479308  18.4402865
 116.5176741  65.1519354  17.4833702 121.7200924  68.3426864  22.1121563
 121.2663251  67.5017774  22.1686753 121.0894891  68.9788263  22.4496343
 120.6633844  59.2718850  23.3422230 119.9256600  58.7596237  23.6732473
 120.9160617  58.8319232  22.5305507 120.1633863  70.1803361  23.0471381
 120.4556838  70.7408418  22.3283746 120.6732484  70.4731922  23.8024540
 120.7645471  52.0495102  23.9363999 121.0704348  51.1892466  23.6489914
 121.4898076  52.6412723  23.7362993 107.0569827  62.4525789  22.3245597
 106.8594227  61.8595150  21.5996664 106.5016491  62.1477999  23.0421536
 115.0366551  62.3448896  24.4440190 115.0915161  61.3922732  24.3682667
 114.2257753  62.5008335  24.9281489 116.1857745  66.2729019  15.6818474
 115.7477174  65.5564878  15.2224111 116.9268185  66.5005133  15.1203565
 112.9758911  60.9625955  22.2030569 112.1626776  61.2620126  22.6095761
 113.4717905  60.5681644  22.9205051 115.1267489  70.9583712  24.1364834
 115.0843667  71.1844559  23.2073366 116.0430187  70.7247087  24.2850635
 118.5733122  61.4267780  31.0345463 118.9282510  61.6539253  31.8939929
 119.2205254  61.7586157  30.4122718 124.3030859  64.5486216  21.7394792
 124.1648758  64.7387812  20.8115981 123.9467078  65.3105598  22.1962843
 112.4672985  58.5344311  27.8191804 113.1072365  58.3933070  27.1214767
 111.6350516  58.2478824  27.4430406 124.3300239  66.6162743  26.7506064
 124.7636746  66.5238032  27.5989118 125.0431820  66.5920243  26.1126080
 113.2433289  67.8346741  23.9326797 114.0373888  67.3397061  23.7309372
 112.5324982  67.3064604  23.5694502 118.0628134  70.2164837  28.2839164
 118.1165156  70.7855773  29.0516880 117.1942915  70.3866722  27.9193201
 109.5516053  61.9789823  20.0086549 108.6213641  61.9174278  20.2256511
 109.6473525  61.4565776  19.2123191 109.4701602  58.5044636  22.5964791
 109.7308419  59.4189969  22.4873951 110.2918774  58.0369078  22.7461404
 110.9426527  59.9182393  29.7663615 111.6149581  59.7099755  29.1176264
 110.1156314  59.7204479  29.3268848 125.1915788  66.6586443  29.2838949
 125.3851679  67.5632254  29.5298224 125.0916407  66.1993862  30.1177534
 116.8452099  56.5444334  31.7829276 116.1980014  57.2434284  31.6893753
 117.6153115  56.9780478  32.1505525 120.2530897  66.8093186  34.8579830
 120.1016404  66.5803738  33.9409913 120.2435577  67.7663787  34.8711175
 117.0216234  64.3825099  29.8426096 117.9508294  64.5336258  29.6695063
 116.6007264  64.4709120  28.9874743 115.8204565  68.4075763  27.6124634
 115.6815651  68.0394548  28.4850572 115.0319162  68.9223403  27.4408591
 116.4152717  73.5084860  18.9550170 116.5904473  73.0372903  19.7695793
 115.7285505  74.1350626  19.1831431 117.3709780  67.7857366  25.0013471
 117.0359613  67.7458136  25.8971121 116.8713726  67.1202082  24.5283882
 111.3454024  63.1924996  30.5266053 111.2073822  62.4605235  31.1277592
 112.2558948  63.1033896  30.2450240 120.3068972  65.1313400  15.2750531
 119.6898143  64.4060228  15.1783584 119.8385461  65.8922761  14.9317605
 113.9736325  62.9044955  30.0149732 114.6835944  62.2638147  29.9736351
 113.9305633  63.1557850  30.9375913 121.9623104  69.8412309  32.9356311
 121.9035650  69.1571529  32.2686894 122.3642622  70.5831299  32.4836937
 112.6865259  59.8910173  31.8345372 112.1502616  59.4400912  32.4866968
 112.0981968  60.0256082  31.0915836 110.9813803  76.6574222  25.7290030
 111.2210401  77.2892747  26.4069049 110.1382999  76.3062262  26.0155390
 112.0967518  59.3498825  14.3971835 111.2196984  59.2287625  14.0334082
 112.5725271  58.5584903  14.1450724 121.9640511  67.8051893  31.1670291
 121.0767290  67.4677814  31.2896690 122.5339062  67.0734924  31.4039057
 103.6169658  64.1375984  24.4913343 104.3040698  63.8237714  23.9034358
 103.4617787  65.0417349  24.2180594 108.4204380  59.0266181  28.9198366
 108.3362569  58.4191850  28.1848776 107.5987087  59.5175199  28.9207863
 115.4941664  72.4653345  28.1331534 115.4211836  73.2708316  28.6450839
 115.0519058  72.6645311  27.3079556 115.2831444  71.7025115  21.6434356
 114.4998966  72.2446795  21.7372580 115.9824189  72.2199095  22.0428597
 118.5928094  57.5119744  24.2868561 119.0896794  56.7589707  23.9669632
 117.8215076  57.5484061  23.7211771 126.4457852  63.2160110  25.9286853
 126.4347728  64.0984825  25.5580786 125.5775231  62.8631661  25.7341390
 117.9540348  72.3640179  30.2889693 118.6668320  72.9987644  30.2165594
 117.4630377  72.4604045  29.4729695 119.6757875  66.2691432  21.8606985
 118.7414154  66.3892894  21.6911689 119.8534543  65.3663898  21.5966995
 115.1763063  59.6537127  24.0140246 114.8060850  59.1008168  24.7021151
 115.6722155  59.0495261  23.4615246 123.0630426  62.1108751  22.3957019
 123.5290878  62.9436742  22.3217321 123.5137927  61.6453732  23.1002277
 113.0052262  70.1134622  31.1095264 113.7061721  70.7471105  31.2624658
 112.5347376  70.4549354  30.3490903 121.1306657  68.4552572  19.3943171
 121.4066501  68.3409167  20.3037045 120.2611156  68.0570057  19.3555344
 121.0347089  54.4789338  26.4347920 120.1210169  54.7093565  26.6030127
 121.4640190  54.5627782  27.2861953 120.8053547  62.6679230  28.9347814
 120.1524998  62.9155137  28.2800267 121.1833927  61.8543368  28.6010291
 117.7660721  72.7038923  23.0375984 117.9483116  71.8860579  23.5003737
 118.5893707  72.9206615  22.6000874 118.1002887  71.6307108  20.2991033
 118.6290653  71.1199563  19.6861195 118.3631106  71.3149638  21.1636566
 116.8541120  63.4099041  35.4213851 116.1781758  63.3093170  36.0916226
 117.6768754  63.2538255  35.8849848 108.6019980  69.6470977  28.0426366
 109.1873416  68.9014665  28.1754271 108.4044818  69.9574934  28.9263030
 111.4558635  72.6822225  23.0588809 110.7869010  73.1668352  22.5752849
 111.3171504  72.9291445  23.9732187 103.1937634  62.2176578  26.7630810
 103.2321734  61.6840168  27.5567928 102.6877927  61.6911783  26.1441787
 115.5963903  74.7165968  29.6571467 116.1482211  74.8797590  30.4220552
 115.9370097  75.3070406  28.9851492 110.5728397  57.0641118  30.2593352
 110.6369723  57.9255949  29.8470750 110.5095517  56.4515120  29.5265710
 110.0480669  59.1364251  33.9066386 110.6752708  58.7541328  34.5203911
 109.1908588  58.9178453  34.2722079 120.4474778  69.5427226  35.5120122
 120.9914682  70.1557184  35.0175076 119.8661623  70.1006804  36.0287135
 106.8246212  60.9440680  19.8384741 107.1199653  60.0351358  19.7851795
 105.9234248  60.9228419  19.5165743 118.7332291  72.6647944  26.6435149
 118.6083430  71.8637684  26.1346095 119.3911382  73.1594137  26.1549119
 110.3540459  59.0196676  25.8212290 109.6327045  59.6332644  25.6819763
 111.1433715  59.5554441  25.7428936 120.7967199  70.4656964  28.2714699
 119.8497535  70.3462315  28.1993026 121.1449972  69.5779462  28.3540961
 113.1566772  56.3551103  32.0952941 113.6801174  56.6013399  32.8579251
 112.9379106  57.1871138  31.6756079 108.5534053  58.6254777  19.9624066
 108.2246760  57.7452156  19.7799172 108.9073424  58.5702446  20.8500455
 117.8013632  70.2609680  24.4719052 117.6538595  69.3326388  24.6526622
 118.6267126  70.2829771  23.9876127 111.6675877  58.9127747  20.3299544
 112.0071949  59.4413669  19.6078152 112.1147997  59.2508153  21.1058110
 121.4047754  71.0838239  25.5583924 122.3294302  70.8781100  25.4208376
 121.2363058  70.8354640  26.4673266 114.3619317  57.2964798  29.7802612
 114.0216138  56.4972611  30.1823292 113.6558324  57.5966509  29.2079445
 115.0135789  54.3814110  28.2329935 115.8361859  53.9074589  28.1108825
 115.2573853  55.1604594  28.7328621 113.6544024  57.4102369  18.5292837
 114.3752386  57.7883622  18.0256553 113.0309328  58.1291246  18.6327815
 117.7975147  58.1147518  19.4651169 118.0138761  58.9972156  19.1639997
 117.3169214  57.7233731  18.7356811 112.5374368  61.0733231  26.0421914
 112.3918949  61.3873534  26.9346195 112.0599572  61.6918131  25.4892812
 114.3970751  58.0635779  26.0902803 114.3832320  57.1676872  25.7535101
 115.1143179  58.0706443  26.7241089 116.2496882  58.4973119  28.1355931
 115.9914659  59.4190190  28.1340261 115.7181922  58.1003554  28.8256395
 121.1943070  71.6023906  20.9146016 121.3679948  71.0370329  20.1619868
 121.6871962  72.4024801  20.7325506 107.0120030  63.6138575  28.9809575
 106.4673498  64.3898383  29.1129849 107.8899380  63.9609380  28.8228696
 113.8007647  56.9450159  21.3590373 113.9223558  56.0166805  21.5581261
 113.5109689  56.9588845  20.4468689 116.6698837  54.6305070  24.4957093
 116.6920534  54.6944403  23.5409073 117.0866896  53.7909578  24.6897599
 127.0482462  64.3660329  22.5336316 127.4913608  63.6167655  22.1355439
 126.1708972  64.3570466  22.1510048 122.1818243  70.9190671  18.0142914
 122.8769148  71.5397363  18.2330229 122.5241393  70.0686022  18.2895292
 107.7986052  62.7408472  31.8739732 107.0567788  62.8891107  32.4604362
 107.4778796  63.0016737  31.0106481 124.0809666  68.3690376  19.5430245
 124.6060990  68.7077649  18.8179565 123.9932019  67.4337392  19.3593380
 115.7429715  72.2824450  31.6720122 116.0516841  72.0373597  32.5442821
 116.5405197  72.4871088  31.1838992 115.7650327  74.4362360  23.9025498
 115.3255317  73.9438738  24.5958355 116.5158444  73.8935327  23.6617573
 108.2442666  70.6273900  23.9050126 109.0700686  70.3277672  23.5248770
 107.8936718  69.8581523  24.3539915 113.2124199  69.9800369  25.9747800
 112.5904208  69.3171074  25.6750028 113.8829066  70.0061501  25.2921448
 106.4451271  68.5460227  24.8639060 105.6083179  68.1182401  24.6823061
 106.4174916  68.7392670  25.8009851 113.2848726  58.4582157  35.5680306
 113.3336882  59.3344279  35.1858075 113.8271241  57.9159550  34.9951949
 123.7703572  69.0023280  34.8481443 122.9799116  68.9847419  34.3085942
 123.5336927  69.5411574  35.6030480 123.8901447  65.8515746  32.1614171
 123.9399452  65.6865754  33.1029694 123.7815370  64.9843005  31.7712052
 112.7737706  68.5304292  19.4506260 112.9225826  69.2139756  18.7972933
 113.5804149  68.5109382  19.9655716 121.1805210  61.8346674  33.4773478
 122.0815072  61.6953139  33.1857476 121.2553184  62.0001129  34.4171656
 115.5148015  59.2113529  32.3226665 114.6451324  59.5047095  32.0509253
 115.7507495  59.7953974  33.0433928 125.3919644  68.2712688  32.4056193
 125.1004452  68.6342668  33.2419654 124.7791775  67.5579696  32.2269525
 126.5915326  65.8365568  24.9258763 127.4262218  66.2755372  25.0896324
 126.7274455  65.3604221  24.1067009 123.6406832  63.3945302  30.8736251
 124.1160954  63.5872949  30.0655102 122.7172398  63.4504488  30.6279635
 110.5290339  64.5569470  20.4567329 110.2836381  63.6531800  20.6547539
 110.6986253  64.5586620  19.5146807 118.2187049  55.4293146  29.8392085
 118.7368993  56.1654173  29.5138573 117.8642181  55.7357139  30.6738844
 109.7985986  60.2897827  17.9553491 109.1055231  60.3642182  17.2993527
 109.5537738  59.5258171  18.4775008 118.4699643  51.8493429  25.3592981
 118.7501397  51.1816618  25.9853408 119.2550250  52.0422524  24.8467645
 116.2733111  71.0252422  16.9218008 115.7007078  71.6442610  16.4688480
 116.8465905  71.5751784  17.4557930 122.3408501  60.2711063  29.1064557
 123.2925924  60.3709160  29.1276781 122.1711952  59.4789331  29.6162641
 120.3622881  57.3566646  29.2923958 119.7672813  57.6371658  28.5970446
 120.0772577  57.8460547  30.0640699 119.4930371  71.3089573  18.0526590
 120.4261044  71.2435134  18.2559466 119.4053584  72.1445839  17.5941123
 122.1218388  70.6255443  15.0130538 122.0432019  70.2915307  15.9066296
 122.9428055  71.1177211  15.0122010 124.8196579  63.4917182  28.2206856
 124.7872899  62.5533183  28.4066540 125.4297203  63.5701219  27.4872681
 116.6579910  62.3613235  14.2634060 117.6039015  62.2319443  14.3322478
 116.2794155  61.6227897  14.7403488 124.9691067  60.2828226  28.2665139
 124.4530116  59.4986682  28.0795068 125.8531016  59.9546942  28.4311659
 122.6301794  54.0269241  24.2260952 122.4326616  53.7184329  25.1104284
 123.2401500  54.7530880  24.3558882 130.6373129  64.5533189  27.3612893
 131.3676517  64.2918477  27.9220596 130.0280074  63.8161911  27.4014961
 128.7188426  62.6941052  27.9587344 127.9921590  62.5597017  27.3503836
 128.3035713  63.0017880  28.7644062 116.5418602  66.4130981  35.7234717
 117.4621612  66.5909580  35.9174764 116.5068185  65.4687027  35.5714417
 114.8422827  60.2863212  14.1988946 113.9354282  59.9896324  14.2751659
 115.1198808  59.9893030  13.3323232 105.7600767  61.6069575  24.6487992
 105.4403552  60.7534883  24.3562366 105.2134196  61.8218153  25.4045959
 109.5380675  64.3232016  28.3657498 109.7566685  65.2549124  28.3845532
 109.9506449  63.9639990  29.1512302 116.4584893  54.8300101  20.3533187
 115.6485621  54.4847186  20.7288433 117.1469310  54.5207645  20.9420798
 118.3875441  53.9078148  21.9757483 118.9406480  54.3273602  22.6347507
 118.6245527  52.9813896  22.0180439 114.4108540  59.8965222  37.7560247
 114.3105267  60.8459579  37.6872338 114.1930082  59.5683461  36.8836317
 113.6121612  57.1450147  14.3400925 114.4740776  57.4705045  14.5996742
 113.7971956  56.3581643  13.8273991 105.6289027  65.2272486  26.6181114
 104.9352499  64.8126439  26.1051068 106.3762018  65.2693023  26.0214532
 121.7654248  56.0178673  21.4836148 121.1852917  56.6763477  21.1014200
 121.4990181  55.1956018  21.0723565 120.2157814  55.4183731  23.6857468
 120.7157593  55.5300266  22.8771787 120.8593422  55.1144784  24.3258276
 114.2739810  63.3262361  36.5725309 113.7906892  64.1262721  36.7789198
 114.3600749  63.3370305  35.6192753 107.5425770  65.1590740  24.4947128
 107.5196458  65.2578428  23.5429011 107.8526406  66.0055891  24.8164295
 110.2013148  67.2166895  28.6093743 111.1556401  67.1850838  28.5423674
 110.0025671  66.7557519  29.4243969 110.7912530  65.7868011  31.1764540
 111.6105419  66.2812090  31.1999378 111.0649338  64.8699979  31.1482108
 120.5479126  58.1778764  20.5392496 119.6604981  58.4628414  20.3212691
 120.9633115  58.0172527  19.6919773 123.8993662  58.2025285  24.2546835
 124.6754052  58.6921737  24.5271452 123.1741796  58.6283339  24.7118705
 126.3366221  58.9152904  25.3120776 126.9310712  58.6748640  24.6014084
 126.4092805  58.1960034  25.9394312 108.5563377  72.7586515  25.6263941
 108.4217844  71.9986916  25.0601939 108.1395439  73.4827415  25.1592730
 119.6922340  67.9423438  14.6340516 120.3958190  68.1473441  15.2498172
 118.9684988  68.5100200  14.8989599 120.5220150  63.6933300  20.7542786
 120.4655351  64.1501851  19.9150419 121.0748492  62.9323984  20.5765629
 124.3324956  59.4823031  21.5792906 124.0761890  59.0819667  22.4101113
 123.7077824  60.1966825  21.4543045 128.6437294  62.2219105  24.0864197
 128.0836852  62.2912294  24.8595759 128.0380797  62.0460089  23.3663693
 111.7132502  73.6555832  25.8382383 111.5964887  74.6001264  25.7361074
 110.8924949  73.3529393  26.2268183 121.6009037  68.3805968  16.6838976
 122.4354641  67.9487166  16.5016451 121.4393380  68.2087981  17.6115870
 121.2554929  64.8838081  18.0495315 121.2003733  64.7182352  17.1083759
 120.6300984  65.5914114  18.2057505 106.0447444  60.1206145  31.8756738
 106.6906308  59.6105099  32.3643963 105.8364595  60.8574827  32.4500163
 118.5700836  67.1886993  37.3748878 119.4391996  67.3627645  37.0135513
 118.0907588  68.0081410  37.2524607 114.5651055  54.3846190  17.6280634
 114.5529724  55.3288030  17.7848905 115.4574476  54.2016335  17.3340095
 112.7387017  74.3084094  29.0538312 113.6414263  74.3407704  29.3704807
 112.5124387  73.3784545  29.0684648 114.4940619  73.0615080  25.7148390
 113.5436250  73.0616942  25.6012763 114.7973105  72.3147815  25.1984425
 118.3803174  50.9788966  21.8826571 117.6135570  50.4247453  22.0283253
 118.7913879  51.0510835  22.7440722 110.3844935  57.2673762  35.9731752
 111.2476397  56.9110567  36.1835076 109.8110346  56.9287657  36.6607156
 130.2293312  78.8975619  26.7794153 130.8671722  78.7782366  26.0757493
 130.1114155  79.8456463  26.8382105 127.0383018  78.8503047  26.7155677
 126.7001530  78.7344111  25.8276212 127.9072787  78.4494212  26.6956684
 122.8969834  80.7038523  22.7052568 122.3334699  80.6128460  21.9368856
 122.7822229  79.8838428  23.1855061 127.5202801  80.0037898  32.6741883
 127.5091442  79.6090697  31.8022387 127.6823441  79.2703971  33.2675654
 120.4434266  82.1989715  25.5436789 121.2355558  81.8580539  25.1283088
 120.6830916  82.3084690  26.4638942 128.4769393  84.3709491  18.0167033
 127.8257373  84.9563571  17.6301047 129.2713756  84.9015686  18.0762071
 122.4025020  81.4598628  18.4154168 123.1755896  80.9127615  18.2767043
 122.7550419  82.3242877  18.6268629 124.2410062  82.7875010  31.6221067
 123.9499928  83.6920641  31.5067733 124.8767047  82.8291538  32.3365137
 125.1666269  80.1651859  28.2122427 125.7629842  79.9407881  27.4979390
 125.2241241  79.4236604  28.8147874 124.7391298  77.6191294  16.0472618
 124.9916818  77.0972815  15.2856081 123.8015857  77.4557440  16.1499301
 129.7834581  76.6227072  23.8547361 130.5697670  76.2046496  23.5037778
 130.0473285  77.5273165  24.0229009 129.9544658  82.0599923  18.5536018
 129.3190491  82.1334549  19.2656922 129.6242064  82.6493522  17.8755097
 135.1843008  76.5602306  24.7580339 135.9168180  75.9901522  24.9918169
 134.4282363  76.1723906  25.1986845 124.4587586  79.5219400  18.2496993
 124.3423845  78.8464303  18.9178077 124.5689846  79.0351774  17.4329146
 126.8019127  78.9829547  21.9543682 126.4377335  78.4560168  22.6656603
 127.6586243  78.5928016  21.7810167 132.7068428  70.2723880  29.2174948
 132.3751753  71.1419291  28.9936163 132.1114041  69.9560164  29.8968978
 126.4424614  74.0119447  16.9505030 126.6099017  74.8799683  17.3175501
 126.2521783  74.1746729  16.0266320 129.1999948  82.4736426  28.6170861
 128.9000671  83.3761465  28.5086668 128.8551007  82.2068609  29.4692014
 122.6512429  78.9250223  24.6507565 121.7262926  78.7926437  24.8585257
 122.8996842  79.7044442  25.1477507 132.5997091  74.9918966  26.2968298
 131.6913969  74.9234374  26.0027059 132.5484687  75.4690911  27.1250123
 126.4213835  76.4677104  17.9351697 126.3013460  76.9134155  18.7737177
 125.7266424  76.8162422  17.3765235 120.0121240  78.5683496  25.4851354
 120.1413621  78.8217975  26.3990766 119.3318691  79.1611204  25.1656009
 124.1820727  89.2380746  21.5841828 124.1044757  90.1888571  21.6630309
 123.5782371  88.8926619  22.2416755 126.6737957  76.4108612  34.2403195
 125.8971291  76.9702532  34.2306060 127.3128520  76.8965395  34.7618065
 134.4658738  73.1935404  28.0746172 133.8233118  73.4867938  27.4285966
 133.9613666  73.0788325  28.8799369 132.1198901  76.9398578  18.7632031
 133.0316758  77.1725964  18.5879729 131.6108548  77.5235622  18.2007110
 124.9284329  79.2194065  33.8021162 125.6699014  79.7579109  33.5255986
 124.2221315  79.8460354  33.9592714 130.4039669  81.3623205  32.3993324
 130.8123025  80.9205616  31.6547956 129.6816931  80.7875833  32.6527517
 126.7570739  76.2995812  29.7726881 127.6031934  76.7235226  29.9161530
 126.6969377  75.6429436  30.4665444 130.7268484  81.9224396  26.1545613
 130.0977346  82.0870110  25.4521680 130.3394146  82.3366006  26.9256577
 134.6057716  82.8578834  23.5089976 133.9208754  83.2377735  22.9587010
 134.6901565  83.4674161  24.2421924 129.9070184  73.9600181  31.4308054
 129.6631116  74.7142241  30.8942330 130.1830115  74.3385528  32.2655301
 131.8608647  80.5038793  30.1085320 132.0725542  81.1470553  29.4319701
 131.8138395  79.6701109  29.6407250 129.4634876  73.1156614  27.0121892
 128.6019355  73.4137867  27.3038630 129.4897311  73.3327012  26.0802925
 126.2796446  81.6598804  23.4195698 126.7434791  81.9386507  22.6300320
 126.0153244  80.7582249  23.2368788 123.1720527  81.2070286  26.3575461
 123.7421884  81.6357554  25.7192945 123.7628639  80.9252870  27.0559647
 125.2165332  77.7821956  20.2285263 125.9189375  78.2343000  20.6959189
 124.8845960  77.1405775  20.8565156 123.6645693  76.3733713  34.6036472
 123.0344354  77.0549994  34.8371869 123.5581781  76.2616795  33.6589611
 118.9590666  76.0405509  25.5302396 118.1689720  76.2963038  25.0542507
 119.4501913  76.8553847  25.6354437 132.9754475  83.3810748  28.2807677
 133.7971919  82.9790936  27.9990359 132.9716878  83.2778982  29.2323793
 120.9105411  76.4050088  22.4885873 120.1136574  76.5168783  23.0069369
 120.6831003  76.7436741  21.6226764 126.7411079  82.9294792  30.4368388
 126.8055511  83.3915199  31.2726560 126.0322002  82.2992157  30.5650698
 117.2428369  76.2936000  27.9617387 117.4936407  77.1783009  28.2274963
 117.7787917  76.1140601  27.1892479 141.0660468  79.7249497  24.6292649
 140.3124177  79.1556895  24.4736653 141.2008009  79.6912161  25.5763283
 126.4559096  84.5962899  20.3047368 126.3204771  85.4414435  20.7332216
 126.9968909  84.7982177  19.5413302 122.9426436  70.6754479  36.9661723
 122.5493381  70.1220677  37.6409368 123.7592576  70.9865057  37.3568241
 119.9088494  82.1138337  20.8775293 120.4213014  82.9081587  21.0280858
 120.5611206  81.4164628  20.8108895 121.7183378  85.2304093  22.9598046
 121.8950007  86.1522058  22.7719030 122.5140212  84.9162513  23.3892426
 125.8594397  72.0912358  34.5581980 126.6004110  72.6919511  34.4786442
 126.0912320  71.3489996  34.0000022 121.0035735  77.2768725  32.8360210
 120.8889250  76.3753983  33.1367308 120.1480253  77.5232422  32.4845026
 128.0827573  85.2186466  34.4347710 127.6391427  84.4322844  34.1168615
 128.7444786  85.4065616  33.7691601 122.8414694  86.7482267  28.9608389
 123.3922119  86.6199331  28.1885383 122.0026170  87.0477156  28.6103281
 130.1808811  85.4989266  32.4629111 130.1627286  86.3198147  31.9709381
 131.1028731  85.3743341  32.6879253 126.6381865  83.0133395  33.3052620
 127.1710202  82.2521683  33.0751928 126.1095946  82.7207047  34.0476774
 129.8051560  68.1193461  28.8346262 129.4615829  69.0095103  28.7585372
 130.1730522  67.9295119  27.9715847 117.8737410  80.4426991  21.6534864
 118.7112632  80.8524000  21.4368571 118.0515678  79.5026434  21.6235058
 129.7701843  78.1102072  17.3418697 129.2548466  78.8806677  17.5807084
 129.4979151  77.4367208  17.9651758 127.3548954  72.9551773  22.4003935
 126.4990550  72.5658623  22.2209574 127.7675905  73.0343734  21.5403721
 128.8848100  70.4898116  26.7995495 128.3812896  70.4528251  25.9863300
 129.1778707  71.3990859  26.8592151 125.1290986  70.5736846  25.8061677
 125.9943983  70.3779655  25.4467566 125.1968495  70.3447198  26.7331033
 134.7436117  80.8634427  19.2771870 133.9665559  80.5245586  18.8327032
 135.4227598  80.8687050  18.6026835 129.5588146  75.9829164  19.1678478
 129.2538281  76.2975313  20.0188621 130.5118588  76.0610584  19.2105811
 128.0034578  82.1419387  20.8171432 127.4755939  81.4072147  20.5044669
 127.5022080  82.9194064  20.5711400 132.9827424  80.3368408  25.9338478
 132.3251098  81.0267669  26.0218607 133.7867823  80.7264840  26.2772464
 122.7353305  72.8039054  23.1778043 123.3097057  72.5814235  22.4451236
 123.3224288  72.8727748  23.9306645 131.7932882  78.6912781  23.9842420
 132.3064764  79.3242772  24.4864130 132.4434106  78.0913976  23.6185780
 123.0622892  74.8343515  17.1973929 122.2260205  75.1718201  17.5183203
 122.9227662  74.6992495  16.2601066 125.0375973  69.6780303  21.9053113
 124.3840385  69.3629320  21.2809728 124.9956447  69.0556043  22.6312936
 126.1487178  79.9599598  13.8206405 125.2414240  79.7288851  14.0197554
 126.6458210  79.1637217  14.0080386 129.0555257  88.6697105  16.7403091
 128.3816955  88.9728802  17.3488049 129.4421079  89.4726185  16.3908548
 128.2713713  76.1662236  26.2300760 127.3536275  76.3877183  26.0722448
 128.6873857  76.2408547  25.3712468 129.0548761  77.5653652  21.3603441
 129.8020580  78.0775049  21.0510563 129.3240351  77.2437705  22.2207834
 127.3275411  80.0612193  18.3430395 126.4186630  79.7771225  18.4402865
 127.3570495  80.4811271  17.4833702 132.5594679  83.6718782  22.1121563
 132.1057006  82.8309692  22.1686753 131.9288645  84.3080180  22.4496343
 131.5027598  74.6010768  23.3422230 130.7650355  74.0888154  23.6732473
 131.7554372  74.1611150  22.5305507 131.0027618  85.5095279  23.0471381
 131.2950592  86.0700336  22.3283746 131.5126238  85.8023840  23.8024540
 131.6039225  67.3787020  23.9363999 131.9098102  66.5184384  23.6489914
 132.3291830  67.9704640  23.7362993 117.8963582  77.7817707  22.3245597
 117.6987981  77.1887067  21.5996664 117.3410246  77.4769917  23.0421536
 125.8760305  77.6740813  24.4440190 125.9308915  76.7214650  24.3682667
 125.0651507  77.8300252  24.9281489 127.0251499  81.6020936  15.6818474
 126.5870929  80.8856795  15.2224111 127.7661940  81.8297051  15.1203565
 123.8152665  76.2917873  22.2030569 123.0020531  76.5912044  22.6095761
 124.3111659  75.8973562  22.9205051 125.9661243  86.2875630  24.1364834
 125.9237422  86.5136476  23.2073366 126.8823942  86.0539004  24.2850635
 129.4126877  76.7559697  31.0345463 129.7676265  76.9831171  31.8939929
 130.0599008  77.0878074  30.4122718 135.1424614  79.8778133  21.7394792
 135.0042512  80.0679729  20.8115981 134.7860833  80.6397516  22.1962843
 123.3066740  73.8636228  27.8191804 123.9466119  73.7224988  27.1214767
 122.4744270  73.5770742  27.4430406 135.1693993  81.9454660  26.7506064
 135.6030500  81.8529949  27.5989118 135.8825574  81.9212161  26.1126080
 124.0827044  83.1638659  23.9326797 124.8767642  82.6688979  23.7309372
 123.3718736  82.6356522  23.5694502 128.9021888  85.5456754  28.2839164
 128.9558911  86.1147691  29.0516880 128.0336670  85.7158639  27.9193201
 120.3909807  77.3081741  20.0086549 119.4607395  77.2466196  20.2256511
 120.4867279  76.7857693  19.2123191 120.3095356  73.8336553  22.5964791
 120.5702174  74.7481887  22.4873951 121.1312529  73.3660996  22.7461404
 121.7820282  75.2474311  29.7663615 122.4543335  75.0391673  29.1176264
 120.9550068  75.0496397  29.3268848 136.0309543  81.9878361  29.2838949
 136.2245433  82.8924171  29.5298224 135.9310161  81.5285780  30.1177534
 127.6845854  71.8736252  31.7829276 127.0373769  72.5726201  31.6893753
 128.4546869  72.3072395  32.1505525 131.0924652  82.1385104  34.8579830
 130.9410158  81.9095655  33.9409913 131.0829331  83.0955705  34.8711175
 127.8609988  79.7117016  29.8426096 128.7902048  79.8628176  29.6695063
 127.4401018  79.8001037  28.9874743 126.6598320  83.7367681  27.6124634
 126.5209406  83.3686465  28.4850572 125.8712916  84.2515320  27.4408591
 127.2546472  88.8376777  18.9550170 127.4298227  88.3664821  19.7695793
 126.5679260  89.4642544  19.1831431 128.2103535  83.1149284  25.0013471
 127.8753368  83.0750054  25.8971121 127.7107481  82.4494000  24.5283882
 122.1847779  78.5216914  30.5266053 122.0467577  77.7897152  31.1277592
 123.0952702  78.4325814  30.2450240 131.1462727  80.4605318  15.2750531
 130.5291897  79.7352146  15.1783584 130.6779215  81.2214678  14.9317605
 124.8130080  78.2336873  30.0149732 125.5229698  77.5930065  29.9736351
 124.7699388  78.4849768  30.9375913 132.8016858  85.1704226  32.9356311
 132.7429404  84.4863446  32.2686894 133.2036377  85.9123216  32.4836937
 123.5259014  75.2202091  31.8345372 122.9896371  74.7692829  32.4866968
 122.9375722  75.3548000  31.0915836 121.8207557  91.9866140  25.7290030
 122.0604155  92.6184664  26.4069049 120.9776754  91.6354180  26.0155390
 122.9361273  74.6790742  14.3971835 122.0590739  74.5579543  14.0334082
 123.4119026  73.8876821  14.1450724 132.8034266  83.1343810  31.1670291
 131.9161044  82.7969732  31.2896690 133.3732817  82.4026841  31.4039057
 114.4563413  79.4667902  24.4913343 115.1434453  79.1529632  23.9034358
 114.3011541  80.3709267  24.2180594 119.2598135  74.3558099  28.9198366
 119.1756324  73.7483768  28.1848776 118.4380841  74.8467117  28.9207863
 126.3335419  87.7945263  28.1331534 126.2605590  88.6000234  28.6450839
 125.8912812  87.9937228  27.3079556 126.1225199  87.0317033  21.6434356
 125.3392720  87.5738713  21.7372580 126.8217944  87.5491012  22.0428597
 129.4321849  72.8411662  24.2868561 129.9290548  72.0881624  23.9669632
 128.6608830  72.8775979  23.7211771 137.2851606  78.5452028  25.9286853
 137.2741482  79.4276743  25.5580786 136.4168986  78.1923578  25.7341390
 128.7934102  87.6932097  30.2889693 129.5062075  88.3279561  30.2165594
 128.3024131  87.7895963  29.4729695 130.5151629  81.5983349  21.8606985
 129.5807908  81.7184812  21.6911689 130.6928298  80.6955816  21.5966995
 126.0156817  74.9829045  24.0140246 125.6454605  74.4300085  24.7021151
 126.5115910  74.3787179  23.4615246 133.9024181  77.4400669  22.3957019
 134.3684633  78.2728660  22.3217321 134.3531681  76.9745650  23.1002277
 123.8446016  85.4426540  31.1095264 124.5455475  86.0763023  31.2624658
 123.3741131  85.7841272  30.3490903 131.9700412  83.7844490  19.3943171
 132.2460256  83.6701084  20.3037045 131.1004911  83.3861975  19.3555344
 131.8740843  69.8081256  26.4347920 130.9603923  70.0385482  26.6030127
 132.3033945  69.8919700  27.2861953 131.6447302  77.9971148  28.9347814
 130.9918752  78.2447055  28.2800267 132.0227682  77.1835286  28.6010291
 128.6054476  88.0330841  23.0375984 128.7876870  87.2152497  23.5003737
 129.4287462  88.2498533  22.6000874 128.9396641  86.9599026  20.2991033
 129.4684408  86.4491480  19.6861195 129.2024861  86.6441556  21.1636566
 127.6934875  78.7390959  35.4213851 127.0175512  78.6385088  36.0916226
 128.5162509  78.5830172  35.8849848 119.4413734  84.9762895  28.0426366
 120.0267171  84.2306583  28.1754271 119.2438573  85.2866852  28.9263030
 122.2952389  88.0114143  23.0588809 121.6262765  88.4960270  22.5752849
 122.1565259  88.2583363  23.9732187 114.0331389  77.5468495  26.7630810
 114.0715488  77.0132086  27.5567928 113.5271682  77.0203701  26.1441787
 126.4357658  90.0457886  29.6571467 126.9875966  90.2089508  30.4220552
 126.7763851  90.6362324  28.9851492 121.4122151  72.3933036  30.2593352
 121.4763478  73.2547867  29.8470750 121.3489271  71.7807037  29.5265710
 120.8874424  74.4656168  33.9066386 121.5146462  74.0833246  34.5203911
 120.0302342  74.2470370  34.2722079 131.2868532  84.8719144  35.5120122
 131.8308436  85.4849102  35.0175076 130.7055377  85.4298722  36.0287135
 117.6639966  76.2732597  19.8384741 117.9593407  75.3643276  19.7851795
 116.7628002  76.2520337  19.5165743 129.5726045  87.9939862  26.6435149
 129.4477185  87.1929601  26.1346095 130.2305136  88.4886055  26.1549119
 121.1934213  74.3488594  25.8212290 120.4720799  74.9624562  25.6819763
 121.9827469  74.8846359  25.7428936 131.6360954  85.7948882  28.2714699
 130.6891289  85.6754233  28.1993026 131.9843727  84.9071380  28.3540961
 123.9960527  71.6843021  32.0952941 124.5194929  71.9305317  32.8579251
 123.7772860  72.5163055  31.6756079 119.3927808  73.9546695  19.9624066
 119.0640514  73.0744074  19.7799172 119.7467179  73.8994364  20.8500455
 128.6407387  85.5901598  24.4719052 128.4932349  84.6618305  24.6526622
 129.4660880  85.6121689  23.9876127 122.5069631  74.2419665  20.3299544
 122.8465704  74.7705586  19.6078152 122.9541752  74.5800071  21.1058110
 132.2441509  86.4130157  25.5583924 133.1688056  86.2073018  25.4208376
 132.0756812  86.1646558  26.4673266 125.2013072  72.6256716  29.7802612
 124.8609892  71.8264529  30.1823292 124.4952078  72.9258426  29.2079445
 125.8529544  69.7106028  28.2329935 126.6755613  69.2366506  28.1108825
 126.0967607  70.4896512  28.7328621 124.4937778  72.7394287  18.5292837
 125.2146141  73.1175539  18.0256553 123.8703082  73.4583163  18.6327815
 128.6368901  73.4439435  19.4651169 128.8532516  74.3264073  19.1639997
 128.1562968  73.0525649  18.7356811 123.3768123  76.4025149  26.0421914
 123.2312703  76.7165452  26.9346195 122.8993326  77.0210049  25.4892812
 125.2364505  73.3927697  26.0902803 125.2226074  72.4968790  25.7535101
 125.9536934  73.3998360  26.7241089 127.0890636  73.8265037  28.1355931
 126.8308414  74.7482108  28.1340261 126.5575676  73.4295471  28.8256395
 132.0336825  86.9315824  20.9146016 132.2073702  86.3662247  20.1619868
 132.5265716  87.7316719  20.7325506 117.8513785  78.9430493  28.9809575
 117.3067253  79.7190301  29.1129849 118.7293135  79.2901298  28.8228696
 124.6401401  72.2742077  21.3590373 124.7617313  71.3458723  21.5581261
 124.3503444  72.2880763  20.4468689 127.5092592  69.9596987  24.4957093
 127.5314289  70.0236321  23.5409073 127.9260651  69.1201496  24.6897599
 137.8876216  79.6952247  22.5336316 138.3307362  78.9459572  22.1355439
 137.0102726  79.6862383  22.1510048 133.0211997  86.2482588  18.0142914
 133.7162902  86.8689281  18.2330229 133.3635148  85.3977940  18.2895292
 118.6379807  78.0700389  31.8739732 117.8961543  78.2183025  32.4604362
 118.3172551  78.3308655  31.0106481 134.9203420  83.6982294  19.5430245
 135.4454745  84.0369567  18.8179565 134.8325773  82.7629309  19.3593380
 126.5823469  87.6116368  31.6720122 126.8910596  87.3665514  32.5442821
 127.3798951  87.8163006  31.1838992 126.6044081  89.7654277  23.9025498
 126.1649072  89.2730656  24.5958355 127.3552198  89.2227245  23.6617573
 119.0836420  85.9565818  23.9050126 119.9094440  85.6569590  23.5248770
 118.7330472  85.1873441  24.3539915 124.0517953  85.3092286  25.9747800
 123.4297963  84.6462991  25.6750028 124.7222820  85.3353418  25.2921448
 117.2845025  83.8752145  24.8639060 116.4476934  83.4474319  24.6823061
 117.2568671  84.0684588  25.8009851 124.1242481  73.7874074  35.5680306
 124.1730636  74.6636197  35.1858075 124.6664995  73.2451467  34.9951949
 134.6097327  84.3315198  34.8481443 133.8192870  84.3139336  34.3085942
 134.3730681  84.8703491  35.6030480 134.7295202  81.1807664  32.1614171
 134.7793207  81.0157671  33.1029694 134.6209125  80.3134923  31.7712052
 123.6131460  83.8596210  19.4506260 123.7619581  84.5431674  18.7972933
 124.4197904  83.8401300  19.9655716 132.0198964  77.1638592  33.4773478
 132.9208827  77.0245057  33.1857476 132.0946939  77.3293047  34.4171656
 126.3541769  74.5405447  32.3226665 125.4845079  74.8339013  32.0509253
 126.5901250  75.1245892  33.0433928 136.2313398  83.6004605  32.4056193
 135.9398207  83.9634586  33.2419654 135.6185530  82.8871614  32.2269525
 137.4309081  81.1657485  24.9258763 138.2655972  81.6047289  25.0896324
 137.5668210  80.6896138  24.1067009 134.4800587  78.7237220  30.8736251
 134.9554708  78.9164866  30.0655102 133.5566152  78.7796406  30.6279635
 121.3684093  79.8861387  20.4567329 121.1230135  78.9823717  20.6547539
 121.5380008  79.8878538  19.5146807 129.0580803  70.7585064  29.8392085
 129.5762747  71.4946091  29.5138573 128.7035936  71.0649057  30.6738844
 120.6379741  75.6189745  17.9553491 119.9448986  75.6934100  17.2993527
 120.3931493  74.8550089  18.4775008 129.3093397  67.1785346  25.3592981
 129.5895151  66.5108535  25.9853408 130.0944004  67.3714442  24.8467645
 127.1126866  86.3544340  16.9218008 126.5400833  86.9734527  16.4688480
 127.6859659  86.9043702  17.4557930 133.1802256  75.6002980  29.1064557
 134.1319679  75.7001078  29.1276781 133.0105706  74.8081249  29.6162641
 131.2016635  72.6858563  29.2923958 130.6066567  72.9663576  28.5970446
 130.9166332  73.1752464  30.0640699 130.3324126  86.6381490  18.0526590
 131.2654799  86.5727052  18.2559466 130.2447338  87.4737757  17.5941123
 132.9612142  85.9547361  15.0130538 132.8825774  85.6207224  15.9066296
 133.7821809  86.4469129  15.0122010 135.6590333  78.8209100  28.2206856
 135.6266654  77.8825101  28.4066540 136.2690957  78.8993137  27.4872681
 127.4973664  77.6905153  14.2634060 128.4432769  77.5611361  14.3322478
 127.1187909  76.9519815  14.7403488 135.8084822  75.6120143  28.2665139
 135.2923871  74.8278600  28.0795068 136.6924770  75.2838860  28.4311659
 133.4695549  69.3561159  24.2260952 133.2720370  69.0476247  25.1104284
 134.0795254  70.0822798  24.3558882 141.4766883  79.8825107  27.3612893
 142.2070272  79.6210395  27.9220596 140.8673829  79.1453829  27.4014961
 139.5582180  78.0232969  27.9587344 138.8315344  77.8888934  27.3503836
 139.1429467  78.3309798  28.7644062 127.3812357  81.7422899  35.7234717
 128.3015366  81.9201498  35.9174764 127.3461940  80.7978944  35.5714417
 125.6816581  75.6155129  14.1988946 124.7748037  75.3188242  14.2751659
 125.9592562  75.3184947  13.3323232 116.5994522  76.9361493  24.6487992
 116.2797306  76.0826801  24.3562366 116.0527950  77.1510071  25.4045959
 120.3774429  79.6523934  28.3657498 120.5960439  80.5841041  28.3845532
 120.7900203  79.2931908  29.1512302 127.2978647  70.1592019  20.3533187
 126.4879376  69.8139104  20.7288433 127.9863064  69.8499563  20.9420798
 129.2269195  69.2370066  21.9757483 129.7800234  69.6565519  22.6347507
 129.4639282  68.3105814  22.0180439 125.2502295  75.2257139  37.7560247
 125.1499022  76.1751496  37.6872338 125.0323837  74.8975378  36.8836317
 124.4515366  72.4742064  14.3400925 125.3134530  72.7996963  14.5996742
 124.6365710  71.6873560  13.8273991 116.4682782  80.5564404  26.6181114
 115.7746253  80.1418357  26.1051068 117.2155773  80.5984941  26.0214532
 132.6048003  71.3470591  21.4836148 132.0246672  72.0055395  21.1014200
 132.3383935  70.5247936  21.0723565 131.0551569  70.7475649  23.6857468
 131.5551347  70.8592183  22.8771787 131.6987177  70.4436701  24.3258276
 125.1133565  78.6554278  36.5725309 124.6300646  79.4554638  36.7789198
 125.1994504  78.6662223  35.6192753 118.3819524  80.4882658  24.4947128
 118.3590212  80.5870345  23.5429011 118.6920161  81.3347809  24.8164295
 121.0406902  82.5458813  28.6093743 121.9950156  82.5142755  28.5423674
 120.8419426  82.0849437  29.4243969 121.6306284  81.1159929  31.1764540
 122.4499173  81.6104008  31.1999378 121.9043092  80.1991897  31.1482108
 131.3872881  73.5070681  20.5392496 130.4998736  73.7920332  20.3212691
 131.8026870  73.3464445  19.6919773 134.7387417  73.5317202  24.2546835
 135.5147807  74.0213655  24.5271452 134.0135551  73.9575256  24.7118705
 137.1759975  74.2444822  25.3120776 137.7704466  74.0040557  24.6014084
 137.2486559  73.5251952  25.9394312 119.3957131  88.0878432  25.6263941
 119.2611599  87.3278833  25.0601939 118.9789193  88.8119332  25.1592730
 130.5316094  83.2715356  14.6340516 131.2351944  83.4765358  15.2498172
 129.8078743  83.8392118  14.8989599 131.3613904  79.0225217  20.7542786
 131.3049106  79.4793769  19.9150419 131.9142247  78.2615902  20.5765629
 135.1718710  74.8114949  21.5792906 134.9155644  74.4111585  22.4101113
 134.5471578  75.5258743  21.4543045 139.4831048  77.5511022  24.0864197
 138.9230606  77.6204212  24.8595759 138.8774551  77.3752007  23.3663693
 122.5526257  88.9847749  25.8382383 122.4358641  89.9293182  25.7361074
 121.7318703  88.6821311  26.2268183 132.4402791  83.7097885  16.6838976
 133.2748395  83.2779084  16.5016451 132.2787134  83.5379899  17.6115870
 132.0948684  80.2129999  18.0495315 132.0397487  80.0474270  17.1083759
 131.4694739  80.9206031  18.2057505 116.8841199  75.4498063  31.8756738
 117.5300062  74.9397017  32.3643963 116.6758350  76.1866745  32.4500163
 129.4094591  82.5178910  37.3748878 130.2785750  82.6919563  37.0135513
 128.9301342  83.3373327  37.2524607 125.4044809  69.7138108  17.6280634
 125.3923479  70.6579947  17.7848905 126.2968231  69.5308253  17.3340095
 123.5780771  89.6376011  29.0538312 124.4808018  89.6699622  29.3704807
 123.3518141  88.7076462  29.0684648 125.3334373  88.3906998  25.7148390
 124.3830004  88.3908860  25.6012763 125.6366859  87.6439732  25.1984425
 129.2196929  66.3080884  21.8826571 128.4529324  65.7539371  22.0283253
 129.6307634  66.3802753  22.7440722 121.2238690  72.5965680  35.9731752
 122.0870151  72.2402485  36.1835076 120.6504100  72.2579575  36.6607156
 141.0687067  94.2267536  26.7794153 141.7065477  94.1074284  26.0757493
 140.9507909  95.1748380  26.8382105 137.8776773  94.1794964  26.7155677
 137.5395284  94.0636029  25.8276212 138.7466541  93.7786130  26.6956684
 133.7363589  96.0330441  22.7052568 133.1728454  95.9420378  21.9368856
 133.6215984  95.2130345  23.1855061 138.3596556  95.3329816  32.6741883
 138.3485197  94.9382614  31.8022387 138.5217195  94.5995889  33.2675654
 131.2828020  97.5281632  25.5436789 132.0749312  97.1872457  25.1283088
 131.5224671  97.6376607  26.4638942 133.2418774  96.7890546  18.4154168
 134.0149650  96.2419533  18.2767043 133.5944173  97.6534795  18.6268629
 135.0803817  98.1166928  31.6221067 134.7893683  99.0212559  31.5067733
 135.7160801  98.1583456  32.3365137 136.0060024  95.4943776  28.2122427
 136.6023596  95.2699799  27.4979390 136.0634995  94.7528522  28.8147874
 135.5785052  92.9483212  16.0472618 135.8310573  92.4264733  15.2856081
 134.6409611  92.7849357  16.1499301 140.6228335  91.9518990  23.8547361
 141.4091424  91.5338413  23.5037778 140.8867039  92.8565082  24.0229009
 146.0236762  91.8894223  24.7580339 146.7561934  91.3193440  24.9918169
 145.2676118  91.5015824  25.1986845 135.2981341  94.8511318  18.2496993
 135.1817599  94.1756221  18.9178077 135.4083601  94.3643692  17.4329146
 137.6412882  94.3121465  21.9543682 137.2771089  93.7852086  22.6656603
 138.4979998  93.9219934  21.7810167 143.5462183  85.6015797  29.2174948
 143.2145507  86.4711208  28.9936163 142.9507796  85.2852081  29.8968978
 137.2818369  89.3411365  16.9505030 137.4492771  90.2091601  17.3175501
 137.0915538  89.5038646  16.0266320 140.0393702  97.8028343  28.6170861
 139.7394425  98.7053382  28.5086668 139.6944762  97.5360527  29.4692014
 133.4906184  94.2542140  24.6507565 132.5656680  94.1218354  24.8585257
 133.7390597  95.0336360  25.1477507 143.4390846  90.3210884  26.2968298
 142.5307723  90.2526292  26.0027059 143.3878442  90.7982829  27.1250123
 137.2607590  91.7969022  17.9351697 137.1407215  92.2426073  18.7737177
 136.5660178  92.1454340  17.3765235 130.8514995  93.8975414  25.4851354
 130.9807376  94.1509893  26.3990766 130.1712446  94.4903122  25.1656009
 135.0214482 104.5672664  21.5841828 134.9438512 105.5180489  21.6630309
 134.4176125 104.2218536  22.2416755 137.5131712  91.7400529  34.2403195
 136.7365046  92.2994449  34.2306060 138.1522275  92.2257312  34.7618065
 145.3052492  88.5227322  28.0746172 144.6626872  88.8159855  27.4285966
 144.8007421  88.4080242  28.8799369 142.9592656  92.2690495  18.7632031
 143.8710512  92.5017882  18.5879729 142.4502303  92.8527539  18.2007110
 135.7678084  94.5485983  33.8021162 136.5092768  95.0871027  33.5255986
 135.0615069  95.1752271  33.9592714 141.2433424  96.6915123  32.3993324
 141.6516780  96.2497534  31.6547956 140.5210685  96.1167751  32.6527517
 137.5964494  91.6287730  29.7726881 138.4425689  92.0527143  29.9161530
 137.5363131  90.9721354  30.4665444 141.5662238  97.2516314  26.1545613
 140.9371101  97.4162028  25.4521680 141.1787900  97.6657923  26.9256577
 145.4451470  98.1870752  23.5089976 144.7602508  98.5669653  22.9587010
 145.5295319  98.7966078  24.2421924 140.7463939  89.2892098  31.4308054
 140.5024871  90.0434159  30.8942330 141.0223869  89.6677446  32.2655301
 142.7002402  95.8330711  30.1085320 142.9119297  96.4762470  29.4319701
 142.6532150  94.9993027  29.6407250 140.3028631  88.4448531  27.0121892
 139.4413110  88.7429785  27.3038630 140.3291065  88.6618930  26.0802925
 137.1190200  96.9890722  23.4195698 137.5828546  97.2678425  22.6300320
 136.8546998  96.0874166  23.2368788 134.0114281  96.5362203  26.3575461
 134.5815638  96.9649472  25.7192945 134.6022393  96.2544788  27.0559647
 136.0559086  93.1113874  20.2285263 136.7583129  93.5634918  20.6959189
 135.7239715  92.4697693  20.8565156 134.5039448  91.7025631  34.6036472
 133.8738108  92.3841912  34.8371869 134.3975536  91.5908712  33.6589611
 129.7984420  91.3697427  25.5302396 129.0083474  91.6254955  25.0542507
 130.2895667  92.1845765  25.6354437 143.8148230  98.7102666  28.2807677
 144.6365673  98.3082853  27.9990359 143.8110633  98.6070900  29.2323793
 131.7499165  91.7342006  22.4885873 130.9530329  91.8460700  23.0069369
 131.5224758  92.0728658  21.6226764 137.5804833  98.2586709  30.4368388
 137.6449266  98.7207117  31.2726560 136.8715757  97.6284074  30.5650698
 128.0822123  91.6227917  27.9617387 128.3330162  92.5074927  28.2274963
 128.6181671  91.4432519  27.1892479 151.9054223  95.0541414  24.6292649
 151.1517931  94.4848813  24.4736653 152.0401764  95.0204079  25.5763283
 137.2952851  99.9254817  20.3047368 137.1598526 100.7706352  20.7332216
 137.8362663 100.1274094  19.5413302 133.7820190  86.0046397  36.9661723
 133.3887136  85.4512595  37.6409368 134.5986331  86.3156975  37.3568241
 130.7482248  97.4430255  20.8775293 131.2606769  98.2373505  21.0280858
 131.4004961  96.7456545  20.8108895 132.5577133 100.5596011  22.9598046
 132.7343761 101.4813976  22.7719030 133.3533966 100.2454430  23.3892426
 136.6988151  87.4204276  34.5581980 137.4397865  88.0211429  34.4786442
 136.9306074  86.6781913  34.0000022 131.8429489  92.6060643  32.8360210
 131.7283005  91.7045900  33.1367308 130.9874007  92.8524340  32.4845026
 138.9221327 100.5478383  34.4347710 138.4785181  99.7614762  34.1168615
 139.5838541 100.7357534  33.7691601 133.6808448 102.0774185  28.9608389
 134.2315873 101.9491248  28.1885383 132.8419924 102.3769074  28.6103281
 141.0202565 100.8281183  32.4629111 141.0021041 101.6490064  31.9709381
 141.9422485 100.7035258  32.6879253 137.4775619  98.3425313  33.3052620
 138.0103956  97.5813601  33.0751928 136.9489700  98.0498964  34.0476774
 140.6445314  83.4485379  28.8346262 140.3009584  84.3387020  28.7585372
 141.0124277  83.2587036  27.9715847 128.7131165  95.7718909  21.6534864
 129.5506387  96.1815917  21.4368571 128.8909433  94.8318351  21.6235058
 140.6095597  93.4393990  17.3418697 140.0942220  94.2098594  17.5807084
 140.3372906  92.7659126  17.9651758 138.1942708  88.2843691  22.4003935
 137.3384304  87.8950541  22.2209574 138.6069660  88.3635651  21.5403721
 139.7241855  85.8190034  26.7995495 139.2206650  85.7820169  25.9863300
 140.0172462  86.7282777  26.8592151 135.9684741  85.9028764  25.8061677
 136.8337737  85.7071572  25.4467566 136.0362250  85.6739115  26.7331033
 140.3981900  91.3121082  19.1678478 140.0932036  91.6267231  20.0188621
 141.3512342  91.3902502  19.2105811 138.8428332  97.4711305  20.8171432
 138.3149694  96.7364065  20.5044669 138.3415835  98.2485982  20.5711400
 143.8221178  95.6660326  25.9338478 143.1644853  96.3559587  26.0218607
 144.6261577  96.0556758  26.2772464 133.5747060  88.1330971  23.1778043
 134.1490812  87.9106153  22.4451236 134.1618042  88.2019666  23.9306645
 142.6326637  94.0204698  23.9842420 143.1458519  94.6534690  24.4864130
 143.2827861  93.4205894  23.6185780 133.9016647  90.1635432  17.1973929
 133.0653959  90.5010119  17.5183203 133.7621416  90.0284412  16.2601066
 135.8769727  85.0072220  21.9053113 135.2234140  84.6921238  21.2809728
 135.8350202  84.3847961  22.6312936 139.1107468  91.4954154  26.2300760
 138.1930029  91.7169101  26.0722448 139.5267611  91.5700464  25.3712468
 139.8942516  92.8945570  21.3603441 140.6414334  93.4066967  21.0510563
 140.1634105  92.5729622  22.2207834 138.1669166  95.3904110  18.3430395
 137.2580385  95.1063143  18.4402865 138.1964249  95.8103189  17.4833702
 143.3988433  99.0010700  22.1121563 142.9450760  98.1601610  22.1686753
 142.7682400  99.6372098  22.4496343 142.3421353  89.9302686  23.3422230
 141.6044109  89.4180072  23.6732473 142.5948126  89.4903067  22.5305507
 141.8421372 100.8387196  23.0471381 142.1344347 101.3992254  22.3283746
 142.3519993 101.1315757  23.8024540 142.4432980  82.7078938  23.9363999
 142.7491857  81.8476301  23.6489914 143.1685585  83.2996558  23.7362993
 128.7357336  93.1109624  22.3245597 128.5381736  92.5178985  21.5996664
 128.1804000  92.8061835  23.0421536 136.7154060  93.0032731  24.4440190
 136.7702670  92.0506567  24.3682667 135.9045262  93.1592170  24.9281489
 134.6546420  91.6209791  22.2030569 133.8414285  91.9203961  22.6095761
 135.1505414  91.2265479  22.9205051 136.8054998 101.6167548  24.1364834
 136.7631176 101.8428394  23.2073366 137.7217696 101.3830922  24.2850635
 140.2520631  92.0851615  31.0345463 140.6070019  92.3123088  31.8939929
 140.8992763  92.4169992  30.4122718 145.9818368  95.2070051  21.7394792
 145.8436267  95.3971647  20.8115981 145.6254587  95.9689434  22.1962843
 134.1460494  89.1928146  27.8191804 134.7859874  89.0516905  27.1214767
 133.3138025  88.9062660  27.4430406 146.0087748  97.2746578  26.7506064
 146.4424255  97.1821867  27.5989118 146.7219329  97.2504078  26.1126080
 134.9220798  98.4930577  23.9326797 135.7161397  97.9980897  23.7309372
 134.2112491  97.9648440  23.5694502 139.7415643 100.8748672  28.2839164
 139.7952665 101.4439608  29.0516880 138.8730424 101.0450557  27.9193201
 131.2303562  92.6373658  20.0086549 130.3001150  92.5758114  20.2256511
 131.3261034  92.1149611  19.2123191 131.1489111  89.1628471  22.5964791
 131.4095928  90.0773804  22.4873951 131.9706283  88.6952914  22.7461404
 132.6214036  90.5766228  29.7663615 133.2937090  90.3683590  29.1176264
 131.7943823  90.3788314  29.3268848 146.8703297  97.3170279  29.2838949
 147.0639188  98.2216089  29.5298224 146.7703916  96.8577698  30.1177534
 138.5239608  87.2028169  31.7829276 137.8767523  87.9018119  31.6893753
 139.2940624  87.6364313  32.1505525 141.9318406  97.4677021  34.8579830
 141.7803913  97.2387573  33.9409913 141.9223086  98.4247623  34.8711175
 138.7003743  95.0408934  29.8426096 139.6295803  95.1920094  29.6695063
 138.2794773  95.1292955  28.9874743 137.4992074  99.0659599  27.6124634
 137.3603160  98.6978383  28.4850572 136.7106671  99.5807238  27.4408591
 139.0497289  98.4441201  25.0013471 138.7147122  98.4041971  25.8971121
 138.5501235  97.7785917  24.5283882 133.0241533  93.8508831  30.5266053
 132.8861331  93.1189070  31.1277592 133.9346457  93.7617731  30.2450240
 135.6523834  93.5628791  30.0149732 136.3623453  92.9221983  29.9736351
 135.6093142  93.8141685  30.9375913 143.6410613 100.4996144  32.9356311
 143.5823159  99.8155364  32.2686894 144.0430131 101.2415134  32.4836937
 134.3652768  90.5494009  31.8345372 133.8290125  90.0984747  32.4866968
 133.7769477  90.6839917  31.0915836 132.6601312 107.3158058  25.7290030
 132.8997910 107.9476582  26.4069049 131.8170508 106.9646098  26.0155390
 133.7755027  90.0082660  14.3971835 132.8984493  89.8871461  14.0334082
 134.2512780  89.2168738  14.1450724 143.6428020  98.4635728  31.1670291
 142.7554799  98.1261650  31.2896690 144.2126571  97.7318759  31.4039057
 125.2957167  94.7959820  24.4913343 125.9828207  94.4821550  23.9034358
 125.1405296  95.7001184  24.2180594 130.0991889  89.6850016  28.9198366
 130.0150078  89.0775686  28.1848776 129.2774596  90.1759035  28.9207863
 137.1729173 103.1237180  28.1331534 137.0999345 103.9292152  28.6450839
 136.7306567 103.3229146  27.3079556 136.9618953 102.3608950  21.6434356
 136.1786475 102.9030630  21.7372580 137.6611698 102.8782930  22.0428597
 140.2715603  88.1703580  24.2868561 140.7684303  87.4173542  23.9669632
 139.5002585  88.2067896  23.7211771 148.1245361  93.8743945  25.9286853
 148.1135237  94.7568661  25.5580786 147.2562740  93.5215496  25.7341390
 139.6327857 103.0224014  30.2889693 140.3455829 103.6571479  30.2165594
 139.1417886 103.1187880  29.4729695 141.3545384  96.9275267  21.8606985
 140.4201663  97.0476729  21.6911689 141.5322052  96.0247734  21.5966995
 136.8550572  90.3120963  24.0140246 136.4848359  89.7592003  24.7021151
 137.3509664  89.7079096  23.4615246 144.7417935  92.7692586  22.3957019
 145.2078387  93.6020578  22.3217321 145.1925436  92.3037568  23.1002277
 134.6839770 100.7718458  31.1095264 135.3849230 101.4054941  31.2624658
 134.2134885 101.1133189  30.3490903 142.7134598  85.1373173  26.4347920
 141.7997678  85.3677400  26.6030127 143.1427699  85.2211617  27.2861953
 142.4841056  93.3263065  28.9347814 141.8312507  93.5738973  28.2800267
 142.8621436  92.5127203  28.6010291 139.4448230 103.3622758  23.0375984
 139.6270625 102.5444414  23.5003737 140.2681216 103.5790451  22.6000874
 138.5328629  94.0682876  35.4213851 137.8569266  93.9677006  36.0916226
 139.3556263  93.9122090  35.8849848 130.2807489 100.3054813  28.0426366
 130.8660925  99.5598501  28.1754271 130.0832327 100.6158770  28.9263030
 133.1346144 103.3406060  23.0588809 132.4656519 103.8252188  22.5752849
 132.9959013 103.5875281  23.9732187 124.8725143  92.8760413  26.7630810
 124.9109243  92.3424004  27.5567928 124.3665436  92.3495619  26.1441787
 137.2751412 105.3749804  29.6571467 137.8269720 105.5381425  30.4220552
 137.6157606 105.9654242  28.9851492 132.2515906  87.7224954  30.2593352
 132.3157232  88.5839784  29.8470750 132.1883026  87.1098955  29.5265710
 131.7268178  89.7948086  33.9066386 132.3540217  89.4125163  34.5203911
 130.8696097  89.5762288  34.2722079 142.1262287 100.2011061  35.5120122
 142.6702191 100.8141019  35.0175076 141.5449132 100.7590640  36.0287135
 128.5033721  91.6024515  19.8384741 128.7987162  90.6935194  19.7851795
 127.6021757  91.5812255  19.5165743 140.4119800 103.3231779  26.6435149
 140.2870939 102.5221519  26.1346095 141.0698891 103.8177973  26.1549119
 132.0327968  89.6780512  25.8212290 131.3114554  90.2916479  25.6819763
 132.8221224  90.2138277  25.7428936 142.4754708 101.1240799  28.2714699
 141.5285044 101.0046150  28.1993026 142.8237481 100.2363297  28.3540961
 134.8354281  87.0134938  32.0952941 135.3588683  87.2597235  32.8579251
 134.6166615  87.8454973  31.6756079 130.2321562  89.2838613  19.9624066
 129.9034269  88.4035992  19.7799172 130.5860933  89.2286282  20.8500455
 139.4801141 100.9193516  24.4719052 139.3326104  99.9910223  24.6526622
 140.3054635 100.9413606  23.9876127 133.3463386  89.5711583  20.3299544
 133.6859458  90.0997504  19.6078152 133.7935506  89.9091989  21.1058110
 143.0835263 101.7422074  25.5583924 144.0081811 101.5364936  25.4208376
 142.9150567 101.4938475  26.4673266 136.0406826  87.9548633  29.7802612
 135.7003647  87.1556446  30.1823292 135.3345833  88.2550344  29.2079445
 136.6923298  85.0397946  28.2329935 137.5149368  84.5658424  28.1108825
 136.9361362  85.8188430  28.7328621 135.3331533  88.0686204  18.5292837
 136.0539895  88.4467457  18.0256553 134.7096837  88.7875081  18.6327815
 139.4762656  88.7731353  19.4651169 139.6926270  89.6555991  19.1639997
 138.9956723  88.3817567  18.7356811 134.2161877  91.7317066  26.0421914
 134.0706458  92.0457369  26.9346195 133.7387081  92.3501967  25.4892812
 136.0758260  88.7219614  26.0902803 136.0619829  87.8260708  25.7535101
 136.7930688  88.7290278  26.7241089 137.9284391  89.1556955  28.1355931
 137.6702168  90.0774025  28.1340261 137.3969431  88.7587389  28.8256395
 128.6907539  94.2722411  28.9809575 128.1461007  95.0482219  29.1129849
 129.5686889  94.6193215  28.8228696 135.4795156  87.6033995  21.3590373
 135.6011067  86.6750641  21.5581261 135.1897198  87.6172681  20.4468689
 138.3486346  85.2888905  24.4957093 138.3708043  85.3528238  23.5409073
 138.7654405  84.4493414  24.6897599 148.7269971  95.0244165  22.5336316
 149.1701117  94.2751490  22.1355439 147.8496481  95.0154301  22.1510048
 129.4773561  93.3992307  31.8739732 128.7355297  93.5474942  32.4604362
 129.1566305  93.6600573  31.0106481 137.4217224 102.9408285  31.6720122
 137.7304350 102.6957432  32.5442821 138.2192706 103.1454924  31.1838992
 137.4437836 105.0946195  23.9025498 137.0042826 104.6022574  24.5958355
 138.1945953 104.5519163  23.6617573 129.9230175 101.2857736  23.9050126
 130.7488195 100.9861508  23.5248770 129.5724227 100.5165358  24.3539915
 134.8911708 100.6384204  25.9747800 134.2691717  99.9754909  25.6750028
 135.5616575 100.6645336  25.2921448 128.1238780  99.2044062  24.8639060
 127.2870688  98.7766237  24.6823061 128.0962425  99.3976506  25.8009851
 134.9636235  89.1165992  35.5680306 135.0124391  89.9928115  35.1858075
 135.5058750  88.5743385  34.9951949 145.4491081  99.6607115  34.8481443
 144.6586625  99.6431254  34.3085942 145.2124436 100.1995409  35.6030480
 145.5688956  96.5099582  32.1614171 145.6186961  96.3449589  33.1029694
 145.4602879  95.6426841  31.7712052 134.4525215  99.1888127  19.4506260
 134.6013335  99.8723592  18.7972933 135.2591658  99.1693217  19.9655716
 142.8592718  92.4930510  33.4773478 143.7602581  92.3536975  33.1857476
 142.9340693  92.6584965  34.4171656 137.1935524  89.8697364  32.3226665
 136.3238833  90.1630930  32.0509253 137.4295004  90.4537809  33.0433928
 147.0707153  98.9296523  32.4056193 146.7791961  99.2926504  33.2419654
 146.4579284  98.2163531  32.2269525 148.2702835  96.4949403  24.9258763
 149.1049727  96.9339207  25.0896324 148.4061964  96.0188056  24.1067009
 145.3194341  94.0529138  30.8736251 145.7948463  94.2456784  30.0655102
 144.3959907  94.1088324  30.6279635 132.2077848  95.2153305  20.4567329
 131.9623890  94.3115635  20.6547539 132.3773762  95.2170455  19.5146807
 139.8974558  86.0876981  29.8392085 140.4156502  86.8238008  29.5138573
 139.5429690  86.3940975  30.6738844 131.4773495  90.9481663  17.9553491
 130.7842740  91.0226018  17.2993527 131.2325247  90.1842006  18.4775008
 140.1487152  82.5077264  25.3592981 140.4288906  81.8400453  25.9853408
 140.9337759  82.7006360  24.8467645 144.0196010  90.9294898  29.1064557
 144.9713433  91.0292996  29.1276781 143.8499461  90.1373166  29.6162641
 142.0410390  88.0150481  29.2923958 141.4460322  88.2955494  28.5970446
 141.7560086  88.5044382  30.0640699 146.4984088  94.1501018  28.2206856
 146.4660408  93.2117018  28.4066540 147.1084712  94.2285054  27.4872681
 146.6478576  90.9412061  28.2665139 146.1317625  90.1570518  28.0795068
 147.5318525  90.6130778  28.4311659 144.3089303  84.6853077  24.2260952
 144.1114124  84.3768165  25.1104284 144.9189009  85.4114715  24.3558882
 152.3160638  95.2117024  27.3612893 153.0464026  94.9502313  27.9220596
 151.7067583  94.4745746  27.4014961 150.3975935  93.3524887  27.9587344
 149.6709099  93.2180852  27.3503836 149.9823222  93.6601716  28.7644062
 138.2206111  97.0714817  35.7234717 139.1409121  97.2493416  35.9174764
 138.1855694  96.1270862  35.5714417 136.5210336  90.9447047  14.1988946
 135.6141791  90.6480160  14.2751659 136.7986317  90.6476865  13.3323232
 127.4388276  92.2653410  24.6487992 127.1191061  91.4118719  24.3562366
 126.8921705  92.4801988  25.4045959 131.2168184  94.9815851  28.3657498
 131.4354194  95.9132959  28.3845532 131.6293958  94.6223826  29.1512302
 138.1372402  85.4883937  20.3533187 137.3273130  85.1431022  20.7288433
 138.8256819  85.1791480  20.9420798 140.0662950  84.5661983  21.9757483
 140.6193989  84.9857437  22.6347507 140.3033036  83.6397732  22.0180439
 136.0896049  90.5549057  37.7560247 135.9892776  91.5043414  37.6872338
 135.8717591  90.2267296  36.8836317 135.2909121  87.8033982  14.3400925
 136.1528285  88.1288880  14.5996742 135.4759465  87.0165478  13.8273991
 127.3076536  95.8856322  26.6181114 126.6140008  95.4710275  26.1051068
 128.0549527  95.9276858  26.0214532 143.4441757  86.6762509  21.4836148
 142.8640426  87.3347313  21.1014200 143.1777690  85.8539853  21.0723565
 141.8945323  86.0767566  23.6857468 142.3945102  86.1884101  22.8771787
 142.5380931  85.7728619  24.3258276 135.9527319  93.9846196  36.5725309
 135.4694401  94.7846556  36.7789198 136.0388258  93.9954141  35.6192753
 129.2213279  95.8174576  24.4947128 129.1983967  95.9162263  23.5429011
 129.5313915  96.6639726  24.8164295 131.8800657  97.8750731  28.6093743
 132.8343910  97.8434673  28.5423674 131.6813180  97.4141354  29.4243969
 132.4700039  96.4451847  31.1764540 133.2892928  96.9395925  31.1999378
 132.7436847  95.5283815  31.1482108 142.2266635  88.8362599  20.5392496
 141.3392490  89.1212250  20.3212691 142.6420624  88.6756362  19.6919773
 145.5781171  88.8609120  24.2546835 146.3541561  89.3505572  24.5271452
 144.8529305  89.2867174  24.7118705 148.0153730  89.5736739  25.3120776
 148.6098221  89.3332475  24.6014084 148.0880314  88.8543870  25.9394312
 130.2350886 103.4170350  25.6263941 130.1005353 102.6570751  25.0601939
 129.8182948 104.1411250  25.1592730 142.2007659  94.3517135  20.7542786
 142.1442860  94.8085686  19.9150419 142.7536001  93.5907820  20.5765629
 146.0112465  90.1406867  21.5792906 145.7549399  89.7403502  22.4101113
 145.3865333  90.8550661  21.4543045 150.3224803  92.8802940  24.0864197
 149.7624361  92.9496129  24.8595759 149.7168306  92.7043925  23.3663693
 133.3920011 104.3139667  25.8382383 133.2752396 105.2585100  25.7361074
 132.5712458 104.0113229  26.2268183 127.7234953  90.7789981  31.8756738
 128.3693817  90.2688935  32.3643963 127.5152104  91.5158662  32.4500163
 140.2488345  97.8470828  37.3748878 141.1179505  98.0211480  37.0135513
 139.7695097  98.6665245  37.2524607 136.2438564  85.0430025  17.6280634
 136.2317233  85.9871865  17.7848905 137.1361985  84.8600171  17.3340095
 134.4174526 104.9667929  29.0538312 135.3201772 104.9991539  29.3704807
 134.1911896 104.0368380  29.0684648 136.1728128 103.7198916  25.7148390
 135.2223759 103.7200777  25.6012763 136.4760614 102.9731650  25.1984425
 140.0590683  81.6372802  21.8826571 139.2923079  81.0831289  22.0283253
 140.4701388  81.7094671  22.7440722 132.0632444  87.9257598  35.9731752
 132.9263906  87.5694402  36.1835076 131.4897855  87.5871492  36.6607156
 149.1990310 110.6621734  32.6741883 149.1878951 110.2674532  31.8022387
 149.3610950 109.9287806  33.2675654 145.9197571 113.4458846  31.6221067
 145.6287437 114.3504476  31.5067733 146.5554556 113.4875373  32.3365137
 154.3855937 100.9307715  29.2174948 154.0539262 101.8003126  28.9936163
 153.7901550 100.6143999  29.8968978 148.3525466 107.0692447  34.2403195
 147.5758800 107.6286367  34.2306060 148.9916029 107.5549230  34.7618065
 146.6071838 109.8777900  33.8021162 147.3486523 110.4162944  33.5255986
 145.9008824 110.5044189  33.9592714 148.4358248 106.9579648  29.7726881
 149.2819443 107.3819061  29.9161530 148.3756886 106.3013272  30.4665444
 151.5857693 104.6184016  31.4308054 151.3418625 105.3726076  30.8942330
 151.8617624 104.9969363  32.2655301 145.3433202 107.0317548  34.6036472
 144.7131863 107.7133829  34.8371869 145.2369290 106.9200630  33.6589611
 140.6378175 106.6989344  25.5302396 139.8477229 106.9546873  25.0542507
 141.1289422 107.5137682  25.6354437 138.9215878 106.9519835  27.9617387
 139.1723916 107.8366845  28.2274963 139.4575426 106.7724436  27.1892479
 144.6213945 101.3338314  36.9661723 144.2280890 100.7804513  37.6409368
 145.4380085 101.6448893  37.3568241 147.5381906 102.7496193  34.5581980
 148.2791619 103.3503347  34.4786442 147.7699829 102.0073831  34.0000022
 142.6823244 107.9352561  32.8360210 142.5676759 107.0337818  33.1367308
 141.8267762 108.1816257  32.4845026 149.7615082 115.8770301  34.4347710
 149.3178936 115.0906680  34.1168615 150.4232295 116.0649451  33.7691601
 148.3169374 113.6717230  33.3052620 148.8497711 112.9105519  33.0751928
 147.7883455 113.3790882  34.0476774 151.4839069  98.7777296  28.8346262
 151.1403338  99.6678938  28.7585372 151.8518031  98.5878954  27.9715847
 150.5635609 101.1481951  26.7995495 150.0600405 101.1112087  25.9863300
 150.8566216 102.0574694  26.8592151 146.8078495 101.2320681  25.8061677
 147.6731492 101.0363490  25.4467566 146.8756004 101.0031033  26.7331033
 151.0914386 107.4143533  31.0345463 151.4463774 107.6415006  31.8939929
 151.7386517 107.7461910  30.4122718 144.9854249 104.5220064  27.8191804
 145.6253628 104.3808823  27.1214767 144.1531779 104.2354577  27.4430406
 143.4607791 105.9058146  29.7663615 144.1330844 105.6975508  29.1176264
 142.6337577 105.7080232  29.3268848 149.3633363 102.5320087  31.7829276
 148.7161278 103.2310037  31.6893753 150.1334378 102.9656231  32.1505525
 152.7712161 112.7968939  34.8579830 152.6197667 112.5679491  33.9409913
 152.7616840 113.7539541  34.8711175 143.8635288 109.1800749  30.5266053
 143.7255086 108.4480988  31.1277592 144.7740211 109.0909649  30.2450240
 146.4917589 108.8920708  30.0149732 147.2017207 108.2513900  29.9736351
 146.4486897 109.1433603  30.9375913 145.2046523 105.8785926  31.8345372
 144.6683880 105.4276665  32.4866968 144.6163231 106.0131835  31.0915836
 140.9385644 105.0141934  28.9198366 140.8543833 104.4067603  28.1848776
 140.1168350 105.5050952  28.9207863 153.5528352 100.4665091  26.4347920
 152.6391432 100.6969318  26.6030127 153.9821454 100.5503535  27.2861953
 149.3722384 109.3974794  35.4213851 148.6963021 109.2968923  36.0916226
 150.1950018 109.2414008  35.8849848 135.7118898 108.2052331  26.7630810
 135.7502997 107.6715921  27.5567928 135.2059191 107.6787536  26.1441787
 143.0909660 103.0516871  30.2593352 143.1550987 103.9131702  29.8470750
 143.0276780 102.4390873  29.5265710 142.5661933 105.1240004  33.9066386
 143.1933971 104.7417081  34.5203911 141.7089851 104.9054206  34.2722079
 152.9656041 115.5302979  35.5120122 153.5095945 116.1432937  35.0175076
 152.3842886 116.0882557  36.0287135 142.8721722 105.0072429  25.8212290
 142.1508308 105.6208397  25.6819763 143.6614978 105.5430194  25.7428936
 145.6748036 102.3426856  32.0952941 146.1982438 102.5889152  32.8579251
 145.4560369 103.1746891  31.6756079 146.8800581 103.2840551  29.7802612
 146.5397401 102.4848364  30.1823292 146.1739587 103.5842262  29.2079445
 147.5317053 100.3689863  28.2329935 148.3543122  99.8950342  28.1108825
 147.7755116 101.1480347  28.7328621 146.9152014 104.0511532  26.0902803
 146.9013583 103.1552625  25.7535101 147.6324442 104.0582196  26.7241089
 148.7678145 104.4848872  28.1355931 148.5095923 105.4065943  28.1340261
 148.2363185 104.0879307  28.8256395 139.5301294 109.6014328  28.9809575
 138.9854762 110.3774136  29.1129849 140.4080644 109.9485133  28.8228696
 140.3167316 108.7284225  31.8739732 139.5749052 108.8766860  32.4604362
 139.9960060 108.9892490  31.0106481 145.8029990 104.4457910  35.5680306
 145.8518145 105.3220033  35.1858075 146.3452504 103.9035303  34.9951949
 153.6986473 107.8222427  33.4773478 154.5996336 107.6828892  33.1857476
 153.7734447 107.9876882  34.4171656 148.0329278 105.1989282  32.3226665
 147.1632588 105.4922848  32.0509253 148.2688759 105.7829727  33.0433928
 150.7368312 101.4168899  29.8392085 151.2550256 102.1529926  29.5138573
 150.3823445 101.7232892  30.6738844 150.9880906  97.8369182  25.3592981
 151.2682660  97.1692371  25.9853408 151.7731513  98.0298277  24.8467645
 152.8804144 103.3442399  29.2923958 152.2854076 103.6247411  28.5970446
 152.5953841 103.8336300  30.0640699 149.0599866 112.4006734  35.7234717
 149.9802875 112.5785333  35.9174764 149.0249449 111.4562780  35.5714417
 138.2782031 107.5945328  24.6487992 137.9584815 106.7410636  24.3562366
 137.7315459 107.8093906  25.4045959 142.0561938 110.3107769  28.3657498
 142.2747948 111.2424877  28.3845532 142.4687712 109.9515743  29.1512302
 146.9289804 105.8840975  37.7560247 146.8286531 106.8335332  37.6872338
 146.7111346 105.5559214  36.8836317 138.1470291 111.2148240  26.6181114
 137.4533762 110.8002192  26.1051068 138.8943282 111.2568776  26.0214532
 146.7921074 109.3138114  36.5725309 146.3088155 110.1138474  36.7789198
 146.8782013 109.3246058  35.6192753 143.3093793 111.7743764  31.1764540
 144.1286682 112.2687843  31.1999378 143.5830601 110.8575733  31.1482108
 138.5628708 106.1081898  31.8756738 139.2087571 105.5980852  32.3643963
 138.3545859 106.8450580  32.4500163 151.0882100 113.1762746  37.3748878
 151.9573259 113.3503398  37.0135513 150.6088851 113.9957163  37.2524607
 142.9026199 103.2549515  35.9731752 143.7657660 102.8986320  36.1835076
 142.3291609 102.9163410  36.6607156 155.4607699 116.6630232  36.9661723
 155.0674645 116.1096431  37.6409368 156.2773840 116.9740810  37.3568241
  95.0021539  11.0224268  19.3987190  94.9910180  10.6277066  18.5267693
  95.1642179  10.2890341  19.9920961  91.7228800  13.8061380  18.3466374
  91.4318666  14.7107011  18.2313040  92.3585785  13.8477907  19.0610443
  96.6818685  13.4922795  15.3416167  96.3819408  14.3947834  15.2331975
  96.3369745  13.2254979  16.1937320  94.1556695   7.4294981  20.9648502
  93.3790029   7.9888901  20.9551367  94.7947258   7.9151764  21.4863372
  92.4103067  10.2380434  20.5266469  93.1517752  10.7765478  20.2501293
  91.7040053  10.8646723  20.6838021  97.8858407  12.3809575  19.1238630
  98.2941763  11.9391985  18.3793263  97.1635668  11.8062202  19.3772823
  97.3888922   4.9786550  18.1553361  97.1449854   5.7328611  17.6187637
  97.6648853   5.3571898  18.9900608  99.3427385  11.5225162  16.8330627
  99.5544280  12.1656922  16.1565008  99.2957133  10.6887479  16.3652557
  91.1464431   7.3920083  21.3281779  90.5163092   8.0736364  21.5617176
  91.0400519   7.2803164  20.3834917 100.4573213  14.3997118  15.0052984
 101.2790657  13.9977305  14.7235666 100.4535616  14.2965352  15.9569100
  94.2229816  13.9481161  17.1613694  94.2874249  14.4101568  17.9971866
  93.5140740  13.3178526  17.2896004  90.4245174   1.6940849  23.6907030
  90.0312119   1.1407047  24.3654674  91.2411314   2.0051427  24.0813547
  95.5646310  16.2372835  21.1593017  95.1210165  15.4509214  20.8413921
  96.2263524  16.4251986  20.4936908  90.3233432  17.7668637  15.6853695
  90.8740857  17.6385700  14.9130689  89.4844908  18.0663526  15.3348588
  97.6627549  16.5175635  19.1874418  97.6446024  17.3384516  18.6954687
  98.5847469  16.3929710  19.4124559  94.1200603  14.0319765  20.0297926
  94.6528939  13.2708053  19.7997234  93.5914684  13.7393416  20.7722081
  96.8945615   7.7746067  17.7590770  97.2495002   8.0017540  18.6185235
  97.5417746   8.1064444  17.1368025 102.6512731  12.9641030  13.4751370
 103.0849238  12.8716319  14.3234424 103.3644312  12.9398530  12.8371386
  96.3840626  16.5643124  15.0084471  96.4377648  17.1334060  15.7762187
  95.5155407  16.7345009  14.6438508 103.5128281  13.0064731  16.0084256
 103.7064171  13.9110541  16.2543531 103.4128899  12.5472150  16.8422841
  98.5743389  13.1571473  21.5825136  98.4228896  12.9282025  20.6655220
  98.5648069  14.1142075  21.5956481  95.3428726  10.7303386  16.5671403
  96.2720786  10.8814546  16.3940370  94.9219756  10.8187407  15.7120049
  94.1417058  14.7554050  14.3369940  94.0028143  14.3872835  15.2095878
  93.3531654  15.2701690  14.1653898 100.2835596  16.1890596  19.6601618
 100.2248142  15.5049816  18.9932201 100.6855114  16.9309586  19.2082244
  89.3026295  23.0052510  12.4535337  89.5422893  23.6371034  13.1314356
  88.4595491  22.6540550  12.7400696 100.2853003  14.1530180  17.8915598
  99.3979782  13.8156102  18.0141997 100.8551554  13.4213211  18.1284363
  93.8154157  18.8131632  14.8576841  93.7424328  19.6186604  15.3696146
  93.3731550  19.0123598  14.0324862  96.2752840  18.7118466  17.0135000
  96.9880812  19.3465931  16.9410901  95.7842869  18.8082332  16.1975001
  91.3264754  16.4612910  17.8340570  92.0274213  17.0949393  17.9869965
  90.8559869  16.8027641  17.0736210  99.1266040   9.0157517  15.6593121
  98.4737490   9.2633425  15.0045574  99.5046420   8.2021655  15.3255598
  95.1753613   9.7577328  22.1459158  94.4994250   9.6571457  22.8161533
  95.9981247   9.6016542  22.6095155  93.9176396  21.0644256  16.3816774
  94.4694704  21.2275877  17.1465859  94.2582589  21.6548693  15.7096799
  98.7687270  15.8905513  22.2365428  99.3127174  16.5035471  21.7420383
  98.1874115  16.4485092  22.7532441  97.0544783  19.0126231  13.3680456
  96.9295922  18.2115971  12.8591402  97.7123874  19.5072424  12.8794426
  99.1179691  16.8135251  14.9960006  98.1710027  16.6940602  14.9238333
  99.4662464  15.9257749  15.0786268  99.7260246  17.4316526  12.2829231
 100.6506794  17.2259387  12.1453682  99.5575550  17.1832927  13.1918573
  94.0642207  18.6302737  18.3965428  94.3729333  18.3851884  19.2688128
  94.8617689  18.8349376  17.9084298  94.0862819  20.7840647  10.6270805
  93.6467809  20.2917026  11.3203662  94.8370936  20.2413614  10.3862880
  91.6061219   4.8060444  22.2925613  91.6549374   5.6822567  21.9103382
  92.1483733   4.2637837  21.7197256 102.0916064  15.3501567  21.5726750
 101.3011608  15.3325706  21.0331249 101.8549419  15.8889861  22.3275786
 102.2113939  12.1994034  18.8859478 102.2611944  12.0344041  19.8275001
 102.1027863  11.3321293  18.4957359  99.5017702   8.1824962  20.2018785
 100.4027565   8.0431426  19.9102783  99.5765676   8.3479416  21.1416962
 103.7132136  14.6190975  19.1301500 103.4216945  14.9820956  19.9664961
 103.1004268  13.9057983  18.9514832 101.9619324   9.7423590  17.5981558
 102.4373446   9.9351236  16.7900409 101.0384890   9.7982776  17.3524941
 100.6620993   6.6189350  15.8309863 101.6138416   6.7187447  15.8522087
 100.4924444   5.8267618  16.3407948 103.1409071   9.8395469  14.9452163
 103.1085391   8.9011470  15.1311847 103.7509695   9.9179506  14.2117988
 107.0400918   9.0419339  14.6832651 106.3134082   8.9075304  14.0749142
 106.6248205   9.3496168  15.4889369  94.8631095  12.7609269  22.4480024
  95.7834104  12.9387868  22.6420070  94.8280678  11.8165314  22.2959723
  92.7321033   6.2443509  24.4805554  92.6317759   7.1937866  24.4117645
  92.5142575   5.9161748  23.6081624  92.5952303   9.6740648  23.2970616
  92.1119384  10.4741008  23.5034505  92.6813242   9.6848593  22.3438060
  89.1125022  12.1346299  17.9009847  89.9317911  12.6290377  17.9244684
  89.3861830  11.2178267  17.8727415  90.0344995  20.0034119  12.5627690
  89.9177379  20.9479552  12.4606380  89.2137441  19.7007681  12.9513489
  96.8913329  13.5365280  24.0994185  97.7604488  13.7105932  23.7380820
  96.4120080  14.3559697  23.9769914  91.0599509  20.6562381  15.7783618
  91.9626756  20.6885991  16.0950113  90.8336879  19.7262832  15.7929954
  92.8153111  19.4093367  12.4393697  91.8648742  19.4095229  12.3258069
  93.1185597  18.6626102  11.9229732  88.7057427   3.6152050  22.6977058
  89.5688889   3.2588854  22.9080383  88.1322838   3.2765944  23.3852463
 108.5505804  25.2453906  13.5039459 109.1884214  25.1260653  12.8002799
 108.4326647  26.1934750  13.5627412 105.3595511  25.1981334  13.4400984
 105.0214022  25.0822399  12.5521519 106.2285279  24.7972499  13.4201990
 101.2182326  27.0516810   9.4297875 100.6547191  26.9606747   8.6614163
 101.1034721  26.2316715   9.9100368 105.8415294  26.3516186  19.3987190
 105.8303934  25.9568984  18.5267693 106.0035933  25.6182258  19.9920961
  98.7646758  28.5468002  12.2682096  99.5568050  28.2058827  11.8528395
  99.0043408  28.6562977  13.1884249 106.7981885  30.7187778   4.7412340
 106.1469865  31.3041859   4.3546354 107.5926248  31.2493973   4.8007377
 100.7237512  27.8076915   5.1399474 101.4968388  27.2605902   5.0012350
 101.0762911  28.6721165   5.3513936 102.5622555  29.1353298  18.3466374
 102.2712421  30.0398928  18.2313040 103.1979539  29.1769825  19.0610443
 103.4878762  26.5130146  14.9367733 104.0842334  26.2886168  14.2224696
 103.5453733  25.7714892  15.5393181 108.1047073  22.9705360  10.5792667
 108.8910162  22.5524783  10.2283084 108.3685777  23.8751452  10.7474316
 108.2757150  28.4078210   5.2781324 107.6402983  28.4812837   5.9902229
 107.9454557  28.9971809   4.6000404 102.7800079  25.8697687   4.9742299
 102.6636337  25.1942591   5.6423383 102.8902339  25.3830061   4.1574452
 105.1231620  25.3307834   8.6788988 104.7589827  24.8038455   9.3901910
 105.9798736  24.9406303   8.5055474 111.0280920  16.6202167  15.9420255
 110.6964245  17.4897578  15.7181470 110.4326534  16.3038451  16.6214285
 107.5212440  28.8214713  15.3416167 107.2213163  29.7239752  15.2331975
 107.1763499  28.5546896  16.1937320 100.9724921  25.2728510  11.3752872
 100.0475418  25.1404724  11.5830563 101.2209335  26.0522729  11.8722814
 110.9209584  21.3397253  13.0213605 110.0126461  21.2712662  12.7272366
 110.8697179  21.8169198  13.8495430  98.3333732  24.9161783  12.2096661
  98.4626114  25.1696262  13.1236073  97.6531184  25.5089491  11.8901316
 102.5033220  35.5859033   8.3087135 102.4257249  36.5366858   8.3875616
 101.8994863  35.2404906   8.9662061 104.9950449  22.7586899  20.9648502
 104.2183783  23.3180819  20.9551367 105.6341012  23.2443682  21.4863372
 112.7871230  19.5413692  14.7991479 112.1445610  19.8346225  14.1531273
 112.2826159  19.4266612  15.6044675 103.2496822  25.5672352  20.5266469
 103.9911506  26.1057396  20.2501293 102.5433807  26.1938641  20.6838021
 108.7252161  27.7101493  19.1238630 109.1335517  27.2683903  18.3793263
 108.0029423  27.1354120  19.3772823 105.0783231  22.6474099  16.4972187
 105.9244427  23.0713513  16.6406836 105.0181869  21.9907724  17.1910750
 109.0480976  28.2702683  12.8790919 108.4189838  28.4348397  12.1766987
 108.6606638  28.6844293  13.6501883 112.9270208  29.2057121  10.2335283
 112.2421246  29.5856022   9.6832316 113.0114057  29.8152448  10.9667231
 108.2282677  20.3078468  18.1553361 107.9843609  21.0620528  17.6187637
 108.5042607  20.6863815  18.9900608 110.1821140  26.8517080  16.8330627
 110.3938035  27.4948840  16.1565008 110.1350888  26.0179397  16.3652557
 107.7847368  19.4634901  13.7367199 106.9231847  19.7616154  14.0283936
 107.8109803  19.6805300  12.8048231 104.6008938  28.0077091  10.1441004
 105.0647283  28.2864794   9.3545627 104.3365736  27.1060536   9.9614095
 101.4933019  27.5548573  13.0820768 102.0634376  27.9835841  12.4438252
 102.0841131  27.2731158  13.7804953 103.5377824  24.1300244   6.9530569
 104.2401867  24.5821287   7.4204496 103.2058452  23.4884063   7.5810463
 101.9858185  22.7212000  21.3281779 101.3556846  23.4028281  21.5617176
 101.8794273  22.6095082  20.3834917  97.2803158  22.3883796  12.2547703
  96.4902212  22.6441325  11.7787814  97.7714405  23.2032134  12.3599744
 111.2966967  29.7289036  15.0052984 112.1184411  29.3269223  14.7235666
 111.2929370  29.6257270  15.9569100  99.2317903  22.7528376   9.2131180
  98.4349067  22.8647070   9.7314675  99.0043495  23.0915028   8.3472070
 105.0623571  29.2773079  17.1613694 105.1268003  29.7393486  17.9971866
 104.3534495  28.6470444  17.2896004  95.5640861  22.6414287  14.6862694
  95.8148899  23.5261297  14.9520270  96.1000409  22.4618888  13.9137786
 104.7771589  30.9441186   7.0292675 104.6417263  31.7892722   7.4577523
 105.3181401  31.1460464   6.2658609 101.2638928  17.0232766  23.6907030
 100.8705874  16.4698965  24.3654674 102.0805069  17.3343345  24.0813547
  98.2300986  28.4616624   7.6020600  98.7425507  29.2559875   7.7526164
  98.8823699  27.7642915   7.5354201 100.0395871  31.5782381   9.6843353
 100.2162499  32.5000345   9.4964337 100.8352704  31.2640800  10.1137733
 104.1806889  18.4390645  21.2827286 104.9216603  19.0397798  21.2031749
 104.4124812  17.6968283  20.7245329  99.3248227  23.6247013  19.5605516
  99.2101742  22.7232270  19.8612615  98.4692745  23.8710709  19.2090333
 106.4040065  31.5664753  21.1593017 105.9603919  30.7801131  20.8413921
 107.0657279  31.7543903  20.4936908 101.1627186  33.0960554  15.6853695
 101.7134611  32.9677618  14.9130689 100.3238662  33.3955443  15.3348588
 108.5021303  31.8467553  19.1874418 108.4839778  32.6676434  18.6954687
 109.4241223  31.7221628  19.4124559 104.9594357  29.3611682  20.0297926
 105.4922694  28.5999970  19.7997234 104.4308438  29.0685334  20.7722081
 108.1264052  14.4671748  15.5591568 107.7828322  15.3573390  15.4830679
 108.4943015  14.2773406  14.6961153  96.1949903  26.7905279   8.3780170
  97.0325125  27.2002287   8.1613878  96.3728170  25.8504721   8.3480364
 105.6761446  19.3030060   9.1249242 104.8203042  18.9136910   8.9454880
 106.0888398  19.3822021   8.2649027 107.2060593  16.8376403  13.5240801
 106.7025388  16.8006539  12.7108607 107.4991199  17.7469146  13.5837458
 103.4503478  16.9215133  12.5306983 104.3156475  16.7257942  12.1712873
 103.5180987  16.6925485  13.4576340 106.3247070  28.4897675   7.5416738
 105.7968431  27.7550434   7.2289976 105.8234573  29.2672351   7.2956707
 111.3039916  26.6846695  12.6583785 110.6463590  27.3745957  12.7463913
 112.1080315  27.0743127  13.0017771 101.0565797  19.1517341   9.9023350
 101.6309549  18.9292523   9.1696543 101.6436780  19.2206036  10.6551951
 110.1145375  25.0391068  10.7087726 110.6277256  25.6721060  11.2109436
 110.7646599  24.4392263  10.3431087 107.3767749  35.0175392   3.4648398
 106.7029448  35.3207089   4.0733355 107.7633571  35.8204473   3.1153855
 106.5926206  22.5140523  12.9546067 105.6748767  22.7355470  12.7967755
 107.0086349  22.5886834  12.0957774 107.3761253  23.9131939   8.0848747
 108.1233072  24.4253336   7.7755869 107.6452843  23.5915992   8.9453141
 105.6487903  26.4090480   5.0675702 104.7399123  26.1249513   5.1648171
 105.6782987  26.8289558   4.2079008 110.8807171  30.0197069   8.8366869
 110.4269498  29.1787979   8.8932060 110.2501138  30.6558468   9.1741649
 109.3240110  31.8573566   9.7716687 109.6163085  32.4178623   9.0529053
 109.8338731  32.1502127  10.5269846  96.2176074  24.1295994   9.0490904
  96.0200474  23.5365355   8.3241970  95.6622738  23.8248204   9.7666843
 104.1972798  24.0219100  11.1685497 104.2521407  23.0692937  11.0927974
 103.3864000  24.1778540  11.6526795 102.1365157  22.6396160   8.9275876
 101.3233023  22.9390331   9.3341068 102.6324152  22.2451849   9.6450358
 104.2873735  32.6353917  10.8610140 104.2449914  32.8614763   9.9318673
 105.2036434  32.4017292  11.0095942 107.7339369  23.1037985  17.7590770
 108.0888757  23.3309458  18.6185235 108.3811500  23.4356361  17.1368025
 101.6279232  20.2114516  14.5437111 102.2678612  20.0703275  13.8460074
 100.7956763  19.9249029  14.1675713 113.4906486  28.2932948  13.4751370
 113.9242992  28.2008237  14.3234424 114.2038066  28.2690448  12.8371386
 102.4039536  29.5116946  10.6572103 103.1980135  29.0167266  10.4554678
 101.6931228  28.9834809  10.2939809 107.2234381  31.8935042  15.0084471
 107.2771403  32.4625978  15.7762187 106.3549162  32.0636927  14.6438508
  98.6307849  20.1814841   9.3210098  98.8914666  21.0960174   9.2119258
  99.4525021  19.7139283   9.4706710 100.1032774  21.5952598  16.4908922
 100.7755827  21.3869960  15.8421571  99.2762560  21.3974684  16.0514154
 114.3522035  28.3356648  16.0084256 114.5457925  29.2402459  16.2543531
 114.2522653  27.8764067  16.8422841 106.0058346  18.2214539  18.5074583
 105.3586261  18.9204488  18.4139059 106.7759361  18.6550683  18.8750831
 109.4137144  28.4863391  21.5825136 109.2622650  28.2573943  20.6655220
 109.4041823  29.4433992  21.5956481 106.1822480  26.0595304  16.5671403
 107.1114540  26.2106463  16.3940370 105.7613510  26.1479325  15.7120049
 104.9810812  30.0845968  14.3369940 104.8421898  29.7164753  15.2095878
 104.1925408  30.5993608  14.1653898 105.5758964  35.1855065   5.6795477
 105.7510720  34.7143108   6.4941100 104.8891752  35.8120831   5.9076738
 106.5316027  29.4627571  11.7258778 106.1965860  29.4228341  12.6216428
 106.0319973  28.7972287  11.2529188 100.5060271  24.8695201  17.2511359
 100.3680069  24.1375440  17.8522898 101.4165195  24.7804101  16.9695547
 103.1342572  24.5815160  16.7395039 103.8442190  23.9408352  16.6981657
 103.0911880  24.8328055  17.6621220 111.1229351  31.5182514  19.6601618
 111.0641897  30.8341734  18.9932201 111.5248869  32.2601504  19.2082244
 101.8471506  21.5680378  18.5590678 101.3108863  21.1171117  19.2112275
 101.2588214  21.7026287  17.8161143 100.1420049  38.3344427  12.4535337
 100.3816648  38.9662952  13.1314356  99.2989246  37.9832467  12.7400696
 111.1246758  29.4822097  17.8915598 110.2373537  29.1448019  18.0141997
 111.6945309  28.7505129  18.1284363  92.7775905  25.8146189  11.2158649
  93.4646945  25.5007919  10.6279664  92.6224034  26.7187554  10.9425901
  97.5810627  20.7036386  15.6443673  97.4968816  20.0962055  14.9094083
  96.7593333  21.1945404  15.6453169 104.6547911  34.1423550  14.8576841
 104.5818083  34.9478521  15.3696146 104.2125304  34.3415516  14.0324862
 104.4437691  33.3795320   8.3679663 103.6605213  33.9217000   8.4617887
 105.1430436  33.8969299   8.7673904 107.7534341  19.1889949  11.0113868
 108.2503040  18.4359912  10.6914938 106.9821322  19.2254266  10.4457077
 115.6064098  24.8930315  12.6532159 115.5953975  25.7755030  12.2826093
 114.7381478  24.5401866  12.4586696 107.1146595  34.0410384  17.0135000
 107.8274567  34.6757849  16.9410901 106.6236623  34.1374250  16.1975001
 108.8364122  27.9461637   8.5852291 107.9020400  28.0663099   8.4156996
 109.0140790  27.0434103   8.3212301 104.3369310  21.3307332  10.7385553
 103.9667097  20.7778373  11.4266458 104.8328402  20.7265466  10.1860553
 102.1658508  31.7904827  17.8340570 102.8667968  32.4241310  17.9869965
 101.6953623  32.1319559  17.0736210 110.2912904  30.1322777   6.1188477
 110.5672748  30.0179372   7.0282352 109.4217403  29.7340262   6.0800651
 110.1953336  16.1559543  13.1593227 109.2816416  16.3863770  13.3275434
 110.6246437  16.2397987  14.0107259 109.9659794  24.3449435  15.6593121
 109.3131244  24.5925342  15.0045574 110.3440174  23.5313573  15.3255598
 106.9266968  34.3809128   9.7621291 107.1089363  33.5630784  10.2249043
 107.7499954  34.5976820   9.3246181 107.2609134  33.3077313   7.0236340
 107.7896900  32.7969768   6.4106502 107.5237353  32.9919843   7.8881873
 106.0147367  25.0869246  22.1459158 105.3388004  24.9863375  22.8161533
 106.8375001  24.9308460  22.6095155  97.7626226  31.3241182  14.7671673
  98.3479663  30.5784870  14.8999577  97.5651065  31.6345139  15.6508337
 100.6164882  34.3592430   9.7834116  99.9475257  34.8438557   9.2998156
 100.4777751  34.6061650  10.6977494  92.3543881  23.8946783  13.4876116
  92.3927981  23.3610373  14.2813234  91.8484174  23.3681988  12.8687093
 104.7570150  36.3936173  16.3816774 105.3088458  36.5567795  17.1465859
 105.0976344  36.9840611  15.7096799  99.7334643  18.7411323  16.9838659
  99.7975970  19.6026154  16.5716056  99.6701764  18.1285325  16.2511017
  99.2086916  20.8134456  20.6311693  99.8358955  20.4311533  21.2449217
  98.3514835  20.5948658  20.9967385 109.6081024  31.2197431  22.2365428
 110.1520928  31.8327389  21.7420383 109.0267869  31.7777009  22.7532441
 107.8938537  34.3418149  13.3680456 107.7689677  33.5407889  12.8591402
 108.5517629  34.8364342  12.8794426  99.5146706  20.6966881  12.5457596
  98.7933291  21.3102849  12.4065070 100.3039961  21.2324646  12.4674242
 109.9573446  32.1427169  14.9960006 109.0103781  32.0232520  14.9238333
 110.3056219  31.2549667  15.0786268 102.3173019  18.0321308  18.8198248
 102.8407421  18.2783604  19.5824557 102.0985352  18.8641343  18.4001385
 106.9619879  31.9379885  11.1964358 106.8144842  31.0096593  11.3771928
 107.7873373  31.9599976  10.7121434 110.5654001  32.7608444  12.2829231
 111.4900548  32.5551305  12.1453682 110.3969304  32.5124845  13.1918573
 103.5225564  18.9735003  16.5047919 103.1822385  18.1742816  16.9068598
 102.8164570  19.2736714  15.9324752 104.1742036  16.0584315  14.9575242
 104.9968105  15.5844794  14.8354132 104.4180100  16.8374799  15.4573928
 101.6980615  22.7503436  12.7667220 101.5525196  23.0643739  13.6591502
 101.2205818  23.3688336  12.2138119 103.5576998  19.7405984  12.8148110
 103.5438566  18.8447077  12.4780408 104.2749426  19.7476648  13.4486396
 105.4103128  20.1743324  14.8601237 105.1520906  21.0960395  14.8585568
 104.8788169  19.7773759  15.5501701 110.3549317  33.2794111   7.6391323
 110.5286195  32.7140534   6.8865175 110.8478208  34.0795006   7.4570813
  96.1726277  25.2908780  15.7054881  95.6279745  26.0668588  15.8375156
  97.0505627  25.6379585  15.5474003 105.8305084  16.3075275  11.2202400
 105.8526781  16.3714608  10.2654379 106.2473143  15.4679783  11.4142906
  96.9592299  24.4178677  18.5985038  96.2174035  24.5661312  19.1849669
  96.6385043  24.6786942  17.7351788 104.9035961  33.9594655  18.3965428
 105.2123088  33.7143802  19.2688128 105.7011443  34.1641293  17.9084298
 104.9256574  36.1132564  10.6270805 104.4861564  35.6208943  11.3203662
 105.6764690  35.5705532  10.3862880  97.4048912  32.3044105  10.6295433
  98.2306932  32.0047877  10.2494076  97.0542964  31.5351728  11.0785222
 102.3730446  31.6570574  12.6993106 101.7510455  30.9941279  12.3995334
 103.0435313  31.6831705  12.0166754  95.6057518  30.2230432  11.5884366
  94.7689426  29.7952606  11.4068368  95.5781163  30.4162875  12.5255158
 102.4454973  20.1352362  22.2925613 102.4943129  21.0114484  21.9103382
 102.9877487  19.5929755  21.7197256 112.9309819  30.6793485  21.5726750
 112.1405363  30.6617624  21.0331249 112.6943173  31.2181779  22.3275786
 113.0507694  27.5285951  18.8859478 113.1005699  27.3635959  19.8275001
 112.9421617  26.6613210  18.4957359 101.9343953  30.2074497   6.1751567
 102.0832073  30.8909961   5.5218240 102.7410396  30.1879587   6.6901023
 110.3411456  23.5116879  20.2018785 111.2421319  23.3723344  19.9102783
 110.4159431  23.6771334  21.1416962 104.6754262  20.8883734  19.0471971
 103.8057571  21.1817300  18.7754560 104.9113742  21.4724179  19.7679235
 114.5525891  29.9482893  19.1301500 114.2610699  30.3112873  19.9664961
 113.9398022  29.2349901  18.9514832 112.8013079  25.0715507  17.5981558
 113.2767201  25.2643154  16.7900409 111.8778644  25.1274693  17.3524941
  99.6896586  26.2339675   7.1812636  99.4442627  25.3302005   7.3792846
  99.8592500  26.2356825   6.2392114 107.3793295  17.1063351  16.5637392
 107.8975239  17.8424378  16.2383880 107.0248428  17.4127344  17.3984151
 105.4339358  32.7022627   3.6463314 104.8613325  33.3212814   3.1933786
 106.0072152  33.2521989   4.1803236 111.5014748  21.9481267  15.8309863
 112.4532171  22.0479365  15.8522087 111.3318198  21.1559536  16.3407948
 109.5229127  19.0336851  16.0169264 108.9279060  19.3141863  15.3215753
 109.2378824  19.5230752  16.7886005 108.6536618  32.9859777   4.7771897
 109.5867291  32.9205339   4.9804772 108.5659831  33.8216044   4.3186429
 113.9802826  25.1687387  14.9452163 113.9479146  24.2303388  15.1311847
 114.5903449  25.2471424  14.2117988 114.1297314  21.9598431  14.9910446
 113.6136363  21.1756887  14.8040375 115.0137263  21.6317147  15.1556966
 117.8794673  24.3711257  14.6832651 117.1527836  24.2367222  14.0749142
 117.4641960  24.6788085  15.4889369 105.7024849  28.0901186  22.4480024
 106.6227859  28.2679785  22.6420070 105.6674432  27.1457232  22.2959723
  94.9207014  23.2839780  11.3733299  94.6009798  22.4305088  11.0807673
  94.3740442  23.4988358  12.1291266  98.6986922  26.0002221  15.0902805
  98.9172931  26.9319329  15.1090839  99.1112696  25.6410195  15.8757609
 103.5714787  21.5735427  24.4805554 103.4711514  22.5229784  24.4117645
 103.3536329  21.2453666  23.6081624  94.7895274  26.9042691  13.3426420
  94.0958746  26.4896644  12.8296375  95.5368265  26.9463228  12.7459839
 103.4346057  25.0032566  23.2970616 102.9513139  25.8032926  23.5034505
 103.5206996  25.0140510  22.3438060  96.7032017  26.8360945  11.2192435
  96.6802705  26.9348632  10.2674318  97.0132653  27.6826096  11.5409601
  99.3619395  28.8937100  15.3339049 100.3162648  28.8621043  15.2668981
  99.1631918  28.4327724  16.1489275  99.9518777  27.4638216  17.9009847
 100.7711666  27.9582295  17.9244684 100.2255584  26.5470184  17.8727415
  97.7169623  34.4356720  12.3509247  97.5824091  33.6757121  11.7847245
  97.3001686  35.1597620  11.8838036 100.8738749  35.3326037  12.5627690
 100.7571133  36.2771469  12.4606380 100.0531195  35.0299598  12.9513489
  95.2053691  21.7976350  18.6002044  95.8512555  21.2875304  19.0889269
  94.9970842  22.5345032  19.1745469 107.7307083  28.8657198  24.0994185
 108.5998243  29.0397850  23.7380820 107.2513835  29.6851614  23.9769914
 101.8993263  35.9854299  15.7783618 102.8020510  36.0177909  16.0950113
 101.6730633  35.0554750  15.7929954 103.6546865  34.7385285  12.4393697
 102.7042496  34.7387147  12.3258069 103.9579351  33.9918020  11.9229732
  99.5451182  18.9443967  22.6977058 100.4082643  18.5880772  22.9080383
  98.9716593  18.6057862  23.3852463 119.3899559  40.5745824  13.5039459
 120.0277969  40.4552571  12.8002799 119.2720402  41.5226668  13.5627412
 116.1989265  40.5273252  13.4400984 115.8607777  40.4114316  12.5521519
 117.0679033  40.1264417  13.4201990 112.0576081  42.3808728   9.4297875
 111.4940946  42.2898665   8.6614163 111.9428476  41.5608633   9.9100368
 116.6809048  41.6808103  19.3987190 116.6697689  41.2860902  18.5267693
 116.8429688  40.9474176  19.9920961 109.6040513  43.8759920  12.2682096
 110.3961805  43.5350744  11.8528395 109.8437163  43.9854895  13.1884249
 117.6375640  46.0479696   4.7412340 116.9863619  46.6333776   4.3546354
 118.4320002  46.5785891   4.8007377 111.5631267  43.1368833   5.1399474
 112.3362143  42.5897820   5.0012350 111.9156666  44.0013082   5.3513936
 113.4016309  44.4645215  18.3466374 113.1106175  45.3690846  18.2313040
 114.0373294  44.5061743  19.0610443 114.3272516  41.8422064  14.9367733
 114.9236088  41.6178086  14.2224696 114.3847488  41.1006809  15.5393181
 118.9440827  38.2997277  10.5792667 119.7303917  37.8816701  10.2283084
 119.2079532  39.2043370  10.7474316 119.1150905  43.7370128   5.2781324
 118.4796738  43.8104754   5.9902229 118.7848311  44.3263727   4.6000404
 113.6193833  41.1989605   4.9742299 113.5030091  40.5234508   5.6423383
 113.7296093  40.7121979   4.1574452 115.9625374  40.6599752   8.6788988
 115.5983581  40.1330373   9.3901910 116.8192490  40.2698221   8.5055474
 121.8674675  31.9494085  15.9420255 121.5358000  32.8189496  15.7181470
 121.2720288  31.6330369  16.6214285 118.3606194  44.1506631  15.3416167
 118.0606917  45.0531670  15.2331975 118.0157254  43.8838814  16.1937320
 111.8118676  40.6020428  11.3752872 110.8869172  40.4696642  11.5830563
 112.0603089  41.3814647  11.8722814 121.7603338  36.6689171  13.0213605
 120.8520215  36.6004579  12.7272366 121.7090934  37.1461116  13.8495430
 109.1727487  40.2453701  12.2096661 109.3019868  40.4988180  13.1236073
 108.4924938  40.8381409  11.8901316 113.3426974  50.9150951   8.3087135
 113.2651004  51.8658776   8.3875616 112.7388618  50.5696824   8.9662061
 115.8344204  38.0878816  20.9648502 115.0577538  38.6472737  20.9551367
 116.4734767  38.5735599  21.4863372 123.6264985  34.8705609  14.7991479
 122.9839365  35.1638142  14.1531273 123.1219913  34.7558530  15.6044675
 114.0890576  40.8964270  20.5266469 114.8305261  41.4349314  20.2501293
 113.3827562  41.5230559  20.6838021 119.5645916  43.0393410  19.1238630
 119.9729272  42.5975821  18.3793263 118.8423177  42.4646038  19.3772823
 115.9176986  37.9766017  16.4972187 116.7638181  38.4005431  16.6406836
 115.8575624  37.3199641  17.1910750 119.8874730  43.5994601  12.8790919
 119.2583593  43.7640315  12.1766987 119.5000393  44.0136210  13.6501883
 123.7663962  44.5349039  10.2335283 123.0815001  44.9147940   9.6832316
 123.8507812  45.1444365  10.9667231 119.0676431  35.6370385  18.1553361
 118.8237363  36.3912446  17.6187637 119.3436362  36.0155733  18.9900608
 121.0214894  42.1808998  16.8330627 121.2331789  42.8240758  16.1565008
 120.9744642  41.3471314  16.3652557 118.6241123  34.7926818  13.7367199
 117.7625602  35.0908072  14.0283936 118.6503558  35.0097217  12.8048231
 115.4402692  43.3369009  10.1441004 115.9041038  43.6156712   9.3545627
 115.1759490  42.4352454   9.9614095 112.3326773  42.8840491  13.0820768
 112.9028130  43.3127759  12.4438252 112.9234885  42.6023075  13.7804953
 114.3771578  39.4592161   6.9530569 115.0795622  39.9113205   7.4204496
 114.0452207  38.8175980   7.5810463 112.8251940  38.0503918  21.3281779
 112.1950601  38.7320199  21.5617176 112.7188028  37.9387000  20.3834917
 108.1196912  37.7175714  12.2547703 107.3295966  37.9733243  11.7787814
 108.6108160  38.5324052  12.3599744 122.1360722  45.0580953  15.0052984
 122.9578166  44.6561140  14.7235666 122.1323125  44.9549187  15.9569100
 110.0711658  38.0820293   9.2131180 109.2742821  38.1938988   9.7314675
 109.8437250  38.4206946   8.3472070 115.9017325  44.6064997  17.1613694
 115.9661758  45.0685404  17.9971866 115.1928249  43.9762361  17.2896004
 106.4034615  37.9706204  14.6862694 106.6542654  38.8553214  14.9520270
 106.9394164  37.7910806  13.9137786 115.6165343  46.2733104   7.0292675
 115.4811018  47.1184640   7.4577523 116.1575156  46.4752382   6.2658609
 112.1032683  32.3524684  23.6907030 111.7099628  31.7990882  24.3654674
 112.9198823  32.6635262  24.0813547 109.0694740  43.7908542   7.6020600
 109.5819261  44.5851792   7.7526164 109.7217453  43.0934832   7.5354201
 110.8789625  46.9074298   9.6843353 111.0556253  47.8292263   9.4964337
 111.6746459  46.5932718  10.1137733 115.0200644  33.7682563  21.2827286
 115.7610357  34.3689716  21.2031749 115.2518566  33.0260201  20.7245329
 110.1641982  38.9538930  19.5605516 110.0495497  38.0524187  19.8612615
 109.3086499  39.2002627  19.2090333 117.2433819  46.8956671  21.1593017
 116.7997674  46.1093049  20.8413921 117.9051033  47.0835821  20.4936908
 112.0020941  48.4252472  15.6853695 112.5528366  48.2969535  14.9130689
 111.1632417  48.7247361  15.3348588 119.3415057  47.1759470  19.1874418
 119.3233533  47.9968351  18.6954687 120.2634978  47.0513546  19.4124559
 115.7988112  44.6903600  20.0297926 116.3316448  43.9291888  19.7997234
 115.2702193  44.3977252  20.7722081 118.9657807  29.7963666  15.5591568
 118.6222076  30.6865308  15.4830679 119.3336769  29.6065324  14.6961153
 107.0343657  42.1197196   8.3780170 107.8718879  42.5294205   8.1613878
 107.2121925  41.1796639   8.3480364 116.5155200  34.6321978   9.1249242
 115.6596797  34.2428828   8.9454880 116.9282152  34.7113939   8.2649027
 118.0454347  32.1668321  13.5240801 117.5419143  32.1298456  12.7108607
 118.3384954  33.0761064  13.5837458 114.2897233  32.2507051  12.5306983
 115.1550230  32.0549859  12.1712873 114.3574742  32.0217403  13.4576340
 117.1640824  43.8189592   7.5416738 116.6362186  43.0842352   7.2289976
 116.6628327  44.5964269   7.2956707 122.1433670  42.0138613  12.6583785
 121.4857345  42.7037874  12.7463913 122.9474070  42.4035045  13.0017771
 111.8959552  34.4809259   9.9023350 112.4703304  34.2584440   9.1696543
 112.4830534  34.5497953  10.6551951 120.9539129  40.3682986  10.7087726
 121.4671011  41.0012977  11.2109436 121.6040353  39.7684181  10.3431087
 112.2229139  36.5113720   3.9219235 111.3866451  36.8488406   4.2428510
 112.0833909  36.3762700   2.9846372 114.1982220  31.3550508   8.6298419
 113.5446632  31.0399525   8.0055034 114.1562694  30.7326248   9.3558242
 118.2161503  50.3467310   3.4648398 117.5423202  50.6499007   4.0733355
 118.6027325  51.1496390   3.1153855 117.4319960  37.8432441  12.9546067
 116.5142521  38.0647388  12.7967755 117.8480104  37.9178752  12.0957774
 118.2155008  39.2423857   8.0848747 118.9626827  39.7545254   7.7755869
 118.4846597  38.9207910   8.9453141 116.4881658  41.7382398   5.0675702
 115.5792877  41.4541430   5.1648171 116.5176742  42.1581476   4.2079008
 121.7200925  45.3488987   8.8366869 121.2663252  44.5079897   8.8932060
 121.0894892  45.9850385   9.1741649 120.1633865  47.1865484   9.7716687
 120.4556839  47.7470541   9.0529053 120.6732485  47.4794045  10.5269846
 107.0569828  39.4587912   9.0490904 106.8594228  38.8657272   8.3241970
 106.5016492  39.1540122   9.7666843 115.0366552  39.3511018  11.1685497
 115.0915162  38.3984855  11.0927974 114.2257754  39.5070457  11.6526795
 112.9758912  37.9688078   8.9275876 112.1626777  38.2682248   9.3341068
 113.4717906  37.5743767   9.6450358 115.1267490  47.9645835  10.8610140
 115.0843669  48.1906681   9.9318673 116.0430189  47.7309209  11.0095942
 118.5733124  38.4329902  17.7590770 118.9282511  38.6601375  18.6185235
 119.2205255  38.7648279  17.1368025 112.4672987  35.5406433  14.5437111
 113.1072366  35.3995193  13.8460074 111.6350517  35.2540947  14.1675713
 124.3300240  43.6224865  13.4751370 124.7636747  43.5300154  14.3234424
 125.0431821  43.5982366  12.8371386 113.2433291  44.8408864  10.6572103
 114.0373889  44.3459184  10.4554678 112.5324983  44.3126727  10.2939809
 118.0628135  47.2226959  15.0084471 118.1165157  47.7917896  15.7762187
 117.1942916  47.3928844  14.6438508 109.5516054  38.9851946   6.7331856
 108.6213642  38.9236401   6.9501818 109.6473526  38.4627898   5.9368497
 109.4701603  35.5106758   9.3210098 109.7308420  36.4252092   9.2119258
 110.2918775  35.0431201   9.4706710 110.9426528  36.9244516  16.4908922
 111.6149582  36.7161878  15.8421571 110.1156315  36.7266602  16.0514154
 125.1915790  43.6648566  16.0084256 125.3851680  44.5694376  16.2543531
 125.0916408  43.2055985  16.8422841 116.8452100  33.5506456  18.5074583
 116.1980015  34.2496406  18.4139059 117.6153116  33.9842600  18.8750831
 120.2530898  43.8155309  21.5825136 120.1016405  43.5865860  20.6655220
 120.2435578  44.7725910  21.5956481 117.0216235  41.3887221  16.5671403
 117.9508295  41.5398381  16.3940370 116.6007265  41.4771242  15.7120049
 115.8204567  45.4137886  14.3369940 115.6815652  45.0456670  15.2095878
 115.0319163  45.9285525  14.1653898 116.4152719  50.5146982   5.6795477
 116.5904474  50.0435025   6.4941100 115.7285507  51.1412748   5.9076738
 117.3709782  44.7919489  11.7258778 117.0359614  44.7520258  12.6216428
 116.8713727  44.1264204  11.2529188 111.3454026  40.1987119  17.2511359
 111.2073824  39.4667357  17.8522898 112.2558949  40.1096019  16.9695547
 113.9736326  39.9107078  16.7395039 114.6835945  39.2700270  16.6981657
 113.9305635  40.1619973  17.6621220 121.9623105  46.8474431  19.6601618
 121.9035651  46.1633651  18.9932201 122.3642623  47.5893421  19.2082244
 112.6865260  36.8972296  18.5590678 112.1502617  36.4463034  19.2112275
 112.0981969  37.0318205  17.8161143 110.9813804  53.6636345  12.4535337
 111.2210402  54.2954869  13.1314356 110.1383000  53.3124385  12.7400696
 121.9640512  44.8114015  17.8915598 121.0767291  44.4739937  18.0141997
 122.5339063  44.0797046  18.1284363 103.6169659  41.1438107  11.2158649
 104.3040699  40.8299837  10.6279664 103.4617788  42.0479472  10.9425901
 108.4204382  36.0328303  15.6443673 108.3362570  35.4253973  14.9094083
 107.5987088  36.5237322  15.6453169 115.4941666  49.4715467  14.8576841
 115.4211837  50.2770439  15.3696146 115.0519059  49.6707433  14.0324862
 115.2831445  48.7087238   8.3679663 114.4998967  49.2508918   8.4617887
 115.9824191  49.2261217   8.7673904 118.5928095  34.5181867  11.0113868
 119.0896795  33.7651829  10.6914938 117.8215077  34.5546184  10.4457077
 126.4457853  40.2222233  12.6532159 126.4347729  41.1046948  12.2826093
 125.5775232  39.8693783  12.4586696 117.9540349  49.3702302  17.0135000
 118.6668321  50.0049766  16.9410901 117.4630378  49.4666168  16.1975001
 119.6757876  43.2753554   8.5852291 118.7414155  43.3955017   8.4156996
 119.8534545  42.3726021   8.3212301 115.1763064  36.6599250  10.7385553
 114.8060852  36.1070290  11.4266458 115.6722157  36.0557383  10.1860553
 113.0052263  47.1196745  17.8340570 113.7061722  47.7533228  17.9869965
 112.5347378  47.4611477  17.0736210 121.1306659  45.4614695   6.1188477
 121.4066502  45.3471289   7.0282352 120.2611157  45.0632180   6.0800651
 121.0347090  31.4851460  13.1593227 120.1210170  31.7155687  13.3275434
 121.4640192  31.5689905  14.0107259 120.8053549  39.6741352  15.6593121
 120.1524999  39.9217260  15.0045574 121.1833929  38.8605491  15.3255598
 117.7660723  49.7101046   9.7621291 117.9483117  48.8922702  10.2249043
 118.5893709  49.9268738   9.3246181 118.1002888  48.6369231   7.0236340
 118.6290655  48.1261685   6.4106502 118.3631108  48.3211761   7.8881873
 116.8541122  40.4161163  22.1459158 116.1781759  40.3155293  22.8161533
 117.6768756  40.2600377  22.6095155 108.6019981  46.6533100  14.7671673
 109.1873418  45.9076788  14.8999577 108.4044819  46.9637057  15.6508337
 111.4558636  49.6884347   9.7834116 110.7869011  50.1730475   9.2998156
 111.3171506  49.9353568  10.6977494 103.1937636  39.2238700  13.4876116
 103.2321735  38.6902291  14.2813234 102.6877928  38.6973906  12.8687093
 115.5963905  51.7228091  16.3816774 116.1482213  51.8859712  17.1465859
 115.9370098  52.3132529  15.7096799 110.5728398  34.0703241  16.9838659
 110.6369724  34.9318072  16.5716056 110.5095518  33.4577242  16.2511017
 110.0480670  36.1426373  20.6311693 110.6752709  35.7603451  21.2449217
 109.1908589  35.9240575  20.9967385 120.4474779  46.5489348  22.2365428
 120.9914683  47.1619307  21.7420383 119.8661624  47.1068927  22.7532441
 106.8246213  37.9502802   6.5630048 107.1199654  37.0413481   6.5097101
 105.9234249  37.9290542   6.2411050 118.7332292  49.6710066  13.3680456
 118.6083431  48.8699806  12.8591402 119.3911383  50.1656260  12.8794426
 110.3540460  36.0258799  12.5457596 109.6327046  36.6394767  12.4065070
 111.1433716  36.5616564  12.4674242 120.7967200  47.4719087  14.9960006
 119.8497536  47.3524438  14.9238333 121.1449973  46.5841585  15.0786268
 113.1566774  33.3613225  18.8198248 113.6801175  33.6075522  19.5824557
 112.9379107  34.1933260  18.4001385 108.5534055  35.6316900   6.6869373
 108.2246761  34.7514279   6.5044479 108.9073425  35.5764569   7.5745762
 117.8013634  47.2671803  11.1964358 117.6538596  46.3388510  11.3771928
 118.6267127  47.2891893  10.7121434 111.6675878  35.9189870   7.0544851
 112.0071950  36.4475791   6.3323459 112.1147998  36.2570276   7.8303417
 121.4047755  48.0900361  12.2829231 122.3294303  47.8843223  12.1453682
 121.2363059  47.8416763  13.1918573 114.3619319  34.3026921  16.5047919
 114.0216139  33.5034734  16.9068598 113.6558325  34.6028631  15.9324752
 115.0135791  31.3876233  14.9575242 115.8361860  30.9136711  14.8354132
 115.2573854  32.1666717  15.4573928 112.5374369  38.0795354  12.7667220
 112.3918950  38.3935657  13.6591502 112.0599573  38.6980254  12.2138119
 114.3970752  35.0697902  12.8148110 114.3832321  34.1738995  12.4780408
 115.1143180  35.0768565  13.4486396 116.2496883  35.5035242  14.8601237
 115.9914661  36.4252312  14.8585568 115.7181923  35.1065676  15.5501701
 121.1943072  48.6086029   7.6391323 121.3679949  48.0432451   6.8865175
 121.6871963  49.4086924   7.4570813 107.0120031  40.6200698  15.7054881
 106.4673500  41.3960506  15.8375156 107.8899381  40.9671503  15.5474003
 113.8007648  33.9512282   8.0835680 113.9223559  33.0228928   8.2826567
 113.5109690  33.9650968   7.1713995 116.6698838  31.6367192  11.2202400
 116.6920535  31.7006525  10.2654379 117.0866897  30.7971701  11.4142906
 107.7986053  39.7470594  18.5985038 107.0567789  39.8953230  19.1849669
 107.4778798  40.0078860  17.7351788 115.7429716  49.2886573  18.3965428
 116.0516842  49.0435719  19.2688128 116.5405198  49.4933211  17.9084298
 115.7650328  51.4424482  10.6270805 115.3255318  50.9500861  11.3203662
 116.5158445  50.8997450  10.3862880 108.2442667  47.6336023  10.6295433
 109.0700687  47.3339795  10.2494076 107.8936719  46.8643645  11.0785222
 113.2124200  46.9862491  12.6993106 112.5904209  46.3233196  12.3995334
 113.8829067  47.0123623  12.0166754 106.4451272  45.5522349  11.5884366
 105.6083180  45.1244524  11.4068368 106.4174917  45.7454793  12.5255158
 113.2848728  35.4644279  22.2925613 113.3336883  36.3406402  21.9103382
 113.8271242  34.9221672  21.7197256 123.7703573  46.0085403  21.5726750
 122.9799117  45.9909541  21.0331249 123.5336928  46.5473696  22.3275786
 123.8901448  42.8577869  18.8859478 123.9399453  42.6927876  19.8275001
 123.7815372  41.9905128  18.4957359 112.7737707  45.5366415   6.1751567
 112.9225827  46.2201879   5.5218240 113.5804151  45.5171505   6.6901023
 121.1805211  38.8408797  20.2018785 122.0815074  38.7015262  19.9102783
 121.2553185  39.0063252  21.1416962 115.5148016  36.2175652  19.0471971
 114.6451325  36.5109218  18.7754560 115.7507496  36.8016097  19.7679235
 125.3919645  45.2774810  19.1301500 125.1004454  45.6404791  19.9664961
 124.7791776  44.5641819  18.9514832 123.6406833  40.4007425  17.5981558
 124.1160955  40.5935071  16.7900409 122.7172399  40.4566611  17.3524941
 110.5290340  41.5631592   7.1812636 110.2836382  40.6593922   7.3792846
 110.6986255  41.5648743   6.2392114 118.2187050  32.4355269  16.5637392
 118.7368994  33.1716296  16.2383880 117.8642183  32.7419262  17.3984151
 109.7985988  37.2959950   4.6798797 109.1055233  37.3704305   4.0238833
 109.5537739  36.5320293   5.2020314 116.2733113  48.0314545   3.6463314
 115.7007080  48.6504732   3.1933786 116.8465906  48.5813907   4.1803236
 122.3408502  37.2773185  15.8309863 123.2925925  37.3771283  15.8522087
 122.1711953  36.4851454  16.3407948 120.3622882  34.3628768  16.0169264
 119.7672814  34.6433781  15.3215753 120.0772579  34.8522669  16.7886005
 119.4930372  48.3151695   4.7771897 120.4261046  48.2497257   4.9804772
 119.4053585  49.1507962   4.3186429 124.8196580  40.4979305  14.9452163
 124.7872900  39.5595306  15.1311847 125.4297204  40.5763342  14.2117988
 124.9691069  37.2890348  14.9910446 124.4530117  36.5048805  14.8040375
 125.8531017  36.9609065  15.1556966 128.7188427  39.7003174  14.6832651
 127.9921591  39.5659139  14.0749142 128.3035714  40.0080003  15.4889369
 116.5418604  43.4193104  22.4480024 117.4621613  43.5971703  22.6420070
 116.5068187  42.4749149  22.2959723 105.7600769  38.6131698  11.3733299
 105.4403553  37.7597006  11.0807673 105.2134197  38.8280276  12.1291266
 109.5380676  41.3294139  15.0902805 109.7566686  42.2611246  15.1090839
 109.9506450  40.9702113  15.8757609 114.4108541  36.9027344  24.4805554
 114.3105268  37.8521701  24.4117645 114.1930084  36.5745583  23.6081624
 105.6289029  42.2334609  13.3426420 104.9352500  41.8188562  12.8296375
 106.3762020  42.2755146  12.7459839 114.2739812  40.3324483  23.2970616
 113.7906893  41.1324843  23.5034505 114.3600751  40.3432428  22.3438060
 107.5425771  42.1652863  11.2192435 107.5196459  42.2640550  10.2674318
 107.8526408  43.0118014  11.5409601 110.2013149  44.2229018  15.3339049
 111.1556403  44.1912960  15.2668981 110.0025673  43.7619642  16.1489275
 110.7912531  42.7930134  17.9009847 111.6105420  43.2874213  17.9244684
 111.0649339  41.8762102  17.8727415 108.5563378  49.7648637  12.3509247
 108.4217846  49.0049038  11.7847245 108.1395440  50.4889537  11.8838036
 111.7132504  50.6617954  12.5627690 111.5964888  51.6063387  12.4606380
 110.8924950  50.3591516  12.9513489 106.0447445  37.1268268  18.6002044
 106.6906309  36.6167222  19.0889269 105.8364597  37.8636949  19.1745469
 118.5700838  44.1949115  24.0994185 119.4391997  44.3689768  23.7380820
 118.0907589  45.0143532  23.9769914 112.7387018  51.3146216  15.7783618
 113.6414265  51.3469827  16.0950113 112.5124388  50.3846667  15.7929954
 114.4940620  50.0677203  12.4393697 113.5436251  50.0679064  12.3258069
 114.7973106  49.3209937  11.9229732 110.3844936  34.2735885  22.6977058
 111.2476398  33.9172690  22.9080383 109.8110347  33.9349780  23.3852463
 130.2293313  55.9037741  13.5039459 130.8671723  55.7844489  12.8002799
 130.1114156  56.8518585  13.5627412 127.0383020  55.8565169  13.4400984
 126.7001531  55.7406234  12.5521519 127.9072788  55.4556334  13.4201990
 122.8969835  57.7100646   9.4297875 122.3334700  57.6190583   8.6614163
 122.7822230  56.8900550   9.9100368 127.5202803  57.0100021  19.3987190
 127.5091443  56.6152819  18.5267693 127.6823442  56.2766094  19.9920961
 120.4434267  59.2051837  12.2682096 121.2355559  58.8642662  11.8528395
 120.6830917  59.3146812  13.1884249 128.4769394  61.3771613   4.7412340
 127.8257374  61.9625694   4.3546354 129.2713757  61.9077808   4.8007377
 122.4025021  58.4660751   5.1399474 123.1755897  57.9189738   5.0012350
 122.7550420  59.3305000   5.3513936 124.2410064  59.7937133  18.3466374
 123.9499930  60.6982764  18.2313040 124.8767048  59.8353660  19.0610443
 125.1666271  57.1713981  14.9367733 125.7629843  56.9470004  14.2224696
 125.2241242  56.4298727  15.5393181 129.7834582  53.6289195  10.5792667
 130.5697671  53.2108618  10.2283084 130.0473286  54.5335287  10.7474316
 129.9544659  59.0662045   5.2781324 129.3190492  59.1396672   5.9902229
 129.6242066  59.6555644   4.6000404 124.4587588  56.5281523   4.9742299
 124.3423846  55.8526426   5.6423383 124.5689848  56.0413897   4.1574452
 126.8019129  55.9891670   8.6788988 126.4377336  55.4622291   9.3901910
 127.6586245  55.5990139   8.5055474 132.7068429  47.2786002  15.9420255
 132.3751754  48.1481413  15.7181470 132.1114043  46.9622286  16.6214285
 129.1999949  59.4798548  15.3416167 128.9000672  60.3823587  15.2331975
 128.8551008  59.2130732  16.1937320 122.6512430  55.9312345  11.3752872
 121.7262927  55.7988559  11.5830563 122.8996844  56.7106564  11.8722814
 132.5997093  51.9981089  13.0213605 131.6913970  51.9296497  12.7272366
 132.5484688  52.4753033  13.8495430 120.0121241  55.5745619  12.2096661
 120.1413623  55.8280098  13.1236073 119.3318693  56.1673327  11.8901316
 124.1820729  66.2442869   8.3087135 124.1044758  67.1950694   8.3875616
 123.5782372  65.8988741   8.9662061 126.6737958  53.4170734  20.9648502
 125.8971292  53.9764654  20.9551367 127.3128521  53.9027517  21.4863372
 134.4658739  50.1997527  14.7991479 133.8233119  50.4930060  14.1531273
 133.9613668  50.0850447  15.6044675 124.9284331  56.2256188  20.5266469
 125.6699015  56.7641231  20.2501293 124.2221316  56.8522476  20.6838021
 130.4039670  58.3685328  19.1238630 130.8123026  57.9267738  18.3793263
 129.6816932  57.7937955  19.3772823 126.7570740  53.3057935  16.4972187
 127.6031936  53.7297348  16.6406836 126.6969378  52.6491559  17.1910750
 130.7268485  58.9286519  12.8790919 130.0977347  59.0932233  12.1766987
 130.3394147  59.3428128  13.6501883 134.6057717  59.8640956  10.2335283
 133.9208755  60.2439858   9.6832316 134.6901566  60.4736283  10.9667231
 129.9070186  50.9662303  18.1553361 129.6631118  51.7204364  17.6187637
 130.1830116  51.3447651  18.9900608 131.8608648  57.5100915  16.8330627
 132.0725544  58.1532675  16.1565008 131.8138397  56.6763232  16.3652557
 129.4634877  50.1218736  13.7367199 128.6019356  50.4199990  14.0283936
 129.4897312  50.3389135  12.8048231 126.2796447  58.6660927  10.1441004
 126.7434792  58.9448630   9.3545627 126.0153245  57.7644371   9.9614095
 123.1720528  58.2132408  13.0820768 123.7421885  58.6419677  12.4438252
 123.7628640  57.9314993  13.7804953 125.2165333  54.7884079   6.9530569
 125.9189376  55.2405123   7.4204496 124.8845961  54.1467898   7.5810463
 123.6645694  53.3795836  21.3281779 123.0344355  54.0612117  21.5617176
 123.5581782  53.2678917  20.3834917 118.9590667  53.0467632  12.2547703
 118.1689721  53.3025160  11.7787814 119.4501914  53.8615970  12.3599744
 132.9754476  60.3872871  15.0052984 133.7971920  59.9853058  14.7235666
 132.9716879  60.2841105  15.9569100 120.9105412  53.4112211   9.2131180
 120.1136576  53.5230905   9.7314675 120.6831004  53.7498863   8.3472070
 126.7411080  59.9356914  17.1613694 126.8055512  60.3977321  17.9971866
 126.0322004  59.3054279  17.2896004 117.2428370  53.2998122  14.6862694
 117.4936408  54.1845132  14.9520270 117.7787918  53.1202724  13.9137786
 126.4559098  61.6025022   7.0292675 126.3204772  62.4476557   7.4577523
 126.9968910  61.8044299   6.2658609 122.9426437  47.6816602  23.6907030
 122.5493383  47.1282800  24.3654674 123.7592577  47.9927180  24.0813547
 119.9088495  59.1200460   7.6020600 120.4213015  59.9143710   7.7526164
 120.5611208  58.4226750   7.5354201 121.7183380  62.2366216   9.6843353
 121.8950008  63.1584181   9.4964337 122.5140213  61.9224635  10.1137733
 125.8594398  49.0974481  21.2827286 126.6004112  49.6981634  21.2031749
 126.0912321  48.3552118  20.7245329 121.0035736  54.2830848  19.5605516
 120.8889251  53.3816105  19.8612615 120.1480254  54.5294545  19.2090333
 128.0827574  62.2248588  21.1593017 127.6391428  61.4384967  20.8413921
 128.7444787  62.4127739  20.4936908 122.8414695  63.7544390  15.6853695
 123.3922120  63.6261453  14.9130689 122.0026171  64.0539279  15.3348588
 130.1808812  62.5051388  19.1874418 130.1627287  63.3260269  18.6954687
 131.1028732  62.3805463  19.4124559 126.6381866  60.0195518  20.0297926
 127.1710203  59.2583806  19.7997234 126.1095947  59.7269169  20.7722081
 129.8051561  45.1255584  15.5591568 129.4615830  46.0157225  15.4830679
 130.1730524  44.9357241  14.6961153 117.8737412  57.4489114   8.3780170
 118.7112634  57.8586122   8.1613878 118.0515679  56.5088556   8.3480364
 127.3548955  49.9613895   9.1249242 126.4990551  49.5720746   8.9454880
 127.7675907  50.0405856   8.2649027 128.8848101  47.4960239  13.5240801
 128.3812897  47.4590374  12.7108607 129.1778708  48.4052981  13.5837458
 125.1290987  47.5798968  12.5306983 125.9943984  47.3841777  12.1712873
 125.1968496  47.3509320  13.4576340 128.0034579  59.1481510   7.5416738
 127.4755940  58.4134270   7.2289976 127.5022082  59.9256186   7.2956707
 132.9827425  57.3430531  12.6583785 132.3251099  58.0329792  12.7463913
 133.7867824  57.7326963  13.0017771 122.7353306  49.8101176   9.9023350
 123.3097058  49.5876358   9.1696543 123.3224289  49.8789871  10.6551951
 131.7932884  55.6974903  10.7087726 132.3064765  56.3304895  11.2109436
 132.4434108  55.0976099  10.3431087 123.0622894  51.8405637   3.9219235
 122.2260206  52.1780324   4.2428510 122.9227663  51.7054617   2.9846372
 125.0375974  46.6842425   8.6298419 124.3840387  46.3691442   8.0055034
 124.9956448  46.0618166   9.3558242 129.0555258  65.6759228   3.4648398
 128.3816957  65.9790924   4.0733355 129.4421080  66.4788308   3.1153855
 128.2713715  53.1724359  12.9546067 127.3536276  53.3939306  12.7967755
 128.6873858  53.2470669  12.0957774 129.0548762  54.5715774   8.0848747
 129.8020581  55.0837172   7.7755869 129.3240352  54.2499827   8.9453141
 127.3275412  57.0674315   5.0675702 126.4186632  56.7833348   5.1648171
 127.3570496  57.4873394   4.2079008 132.5594680  60.6780905   8.8366869
 132.1057007  59.8371815   8.8932060 131.9288647  61.3142303   9.1741649
 131.0027619  62.5157401   9.7716687 131.2950593  63.0762459   9.0529053
 131.5126240  62.8085962  10.5269846 117.8963583  54.7879829   9.0490904
 117.6987983  54.1949190   8.3241970 117.3410247  54.4832040   9.7666843
 125.8760306  54.6802936  11.1685497 125.9308916  53.7276772  11.0927974
 125.0651509  54.8362375  11.6526795 123.8152666  53.2979996   8.9275876
 123.0020532  53.5974166   9.3341068 124.3111661  52.9035684   9.6450358
 125.9661244  63.2937752  10.8610140 125.9237423  63.5198599   9.9318673
 126.8823943  63.0601127  11.0095942 129.4126878  53.7621820  17.7590770
 129.7676266  53.9893293  18.6185235 130.0599009  54.0940197  17.1368025
 123.3066741  50.8698351  14.5437111 123.9466121  50.7287110  13.8460074
 122.4744272  50.5832864  14.1675713 135.1693995  58.9516783  13.4751370
 135.6030501  58.8592072  14.3234424 135.8825575  58.9274283  12.8371386
 124.0827045  60.1700781  10.6572103 124.8767644  59.6751102  10.4554678
 123.3718737  59.6418645  10.2939809 128.9021890  62.5518877  15.0084471
 128.9558912  63.1209813  15.7762187 128.0336671  62.7220762  14.6438508
 120.3909809  54.3143863   6.7331856 119.4607397  54.2528319   6.9501818
 120.4867281  53.7919816   5.9368497 120.3095358  50.8398676   9.3210098
 120.5702175  51.7544009   9.2119258 121.1312530  50.3723119   9.4706710
 121.7820283  52.2536433  16.4908922 122.4543336  52.0453795  15.8421571
 120.9550069  52.0558519  16.0514154 136.0309544  58.9940484  16.0084256
 136.2245434  59.8986294  16.2543531 135.9310162  58.5347903  16.8422841
 127.6845855  48.8798374  18.5074583 127.0373770  49.5788324  18.4139059
 128.4546870  49.3134518  18.8750831 131.0924653  59.1447226  21.5825136
 130.9410159  58.9157778  20.6655220 131.0829332  60.1017828  21.5956481
 127.8609989  56.7179139  16.5671403 128.7902049  56.8690299  16.3940370
 127.4401019  56.8063160  15.7120049 126.6598321  60.7429803  14.3369940
 126.5209407  60.3748588  15.2095878 125.8712917  61.2577443  14.1653898
 127.2546473  65.8438900   5.6795477 127.4298229  65.3726943   6.4941100
 126.5679261  66.4704666   5.9076738 128.2103536  60.1211406  11.7258778
 127.8753369  60.0812176  12.6216428 127.7107482  59.4556122  11.2529188
 122.1847780  55.5279036  17.2511359 122.0467578  54.7959275  17.8522898
 123.0952704  55.4387936  16.9695547 124.8130081  55.2398996  16.7395039
 125.5229699  54.5992188  16.6981657 124.7699389  55.4911890  17.6621220
 132.8016860  62.1766349  19.6601618 132.7429406  61.4925569  18.9932201
 133.2036378  62.9185339  19.2082244 123.5259015  52.2264213  18.5590678
 122.9896372  51.7754952  19.2112275 122.9375723  52.3610122  17.8161143
 121.8207558  68.9928263  12.4535337 122.0604157  69.6246787  13.1314356
 120.9776755  68.6416303  12.7400696 132.8034267  60.1405933  17.8915598
 131.9161046  59.8031855  18.0141997 133.3732818  59.4088964  18.1284363
 114.4563414  56.4730025  11.2158649 115.1434454  56.1591755  10.6279664
 114.3011543  57.3771389  10.9425901 119.2598136  51.3620221  15.6443673
 119.1756325  50.7545891  14.9094083 118.4380842  51.8529239  15.6453169
 126.3335420  64.8007385  14.8576841 126.2605592  65.6062357  15.3696146
 125.8912813  64.9999351  14.0324862 126.1225200  64.0379155   8.3679663
 125.3392722  64.5800835   8.4617887 126.8217945  64.5553135   8.7673904
 129.4321850  49.8473785  11.0113868 129.9290549  49.0943747  10.6914938
 128.6608831  49.8838101  10.4457077 137.2851607  55.5514150  12.6532159
 137.2741484  56.4338866  12.2826093 136.4168987  55.1985701  12.4586696
 128.7934104  64.6994219  17.0135000 129.5062076  65.3341684  16.9410901
 128.3024132  64.7958085  16.1975001 130.5151631  58.6045472   8.5852291
 129.5807909  58.7246934   8.4156996 130.6928299  57.7017939   8.3212301
 126.0156819  51.9891168  10.7385553 125.6454606  51.4362208  11.4266458
 126.5115911  51.3849301  10.1860553 123.8446017  62.4488663  17.8340570
 124.5455477  63.0825146  17.9869965 123.3741132  62.7903394  17.0736210
 131.9700413  60.7906612   6.1188477 132.2460257  60.6763207   7.0282352
 131.1004912  60.3924097   6.0800651 131.8740845  46.8143378  13.1593227
 130.9603925  47.0447605  13.3275434 132.3033946  46.8981822  14.0107259
 131.6447303  55.0033270  15.6593121 130.9918753  55.2509178  15.0045574
 132.0227683  54.1897408  15.3255598 128.6054477  65.0392963   9.7621291
 128.7876872  64.2214619  10.2249043 129.4287463  65.2560656   9.3246181
 128.9396643  63.9661148   7.0236340 129.4684409  63.4553603   6.4106502
 129.2024862  63.6503679   7.8881873 127.6934876  55.7453081  22.1459158
 127.0175513  55.6447210  22.8161533 128.5162510  55.5892295  22.6095155
 119.4413735  61.9825018  14.7671673 120.0267172  61.2368706  14.8999577
 119.2438574  62.2928974  15.6508337 122.2952391  65.0176265   9.7834116
 121.6262766  65.5022393   9.2998156 122.1565260  65.2645486  10.6977494
 114.0331390  54.5530618  13.4876116 114.0715490  54.0194209  14.2813234
 113.5271683  54.0265823  12.8687093 126.4357659  67.0520009  16.3816774
 126.9875967  67.2151630  17.1465859 126.7763853  67.6424446  15.7096799
 121.4122152  49.3995158  16.9838659 121.4763479  50.2609989  16.5716056
 121.3489273  48.7869160  16.2511017 120.8874425  51.4718291  20.6311693
 121.5146464  51.0895368  21.2449217 120.0302344  51.2532493  20.9967385
 131.2868533  61.8781266  22.2365428 131.8308437  62.4911224  21.7420383
 130.7055378  62.4360845  22.7532441 117.6639968  53.2794720   6.5630048
 117.9593409  52.3705398   6.5097101 116.7628003  53.2582460   6.2411050
 129.5726046  65.0001984  13.3680456 129.4477186  64.1991724  12.8591402
 130.2305138  65.4948178  12.8794426 121.1934215  51.3550717  12.5457596
 120.4720800  51.9686684  12.4065070 121.9827470  51.8908481  12.4674242
 131.6360955  62.8011004  14.9960006 130.6891290  62.6816355  14.9238333
 131.9843728  61.9133502  15.0786268 123.9960528  48.6905143  18.8198248
 124.5194930  48.9367440  19.5824557 123.7772861  49.5225178  18.4001385
 119.3927809  50.9608818   6.6869373 119.0640515  50.0806197   6.5044479
 119.7467180  50.9056486   7.5745762 128.6407388  62.5963720  11.1964358
 128.4932351  61.6680428  11.3771928 129.4660882  62.6183811  10.7121434
 122.5069632  51.2481788   7.0544851 122.8465705  51.7767709   6.3323459
 122.9541753  51.5862194   7.8303417 132.2441510  63.4192279  12.2829231
 133.1688057  63.2135141  12.1453682 132.0756813  63.1708680  13.1918573
 125.2013073  49.6318838  16.5047919 124.8609894  48.8326651  16.9068598
 124.4952079  49.9320549  15.9324752 125.8529545  46.7168151  14.9575242
 126.6755614  46.2428629  14.8354132 126.0967609  47.4958634  15.4573928
 123.3768124  53.4087271  12.7667220 123.2312704  53.7227574  13.6591502
 122.8993327  54.0272172  12.2138119 125.2364507  50.3989819  12.8148110
 125.2226075  49.5030913  12.4780408 125.9536935  50.4060483  13.4486396
 127.0890637  50.8327160  14.8601237 126.8308415  51.7544230  14.8585568
 126.5575678  50.4357594  15.5501701 132.0336826  63.9377947   7.6391323
 132.2073704  63.3724369   6.8865175 132.5265717  64.7378842   7.4570813
 117.8513786  55.9492616  15.7054881 117.3067254  56.7252424  15.8375156
 118.7293136  56.2963420  15.5474003 124.6401403  49.2804200   8.0835680
 124.7617314  48.3520846   8.2826567 124.3503445  49.2942886   7.1713995
 127.5092593  46.9659110  11.2202400 127.5314290  47.0298443  10.2654379
 127.9260652  46.1263619  11.4142906 118.6379808  55.0762512  18.5985038
 117.8961544  55.2245147  19.1849669 118.3172552  55.3370778  17.7351788
 126.5823470  64.6178490  18.3965428 126.8910597  64.3727637  19.2688128
 127.3798952  64.8225129  17.9084298 126.6044082  66.7716400  10.6270805
 126.1649073  66.2792779  11.3203662 127.3552199  66.2289368  10.3862880
 119.0836421  62.9627941  10.6295433 119.9094441  62.6631713  10.2494076
 118.7330473  62.1935563  11.0785222 124.0517955  62.3154409  12.6993106
 123.4297964  61.6525114  12.3995334 124.7222822  62.3415541  12.0166754
 117.2845027  60.8814267  11.5884366 116.4476935  60.4536442  11.4068368
 117.2568672  61.0746711  12.5255158 124.1242482  50.7936197  22.2925613
 124.1730638  51.6698320  21.9103382 124.6664996  50.2513590  21.7197256
 134.6097328  61.3377320  21.5726750 133.8192872  61.3201459  21.0331249
 134.3730682  61.8765614  22.3275786 134.7295203  58.1869787  18.8859478
 134.7793208  58.0219794  19.8275001 134.6209126  57.3197046  18.4957359
 123.6131462  60.8658332   6.1751567 123.7619582  61.5493797   5.5218240
 124.4197905  60.8463422   6.6901023 132.0198965  54.1700715  20.2018785
 132.9208828  54.0307179  19.9102783 132.0946940  54.3355169  21.1416962
 126.3541771  51.5467569  19.0471971 125.4845080  51.8401135  18.7754560
 126.5901251  52.1308014  19.7679235 136.2313400  60.6066728  19.1301500
 135.9398208  60.9696709  19.9664961 135.6185531  59.8933736  18.9514832
 134.4800588  55.7299343  17.5981558 134.9554710  55.9226989  16.7900409
 133.5566153  55.7858529  17.3524941 121.3684095  56.8923510   7.1812636
 121.1230136  55.9885840   7.3792846 121.5380009  56.8940660   6.2392114
 129.0580804  47.7647186  16.5637392 129.5762748  48.5008213  16.2383880
 128.7035937  48.0711180  17.3984151 120.6379742  52.6251867   4.6798797
 119.9448987  52.6996222   4.0238833 120.3931494  51.8612211   5.2020314
 127.1126867  63.3606463   3.6463314 126.5400834  63.9796650   3.1933786
 127.6859661  63.9105824   4.1803236 133.1802257  52.6065103  15.8309863
 134.1319680  52.7063200  15.8522087 133.0105707  51.8143371  16.3407948
 131.2016636  49.6920686  16.0169264 130.6066569  49.9725699  15.3215753
 130.9166333  50.1814587  16.7886005 130.3324127  63.6443613   4.7771897
 131.2654800  63.5789175   4.9804772 130.2447340  64.4799880   4.3186429
 135.6590335  55.8271223  14.9452163 135.6266655  54.8887223  15.1311847
 136.2690958  55.9055259  14.2117988 135.8084823  52.6182266  14.9910446
 135.2923872  51.8340723  14.8040375 136.6924772  52.2900983  15.1556966
 139.5582182  55.0295092  14.6832651 138.8315345  54.8951057  14.0749142
 139.1429469  55.3371921  15.4889369 127.3812358  58.7485022  22.4480024
 128.3015368  58.9263621  22.6420070 127.3461941  57.8041067  22.2959723
 116.5994523  53.9423615  11.3733299 116.2797307  53.0888923  11.0807673
 116.0527951  54.1572193  12.1291266 120.3774431  56.6586056  15.0902805
 120.5960440  57.5903164  15.1090839 120.7900204  56.2994031  15.8757609
 125.2502296  52.2319262  24.4805554 125.1499023  53.1813619  24.4117645
 125.0323838  51.9037501  23.6081624 116.4682783  57.5626527  13.3426420
 115.7746255  57.1480480  12.8296375 117.2155774  57.6047063  12.7459839
 125.1133566  55.6616401  23.2970616 124.6300648  56.4616761  23.5034505
 125.1994505  55.6724346  22.3438060 118.3819526  57.4944781  11.2192435
 118.3590214  57.5932468  10.2674318 118.6920162  58.3409931  11.5409601
 121.0406904  59.5520936  15.3339049 121.9950157  59.5204878  15.2668981
 120.8419427  59.0911559  16.1489275 121.6306286  58.1222052  17.9009847
 122.4499175  58.6166130  17.9244684 121.9043093  57.2054020  17.8727415
 119.3957132  65.0940555  12.3509247 119.2611600  64.3340956  11.7847245
 118.9789195  65.8181455  11.8838036 122.5526258  65.9909872  12.5627690
 122.4358642  66.9355305  12.4606380 121.7318704  65.6883434  12.9513489
 116.8841200  52.4560185  18.6002044 117.5300063  51.9459139  19.0889269
 116.6758351  53.1928867  19.1745469 129.4094592  59.5241033  24.0994185
 130.2785752  59.6981685  23.7380820 128.9301344  60.3435450  23.9769914
 123.5780772  66.6438134  15.7783618 124.4808019  66.6761744  16.0950113
 123.3518142  65.7138585  15.7929954 125.3334374  65.3969121  12.4393697
 124.3830005  65.3970982  12.3258069 125.6366860  64.6501855  11.9229732
 121.2238691  49.6027803  22.6977058 122.0870152  49.2464607  22.9080383
 120.6504102  49.2641697  23.3852463 141.0687068  71.2329659  13.5039459
 141.7065478  71.1136406  12.8002799 140.9507911  72.1810503  13.5627412
 137.8776774  71.1857087  13.4400984 137.5395286  71.0698152  12.5521519
 138.7466542  70.7848252  13.4201990 133.7363590  73.0392563   9.4297875
 133.1728455  72.9482500   8.6614163 133.6215985  72.2192468   9.9100368
 138.3596557  72.3391939  19.3987190 138.3485198  71.9444737  18.5267693
 138.5217197  71.6058011  19.9920961 131.2828022  74.5343755  12.2682096
 132.0749314  74.1934580  11.8528395 131.5224672  74.6438730  13.1884249
 133.2418776  73.7952668   5.1399474 134.0149652  73.2481655   5.0012350
 133.5944175  74.6596918   5.3513936 135.0803818  75.1229051  18.3466374
 134.7893684  76.0274681  18.2313040 135.7160803  75.1645578  19.0610443
 136.0060025  72.5005899  14.9367733 136.6023597  72.2761921  14.2224696
 136.0634997  71.7590645  15.5393181 140.6228336  68.9581113  10.5792667
 141.4091426  68.5400536  10.2283084 140.8867041  69.8627205  10.7474316
 135.2981342  71.8573440   4.9742299 135.1817600  71.1818344   5.6423383
 135.4083602  71.3705814   4.1574452 137.6412883  71.3183587   8.6788988
 137.2771090  70.7914208   9.3901910 138.4979999  70.9282057   8.5055474
 143.5462184  62.6077920  15.9420255 143.2145509  63.4773331  15.7181470
 142.9507797  62.2914204  16.6214285 140.0393703  74.8090466  15.3416167
 139.7394426  75.7115505  15.2331975 139.6944763  74.5422649  16.1937320
 133.4906185  71.2604263  11.3752872 132.5656681  71.1280477  11.5830563
 133.7390598  72.0398482  11.8722814 143.4390847  67.3273006  13.0213605
 142.5307724  67.2588415  12.7272366 143.3878443  67.8044951  13.8495430
 130.8514996  70.9037536  12.2096661 130.9807377  71.1572015  13.1236073
 130.1712447  71.4965244  11.8901316 135.0214483  81.5734786   8.3087135
 134.9438513  82.5242611   8.3875616 134.4176127  81.2280659   8.9662061
 137.5131713  68.7462652  20.9648502 136.7365047  69.3056572  20.9551367
 138.1522276  69.2319435  21.4863372 145.3052494  65.5289445  14.7991479
 144.6626874  65.8221978  14.1531273 144.8007422  65.4142365  15.6044675
 135.7678085  71.5548105  20.5266469 136.5092770  72.0933149  20.2501293
 135.0615071  72.1814394  20.6838021 141.2433425  73.6977246  19.1238630
 141.6516781  73.2559656  18.3793263 140.5210686  73.1229873  19.3772823
 137.5964495  68.6349852  16.4972187 138.4425690  69.0589266  16.6406836
 137.5363133  67.9783477  17.1910750 141.5662239  74.2578436  12.8790919
 140.9371102  74.4224150  12.1766987 141.1787902  74.6720046  13.6501883
 145.4451471  75.1932874  10.2335283 144.7602510  75.5731775   9.6832316
 145.5295321  75.8028201  10.9667231 140.7463940  66.2954221  18.1553361
 140.5024872  67.0496281  17.6187637 141.0223871  66.6739568  18.9900608
 142.7002403  72.8392833  16.8330627 142.9119298  73.4824593  16.1565008
 142.6532151  72.0055150  16.3652557 140.3028632  65.4510654  13.7367199
 139.4413111  65.7491907  14.0283936 140.3291067  65.6681053  12.8048231
 137.1190201  73.9952844  10.1441004 137.5828547  74.2740547   9.3545627
 136.8546999  73.0936289   9.9614095 134.0114282  73.5424326  13.0820768
 134.5815639  73.9711594  12.4438252 134.6022394  73.2606911  13.7804953
 136.0559087  70.1175997   6.9530569 136.7583131  70.5697040   7.4204496
 135.7239716  69.4759816   7.5810463 134.5039449  68.7087753  21.3281779
 133.8738110  69.3904034  21.5617176 134.3975537  68.5970835  20.3834917
 129.7984421  68.3759549  12.2547703 129.0083475  68.6317078  11.7787814
 130.2895669  69.1907887  12.3599744 143.8148231  75.7164789  15.0052984
 144.6365675  75.3144976  14.7235666 143.8110634  75.6133023  15.9569100
 131.7499167  68.7404129   9.2131180 130.9530330  68.8522823   9.7314675
 131.5224759  69.0790781   8.3472070 137.5804834  75.2648832  17.1613694
 137.6449267  75.7269239  17.9971866 136.8715758  74.6346197  17.2896004
 128.0822124  68.6290040  14.6862694 128.3330163  69.5137050  14.9520270
 128.6181673  68.4494641  13.9137786 137.2952852  76.9316939   7.0292675
 137.1598527  77.7768475   7.4577523 137.8362665  77.1336217   6.2658609
 133.7820192  63.0108519  23.6907030 133.3887137  62.4574718  24.3654674
 134.5986332  63.3219098  24.0813547 130.7482249  74.4492377   7.6020600
 131.2606770  75.2435628   7.7526164 131.4004962  73.7518668   7.5354201
 132.5577134  77.5658134   9.6843353 132.7343762  78.4876098   9.4964337
 133.3533968  77.2516553  10.1137733 136.6988153  64.4266398  21.2827286
 137.4397866  65.0273551  21.2031749 136.9306075  63.6844036  20.7245329
 131.8429491  69.6122766  19.5605516 131.7283006  68.7108023  19.8612615
 130.9874008  69.8586462  19.2090333 138.9221328  77.5540506  21.1593017
 138.4785183  76.7676884  20.8413921 139.5838542  77.7419656  20.4936908
 133.6808450  79.0836307  15.6853695 134.2315875  78.9553371  14.9130689
 132.8419925  79.3831196  15.3348588 141.0202566  77.8343306  19.1874418
 141.0021042  78.6552187  18.6954687 141.9422487  77.7097381  19.4124559
 137.4775621  75.3487435  20.0297926 138.0103957  74.5875723  19.7997234
 136.9489702  75.0561087  20.7722081 140.6445316  60.4547501  15.5591568
 140.3009585  61.3449143  15.4830679 141.0124278  60.2649159  14.6961153
 128.7131166  72.7781032   8.3780170 129.5506388  73.1878040   8.1613878
 128.8909434  71.8380474   8.3480364 138.1942709  65.2905813   9.1249242
 137.3384306  64.9012664   8.9454880 138.6069661  65.3697774   8.2649027
 139.7241856  62.8252156  13.5240801 139.2206652  62.7882292  12.7108607
 140.0172463  63.7344899  13.5837458 135.9684742  62.9090886  12.5306983
 136.8337739  62.7133695  12.1712873 136.0362251  62.6801238  13.4576340
 138.8428333  74.4773428   7.5416738 138.3149695  73.7426187   7.2289976
 138.3415836  75.2548104   7.2956707 143.8221179  72.6722448  12.6583785
 143.1644854  73.3621710  12.7463913 144.6261579  73.0618880  13.0017771
 133.5747061  65.1393094   9.9023350 134.1490813  64.9168276   9.1696543
 134.1618043  65.2081789  10.6551951 142.6326638  71.0266821  10.7087726
 143.1458520  71.6596813  11.2109436 143.2827862  70.4268016  10.3431087
 133.9016648  67.1697555   3.9219235 133.0653960  67.5072242   4.2428510
 133.7621418  67.0346535   2.9846372 135.8769729  62.0134343   8.6298419
 135.2234141  61.6983360   8.0055034 135.8350203  61.3910083   9.3558242
 139.1107469  68.5016276  12.9546067 138.1930030  68.7231223  12.7967755
 139.5267613  68.5762587  12.0957774 139.8942517  69.9007692   8.0848747
 140.6414336  70.4129089   7.7755869 140.1634106  69.5791745   8.9453141
 138.1669167  72.3966233   5.0675702 137.2580386  72.1125266   5.1648171
 138.1964251  72.8165311   4.2079008 143.3988434  76.0072822   8.8366869
 142.9450761  75.1663732   8.8932060 142.7682401  76.6434221   9.1741649
 141.8421374  77.8449319   9.7716687 142.1344348  78.4054376   9.0529053
 142.3519994  78.1377880  10.5269846 128.7357337  70.1171747   9.0490904
 128.5381737  69.5241108   8.3241970 128.1804001  69.8123957   9.7666843
 136.7154061  70.0094853  11.1685497 136.7702671  69.0568690  11.0927974
 135.9045263  70.1654293  11.6526795 134.6546421  68.6271913   8.9275876
 133.8414286  68.9266084   9.3341068 135.1505415  68.2327602   9.6450358
 136.8054999  78.6229670  10.8610140 136.7631178  78.8490516   9.9318673
 137.7217698  78.3893045  11.0095942 140.2520633  69.0913738  17.7590770
 140.6070020  69.3185211  18.6185235 140.8992764  69.4232114  17.1368025
 134.1460496  66.1990269  14.5437111 134.7859875  66.0579028  13.8460074
 133.3138026  65.9124782  14.1675713 146.0087749  74.2808701  13.4751370
 146.4424256  74.1883990  14.3234424 146.7219330  74.2566201  12.8371386
 134.9220800  75.4992699  10.6572103 135.7161398  75.0043019  10.4554678
 134.2112492  74.9710562  10.2939809 139.7415644  77.8810795  15.0084471
 139.7952666  78.4501731  15.7762187 138.8730425  78.0512680  14.6438508
 131.2303563  69.6435781   6.7331856 130.3001151  69.5820236   6.9501818
 131.3261035  69.1211734   5.9368497 131.1489112  66.1690594   9.3210098
 131.4095929  67.0835927   9.2119258 131.9706284  65.7015036   9.4706710
 132.6214037  67.5828351  16.4908922 133.2937091  67.3745713  15.8421571
 131.7943824  67.3850437  16.0514154 146.8703299  74.3232401  16.0084256
 147.0639189  75.2278212  16.2543531 146.7703917  73.8639820  16.8422841
 138.5239609  64.2090292  18.5074583 137.8767524  64.9080241  18.4139059
 139.2940625  64.6426436  18.8750831 141.9318407  74.4739144  21.5825136
 141.7803914  74.2449696  20.6655220 141.9223087  75.4309745  21.5956481
 138.7003744  72.0471057  16.5671403 139.6295804  72.1982216  16.3940370
 138.2794774  72.1355078  15.7120049 137.4992076  76.0721721  14.3369940
 137.3603161  75.7040506  15.2095878 136.7106672  76.5869361  14.1653898
 139.0497291  75.4503324  11.7258778 138.7147123  75.4104094  12.6216428
 138.5501236  74.7848040  11.2529188 133.0241535  70.8570954  17.2511359
 132.8861333  70.1251193  17.8522898 133.9346458  70.7679854  16.9695547
 135.6523835  70.5690913  16.7395039 136.3623454  69.9284105  16.6981657
 135.6093144  70.8203808  17.6621220 143.6410614  77.5058267  19.6601618
 143.5823160  76.8217487  18.9932201 144.0430132  78.2477257  19.2082244
 134.3652769  67.5556131  18.5590678 133.8290126  67.1046870  19.2112275
 133.7769478  67.6902040  17.8161143 132.6601313  84.3220180  12.4535337
 132.8997911  84.9538705  13.1314356 131.8170509  83.9708220  12.7400696
 143.6428021  75.4697850  17.8915598 142.7554800  75.1323772  18.0141997
 144.2126572  74.7380882  18.1284363 125.2957168  71.8021942  11.2158649
 125.9828208  71.4883672  10.6279664 125.1405297  72.7063307  10.9425901
 130.0991891  66.6912139  15.6443673 130.0150079  66.0837808  14.9094083
 129.2774597  67.1821157  15.6453169 137.1729175  80.1299303  14.8576841
 137.0999346  80.9354274  15.3696146 136.7306568  80.3291269  14.0324862
 136.9618954  79.3671073   8.3679663 136.1786476  79.9092753   8.4617887
 137.6611699  79.8845053   8.7673904 140.2715604  65.1765702  11.0113868
 140.7684304  64.4235665  10.6914938 139.5002586  65.2130019  10.4457077
 148.1245362  70.8806068  12.6532159 148.1135238  71.7630783  12.2826093
 147.2562741  70.5277619  12.4586696 139.6327858  80.0286137  17.0135000
 140.3455830  80.6633602  16.9410901 139.1417887  80.1250003  16.1975001
 141.3545385  73.9337390   8.5852291 140.4201664  74.0538852   8.4156996
 141.5322054  73.0309856   8.3212301 136.8550573  67.3183085  10.7385553
 136.4848361  66.7654126  11.4266458 137.3509666  66.7141219  10.1860553
 134.6839772  77.7780580  17.8340570 135.3849231  78.4117063  17.9869965
 134.2134887  78.1195312  17.0736210 142.7134599  62.1435296  13.1593227
 141.7997679  62.3739523  13.3275434 143.1427701  62.2273740  14.0107259
 142.4841058  70.3325188  15.6593121 141.8312508  70.5801095  15.0045574
 142.8621438  69.5189326  15.3255598 139.4448232  80.3684881   9.7621291
 139.6270626  79.5506537  10.2249043 140.2681218  80.5852573   9.3246181
 138.5328631  71.0744999  22.1459158 137.8569268  70.9739128  22.8161533
 139.3556265  70.9184213  22.6095155 130.2807490  77.3116935  14.7671673
 130.8660927  76.5660623  14.8999577 130.0832328  77.6220892  15.6508337
 133.1346145  80.3468183   9.7834116 132.4656520  80.8314310   9.2998156
 132.9959015  80.5937403  10.6977494 124.8725145  69.8822536  13.4876116
 124.9109244  69.3486126  14.2813234 124.3665437  69.3557741  12.8687093
 137.2751414  82.3811926  16.3816774 137.8269722  82.5443548  17.1465859
 137.6157607  82.9716364  15.7096799 132.2515907  64.7287076  16.9838659
 132.3157233  65.5901907  16.5716056 132.1883027  64.1161078  16.2511017
 131.7268179  66.8010209  20.6311693 132.3540218  66.4187286  21.2449217
 130.8696098  66.5824411  20.9967385 142.1262288  77.2073184  22.2365428
 142.6702192  77.8203142  21.7420383 141.5449133  77.7652762  22.7532441
 128.5033722  68.6086638   6.5630048 128.7987163  67.6997316   6.5097101
 127.6021758  68.5874377   6.2411050 140.4119801  80.3293902  13.3680456
 140.2870940  79.5283642  12.8591402 141.0698892  80.8240095  12.8794426
 132.0327969  66.6842634  12.5457596 131.3114555  67.2978602  12.4065070
 132.8221225  67.2200399  12.4674242 142.4754709  78.1302922  14.9960006
 141.5285045  78.0108273  14.9238333 142.8237482  77.2425420  15.0786268
 134.8354283  64.0197061  18.8198248 135.3588684  64.2659357  19.5824557
 134.6166616  64.8517096  18.4001385 130.2321564  66.2900735   6.6869373
 129.9034270  65.4098114   6.5044479 130.5860934  66.2348404   7.5745762
 139.4801143  77.9255638  11.1964358 139.3326105  76.9972346  11.3771928
 140.3054636  77.9475729  10.7121434 133.3463387  66.5773705   7.0544851
 133.6859459  67.1059626   6.3323459 133.7935507  66.9154111   7.8303417
 143.0835264  78.7484197  12.2829231 144.0081812  78.5427058  12.1453682
 142.9150568  78.5000598  13.1918573 136.0406828  64.9610756  16.5047919
 135.7003648  64.1618569  16.9068598 135.3345834  65.2612467  15.9324752
 136.6923300  62.0460068  14.9575242 137.5149369  61.5720547  14.8354132
 136.9361363  62.8250552  15.4573928 134.2161878  68.7379189  12.7667220
 134.0706459  69.0519492  13.6591502 133.7387082  69.3564089  12.2138119
 136.0758261  65.7281737  12.8148110 136.0619830  64.8322830  12.4780408
 136.7930689  65.7352401  13.4486396 137.9284392  66.1619077  14.8601237
 137.6702170  67.0836148  14.8585568 137.3969432  65.7649512  15.5501701
 128.6907540  71.2784533  15.7054881 128.1461009  72.0544341  15.8375156
 129.5686890  71.6255338  15.5474003 135.4795157  64.6096117   8.0835680
 135.6011068  63.6812763   8.2826567 135.1897199  64.6234803   7.1713995
 138.3486347  62.2951028  11.2202400 138.3708044  62.3590361  10.2654379
 138.7654406  61.4555536  11.4142906 129.4773562  70.4054430  18.5985038
 128.7355298  70.5537065  19.1849669 129.1566307  70.6662695  17.7351788
 137.4217225  79.9470408  18.3965428 137.7304351  79.7019555  19.2688128
 138.2192707  80.1517046  17.9084298 137.4437837  82.1008318  10.6270805
 137.0042827  81.6084696  11.3203662 138.1945954  81.5581285  10.3862880
 129.9230176  78.2919858  10.6295433 130.7488196  77.9923630  10.2494076
 129.5724228  77.5227481  11.0785222 134.8911709  77.6446327  12.6993106
 134.2691718  76.9817032  12.3995334 135.5616576  77.6707458  12.0166754
 128.1238781  76.2106185  11.5884366 127.2870689  75.7828359  11.4068368
 128.0962426  76.4038628  12.5255158 134.9636237  66.1228115  22.2925613
 135.0124392  66.9990237  21.9103382 135.5058751  65.5805508  21.7197256
 145.4491082  76.6669238  21.5726750 144.6586626  76.6493377  21.0331249
 145.2124437  77.2057532  22.3275786 145.5688957  73.5161704  18.8859478
 145.6186962  73.3511712  19.8275001 145.4602881  72.6488963  18.4957359
 134.4525216  76.1950250   6.1751567 134.6013336  76.8785714   5.5218240
 135.2591659  76.1755340   6.6901023 142.8592720  69.4992632  20.2018785
 143.7602582  69.3599097  19.9102783 142.9340694  69.6647087  21.1416962
 137.1935525  66.8759487  19.0471971 136.3238834  67.1693053  18.7754560
 137.4295005  67.4599932  19.7679235 147.0707154  75.9358646  19.1301500
 146.7791962  76.2988626  19.9664961 146.4579285  75.2225654  18.9514832
 145.3194342  71.0591260  17.5981558 145.7948464  71.2518907  16.7900409
 144.3959908  71.1150446  17.3524941 132.2077849  72.2215428   7.1812636
 131.9623891  71.3177758   7.3792846 132.3773764  72.2232578   6.2392114
 139.8974559  63.0939104  16.5637392 140.4156503  63.8300131  16.2383880
 139.5429692  63.4003097  17.3984151 131.4773497  67.9543785   4.6798797
 130.7842741  68.0288140   4.0238833 131.2325248  67.1904129   5.2020314
 144.0196011  67.9357020  15.8309863 144.9713434  68.0355118  15.8522087
 143.8499462  67.1435289  16.3407948 142.0410391  65.0212604  16.0169264
 141.4460323  65.3017616  15.3215753 141.7560088  65.5106505  16.7886005
 146.4984089  71.1563140  14.9452163 146.4660409  70.2179141  15.1311847
 147.1084713  71.2347177  14.2117988 146.6478578  67.9474184  14.9910446
 146.1317626  67.1632640  14.8040375 147.5318526  67.6192900  15.1556966
 150.3975936  70.3587010  14.6832651 149.6709100  70.2242975  14.0749142
 149.9823223  70.6663838  15.4889369 138.2206113  74.0776939  22.4480024
 139.1409122  74.2555538  22.6420070 138.1855696  73.1332985  22.2959723
 127.4388278  69.2715533  11.3733299 127.1191062  68.4180841  11.0807673
 126.8921706  69.4864111  12.1291266 131.2168185  71.9877974  15.0902805
 131.4354195  72.9195082  15.1090839 131.6293959  71.6285948  15.8757609
 136.0896050  67.5611180  24.4805554 135.9892777  68.5105537  24.4117645
 135.8717593  67.2329419  23.6081624 127.3076538  72.8918444  13.3426420
 126.6140009  72.4772397  12.8296375 128.0549529  72.9338981  12.7459839
 135.9527321  70.9908319  23.2970616 135.4694402  71.7908679  23.5034505
 136.0388260  71.0016263  22.3438060 129.2213280  72.8236698  11.2192435
 129.1983968  72.9224385  10.2674318 129.5313917  73.6701849  11.5409601
 131.8800658  74.8812853  15.3339049 132.8343912  74.8496796  15.2668981
 131.6813182  74.4203477  16.1489275 132.4700040  73.4513969  17.9009847
 133.2892929  73.9458048  17.9244684 132.7436848  72.5345937  17.8727415
 130.2350887  80.4232473  12.3509247 130.1005355  79.6632874  11.7847245
 129.8182949  81.1473373  11.8838036 133.3920013  81.3201790  12.5627690
 133.2752397  82.2647222  12.4606380 132.5712459  81.0175351  12.9513489
 127.7234954  67.7852103  18.6002044 128.3693818  67.2751057  19.0889269
 127.5152105  68.5220785  19.1745469 140.2488347  74.8532951  24.0994185
 141.1179506  75.0273603  23.7380820 139.7695098  75.6727367  23.9769914
 134.4174527  81.9730052  15.7783618 135.3201774  82.0053662  16.0950113
 134.1911897  81.0430503  15.7929954 136.1728129  80.7261038  12.4393697
 135.2223760  80.7262900  12.3258069 136.4760615  79.9793773  11.9229732
 132.0632445  64.9319720  22.6977058 132.9263907  64.5756525  22.9080383
 131.4897856  64.5933615  23.3852463 149.1990312  87.6683856  19.3987190
 149.1878952  87.2736655  18.5267693 149.3610951  86.9349929  19.9920961
 145.9197573  90.4520968  18.3466374 145.6287439  91.3566599  18.2313040
 146.5554557  90.4937496  19.0610443 154.3855938  77.9369838  15.9420255
 154.0539263  78.8065249  15.7181470 153.7901552  77.6206122  16.6214285
 148.3525467  84.0754570  20.9648502 147.5758801  84.6348490  20.9551367
 148.9916030  84.5611352  21.4863372 146.6071840  86.8840023  20.5266469
 147.3486524  87.4225067  20.2501293 145.9008825  87.5106312  20.6838021
 148.4358249  83.9641770  16.4972187 149.2819445  84.3881184  16.6406836
 148.3756887  83.3075394  17.1910750 151.5857695  81.6246138  18.1553361
 151.3418627  82.3788199  17.6187637 151.8617625  82.0031486  18.9900608
 145.3433203  84.0379671  21.3281779 144.7131864  84.7195952  21.5617176
 145.2369291  83.9262753  20.3834917 140.6378176  83.7051467  12.2547703
 139.8477230  83.9608996  11.7787814 141.1289423  84.5199805  12.3599744
 138.9215879  83.9581958  14.6862694 139.1723917  84.8428967  14.9520270
 139.4575427  83.7786559  13.9137786 144.6213946  78.3400437  23.6907030
 144.2280892  77.7866635  24.3654674 145.4380086  78.6511015  24.0813547
 147.5381907  79.7558316  21.2827286 148.2791621  80.3565469  21.2031749
 147.7699830  79.0135954  20.7245329 142.6823245  84.9414683  19.5605516
 142.5676760  84.0399940  19.8612615 141.8267763  85.1878380  19.2090333
 149.7615083  92.8832424  21.1593017 149.3178937  92.0968802  20.8413921
 150.4232296  93.0711574  20.4936908 148.3169375  90.6779353  20.0297926
 148.8497712  89.9167641  19.7997234 147.7883456  90.3853005  20.7722081
 151.4839070  75.7839419  15.5591568 151.1403339  76.6741061  15.4830679
 151.8518033  75.5941077  14.6961153 150.5635610  78.1544074  13.5240801
 150.0600406  78.1174209  12.7108607 150.8566217  79.0636817  13.5837458
 146.8078496  78.2382804  12.5306983 147.6731493  78.0425612  12.1712873
 146.8756005  78.0093156  13.4576340 151.0914387  84.4205655  17.7590770
 151.4463775  84.6477129  18.6185235 151.7386518  84.7524032  17.1368025
 144.9854250  81.5282186  14.5437111 145.6253629  81.3870946  13.8460074
 144.1531781  81.2416700  14.1675713 143.4607792  82.9120269  16.4908922
 144.1330845  82.7037631  15.8421571 142.6337578  82.7142355  16.0514154
 149.3633364  79.5382210  18.5074583 148.7161279  80.2372159  18.4139059
 150.1334379  79.9718353  18.8750831 152.7712162  89.8031062  21.5825136
 152.6197668  89.5741613  20.6655220 152.7616841  90.7601663  21.5956481
 143.8635289  86.1862872  17.2511359 143.7255087  85.4543110  17.8522898
 144.7740213  86.0971772  16.9695547 146.4917590  85.8982831  16.7395039
 147.2017208  85.2576023  16.6981657 146.4486898  86.1495726  17.6621220
 145.2046524  82.8848049  18.5590678 144.6683881  82.4338787  19.2112275
 144.6163232  83.0193958  17.8161143 140.9385645  82.0204056  15.6443673
 140.8543834  81.4129726  14.9094083 140.1168351  82.5113075  15.6453169
 153.5528354  77.4727213  13.1593227 152.6391433  77.7031440  13.3275434
 153.9821455  77.5565658  14.0107259 149.3722385  86.4036917  22.1459158
 148.6963022  86.3031046  22.8161533 150.1950019  86.2476130  22.6095155
 135.7118899  85.2114453  13.4876116 135.7502999  84.6778044  14.2813234
 135.2059192  84.6849659  12.8687093 143.0909661  80.0578994  16.9838659
 143.1550988  80.9193825  16.5716056 143.0276782  79.4452995  16.2511017
 142.5661934  82.1302126  20.6311693 143.1933973  81.7479204  21.2449217
 141.7089853  81.9116328  20.9967385 152.9656042  92.5365101  22.2365428
 153.5095946  93.1495060  21.7420383 152.3842887  93.0944680  22.7532441
 142.8721724  82.0134552  12.5457596 142.1508309  82.6270520  12.4065070
 143.6614979  82.5492317  12.4674242 145.6748037  79.3488978  18.8198248
 146.1982439  79.5951275  19.5824557 145.4560370  80.1809013  18.4001385
 146.8800582  80.2902674  16.5047919 146.5397403  79.4910487  16.9068598
 146.1739588  80.5904384  15.9324752 147.5317054  77.3751986  14.9575242
 148.3543123  76.9012464  14.8354132 147.7755118  78.1542470  15.4573928
 146.9152016  81.0573655  12.8148110 146.9013584  80.1614748  12.4780408
 147.6324444  81.0644318  13.4486396 148.7678146  81.4910995  14.8601237
 148.5095924  82.4128066  14.8585568 148.2363187  81.0941429  15.5501701
 139.5301295  86.6076451  15.7054881 138.9854763  87.3836259  15.8375156
 140.4080645  86.9547256  15.5474003 140.3167317  85.7346347  18.5985038
 139.5749053  85.8828983  19.1849669 139.9960061  85.9954613  17.7351788
 145.8029991  81.4520032  22.2925613 145.8518147  82.3282155  21.9103382
 146.3452505  80.9097425  21.7197256 153.6986474  84.8284550  20.2018785
 154.5996337  84.6891015  19.9102783 153.7734449  84.9939005  21.1416962
 148.0329280  82.2051405  19.0471971 147.1632589  82.4984971  18.7754560
 148.2688760  82.7891850  19.7679235 150.7368313  78.4231022  16.5637392
 151.2550257  79.1592049  16.2383880 150.3823446  78.7295015  17.3984151
 152.8804145  80.3504521  16.0169264 152.2854077  80.6309534  15.3215753
 152.5953842  80.8398422  16.7886005 149.0599867  89.4068857  22.4480024
 149.9802877  89.5847456  22.6420070 149.0249450  88.4624902  22.2959723
 138.2782032  84.6007451  11.3733299 137.9584816  83.7472759  11.0807673
 137.7315460  84.8156029  12.1291266 142.0561940  87.3169892  15.0902805
 142.2747949  88.2486999  15.1090839 142.4687713  86.9577866  15.8757609
 146.9289805  82.8903097  24.4805554 146.8286532  83.8397454  24.4117645
 146.7111347  82.5621336  23.6081624 138.1470292  88.2210362  13.3426420
 137.4533764  87.8064315  12.8296375 138.8943283  88.2630899  12.7459839
 146.7921075  86.3200236  23.2970616 146.3088157  87.1200596  23.5034505
 146.8782014  86.3308181  22.3438060 143.3093795  88.7805887  17.9009847
 144.1286684  89.2749966  17.9244684 143.5830602  87.8637855  17.8727415
 138.5628709  83.1144021  18.6002044 139.2087572  82.6042975  19.0889269
 138.3545860  83.8512702  19.1745469 151.0882101  90.1824868  24.0994185
 151.9573261  90.3565521  23.7380820 150.6088853  91.0019285  23.9769914
 142.9026200  80.2611638  22.6977058 143.7657661  79.9048443  22.9080383
 142.3291611  79.9225533  23.3852463 155.4607701  93.6692355  23.6907030
 155.0674646  93.1158553  24.3654674 156.2773841  93.9802933  24.0813547
   5.1117945  99.5540188 117.6863190   5.8443117  98.9839405 117.9201019
   4.3557301  99.1661789 118.1269695   2.6343365  93.2661763 122.1457798
   2.3026690  94.1357173 121.9219013   2.0388979  92.9498047 122.8251829
   2.5272029  97.9856849 119.2251148   1.6188906  97.9172257 118.9309909
   2.4759624  98.4628794 120.0532974   4.3933675  96.1873287 121.0029022
   3.7508055  96.4805820 120.3568817   3.8888604  96.0726207 121.8082219
   2.0473839  99.9336460 111.6914882   2.9591695 100.1663847 111.5162579
   1.5383486 100.5173505 111.1289960   4.5332653 105.8516717 116.4372827
   3.8483691 106.2315618 115.8869860   4.6176502 106.4612043 117.1704775
   1.7883585 103.4976676 123.0368170   2.0000480 104.1408436 122.3602551
   1.7413333 102.6638992 122.5690100   2.9029412 106.3748631 121.2090528
   3.7246856 105.9728818 120.9273209   2.8991815 106.2716865 122.1606643
  10.9935406 102.7187380 117.5575499  10.2399114 102.1494778 117.4019504
  11.1282947 102.6850044 118.5046134   4.6711054 103.8572309 112.2054721
   3.8940497 103.5183469 111.7609883   5.3502535 103.8624933 111.5309686
   2.9102361 103.3306291 118.8621329   2.2526035 104.0205552 118.9501457
   3.7142760 103.7202723 119.2055315   1.7207820 101.6850663 116.9125270
   2.2339701 102.3180655 117.4146980   2.3709044 101.0851859 116.5468630
   2.4869616 106.6656665 115.0404413   2.0331943 105.8247575 115.0969603
   1.8563583 107.3018063 115.3779193   1.4302535  97.5948651 116.2705080
   0.6925292  97.0826037 116.6015323   1.6829309  97.1549032 115.4588357
   0.9302555 108.5033162 115.9754231   1.2225530 109.0638219 115.2566597
   1.4401176 108.7961723 116.7307390   1.5314163  90.3724903 116.8646850
   1.8373040  89.5122266 116.5772765   2.2566768  90.9642523 116.6645844
   5.0699551 102.8716016 114.6677643   4.9317450 103.0617612 113.7398832
   4.7135770 103.6335399 115.1245694   5.0968931 104.9392543 119.6788914
   5.5305437 104.8467832 120.5271968   5.8100511 104.9150044 119.0408930
   5.9584480 104.9816244 122.2121799   6.1520370 105.8862054 122.4581074
   5.8585098 104.5223663 123.0460384   1.0737664 103.4543201 108.2033382
   0.4566835 102.7290029 108.1066434   0.6054152 104.2152561 107.8600456
   2.7291796 108.1642109 125.8639162   2.6704342 107.4801329 125.1969745
   3.1311314 108.9061099 125.4119788   2.7309203 106.1281693 124.0953142
   1.8435982 105.7907615 124.2179540   3.3007754 105.3964724 124.3321907
   7.2126543 101.5389910 118.8569703   7.2016420 102.4214626 118.4863636
   6.3443923 101.1861461 118.6624240   3.8299118 100.4338551 115.3239869
   4.2959570 101.2666543 115.2500172   4.2806619  99.9683533 116.0285128
   1.8975349 106.7782373 112.3226021   2.1735193 106.6638967 113.2319895
   1.0279848 106.3799857 112.2838194   1.8015781  92.8019138 119.3630771
   0.8878861  93.0323365 119.5312978   2.2308882  92.8857582 120.2144803
   1.5722239 100.9909030 121.8630665   0.9193690 101.2384938 121.2083117
   1.9502619 100.1773168 121.5293142   1.5635891 108.7886764 121.1997550
   0.6166226 108.6692116 121.1275877   1.9118664 107.9009262 121.2823811
   2.1716446 109.4068039 118.4866775   3.0962993 109.2010901 118.3491226
   2.0031749 109.1584440 119.3956116   1.9611762 109.9253707 113.8428866
   2.1348640 109.3600129 113.0902719   2.4540653 110.7254602 113.6608356
   7.8151153 102.6890130 115.4619166   8.2582299 101.9397455 115.0638289
   6.9377664 102.6800266 115.0792898   2.9486935 109.2420471 110.9425765
   3.6437839 109.8627164 111.1613079   3.2910085 108.3915822 111.2178143
   4.8478358 106.6920177 112.4713095   5.3729682 107.0307449 111.7462415
   4.7600710 105.7567192 112.2876230   4.5372264 107.3253080 127.7764293
   3.7467808 107.3077219 127.2368793   4.3005618 107.8641374 128.5313330
   4.6570139 104.1745547 125.0897022   4.7068144 104.0095554 126.0312545
   4.5484062 103.3072806 124.6994903   1.9473901 100.1576475 126.4056329
   2.8483764 100.0182940 126.1140326   2.0221876 100.3230930 127.3454506
   6.1588336 106.5942488 125.3339043   5.8673144 106.9572469 126.1702504
   5.5460467 105.8809497 125.1552376   7.3584018 104.1595368 117.8541614
   8.1930909 104.5985172 118.0179174   7.4943147 103.6834021 117.0349859
   4.4075524 101.7175103 123.8019101   4.8829646 101.9102749 122.9937953
   3.4841089 101.7734289 123.5562485   3.1077193  98.5940863 122.0347407
   4.0594616  98.6938961 122.0559631   2.9380643  97.8019132 122.5445491
   1.1291572  95.6796446 122.2206808   0.5341505  95.9601459 121.5253297
   0.8441269  96.1690347 122.9923549   2.8887080 108.9485243 107.9413388
   2.8100711 108.6145107 108.8349146   3.7096746 109.4407011 107.9404860
   5.5865271 101.8146983 121.1489707   5.5541591 100.8762983 121.3349391
   6.1965894 101.8931019 120.4155532   5.7359759  98.6058026 121.1947990
   5.2198808  97.8216483 121.0077919   6.6199708  98.2776743 121.3594509
   3.3970486  92.3499042 117.1543803   3.1995307  92.0414130 118.0387135
   4.0070192  93.0760681 117.2841732  11.4041821 102.8762989 120.2895744
  12.1345209 102.6148278 120.8503447  10.7948766 102.1391711 120.3297811
   9.4857118 101.0170852 120.8870195   8.7590281 100.8826817 120.2786686
   9.0704405 101.3247681 121.6926913   2.5322940  94.3408474 114.4118998
   1.9521609  94.9993278 114.0297051   2.2658873  93.5185818 114.0006416
   0.9826506  93.7413531 116.6140318   1.4826285  93.8530066 115.8054637
   1.6262114  93.4374584 117.2541127   1.3147818  96.5008564 113.4675346
   0.4273673  96.7858215 113.2495541   1.7301807  96.3402327 112.6202623
   4.6662354  96.5255085 117.1829686   5.4422744  97.0151537 117.4554302
   3.9410488  96.9513139 117.6401555   7.1034913  97.2382704 118.2403626
   7.6979403  96.9978440 117.5296935   7.1761496  96.5189835 118.8677163
   1.2888842 102.0163100 113.6825637   1.2324043 102.4731651 112.8433269
   1.8417184 101.2553785 113.5048479   5.0993648  97.8052832 114.5075756
   4.8430582  97.4049468 115.3383964   4.4746516  98.5196626 114.3825895
   9.4105985 100.5448905 117.0147047   8.8505543 100.6142094 117.7878610
   8.8049489 100.3689890 116.2946544   2.3677729 106.7035768 109.6121826
   3.2023333 106.2716966 109.4299301   2.2062072 106.5317782 110.5398721
   2.0223621 103.2067881 110.9778166   1.9672425 103.0412153 110.0366610
   1.3969676 103.9143914 111.1340355  10.9962004 117.2205419 119.7077003
  11.6340414 117.1012166 119.0040343  10.8782847 118.1686263 119.7664955
   7.8051710 117.1732847 119.6438528   7.4670222 117.0573912 118.7559063
   8.6741478 116.7724012 119.6239534   3.6638526 119.0268324 115.6335419
   3.1003391 118.9358261 114.8651707   3.5490921 118.2068228 116.1137911
   8.2871493 118.3267699 125.6024733   8.2760134 117.9320497 124.7305237
   8.4492133 117.5933771 126.1958505   9.2438085 122.6939291 110.9449884
   8.5926064 123.2793372 110.5583898  10.0382447 123.2245486 111.0044921
   3.1693712 119.7828428 111.3437018   3.9424588 119.2357416 111.2049894
   3.5219111 120.6472678 111.5551480   5.9334961 118.4881659 121.1405277
   6.5298533 118.2637682 120.4262240   5.9909933 117.7466405 121.7430725
   5.5059990 115.9421095 108.9755468   5.7585510 115.4202616 108.2138931
   4.5684549 115.7787240 109.0782152  10.5503272 114.9456873 116.7830211
  11.3366362 114.5276296 116.4320628  10.8141977 115.8502965 116.9511860
  10.7213350 120.3829723 111.4818868  10.0859183 120.4564350 112.1939773
  10.3910756 120.9723322 110.8037947  15.9511699 114.8832106 117.6863190
  16.6836871 114.3131323 117.9201019  15.1951055 114.4953707 118.1269695
   5.2256278 117.8449200 111.1779843   5.1092536 117.1694104 111.8460927
   5.3358538 117.3581574 110.3611996   7.5687819 117.3059348 114.8826532
   7.2046026 116.7789969 115.5939454   8.4254935 116.9157817 114.7093018
  13.4737120 108.5953680 122.1457798  13.1420445 109.4649091 121.9219013
  12.8782733 108.2789964 122.8251829   7.2093306 112.3349247 109.8787881
   7.3767709 113.2029484 110.2458352   7.0190475 112.4976529 108.9549170
   9.9668639 120.7966226 121.5453711   9.6669362 121.6991265 121.4369518
   9.6219699 120.5298409 122.3974864   3.4181121 117.2480023 117.5790416
   2.4931617 117.1156237 117.7868107   3.6665534 118.0274242 118.0760358
  13.3665783 113.3148766 119.2251148  12.4582660 113.2464175 118.9309909
  13.3153379 113.7920711 120.0532974   7.1882527 114.7906905 110.8634548
   7.0682152 115.2363956 111.7020028   6.4935115 115.1392222 110.3048086
   4.9489419 127.5610547 114.5124679   4.8713449 128.5118372 114.5913159
   4.3451063 127.2156419 115.1699605  15.2327430 111.5165205 121.0029022
  14.5901810 111.8097738 120.3568817  14.7282358 111.4018125 121.8082219
  12.8867593 115.2628378 111.6914882  13.7985449 115.4955765 111.5162579
  12.3777240 115.8465422 111.1289960  11.1708361 119.6853006 125.3276174
  11.5791717 119.2435416 124.5830807  10.4485622 119.1105633 125.5810367
   7.5239431 114.6225613 122.7009731   8.3700626 115.0465026 122.8444380
   7.4638069 113.9659237 123.3948294  11.4937176 120.2454196 119.0828463
  10.8646038 120.4099911 118.3804531  11.1062838 120.6595806 119.8539427
  15.3726407 121.1808634 116.4372827  14.6877446 121.5607536 115.8869860
  15.4570257 121.7903961 117.1704775  10.6738876 112.2829981 124.3590905
  10.4299808 113.0372041 123.8225180  10.9498807 112.6615329 125.1938152
  12.6277339 118.8268593 123.0368170  12.8394234 119.4700353 122.3602551
  12.5807087 117.9930910 122.5690100  10.2303568 111.4386414 119.9404742
   9.3688047 111.7367668 120.2321480  10.2566003 111.6556813 119.0085775
   7.0465137 119.9828605 116.3478548   7.5103483 120.2616307 115.5583171
   6.7821936 119.0812049 116.1651639   3.9389218 119.5300086 119.2858311
   4.5090576 119.9587354 118.6475796   4.5297330 119.2482671 119.9842497
   5.9834023 116.1051757 113.1568113   6.6858067 116.5572801 113.6242040
   5.6514652 115.4635576 113.7848006  13.7423167 121.7040549 121.2090528
  14.5640611 121.3020736 120.9273209  13.7385570 121.6008783 122.1606643
   1.6774103 114.7279889 115.4168724   0.8805266 114.8398583 115.9352219
   1.4499695 115.0666541 114.5509614  21.8329160 118.0479297 117.5575499
  21.0792868 117.4786695 117.4019504  21.9676701 118.0141962 118.5046134
   7.2227788 122.9192700 113.2330219   7.0873463 123.7644235 113.6615066
   7.7637601 123.1211977 112.4696152   0.6757185 120.4368138 113.8058144
   1.1881706 121.2311388 113.9563708   1.3279898 119.7394428 113.7391745
   2.4852070 123.5533894 115.8880897   2.6618699 124.4751859 115.7001881
   3.2808904 123.2392313 116.3175277   6.6263089 110.4142158 127.4864830
   7.3672802 111.0149312 127.4069293   6.8581012 109.6719796 126.9282873
  10.5720252 106.4423261 121.7629112  10.2284521 107.3324903 121.6868223
  10.9399214 106.2524919 120.8998697  10.5370534 116.4331872 110.2701547
  10.0217158 117.2036477 110.5089935  10.2647843 115.7597009 110.8934609
   8.1217645 111.2781573 115.3286785   7.2659242 110.8888424 115.1492424
   8.5344597 111.3573534 114.4686571   9.6516792 108.8127917 119.7278345
   9.1481588 108.7758052 118.9146151   9.9447399 109.7220659 119.7875002
   5.8959678 108.8966646 118.7344527   6.7612675 108.7009455 118.3750416
   5.9637187 108.6676998 119.6613884  15.5104809 119.1864227 112.2054721
  14.7334251 118.8475387 111.7609883  16.1896289 119.1916850 111.5309686
  10.3256838 114.3058965 112.0961328  10.0206973 114.6205114 112.9471471
  11.2787280 114.3840384 112.1388661   8.7703269 120.4649188 113.7454282
   8.2424631 119.7301947 113.4327520   8.2690772 121.2423864 113.4994251
  13.7496115 118.6598208 118.8621329  13.0919790 119.3497470 118.9501457
  14.5536515 119.0494640 119.2055315   3.5021997 111.1268854 116.1060894
   4.0765749 110.9044036 115.3734087   4.0892979 111.1957549 116.8589495
  12.5601574 117.0142581 116.9125270  13.0733456 117.6472573 117.4146980
  13.2102798 116.4143777 116.5468630   3.8291584 113.1573315 110.1256779
   2.9928896 113.4948002 110.4466054   3.6896354 113.0222295 109.1883916
   5.8044665 108.0010103 114.8335963   5.1509077 107.6859120 114.2092578
   5.7625139 107.3785844 115.5595786   6.9155870 118.2829398 106.7489255
   6.0082931 118.0518652 106.9480404   7.4126902 117.4867017 106.9363237
   9.8223948 126.9926905 109.6685941   9.1485647 127.2958602 110.2770899
  10.2089770 127.7955986 109.3191399   9.0382405 114.4892037 119.1583611
   8.1204966 114.7106984 119.0005299   9.4542549 114.5638347 118.2995318
   9.8217453 115.8883452 114.2886291  10.5689272 116.4004850 113.9793413
  10.0909042 115.5667505 115.1490685   8.0944103 118.3841993 111.2713245
   7.1855322 118.1001026 111.3685715   8.1239187 118.8041072 110.4116552
  13.3263370 121.9948583 115.0404413  12.8725698 121.1539492 115.0969603
  12.6957337 122.6309981 115.3779193  12.2696290 112.9240569 116.2705080
  11.5319047 112.4117955 116.6015323  12.5223064 112.4840950 115.4588357
  11.7696310 123.8325079 115.9754231  12.0619284 124.3930136 115.2566597
  12.2794930 124.1253640 116.7307390  12.3707917 105.7016821 116.8646850
  12.6766794 104.8414184 116.5772765  13.0960522 106.2934441 116.6645844
   6.6428997 115.9970614 117.3723041   6.6977607 115.0444450 117.2965517
   5.8320199 116.1530053 117.8564339   7.7920191 119.9250737 108.6101324
   7.3539621 119.2086596 108.1506961   8.5330632 120.1526852 108.0486415
   4.5821357 114.6147673 115.1313420   3.7689223 114.9141844 115.5378612
   5.0780351 114.2203362 115.8487902   6.7329935 124.6105430 117.0647684
   6.6906114 124.8366277 116.1356216   7.6492634 124.3768805 117.2133485
  10.1795569 115.0789498 123.9628314  10.5344956 115.3060971 124.8222779
  10.8267700 115.4107875 123.3405569  15.9093306 118.2007934 114.6677643
  15.7711204 118.3909530 113.7398832  15.5529524 118.9627317 115.1245694
   4.0735432 112.1866029 120.7474655   4.7134811 112.0454788 120.0497618
   3.2412962 111.9000542 120.3713257  15.9362685 120.2684461 119.6788914
  16.3699192 120.1759750 120.5271968  16.6494266 120.2441961 119.0408930
   4.8495736 121.4868459 116.8609647   5.6436334 120.9918779 116.6592222
   4.1387428 120.9586322 116.4977353   9.6690580 123.8686555 121.2122015
   9.7227602 124.4377491 121.9799731   8.8005361 124.0388440 120.8476052
   1.0764048 112.1566354 115.5247641   1.3370865 113.0711687 115.4156802
   1.8981220 111.6890796 115.6744254   2.5488973 113.5704111 122.6946466
   3.2212027 113.3621473 122.0459115   1.7218760 113.3726197 122.2551698
  16.7978235 120.3108161 122.2121799  16.9914125 121.2153972 122.4581074
  16.6978853 119.8515580 123.0460384   8.4514545 110.1966052 124.7112127
   7.8042461 110.8956002 124.6176603   9.2215561 110.6302196 125.0788375
   8.6278680 118.0346817 122.7708946   9.5570740 118.1857977 122.5977914
   8.2069710 118.1230838 121.9157593   7.4267012 122.0597481 120.5407484
   7.2878097 121.6916266 121.4133422   6.6381608 122.5745121 120.3691442
   8.0215164 127.1606578 111.8833021   8.1966919 126.6894621 112.6978643
   7.3347952 127.7872344 112.1114281   8.9772227 121.4379084 117.9296322
   8.6422059 121.3979854 118.8253972   8.4776172 120.7723800 117.4566732
  11.9131418 118.7835118 108.2033382  11.2960589 118.0581947 108.1066434
  11.4447907 119.5444479 107.8600456   5.5798771 116.5566673 122.9432583
   6.2898390 115.9159866 122.9019201   5.5368080 116.8079568 123.8658763
  13.5685550 123.4934027 125.8639162  13.5098096 122.8093247 125.1969745
  13.9705068 124.2353017 125.4119788   4.2927705 113.5431891 124.7628222
   3.7565062 113.0922630 125.4149819   3.7044414 113.6777800 124.0198687
   3.7029964 113.0020543 107.3254686   2.8259431 112.8809343 106.9616932
   4.1787717 112.2106621 107.0733574  13.5702957 121.4573611 124.0953142
  12.6829736 121.1199532 124.2179540  14.1401508 120.7256642 124.3321907
   6.8893890 125.3546833 114.5717206   6.1061412 125.8968513 114.6655431
   7.5886636 125.8720813 114.9711448  10.1990540 111.1641462 117.2151412
  10.6959240 110.4111425 116.8952482   9.4277522 111.2005779 116.6494621
  18.0520298 116.8681828 118.8569703  18.0410174 117.7506543 118.4863636
  17.1837677 116.5153379 118.6624240  11.2820321 119.9213150 114.7889835
  10.3476600 120.0414612 114.6194539  11.4596990 119.0185616 114.5249845
   6.7825509 113.3058845 116.9423096   6.4123297 112.7529886 117.6304002
   7.2784602 112.7016979 116.3898096  14.6692873 115.7630469 115.3239869
  15.1353325 116.5958461 115.2500172  15.1200373 115.2975451 116.0285128
  12.7369104 122.1074290 112.3226021  13.0128948 121.9930885 113.2319895
  11.8673602 121.7091775 112.2838194  12.6409535 108.1311056 119.3630771
  11.7272615 108.3615283 119.5312978  13.0702637 108.2149500 120.2144803
  12.4115994 116.3200948 121.8630665  11.7587444 116.5676855 121.2083117
  12.7896374 115.5065086 121.5293142   9.3723168 126.3560641 115.9658835
   9.5545562 125.5382297 116.4286587  10.1956154 126.5728333 115.5283725
   9.7065333 125.2828826 113.2273883  10.2353100 124.7721281 112.6144046
   9.9693553 124.9671356 114.0919416   3.0621081 126.3343943 115.9871659
   2.3931456 126.8190071 115.5035699   2.9233951 126.5813163 116.9015038
   2.1790843 110.7162836 123.1876202   2.2432169 111.5777667 122.7753600
   2.1157963 110.1036838 122.4548561  10.3394737 126.3169662 119.5718000
  10.2145876 125.5159402 119.0628945  10.9973828 126.8115855 119.0831970
   1.9602905 112.6718394 118.7495140   1.2389491 113.2854362 118.6102613
   2.7496161 113.2076159 118.6711786  12.4029645 124.1178682 121.1997550
  11.4559981 123.9984033 121.1275877  12.7512418 123.2301180 121.2823811
   4.7629219 110.0072821 125.0235792   5.2863621 110.2535118 125.7862101
   4.5441552 110.8392856 124.6038929   9.4076079 123.9131398 117.4001902
   9.2601041 122.9848106 117.5809472  10.2329572 123.9351489 116.9158977
   3.2738323 112.5649465 113.2582394   3.6134395 113.0935387 112.5361003
   3.7210443 112.9029871 114.0340961  13.0110200 124.7359957 118.4866775
  13.9356748 124.5302818 118.3491226  12.8425504 124.4876358 119.3956116
   5.9681764 110.9486516 122.7085462   5.6278584 110.1494329 123.1106142
   5.2620770 111.2488227 122.1362296   6.6198236 108.0335828 121.1612785
   7.4424305 107.5596307 121.0391676   6.8636299 108.8126312 121.6611472
   5.2606470 111.0624087 111.4575687   5.9814833 111.4405340 110.9539404
   4.6371774 111.7812964 111.5610665   9.4037593 111.7669236 112.3934019
   9.6201207 112.6493874 112.0922848   8.9231660 111.3755449 111.6639661
   4.1436814 114.7254949 118.9704764   3.9981395 115.0395252 119.8629046
   3.6662018 115.3439849 118.4175663   6.0033197 111.7157497 119.0185654
   5.9894766 110.8198590 118.6817952   6.7205625 111.7228161 119.6523940
   7.8559328 112.1494837 121.0638781   7.5977106 113.0711908 121.0623111
   7.3244368 111.7525272 121.7539245  12.8005517 125.2545624 113.8428866
  12.9742394 124.6892047 113.0902719  13.2934408 126.0546519 113.6608356
   5.4070093 110.5971877 114.2873224   5.5286004 109.6688524 114.4864111
   5.1172136 110.6110563 113.3751539   8.2761284 108.2826788 117.4239944
   8.2982980 108.3466121 116.4691923   8.6929343 107.4431296 117.6180450
  18.6544908 118.0182047 115.4619166  19.0976054 117.2689373 115.0638289
  17.7771418 118.0092184 115.0792898  13.7880689 124.5712389 110.9425765
  14.4831594 125.1919082 111.1613079  14.1303839 123.7207740 111.2178143
  15.6872112 122.0212094 112.4713095  16.2123436 122.3599367 111.7462415
  15.5994465 121.0859110 112.2876230   7.3712773 128.0884078 116.8308349
   6.9317763 127.5960456 117.5241205   8.1220890 127.5457045 116.5900424
   4.8186645 123.6322087 118.9030650   4.1966654 122.9692792 118.6032878
   5.4891512 123.6583219 118.2204298  15.3766018 122.6544998 127.7764293
  14.5861562 122.6369137 127.2368793  15.1399373 123.1933292 128.5313330
  15.4963893 119.5037464 125.0897022  15.5461898 119.3387472 126.0312545
  15.3877817 118.6364723 124.6994903   4.3800152 122.1826010 112.3789111
   4.5288272 122.8661474 111.7255784   5.1866596 122.1631100 112.8938567
  12.7867656 115.4868392 126.4056329  13.6877519 115.3474857 126.1140326
  12.8615630 115.6522847 127.3454506   7.1210461 112.8635247 125.2509515
   6.2513771 113.1568813 124.9792104   7.3569941 113.4475692 125.9716779
  16.9982090 121.9234406 125.3339043  16.7066899 122.2864386 126.1702504
  16.3854222 121.2101414 125.1552376  18.1977773 119.4887286 117.8541614
  19.0324664 119.9277090 118.0179174  18.3336901 119.0125939 117.0349859
  15.2469278 117.0467021 123.8019101  15.7223400 117.2394667 122.9937953
  14.3234844 117.1026206 123.5562485   2.1352785 118.2091188 113.3850180
   1.8898827 117.3053518 113.5830390   2.3048700 118.2108338 112.4429658
   9.8249495 109.0814864 122.7674935  10.3431439 109.8175891 122.4421424
   9.4704628 109.3878857 123.6021694   1.4048433 113.9419545 110.8836341
   0.7117678 114.0163900 110.2276377   1.1600185 113.1779889 111.4057858
  10.0762089 105.5015147 118.2875832  10.3563843 104.8338336 118.9136258
  10.8612696 105.6944242 117.7750496   7.8795558 124.6774141 109.8500858
   7.3069525 125.2964328 109.3971330   8.4528351 125.2273502 110.3840780
  13.9470947 113.9232781 122.0347407  14.8988370 114.0230878 122.0559631
  13.7774398 113.1311049 122.5445491  11.9685327 111.0088364 122.2206808
  11.3735259 111.2893377 121.5253297  11.6835024 111.4982265 122.9923549
  11.0992817 124.9611291 110.9809441  12.0323491 124.8956852 111.1842316
  11.0116030 125.7967558 110.5223973  13.7280834 124.2777161 107.9413388
  13.6494466 123.9437025 108.8349146  14.5490501 124.7698929 107.9404860
  16.4259025 117.1438900 121.1489707  16.3935345 116.2054901 121.3349391
  17.0359649 117.2222937 120.4155532   8.2642356 116.0134953 107.1916911
   9.2101461 115.8841161 107.2605329   7.8856601 115.2749615 107.6686339
  16.5753514 113.9349944 121.1947990  16.0592562 113.1508400 121.0077919
  17.4593462 113.6068660 121.3594509  14.2364241 107.6790959 117.1543803
  14.0389062 107.3706048 118.0387135  14.8463946 108.4052598 117.2841732
  22.2435575 118.2054907 120.2895744  22.9738964 117.9440195 120.8503447
  21.6342521 117.4683629 120.3297811  20.3250872 116.3462770 120.8870195
  19.5984036 116.2118735 120.2786686  19.9098159 116.6539598 121.6926913
   6.4485273 113.9384930 107.1271796   5.5416729 113.6418042 107.2034510
   6.7261254 113.6414748 106.2606082   8.0647339 108.4821819 113.2816037
   7.2548067 108.1368904 113.6571283   8.7531756 108.1729363 113.8703649
   9.9937887 107.5599866 114.9040334  10.5468926 107.9795320 115.5630357
  10.2307974 106.6335614 114.9463290   5.2184058 110.7971865 107.2683775
   6.0803222 111.1226763 107.5279593   5.4034402 110.0103361 106.7556841
  13.3716694 109.6700391 114.4118998  12.7915363 110.3285195 114.0297051
  13.1052627 108.8477736 114.0006416  11.8220261 109.0705449 116.6140318
  12.3220039 109.1821984 115.8054637  12.4655869 108.7666502 117.2541127
  12.1541572 111.8300482 113.4675346  11.2667427 112.1150132 113.2495541
  12.5695561 111.6694245 112.6202623  15.5056109 111.8547003 117.1829686
  16.2816499 112.3443455 117.4554302  14.7804243 112.2805057 117.6401555
  17.9428667 112.5674622 118.2403626  18.5373158 112.3270358 117.5296935
  18.0155251 111.8481753 118.8677163  11.2984786 121.5945156 107.5623366
  12.0020636 121.7995159 108.1781022  10.5747435 122.1621918 107.8272450
  12.1282596 117.3455018 113.6825637  12.0717798 117.8023569 112.8433269
  12.6810939 116.5845702 113.5048479  15.9387402 113.1344750 114.5075756
  15.6824336 112.7341385 115.3383964  15.3140270 113.8488543 114.3825895
  20.2499740 115.8740823 117.0147047  19.6899298 115.9434012 117.7878610
  19.6443243 115.6981807 116.2946544  13.2071483 122.0327686 109.6121826
  14.0417087 121.6008884 109.4299301  13.0455826 121.8609699 110.5398721
  12.8617375 118.5359799 110.9778166  12.8066179 118.3704070 110.0366610
  12.2363431 119.2435832 111.1340355   6.1713501 108.0367908 110.5563484
   6.1592171 108.9809748 110.7131755   7.0636923 107.8538053 110.2622945
   6.1003065 126.7136798 118.6431241   5.1498696 126.7138660 118.5295613
   6.4035551 125.9669533 118.1267275   9.9865620 104.6310685 114.8109421
   9.2198016 104.0769171 114.9566103  10.3976325 104.7032553 115.6723573
  21.8355758 132.5497337 119.7077003  22.4734168 132.4304084 119.0040343
  21.7176601 133.4978181 119.7664955  18.6445465 132.5024765 119.6438528
  18.3063976 132.3865830 118.7559063  19.5135233 132.1015930 119.6239534
  14.5032280 134.3560241 115.6335419  13.9397145 134.2650178 114.8651707
  14.3884675 133.5360146 116.1137911  19.1265248 133.6559617 125.6024733
  19.1153888 133.2612415 124.7305237  19.2885887 132.9225689 126.1958505
  20.0831839 138.0231209 110.9449884  19.4319819 138.6085289 110.5583898
  20.8776202 138.5537404 111.0044921  14.0087466 135.1120346 111.3437018
  14.7818342 134.5649333 111.2049894  14.3612865 135.9764595 111.5551480
  16.7728716 133.8173577 121.1405277  17.3692288 133.5929599 120.4262240
  16.8303687 133.0758322 121.7430725  16.3453744 131.2713012 108.9755468
  16.5979265 130.7494533 108.2138931  15.4078303 131.1079158 109.0782152
  21.3897027 130.2748791 116.7830211  22.1760116 129.8568214 116.4320628
  21.6535731 131.1794883 116.9511860  21.5607104 135.7121641 111.4818868
  20.9252937 135.7856267 112.1939773  21.2304511 136.3015240 110.8037947
  26.7905454 130.2124024 117.6863190  27.5230626 129.6423241 117.9201019
  26.0344810 129.8245624 118.1269695  16.0650033 133.1741118 111.1779843
  15.9486291 132.4986022 111.8460927  16.1752293 132.6873492 110.3611996
  18.4081574 132.6351265 114.8826532  18.0439781 132.1081886 115.5939454
  19.2648690 132.2449734 114.7093018  24.3130874 123.9245598 122.1457798
  23.9814199 124.7941009 121.9219013  23.7176488 123.6081882 122.8251829
  18.0487061 127.6641165 109.8787881  18.2161463 128.5321401 110.2458352
  17.8584230 127.8268447 108.9549170  20.8062394 136.1258144 121.5453711
  20.5063117 137.0283183 121.4369518  20.4613453 135.8590327 122.3974864
  14.2574875 132.5771941 117.5790416  13.3325372 132.4448155 117.7868107
  14.5059289 133.3566160 118.0760358  24.2059538 128.6440684 119.2251148
  23.2976415 128.5756092 118.9309909  24.1547133 129.1212629 120.0532974
  18.0276282 130.1198822 110.8634548  17.9075907 130.5655873 111.7020028
  17.3328870 130.4684140 110.3048086  11.6183686 132.2205214 118.4134205
  11.7476068 132.4739693 119.3273616  10.9381138 132.8132922 118.0938860
  26.0721184 126.8457122 121.0029022  25.4295564 127.1389656 120.3568817
  25.5676113 126.7310043 121.8082219  23.7261348 130.5920296 111.6914882
  24.6379204 130.8247682 111.5162579  23.2170995 131.1757340 111.1289960
  22.0102115 135.0144923 125.3276174  22.4185471 134.5727334 124.5830807
  21.2879377 134.4397551 125.5810367  18.3633185 129.9517530 122.7009731
  19.2094381 130.3756944 122.8444380  18.3031823 129.2951155 123.3948294
  22.3330930 135.5746114 119.0828463  21.7039792 135.7391828 118.3804531
  21.9456592 135.9887724 119.8539427  26.2120162 136.5100552 116.4372827
  25.5271200 136.8899453 115.8869860  26.2964011 137.1195879 117.1704775
  21.5132631 127.6121899 124.3590905  21.2693563 128.3663959 123.8225180
  21.7892561 127.9907246 125.1938152  23.4671094 134.1560511 123.0368170
  23.6787989 134.7992271 122.3602551  23.4200842 133.3222828 122.5690100
  21.0697322 126.7678332 119.9404742  20.2081802 127.0659585 120.2321480
  21.0959757 126.9848731 119.0085775  17.8858892 135.3120522 116.3478548
  18.3497237 135.5908225 115.5583171  17.6215690 134.4103967 116.1651639
  14.7782973 134.8592004 119.2858311  15.3484330 135.2879272 118.6475796
  15.3691085 134.5774588 119.9842497  16.8227778 131.4343675 113.1568113
  17.5251821 131.8864718 113.6242040  16.4908406 130.7927493 113.7848006
  10.5653112 129.6927227 118.4585247   9.7752166 129.9484756 117.9825357
  11.0564359 130.5075565 118.5637287  24.5816921 137.0332466 121.2090528
  25.4034365 136.6312654 120.9273209  24.5779324 136.9300701 122.1606643
  12.5167857 130.0571806 115.4168724  11.7199021 130.1690501 115.9352219
  12.2893449 130.3958459 114.5509614  32.6722915 133.3771215 117.5575499
  31.9186623 132.8078613 117.4019504  32.8070456 133.3433879 118.5046134
  18.0621543 138.2484617 113.2330219  17.9267217 139.0936153 113.6615066
  18.6031355 138.4503895 112.4696152  11.5150940 135.7660055 113.8058144
  12.0275461 136.5603305 113.9563708  12.1673653 135.0686346 113.7391745
  17.4656843 125.7434076 127.4864830  18.2066557 126.3441229 127.4069293
  17.6974766 125.0011714 126.9282873  21.4114006 121.7715179 121.7629112
  21.0678276 122.6616821 121.6868223  21.7792969 121.5816837 120.8998697
   9.4799857 134.0948710 114.5817714  10.3175079 134.5045718 114.3651422
   9.6578124 133.1548152 114.5517908  21.3764289 131.7623790 110.2701547
  20.8610912 132.5328395 110.5089935  21.1041597 131.0888926 110.8934609
  18.9611400 126.6073491 115.3286785  18.1052996 126.2180341 115.1492424
  19.3738352 126.6865452 114.4686571  20.4910547 124.1419834 119.7278345
  19.9875342 124.1049969 118.9146151  20.7841153 125.0512577 119.7875002
  16.7353432 124.2258564 118.7344527  17.6006429 124.0301373 118.3750416
  16.8030941 123.9968916 119.6613884  26.3498563 134.5156145 112.2054721
  25.5728006 134.1767304 111.7609883  27.0290044 134.5208768 111.5309686
  21.1650592 129.6350882 112.0961328  20.8600728 129.9497031 112.9471471
  22.1181034 129.7132302 112.1388661  19.6097024 135.7941106 113.7454282
  19.0818385 135.0593865 113.4327520  19.1084527 136.5715782 113.4994251
  24.5889870 133.9890126 118.8621329  23.9313544 134.6789387 118.9501457
  25.3930269 134.3786558 119.2055315  14.3415751 126.4560772 116.1060894
  14.9159503 126.2335953 115.3734087  14.9286734 126.5249466 116.8589495
  23.3995329 132.3434499 116.9125270  23.9127210 132.9764491 117.4146980
  24.0496553 131.7435694 116.5468630  14.6685339 128.4865233 110.1256779
  13.8322651 128.8239919 110.4466054  14.5290108 128.3514213 109.1883916
  16.6438419 123.3302021 114.8335963  15.9902832 123.0151038 114.2092578
  16.6018893 122.7077761 115.5595786  17.7549624 133.6121316 106.7489255
  16.8476686 133.3810569 106.9480404  18.2520656 132.8158935 106.9363237
  19.8776160 129.8183954 119.1583611  18.9598721 130.0398901 119.0005299
  20.2936303 129.8930265 118.2995318  20.6611207 131.2175370 114.2886291
  21.4083026 131.7296767 113.9793413  20.9302797 130.8959423 115.1490685
  18.9337857 133.7133911 111.2713245  18.0249077 133.4292944 111.3685715
  18.9632941 134.1332989 110.4116552  24.1657125 137.3240500 115.0404413
  23.7119452 136.4831410 115.0969603  23.5351092 137.9601899 115.3779193
  23.1090044 128.2532486 116.2705080  22.3712801 127.7409872 116.6015323
  23.3616818 127.8132868 115.4588357  22.6090064 139.1616997 115.9754231
  22.9013039 139.7222054 115.2566597  23.1188685 139.4545558 116.7307390
  23.2101672 121.0308738 116.8646850  23.5160549 120.1706102 116.5772765
  23.9354277 121.6226358 116.6645844   9.5026028 131.4339425 115.2528448
   9.3050428 130.8408786 114.5279514   8.9472692 131.1291635 115.9704386
  17.4822752 131.3262531 117.3723041  17.5371361 130.3736368 117.2965517
  16.6713954 131.4821970 117.8564339  18.6313945 135.2542654 108.6101324
  18.1933375 134.5378513 108.1506961  19.3724386 135.4818769 108.0486415
  15.4215111 129.9439591 115.1313420  14.6082977 130.2433762 115.5378612
  15.9174106 129.5495280 115.8487902  17.5723689 139.9397348 117.0647684
  17.5299868 140.1658194 116.1356216  18.4886388 139.7060723 117.2133485
  21.0189323 130.4081416 123.9628314  21.3738711 130.6352889 124.8222779
  21.6661454 130.7399792 123.3405569  26.7487060 133.5299851 114.6677643
  26.6104959 133.7201447 113.7398832  26.3923279 134.2919234 115.1245694
  14.9129186 127.5157947 120.7474655  15.5528566 127.3746706 120.0497618
  14.0806717 127.2292460 120.3713257  26.7756440 135.5976378 119.6788914
  27.2092946 135.5051668 120.5271968  27.4888020 135.5733879 119.0408930
  15.6889490 136.8160377 116.8609647  16.4830089 136.3210697 116.6592222
  14.9781183 136.2878240 116.4977353  20.5084335 139.1978473 121.2122015
  20.5621357 139.7669409 121.9799731  19.6399116 139.3680358 120.8476052
  11.9972254 130.9603459 112.9369400  11.0669842 130.8987914 113.1539362
  12.0929726 130.4379411 112.1406041  11.9157803 127.4858272 115.5247641
  12.1764620 128.4003605 115.4156802  12.7374975 127.0182714 115.6744254
  13.3882728 128.8996029 122.6946466  14.0605781 128.6913391 122.0459115
  12.5612515 128.7018115 122.2551698  27.6371989 135.6400079 122.2121799
  27.8307879 136.5445890 122.4581074  27.5372607 135.1807498 123.0460384
  19.2908300 125.5257970 124.7112127  18.6436215 126.2247919 124.6176603
  20.0609315 125.9594114 125.0788375  19.4672434 133.3638735 122.7708946
  20.3964494 133.5149894 122.5977914  19.0463464 133.4522755 121.9157593
  18.2660766 137.3889399 120.5407484  18.1271852 137.0208183 121.4133422
  17.4775362 137.9037038 120.3691442  19.8165981 136.7671002 117.9296322
  19.4815814 136.7271772 118.8253972  19.3169927 136.1015718 117.4566732
  22.7525173 134.1127036 108.2033382  22.1354344 133.3873864 108.1066434
  22.2841661 134.8736396 107.8600456  16.4192526 131.8858591 122.9432583
  17.1292144 131.2451783 122.9019201  16.3761834 132.1371486 123.8658763
  24.4079305 138.8225944 125.8639162  24.3491851 138.1385165 125.1969745
  24.8098823 139.5644934 125.4119788  15.1321460 128.8723809 124.7628222
  14.5958817 128.4214547 125.4149819  14.5438168 129.0069718 124.0198687
  14.5423719 128.3312460 107.3254686  13.6653185 128.2101261 106.9616932
  15.0181472 127.5398539 107.0733574  24.4096712 136.7865528 124.0953142
  23.5223491 136.4491450 124.2179540  24.9795263 136.0548560 124.3321907
  21.0384295 126.4933380 117.2151412  21.5352995 125.7403342 116.8952482
  20.2671276 126.5297697 116.6494621  28.8914052 132.1973746 118.8569703
  28.8803929 133.0798461 118.4863636  28.0231432 131.8445297 118.6624240
  22.1214076 135.2505067 114.7889835  21.1870354 135.3706530 114.6194539
  22.2990744 134.3477534 114.5249845  17.6219264 128.6350763 116.9423096
  17.2517051 128.0821804 117.6304002  18.1178356 128.0308897 116.3898096
  25.5086627 131.0922387 115.3239869  25.9747079 131.9250378 115.2500172
  25.9594128 130.6267368 116.0285128  23.5762858 137.4366208 112.3226021
  23.8522702 137.3222803 113.2319895  22.7067357 137.0383693 112.2838194
  23.4803290 123.4602974 119.3630771  22.5666370 123.6907200 119.5312978
  23.9096391 123.5441418 120.2144803  23.2509748 131.6492866 121.8630665
  22.5981198 131.8968773 121.2083117  23.6290128 130.8357004 121.5293142
  20.5459088 140.6120744 113.2273883  21.0746854 140.1013199 112.6144046
  20.8087307 140.2963274 114.0919416  13.0184597 126.0454754 123.1876202
  13.0825924 126.9069585 122.7753600  12.9551718 125.4328756 122.4548561
   9.2702413 129.9254316 112.7667591   9.5655854 129.0164994 112.7134645
   8.3690448 129.9042055 112.4448594  12.7996660 128.0010312 118.7495140
  12.0783245 128.6146280 118.6102613  13.5889915 128.5368077 118.6711786
  23.2423400 139.4470600 121.1997550  22.2953735 139.3275951 121.1275877
  23.5906173 138.5593098 121.2823811  15.6022973 125.3364739 125.0235792
  16.1257375 125.5827035 125.7862101  15.3835306 126.1684773 124.6038929
  10.9990254 127.6068413 112.8906917  10.6702960 126.7265792 112.7082023
  11.3529625 127.5516082 113.7783306  20.2469833 139.2423316 117.4001902
  20.0994796 138.3140023 117.5809472  21.0723327 139.2643407 116.9158977
  14.1132077 127.8941383 113.2582394  14.4528150 128.4227304 112.5361003
  14.5604198 128.2321789 114.0340961  23.8503955 140.0651875 118.4866775
  24.7750502 139.8594736 118.3491226  23.6819258 139.8168276 119.3956116
  16.8075518 126.2778434 122.7085462  16.4672339 125.4786247 123.1106142
  16.1014525 126.5780145 122.1362296  17.4591990 123.3627746 121.1612785
  18.2818059 122.8888224 121.0391676  17.7030054 124.1418230 121.6611472
  16.1000225 126.3916005 111.4575687  16.8208587 126.7697257 110.9539404
  15.4765529 127.1104881 111.5610665  20.2431347 127.0961154 112.3934019
  20.4594962 127.9785791 112.0922848  19.7625415 126.7047367 111.6639661
  14.9830569 130.0546867 118.9704764  14.8375150 130.3687170 119.8629046
  14.5055772 130.6731767 118.4175663  16.8426952 127.0449415 119.0185654
  16.8288520 126.1490508 118.6817952  17.5599380 127.0520079 119.6523940
  18.6953082 127.4786755 121.0638781  18.4370860 128.4003826 121.0623111
  18.1638123 127.0817190 121.7539245  23.6399271 140.5837542 113.8428866
  23.8136149 140.0183965 113.0902719  24.1328162 141.3838437 113.6608356
  16.2463848 125.9263795 114.2873224  16.3679759 124.9980441 114.4864111
  15.9565890 125.9402481 113.3751539  19.1155038 123.6118706 117.4239944
  19.1376735 123.6758039 116.4691923  19.5323097 122.7723214 117.6180450
  29.4938662 133.3473965 115.4619166  29.9369808 132.5981290 115.0638289
  28.6165173 133.3384101 115.0792898  24.6274444 139.9004307 110.9425765
  25.3225348 140.5210999 111.1613079  24.9697594 139.0499658 111.2178143
  26.5265867 137.3504012 112.4713095  27.0517191 137.6891285 111.7462415
  26.4388219 136.4151027 112.2876230  15.6580400 138.9614004 118.9030650
  15.0360409 138.2984709 118.6032878  16.3285267 138.9875136 118.2204298
  26.2159773 137.9836916 127.7764293  25.4255317 137.9661055 127.2368793
  25.9793127 138.5225209 128.5313330  26.3357648 134.8329382 125.0897022
  26.3855653 134.6679390 126.0312545  26.2271571 133.9656641 124.6994903
  15.2193907 137.5117928 112.3789111  15.3682027 138.1953392 111.7255784
  16.0260350 137.4923018 112.8938567  23.6261410 130.8160310 126.4056329
  24.5271273 130.6766775 126.1140326  23.7009385 130.9814765 127.3454506
  17.9604216 128.1927165 125.2509515  17.0907525 128.4860731 124.9792104
  18.1963696 128.7767610 125.9716779  27.8375845 137.2526324 125.3339043
  27.5460653 137.6156304 126.1702504  27.2247976 136.5393332 125.1552376
  29.0371527 134.8179203 117.8541614  29.8718418 135.2569007 118.0179174
  29.1730656 134.3417857 117.0349859  26.0863033 132.3758938 123.8019101
  26.5617155 132.5686585 122.9937953  25.1628598 132.4318124 123.5562485
  12.9746540 133.5383105 113.3850180  12.7292582 132.6345435 113.5830390
  13.1442454 133.5400256 112.4429658  20.6643249 124.4106782 122.7674935
  21.1825193 125.1467809 122.4421424  20.3098382 124.7170775 123.6021694
  12.2442187 129.2711463 110.8836341  11.5511432 129.3455818 110.2276377
  11.9993939 128.5071807 111.4057858  20.9155844 120.8307064 118.2875832
  21.1957597 120.1630253 118.9136258  21.7006451 121.0236160 117.7750496
  18.7189312 140.0066058 109.8500858  18.1463279 140.6256245 109.3971330
  19.2922106 140.5565420 110.3840780  24.7864702 129.2524698 122.0347407
  25.7382125 129.3522796 122.0559631  24.6168152 128.4602967 122.5445491
  22.8079081 126.3380282 122.2206808  22.2129014 126.6185294 121.5253297
  22.5228778 126.8274182 122.9923549  21.9386572 140.2903208 110.9809441
  22.8717245 140.2248770 111.1842316  21.8509785 141.1259475 110.5223973
  24.5674589 139.6069079 107.9413388  24.4888220 139.2728942 108.8349146
  25.3884255 140.0990847 107.9404860  27.2652780 132.4730818 121.1489707
  27.2329100 131.5346819 121.3349391  27.8753403 132.5514855 120.4155532
  19.1036111 131.3426871 107.1916911  20.0495215 131.2133079 107.2605329
  18.7250356 130.6041533 107.6686339  27.4147268 129.2641861 121.1947990
  26.8986317 128.4800318 121.0077919  28.2987217 128.9360578 121.3594509
  25.0757995 123.0082877 117.1543803  24.8782816 122.6997965 118.0387135
  25.6857701 123.7344516 117.2841732  33.0829330 133.5346825 120.2895744
  33.8132718 133.2732113 120.8503447  32.4736275 132.7975547 120.3297811
  31.1644627 131.6754687 120.8870195  30.4377790 131.5410652 120.2786686
  30.7491914 131.9831516 121.6926913  17.2879028 129.2676847 107.1271796
  16.3810483 128.9709960 107.2034510  17.5655009 128.9706665 106.2606082
   8.2056968 130.5883211 117.5770842   7.8859752 129.7348519 117.2845216
   7.6590396 130.8031789 118.3328810  18.9041093 123.8113737 113.2816037
  18.0941822 123.4660822 113.6571283  19.5925510 123.5021281 113.8703649
  20.8331642 122.8891784 114.9040334  21.3862680 123.3087237 115.5630357
  21.0701728 121.9627532 114.9463290  16.0577812 126.1263783 107.2683775
  16.9196976 126.4518681 107.5279593  16.2428157 125.3395278 106.7556841
  24.2110449 124.9992309 114.4118998  23.6309118 125.6577113 114.0297051
  23.9446382 124.1769654 114.0006416  22.6614015 124.3997367 116.6140318
  23.1613794 124.5113901 115.8054637  23.3049623 124.0958420 117.2541127
   9.9881971 134.1404376 117.4229979   9.9652659 134.2392063 116.4711862
  10.2982607 134.9869527 117.7447145  22.9935327 127.1592399 113.4675346
  22.1061182 127.4442050 113.2495541  23.4089316 126.9986163 112.6202623
  26.3449863 127.1838920 117.1829686  27.1210253 127.6735373 117.4554302
  25.6197997 127.6096975 117.6401555  28.7822422 127.8966540 118.2403626
  29.3766912 127.6562276 117.5296935  28.8549005 127.1773670 118.8677163
  22.1378540 136.9237074 107.5623366  22.8414390 137.1287077 108.1781022
  21.4141189 137.4913836 107.8272450  22.9676351 132.6746935 113.6825637
  22.9111552 133.1315487 112.8433269  23.5204693 131.9137620 113.5048479
  26.7781157 128.4636667 114.5075756  26.5218091 128.0633303 115.3383964
  26.1534025 129.1780461 114.3825895  31.0893494 131.2032740 117.0147047
  30.5293052 131.2725930 117.7878610  30.4836998 131.0273725 116.2946544
  24.0465238 137.3619603 109.6121826  24.8810842 136.9300802 109.4299301
  23.8849581 137.1901617 110.5398721  23.7011130 133.8651717 110.9778166
  23.6459934 133.6995988 110.0366610  23.0757185 134.5727750 111.1340355
  17.0107255 123.3659826 110.5563484  16.9985925 124.3101666 110.7131755
  17.9030677 123.1829971 110.2622945  20.8259375 119.9602602 114.8109421
  20.0591771 119.4061089 114.9566103  21.2370080 120.0324471 115.6723573
  37.6299208 145.5415941 117.6863190  38.3624380 144.9715158 117.9201019
  36.8738564 145.1537542 118.1269695  35.1524629 139.2537516 122.1457798
  34.8207954 140.1232927 121.9219013  34.5570242 138.9373800 122.8251829
  28.8880815 142.9933083 109.8787881  29.0555218 143.8613319 110.2458352
  28.6977984 143.1560364 108.9549170  35.0453292 143.9732602 119.2251148
  34.1370169 143.9048010 118.9309909  34.9940888 144.4504547 120.0532974
  36.9114939 142.1749040 121.0029022  36.2689319 142.4681573 120.3568817
  36.4069867 142.0601960 121.8082219  32.3526385 142.9413816 124.3590905
  32.1087317 143.6955877 123.8225180  32.6286316 143.3199164 125.1938152
  31.9091077 142.0970249 119.9404742  31.0475556 142.3951503 120.2321480
  31.9353512 142.3140648 119.0085775  43.5116669 148.7063133 117.5575499
  42.7580377 148.1370531 117.4019504  43.6464210 148.6725797 118.5046134
  28.3050598 141.0725994 127.4864830  29.0460311 141.6733147 127.4069293
  28.5368521 140.3303632 126.9282873  32.2507761 137.1007097 121.7629112
  31.9072030 137.9908738 121.6868223  32.6186723 136.9108754 120.8998697
  29.8005154 141.9365409 115.3286785  28.9446751 141.5472259 115.1492424
  30.2132106 142.0157369 114.4686571  31.3304301 139.4711752 119.7278345
  30.8269097 139.4341887 118.9146151  31.6234908 140.3804495 119.7875002
  27.5747187 139.5550482 118.7344527  28.4400184 139.3593290 118.3750416
  27.6424696 139.3260833 119.6613884  32.0044347 144.9642800 112.0961328
  31.6994482 145.2788949 112.9471471  32.9574789 145.0424220 112.1388661
  25.1809506 141.7852690 116.1060894  25.7553258 141.5627871 115.3734087
  25.7680488 141.8541384 116.8589495  27.4832174 138.6593938 114.8335963
  26.8296586 138.3442956 114.2092578  27.4412648 138.0369679 115.5595786
  33.9483799 143.5824404 116.2705080  33.2106556 143.0701790 116.6015323
  34.2010573 143.1424786 115.4588357  34.0495426 136.3600656 116.8646850
  34.3554303 135.4998019 116.5772765  34.7748031 136.9518276 116.6645844
  25.7522941 142.8449864 120.7474655  26.3922320 142.7038623 120.0497618
  24.9200471 142.5584378 120.3713257  30.1302054 140.8549887 124.7112127
  29.4829970 141.5539837 124.6176603  30.9003070 141.2886031 125.0788375
  31.8778049 141.8225298 117.2151412  32.3746749 141.0695260 116.8952482
  31.1065031 141.8589614 116.6494621  28.4613018 143.9642681 116.9423096
  28.0910806 143.4113721 117.6304002  28.9572111 143.3600814 116.3898096
  34.3197044 138.7894891 119.3630771  33.4060124 139.0199118 119.5312978
  34.7490146 138.8733335 120.2144803  23.8578352 141.3746672 123.1876202
  23.9219678 142.2361502 122.7753600  23.7945472 140.7620673 122.4548561
  26.4416728 140.6656656 125.0235792  26.9651129 140.9118953 125.7862101
  26.2229061 141.4976691 124.6038929  27.6469273 141.6070351 122.7085462
  27.3066093 140.8078164 123.1106142  26.9408279 141.9072062 122.1362296
  28.2985745 138.6919664 121.1612785  29.1211814 138.2180142 121.0391676
  28.5423808 139.4710148 121.6611472  26.9393979 141.7207922 111.4575687
  27.6602342 142.0989175 110.9539404  26.3159283 142.4396799 111.5610665
  31.0825102 142.4253071 112.3934019  31.2988716 143.3077709 112.0922848
  30.6019169 142.0339285 111.6639661  27.6820706 142.3741332 119.0185654
  27.6682275 141.4782426 118.6817952  28.3993134 142.3811996 119.6523940
  29.5346837 142.8078673 121.0638781  29.2764615 143.7295743 121.0623111
  29.0031877 142.4109107 121.7539245  27.0857602 141.2555713 114.2873224
  27.2073513 140.3272359 114.4864111  26.7959644 141.2694399 113.3751539
  29.9548793 138.9410623 117.4239944  29.9770489 139.0049956 116.4691923
  30.3716852 138.1015132 117.6180450  34.4655165 146.1452228 126.4056329
  35.3665028 146.0058693 126.1140326  34.5403139 146.3106683 127.3454506
  28.7997970 143.5219083 125.2509515  27.9301280 143.8152649 124.9792104
  29.0357450 144.1059528 125.9716779  31.5037004 139.7398699 122.7674935
  32.0218948 140.4759726 122.4421424  31.1492137 140.0462693 123.6021694
  31.7549598 136.1598982 118.2875832  32.0351352 135.4922171 118.9136258
  32.5400205 136.3528078 117.7750496  35.6258456 144.5816616 122.0347407
  36.5775879 144.6814714 122.0559631  35.4561907 143.7894885 122.5445491
  33.6472836 141.6672199 122.2206808  33.0522768 141.9477212 121.5253297
  33.3622533 142.1566100 122.9923549  38.2541023 144.5933779 121.1947990
  37.7380071 143.8092236 121.0077919  39.1380971 144.2652496 121.3594509
  35.9151750 138.3374795 117.1543803  35.7176571 138.0289883 118.0387135
  36.5251455 139.0636434 117.2841732  43.9223084 148.8638743 120.2895744
  44.6526473 148.6024031 120.8503447  43.3130030 148.1267464 120.3297811
  42.0038381 147.0046605 120.8870195  41.2771545 146.8702570 120.2786686
  41.5885668 147.3123434 121.6926913  29.7434848 139.1405655 113.2816037
  28.9335576 138.7952740 113.6571283  30.4319265 138.8313198 113.8703649
  31.6725396 138.2183702 114.9040334  32.2256435 138.6379155 115.5630357
  31.9095483 137.2919450 114.9463290  26.8971567 141.4555700 107.2683775
  27.7590731 141.7810599 107.5279593  27.0821911 140.6687196 106.7556841
  35.0504203 140.3284227 114.4118998  34.4702872 140.9869031 114.0297051
  34.7840136 139.5061571 114.0006416  33.5007770 139.7289284 116.6140318
  34.0007548 139.8405819 115.8054637  34.1443378 139.4250337 117.2541127
  33.8329081 142.4884317 113.4675346  32.9454936 142.7733968 113.2495541
  34.2483070 142.3278080 112.6202623  37.1843618 142.5130838 117.1829686
  37.9604008 143.0027291 117.4554302  36.4591752 142.9388892 117.6401555
  39.6216176 143.2258457 118.2403626  40.2160667 142.9854193 117.5296935
  39.6942760 142.5065588 118.8677163  37.6174911 143.7928585 114.5075756
  37.3611845 143.3925221 115.3383964  36.9927779 144.5072379 114.3825895
  41.9287249 146.5324658 117.0147047  41.3686807 146.6017847 117.7878610
  41.3230752 146.3565643 116.2946544  27.8501010 138.6951743 110.5563484
  27.8379680 139.6393583 110.7131755  28.7424432 138.5121889 110.2622945
  31.6653129 135.2894520 114.8109421  30.8985525 134.7353007 114.9566103
  32.0763834 135.3616389 115.6723573   5.1117946  76.5602311 104.4108496
   5.8443118  75.9901528 104.6446326   4.3557302  76.1723911 104.8515002
   2.6343367  70.2723885 108.8703105   2.3026691  71.1419296 108.6464320
   2.0388980  69.9560169 109.5497135   2.5272030  74.9918971 105.9496455
   1.6188907  74.9234380 105.6555216   2.4759626  75.4690916 106.7778281
   4.3933676  73.1935410 107.7274329   3.7508057  73.4867943 107.0814124
   3.8888605  73.0788330 108.5327526   2.0473840  76.9398583  98.4160188
   2.9591696  77.1725970  98.2407886   1.5383487  77.5235627  97.8535267
   4.5332654  82.8578839 103.1618133   3.8483692  83.2377741 102.6115167
   4.6176504  83.4674166 103.8950081   1.7883586  80.5038798 109.7613477
   2.0000481  81.1470558 109.0847858   1.7413334  79.6701115 109.2935407
   2.9029414  83.3810754 107.9335834   3.7246857  82.9790941 107.6518516
   2.8991817  83.2778988 108.8851950  10.9935407  79.7249502 104.2820806
  10.2399115  79.1556900 104.1264810  11.1282948  79.6912167 105.2291441
   4.6711055  80.8634432  98.9300027   3.8940498  80.5245592  98.4855189
   5.3502536  80.8687055  98.2554992   2.9102362  80.3368413 105.5866635
   2.2526037  81.0267675 105.6746764   3.7142761  80.7264845 105.9300622
   1.7207821  78.6912786 103.6370577   2.2339703  79.3242778 104.1392287
   2.3709045  78.0913982 103.2713937   2.4869617  83.6718787 101.7649720
   2.0331944  82.8309697 101.8214910   1.8563584  84.3080186 102.1024500
   1.4302537  74.6010773 102.9950387   0.6925294  74.0888160 103.3260630
   1.6829310  74.1611155 102.1833664   0.9302556  85.5095284 102.6999538
   1.2225531  86.0700341 101.9811903   1.4401177  85.8023845 103.4552697
   1.5314164  67.3787025 103.5892156   1.8373041  66.5184389 103.3018071
   2.2566769  67.9704646 103.3891150   5.0699552  79.8778139 101.3922949
   4.9317451  80.0679735 100.4644138   4.7135771  80.6397521 101.8491000
   5.0968932  81.9454666 106.4034221   5.5305439  81.8529955 107.2517275
   5.8100513  81.9212166 105.7654237   5.9584482  81.9878366 108.9367106
   6.1520372  82.8924177 109.1826381   5.8585100  81.5285785 109.7705691
   1.0199590  82.1385109 114.5107987   0.8685097  81.9095661 113.5938070
   1.0104270  83.0955710 114.5239332   1.0737665  80.4605323  94.9278688
   0.4566836  79.7352151  94.8311741   0.6054154  81.2214684  94.5845762
   2.7291797  85.1704232 112.5884469   2.6704343  84.4863452 111.9215052
   3.1311315  85.9123222 112.1365095   2.7309204  83.1343816 110.8198448
   1.8435983  82.7969737 110.9424847   3.3007755  82.4026847 111.0567214
   7.2126545  78.5452033 105.5815010   7.2016421  79.4276748 105.2108943
   6.3443924  78.1923584 105.3869547   3.8299119  77.4400674 102.0485176
   4.2959571  78.2728665 101.9745479   4.2806620  76.9745655 102.7530434
   1.8975350  83.7844495  99.0471328   2.1735194  83.6701090  99.9565202
   1.0279849  83.3861980  99.0083501   1.8015782  69.8081261 106.0876077
   0.8878862  70.0385488 106.2558284   2.2308884  69.8919705 106.9390110
   1.5722241  77.9971153 108.5875971   0.9193691  78.2447060 107.9328424
   1.9502620  77.1835291 108.2538449   1.2143471  84.8719149 115.1648279
   1.7583375  85.4849107 114.6703234   0.6330316  85.4298727 115.6815292
   1.5635892  85.7948887 107.9242857   0.6166228  85.6754238 107.8521183
   1.9118665  84.9071385 108.0069118   2.1716447  86.4130162 105.2112082
   3.0962995  86.2073023 105.0736533   2.0031751  86.1646563 106.1201423
   1.9611763  86.9315829 100.5674173   2.1348641  86.3662252  99.8148025
   2.4540655  87.7316724 100.3853663   7.8151155  79.6952252 102.1864473
   8.2582301  78.9459578 101.7883596   6.9377665  79.6862389 101.8038205
   2.9486936  86.2482594  97.6671071   3.6437841  86.8689286  97.8858386
   3.2910086  85.3977945  97.9423449   4.8478359  83.6982299  99.1958402
   5.3729683  84.0369572  98.4707722   4.7600712  82.7629315  99.0121537
   4.5372265  84.3315203 114.5009600   3.7467809  84.3139342 113.9614099
   4.3005620  84.8703497 115.2558637   4.6570140  81.1807669 111.8142329
   4.7068145  81.0157677 112.7557851   4.5484064  80.3134928 111.4240209
   1.9473903  77.1638597 113.1301635   2.8483765  77.0245062 112.8385633
   2.0221877  77.3293052 114.0699813   6.1588337  83.6004611 112.0584350
   5.8673145  83.9634591 112.8947811   5.5460468  82.8871619 111.8797682
   7.3584019  81.1657491 104.5786920   8.1930911  81.6047295 104.7424481
   7.4943148  80.6896144 103.7595166   4.4075525  78.7237225 110.5264408
   4.8829647  78.9164872 109.7183259   3.4841091  78.7796411 110.2807792
   3.1077194  75.6002986 108.7592714   4.0594617  75.7001083 108.7804938
   2.9380645  74.8081254 109.2690798   1.1291574  72.6858569 108.9452115
   0.5341506  72.9663581 108.2498603   0.8441270  73.1752470 109.7168856
   2.8887081  85.9547366  94.6658695   2.8100712  85.6207230  95.5594453
   3.7096748  86.4469134  94.6650167   5.5865272  78.8209105 107.8735013
   5.5541592  77.8825106 108.0594697   6.1965896  78.8993142 107.1400838
   5.7359761  75.6120149 107.9193297   5.2198809  74.8278605 107.7323225
   6.6199709  75.2838865 108.0839816   3.3970487  69.3561164 103.8789109
   3.1995309  69.0476252 104.7632441   4.0070193  70.0822803 104.0087039
  11.4041822  79.8825112 107.0141050  12.1345210  79.6210400 107.5748753
  10.7948767  79.1453834 107.0543118   9.4857119  78.0232975 107.6115501
   8.7590283  77.8888940 107.0031993   9.0704406  78.3309803 108.4172219
   2.5322941  71.3470596 101.1364305   1.9521610  72.0055400 100.7542357
   2.2658874  70.5247941 100.7251722   0.9826508  70.7475654 103.3385625
   1.4826286  70.8592189 102.5299944   1.6262115  70.4436707 103.9786434
   1.3147819  73.5070687 100.1920653   0.4273674  73.7920337  99.9740848
   1.7301808  73.3464450  99.3447930   4.6662355  73.5317208 103.9074992
   5.4422745  74.0213660 104.1799609   3.9410489  73.9575262 104.3646862
   7.1034914  74.2444827 104.9648933   7.6979405  74.0040563 104.2542241
   7.1761498  73.5251957 105.5922469   1.2888843  79.0225223 100.4070943
   1.2324044  79.4793774  99.5678576   1.8417185  78.2615907 100.2293786
   5.0993649  74.8114954 101.2321063   4.8430583  74.4111590 102.0629270
   4.4746517  75.5258748 101.1071202   9.4105987  77.5511028 103.7392354
   8.8505545  77.6204217 104.5123916   8.8049490  77.3752012 103.0191850
   2.3677730  83.7097891  96.3367133   3.2023334  83.2779089  96.1544608
   2.2062073  83.5379904  97.2644028   2.0223622  80.2130004  97.7023472
   1.9672426  80.0474275  96.7611917   1.3969677  80.9206037  97.8585662
  10.9962005  94.2267542 106.4322310  11.6340415  94.1074289 105.7285650
  10.8782848  95.1748386 106.4910262   7.8051711  94.1794970 106.3683835
   7.4670223  94.0636034 105.4804369   8.6741480  93.7786135 106.3484841
   3.6638527  96.0330446 102.3580726   3.1003392  95.9420383 101.5897013
   3.5490922  95.2130351 102.8383218   8.2871494  95.3329821 112.3270040
   8.2760135  94.9382620 111.4550544   8.4492134  94.5995894 112.9203812
   1.2102959  97.5281638 105.1964946   2.0024251  97.1872462 104.7811245
   1.4499609  97.6376613 106.1167099   9.2438086  99.7001414  97.6695190
   8.5926066 100.2855494  97.2829204  10.0382449 100.2307609  97.7290228
   3.1693713  96.7890551  98.0682325   3.9424589  96.2419538  97.9295201
   3.5219112  97.6534800  98.2796786   5.0078756  98.1166933 111.2749224
   4.7168622  99.0212564 111.1595890   5.6435740  98.1583461 111.9893294
   5.9334962  95.4943782 107.8650584   6.5298535  95.2699804 107.1507547
   5.9909934  94.7528527 108.4676032   5.5059991  92.9483217  95.7000775
   5.7585511  92.4264738  94.9384238   4.5684550  92.7849363  95.8027458
  10.5503274  91.9518995 103.5075518  11.3366363  91.5338419 103.1565935
  10.8141978  92.8565088 103.6757166  10.7213351  97.3891846  98.2064175
  10.0859184  97.4626472  98.9185079  10.3910757  97.9785445  97.5283254
  15.9511701  91.8894229 104.4108496  16.6836873  91.3193445 104.6446326
  15.1951056  91.5015829 104.8515002   5.2256280  94.8511323  97.9025150
   5.1092538  94.1756226  98.5706234   5.3358539  94.3643697  97.0857303
   7.5687820  94.3121470 101.6071839   7.2046028  93.7852091 102.3184760
   8.4254936  93.9219939 101.4338324  13.4737121  85.6015803 108.8703105
  13.1420446  86.4711214 108.6464320  12.8782734  85.2852087 109.5497135
   7.2093307  89.3411370  96.6033187   7.3767710  90.2091606  96.9703658
   7.0190477  89.5038652  95.6794477   9.9668641  97.8028349 108.2699018
   9.6669364  98.7053388 108.1614825   9.6219700  97.5360532 109.1220171
   3.4181122  94.2542146 104.3035722   2.4931619  94.1218360 104.5113414
   3.6665535  95.0336365 104.8005665  13.3665784  90.3210889 105.9496455
  12.4582662  90.2526297 105.6555216  13.3153380  90.7982834 106.7778281
   7.1882528  91.7969027  97.5879854   7.0682154  92.2426078  98.4265334
   6.4935117  92.1454345  97.0293392   4.9489420 104.5672669 101.2369985
   4.8713450 105.5180494 101.3158466   4.3451064 104.2218542 101.8944912
   7.4406650  91.7400535 113.8931352   6.6639984  92.2994455 113.8834217
   8.0797213  92.2257318 114.4146222  15.2327431  88.5227327 107.7274329
  14.5901811  88.8159861 107.0814124  14.7282359  88.4080248 108.5327526
  12.8867594  92.2690501  98.4160188  13.7985451  92.5017887  98.2407886
  12.3777242  92.8527545  97.8535267   5.6953023  94.5485988 113.4549319
   6.4367707  95.0871032 113.1784143   4.9890008  95.1752277 113.6120871
  11.1708362  96.6915128 112.0521481  11.5791718  96.2497539 111.3076113
  10.4485624  96.1167756 112.3055674   7.5239432  91.6287735 109.4255038
   8.3700627  92.0527149 109.5689687   7.4638070  90.9721359 110.1193601
  11.4937177  97.2516319 105.8073770  10.8646039  97.4162033 105.1049838
  11.1062839  97.6657929 106.5784734  15.3726409  98.1870757 103.1618133
  14.6877447  98.5669658 102.6115167  15.4570258  98.7966084 103.8950081
  10.6738878  89.2892104 111.0836211  10.4299809  90.0434164 110.5470487
  10.9498808  89.6677451 111.9183458  12.6277340  95.8330716 109.7613477
  12.8394236  96.4762476 109.0847858  12.5807089  94.9993032 109.2935407
  10.2303569  88.4448537 106.6650049   9.3688048  88.7429790 106.9566787
  10.2566004  88.6618935 105.7331082   7.0465139  96.9890727 103.0723855
   7.5103484  97.2678430 102.2828477   6.7821937  96.0874172 102.8896945
   3.9389220  96.5362209 106.0103618   4.5090577  96.9649477 105.3721103
   4.5297332  96.2544793 106.7087804   5.9834025  93.1113879  99.8813420
   6.6858068  93.5634923 100.3487346   5.6514653  92.4697698 100.5093313
   4.4314386  91.7025636 114.2564629   3.8013047  92.3841917 114.4900026
   4.3250474  91.5908718 113.3117768  13.7423168  98.7102671 107.9335834
  14.5640612  98.3082859 107.6518516  13.7385571  98.6070905 108.8851950
   1.6774104  91.7342011 102.1414030   0.8805267  91.8460706 102.6597526
   1.4499696  92.0728664 101.2754921   7.5079772  98.2586715 110.0896545
   7.5724204  98.7207122 110.9254717   6.7990696  97.6284080 110.2178855
  21.8329161  95.0541420 104.2820806  21.0792870  94.4848818 104.1264810
  21.9676703  95.0204084 105.2291441   7.2227789  99.9254822  99.9575525
   7.0873464 100.7706358 100.3860373   7.7637602 100.1274100  99.1941459
   3.7095129  86.0046402 116.6189880   3.3162075  85.4512600 117.2937525
   4.5261269  86.3156980 117.0096398   0.6757187  97.4430260 100.5303450
   1.1881707  98.2373510 100.6809015   1.3279900  96.7456551 100.4637052
   2.4852071 100.5596016 102.6126203   2.6618700 101.4813981 102.4247187
   3.2808905 100.2454436 103.0420583   6.6263090  87.4204281 114.2110137
   7.3672803  88.0211434 114.1314599   6.8581013  86.6781919 113.6528180
   1.7704428  92.6060648 112.4888367   1.6557943  91.7045906 112.7895466
   0.9148946  92.8524345 112.1373183   8.8496266 100.5478389 114.0875867
   8.4060120  99.7614767 113.7696772   9.5113479 100.7357539 113.4219758
   3.6083387 102.0774190 108.6136546   4.1590812 101.9491254 107.8413540
   2.7694863 102.3769079 108.2631439  10.9477504 100.8281189 112.1157269
  10.9295979 101.6490070 111.6237538  11.8697424 100.7035264 112.3407410
   7.4050558  98.3425318 112.9580777   7.9378895  97.5813606 112.7280085
   6.8764639  98.0498970 113.7004931  10.5720253  83.4485384 108.4874419
  10.2284522  84.3387026 108.4113529  10.9399216  83.2587042 107.6244004
  10.5370536  93.4393995  96.9946854  10.0217159  94.2098600  97.2335241
  10.2647844  92.7659131  97.6179915   8.1217647  88.2843696 102.0532092
   7.2659243  87.8950546 101.8737731   8.5344598  88.3635657 101.1931878
   9.6516793  85.8190039 106.4523652   9.1481589  85.7820174 105.6391457
   9.9447400  86.7282782 106.5120309   5.8959679  85.9028769 105.4589834
   6.7612676  85.7071578 105.0995723   5.9637188  85.6739121 106.3859190
  15.5104810  96.1926350  98.9300027  14.7334253  95.8537509  98.4855189
  16.1896291  96.1978973  98.2554992  10.3256839  91.3121087  98.8206635
  10.0206974  91.6267236  99.6716778  11.2787281  91.3902507  98.8633968
   8.7703271  97.4711310 100.4699589   8.2424632  96.7364070 100.1572826
   8.2690773  98.2485987 100.2239557  13.7496117  95.6660331 105.5866635
  13.0919791  96.3559592 105.6746764  14.5536516  96.0556763 105.9300622
   3.5021998  88.1330977 102.8306200   4.0765750  87.9106158 102.0979393
   4.0892981  88.2019671 103.5834802  12.5601575  94.0204704 103.6370577
  13.0733457  94.6534696 104.1392287  13.2102799  93.4205899 103.2713937
   3.8291585  90.1635438  96.8502086   2.9928898  90.5010124  97.1711360
   3.6896355  90.0284418  95.9129223   5.8044666  85.0072226 101.5581270
   5.1509078  84.6921243 100.9337885   5.7625140  84.3847966 102.2841093
   6.9155871  95.2891521  93.4734562   6.0082933  95.0580774  93.6725711
   7.4126903  94.4929140  93.6608543   9.8223950 103.9989028  96.3931248
   9.1485648 104.3020725  97.0016206  10.2089772 104.8018108  96.0436705
   9.0382406  91.4954159 105.8828917   8.1204968  91.7169106 105.7250606
   9.4542550  91.5700470 105.0240625   9.8217454  92.8945575 101.0131598
  10.5689273  93.4066972 100.7038720  10.0909044  92.5729628 101.8735991
   8.0944104  95.3904116  97.9958552   7.1855324  95.1063148  98.0931022
   8.1239188  95.8103194  97.1361859  13.3263372  99.0010705 101.7649720
  12.8725699  98.1601615 101.8214910  12.6957338  99.6372103 102.1024500
  12.2696291  89.9302691 102.9950387  11.5319048  89.4180077 103.3260630
  12.5223065  89.4903073 102.1833664  11.7696311 100.8387202 102.6999538
  12.0619285 101.3992259 101.9811903  12.2794931 101.1315763 103.4552697
  12.3707919  82.7078943 103.5892156  12.6766795  81.8476307 103.3018071
  13.0960523  83.2996563 103.3891150   6.6428998  93.0032736 104.0968347
   6.6977608  92.0506573 104.0210824   5.8320200  93.1592175 104.5809646
   7.7920192  96.9312859  95.3346631   7.3539622  96.2148718  94.8752268
   8.5330633  97.1588974  94.7731722   4.5821358  91.6209796 101.8558726
   3.7689224  91.9203967 102.2623918   5.0780352  91.2265485 102.5733208
   6.7329936 101.6167553 103.7892991   6.6906115 101.8428399 102.8601523
   7.6492635 101.3830927 103.9378792  10.1795570  92.0851620 110.6873620
  10.5344958  92.3123094 111.5468086  10.8267701  92.4169997 110.0650875
  15.9093307  95.2070056 101.3922949  15.7711205  95.3971652 100.4644138
  15.5529526  95.9689439 101.8491000   4.0735433  89.1928151 107.4719961
   4.7134812  89.0516911 106.7742925   3.2412964  88.9062665 107.0958563
  15.9362686  97.2746583 106.4034221  16.3699193  97.1821872 107.2517275
  16.6494267  97.2504084 105.7654237   4.8495737  98.4930582 103.5854954
   5.6436335  97.9980902 103.3837529   4.1387429  97.9648445 103.2222659
   9.6690581 100.8748677 107.9367321   9.7227604 101.4439614 108.7045037
   8.8005363 101.0450562 107.5721358   1.0764049  89.1628476 102.2492948
   1.3370867  90.0773810 102.1402108   1.8981222  88.6952919 102.3989561
   2.5488975  90.5766234 109.4191773   3.2212028  90.3683596 108.7704421
   1.7218761  90.3788320 108.9797005  16.7978236  97.3170284 108.9367106
  16.9914126  98.2216094 109.1826381  16.6978854  96.8577703 109.7705691
   8.4514547  87.2028175 111.4357433   7.8042462  87.9018124 111.3421910
   9.2215562  87.6364318 111.8033682  11.8593345  97.4677027 114.5107987
  11.7078851  97.2387578 113.5938070  11.8498024  98.4247628 114.5239332
   8.6278681  95.0408939 109.4954253   9.5570741  95.1920099 109.3223220
   8.2069711  95.1292960 108.6402900   7.4267013  99.0659604 107.2652791
   7.2878099  98.6978388 108.1378729   6.6381609  99.5807243 107.0936749
   8.0215165 104.1668700  98.6078327   8.1966921 103.6956744  99.4223950
   7.3347953 104.7934467  98.8359588   8.9772228  98.4441207 104.6541629
   8.6422061  98.4041977 105.5499278   8.4776174  97.7785923 104.1812039
   2.9516472  93.8508837 110.1794210   2.8136270  93.1189075 110.7805749
   3.8621395  93.7617737 109.8978397  11.9131420  95.7897241  94.9278688
  11.2960590  95.0644069  94.8311741  11.4447908  96.5506601  94.5845762
   5.5798773  93.5628796 109.6677889   6.2898391  92.9221988 109.6264508
   5.5368081  93.8141691 110.5904070  13.5685551 100.4996149 112.5884469
  13.5098098  99.8155369 111.9215052  13.9705070 101.2415139 112.1365095
   4.2927707  90.5494014 111.4873529   3.7565064  90.0984752 112.1395125
   3.7044415  90.6839923 110.7443993   2.5876250 107.3158063 105.3818187
   2.8272848 107.9476587 106.0597206   1.7445447 106.9646103 105.6683547
   3.7029966  90.0082665  94.0499992   2.8259432  89.8871466  93.6862239
   4.1787719  89.2168744  93.7978881  13.5702959  98.4635733 110.8198448
  12.6829737  98.1261655 110.9424847  14.1401510  97.7318764 111.0567214
   7.1004112 103.1237186 107.7859691   7.0274283 103.9292157 108.2978996
   6.6581505 103.3229151 106.9607713   6.8893892 102.3608956 101.2962513
   6.1061414 102.9030636 101.3900737   7.5886637 102.8782935 101.6956754
  10.1990542  88.1703585 103.9396718  10.6959241  87.4173547 103.6197789
   9.4277523  88.2067902 103.3739928  18.0520299  93.8743951 105.5815010
  18.0410175  94.7568666 105.2108943  17.1837679  93.5215501 105.3869547
   9.5602796 103.0224020 109.9417850  10.2730768 103.6571484 109.8693752
   9.0692824 103.1187886 109.1257852  11.2820322  96.9275272 101.5135142
  10.3476601  97.0476735 101.3439846  11.4596991  96.0247739 101.2495152
   6.7825510  90.3120968 103.6668403   6.4123298  89.7592008 104.3549309
   7.2784603  89.7079102 103.1143403  14.6692874  92.7692592 102.0485176
  15.1353326  93.6020583 101.9745479  15.1200374  92.3037573 102.7530434
   4.6114709 100.7718463 110.7623421   5.3124169 101.4054946 110.9152815
   4.1409824 101.1133195 110.0019060  12.7369105  99.1136413  99.0471328
  13.0128949  98.9993007  99.9565202  11.8673604  98.7153898  99.0083501
  12.6409537  85.1373179 106.0876077  11.7272616  85.3677405 106.2558284
  13.0702638  85.2211623 106.9390110  12.4115995  93.3263071 108.5875971
  11.7587445  93.5738978 107.9328424  12.7896375  92.5127209 108.2538449
   9.3723169 103.3622764 102.6904142   9.5545563 102.5444420 103.1531894
  10.1956155 103.5790456 102.2529032   9.7065334 102.2890949  99.9519190
  10.2353101 101.7783403  99.3389352   9.9693554 101.9733479 100.8164723
   8.4603568  94.0682882 115.0742008   7.7844205  93.9677011 115.7444384
   9.2831202  93.9122095 115.5378006   3.0621082 103.3406066 102.7116966
   2.3931458 103.8252193 102.2281006   2.9233952 103.5875286 103.6260345
   7.2026351 105.3749809 109.3099624   7.7544659 105.5381431 110.0748710
   7.5432544 105.9654247 108.6379649   2.1790844  87.7224959 109.9121509
   2.2432171  88.5839790 109.4998907   2.1157964  87.1098960 109.1793868
   1.6543117  89.7948091 113.5594543   2.2815155  89.4125169 114.1732068
   0.7971036  89.5762293 113.9250236  12.0537225 100.2011067 115.1648279
  12.5977129 100.8141025 114.6703234  11.4724070 100.7590645 115.6815292
  10.3394738 103.3231785 106.2963307  10.2145878 102.5221524 105.7874252
  10.9973829 103.8177978 105.8077276   1.9602906  89.6780517 105.4740447
   1.2389492  90.2916485 105.3347920   2.7496162  90.2138282 105.3957093
  12.4029647 101.1240805 107.9242857  11.4559982 101.0046156 107.8521183
  12.7512420 100.2363303 108.0069118   4.7629220  87.0134944 111.7481098
   5.2863622  87.2597240 112.5107408   4.5441553  87.8454978 111.3284236
   9.4076080 100.9193521 104.1247209   9.2601042  99.9910228 104.3054779
  10.2329573 100.9413612 103.6404284   3.2738324  89.5711588  99.9827701
   3.6134397  90.0997509  99.2606309   3.7210445  89.9091994 100.7586268
  13.0110202 101.7422080 105.2112082  13.9356749 101.5364941 105.0736533
  12.8425505 101.4938481 106.1201423   5.9681765  87.9548639 109.4330769
   5.6278585  87.1556452 109.8351449   5.2620771  88.2550350 108.8607602
   6.6198237  85.0397951 107.8858092   7.4424306  84.5658429 107.7636982
   6.8636300  85.8188435 108.3856778   5.2606471  88.0686210  98.1820994
   5.9814834  88.4467462  97.6784711   4.6371775  88.7875086  98.2855972
   9.4037594  88.7731359  99.1179326   9.6201209  89.6555996  98.8168154
   8.9231661  88.3817572  98.3884968   4.1436816  91.7317072 105.6950071
   3.9981396  92.0457375 106.5874352   3.6662019  92.3501972 105.1420969
   6.0033198  88.7219620 105.7430960   5.9894767  87.8260713 105.4063258
   6.7205627  88.7290283 106.3769246   7.8559329  89.1556960 107.7884088
   7.5977107  90.0774031 107.7868418   7.3244370  88.7587394 108.4784552
  12.8005518 102.2607747 100.5674173  12.9742395 101.6954170  99.8148025
  13.2934409 103.0608642 100.3853663   5.4070094  87.6034000 101.0118530
   5.5286006  86.6750646 101.2109418   5.1172137  87.6172686 100.0996846
   8.2761285  85.2888910 104.1485250   8.2982982  85.3528244 103.1937230
   8.6929344  84.4493419 104.3425756  18.6544909  95.0244170 102.1864473
  19.0976055  94.2751495 101.7883596  17.7771419  95.0154306 101.8038205
  13.7880690 101.5774511  97.6671071  14.4831595 102.1981204  97.8858386
  14.1303841 100.7269863  97.9423449  15.6872114  99.0274217  99.1958402
  16.2123438  99.3661490  98.4707722  15.5994466  98.0921232  99.0121537
   7.3492162 102.9408291 111.3248279   7.6579289 102.6957437 112.1970978
   8.1467644 103.1454929 110.8367149   7.3712774 105.0946200 103.5553655
   6.9317765 104.6022579 104.2486512   8.1220891 104.5519168 103.3145731
   4.8186646 100.6384209 105.6275957   4.1966656  99.9754914 105.3278185
   5.4891513 100.6645341 104.9449605   4.8911174  89.1165997 115.2208463
   4.9399329  89.9928120 114.8386233   5.4333688  88.5743390 114.6480106
  15.3766020  99.6607121 114.5009600  14.5861563  99.6431259 113.9614099
  15.1399374 100.1995414 115.2558637  15.4963895  96.5099587 111.8142329
  15.5461900  96.3449594 112.7557851  15.3877818  95.6426846 111.4240209
   4.3800153  99.1888133  99.1034417   4.5288274  99.8723597  98.4501090
   5.1866597  99.1693223  99.6183873  12.7867657  92.4930515 113.1301635
  13.6877520  92.3536980 112.8385633  12.8615632  92.6584970 114.0699813
   7.1210462  89.8697370 111.9754822   6.2513772  90.1630936 111.7037410
   7.3569943  90.4537815 112.6962085  16.9982091  98.9296529 112.0584350
  16.7066900  99.2926509 112.8947811  16.3854223  98.2163537 111.8797682
  18.1977774  96.4949408 104.5786920  19.0324665  96.9339212 104.7424481
  18.3336903  96.0188061 103.7595166  15.2469280  94.0529143 110.5264408
  15.7223401  94.2456789 109.7183259  14.3234845  94.1088329 110.2807792
   2.1352786  95.2153310 100.1095486   1.8898828  94.3115640 100.3075697
   2.3048701  95.2170461  99.1674964   9.8249496  86.0876987 109.4920242
  10.3431440  86.8238014 109.1666731   9.4704629  86.3940980 110.3267001
   1.4048434  90.9481668  97.6081648   0.7117679  91.0226023  96.9521684
   1.1600186  90.1842012  98.1303165  10.0762090  82.5077269 105.0121139
  10.3563844  81.8400458 105.6381565  10.8612697  82.7006365 104.4995802
   7.8795559 101.6836263  96.5746165   7.3069526 102.3026450  96.1216637
   8.4528353 102.2335625  97.1086087  13.9470949  90.9294903 108.7592714
  14.8988372  91.0293001 108.7804938  13.7774399  90.1373172 109.2690798
  11.9685328  88.0150486 108.9452115  11.3735260  88.2955499 108.2498603
  11.6835025  88.5044387 109.7168856  11.0992819 101.9673413  97.7054747
  12.0323492 101.9018975  97.9087623  11.0116031 102.8029680  97.2469280
  13.7280835 101.2839284  94.6658695  13.6494467 100.9499147  95.5594453
  14.5490502 101.7761052  94.6650167  16.4259027  94.1501023 107.8735013
  16.3935347  93.2117024 108.0594697  17.0359650  94.2285060 107.1400838
   8.2642357  93.0197076  93.9162217   9.2101462  92.8903284  93.9850635
   7.8856602  92.2811738  94.3931646  16.5753515  90.9412066 107.9193297
  16.0592564  90.1570523 107.7323225  17.4593464  90.6130783 108.0839816
  14.2364242  84.6853082 103.8789109  14.0389063  84.3768170 104.7632441
  14.8463948  85.4114721 104.0087039  22.2435576  95.2117030 107.0141050
  22.9738965  94.9502318 107.5748753  21.6342522  94.4745752 107.0543118
  20.3250873  93.3524892 107.6115501  19.5984037  93.2180857 107.0031993
  19.9098160  93.6601721 108.4172219   8.1481050  97.0714822 115.3762874
   9.0684059  97.2493421 115.5702921   8.1130633  96.1270867 115.2242574
   6.4485275  90.9447052  93.8517103   5.5416730  90.6480165  93.9279816
   6.7261256  90.6476870  92.9851389   1.1443122  94.9815857 108.0185656
   1.3629132  95.9132964 108.0373689   1.5568896  94.6223831 108.8040459
   8.0647340  85.4883942 100.0061344   7.2548069  85.1431027 100.3816590
   8.7531757  85.1791486 100.5948955   9.9937889  84.5661989 101.6285641
  10.5468927  84.9857442 102.2875664  10.2307975  83.6397737 101.6708597
   6.0170988  90.5549062 117.4088404   5.9167715  91.5043419 117.3400496
   5.7992530  90.2267301 116.5364475   5.2184059  87.8033987  93.9929082
   6.0803223  88.1288886  94.2524899   5.4034403  87.0165483  93.4802148
  13.3716696  86.6762514 101.1364305  12.7915365  87.3347318 100.7542357
  13.1052628  85.8539859 100.7251722  11.8220262  86.0767572 103.3385625
  12.3220040  86.1884106 102.5299944  12.4655870  85.7728625 103.9786434
   5.8802258  93.9846201 116.2253466   5.3969340  94.7846561 116.4317355
   5.9663197  93.9954146 115.2720910   1.8075595  97.8750736 108.2621900
   2.7618849  97.8434678 108.1951831   1.6088119  97.4141360 109.0772126
   2.3974977  96.4451852 110.8292698   3.2167866  96.9395931 110.8527535
   2.6711785  95.5283820 110.8010265  12.1541574  88.8362604 100.1920653
  11.2667429  89.1212255  99.9740848  12.5695563  88.6756368  99.3447930
  15.5056110  88.8609125 103.9074992  16.2816500  89.3505578 104.1799609
  14.7804244  89.2867180 104.3646862  17.9428668  89.5736745 104.9648933
  18.5373159  89.3332480 104.2542241  18.0155252  88.8543875 105.5922469
  11.2984787  98.6007279  94.2868673  12.0020637  98.8057282  94.9026329
  10.5747436  99.1684041  94.5517757  12.1282597  94.3517140 100.4070943
  12.0717799  94.8085692  99.5678576  12.6810940  93.5907825 100.2293786
  15.9387403  90.1406872 101.2321063  15.6824338  89.7403508 102.0629270
  15.3140271  90.8550666 101.1071202  20.2499741  92.8802945 103.7392354
  19.6899299  92.9496135 104.5123916  19.6443245  92.7043930 103.0191850
   3.3194950 104.3139672 105.4910540   3.2027334 105.2585105 105.3889231
   2.4987396 104.0113234 105.8796340  13.2071485  99.0389808  96.3367133
  14.0417088  98.6071007  96.1544608  13.0455827  98.8671822  97.2644028
  12.8617377  95.5421922  97.7023472  12.8066181  95.3766193  96.7611917
  12.2363432  96.2497954  97.8585662  10.1763284  97.8470833 117.0277035
  11.0454444  98.0211486 116.6663670   9.6970035  98.6665250 116.9052765
   6.1713502  85.0430031  97.2808791   6.1592172  85.9871870  97.4377062
   7.0636924  84.8600176  96.9868252   4.3449464 104.9667934 108.7066469
   5.2476711 104.9991545 109.0232964   4.1186834 104.0368385 108.7212805
   6.1003066 103.7198921 105.3676547   5.1498697 103.7200783 105.2540920
   6.4035552 102.9731655 104.8512582   9.9865622  81.6372807 101.5354728
   9.2198017  81.0831294 101.6811410  10.3976327  81.7094676 102.3968879
   1.9907383  87.9257603 115.6259909   2.8538844  87.5694408 115.8363233
   1.4172793  87.5871498 116.3135313  21.8355760 109.5559459 106.4322310
  22.4734170 109.4366207 105.7285650  21.7176603 110.5040303 106.4910262
  18.6445466 109.5086887 106.3683835  18.3063977 109.3927952 105.4804369
  19.5135234 109.1078053 106.3484841  14.5032282 111.3622364 102.3580726
  13.9397147 111.2712301 101.5897013  14.3884677 110.5422268 102.8383218
  19.1265249 110.6621739 112.3270040  19.1153890 110.2674537 111.4550544
  19.2885888 109.9287812 112.9203812  12.0496714 112.8573555 105.1964946
  12.8418005 112.5164380 104.7811245  12.2893364 112.9668530 106.1167099
  20.0831840 115.0293332  97.6695190  19.4319820 115.6147412  97.2829204
  20.8776203 115.5599526  97.7290228  14.0087467 112.1182469  98.0682325
  14.7818343 111.5711456  97.9295201  14.3612866 112.9826718  98.2796786
  15.8472510 113.4458851 111.2749224  15.5562376 114.3504482 111.1595890
  16.4829494 113.4875379 111.9893294  16.7728717 110.8235699 107.8650584
  17.3692289 110.5991722 107.1507547  16.8303688 110.0820445 108.4676032
  16.3453745 108.2775135  95.7000775  16.5979266 107.7556656  94.9384238
  15.4078304 108.1141280  95.8027458  21.3897028 107.2810913 103.5075518
  22.1760117 106.8630336 103.1565935  21.6535732 108.1857005 103.6757166
  21.5607105 112.7183763  98.2064175  20.9252938 112.7918390  98.9185079
  21.2304512 113.3077362  97.5283254  26.7905455 107.2186146 104.4108496
  27.5230627 106.6485363 104.6446326  26.0344811 106.8307747 104.8515002
  16.0650034 110.1803241  97.9025150  15.9486292 109.5048144  98.5706234
  16.1752294 109.6935615  97.0857303  18.4081575 109.6413388 101.6071839
  18.0439782 109.1144009 102.3184760  19.2648691 109.2511857 101.4338324
  24.3130876 100.9307720 108.8703105  23.9814200 101.8003131 108.6464320
  23.7176489 100.6144004 109.5497135  18.0487062 104.6703288  96.6033187
  18.2161464 105.5383524  96.9703658  17.8584231 104.8330569  95.6794477
  20.8062395 113.1320266 108.2699018  20.5063118 114.0345305 108.1614825
  20.4613455 112.8652450 109.1220171  14.2574877 109.5834063 104.3035722
  13.3325373 109.4510277 104.5113414  14.5059290 110.3628283 104.8005665
  24.2059539 105.6502807 105.9496455  23.2976416 105.5818215 105.6555216
  24.1547135 106.1274752 106.7778281  18.0276283 107.1260945  97.5879854
  17.9075908 107.5717996  98.4265334  17.3328871 107.4746263  97.0293392
  11.6183688 109.2267337 105.1379511  11.7476069 109.4801816 106.0518923
  10.9381139 109.8195045 104.8184166  15.7883175 119.8964587 101.2369985
  15.7107205 120.8472412 101.3158466  15.1844819 119.5510459 101.8944912
  18.2800405 107.0692452 113.8931352  17.5033739 107.6286372 113.8834217
  18.9190968 107.5549235 114.4146222  26.0721185 103.8519245 107.7274329
  25.4295566 104.1451778 107.0814124  25.5676114 103.7372165 108.5327526
  23.7261349 107.5982418  98.4160188  24.6379205 107.8309805  98.2407886
  23.2170996 108.1819462  97.8535267  16.5346777 109.8777906 113.4549319
  17.2761461 110.4162950 113.1784143  15.8283762 110.5044194 113.6120871
  22.0102117 112.0207046 112.0521481  22.4185473 111.5789457 111.3076113
  21.2879378 111.4459674 112.3055674  18.3633187 106.9579653 109.4255038
  19.2094382 107.3819066 109.5689687  18.3031824 106.3013277 110.1193601
  22.3330931 112.5808237 105.8073770  21.7039794 112.7453951 105.1049838
  21.9456593 112.9949846 106.5784734  26.2120163 113.5162675 103.1618133
  25.5271201 113.8961576 102.6115167  26.2964012 114.1258001 103.8950081
  21.5132632 104.6184021 111.0836211  21.2693564 105.3726082 110.5470487
  21.7892563 104.9969369 111.9183458  23.4671095 111.1622634 109.7613477
  23.6787990 111.8054393 109.0847858  23.4200843 110.3284950 109.2935407
  21.0697324 103.7740454 106.6650049  20.2081803 104.0721708 106.9566787
  21.0959758 103.9910853 105.7331082  17.8858893 112.3182645 103.0723855
  18.3497239 112.5970348 102.2828477  17.6215691 111.4166089 102.8896945
  14.7782974 111.8654126 106.0103618  15.3484331 112.2941395 105.3721103
  15.3691086 111.5836711 106.7087804  16.8227779 108.4405797  99.8813420
  17.5251823 108.8926841 100.3487346  16.4908408 107.7989616 100.5093313
  15.2708141 107.0317554 114.2564629  14.6406801 107.7133835 114.4900026
  15.1644229 106.9200635 113.3117768  10.5653113 106.6989350 105.1830554
   9.7752167 106.9546878 104.7070664  11.0564361 107.5137688 105.2882594
  24.5816923 114.0394589 107.9335834  25.4034366 113.6374776 107.6518516
  24.5779326 113.9362823 108.8851950  12.5167859 107.0633929 102.1414030
  11.7199022 107.1752623 102.6597526  12.2893451 107.4020581 101.2754921
  18.3473526 113.5878632 110.0896545  18.4117959 114.0499040 110.9254717
  17.6384450 112.9575997 110.2178855   8.8490816 106.9519840 107.6145544
   9.0998855 107.8366850 107.8803120   9.3850365 106.7724442 106.8420636
  32.6722916 110.3833337 104.2820806  31.9186624 109.8140736 104.1264810
  32.8070457 110.3496002 105.2291441  18.0621544 115.2546740  99.9575525
  17.9267219 116.0998276 100.3860373  18.6031356 115.4566017  99.1941459
  14.5488883 101.3338320 116.6189880  14.1555829 100.7804518 117.2937525
  15.3655024 101.6448898 117.0096398  11.5150941 112.7722178 100.5303450
  12.0275462 113.5665428 100.6809015  12.1673654 112.0748468 100.4637052
  13.3245826 115.8887934 102.6126203  13.5012454 116.8105899 102.4247187
  14.1202659 115.5746353 103.0420583  17.4656844 102.7496199 114.2110137
  18.2066558 103.3503352 114.1314599  17.6974767 102.0073837 113.6528180
  12.6098182 107.9352566 112.4888367  12.4951698 107.0337823 112.7895466
  11.7542700 108.1816263 112.1373183  19.6890020 115.8770306 114.0875867
  19.2453874 115.0906685 113.7696772  20.3507234 116.0649457 113.4219758
  14.4477141 117.4066108 108.6136546  14.9984567 117.2783171 107.8413540
  13.6088617 117.7060997 108.2631439  21.7871258 116.1573106 112.1157269
  21.7689734 116.9781987 111.6237538  22.7091178 116.0327181 112.3407410
  18.2444312 113.6717236 112.9580777  18.7772649 112.9105524 112.7280085
  17.7158394 113.3790888 113.7004931  21.4114007  98.7777302 108.4874419
  21.0678277  99.6678943 108.4113529  21.7792970  98.5878959 107.6244004
   9.4799858 111.1010832 101.3063021  10.3175080 111.5107840 101.0896729
   9.6578126 110.1610274 101.2763215  21.3764290 108.7685913  96.9946854
  20.8610914 109.5390517  97.2335241  21.1041599 108.0951049  97.6179915
  18.9611401 103.6135614 102.0532092  18.1052997 103.2242464 101.8737731
  19.3738353 103.6927574 101.1931878  20.4910548 101.1481957 106.4523652
  19.9875343 101.1112092 105.6391457  20.7841155 102.0574700 106.5120309
  16.7353434 101.2320687 105.4589834  17.6006430 101.0363495 105.0995723
  16.8030943 101.0031038 106.3859190  26.3498564 111.5218267  98.9300027
  25.5728007 111.1829427  98.4855189  27.0290045 111.5270891  98.2554992
  21.1650593 106.6413005  98.8206635  20.8600729 106.9559154  99.6716778
  22.1181035 106.7194425  98.8633968  19.6097025 112.8003228 100.4699589
  19.0818387 112.0655988 100.1572826  19.1084528 113.5777905 100.2239557
  24.5889871 110.9952249 105.5866635  23.9313546 111.6851510 105.6746764
  25.3930270 111.3848681 105.9300622  14.3415753 103.4622894 102.8306200
  14.9159505 103.2398076 102.0979393  14.9286735 103.5311589 103.5834802
  23.3995330 109.3496621 103.6370577  23.9127212 109.9826613 104.1392287
  24.0496554 108.7497817 103.2713937  14.6685340 105.4927355  96.8502086
  13.8322652 105.8302042  97.1711360  14.5290110 105.3576335  95.9129223
  16.6438420 100.3364143 101.5581270  15.9902833 100.0213161 100.9337885
  16.6018895  99.7139884 102.2841093  17.7549625 110.6183438  93.4734562
  16.8476687 110.3872692  93.6725711  18.2520657 109.8221058  93.6608543
  20.6617704 119.3280946  96.3931248  19.9879403 119.6312642  97.0016206
  21.0483526 120.1310026  96.0436705  19.8776161 106.8246077 105.8828917
  18.9598722 107.0461024 105.7250606  20.2936304 106.8992387 105.0240625
  20.6611209 108.2237493 101.0131598  21.4083028 108.7358890 100.7038720
  20.9302798 107.9021545 101.8735991  18.9337859 110.7196033  97.9958552
  18.0249078 110.4355066  98.0931022  18.9632943 111.1395112  97.1361859
  24.1657126 114.3302623 101.7649720  23.7119453 113.4893533 101.8214910
  23.5351093 114.9664021 102.1024500  23.1090046 105.2594609 102.9950387
  22.3712803 104.7471995 103.3260630  23.3616819 104.8194990 102.1833664
  22.6090065 116.1679119 102.6999538  22.9013040 116.7284177 101.9811903
  23.1188686 116.4607680 103.4552697  23.2101673  98.0370861 103.5892156
  23.5160550  97.1768224 103.3018071  23.9354278  98.6288481 103.3891150
   9.5026029 108.4401547 101.9773754   9.3050429 107.8470908 101.2524821
   8.9472693 108.1353758 102.6949693  17.4822753 108.3324654 104.0968347
  17.5371363 107.3798490 104.0210824  16.6713955 108.4884093 104.5809646
  18.6313947 112.2604777  95.3346631  18.1933376 111.5440636  94.8752268
  19.3724387 112.4880892  94.7731722  15.4215113 106.9501714 101.8558726
  14.6082978 107.2495884 102.2623918  15.9174107 106.5557402 102.5733208
  17.5723691 116.9459471 103.7892991  17.5299869 117.1720317 102.8601523
  18.4886389 116.7122845 103.9378792  21.0189324 107.4143538 110.6873620
  21.3738712 107.6415011 111.5468086  21.6661456 107.7461915 110.0650875
  26.7487061 110.5361974 101.3922949  26.6104960 110.7263570 100.4644138
  26.3923280 111.2981357 101.8491000  14.9129187 104.5220069 107.4719961
  15.5528567 104.3808828 106.7742925  14.0806718 104.2354583 107.0958563
  26.7756441 112.6038501 106.4034221  27.2092948 112.5113790 107.2517275
  27.4888022 112.5796001 105.7654237  15.6889491 113.8222500 103.5854954
  16.4830090 113.3272820 103.3837529  14.9781184 113.2940363 103.2222659
  20.5084336 116.2040595 107.9367321  20.5621358 116.7731531 108.7045037
  19.6399117 116.3742480 107.5721358  11.9972255 107.9665581  99.6614706
  11.0669843 107.9050037  99.8784668  12.0929727 107.4441534  98.8651348
  11.9157804 104.4920394 102.2492948  12.1764621 105.4065727 102.1402108
  12.7374976 104.0244837 102.3989561  13.3882729 105.9058151 109.4191773
  14.0605783 105.6975513 108.7704421  12.5612516 105.7080237 108.9797005
  27.6371991 112.6462202 108.9367106  27.8307881 113.5508012 109.1826381
  27.5372609 112.1869621 109.7705691  19.2908301 102.5320092 111.4357433
  18.6436216 103.2310042 111.3421910  20.0609317 102.9656236 111.8033682
  22.6987099 112.7968944 114.5107987  22.5472606 112.5679496 113.5938070
  22.6891779 113.7539546 114.5239332  19.4672436 110.3700857 109.4954253
  20.3964496 110.5212017 109.3223220  19.0463466 110.4584878 108.6402900
  18.2660767 114.3951522 107.2652791  18.1271853 114.0270306 108.1378729
  17.4775364 114.9099161 107.0936749  18.8608919 119.4960618  98.6078327
  19.0360675 119.0248661  99.4223950  18.1741707 120.1226384  98.8359588
  19.8165983 113.7733124 104.6541629  19.4815815 113.7333894 105.5499278
  19.3169928 113.1077840 104.1812039  13.7910226 109.1800754 110.1794210
  13.6530024 108.4480993 110.7805749  14.7015150 109.0909654 109.8978397
  22.7525174 111.1189159  94.9278688  22.1354345 110.3935987  94.8311741
  22.2841663 111.8798519  94.5845762  16.4192527 108.8920714 109.6677889
  17.1292146 108.2513906 109.6264508  16.3761835 109.1433608 110.5904070
  24.4079306 115.8288067 112.5884469  24.3491852 115.1447287 111.9215052
  24.8098824 116.5707057 112.1365095  15.1321461 105.8785932 111.4873529
  14.5958818 105.4276670 112.1395125  14.5438170 106.0131840 110.7443993
  13.4270005 122.6449981 105.3818187  13.6666603 123.2768505 106.0597206
  12.5839201 122.2938021 105.6683547  14.5423720 105.3374583  94.0499992
  13.6653186 105.2163384  93.6862239  15.0181473 104.5460661  93.7978881
  24.4096713 113.7927651 110.8198448  23.5223492 113.4553573 110.9424847
  24.9795264 113.0610682 111.0567214   6.0625860 110.1251743 104.1441500
   6.7496900 109.8113473 103.5562515   5.9073989 111.0293107 103.8708751
  10.8660582 105.0141939 108.5726523  10.7818771 104.4067609 107.8376933
  10.0443289 105.5050958 108.5736020  17.9397867 118.4529103 107.7859691
  17.8668038 119.2584075 108.2978996  17.4975260 118.6521069 106.9607713
  17.7287646 117.6900873 101.2962513  16.9455168 118.2322553 101.3900737
  18.4280391 118.2074853 101.6956754  21.0384296 103.4995503 103.9396718
  21.5352996 102.7465465 103.6197789  20.2671278 103.5359819 103.3739928
  28.8914054 109.2035868 105.5815010  28.8803930 110.0860584 105.2108943
  28.0231433 108.8507419 105.3869547  20.3996550 118.3515937 109.9417850
  21.1124522 118.9863402 109.8693752  19.9086579 118.4479803 109.1257852
  22.1214077 112.2567190 101.5135142  21.1870356 112.3768652 101.3439846
  22.2990745 111.3539657 101.2495152  17.6219265 105.6412886 103.6668403
  17.2517053 105.0883926 104.3549309  18.1178357 105.0371019 103.1143403
  25.5086628 108.0984509 102.0485176  25.9747080 108.9312501 101.9745479
  25.9594129 107.6329491 102.7530434  15.4508464 116.1010381 110.7623421
  16.1517923 116.7346864 110.9152815  14.9803579 116.4425112 110.0019060
  23.5762859 114.4428331  99.0471328  23.8522703 114.3284925  99.9565202
  22.7067358 114.0445815  99.0083501  23.4803291 100.4665096 106.0876077
  22.5666371 100.6969323 106.2558284  23.9096392 100.5503540 106.9390110
  23.2509750 108.6554988 108.5875971  22.5981200 108.9030896 107.9328424
  23.6290129 107.8419126 108.2538449  20.2116923 118.6914681 102.6904142
  20.3939318 117.8736337 103.1531894  21.0349909 118.9082374 102.2529032
  20.5459089 117.6182867  99.9519190  21.0746855 117.1075321  99.3389352
  20.8087308 117.3025397 100.8164723  19.2997323 109.3974799 115.0742008
  18.6237960 109.2968929 115.7444384  20.1224956 109.2414013 115.5378006
  11.0476182 115.6346736 107.6954524  11.6329618 114.8890424 107.8282428
  10.8501020 115.9450693 108.5791188  13.9014837 118.6697983 102.7116966
  13.2325212 119.1544111 102.2281006  13.7627707 118.9167204 103.6260345
   5.6393836 108.2052336 106.4158967   5.6777936 107.6715927 107.2096085
   5.1334129 107.6787542 105.7969944  18.0420105 120.7041727 109.3099624
  18.5938413 120.8673348 110.0748710  18.3826299 121.2946165 108.6379649
  13.0184599 103.0516877 109.9121509  13.0825925 103.9131707 109.4998907
  12.9551719 102.4390878 109.1793868  12.4936871 105.1240009 113.5594543
  13.1208910 104.7417086 114.1732068  11.6364790 104.9054211 113.9250236
  22.8930980 115.5302984 115.1648279  23.4370884 116.1432942 114.6703234
  22.3117825 116.0882563 115.6815292   9.2702414 106.9316438  99.4912898
   9.5655855 106.0227117  99.4379952   8.3690450 106.9104178  99.1693900
  21.1788493 118.6523702 106.2963307  21.0539632 117.8513442 105.7874252
  21.8367584 119.1469896 105.8077276  12.7996661 105.0072435 105.4740447
  12.0783247 105.6208402 105.3347920  13.5889917 105.5430200 105.3957093
  23.2423401 116.4532722 107.9242857  22.2953737 116.3338074 107.8521183
  23.5906174 115.5655220 108.0069118  15.6022974 102.3426861 111.7481098
  16.1257376 102.5889158 112.5107408  15.3835308 103.1746896 111.3284236
  10.9990256 104.6130536  99.6152223  10.6702962 103.7327915  99.4327329
  11.3529626 104.5578205 100.5028613  20.2469834 116.2485439 104.1247209
  20.0994797 115.3202146 104.3054779  21.0723328 116.2705529 103.6404284
  14.1132079 104.9003506  99.9827701  14.4528151 105.4289427  99.2606309
  14.5604199 105.2383912 100.7586268  23.8503956 117.0713997 105.2112082
  24.7750504 116.8656859 105.0736533  23.6819260 116.8230398 106.1201423
  16.8075520 103.2840556 109.4330769  16.4672340 102.4848369 109.8351449
  16.1014526 103.5842267 108.8607602  17.4591991 100.3689869 107.8858092
  18.2818061  99.8950347 107.7636982  17.7030055 101.1480353 108.3856778
  16.1000226 103.3978127  98.1820994  16.8208588 103.7759380  97.6784711
  15.4765530 104.1167004  98.2855972  20.2431349 104.1023276  99.1179326
  20.4594963 104.9847914  98.8168154  19.7625416 103.7109490  98.3884968
  14.9830570 107.0608989 105.6950071  14.8375151 107.3749292 106.5874352
  14.5055774 107.6793890 105.1420969  16.8426953 104.0511537 105.7430960
  16.8288522 103.1552631 105.4063258  17.5599381 104.0582201 106.3769246
  18.6953084 104.4848878 107.7884088  18.4370862 105.4065948 107.7868418
  18.1638124 104.0879312 108.4784552  23.6399272 117.5899665 100.5674173
  23.8136150 117.0246087  99.8148025  24.1328164 118.3900560 100.3853663
   9.4576232 109.6014334 108.6337732   8.9129700 110.3774142 108.7658006
  10.3355582 109.9485138 108.4756853  16.2463849 102.9325918 101.0118530
  16.3679760 102.0042564 101.2109418  15.9565891 102.9464604 100.0996846
  19.1155039 100.6180828 104.1485250  19.1376736 100.6820161 103.1937230
  19.5323098  99.7785337 104.3425756  29.4938664 110.3536088 102.1864473
  29.9369810 109.6043413 101.7883596  28.6165174 110.3446224 101.8038205
  24.6274445 116.9066429  97.6671071  25.3225350 117.5273122  97.8858386
  24.9697595 116.0561780  97.9423449  10.2442254 108.7284230 111.5267889
   9.5023990 108.8766865 112.1132519   9.9234998 108.9892496 110.6634638
  26.5265868 114.3566135  99.1958402  27.0517192 114.6953407  98.4707722
  26.4388221 113.4213150  99.0121537  18.1885917 118.2700208 111.3248279
  18.4973043 118.0249355 112.1970978  18.9861399 118.4746847 110.8367149
  18.2106529 120.4238118 103.5553655  17.7711519 119.9314497 104.2486512
  18.9614646 119.8811086 103.3145731  10.6898868 116.6149659 103.5578283
  11.5156888 116.3153431 103.1776927  10.3392920 115.8457281 104.0068072
  15.6580401 115.9676127 105.6275957  15.0360410 115.3046832 105.3278185
  16.3285268 115.9937259 104.9449605   8.8907473 114.5335985 104.5167217
   8.0539381 114.1058160 104.3351218   8.8631118 114.7268429 105.4538008
  15.7304928 104.4457915 115.2208463  15.7793084 105.3220038 114.8386233
  16.2727443 103.9035308 114.6480106  26.2159774 114.9899038 114.5009600
  25.4255318 114.9723177 113.9614099  25.9793129 115.5287332 115.2558637
  26.3357649 111.8391505 111.8142329  26.3855654 111.6741512 112.7557851
  26.2271573 110.9718764 111.4240209  15.2193908 114.5180050  99.1034417
  15.3682028 115.2015515  98.4501090  16.0260351 114.4985140  99.6183873
  23.6261412 107.8222433 113.1301635  24.5271274 107.6828898 112.8385633
  23.7009386 107.9876888 114.0699813  17.9604217 105.1989287 111.9754822
  17.0907526 105.4922854 111.7037410  18.1963697 105.7829732 112.6962085
  27.8375846 114.2588446 112.0584350  27.5460654 114.6218427 112.8947811
  27.2247977 113.5455454 111.8797682  29.0371528 111.8241326 104.5786920
  29.8718420 112.2631130 104.7424481  29.1730657 111.3479979 103.7595166
  26.0863034 109.3821061 110.5264408  26.5617156 109.5748707 109.7183259
  25.1628600 109.4380247 110.2807792  12.9746541 110.5445228 100.1095486
  12.7292583 109.6407558 100.3075697  13.1442455 110.5462378  99.1674964
  20.6643251 101.4168904 109.4920242  21.1825195 102.1529931 109.1666731
  20.3098383 101.7232898 110.3267001  12.2442188 106.2773586  97.6081648
  11.5511433 106.3517941  96.9521684  11.9993940 105.5133929  98.1303165
  20.9155845  97.8369187 105.0121139  21.1957599  97.1692376 105.6381565
  21.7006452  98.0298283 104.4995802  18.7189313 117.0128181  96.5746165
  18.1463280 117.6318368  96.1216637  19.2922107 117.5627543  97.1086087
  24.7864703 106.2586821 108.7592714  25.7382126 106.3584919 108.7804938
  24.6168154 105.4665089 109.2690798  22.8079083 103.3442404 108.9452115
  22.2129015 103.6247417 108.2498603  22.5228779 103.8336305 109.7168856
  21.9386573 117.2965331  97.7054747  22.8717246 117.2310893  97.9087623
  21.8509786 118.1321598  97.2469280  24.5674590 116.6131201  94.6658695
  24.4888221 116.2791065  95.5594453  25.3884257 117.1052969  94.6650167
  27.2652781 109.4792941 107.8735013  27.2329101 108.5408941 108.0594697
  27.8753405 109.5576977 107.1400838  19.1036112 108.3488994  93.9162217
  20.0495217 108.2195202  93.9850635  18.7250357 107.6103655  94.3931646
  27.4147270 106.2703984 107.9193297  26.8986318 105.4862441 107.7323225
  28.2987218 105.9422701 108.0839816  25.0757996 100.0145000 103.8789109
  24.8782818  99.7060088 104.7632441  25.6857702 100.7406639 104.0087039
  33.0829331 110.5408947 107.0141050  33.8132719 110.2794236 107.5748753
  32.4736276 109.8037669 107.0543118  31.1644628 108.6816810 107.6115501
  30.4377792 108.5472775 107.0031993  30.7491915 108.9893639 108.4172219
  18.9874804 112.4006740 115.3762874  19.9077814 112.5785339 115.5702921
  18.9524387 111.4562785 115.2242574  17.2879029 106.2738970  93.8517103
  16.3810484 105.9772083  93.9279816  17.5655010 105.9768788  92.9851389
   8.2056969 107.5945333 104.3016149   7.8859754 106.7410642 104.0090523
   7.6590398 107.8093912 105.0574116  11.9836877 110.3107774 108.0185656
  12.2022887 111.2424882 108.0373689  12.3962651 109.9515749 108.8040459
  18.9041095 100.8175860 100.0061344  18.0941823 100.4722945 100.3816590
  19.5925512 100.5083403 100.5948955  20.8331643  99.8953906 101.6285641
  21.3862682 100.3149360 102.2875664  21.0701729  98.9689655 101.6708597
  16.8564742 105.8840980 117.4088404  16.7561469 106.8335337 117.3400496
  16.6386284 105.5559219 116.5364475  16.0577814 103.1325905  93.9929082
  16.9196978 103.4580803  94.2524899  16.2428158 102.3457401  93.4802148
   8.0745229 111.2148245 106.2709271   7.3808701 110.8002198 105.7579225
   8.8218220 111.2568781 105.6742690  24.2110450 102.0054432 101.1364305
  23.6309119 102.6639236 100.7542357  23.9446383 101.1831776 100.7251722
  22.6614016 101.4059489 103.3385625  23.1613795 101.5176024 102.5299944
  23.3049624 101.1020542 103.9786434  16.7196012 109.3138119 116.2253466
  16.2363094 110.1138479 116.4317355  16.8056951 109.3246064 115.2720910
   9.9881972 111.1466499 104.1475285   9.9652660 111.2454186 103.1957169
  10.2982608 111.9931649 104.4692452  12.6469350 113.2042654 108.2621900
  13.6012603 113.1726596 108.1951831  12.4481873 112.7433277 109.0772126
  13.2368732 111.7743770 110.8292698  14.0561621 112.2687848 110.8527535
  13.5105540 110.8575738 110.8010265  22.9935328 104.1654522 100.1920653
  22.1061183 104.4504173  99.9740848  23.4089317 104.0048285  99.3447930
  26.3449864 104.1901043 103.9074992  27.1210254 104.6797495 104.1799609
  25.6197998 104.6159097 104.3646862  28.7822423 104.9028662 104.9648933
  29.3766914 104.6624398 104.2542241  28.8549007 104.1835793 105.5922469
  11.0019579 118.7462273 105.2792098  10.8674047 117.9862674 104.7130096
  10.5851641 119.4703173 104.8120887  22.1378542 113.9299197  94.2868673
  22.8414392 114.1349199  94.9026329  21.4141190 114.4975959  94.5517757
  22.9676352 109.6809058 100.4070943  22.9111553 110.1377609  99.5678576
  23.5204694 108.9199743 100.2293786  26.7781158 105.4698790 101.2321063
  26.5218092 105.0695425 102.0629270  26.1534026 106.1842584 101.1071202
  31.0893496 108.2094863 103.7392354  30.5293054 108.2788052 104.5123916
  30.4836999 108.0335848 103.0191850  14.1588704 119.6431590 105.4910540
  14.0421089 120.5877023 105.3889231  13.3381151 119.3405152 105.8796340
  24.0465239 114.3681726  96.3367133  24.8810843 113.9362924  96.1544608
  23.8849582 114.1963740  97.2644028  23.7011131 110.8713839  97.7023472
  23.6459935 110.7058111  96.7611917  23.0757186 111.5789872  97.8585662
   8.4903646 106.1081904 111.5284895   9.1362510 105.5980858 112.0172120
   8.2820797 106.8450585 112.1028320  21.0157038 113.1762751 117.0277035
  21.8848198 113.3503403 116.6663670  20.5363790 113.9957168 116.9052765
  17.0107257 100.3721948  97.2808791  16.9985926 101.3163788  97.4377062
  17.9030679 100.1892094  96.9868252  15.1843219 120.2959852 108.7066469
  16.0870465 120.3283462 109.0232964  14.9580589 119.3660303 108.7212805
  16.9396821 119.0490839 105.3676547  15.9892452 119.0492700 105.2540920
  17.2429307 118.3023573 104.8512582  20.8259376  96.9664725 101.5354728
  20.0591772  96.4123212 101.6811410  21.2370081  97.0386594 102.3968879
  12.8301137 103.2549521 115.6259909  13.6932599 102.8986325 115.8363233
  12.2566548 102.9163415 116.3135313  32.6749514 124.8851377 106.4322310
  33.3127924 124.7658124 105.7285650  32.5570357 125.8332221 106.4910262
  29.4839220 124.8378805 106.3683835  29.1457732 124.7219870 105.4804369
  30.3528989 124.4369970 106.3484841  25.3426036 126.6914282 102.3580726
  24.7790901 126.6004218 101.5897013  25.2278431 125.8714186 102.8383218
  29.9659003 125.9913657 112.3270040  29.9547644 125.5966455 111.4550544
  30.1279643 125.2579729 112.9203812  22.8890468 128.1865473 105.1964946
  23.6811760 127.8456298 104.7811245  23.1287118 128.2960448 106.1167099
  30.9225595 130.3585249  97.6695190  30.2713575 130.9439330  97.2829204
  31.7169958 130.8891444  97.7290228  24.8481222 127.4474386  98.0682325
  25.6212098 126.9003373  97.9295201  25.2006621 128.3118636  98.2796786
  26.6866265 128.7750769 111.2749224  26.3956131 129.6796399 111.1595890
  27.3223249 128.8167296 111.9893294  27.6122471 126.1527617 107.8650584
  28.2086044 125.9283640 107.1507547  27.6697443 125.4112363 108.4676032
  27.1847500 123.6067052  95.7000775  27.4373020 123.0848574  94.9384238
  26.2472059 123.4433198  95.8027458  32.2290783 122.6102831 103.5075518
  33.0153872 122.1922254 103.1565935  32.4929487 123.5148923 103.6757166
  32.4000860 128.0475681  98.2064175  31.7646693 128.1210308  98.9185079
  32.0698266 128.6369280  97.5283254  37.6299210 122.5478064 104.4108496
  38.3624382 121.9777281 104.6446326  36.8738565 122.1599664 104.8515002
  26.9043789 125.5095158  97.9025150  26.7880047 124.8340062  98.5706234
  27.0146048 125.0227532  97.0857303  29.2475329 124.9705306 101.6071839
  28.8833537 124.4435927 102.3184760  30.1042445 124.5803775 101.4338324
  35.1524630 116.2599638 108.8703105  34.8207955 117.1295049 108.6464320
  34.5570243 115.9435922 109.5497135  28.8880816 119.9995205  96.6033187
  29.0555219 120.8675442  96.9703658  28.6977986 120.1622487  95.6794477
  31.6456150 128.4612184 108.2699018  31.3456873 129.3637223 108.1614825
  31.3007209 128.1944367 109.1220171  25.0968631 124.9125981 104.3035722
  24.1719128 124.7802195 104.5113414  25.3453044 125.6920200 104.8005665
  35.0453293 120.9794724 105.9496455  34.1370171 120.9110133 105.6555216
  34.9940889 121.4566669 106.7778281  28.8670037 122.4552863  97.5879854
  28.7469663 122.9009914  98.4265334  28.1722626 122.8038180  97.0293392
  22.4577442 124.5559255 105.1379511  22.5869823 124.8093733 106.0518923
  21.7774893 125.1486963 104.8184166  26.6276929 135.2256504 101.2369985
  26.5500959 136.1764330 101.3158466  26.0238573 134.8802377 101.8944912
  29.1194159 122.3984370 113.8931352  28.3427493 122.9578290 113.8834217
  29.7584722 122.8841153 114.4146222  36.9114940 119.1811163 107.7274329
  36.2689320 119.4743696 107.0814124  36.4069868 119.0664083 108.5327526
  34.5655103 122.9274336  98.4160188  35.4772960 123.1601723  98.2407886
  34.0564751 123.5111380  97.8535267  27.3740531 125.2069823 113.4549319
  28.1155216 125.7454867 113.1784143  26.6677517 125.8336112 113.6120871
  32.8495871 127.3498964 112.0521481  33.2579227 126.9081374 111.3076113
  32.1273133 126.7751591 112.3055674  29.2026941 122.2871571 109.4255038
  30.0488136 122.7110984 109.5689687  29.1425579 121.6305195 110.1193601
  33.1724686 127.9100154 105.8073770  32.5433548 128.0745868 105.1049838
  32.7850348 128.3241764 106.5784734  37.0513918 128.8454592 103.1618133
  36.3664956 129.2253494 102.6115167  37.1357767 129.4549919 103.8950081
  32.3526387 119.9475939 111.0836211  32.1087318 120.7017999 110.5470487
  32.6286317 120.3261286 111.9183458  34.3064849 126.4914551 109.7613477
  34.5181745 127.1346311 109.0847858  34.2594598 125.6576868 109.2935407
  31.9091078 119.1032372 106.6650049  31.0475557 119.4013625 106.9566787
  31.9353513 119.3202771 105.7331082  28.7252648 127.6474562 103.0723855
  29.1890993 127.9262265 102.2828477  28.4609446 126.7458007 102.8896945
  25.6176729 127.1946044 106.0103618  26.1878086 127.6233312 105.3721103
  26.2084841 126.9128629 106.7087804  27.6621534 123.7697715  99.8813420
  28.3645577 124.2218758 100.3487346  27.3302162 123.1281534 100.5093313
  26.1101895 122.3609471 114.2564629  25.4800556 123.0425752 114.4900026
  26.0037983 122.2492553 113.3117768  21.4046868 122.0281267 105.1830554
  20.6145922 122.2838796 104.7070664  21.8958115 122.8429605 105.2882594
  35.4210677 129.3686507 107.9335834  36.2428121 128.9666694 107.6518516
  35.4173080 129.2654741 108.8851950  23.3561613 122.3925847 102.1414030
  22.5592776 122.5044541 102.6597526  23.1287205 122.7312499 101.2754921
  29.1867281 128.9170550 110.0896545  29.2511713 129.3790957 110.9254717
  28.4778205 128.2867915 110.2178855  19.6884571 122.2811758 107.6145544
  19.9392609 123.1658768 107.8803120  20.2244119 122.1016359 106.8420636
  43.5116670 125.7125255 104.2820806  42.7580379 125.1432653 104.1264810
  43.6464211 125.6787920 105.2291441  28.9015298 130.5838657  99.9575525
  28.7660973 131.4290193 100.3860373  29.4425111 130.7857935  99.1941459
  25.3882638 116.6630237 116.6189880  24.9949584 116.1096436 117.2937525
  26.2048778 116.9740816 117.0096398  22.3544696 128.1014095 100.5303450
  22.8669216 128.8957346 100.6809015  23.0067409 127.4040386 100.4637052
  24.1639580 131.2179852 102.6126203  24.3406209 132.1397816 102.4247187
  24.9596414 130.9038271 103.0420583  28.3050599 118.0788116 114.2110137
  29.0460312 118.6795270 114.1314599  28.5368522 117.3365754 113.6528180
  23.4491937 123.2644484 112.4888367  23.3345452 122.3629741 112.7895466
  22.5936455 123.5108180 112.1373183  30.5283775 131.2062224 114.0875867
  30.0847629 130.4198603 113.7696772  31.1900988 131.3941374 113.4219758
  25.2870896 132.7358026 108.6136546  25.8378321 132.6075089 107.8413540
  24.4482372 133.0352915 108.2631439  32.6265013 131.4865024 112.1157269
  32.6083488 132.3073905 111.6237538  33.5484933 131.3619099 112.3407410
  29.0838067 129.0009153 112.9580777  29.6166404 128.2397442 112.7280085
  28.5552148 128.7082805 113.7004931  32.2507762 114.1069219 108.4874419
  31.9072031 114.9970861 108.4113529  32.6186724 113.9170877 107.6244004
  20.3193612 126.4302750 101.3063021  21.1568835 126.8399758 101.0896729
  20.4971880 125.4902192 101.2763215  32.2158045 124.0977830  96.9946854
  31.7004668 124.8682435  97.2335241  31.9435353 123.4242967  97.6179915
  29.8005156 118.9427531 102.0532092  28.9446752 118.5534382 101.8737731
  30.2132107 119.0219492 101.1931878  31.3304302 116.4773874 106.4523652
  30.8269098 116.4404010 105.6391457  31.6234909 117.3866617 106.5120309
  27.5747188 116.5612604 105.4589834  28.4400185 116.3655413 105.0995723
  27.6424697 116.3322956 106.3859190  37.1892319 126.8510185  98.9300027
  36.4121762 126.5121345  98.4855189  37.8683800 126.8562808  98.2554992
  32.0044348 121.9704923  98.8206635  31.6994483 122.2851072  99.6716778
  32.9574790 122.0486342  98.8633968  30.4490780 128.1295146 100.4699589
  29.9212141 127.3947905 100.1572826  29.9478282 128.9069822 100.2239557
  35.4283626 126.3244166 105.5866635  34.7707300 127.0143428 105.6746764
  36.2324025 126.7140598 105.9300622  25.1809507 118.7914812 102.8306200
  25.7553259 118.5689994 102.0979393  25.7680490 118.8603507 103.5834802
  34.2389084 124.6788539 103.6370577  34.7520966 125.3118531 104.1392287
  34.8890308 124.0789735 103.2713937  25.5079094 120.8219273  96.8502086
  24.6716407 121.1593960  97.1711360  25.3683864 120.6868253  95.9129223
  27.4832175 115.6656061 101.5581270  26.8296587 115.3505078 100.9337885
  27.4412649 115.0431801 102.2841093  28.5943380 125.9475356  93.4734562
  27.6870442 125.7164610  93.6725711  29.0914412 125.1512975  93.6608543
  31.5011459 134.6572863  96.3931248  30.8273157 134.9604560  97.0016206
  31.8877281 135.4601944  96.0436705  30.7169915 122.1537995 105.8828917
  29.7992477 122.3752942 105.7250606  31.1330059 122.2284305 105.0240625
  31.5004963 123.5529410 101.0131598  32.2476782 124.0650807 100.7038720
  31.7696553 123.2313463 101.8735991  29.7731613 126.0487951  97.9958552
  28.8642833 125.7646984  98.0931022  29.8026697 126.4687030  97.1361859
  35.0050881 129.6594540 101.7649720  34.5513208 128.8185450 101.8214910
  34.3744847 130.2955939 102.1024500  33.9483800 120.5886527 102.9950387
  33.2106557 120.0763913 103.3260630  34.2010574 120.1486908 102.1833664
  33.4483820 131.4971037 102.6999538  33.7406794 132.0576094 101.9811903
  33.9582440 131.7899598 103.4552697  34.0495428 113.3662779 103.5892156
  34.3554304 112.5060142 103.3018071  34.7748032 113.9580399 103.3891150
  20.3419784 123.7693465 101.9773754  20.1444183 123.1762826 101.2524821
  19.7866448 123.4645675 102.6949693  28.3216507 123.6616572 104.0968347
  28.3765117 122.7090408 104.0210824  27.5107709 123.8176011 104.5809646
  29.4707701 127.5896695  95.3346631  29.0327131 126.8732554  94.8752268
  30.2118142 127.8172809  94.7731722  26.2608867 122.2793631 101.8558726
  25.4476733 122.5787802 102.2623918  26.7567861 121.8849320 102.5733208
  28.4117445 132.2751388 103.7892991  28.3693624 132.5012235 102.8601523
  29.3280144 132.0414763 103.9378792  31.8583079 122.7435456 110.6873620
  32.2132467 122.9706929 111.5468086  32.5055210 123.0753833 110.0650875
  37.5880816 125.8653892 101.3922949  37.4498714 126.0555488 100.4644138
  37.2317035 126.6273275 101.8491000  25.7522942 119.8511987 107.4719961
  26.3922321 119.7100746 106.7742925  24.9200473 119.5646500 107.0958563
  37.6150195 127.9330419 106.4034221  38.0486702 127.8405708 107.2517275
  38.3281776 127.9087919 105.7654237  26.5283246 129.1514417 103.5854954
  27.3223844 128.6564737 103.3837529  25.8174938 128.6232280 103.2222659
  31.3478090 131.5332513 107.9367321  31.4015113 132.1023449 108.7045037
  30.4792872 131.7034398 107.5721358  22.8366009 123.2957499  99.6614706
  21.9063597 123.2341954  99.8784668  22.9323481 122.7733452  98.8651348
  22.7551558 119.8212312 102.2492948  23.0158376 120.7357645 102.1402108
  23.5768731 119.3536754 102.3989561  24.2276484 121.2350069 109.4191773
  24.8999537 121.0267431 108.7704421  23.4006270 121.0372155 108.9797005
  38.4765745 127.9754119 108.9367106  38.6701635 128.8799930 109.1826381
  38.3766363 127.5161538 109.7705691  30.1302056 117.8612010 111.4357433
  29.4829971 118.5601960 111.3421910  30.9003071 118.2948154 111.8033682
  33.5380854 128.1260862 114.5107987  33.3866360 127.8971414 113.5938070
  33.5285533 129.0831464 114.5239332  30.3066190 125.6992775 109.4954253
  31.2358250 125.8503934 109.3223220  29.8857220 125.7876796 108.6402900
  29.1054522 129.7243439 107.2652791  28.9665608 129.3562224 108.1378729
  28.3169118 130.2391079 107.0936749  29.7002674 134.8252536  98.6078327
  29.8754430 134.3540579  99.4223950  29.0135462 135.4518302  98.8359588
  30.6559737 129.1025042 104.6541629  30.3209570 129.0625812 105.5499278
  30.1563683 128.4369758 104.1812039  24.6303981 124.5092672 110.1794210
  24.4923779 123.7772911 110.7805749  25.5408904 124.4201572 109.8978397
  33.5918929 126.4481076  94.9278688  32.9748099 125.7227904  94.8311741
  33.1235417 127.2090437  94.5845762  27.2586282 124.2212631 109.6677889
  27.9685900 123.5805824 109.6264508  27.2155590 124.4725526 110.5904070
  35.2473060 131.1579985 112.5884469  35.1885606 130.4739205 111.9215052
  35.6492579 131.8998975 112.1365095  25.9715216 121.2077849 111.4873529
  25.4352573 120.7568588 112.1395125  25.3831924 121.3423758 110.7443993
  24.2663759 137.9741898 105.3818187  24.5060357 138.6060423 106.0597206
  23.4232956 137.6229939 105.6683547  25.3817475 120.6666501  94.0499992
  24.5046941 120.5455301  93.6862239  25.8575228 119.8752579  93.7978881
  35.2490468 129.1219569 110.8198448  34.3617246 128.7845490 110.9424847
  35.8189019 128.3902600 111.0567214  16.9019615 125.4543660 104.1441500
  17.5890655 125.1405390 103.5562515  16.7467743 126.3585025 103.8708751
  21.7054337 120.3433857 108.5726523  21.6212526 119.7359526 107.8376933
  20.8837043 120.8342875 108.5736020  28.7791621 133.7821021 107.7859691
  28.7061792 134.5875992 108.2978996  28.3369014 133.9812987 106.9607713
  28.5681401 133.0192791 101.2962513  27.7848923 133.5614471 101.3900737
  29.2674146 133.5366771 101.6956754  31.8778051 118.8287420 103.9396718
  32.3746750 118.0757383 103.6197789  31.1065032 118.8651737 103.3739928
  39.7307808 124.5327786 105.5815010  39.7197684 125.4152501 105.2108943
  38.8625188 124.1799337 105.3869547  31.2390305 133.6807855 109.9417850
  31.9518277 134.3155320 109.8693752  30.7480333 133.7771721 109.1257852
  32.9607831 127.5859108 101.5135142  32.0264110 127.7060570 101.3439846
  33.1384500 126.6831574 101.2495152  28.4613019 120.9704803 103.6668403
  28.0910807 120.4175844 104.3549309  28.9572112 120.3662937 103.1143403
  36.3480383 123.4276427 102.0485176  36.8140835 124.2604419 101.9745479
  36.7987883 122.9621408 102.7530434  26.2902218 131.4302298 110.7623421
  26.9911678 132.0638781 110.9152815  25.8197333 131.7717030 110.0019060
  34.4156614 129.7720248  99.0471328  34.6916458 129.6576843  99.9565202
  33.5461113 129.3737733  99.0083501  34.3197046 115.7957014 106.0876077
  33.4060125 116.0261241 106.2558284  34.7490147 115.8795458 106.9390110
  34.0903504 123.9846906 108.5875971  33.4374954 124.2322813 107.9328424
  34.4683884 123.1711044 108.2538449  31.0510678 134.0206599 102.6904142
  31.2333072 133.2028255 103.1531894  31.8743664 134.2374291 102.2529032
  31.3852843 132.9474784  99.9519190  31.9140610 132.4367239  99.3389352
  31.6481063 132.6317314 100.8164723  30.1391077 124.7266717 115.0742008
  29.4631714 124.6260846 115.7444384  30.9618711 124.5705931 115.5378006
  21.8869936 130.9638653 107.6954524  22.4723373 130.2182341 107.8282428
  21.6894775 131.2742610 108.5791188  24.7408591 133.9989901 102.7116966
  24.0718967 134.4836028 102.2281006  24.6021461 134.2459121 103.6260345
  16.4787591 123.5344254 106.4158967  16.5171690 123.0007844 107.2096085
  15.9727884 123.0079459 105.7969944  28.8813860 136.0333644 109.3099624
  29.4332168 136.1965266 110.0748710  29.2220053 136.6238082 108.6379649
  23.8578353 118.3808794 109.9121509  23.9219680 119.2423625 109.4998907
  23.7945473 117.7682796 109.1793868  23.3330626 120.4531927 113.5594543
  23.9602664 120.0709004 114.1732068  22.4758545 120.2346129 113.9250236
  33.7324734 130.8594902 115.1648279  34.2764638 131.4724860 114.6703234
  33.1511579 131.4174480 115.6815292  20.1096168 122.2608356  99.4912898
  20.4049610 121.3519034  99.4379952  19.2084204 122.2396095  99.1693900
  32.0182247 133.9815620 106.2963307  31.8933387 133.1805360 105.7874252
  32.6761338 134.4761813 105.8077276  23.6390415 120.3364352 105.4740447
  22.9177001 120.9500320 105.3347920  24.4283671 120.8722117 105.3957093
  34.0817156 131.7824640 107.9242857  33.1347491 131.6629991 107.8521183
  34.4299929 130.8947138 108.0069118  26.4416729 117.6718779 111.7481098
  26.9651131 117.9181075 112.5107408  26.2229062 118.5038814 111.3284236
  21.8384010 119.9422453  99.6152223  21.5096716 119.0619832  99.4327329
  22.1923381 119.8870122 100.5028613  31.0863589 131.5777356 104.1247209
  30.9388551 130.6494064 104.3054779  31.9117082 131.5997447 103.6404284
  24.9525833 120.2295423  99.9827701  25.2921906 120.7581345  99.2606309
  25.3997954 120.5675829 100.7586268  34.6897711 132.4005915 105.2112082
  35.6144258 132.1948776 105.0736533  34.5213014 132.1522316 106.1201423
  27.6469274 118.6132474 109.4330769  27.3066094 117.8140287 109.8351449
  26.9408280 118.9134185 108.8607602  28.2985746 115.6981786 107.8858092
  29.1211815 115.2242265 107.7636982  28.5423809 116.4772270 108.3856778
  26.9393980 118.7270045  98.1820994  27.6602343 119.1051298  97.6784711
  26.3159284 119.4458922  98.2855972  31.0825103 119.4315194  99.1179326
  31.2988718 120.3139832  98.8168154  30.6019170 119.0401407  98.3884968
  25.8224325 122.3900907 105.6950071  25.6768905 122.7041210 106.5874352
  25.3449528 123.0085807 105.1420969  27.6820707 119.3803455 105.7430960
  27.6682276 118.4844548 105.4063258  28.3993136 119.3874119 106.3769246
  29.5346838 119.8140795 107.7884088  29.2764616 120.7357866 107.7868418
  29.0031879 119.4171230 108.4784552  34.4793027 132.9191582 100.5674173
  34.6529904 132.3538005  99.8148025  34.9721918 133.7192477 100.3853663
  20.2969987 124.9306251 108.6337732  19.7523455 125.7066059 108.7658006
  21.1749337 125.2777056 108.4756853  27.0857603 118.2617835 101.0118530
  27.2073515 117.3334482 101.2109418  26.7959646 118.2756521 100.0996846
  29.9548794 115.9472746 104.1485250  29.9770491 116.0112079 103.1937230
  30.3716853 115.1077254 104.3425756  40.3332418 125.6828005 102.1864473
  40.7763564 124.9335331 101.7883596  39.4558928 125.6738142 101.8038205
  35.4668199 132.2358347  97.6671071  36.1619104 132.8565039  97.8858386
  35.8091350 131.3853698  97.9423449  21.0836009 124.0576148 111.5267889
  20.3417745 124.2058783 112.1132519  20.7628753 124.3184413 110.6634638
  37.3659623 129.6858052  99.1958402  37.8910947 130.0245325  98.4707722
  37.2781975 128.7505068  99.0121537  29.0279671 133.5992126 111.3248279
  29.3366798 133.3541273 112.1970978  29.8255153 133.8038764 110.8367149
  29.0500283 135.7530036 103.5553655  28.6105274 135.2606414 104.2486512
  29.8008400 135.2103003 103.3145731  21.5292622 131.9441576 103.5578283
  22.3550642 131.6445348 103.1776927  21.1786674 131.1749199 104.0068072
  26.4974155 131.2968045 105.6275957  25.8754165 130.6338750 105.3278185
  27.1679022 131.3229177 104.9449605  19.7301227 129.8627903 104.5167217
  18.8933136 129.4350077 104.3351218  19.7024873 130.0560346 105.4538008
  26.5698683 119.7749833 115.2208463  26.6186838 120.6511956 114.8386233
  27.1121197 119.2327226 114.6480106  37.0553529 130.3190956 114.5009600
  36.2649072 130.3015095 113.9614099  36.8186883 130.8579250 115.2558637
  37.1751404 127.1683422 111.8142329  37.2249409 127.0033430 112.7557851
  37.0665327 126.3010681 111.4240209  26.0587662 129.8471968  99.1034417
  26.2075783 130.5307432  98.4501090  26.8654106 129.8277058  99.6183873
  34.4655166 123.1514350 113.1301635  35.3665029 123.0120815 112.8385633
  34.5403141 123.3168805 114.0699813  28.7997971 120.5281205 111.9754822
  27.9301281 120.8214771 111.7037410  29.0357452 121.1121650 112.6962085
  38.6769600 129.5880364 112.0584350  38.3854409 129.9510344 112.8947811
  38.0641732 128.8747372 111.8797682  39.8765283 127.1533244 104.5786920
  40.7112174 127.5923048 104.7424481  40.0124412 126.6771897 103.7595166
  36.9256789 124.7112978 110.5264408  37.4010910 124.9040625 109.7183259
  36.0022354 124.7672164 110.2807792  23.8140295 125.8737146 100.1095486
  23.5686337 124.9699476 100.3075697  23.9836210 125.8754296  99.1674964
  31.5037005 116.7460822 109.4920242  32.0218949 117.4821849 109.1666731
  31.1492138 117.0524815 110.3267001  23.0835943 121.6065503  97.6081648
  22.3905188 121.6809858  96.9521684  22.8387695 120.8425847  98.1303165
  31.7549599 113.1661105 105.0121139  32.0351353 112.4984294 105.6381565
  32.5400206 113.3590200 104.4995802  29.5583068 132.3420098  96.5746165
  28.9857035 132.9610286  96.1216637  30.1315862 132.8919460  97.1086087
  35.6258458 121.5878739 108.7592714  36.5775881 121.6876836 108.7804938
  35.4561908 120.7957007 109.2690798  33.6472837 118.6734322 108.9452115
  33.0522769 118.9539335 108.2498603  33.3622534 119.1628223 109.7168856
  32.7780328 132.6257249  97.7054747  33.7111001 132.5602810  97.9087623
  32.6903540 133.4613515  97.2469280  35.4068344 131.9423119  94.6658695
  35.3281976 131.6082983  95.5594453  36.2278011 132.4344887  94.6650167
  38.1046536 124.8084858 107.8735013  38.0722856 123.8700859 108.0594697
  38.7147159 124.8868895 107.1400838  29.9429866 123.6780911  93.9162217
  30.8888971 123.5487119  93.9850635  29.5644111 122.9395573  94.3931646
  38.2541024 121.5995902 107.9193297  37.7380073 120.8154358 107.7323225
  39.1380973 121.2714618 108.0839816  35.9151751 115.3436917 103.8789109
  35.7176572 115.0352005 104.7632441  36.5251456 116.0698556 104.0087039
  43.9223085 125.8700865 107.0141050  44.6526474 125.6086153 107.5748753
  43.3130031 125.1329587 107.0543118  42.0038382 124.0108728 107.6115501
  41.2771546 123.8764693 107.0031993  41.5885669 124.3185556 108.4172219
  29.8268559 127.7298657 115.3762874  30.7471568 127.9077256 115.5702921
  29.7918142 126.7854703 115.2242574  28.1272784 121.6030888  93.8517103
  27.2204239 121.3064000  93.9279816  28.4048765 121.3060706  92.9851389
  19.0450724 122.9237251 104.3016149  18.7253508 122.0702559 104.0090523
  18.4984152 123.1385829 105.0574116  22.8230631 125.6399692 108.0185656
  23.0416641 126.5716800 108.0373689  23.2356405 125.2807666 108.8040459
  29.7434849 116.1467777 100.0061344  28.9335578 115.8014862 100.3816590
  30.4319266 115.8375321 100.5948955  31.6725398 115.2245824 101.6285641
  32.2256436 115.6441278 102.2875664  31.9095484 114.2981572 101.6708597
  27.6958497 121.2132898 117.4088404  27.5955224 122.1627255 117.3400496
  27.4780039 120.8851137 116.5364475  26.8971568 118.4617823  93.9929082
  27.7590732 118.7872721  94.2524899  27.0821912 117.6749319  93.4802148
  18.9138984 126.5440163 106.2709271  18.2202455 126.1294115 105.7579225
  19.6611975 126.5860699 105.6742690  35.0504205 117.3346349 101.1364305
  34.4702874 117.9931153 100.7542357  34.7840137 116.5123694 100.7251722
  33.5007771 116.7351407 103.3385625  34.0007549 116.8467942 102.5299944
  34.1443379 116.4312460 103.9786434  27.5589767 124.6430037 116.2253466
  27.0756849 125.4430397 116.4317355  27.6450706 124.6537981 115.2720910
  20.8275726 126.4758416 104.1475285  20.8046415 126.5746104 103.1957169
  21.1376363 127.3223567 104.4692452  23.4863104 128.5334571 108.2621900
  24.4406358 128.5018514 108.1951831  23.2875628 128.0725195 109.0772126
  24.0762486 127.1035687 110.8292698  24.8955375 127.5979766 110.8527535
  24.3499294 126.1867656 110.8010265  33.8329083 119.4946440 100.1920653
  32.9454938 119.7796090  99.9740848  34.2483072 119.3340203  99.3447930
  37.1843619 119.5192961 103.9074992  37.9604009 120.0089413 104.1799609
  36.4591753 119.9451015 104.3646862  39.6216177 120.2320580 104.9648933
  40.2160668 119.9916316 104.2542241  39.6942761 119.5127710 105.5922469
  21.8413333 134.0754191 105.2792098  21.7067801 133.3154592 104.7130096
  21.4245395 134.7995091 104.8120887  32.9772296 129.2591114  94.2868673
  33.6808146 129.4641117  94.9026329  32.2534945 129.8267876  94.5517757
  33.8070106 125.0100976 100.4070943  33.7505308 125.4669527  99.5678576
  34.3598449 124.2491660 100.2293786  37.6174912 120.7990707 101.2321063
  37.3611847 120.3987343 102.0629270  36.9927780 121.5134501 101.1071202
  41.9287250 123.5386781 103.7392354  41.3686808 123.6079970 104.5123916
  41.3230754 123.3627765 103.0191850  24.9982459 134.9723508 105.4910540
  24.8814843 135.9168940 105.3889231  24.1774905 134.6697069 105.8796340
  34.8858994 129.6973644  96.3367133  35.7204597 129.2654842  96.1544608
  34.7243336 129.5255657  97.2644028  34.5404886 126.2005757  97.7023472
  34.4853689 126.0350028  96.7611917  33.9150941 126.9081790  97.8585662
  19.3297401 121.4373821 111.5284895  19.9756264 120.9272775 112.0172120
  19.1214552 122.1742503 112.1028320  31.8550793 128.5054669 117.0277035
  32.7241952 128.6795321 116.6663670  31.3757544 129.3249086 116.9052765
  27.8501011 115.7013866  97.2808791  27.8379681 116.6455706  97.4377062
  28.7424433 115.5184011  96.9868252  26.0236973 135.6251770 108.7066469
  26.9264220 135.6575380 109.0232964  25.7974343 134.6952221 108.7212805
  27.7790575 134.3782756 105.3676547  26.8286206 134.3784618 105.2540920
  28.0823061 133.6315491 104.8512582  31.6653131 112.2956643 101.5354728
  30.8985526 111.7415129 101.6811410  32.0763836 112.3678511 102.3968879
  23.6694892 118.5841438 115.6259909  24.5326353 118.2278243 115.8363233
  23.0960302 118.2455333 116.3135313  43.5143269 140.2143295 106.4322310
  44.1521679 140.0950042 105.7285650  43.3964111 141.1624139 106.4910262
  40.3232975 140.1670723 106.3683835  39.9851486 140.0511787 105.4804369
  41.1922743 139.7661888 106.3484841  36.1819791 142.0206199 102.3580726
  35.6184656 141.9296136 101.5897013  36.0672186 141.2006104 102.8383218
  40.8052758 141.3205575 112.3270040  40.7941399 140.9258373 111.4550544
  40.9673397 140.5871647 112.9203812  33.7284223 143.5157391 105.1964946
  34.5205514 143.1748215 104.7811245  33.9680873 143.6252366 106.1167099
  41.7619349 145.6877167  97.6695190  41.1107329 146.2731247  97.2829204
  42.5563712 146.2183362  97.7290228  35.6874976 142.7766304  98.0682325
  36.4605852 142.2295291  97.9295201  36.0400375 143.6410553  98.2796786
  37.5260019 144.1042686 111.2749224  37.2349885 145.0088317 111.1595890
  38.1617003 144.1459214 111.9893294  38.4516226 141.4819535 107.8650584
  39.0479798 141.2575557 107.1507547  38.5091197 140.7404280 108.4676032
  38.0241254 138.9358970  95.7000775  38.2766775 138.4140491  94.9384238
  37.0865813 138.7725116  95.8027458  43.0684537 137.9394749 103.5075518
  43.8547626 137.5214172 103.1565935  43.3323241 138.8440841 103.6757166
  43.2394614 143.3767599  98.2064175  42.6040447 143.4502225  98.9185079
  42.9092021 143.9661198  97.5283254  48.4692964 137.8769982 104.4108496
  49.2018136 137.3069199 104.6446326  47.7132320 137.4891582 104.8515002
  37.7437543 140.8387076  97.9025150  37.6273801 140.1631979  98.5706234
  37.8539803 140.3519450  97.0857303  40.0869084 140.2997223 101.6071839
  39.7227291 139.7727844 102.3184760  40.9436200 139.9095692 101.4338324
  45.9918385 131.5891556 108.8703105  45.6601709 132.4586967 108.6464320
  45.3963998 131.2727840 109.5497135  39.7274571 135.3287123  96.6033187
  39.8948973 136.1967359  96.9703658  39.5371740 135.4914405  95.6794477
  42.4849904 143.7904102 108.2699018  42.1850627 144.6929141 108.1614825
  42.1400964 143.5236285 109.1220171  35.9362386 140.2417899 104.3035722
  35.0112882 140.1094113 104.5113414  36.1846799 141.0212118 104.8005665
  45.8847048 136.3086642 105.9496455  44.9763925 136.2402050 105.6555216
  45.8334644 136.7858587 106.7778281  39.7063792 137.7844780  97.5879854
  39.5863417 138.2301831  98.4265334  39.0116380 138.1330098  97.0293392
  33.2971197 139.8851172 105.1379511  33.4263578 140.1385651 106.0518923
  32.6168648 140.4778880 104.8184166  39.9587914 137.7276288 113.8931352
  39.1821248 138.2870208 113.8834217  40.5978477 138.2133071 114.4146222
  47.7508694 134.5103080 107.7274329  47.1083075 134.8035614 107.0814124
  47.2463623 134.3956001 108.5327526  45.4048858 138.2566254  98.4160188
  46.3166714 138.4893640  98.2407886  44.8958505 138.8403298  97.8535267
  38.2134286 140.5361741 113.4549319  38.9548970 141.0746785 113.1784143
  37.5071271 141.1628030 113.6120871  43.6889626 142.6790881 112.0521481
  44.0972982 142.2373292 111.3076113  42.9666887 142.1043509 112.3055674
  40.0420696 137.6163488 109.4255038  40.8881891 138.0402902 109.5689687
  39.9819333 136.9597113 110.1193601  44.0118440 143.2392072 105.8073770
  43.3827303 143.4037786 105.1049838  43.6244102 143.6533682 106.5784734
  47.8907672 144.1746510 103.1618133  47.2058710 144.5545411 102.6115167
  47.9751521 144.7841837 103.8950081  43.1920141 135.2767857 111.0836211
  42.9481073 136.0309917 110.5470487  43.4680072 135.6553204 111.9183458
  45.1458604 141.8206469 109.7613477  45.3575499 142.4638229 109.0847858
  45.0988352 140.9868785 109.2935407  42.7484833 134.4324290 106.6650049
  41.8869312 134.7305543 106.9566787  42.7747267 134.6494688 105.7331082
  39.5646402 142.9766480 103.0723855  40.0284748 143.2554183 102.2828477
  39.3003200 142.0749925 102.8896945  36.4570483 142.5237962 106.0103618
  37.0271840 142.9525230 105.3721103  37.0478595 142.2420546 106.7087804
  38.5015288 139.0989633  99.8813420  39.2039332 139.5510676 100.3487346
  38.1695917 138.4573451 100.5093313  36.9495650 137.6901389 114.2564629
  36.3194310 138.3717670 114.4900026  36.8431738 137.5784471 113.3117768
  32.2440622 137.3573185 105.1830554  31.4539676 137.6130714 104.7070664
  32.7351870 138.1721523 105.2882594  46.2604432 144.6978424 107.9335834
  47.0821875 144.2958612 107.6518516  46.2566835 144.5946659 108.8851950
  34.1955368 137.7217764 102.1414030  33.3986531 137.8336459 102.6597526
  33.9680960 138.0604417 101.2754921  40.0261035 144.2462468 110.0896545
  40.0905468 144.7082875 110.9254717  39.3171959 143.6159833 110.2178855
  30.5278325 137.6103676 107.6145544  30.7786364 138.4950686 107.8803120
  31.0637874 137.4308277 106.8420636  54.3510425 141.0417173 104.2820806
  53.5974133 140.4724571 104.1264810  54.4857966 141.0079837 105.2291441
  39.7409053 145.9130575  99.9575525  39.6054728 146.7582111 100.3860373
  40.2818865 146.1149853  99.1941459  36.2276392 131.9922155 116.6189880
  35.8343338 131.4388354 117.2937525  37.0442533 132.3032733 117.0096398
  33.1938450 143.4306013 100.5303450  33.7062971 144.2249263 100.6809015
  33.8461163 142.7332304 100.4637052  39.1444353 133.4080034 114.2110137
  39.8854067 134.0087187 114.1314599  39.3762276 132.6657672 113.6528180
  34.2885691 138.5936401 112.4888367  34.1739207 137.6921659 112.7895466
  33.4330209 138.8400098 112.1373183  41.3677529 146.5354142 114.0875867
  40.9241383 145.7490520 113.7696772  42.0294743 146.7233292 113.4219758
  43.4658767 146.8156942 112.1157269  43.4477243 147.6365823 111.6237538
  44.3878687 146.6911017 112.3407410  39.9231821 144.3301071 112.9580777
  40.4560158 143.5689359 112.7280085  39.3945903 144.0374723 113.7004931
  43.0901516 129.4361137 108.4874419  42.7465786 130.3262779 108.4113529
  43.4580479 129.2462795 107.6244004  31.1587367 141.7594667 101.3063021
  31.9962589 142.1691676 101.0896729  31.3365635 140.8194110 101.2763215
  43.0551799 139.4269748  96.9946854  42.5398423 140.1974353  97.2335241
  42.7829108 138.7534884  97.6179915  40.6398910 134.2719449 102.0532092
  39.7840506 133.8826299 101.8737731  41.0525862 134.3511410 101.1931878
  42.1698057 131.8065792 106.4523652  41.6662852 131.7695927 105.6391457
  42.4628664 132.7158535 106.5120309  38.4140943 131.8904522 105.4589834
  39.2793939 131.6947331 105.0995723  38.4818452 131.6614874 106.3859190
  48.0286073 142.1802103  98.9300027  47.2515516 141.8413262  98.4855189
  48.7077554 142.1854726  98.2554992  42.8438102 137.2996840  98.8206635
  42.5388238 137.6142989  99.6716778  43.7968544 137.3778260  98.8633968
  41.2884534 143.4587064 100.4699589  40.7605896 142.7239823 100.1572826
  40.7872037 144.2361740 100.2239557  46.2677380 141.6536084 105.5866635
  45.6101055 142.3435345 105.6746764  47.0717779 142.0432516 105.9300622
  36.0203262 134.1206730 102.8306200  36.5947014 133.8981911 102.0979393
  36.6074244 134.1895424 103.5834802  45.0782839 140.0080457 103.6370577
  45.5914721 140.6410449 104.1392287  45.7284063 139.4081652 103.2713937
  36.3472849 136.1511191  96.8502086  35.5110161 136.4885877  97.1711360
  36.2077618 136.0160171  95.9129223  38.3225929 130.9947979 101.5581270
  37.6690342 130.6796996 100.9337885  38.2806404 130.3723719 102.2841093
  39.4337134 141.2767274  93.4734562  38.5264196 141.0456527  93.6725711
  39.9308166 140.4804893  93.6608543  41.5563670 137.4829912 105.8828917
  40.6386231 137.7044859 105.7250606  41.9723813 137.5576223 105.0240625
  42.3398718 138.8821328 101.0131598  43.0870537 139.3942725 100.7038720
  42.6090307 138.5605381 101.8735991  40.6125368 141.3779869  97.9958552
  39.7036587 141.0938901  98.0931022  40.6420452 141.7978947  97.1361859
  45.8444635 144.9886458 101.7649720  45.3906962 144.1477368 101.8214910
  45.2138602 145.6247857 102.1024500  44.7877555 135.9178444 102.9950387
  44.0500312 135.4055830 103.3260630  45.0404328 135.4778826 102.1833664
  44.2877574 146.8262955 102.6999538  44.5800549 147.3868012 101.9811903
  44.7976195 147.1191516 103.4552697  44.8889182 128.6954696 103.5892156
  45.1948059 127.8352060 103.3018071  45.6141787 129.2872316 103.3891150
  31.1813538 139.0985383 101.9773754  30.9837938 138.5054743 101.2524821
  30.6260202 138.7937593 102.6949693  39.1610262 138.9908489 104.0968347
  39.2158872 138.0382326 104.0210824  38.3501464 139.1467928 104.5809646
  40.3101456 142.9188612  95.3346631  39.8720885 142.2024471  94.8752268
  41.0511896 143.1464727  94.7731722  37.1002622 137.6085549 101.8558726
  36.2870487 137.9079720 102.2623918  37.5961616 137.2141238 102.5733208
  39.2511200 147.6043306 103.7892991  39.2087378 147.8304152 102.8601523
  40.1673898 147.3706681 103.9378792  42.6976833 138.0727373 110.6873620
  43.0526221 138.2998847 111.5468086  43.3448965 138.4045750 110.0650875
  48.4274570 141.1945809 101.3922949  48.2892469 141.3847405 100.4644138
  48.0710789 141.9565192 101.8491000  36.5916696 135.1803905 107.4719961
  37.2316076 135.0392664 106.7742925  35.7594227 134.8938418 107.0958563
  48.4543950 143.2622336 106.4034221  48.8880457 143.1697625 107.2517275
  49.1675531 143.2379837 105.7654237  37.3677000 144.4806335 103.5854954
  38.1617599 143.9856655 103.3837529  36.6568693 143.9524198 103.2222659
  42.1871845 146.8624430 107.9367321  42.2408867 147.4315367 108.7045037
  41.3186626 147.0326316 107.5721358  33.6759764 138.6249417  99.6614706
  32.7457352 138.5633872  99.8784668  33.7717236 138.1025369  98.8651348
  33.5945313 135.1504230 102.2492948  33.8552130 136.0649563 102.1402108
  34.4162485 134.6828672 102.3989561  35.0670238 136.5641987 109.4191773
  35.7393292 136.3559349 108.7704421  34.2400025 136.3664073 108.9797005
  49.3159499 143.3046037 108.9367106  49.5095390 144.2091848 109.1826381
  49.2160118 142.8453456 109.7705691  40.9695810 133.1903928 111.4357433
  40.3223725 133.8893877 111.3421910  41.7396826 133.6240072 111.8033682
  44.3774608 143.4552780 114.5107987  44.2260115 143.2263331 113.5938070
  44.3679288 144.4123381 114.5239332  41.1459945 141.0284693 109.4954253
  42.0752005 141.1795852 109.3223220  40.7250975 141.1168713 108.6402900
  39.9448276 145.0535357 107.2652791  39.8059362 144.6854141 108.1378729
  39.1562873 145.5682996 107.0936749  41.4953492 144.4316960 104.6541629
  41.1603324 144.3917730 105.5499278  40.9957437 143.7661676 104.1812039
  35.4697735 139.8384590 110.1794210  35.3317533 139.1064828 110.7805749
  36.3802659 139.7493490 109.8978397  44.4312683 141.7772994  94.9278688
  43.8141854 141.0519822  94.8311741  43.9629172 142.5382354  94.5845762
  38.0980036 139.5504549 109.6677889  38.8079655 138.9097741 109.6264508
  38.0549344 139.8017444 110.5904070  46.0866815 146.4871902 112.5884469
  46.0279361 145.8031122 111.9215052  46.4886333 147.2290892 112.1365095
  36.8108970 136.5369767 111.4873529  36.2746327 136.0860505 112.1395125
  36.2225679 136.6715676 110.7443993  36.2211229 135.9958418  94.0499992
  35.3440695 135.8747219  93.6862239  36.6968982 135.2044497  93.7978881
  46.0884222 144.4511486 110.8198448  45.2011001 144.1137408 110.9424847
  46.6582773 143.7194517 111.0567214  27.7413369 140.7835578 104.1441500
  28.4284409 140.4697308 103.5562515  27.5861498 141.6876943 103.8708751
  32.5448091 135.6725775 108.5726523  32.4606280 135.0651444 107.8376933
  31.7230798 136.1634793 108.5736020  42.7171805 134.1579338 103.9396718
  43.2140505 133.4049300 103.6197789  41.9458787 134.1943655 103.3739928
  50.5701563 139.8619704 105.5815010  50.5591439 140.7444419 105.2108943
  49.7018942 139.5091254 105.3869547  43.8001586 142.9151025 101.5135142
  42.8657865 143.0352488 101.3439846  43.9778254 142.0123492 101.2495152
  39.3006774 136.2996721 103.6668403  38.9304561 135.7467761 104.3549309
  39.7965866 135.6954855 103.1143403  47.1874137 138.7568345 102.0485176
  47.6534589 139.5896336 101.9745479  47.6381638 138.2913326 102.7530434
  37.1295973 146.7594216 110.7623421  37.8305432 147.3930699 110.9152815
  36.6591088 147.1008948 110.0019060  45.2550368 145.1012166  99.0471328
  45.5310212 144.9868760  99.9565202  44.3854867 144.7029651  99.0083501
  45.1590800 131.1248932 106.0876077  44.2453880 131.3553158 106.2558284
  45.5883901 131.2087376 106.9390110  44.9297259 139.3138824 108.5875971
  44.2768709 139.5614731 107.9328424  45.3077638 138.5002962 108.2538449
  42.2246598 148.2766702  99.9519190  42.7534364 147.7659156  99.3389352
  42.4874817 147.9609232 100.8164723  40.9784832 140.0558635 115.0742008
  40.3025469 139.9552764 115.7444384  41.8012465 139.8997848 115.5378006
  27.3181345 138.8636171 106.4158967  27.3565445 138.3299762 107.2096085
  26.8121638 138.3371377 105.7969944  34.6972108 133.7100712 109.9121509
  34.7613434 134.5715543 109.4998907  34.6339228 133.0974714 109.1793868
  34.1724380 135.7823844 113.5594543  34.7996419 135.4000922 114.1732068
  33.3152299 135.5638046 113.9250236  44.5718489 146.1886820 115.1648279
  45.1158393 146.8016778 114.6703234  43.9905334 146.7466398 115.6815292
  30.9489923 137.5900274  99.4912898  31.2443364 136.6810952  99.4379952
  30.0477959 137.5688013  99.1693900  34.4784170 135.6656270 105.4740447
  33.7570756 136.2792238 105.3347920  35.2677426 136.2014035 105.3957093
  44.9210910 147.1116558 107.9242857  43.9741246 146.9921909 107.8521183
  45.2693683 146.2239056 108.0069118  37.2810483 133.0010697 111.7481098
  37.8044885 133.2472993 112.5107408  37.0622817 133.8330731 111.3284236
  32.6777764 135.2714371  99.6152223  32.3490471 134.3911750  99.4327329
  33.0317135 135.2162040 100.5028613  41.9257343 146.9069274 104.1247209
  41.7782306 145.9785981 104.3054779  42.7510837 146.9289365 103.6404284
  35.7919588 135.5587341  99.9827701  36.1315660 136.0873262  99.2606309
  36.2391708 135.8967747 100.7586268  45.5291465 147.7297833 105.2112082
  46.4538013 147.5240694 105.0736533  45.3606769 147.4814234 106.1201423
  38.4863028 133.9424392 109.4330769  38.1459849 133.1432205 109.8351449
  37.7802035 134.2426103 108.8607602  39.1379500 131.0273704 107.8858092
  39.9605570 130.5534182 107.7636982  39.3817564 131.8064188 108.3856778
  37.7787735 134.0561963  98.1820994  38.4996097 134.4343215  97.6784711
  37.1553039 134.7750839  98.2855972  41.9218858 134.7607112  99.1179326
  42.1382472 135.6431749  98.8168154  41.4412925 134.3693325  98.3884968
  36.6618079 137.7192825 105.6950071  36.5162660 138.0333128 106.5874352
  36.1843283 138.3377725 105.1420969  38.5214462 134.7095373 105.7430960
  38.5076031 133.8136466 105.4063258  39.2386890 134.7166036 106.3769246
  40.3740593 135.1432713 107.7884088  40.1158370 136.0649784 107.7868418
  39.8425633 134.7463147 108.4784552  45.3186781 148.2483500 100.5674173
  45.4923659 147.6829923  99.8148025  45.8115673 149.0484395 100.3853663
  31.1363741 140.2598169 108.6337732  30.5917209 141.0357977 108.7658006
  32.0143091 140.6068974 108.4756853  37.9251358 133.5909753 101.0118530
  38.0467269 132.6626399 101.2109418  37.6353400 133.6048439 100.0996846
  40.7942548 131.2764663 104.1485250  40.8164245 131.3403997 103.1937230
  41.2110607 130.4369172 104.3425756  51.1726173 141.0119923 102.1864473
  51.6157319 140.2627248 101.7883596  50.2952683 141.0030059 101.8038205
  46.3061954 147.5650264  97.6671071  47.0012859 148.1856957  97.8858386
  46.6485104 146.7145616  97.9423449  31.9229763 139.3868065 111.5267889
  31.1811499 139.5350701 112.1132519  31.6022507 139.6476331 110.6634638
  48.2053377 145.0149970  99.1958402  48.7304701 145.3537243  98.4707722
  48.1175730 144.0796985  99.0121537  37.3367910 146.6259962 105.6275957
  36.7147919 145.9630667 105.3278185  38.0072777 146.6521094 104.9449605
  37.4092437 135.1041750 115.2208463  37.4580593 135.9803873 114.8386233
  37.9514952 134.5619143 114.6480106  47.8947283 145.6482874 114.5009600
  47.1042827 145.6307012 113.9614099  47.6580638 146.1871167 115.2558637
  48.0145158 142.4975340 111.8142329  48.0643163 142.3325347 112.7557851
  47.9059081 141.6302599 111.4240209  36.8981417 145.1763886  99.1034417
  37.0469537 145.8599350  98.4501090  37.7047860 145.1568976  99.6183873
  45.3048921 138.4806268 113.1301635  46.2058783 138.3412733 112.8385633
  45.3796895 138.6460723 114.0699813  39.6391726 135.8573123 111.9754822
  38.7695035 136.1506689 111.7037410  39.8751206 136.4413568 112.6962085
  49.5163355 144.9172282 112.0584350  49.2248163 145.2802262 112.8947811
  48.9035486 144.2039290 111.8797682  50.7159037 142.4825161 104.5786920
  51.5505929 142.9214965 104.7424481  50.8518166 142.0063815 103.7595166
  47.7650543 140.0404896 110.5264408  48.2404665 140.2332542 109.7183259
  46.8416109 140.0964082 110.2807792  34.6534050 141.2029063 100.1095486
  34.4080092 140.2991393 100.3075697  34.8229964 141.2046214  99.1674964
  42.3430760 132.0752740 109.4920242  42.8612704 132.8113767 109.1666731
  41.9885892 132.3816733 110.3267001  33.9229697 136.9357421  97.6081648
  33.2298942 137.0101776  96.9521684  33.6781449 136.1717765  98.1303165
  42.5943354 128.4953022 105.0121139  42.8745108 127.8276211 105.6381565
  43.3793961 128.6882118 104.4995802  40.3976822 147.6712016  96.5746165
  39.8250789 148.2902203  96.1216637  40.9709616 148.2211378  97.1086087
  46.4652212 136.9170656 108.7592714  47.4169635 137.0168754 108.7804938
  46.2955663 136.1248925 109.2690798  44.4866592 134.0026239 108.9452115
  43.8916524 134.2831252 108.2498603  44.2016288 134.4920140 109.7168856
  43.6174082 147.9549166  97.7054747  44.5504755 147.8894728  97.9087623
  43.5297295 148.7905433  97.2469280  46.2462099 147.2715037  94.6658695
  46.1675730 146.9374900  95.5594453  47.0671766 147.7636805  94.6650167
  48.9440290 140.1376776 107.8735013  48.9116610 139.1992777 108.0594697
  49.5540914 140.2160813 107.1400838  40.7823621 139.0072829  93.9162217
  41.7282726 138.8779037  93.9850635  40.4037866 138.2687491  94.3931646
  49.0934778 136.9287819 107.9193297  48.5773827 136.1446276 107.7323225
  49.9774727 136.6006536 108.0839816  46.7545505 130.6728835 103.8789109
  46.5570327 130.3643923 104.7632441  47.3645211 131.3990474 104.0087039
  54.7616840 141.1992783 107.0141050  55.4920228 140.9378071 107.5748753
  54.1523785 140.4621505 107.0543118  52.8432137 139.3400645 107.6115501
  52.1165301 139.2056610 107.0031993  52.4279424 139.6477474 108.4172219
  40.6662313 143.0590575 115.3762874  41.5865323 143.2369174 115.5702921
  40.6311896 142.1146620 115.2242574  38.9666538 136.9322805  93.8517103
  38.0597993 136.6355918  93.9279816  39.2442519 136.6352623  92.9851389
  29.8844478 138.2529169 104.3016149  29.5647263 137.3994477 104.0090523
  29.3377907 138.4677747 105.0574116  33.6624386 140.9691610 108.0185656
  33.8810396 141.9008718 108.0373689  34.0750160 140.6099584 108.8040459
  40.5828604 131.4759695 100.0061344  39.7729332 131.1306780 100.3816590
  41.2713021 131.1667239 100.5948955  42.5119152 130.5537742 101.6285641
  43.0650191 130.9733195 102.2875664  42.7489238 129.6273490 101.6708597
  38.5352251 136.5424815 117.4088404  38.4348978 137.4919172 117.3400496
  38.3173793 136.2143054 116.5364475  37.7365323 133.7909741  93.9929082
  38.5984487 134.1164639  94.2524899  37.9215667 133.0041236  93.4802148
  29.7532738 141.8732080 106.2709271  29.0596210 141.4586033 105.7579225
  30.5005729 141.9152617 105.6742690  45.8897959 132.6638267 101.1364305
  45.3096628 133.3223071 100.7542357  45.6233892 131.8415612 100.7251722
  44.3401525 132.0643325 103.3385625  44.8401304 132.1759859 102.5299944
  44.9837133 131.7604378 103.9786434  38.3983521 139.9721954 116.2253466
  37.9150603 140.7722314 116.4317355  38.4844460 139.9829899 115.2720910
  31.6669481 141.8050334 104.1475285  31.6440169 141.9038021 103.1957169
  31.9770117 142.6515485 104.4692452  34.3256859 143.8626489 108.2621900
  35.2800112 143.8310431 108.1951831  34.1269382 143.4017113 109.0772126
  34.9156241 142.4327605 110.8292698  35.7349130 142.9271684 110.8527535
  35.1893049 141.5159573 110.8010265  44.6722837 134.8238357 100.1920653
  43.7848692 135.1088008  99.9740848  45.0876826 134.6632121  99.3447930
  48.0237373 134.8484878 103.9074992  48.7997763 135.3381331 104.1799609
  47.2985507 135.2742933 104.3646862  50.4609932 135.5612498 104.9648933
  51.0554423 135.3208234 104.2542241  50.5336516 134.8419628 105.5922469
  43.8166051 144.5883032  94.2868673  44.5201901 144.7933035  94.9026329
  43.0928699 145.1559794  94.5517757  44.6463861 140.3392893 100.4070943
  44.5899062 140.7961445  99.5678576  45.1992203 139.5783578 100.2293786
  48.4568667 136.1282625 101.2321063  48.2005601 135.7279261 102.0629270
  47.8321535 136.8426419 101.1071202  52.7681005 138.8678698 103.7392354
  52.2080563 138.9371888 104.5123916  52.1624508 138.6919683 103.0191850
  45.7252748 145.0265561  96.3367133  46.5598352 144.5946760  96.1544608
  45.5637091 144.8547575  97.2644028  45.3798640 141.5297675  97.7023472
  45.3247444 141.3641946  96.7611917  44.7544695 142.2373707  97.8585662
  30.1691155 136.7665739 111.5284895  30.8150019 136.2564693 112.0172120
  29.9608306 137.5034421 112.1028320  42.6944547 143.8346586 117.0277035
  43.5635707 144.0087239 116.6663670  42.2151299 144.6541003 116.9052765
  38.6894766 131.0305784  97.2808791  38.6773435 131.9747623  97.4377062
  39.5818188 130.8475929  96.9868252  42.5046885 127.6248560 101.5354728
  41.7379281 127.0707047 101.6811410  42.9157590 127.6970429 102.3968879
  34.5088646 133.9133356 115.6259909  35.3720108 133.5570161 115.8363233
  33.9354057 133.5747251 116.3135313  59.3086719 153.2061899 104.4108496
  60.0411891 152.6361116 104.6446326  58.5526074 152.8183500 104.8515002
  56.8312139 146.9183474 108.8703105  56.4995464 147.7878884 108.6464320
  56.2357752 146.6019758 109.5497135  50.5668325 150.6579041  96.6033187
  50.7342728 151.5259277  96.9703658  50.3765494 150.8206322  95.6794477
  56.7240802 151.6378560 105.9496455  55.8157680 151.5693968 105.6555216
  56.6728398 152.1150505 106.7778281  58.5902449 149.8394998 107.7274329
  57.9476829 150.1327531 107.0814124  58.0857377 149.7247918 108.5327526
  54.0313895 150.6059774 111.0836211  53.7874827 151.3601835 110.5470487
  54.3073826 150.9845122 111.9183458  53.5878587 149.7616207 106.6650049
  52.7263066 150.0597461 106.9566787  53.6141022 149.9786606 105.7331082
  65.1904179 156.3709090 104.2820806  64.4367888 155.8016489 104.1264810
  65.3251720 156.3371755 105.2291441  47.0670147 147.3214073 116.6189880
  46.6737093 146.7680271 117.2937525  47.8836287 147.6324651 117.0096398
  49.9838108 148.7371952 114.2110137  50.7247821 149.3379105 114.1314599
  50.2156031 147.9949590 113.6528180  53.9295271 144.7653055 108.4874419
  53.5859540 145.6554696 108.4113529  54.2974233 144.5754712 107.6244004
  51.4792665 149.6011367 102.0532092  50.6234261 149.2118217 101.8737731
  51.8919616 149.6803327 101.1931878  53.0091811 147.1357710 106.4523652
  52.5056607 147.0987845 105.6391457  53.3022418 148.0450453 106.5120309
  49.2534697 147.2196440 105.4589834  50.1187694 147.0239248 105.0995723
  49.3212206 146.9906791 106.3859190  53.6831857 152.6288758  98.8206635
  53.3781992 152.9434907  99.6716778  54.6362299 152.7070178  98.8633968
  46.8597016 149.4498647 102.8306200  47.4340768 149.2273829 102.0979393
  47.4467999 149.5187342 103.5834802  49.1619684 146.3239896 101.5581270
  48.5084096 146.0088914 100.9337885  49.1200158 145.7015637 102.2841093
  55.6271309 151.2470362 102.9950387  54.8894066 150.7347748 103.3260630
  55.8798083 150.8070743 102.1833664  55.7282937 144.0246614 103.5892156
  56.0341813 143.1643977 103.3018071  56.4535541 144.6164234 103.3891150
  47.4310451 150.5095822 107.4719961  48.0709830 150.3684581 106.7742925
  46.5987981 150.2230336 107.0958563  51.8089565 148.5195845 111.4357433
  51.1617480 149.2185795 111.3421910  52.5790580 148.9531989 111.8033682
  53.5565560 149.4871256 103.9396718  54.0534259 148.7341218 103.6197789
  52.7852541 149.5235572 103.3739928  50.1400528 151.6288639 103.6668403
  49.7698316 151.0759679 104.3549309  50.6359621 151.0246772 103.1143403
  55.9984554 146.4540849 106.0876077  55.0847634 146.6845076 106.2558284
  56.4277656 146.5379293 106.9390110  45.5365862 149.0392630 109.9121509
  45.6007189 149.9007460 109.4998907  45.4732982 148.4266631 109.1793868
  48.1204238 148.3302614 111.7481098  48.6438640 148.5764911 112.5107408
  47.9016571 149.1622649 111.3284236  49.3256783 149.2716309 109.4330769
  48.9853603 148.4724122 109.8351449  48.6195789 149.5718020 108.8607602
  49.9773255 146.3565622 107.8858092  50.7999324 145.8826100 107.7636982
  50.2211318 147.1356106 108.3856778  48.6181489 149.3853880  98.1820994
  49.3389852 149.7635133  97.6784711  47.9946793 150.1042757  98.2855972
  52.7612612 150.0899029  99.1179326  52.9776227 150.9723667  98.8168154
  52.2806679 149.6985243  98.3884968  49.3608216 150.0387290 105.7430960
  49.3469785 149.1428384 105.4063258  50.0780645 150.0457954 106.3769246
  51.2134347 150.4724631 107.7884088  50.9552125 151.3941701 107.7868418
  50.6819388 150.0755065 108.4784552  48.7645112 148.9201671 101.0118530
  48.8861024 147.9918317 101.2109418  48.4747155 148.9340357 100.0996846
  51.6336303 146.6056581 104.1485250  51.6558000 146.6695914 103.1937230
  52.0504362 145.7661090 104.3425756  56.1442675 153.8098186 113.1301635
  57.0452538 153.6704651 112.8385633  56.2190650 153.9752641 114.0699813
  50.4785480 151.1865040 111.9754822  49.6088790 151.4798607 111.7037410
  50.7144961 151.7705485 112.6962085  53.1824514 147.4044657 109.4920242
  53.7006458 148.1405684 109.1666731  52.8279647 147.7108651 110.3267001
  53.4337108 143.8244940 105.0121139  53.7138862 143.1568129 105.6381565
  54.2187715 144.0174036 104.4995802  57.3045967 152.2462574 108.7592714
  58.2563390 152.3460672 108.7804938  57.1349417 151.4540842 109.2690798
  55.3260346 149.3318157 108.9452115  54.7310278 149.6123170 108.2498603
  55.0410043 149.8212058 109.7168856  59.9328533 152.2579737 107.9193297
  59.4167582 151.4738194 107.7323225  60.8168481 151.9298454 108.0839816
  57.5939260 146.0020753 103.8789109  57.3964081 145.6935841 104.7632441
  58.2038965 146.7282392 104.0087039  65.6010594 156.5284700 107.0141050
  66.3313983 156.2669989 107.5748753  64.9917540 155.7913422 107.0543118
  63.6825891 154.6692563 107.6115501  62.9559055 154.5348528 107.0031993
  63.2673178 154.9769392 108.4172219  51.4222358 146.8051613 100.0061344
  50.6123087 146.4598698 100.3816590  52.1106775 146.4959156 100.5948955
  53.3512907 145.8829660 101.6285641  53.9043945 146.3025113 102.2875664
  53.5882993 144.9565408 101.6708597  48.5759077 149.1201658  93.9929082
  49.4378241 149.4456557  94.2524899  48.7609421 148.3333154  93.4802148
  56.7291714 147.9930185 101.1364305  56.1490383 148.6514989 100.7542357
  56.4627646 147.1707529 100.7251722  55.1795280 147.3935242 103.3385625
  55.6795058 147.5051777 102.5299944  55.8230888 147.0896295 103.9786434
  55.5116592 150.1530275 100.1920653  54.6242447 150.4379926  99.9740848
  55.9270581 149.9924038  99.3447930  58.8631128 150.1776796 103.9074992
  59.6391518 150.6673248 104.1799609  58.1379262 150.6034850 104.3646862
  61.3003686 150.8904415 104.9648933  61.8948177 150.6500151 104.2542241
  61.3730270 150.1711546 105.5922469  59.2962421 151.4574543 101.2321063
  59.0399356 151.0571179 102.0629270  58.6715289 152.1718337 101.1071202
  63.6074759 154.1970616 103.7392354  63.0474317 154.2663805 104.5123916
  63.0018262 154.0211601 103.0191850  49.5288520 146.3597701  97.2808791
  49.5167190 147.3039541  97.4377062  50.4211942 146.1767847  96.9868252
  53.3440640 142.9540478 101.5354728  52.5773035 142.3998965 101.6811410
  53.7551345 143.0262347 102.3968879  45.3482401 149.2425274 115.6259909
  46.2113862 148.8862079 115.8363233  44.7747811 148.9039168 116.3135313
   5.1117948  53.5664434  91.1353803   5.8443119  52.9963650  91.3691633
   4.3557303  53.1786034  91.5760309   2.6343368  47.2786008  95.5948412
   2.3026693  48.1481419  95.3709627   2.0388981  46.9622292  96.2742442
   2.5272031  51.9981094  92.6741762   1.6188909  51.9296502  92.3800523
   2.4759627  52.4753039  93.5023587   4.3933678  50.1997532  94.4519636
   3.7508058  50.4930065  93.8059430   3.8888606  50.0850453  95.2572832
   2.0473841  53.9460705  85.1405495   2.9591697  54.1788092  84.9653192
   1.5383488  54.5297750  84.5780574   4.5332655  59.8640962  89.8863440
   3.8483694  60.2439863  89.3360473   4.6176505  60.4736288  90.6195388
   1.7883587  57.5100921  96.4858784   2.0000482  58.1532681  95.8093165
   1.7413335  56.6763237  96.0180714   2.9029415  60.3872876  94.6581141
   3.7246859  59.9853064  94.3763823   2.8991818  60.2841110  95.6097257
  10.9935408  56.7311625  91.0066112  10.2399116  56.1619023  90.8510117
  11.1282949  56.6974289  91.9536747   4.6711057  57.8696555  85.6545334
   3.8940499  57.5307714  85.2100496   5.3502538  57.8749178  84.9800299
   2.9102363  57.3430536  92.3111942   2.2526038  58.0329797  92.3992070
   3.7142763  57.7326968  92.6545928   1.7207822  55.6974909  90.3615884
   2.2339704  56.3304900  90.8637593   2.3709046  55.0976104  89.9959244
   2.4869618  60.6780910  88.4895026   2.0331946  59.8371820  88.5460217
   1.8563585  61.3142308  88.8269806   1.4302538  51.6072896  89.7195694
   0.6925295  51.0950282  90.0505936   1.6829312  51.1673278  88.9078971
   0.9302558  62.5157407  89.4244844   1.2225532  63.0762464  88.7057210
   1.4401178  62.8085968  90.1798003   1.5314165  44.3849148  90.3137463
   1.8373042  43.5246512  90.0263378   2.2566770  44.9766768  90.1136457
   5.0699554  56.8840261  88.1168256   4.9317452  57.0741857  87.1889445
   4.7135772  57.6459644  88.5736307   5.0968933  58.9516788  93.1279527
   5.5305440  58.8592077  93.9762581   5.8100514  58.9274289  92.4899543
   5.9584483  58.9940489  95.6612413   6.1520373  59.8986299  95.9071688
   5.8585101  58.5347908  96.4950998   1.0199591  59.1447232 101.2353293
   0.8685098  58.9157783 100.3183377   1.0104271  60.1017833 101.2484638
   1.0737666  57.4667446  81.6523995   0.4566837  56.7414274  81.5557048
   0.6054155  58.2276806  81.3091069   2.7291798  62.1766354  99.3129775
   2.6704344  61.4925574  98.6460358   3.1311316  62.9185344  98.8610401
   2.7309205  60.1405938  97.5443755   1.8435984  59.8031860  97.6670154
   3.3007756  59.4088969  97.7812520   7.2126546  55.5514156  92.3060317
   7.2016422  56.4338871  91.9354250   6.3443925  55.1985706  92.1114854
   3.8299121  54.4462796  88.7730483   4.2959573  55.2790788  88.6990785
   4.2806621  53.9807778  89.4775741   1.8975352  60.7906618  85.7716635
   2.1735196  60.6763212  86.6810509   1.0279850  60.3924103  85.7328808
   1.8015783  46.8143383  92.8121384   0.8878863  47.0447610  92.9803591
   2.2308885  46.8981828  93.6635416   1.5722242  55.0033275  95.3121278
   0.9193692  55.2509183  94.6573731   1.9502622  54.1897414  94.9783755
   1.2143472  61.8781271 101.8893585   1.7583376  62.4911230 101.3948540
   0.6330317  62.4360850 102.4060598   1.5635893  62.8011010  94.6488163
   0.6166229  62.6816361  94.5766490   1.9118666  61.9133508  94.7314425
   2.1716448  63.4192285  91.9357388   3.0962996  63.2135146  91.7981839
   2.0031752  63.1708686  92.8446730   1.9611765  63.9377952  87.2919480
   2.1348642  63.3724374  86.5393332   2.4540656  64.7378847  87.1098970
   7.8151156  56.7014375  88.9109779   8.2582302  55.9521700  88.5128903
   6.9377666  56.6924511  88.5283511   2.9486937  63.2544716  84.3916378
   3.6437842  63.8751409  84.6103693   3.2910087  62.4040068  84.6668756
   4.8478360  60.7044422  85.9203709   5.3729684  61.0431695  85.1953029
   4.7600713  59.7691437  85.7366843   4.5372266  61.3377326 101.2254907
   3.7467810  61.3201464 100.6859406   4.3005621  61.8765619 101.9803943
   4.6570141  58.1869792  98.5387635   4.7068146  58.0219799  99.4803158
   4.5484065  57.3197051  98.1485516   1.9473904  54.1700720  99.8546942
   2.8483767  54.0307185  99.5630940   2.0221878  54.3355175 100.7945119
   6.1588338  60.6066733  98.7829657   5.8673147  60.9696714  99.6193118
   5.5460470  59.8933742  98.6042989   7.3584021  58.1719613  91.3032227
   8.1930912  58.6109417  91.4669787   7.4943149  57.6958266  90.4840473
   4.4075527  55.7299348  97.2509715   4.8829648  55.9226994  96.4428566
   3.4841092  55.7858534  97.0053098   3.1077196  52.6065108  95.4838020
   4.0594618  52.7063206  95.5050244   2.9380646  51.8143377  95.9936105
   1.1291575  49.6920691  95.6697421   0.5341507  49.9725704  94.9743910
   0.8441272  50.1814592  96.4414162   2.8887082  62.9609489  81.3904001
   2.8100714  62.6269352  82.2839759   3.7096749  63.4531256  81.3895474
   5.5865273  55.8271228  94.5980320   5.5541593  54.8887229  94.7840004
   6.1965897  55.9055265  93.8646145   5.7359762  52.6182271  94.6438603
   5.2198810  51.8340728  94.4568532   6.6199710  52.2900988  94.8085123
   3.3970489  46.3623287  90.6034416   3.1995310  46.0538375  91.4877748
   4.0070194  47.0884926  90.7332346  11.4041823  56.8887235  93.7386357
  12.1345212  56.6272523  94.2994060  10.7948769  56.1515957  93.7788425
   9.4857120  55.0295097  94.3360808   8.7590284  54.8951062  93.7277300
   9.0704407  55.3371926  95.1417526   2.5322942  48.3532719  87.8609611
   1.9521611  49.0117523  87.4787664   2.2658875  47.5310063  87.4497029
   0.9826509  47.7537777  90.0630932   1.4826287  47.8654311  89.2545251
   1.6262117  47.4498829  90.7031740   1.3147820  50.5132809  86.9165960
   0.4273675  50.7982460  86.6986154   1.7301810  50.3526573  86.0693237
   4.6662357  50.5379330  90.6320299   5.4422747  51.0275783  90.9044916
   3.9410491  50.9637384  91.0892168   7.1034915  51.2506949  91.6894240
   7.6979406  51.0102685  90.9787548   7.1761499  50.5314080  92.3167776
   1.2888844  56.0287345  87.1316250   1.2324046  56.4855897  86.2923882
   1.8417187  55.2678030  86.9539093   5.0993650  51.8177077  87.9566369
   4.8430584  51.4173713  88.7874577   4.4746518  52.5320871  87.8316509
   9.4105988  54.5573150  90.4637661   8.8505546  54.6266340  91.2369223
   8.8049491  54.3814135  89.7437157   2.3677731  60.7160013  83.0612440
   3.2023335  60.2841212  82.8789915   2.2062074  60.5442027  83.9889334
   2.0223623  57.2192126  84.4268779   1.9672427  57.0536398  83.4857223
   1.3969679  57.9268159  84.5830969  10.9962006  71.2329664  93.1567617
  11.6340416  71.1136412  92.4530957  10.8782849  72.1810508  93.2155569
   7.8051713  71.1857092  93.0929141   7.4670224  71.0698157  92.2049676
   8.6741481  70.7848257  93.0730147   3.6638528  73.0392569  89.0826032
   3.1003394  72.9482506  88.3142320   3.5490923  72.2192473  89.5628525
   8.2871496  72.3391944  99.0515347   8.2760136  71.9444742  98.1795850
   8.4492135  71.6058017  99.6449118   1.2102960  74.5343760  91.9210253
   2.0024252  74.1934585  91.5056552   1.4499610  74.6438735  92.8412406
   9.2438087  76.7063536  84.3940497   8.5926067  77.2917617  84.0074511
  10.0382450  77.2369731  84.4535535   3.1693714  73.7952674  84.7927631
   3.9424590  73.2481661  84.6540507   3.5219113  74.6596923  85.0042093
   5.0078757  75.1229056  97.9994531   4.7168623  76.0274687  97.8841197
   5.6435741  75.1645583  98.7138600   5.9334964  72.5005904  94.5895890
   6.5298536  72.2761927  93.8752853   5.9909935  71.7590650  95.1921338
   5.5059992  69.9545340  82.4246081   5.7585513  69.4326861  81.6629544
   4.5684551  69.7911485  82.5272765  10.5503275  68.9581118  90.2320825
  11.3366364  68.5400541  89.8811242  10.8141979  69.8627210  90.4002473
  10.7213352  74.3953968  84.9309481  10.0859185  74.4688595  85.6430386
  10.3910759  74.9847567  84.2528561  15.9511702  68.8956351  91.1353803
  16.6836874  68.3255568  91.3691633  15.1951058  68.5077952  91.5760309
   5.2256281  71.8573446  84.6270456   5.1092539  71.1818349  85.2951541
   5.3358541  71.3705820  83.8102609   7.5687822  71.3183593  88.3317146
   7.2046029  70.7914214  89.0430067   8.4254938  70.9282062  88.1583631
  13.4737122  62.6077925  95.5948412  13.1420447  63.4773336  95.3709627
  12.8782736  62.2914209  96.2742442   7.2093309  66.3473492  83.3278494
   7.3767711  67.2153729  83.6948965   7.0190478  66.5100774  82.4039783
   9.9668642  74.8090471  94.9944324   9.6669365  75.7115510  94.8860132
   9.6219701  74.5422655  95.8465477   3.4181123  71.2604268  91.0281029
   2.4931620  71.1280482  91.2358721   3.6665537  72.0398487  91.5250971
  13.3665786  67.3273012  92.6741762  12.4582663  67.2588420  92.3800523
  13.3153381  67.8044957  93.5023587   7.1882530  68.8031150  84.3125161
   7.0682155  69.2488201  85.1510641   6.4935118  69.1516468  83.7538699
   4.9489422  81.5734792  87.9615292   4.8713451  82.5242617  88.0403773
   4.3451065  81.2280664  88.6190218   7.4406651  68.7462657 100.6176659
   6.6639986  69.3056577 100.6079524   8.0797215  69.2319440 101.1391529
  15.2327432  65.5289450  94.4519636  14.5901812  65.8221983  93.8059430
  14.7282361  65.4142370  95.2572832  12.8867596  69.2752623  85.1405495
  13.7985452  69.5080010  84.9653192  12.3777243  69.8589667  84.5780574
   5.6953024  71.5548111 100.1794626   6.4367708  72.0933154  99.9029450
   4.9890009  72.1814399 100.3366178  11.1708363  73.6977251  98.7766787
  11.5791719  73.2559662  98.0321420  10.4485625  73.1229879  99.0300980
   7.5239433  68.6349858  96.1500344   8.3700629  69.0589271  96.2934993
   7.4638071  67.9783482  96.8438908  11.4937178  74.2578442  92.5319076
  10.8646040  74.4224156  91.8295144  11.1062840  74.6720051  93.3030040
  15.3726410  75.1932879  89.8863440  14.6877448  75.5731781  89.3360473
  15.4570259  75.8028206  90.6195388  10.6738879  66.2954226  97.8081518
  10.4299811  67.0496287  97.2715794  10.9498809  66.6739574  98.6428765
  12.6277342  72.8392838  96.4858784  12.8394237  73.4824598  95.8093165
  12.5807090  72.0055155  96.0180714  10.2303571  65.4510659  93.3895356
   9.3688050  65.7491913  93.6812093  10.2566005  65.6681058  92.4576388
   7.0465140  73.9952850  89.7969161   7.5103485  74.2740553  89.0073784
   6.7821938  73.0936294  89.6142252   3.9389221  73.5424331  92.7348925
   4.5090578  73.9711600  92.0966409   4.5297333  73.2606916  93.4333110
   5.9834026  70.1176002  86.6058727   6.6858069  70.5697046  87.0732653
   5.6514654  69.4759821  87.2338620   4.4314388  68.7087759 100.9809936
   3.8013048  69.3904040 101.2145333   4.3250475  68.5970840 100.0363074
  13.7423169  75.7164794  94.6581141  14.5640613  75.3144981  94.3763823
  13.7385572  75.6133028  95.6097257   1.6774105  68.7404134  88.8659337
   0.8805269  68.8522828  89.3842833   1.4499698  69.0790786  88.0000227
   7.5079773  75.2648837  96.8141851   7.5724205  75.7269244  97.6500023
   6.7990697  74.6346202  96.9424161  21.8329163  72.0603542  91.0066112
  21.0792871  71.4910940  90.8510117  21.9676704  72.0266207  91.9536747
   7.2227791  76.9316945  86.6820832   7.0873465  77.7768480  87.1105680
   7.7637603  77.1336222  85.9186766   3.7095130  63.0108525 103.3435187
   3.3162076  62.4574723 104.0182831   4.5261271  63.3219103 103.7341705
   0.6757188  74.4492383  87.2548757   1.1881709  75.2435633  87.4054322
   1.3279901  73.7518673  87.1882358   2.4852073  77.5658139  89.3371510
   2.6618701  78.4876104  89.1492494   3.2808906  77.2516558  89.7665890
   6.6263091  64.4266404 100.9355444   7.3672805  65.0273557 100.8559906
   6.8581014  63.6844041 100.3773486   1.7704429  69.6122771  99.2133673
   1.6557944  68.7108028  99.5140772   0.9148947  69.8586468  98.8618490
   8.8496267  77.5540511 100.8121174   8.4060121  76.7676890 100.4942078
   9.5113481  77.7419662 100.1465065   3.6083388  79.0836313  95.3381852
   4.1590813  78.9553376  94.5658846   2.7694864  79.3831202  94.9876745
  10.9477505  77.8343311  98.8402575  10.9295980  78.6552192  98.3482844
  11.8697425  77.7097386  99.0652716   7.4050559  75.3487441  99.6826084
   7.9378896  74.5875729  99.4525392   6.8764640  75.0561092 100.4250238
  10.5720254  60.4547507  95.2119725  10.2284524  61.3449148  95.1358836
  10.9399217  60.2649164  94.3489310  10.5370537  70.4456118  83.7192160
  10.0217160  71.2160722  83.9580548  10.2647845  69.7721254  84.3425222
   8.1217648  65.2905818  88.7777399   7.2659244  64.9012669  88.5983037
   8.5344600  65.3697779  87.9177184   9.6516795  62.8252162  93.1768959
   9.1481590  62.7882297  92.3636764   9.9447401  63.7344904  93.2365615
   5.8959680  62.9090891  92.1835140   6.7612677  62.7133700  91.8241030
   5.9637189  62.6801243  93.1104497  15.5104811  73.1988472  85.6545334
  14.7334254  72.8599632  85.2100496  16.1896292  73.2041095  84.9800299
  10.3256840  68.3183210  85.5451942  10.0206976  68.6329359  86.3962085
  11.2787282  68.3964630  85.5879275   8.7703272  74.4773433  87.1944896
   8.2424633  73.7426193  86.8818133   8.2690775  75.2548109  86.9484864
  13.7496118  72.6722454  92.3111942  13.0919792  73.3621715  92.3992070
  14.5536517  73.0618886  92.6545928   3.5022000  65.1393099  89.5551507
   4.0765751  64.9168281  88.8224700   4.0892982  65.2081794  90.3080108
  12.5601577  71.0266826  90.3615884  13.0733458  71.6596818  90.8637593
  13.2102801  70.4268022  89.9959244   3.8291587  67.1697560  83.5747392
   2.9928899  67.5072247  83.8956667   3.6896356  67.0346540  82.6374529
   5.8044667  62.0134348  88.2826576   5.1509080  61.6983365  87.6583191
   5.7625141  61.3910089  89.0086399   6.9155872  72.2953643  80.1979869
   6.0082934  72.0642897  80.3971018   7.4126904  71.4991263  80.3853850
   9.8223951  81.0051151  83.1176555   9.1485650  81.3082847  83.7261513
  10.2089773  81.8080231  82.7682012   9.0382408  68.5016282  92.6074224
   8.1204969  68.7231229  92.4495912   9.4542551  68.5762592  91.7485931
   9.8217455  69.9007697  87.7376904  10.5689274  70.4129095  87.4284026
  10.0909045  69.5791750  88.5981298   8.0944106  72.3966238  84.7203859
   7.1855325  72.1125271  84.8176328   8.1239189  72.8165317  83.8607166
  13.3263373  76.0072828  88.4895026  12.8725700  75.1663738  88.5460217
  12.6957340  76.6434226  88.8269806  12.2696293  66.9364814  89.7195694
  11.5319049  66.4242200  90.0505936  12.5223066  66.4965195  88.9078971
  11.7696312  77.8449324  89.4244844  12.0619287  78.4054382  88.7057210
  12.2794933  78.1377885  90.1798003  12.3707920  59.7141066  90.3137463
  12.6766797  58.8538429  90.0263378  13.0960525  60.3058686  90.1136457
   6.6429000  70.0094859  90.8213654   6.6977609  69.0568695  90.7456131
   5.8320202  70.1654298  91.3054952   7.7920193  73.9374982  82.0591937
   7.3539623  73.2210841  81.5997575   8.5330634  74.1651097  81.4977029
   4.5821359  68.6271919  88.5804033   3.7689225  68.9266089  88.9869225
   5.0780354  68.2327607  89.2978515   6.7329937  78.6229675  90.5138298
   6.6906116  78.8490522  89.5846830   7.6492636  78.3893050  90.6624099
  10.1795571  69.0913743  97.4118927  10.5344959  69.3185216  98.2713393
  10.8267702  69.4232120  96.7896182  15.9093308  72.2132179  88.1168256
  15.7711207  72.4033775  87.1889445  15.5529527  72.9751562  88.5736307
   4.0735434  66.1990274  94.1965268   4.7134814  66.0579033  93.4988231
   3.2412965  65.9124787  93.8203870  15.9362688  74.2808706  93.1279527
  16.3699194  74.1883995  93.9762581  16.6494268  74.2566206  92.4899543
   4.8495738  75.4992705  90.3100260   5.6436337  75.0043025  90.1082835
   4.1387431  74.9710568  89.9467966   9.6690583  77.8810800  94.6612628
   9.7227605  78.4501736  95.4290344   8.8005364  78.0512685  94.2966665
   1.0764051  66.1690599  88.9738255   1.3370868  67.0835932  88.8647415
   1.8981223  65.7015042  89.1234867   2.5488976  67.5828356  96.1437079
   3.2212029  67.3745718  95.4949728   1.7218763  67.3850442  95.7042311
  16.7978237  74.3232407  95.6612413  16.9914127  75.2278217  95.9071688
  16.6978855  73.8639826  96.4950998   8.4514548  64.2090297  98.1602740
   7.8042463  64.9080247  98.0667216   9.2215563  64.6426441  98.5278988
  11.8593346  74.4739149 101.2353293  11.7078852  74.2449701 100.3183377
  11.8498025  75.4309751 101.2484638   8.6278682  72.0471062  96.2199560
   9.5570742  72.1982222  96.0468527   8.2069712  72.1355083  95.3648206
   7.4267014  76.0721727  93.9898097   7.2878100  75.7040511  94.8624036
   6.6381610  76.5869366  93.8182055   8.0215166  81.1730823  85.3323634
   8.1966922  80.7018866  86.1469257   7.3347954  81.7996589  85.5604895
   8.9772229  75.4503329  91.3786935   8.6422062  75.4104099  92.2744585
   8.4776175  74.7848045  90.9057345   2.9516473  70.8570959  96.9039516
   2.8136271  70.1251198  97.5051055   3.8621397  70.7679859  96.6223704
  11.9131421  72.7959364  81.6523995  11.2960592  72.0706192  81.5557048
  11.4447909  73.5568724  81.3091069   5.5798774  70.5690919  96.3923196
   6.2898392  69.9284111  96.3509814   5.5368082  70.8203813  97.3149377
  13.5685553  77.5058272  99.3129775  13.5098099  76.8217492  98.6460358
  13.9705071  78.2477262  98.8610401   4.2927708  67.5556136  98.2118835
   3.7565065  67.1046875  98.8640432   3.7044416  67.6902045  97.4689300
   2.5876251  84.3220186  92.1063494   2.8272850  84.9538710  92.7842513
   1.7445448  83.9708226  92.3928853   3.7029967  67.0144788  80.7745299
   2.8259433  66.8933589  80.4107546   4.1787720  66.2230866  80.5224188
  13.5702960  75.4697856  97.5443755  12.6829739  75.1323778  97.6670154
  14.1401511  74.7380887  97.7812520   7.1004113  80.1299308  94.5104998
   7.0274285  80.9354280  95.0224303   6.6581506  80.3291274  93.6853019
   6.8893893  79.3671078  88.0207820   6.1061415  79.9092758  88.1146044
   7.5886638  79.8845058  88.4202061  10.1990543  65.1765708  90.6642025
  10.6959243  64.4235670  90.3443095   9.4277525  65.2130024  90.0985234
  18.0520300  70.8806073  92.3060317  18.0410177  71.7630789  91.9354250
  17.1837680  70.5277624  92.1114854   9.5602797  80.0286142  96.6663157
  10.2730769  80.6633607  96.5939058   9.0692825  80.1250008  95.8503159
  11.2820324  73.9337395  88.2380448  10.3476602  74.0538857  88.0685153
  11.4596992  73.0309862  87.9740458   6.7825512  67.3183091  90.3913710
   6.4123299  66.7654131  91.0794615   7.2784604  66.7141224  89.8388710
  14.6692875  69.7754714  88.7730483  15.1353327  70.6082706  88.6990785
  15.1200376  69.3099696  89.4775741   4.6114710  77.7780586  97.4868728
   5.3124170  78.4117069  97.6398122   4.1409825  78.1195317  96.7264367
  12.7369106  76.1198535  85.7716635  13.0128950  76.0055130  86.6810509
  11.8673605  75.7216020  85.7328808  12.6409538  62.1435301  92.8121384
  11.7272618  62.3739528  92.9803591  13.0702639  62.2273745  93.6635416
  12.4115996  70.3325193  95.3121278  11.7587447  70.5801101  94.6573731
  12.7896376  69.5189331  94.9783755   9.3723170  80.3684886  89.4149448
   9.5545565  79.5506542  89.8777201  10.1956156  80.5852579  88.9774338
   9.7065336  79.2953071  86.6764497  10.2353102  78.7845526  86.0634659
   9.9693555  78.9795602  87.5410030   8.4603569  71.0745004 101.7987315
   7.7844206  70.9739134 102.4689690   9.2831203  70.9184218 102.2623312
   3.0621084  80.3468188  89.4362273   2.3931459  80.8314316  88.9526313
   2.9233953  80.5937409  90.3505651   7.2026352  82.3811932  96.0344931
   7.7544660  82.5443553  96.7994016   7.5432546  82.9716369  95.3624956
   2.1790845  64.7287081  96.6366816   2.2432172  65.5901912  96.2244213
   2.1157966  64.1161083  95.9039174   1.6543118  66.8010214 100.2839850
   2.2815157  66.4187291 100.8977374   0.7971037  66.5824416 100.6495542
  12.0537227  77.2073189 101.8893585  12.5977130  77.8203147 101.3948540
  11.4724071  77.7652768 102.4060598  10.3394739  80.3293907  93.0208613
  10.2145879  79.5283647  92.5119559  10.9973831  80.8240101  92.5322583
   1.9602908  66.6842640  92.1985753   1.2389493  67.2978607  92.0593227
   2.7496163  67.2200404  92.1202399  12.4029648  78.1302927  94.6488163
  11.4559983  78.0108278  94.5766490  12.7512421  77.2425425  94.7314425
   4.7629221  64.0197066  98.4726405   5.2863623  64.2659363  99.2352714
   4.5441554  64.8517101  98.0529542   9.4076081  77.9255643  90.8492515
   9.2601044  76.9972351  91.0300086  10.2329575  77.9475734  90.3649591
   3.2738325  66.5773711  86.7073008   3.6134398  67.1059632  85.9851616
   3.7210446  66.9154117  87.4831574  13.0110203  78.7484202  91.9357388
  13.9356750  78.5427064  91.7981839  12.8425506  78.5000603  92.8446730
   5.9681766  64.9610761  96.1576076   5.6278587  64.1618574  96.5596756
   5.2620773  65.2612472  95.5852909   6.6198238  62.0460074  94.6103399
   7.4424307  61.5720552  94.4882289   6.8636302  62.8250557  95.1102085
   5.2606473  65.0748332  84.9066300   5.9814835  65.4529585  84.4030017
   4.6371777  65.7937209  85.0101278   9.4037595  65.7793481  85.8424633
   9.6201210  66.6618119  85.5413461   8.9231663  65.3879695  85.1130275
   4.1436817  68.7379194  92.4195377   3.9981398  69.0519497  93.3119659
   3.6662020  69.3564095  91.8666276   6.0033200  65.7281742  92.4676267
   5.9894768  64.8322836  92.1308565   6.7205628  65.7352406  93.1014553
   7.8559330  66.1619083  94.5129394   7.5977108  67.0836153  94.5113725
   7.3244371  65.7649517  95.2029858  12.8005519  79.2669870  87.2919480
  12.9742397  78.7016292  86.5393332  13.2934410  80.0670765  87.1098970
   5.4070096  64.6096123  87.7363837   5.5286007  63.6812769  87.9354724
   5.1172138  64.6234809  86.8242152   8.2761286  62.2951033  90.8730557
   8.2982983  62.3590366  89.9182536   8.6929345  61.4555542  91.0671063
  18.6544910  72.0306293  88.9109779  19.0976056  71.2813618  88.5128903
  17.7771421  72.0216429  88.5283511  13.7880692  78.5836634  84.3916378
  14.4831596  79.2043327  84.6103693  14.1303842  77.7331985  84.6668756
  15.6872115  76.0336340  85.9203709  16.2123439  76.3723612  85.1953029
  15.5994467  75.0983355  85.7366843   7.3492164  79.9470413  98.0493585
   7.6579290  79.7019560  98.9216285   8.1467646  80.1517052  97.5612456
   7.3712776  82.1008323  90.2798962   6.9317766  81.6084702  90.9731819
   8.1220893  81.5581291  90.0391037   4.8186648  77.6446332  92.3521264
   4.1966657  76.9817037  92.0523491   5.4891515  77.6707464  91.6694911
   4.8911175  66.1228120 101.9453770   4.9399331  66.9990243 101.5631539
   5.4333689  65.5805513 101.3725413  15.3766021  76.6669243 101.2254907
  14.5861565  76.6493382 100.6859406  15.1399375  77.2057537 101.9803943
  15.4963896  73.5161710  98.5387635  15.5461901  73.3511717  99.4803158
  15.3877819  72.6488969  98.1485516   4.3800155  76.1950255  85.8279724
   4.5288275  76.8785720  85.1746397   5.1866598  76.1755345  86.3429180
  12.7867658  69.4992638  99.8546942  13.6877521  69.3599102  99.5630940
  12.8615633  69.6647092 100.7945119   7.1210464  66.8759492  98.7000128
   6.2513773  67.1693058  98.4282717   7.3569944  67.4599937  99.4207392
  16.9982093  75.9358651  98.7829657  16.7066901  76.2988632  99.6193118
  16.3854224  75.2225659  98.6042989  18.1977775  73.5011531  91.3032227
  19.0324666  73.9401335  91.4669787  18.3336904  73.0250184  90.4840473
  15.2469281  71.0591266  97.2509715  15.7223403  71.2518912  96.4428566
  14.3234846  71.1150452  97.0053098   2.1352788  72.2215433  86.8340793
   1.8898830  71.3177763  87.0321003   2.3048702  72.2232583  85.8920271
   9.8249497  63.0939109  96.2165549  10.3431441  63.8300136  95.8912037
   9.4704630  63.4003103  97.0512308   1.4048435  67.9543790  84.3326954
   0.7117680  68.0288145  83.6766990   1.1600187  67.1904134  84.8548471
  10.0762092  59.5139392  91.7366445  10.3563845  58.8462581  92.3626872
  10.8612699  59.7068487  91.2241109   7.8795560  78.6898386  83.2991472
   7.3069527  79.3088573  82.8461943   8.4528354  79.2397747  83.8331393
  13.9470950  67.9357026  95.4838020  14.8988373  68.0355123  95.5050244
  13.7774400  67.1435294  95.9936105  11.9685329  65.0212609  95.6697421
  11.3735262  65.3017622  94.9743910  11.6835026  65.5106510  96.4414162
  11.0992820  78.9735536  84.4300054  12.0323493  78.9081098  84.6332929
  11.0116033  79.8091803  83.9714586  13.7280837  78.2901406  81.3904001
  13.6494468  77.9561270  82.2839759  14.5490503  78.7823174  81.3895474
  16.4259028  71.1563146  94.5980320  16.3935348  70.2179146  94.7840004
  17.0359651  71.2347182  93.8646145   8.2642359  70.0259198  80.6407524
   9.2101463  69.8965407  80.7095942   7.8856604  69.2873860  81.1176952
  16.5753516  67.9474189  94.6438603  16.0592565  67.1632646  94.4568532
  17.4593465  67.6192906  94.8085123  14.2364243  61.6915205  90.6034416
  14.0389064  61.3830293  91.4877748  14.8463949  62.4176843  90.7332346
  22.2435578  72.2179152  93.7386357  22.9738966  71.9564440  94.2994060
  21.6342523  71.4807874  93.7788425  20.3250875  70.3587015  94.3360808
  19.5984038  70.2242980  93.7277300  19.9098162  70.6663844  95.1417526
   8.1481051  74.0776945 102.1008181   9.0684061  74.2555544 102.2948228
   8.1130634  73.1332990 101.9487880   6.4485276  67.9509175  80.5762409
   5.5416731  67.6542288  80.6525123   6.7261257  67.6538993  79.7096695
   1.1443124  71.9877979  94.7430962   1.3629134  72.9195087  94.7618996
   1.5568898  71.6285954  95.5285766   8.0647342  62.4946065  86.7306651
   7.2548070  62.1493150  87.1061897   8.7531758  62.1853608  87.3194262
   9.9937890  61.5724111  88.3530947  10.5468928  61.9919565  89.0120970
  10.2307976  60.6459860  88.3953903   6.0170989  67.5611185 104.1333711
   5.9167716  68.5105542 104.0645802   5.7992531  67.2329424 103.2609781
   5.2184060  64.8096110  80.7174388   6.0803224  65.1351008  80.9770206
   5.4034405  64.0227606  80.2047454  13.3716697  63.6824637  87.8609611
  12.7915366  64.3409441  87.4787664  13.1052630  62.8601981  87.4497029
  11.8220263  63.0829694  90.0630932  12.3220042  63.1946229  89.2545251
  12.4655871  62.7790747  90.7031740   5.8802259  70.9908324 102.9498773
   5.3969341  71.7908684 103.1562662   5.9663198  71.0016269 101.9966217
   1.8075597  74.8812859  94.9867207   2.7618850  74.8496801  94.9197138
   1.6088120  74.4203482  95.8017432   2.3974979  73.4513975  97.5538004
   3.2167868  73.9458053  97.5772841   2.6711786  72.5345943  97.5255572
  12.1541575  65.8424727  86.9165960  11.2667430  66.1274378  86.6986154
  12.5695564  65.6818490  86.0693237  15.5056111  65.8671248  90.6320299
  16.2816501  66.3567700  90.9044916  14.7804245  66.2929302  91.0892168
  17.9428670  66.5798867  91.6894240  18.5373160  66.3394603  90.9787548
  18.0155253  65.8605998  92.3167776  11.2984788  75.6069402  81.0113980
  12.0020639  75.8119404  81.6271635  10.5747437  76.1746163  81.2763063
  12.1282599  71.3579263  87.1316250  12.0717800  71.8147814  86.2923882
  12.6810941  70.5969947  86.9539093  15.9387405  67.1468995  87.9566369
  15.6824339  66.7465630  88.7874577  15.3140273  67.8612789  87.8316509
  20.2499742  69.8865068  90.4637661  19.6899300  69.9558257  91.2369223
  19.6443246  69.7106053  89.7437157   3.3194951  81.3201795  92.2155847
   3.2027335  82.2647228  92.1134537   2.4987398  81.0175357  92.6041646
  13.2071486  76.0451931  83.0612440  14.0417090  75.6133129  82.8789915
  13.0455829  75.8733944  83.9889334  12.8617378  72.5484044  84.4268779
  12.8066182  72.3828316  83.4857223  12.2363433  73.2560077  84.5830969
  10.1763285  74.8532956 103.7522342  11.0454445  75.0273608 103.3908977
   9.6970037  75.6727373 103.6298071   6.1713503  62.0492153  84.0054097
   6.1592173  62.9933993  84.1622368   7.0636925  61.8662299  83.7113559
   4.3449465  81.9730057  95.4311775   5.2476712  82.0053667  95.7478270
   4.1186835  81.0430508  95.4458111   6.1003067  80.7261044  92.0921854
   5.1498698  80.7262905  91.9786226   6.4035554  79.9793778  91.5757889
   9.9865623  58.6434930  88.2600034   9.2198019  58.0893416  88.4056717
  10.3976328  58.7156799  89.1214186   1.9907384  64.9319726 102.3505215
   2.8538846  64.5756530 102.5608540   1.4172795  64.5933620 103.0380620
  21.8355761  86.5621582  93.1567617  22.4734171  86.4428329  92.4530957
  21.7176604  87.5102426  93.2155569  18.6445467  86.5149010  93.0929141
  18.3063979  86.3990075  92.2049676  19.5135235  86.1140175  93.0730147
  14.5032283  88.3684486  89.0826032  13.9397148  88.2774423  88.3142320
  14.3884678  87.5484391  89.5628525  19.1265250  87.6683862  99.0515347
  19.1153891  87.2736660  98.1795850  19.2885890  86.9349934  99.6449118
  12.0496715  89.8635678  91.9210253  12.8418007  89.5226503  91.5056552
  12.2893365  89.9730653  92.8412406  20.0831842  92.0355454  84.3940497
  19.4319821  92.6209535  84.0074511  20.8776204  92.5661649  84.4535535
  14.0087469  89.1244591  84.7927631  14.7818345  88.5773578  84.6540507
  14.3612868  89.9888841  85.0042093  15.8472511  90.4520974  97.9994531
  15.5562377  91.3566604  97.8841197  16.4829496  90.4937501  98.7138600
  16.7728718  87.8297822  94.5895890  17.3692290  87.6053844  93.8752853
  16.8303690  87.0882568  95.1921338  16.3453747  85.2837257  82.4246081
  16.5979267  84.7618779  81.6629544  15.4078306  85.1203403  82.5272765
  21.3897029  84.2873036  90.2320825  22.1760119  83.8692459  89.8811242
  21.6535734  85.1919128  90.4002473  21.5607107  89.7245886  84.9309481
  20.9252940  89.7980513  85.6430386  21.2304513  90.3139485  84.2528561
  26.7905457  84.2248269  91.1353803  27.5230628  83.6547486  91.3691633
  26.0344812  83.8369869  91.5760309  16.0650035  87.1865363  84.6270456
  15.9486293  86.5110267  85.2951541  16.1752295  86.6997737  83.8102609
  18.4081576  86.6475510  88.3317146  18.0439783  86.1206131  89.0430067
  19.2648692  86.2573980  88.1583631  24.3130877  77.9369843  95.5948412
  23.9814202  78.8065254  95.3709627  23.7176490  77.6206127  96.2742442
  18.0487063  81.6765410  83.3278494  18.2161466  82.5445647  83.6948965
  17.8584232  81.8392692  82.4039783  20.8062396  90.1382389  94.9944324
  20.5063119  91.0407428  94.8860132  20.4613456  89.8714572  95.8465477
  14.2574878  86.5896186  91.0281029  13.3325374  86.4572400  91.2358721
  14.5059291  87.3690405  91.5250971  24.2059540  82.6564929  92.6741762
  23.2976418  82.5880338  92.3800523  24.1547136  83.1336874  93.5023587
  18.0276284  84.1323068  84.3125161  17.9075909  84.5780118  85.1510641
  17.3328872  84.4808385  83.7538699  11.6183689  86.2329459  91.8624818
  11.7476070  86.4863938  92.7764230  10.9381140  86.8257167  91.5429473
  15.7883176  96.9026709  87.9615292  15.7107206  97.8534534  88.0403773
  15.1844820  96.5572582  88.6190218  18.2800406  84.0754575 100.6176659
  17.5033740  84.6348495 100.6079524  18.9190969  84.5611358 101.1391529
  26.0721187  80.8581368  94.4519636  25.4295567  81.1513901  93.8059430
  25.5676115  80.7434288  95.2572832  23.7261350  84.6044541  85.1405495
  24.6379206  84.8371928  84.9653192  23.2170997  85.1881585  84.5780574
  16.5346778  86.8840028 100.1794626  17.2761463  87.4225072  99.9029450
  15.8283764  87.5106317 100.3366178  22.0102118  89.0269169  98.7766787
  22.4185474  88.5851579  98.0321420  21.2879379  88.4521796  99.0300980
  18.3633188  83.9641775  96.1500344  19.2094383  84.3881189  96.2934993
  18.3031826  83.3075400  96.8438908  22.3330933  89.5870359  92.5319076
  21.7039795  89.7516073  91.8295144  21.9456595  90.0011969  93.3030040
  26.2120164  90.5224797  89.8863440  25.5271203  90.9023698  89.3360473
  26.2964014  91.1320124  90.6195388  21.5132633  81.6246144  97.8081518
  21.2693565  82.3788204  97.2715794  21.7892564  82.0031491  98.6428765
  23.4671096  88.1684756  96.4858784  23.6787991  88.8116516  95.8093165
  23.4200844  87.3347073  96.0180714  21.0697325  80.7802577  93.3895356
  20.2081804  81.0783830  93.6812093  21.0959760  80.9972976  92.4576388
  17.8858894  89.3244767  89.7969161  18.3497240  89.6032470  89.0073784
  17.6215693  88.4228212  89.6142252  14.7782975  88.8716249  92.7348925
  15.3484333  89.3003517  92.0966409  15.3691087  88.5898834  93.4333110
  16.8227780  85.4467920  86.6058727  17.5251824  85.8988963  87.0732653
  16.4908409  84.8051739  87.2338620  15.2708142  84.0379676 100.9809936
  14.6406803  84.7195957 101.2145333  15.1644230  83.9262758 100.0363074
  10.5653114  83.7051472  91.9075860   9.7752168  83.9609001  91.4315971
  11.0564362  84.5199810  92.0127901  24.5816924  91.0456712  94.6581141
  25.4034368  90.6436899  94.3763823  24.5779327  90.9424946  95.6097257
  12.5167860  84.0696052  88.8659337  11.7199023  84.1814746  89.3842833
  12.2893452  84.4082704  88.0000227  18.3473527  90.5940755  96.8141851
  18.4117960  91.0561162  97.6500023  17.6384451  89.9638120  96.9424161
   8.8490817  83.9581963  94.3390851   9.0998856  84.8428973  94.6048427
   9.3850366  83.7786564  93.5665943  32.6722917  87.3895460  91.0066112
  31.9186625  86.8202858  90.8510117  32.8070458  87.3558125  91.9536747
  18.0621545  92.2608862  86.6820832  17.9267220  93.1060398  87.1105680
  18.6031358  92.4628140  85.9186766  14.5488885  78.3400442 103.3435187
  14.1555830  77.7866641 104.0182831  15.3655025  78.6511021 103.7341705
  11.5150942  89.7784300  87.2548757  12.0275463  90.5727551  87.4054322
  12.1673655  89.0810591  87.1882358  13.3245827  92.8950057  89.3371510
  13.5012456  93.8168021  89.1492494  14.1202661  92.5808476  89.7665890
  17.4656846  79.7558321 100.9355444  18.2066559  80.3565474 100.8559906
  17.6974769  79.0135959 100.3773486  12.6098184  84.9414689  99.2133673
  12.4951699  84.0399946  99.5140772  11.7542701  85.1878385  98.8618490
  19.6890021  92.8832429 100.8121174  19.2453876  92.0968807 100.4942078
  20.3507235  93.0711579 100.1465065  14.4477143  94.4128230  95.3381852
  14.9984568  94.2845294  94.5658846  13.6088619  94.7123119  94.9876745
  21.7871260  93.1635229  98.8402575  21.7689735  93.9844110  98.3482844
  22.7091180  93.0389304  99.0652716  18.2444314  90.6779358  99.6826084
  18.7772650  89.9167646  99.4525392  17.7158395  90.3853010 100.4250238
  21.4114009  75.7839424  95.2119725  21.0678278  76.6741066  95.1358836
  21.7792971  75.5941082  94.3489310   9.4799859  88.1072955  88.0308327
  10.3175081  88.5169963  87.8142035   9.6578127  87.1672397  88.0008521
  21.3764291  85.7748035  83.7192160  20.8610915  86.5452640  83.9580548
  21.1041600  85.1013172  84.3425222  18.9611402  80.6197736  88.7777399
  18.1052999  80.2304587  88.5983037  19.3738354  80.6989697  87.9177184
  20.4910549  78.1544079  93.1768959  19.9875345  78.1174215  92.3636764
  20.7841156  79.0636822  93.2365615  16.7353435  78.2382809  92.1835140
  17.6006432  78.0425618  91.8241030  16.8030944  78.0093161  93.1104497
  26.3498566  88.5280390  85.6545334  25.5728008  88.1891549  85.2100496
  27.0290046  88.5333013  84.9800299  21.1650595  83.6475127  85.5451942
  20.8600730  83.9621277  86.3962085  22.1181037  83.7256547  85.5879275
  19.6097026  89.8065351  87.1944896  19.0818388  89.0718110  86.8818133
  19.1084529  90.5840027  86.9484864  24.5889872  88.0014371  92.3111942
  23.9313547  88.6913633  92.3992070  25.3930272  88.3910803  92.6545928
  14.3415754  80.4685017  89.5551507  14.9159506  80.2460199  88.8224700
  14.9286736  80.5373712  90.3080108  23.3995331  86.3558744  90.3615884
  23.9127213  86.9888736  90.8637593  24.0496555  85.7559939  89.9959244
  14.6685341  82.4989478  83.5747392  13.8322653  82.8364165  83.8956667
  14.5290111  82.3638458  82.6374529  16.6438422  77.3426266  88.2826576
  15.9902834  77.0275283  87.6583191  16.6018896  76.7202006  89.0086399
  17.7549627  87.6245561  80.1979869  16.8476688  87.3934814  80.3971018
  18.2520659  86.8283180  80.3853850  20.6617705  96.3343068  83.1176555
  19.9879404  96.6374765  83.7261513  21.0483527  97.1372149  82.7682012
  19.8776162  83.8308199  92.6074224  18.9598723  84.0523147  92.4495912
  20.2936306  83.9054510  91.7485931  20.6611210  85.2299615  87.7376904
  21.4083029  85.7421012  87.4284026  20.9302799  84.9083668  88.5981298
  18.9337860  87.7258156  84.7203859  18.0249079  87.4417189  84.8176328
  18.9632944  88.1457234  83.8607166  24.1657127  91.3364745  88.4895026
  23.7119455  90.4955655  88.5460217  23.5351094  91.9726144  88.8269806
  23.1090047  82.2656731  89.7195694  22.3712804  81.7534118  90.0505936
  23.3616821  81.8257113  88.9078971  22.6090067  93.1741242  89.4244844
  22.9013041  93.7346299  88.7057210  23.1188687  93.4669803  90.1798003
  23.2101674  75.0432983  90.3137463  23.5160551  74.1830347  90.0263378
  23.9354279  75.6350604  90.1136457   9.5026030  85.4463670  88.7019061
   9.3050430  84.8533031  87.9770127   8.9472694  85.1415880  89.4195000
  17.4822754  85.3386776  90.8213654  17.5371364  84.3860613  90.7456131
  16.6713956  85.4946216  91.3054952  18.6313948  89.2666900  82.0591937
  18.1933378  88.5502758  81.5997575  19.3724389  89.4943014  81.4977029
  15.4215114  83.9563836  88.5804033  14.6082980  84.2558007  88.9869225
  15.9174108  83.5619525  89.2978515  17.5723692  93.9521593  90.5138298
  17.5299871  94.1782439  89.5846830  18.4886391  93.7184968  90.6624099
  21.0189326  84.4205661  97.4118927  21.3738713  84.6477134  98.2713393
  21.6661457  84.7524038  96.7896182  26.7487063  87.5424097  88.1168256
  26.6104961  87.7325693  87.1889445  26.3923281  88.3043479  88.5736307
  14.9129189  81.5282192  94.1965268  15.5528568  81.3870951  93.4988231
  14.0806719  81.2416705  93.8203870  26.7756442  89.6100624  93.1279527
  27.2092949  89.5175913  93.9762581  27.4888023  89.5858124  92.4899543
  15.6889493  90.8284622  90.3100260  16.4830091  90.3334942  90.1082835
  14.9781185  90.3002485  89.9467966  20.5084337  93.2102718  94.6612628
  20.5621359  93.7793654  95.4290344  19.6399118  93.3804603  94.2966665
  11.9972256  84.9727704  86.3860013  11.0669844  84.9112159  86.6029975
  12.0929728  84.4503657  85.5896654  11.9157805  81.4982517  88.9738255
  12.1764622  82.4127850  88.8647415  12.7374977  81.0306959  89.1234867
  13.3882730  82.9120274  96.1437079  14.0605784  82.7037636  95.4949728
  12.5612517  82.7142360  95.7042311  27.6371992  89.6524324  95.6612413
  27.8307882  90.5570135  95.9071688  27.5372610  89.1931743  96.4950998
  19.2908303  79.5382215  98.1602740  18.6436218  80.2372165  98.0667216
  20.0609318  79.9718359  98.5278988  22.6987100  89.8031067 101.2353293
  22.5472607  89.5741619 100.3183377  22.6891780  90.7601668 101.2484638
  19.4672437  87.3762980  96.2199560  20.3964497  87.5274139  96.0468527
  19.0463467  87.4647001  95.3648206  18.2660769  91.4013644  93.9898097
  18.1271854  91.0332429  94.8624036  17.4775365  91.9161284  93.8182055
  18.8608921  96.5022741  85.3323634  19.0360676  96.0310784  86.1469257
  18.1741709  97.1288507  85.5604895  19.8165984  90.7795247  91.3786935
  19.4815816  90.7396017  92.2744585  19.3169929  90.1139963  90.9057345
  13.7910228  86.1862877  96.9039516  13.6530026  85.4543116  97.5051055
  14.7015151  86.0971777  96.6223704  22.7525175  88.1251281  81.6523995
  22.1354346  87.3998109  81.5557048  22.2841664  88.8860641  81.3091069
  16.4192528  85.8982836  96.3923196  17.1292147  85.2576028  96.3509814
  16.3761837  86.1495731  97.3149377  24.4079307  92.8350190  99.3129775
  24.3491853  92.1509410  98.6460358  24.8098825  93.5769180  98.8610401
  15.1321462  82.8848054  98.2118835  14.5958819  82.4338793  98.8640432
  14.5438171  83.0193963  97.4689300  13.4270006  99.6512103  92.1063494
  13.6666604 100.2830628  92.7842513  12.5839202  99.3000143  92.3928853
  14.5423721  82.3436706  80.7745299  13.6653188  82.2225506  80.4107546
  15.0181474  81.5522784  80.5224188  24.4096714  90.7989774  97.5443755
  23.5223493  90.4615695  97.6670154  24.9795265  90.0672805  97.7812520
   6.0625861  87.1313865  90.8686806   6.7496901  86.8175595  90.2807822
   5.9073990  88.0355230  90.5954058  10.8660584  82.0204062  95.2971830
  10.7818772  81.4129731  94.5622240  10.0443290  82.5113080  95.2981326
  17.9397868  95.4591226  94.5104998  17.8668039  96.2646197  95.0224303
  17.4975261  95.6583192  93.6853019  17.7287647  94.6962996  88.0207820
  16.9455169  95.2384676  88.1146044  18.4280393  95.2136976  88.4202061
  21.0384297  80.5057625  90.6642025  21.5352997  79.7527588  90.3443095
  20.2671279  80.5421942  90.0985234  28.8914055  86.2097991  92.3060317
  28.8803931  87.0922706  91.9354250  28.0231434  85.8569542  92.1114854
  20.3996551  95.3578060  96.6663157  21.1124523  95.9925525  96.5939058
  19.9086580  95.4541926  95.8503159  22.1214078  89.2629313  88.2380448
  21.1870357  89.3830775  88.0685153  22.2990747  88.3601779  87.9740458
  17.6219266  82.6475008  90.3913710  17.2517054  82.0946049  91.0794615
  18.1178359  82.0433142  89.8388710  25.5086630  85.1046632  88.7730483
  25.9747082  85.9374623  88.6990785  25.9594130  84.6391613  89.4775741
  15.4508465  93.1072503  97.4868728  16.1517924  93.7408986  97.6398122
  14.9803580  93.4487235  96.7264367  23.5762861  91.4490453  85.7716635
  23.8522705  91.3347048  86.6810509  22.7067359  91.0507938  85.7328808
  23.4803292  77.4727219  92.8121384  22.5666372  77.7031446  92.9803591
  23.9096394  77.5565663  93.6635416  23.2509751  85.6617111  95.3121278
  22.5981201  85.9093018  94.6573731  23.6290131  84.8481249  94.9783755
  20.2116925  95.6976804  89.4149448  20.3939319  94.8798460  89.8777201
  21.0349911  95.9144496  88.9774338  20.5459090  94.6244989  86.6764497
  21.0746857  94.1137444  86.0634659  20.8087310  94.3087519  87.5410030
  19.2997324  86.4036922 101.7987315  18.6237961  86.3031051 102.4689690
  20.1224958  86.2476136 102.2623312  11.0476183  92.6408858  94.4199830
  11.6329620  91.8952546  94.5527734  10.8501021  92.9512815  95.3036494
  13.9014838  95.6760106  89.4362273  13.2325213  96.1606233  88.9526313
  13.7627708  95.9229326  90.3505651   5.6393838  85.2114459  93.1404273
   5.6777937  84.6778049  93.9341391   5.1334130  84.6849664  92.5215251
  18.0420107  97.7103849  96.0344931  18.5938415  97.8735471  96.7994016
  18.3826300  98.3008287  95.3624956  13.0184600  80.0578999  96.6366816
  13.0825926  80.9193830  96.2244213  12.9551720  79.4453001  95.9039174
  12.4936872  82.1302132 100.2839850  13.1208911  81.7479209 100.8977374
  11.6364791  81.9116334 100.6495542  22.8930981  92.5365107 101.8893585
  23.4370885  93.1495065 101.3948540  22.3117826  93.0944685 102.4060598
   9.2702415  83.9378561  86.2158205   9.5655856  83.0289239  86.1625258
   8.3690451  83.9166300  85.8939207  21.1788494  95.6585825  93.0208613
  21.0539633  94.8575565  92.5119559  21.8367585  96.1532018  92.5322583
  12.7996662  82.0134557  92.1985753  12.0783248  82.6270525  92.0593227
  13.5889918  82.5492322  92.1202399  23.2423402  93.4594845  94.6488163
  22.2953738  93.3400196  94.5766490  23.5906175  92.5717343  94.7314425
  15.6022976  79.3488984  98.4726405  16.1257378  79.5951280  99.2352714
  15.3835309  80.1809019  98.0529542  10.9990257  81.6192658  86.3397530
  10.6702963  80.7390037  86.1572636  11.3529627  81.5640327  87.2273919
  20.2469836  93.2547561  90.8492515  20.0994798  92.3264269  91.0300086
  21.0723329  93.2767652  90.3649591  14.1132080  81.9065628  86.7073008
  14.4528152  82.4351549  85.9851616  14.5604200  82.2446034  87.4831574
  23.8503957  94.0776120  91.9357388  24.7750505  93.8718981  91.7981839
  23.6819261  93.8292521  92.8446730  16.8075521  80.2902679  96.1576076
  16.4672341  79.4910492  96.5596756  16.1014527  80.5904390  95.5852909
  17.4591993  77.3751991  94.6103399  18.2818062  76.9012470  94.4882289
  17.7030056  78.1542475  95.1102085  16.1000227  80.4040250  84.9066300
  16.8208590  80.7821503  84.4030017  15.4765531  81.1229127  85.0101278
  20.2431350  81.1085399  85.8424633  20.4594964  81.9910037  85.5413461
  19.7625417  80.7171612  85.1130275  14.9830571  84.0671112  92.4195377
  14.8375152  84.3811415  93.3119659  14.5055775  84.6856012  91.8666276
  16.8426954  81.0573660  92.4676267  16.8288523  80.1614753  92.1308565
  17.5599382  81.0644324  93.1014553  18.6953085  81.4911000  94.5129394
  18.4370863  82.4128071  94.5113725  18.1638125  81.0941435  95.2029858
  23.6399274  94.5961787  87.2919480  23.8136151  94.0308210  86.5393332
  24.1328165  95.3962682  87.1098970   9.4576233  86.6076456  95.3583038
   8.9129702  87.3836264  95.4903313  10.3355583  86.9547261  95.2002160
  16.2463850  79.9388040  87.7363837  16.3679761  79.0104686  87.9354724
  15.9565893  79.9526726  86.8242152  19.1155041  77.6242951  90.8730557
  19.1376737  77.6882284  89.9182536  19.5323100  76.7847459  91.0671063
  29.4938665  87.3598210  88.9109779  29.9369811  86.6105535  88.5128903
  28.6165175  87.3508347  88.5283511  24.6274446  93.9128552  84.3916378
  25.3225351  94.5335244  84.6103693  24.9697596  93.0623903  84.6668756
  10.2442255  85.7346353  98.2513195   9.5023991  85.8828988  98.8377826
   9.9235000  85.9954618  97.3879945  26.5265869  91.3628257  85.9203709
  27.0517193  91.7015530  85.1953029  26.4388222  90.4275273  85.7366843
  18.1885918  95.2762331  98.0493585  18.4973044  95.0311478  98.9216285
  18.9861400  95.4808969  97.5612456  18.2106530  97.4300241  90.2798962
  17.7711520  96.9376619  90.9731819  18.9614647  96.8873208  90.0391037
  10.6898869  93.6211781  90.2823590  11.5156889  93.3215553  89.9022234
  10.3392921  92.8519404  90.7313379  15.6580402  92.9738250  92.3521264
  15.0360411  92.3108955  92.0523491  16.3285269  92.9999382  91.6694911
   8.8907474  91.5398108  91.2412524   8.0539382  91.1120282  91.0596525
   8.8631120  91.7330551  92.1783315  15.7304930  81.4520038 101.9453770
  15.7793085  82.3282160 101.5631539  16.2727444  80.9097431 101.3725413
  26.2159775  91.9961161 101.2254907  25.4255319  91.9785300 100.6859406
  25.9793130  92.5349455 101.9803943  26.3357650  88.8453627  98.5387635
  26.3855655  88.6803635  99.4803158  26.2271574  87.9780886  98.1485516
  15.2193909  91.5242173  85.8279724  15.3682029  92.2077637  85.1746397
  16.0260353  91.5047263  86.3429180  23.6261413  84.8284555  99.8546942
  24.5271276  84.6891020  99.5630940  23.7009387  84.9939010 100.7945119
  17.9604218  82.2051410  98.7000128  17.0907528  82.4984976  98.4282717
  18.1963698  82.7891855  99.4207392  27.8375847  91.2650569  98.7829657
  27.5460656  91.6280549  99.6193118  27.2247979  90.5517577  98.6042989
  29.0371530  88.8303449  91.3032227  29.8718421  89.2693253  91.4669787
  29.1730658  88.3542102  90.4840473  26.0863035  86.3883183  97.2509715
  26.5617157  86.5810830  96.4428566  25.1628601  86.4442369  97.0053098
  12.9746542  87.5507351  86.8340793  12.7292584  86.6469681  87.0321003
  13.1442457  87.5524501  85.8920271  20.6643252  78.4231027  96.2165549
  21.1825196  79.1592054  95.8912037  20.3098385  78.7295020  97.0512308
  12.2442190  83.2835708  84.3326954  11.5511435  83.3580063  83.6766990
  11.9993942  82.5196052  84.8548471  20.9155846  74.8431310  91.7366445
  21.1957600  74.1754499  92.3626872  21.7006453  75.0360405  91.2241109
  18.7189315  94.0190303  83.2991472  18.1463282  94.6380491  82.8461943
  19.2922108  94.5689665  83.8331393  24.7864704  83.2648943  95.4838020
  25.7382127  83.3647041  95.5050244  24.6168155  82.4727212  95.9936105
  22.8079084  80.3504527  95.6697421  22.2129016  80.6309539  94.9743910
  22.5228781  80.8398428  96.4414162  21.9386574  94.3027454  84.4300054
  22.8717248  94.2373015  84.6332929  21.8509787  95.1383720  83.9714586
  24.5674591  93.6193324  81.3904001  24.4888223  93.2853187  82.2839759
  25.3884258  94.1115092  81.3895474  27.2652782  86.4855063  94.5980320
  27.2329102  85.5471064  94.7840004  27.8753406  86.5639100  93.8646145
  19.1036113  85.3551116  80.6407524  20.0495218  85.2257324  80.7095942
  18.7250358  84.6165778  81.1176952  27.4147271  83.2766107  94.6438603
  26.8986319  82.4924563  94.4568532  28.2987219  82.9484823  94.8085123
  25.0757998  77.0207122  90.6034416  24.8782819  76.7122210  91.4877748
  25.6857703  77.7468761  90.7332346  33.0829332  87.5471070  93.7386357
  33.8132721  87.2856358  94.2994060  32.4736278  86.8099792  93.7788425
  31.1644629  85.6878933  94.3360808  30.4377793  85.5534898  93.7277300
  30.7491916  85.9955761  95.1417526  18.9874806  89.4068862 102.1008181
  19.9077815  89.5847461 102.2948228  18.9524389  88.4624908 101.9487880
  17.2879030  83.2801093  80.5762409  16.3810486  82.9834205  80.6525123
  17.5655011  82.9830911  79.7096695   8.2056971  84.6007456  91.0261456
   7.8859755  83.7472764  90.7335830   7.6590399  84.8156034  91.7819423
  11.9836878  87.3169897  94.7430962  12.2022888  88.2487005  94.7618996
  12.3962652  86.9577871  95.5285766  18.9041096  77.8237982  86.7306651
  18.0941824  77.4785067  87.1061897  19.5925513  77.5145526  87.3194262
  20.8331644  76.9016029  88.3530947  21.3862683  77.3211482  89.0120970
  21.0701731  75.9751777  88.3953903  16.8564744  82.8903103 104.1333711
  16.7561470  83.8397460 104.0645802  16.6386286  82.5621342 103.2609781
  16.0577815  80.1388028  80.7174388  16.9196979  80.4642926  80.9770206
  16.2428159  79.3519524  80.2047454   8.0745231  88.2210367  92.9954577
   7.3808702  87.8064320  92.4824532   8.8218222  88.2630904  92.3987996
  24.2110451  79.0116554  87.8609611  23.6309120  79.6701358  87.4787664
  23.9446384  78.1893899  87.4497029  22.6614018  78.4121612  90.0630932
  23.1613796  78.5238146  89.2545251  23.3049626  78.1082665  90.7031740
  16.7196014  86.3200242 102.9498773  16.2363095  87.1200602 103.1562662
  16.8056953  86.3308186 101.9966217   9.9881973  88.1528621  90.8720592
   9.9652661  88.2516309  89.9202475  10.2982610  88.9993772  91.1937758
  12.6469351  90.2104776  94.9867207  13.6012605  90.1788719  94.9197138
  12.4481875  89.7495400  95.8017432  13.2368733  88.7805892  97.5538004
  14.0561622  89.2749971  97.5772841  13.5105541  87.8637860  97.5255572
  22.9935329  81.1716645  86.9165960  22.1061184  81.4566295  86.6986154
  23.4089318  81.0110408  86.0693237  26.3449866  81.1963166  90.6320299
  27.1210256  81.6859618  90.9044916  25.6198000  81.6221220  91.0892168
  28.7822424  81.9090785  91.6894240  29.3766915  81.6686521  90.9787548
  28.8549008  81.1897915  92.3167776  11.0019580  95.7524396  92.0037404
  10.8674048  94.9924797  91.4375402  10.5851642  96.4765296  91.5366193
  22.1378543  90.9361319  81.0113980  22.8414393  91.1411322  81.6271635
  21.4141192  91.5038081  81.2763063  22.9676353  86.6871181  87.1316250
  22.9111555  87.1439732  86.2923882  23.5204696  85.9261865  86.9539093
  26.7781159  82.4760912  87.9566369  26.5218093  82.0757548  88.7874577
  26.1534027  83.1904706  87.8316509  31.0893497  85.2156986  90.4637661
  30.5293055  85.2850175  91.2369223  30.4837000  85.0397970  89.7437157
  14.1588706  96.6493713  92.2155847  14.0421090  97.5939145  92.1134537
  13.3381152  96.3467274  92.6041646  24.0465240  91.3743848  83.0612440
  24.8810844  90.9425047  82.8789915  23.8849583  91.2025862  83.9889334
  23.7011132  87.8775962  84.4268779  23.6459936  87.7120233  83.4857223
  23.0757188  88.5851995  84.5830969   8.4903647  83.1144026  98.2530201
   9.1362511  82.6042980  98.7417426   8.2820799  83.8512708  98.8273627
  21.0157040  90.1824874 103.7522342  21.8848199  90.3565526 103.3908977
  20.5363791  91.0019290 103.6298071  17.0107258  77.3784071  84.0054097
  16.9985928  78.3225911  84.1622368  17.9030680  77.1954216  83.7113559
  15.1843220  97.3021975  95.4311775  16.0870467  97.3345585  95.7478270
  14.9580590  96.3722426  95.4458111  16.9396822  96.0552961  92.0921854
  15.9892453  96.0554823  91.9786226  17.2429308  95.3085696  91.5757889
  20.8259377  73.9726847  88.2600034  20.0591773  73.4185334  88.4056717
  21.2370082  74.0448716  89.1214186  12.8301138  80.2611643 102.3505215
  13.6932600  79.9048448 102.5608540  12.2566549  79.9225538 103.0380620
  32.6749515 101.8913500  93.1567617  33.3127925 101.7720247  92.4530957
  32.5570358 102.8394344  93.2155569  29.4839222 101.8440928  93.0929141
  29.1457733 101.7281992  92.2049676  30.3528990 101.4432093  93.0730147
  25.3426037 103.6976404  89.0826032  24.7790902 103.6066341  88.3142320
  25.2278432 102.8776309  89.5628525  29.9659005 102.9975779  99.0515347
  29.9547645 102.6028578  98.1795850  30.1279644 102.2641852  99.6449118
  22.8890469 105.1927596  91.9210253  23.6811761 104.8518420  91.5056552
  23.1287119 105.3022571  92.8412406  30.9225596 107.3647372  84.3940497
  30.2713576 107.9501452  84.0074511  31.7169959 107.8953567  84.4535535
  24.8481223 104.4536509  84.7927631  25.6212099 103.9065496  84.6540507
  25.2006622 105.3180758  85.0042093  26.6866266 105.7812891  97.9994531
  26.3956132 106.6858522  97.8841197  27.3223250 105.8229419  98.7138600
  27.6122473 103.1589740  94.5895890  28.2086045 102.9345762  93.8752853
  27.6697444 102.4174485  95.1921338  27.1847501 100.6129175  82.4246081
  27.4373022 100.0910696  81.6629544  26.2472060 100.4495321  82.5272765
  32.2290784  99.6164953  90.2320825  33.0153873  99.1984377  89.8811242
  32.4929488 100.5211046  90.4002473  32.4000861 105.0537804  84.9309481
  31.7646694 105.1272430  85.6430386  32.0698268 105.6431403  84.2528561
  37.6299211  99.5540187  91.1353803  38.3624383  98.9839403  91.3691633
  36.8738567  99.1661787  91.5760309  26.9043790 102.5157281  84.6270456
  26.7880048 101.8402184  85.2951541  27.0146050 102.0289655  83.8102609
  29.2475331 101.9767428  88.3317146  28.8833538 101.4498049  89.0430067
  30.1042447 101.5865897  88.1583631  35.1524631  93.2661761  95.5948412
  34.8207956  94.1357172  95.3709627  34.5570245  92.9498045  96.2742442
  28.8880818  97.0057328  83.3278494  29.0555220  97.8737564  83.6948965
  28.6977987  97.1684610  82.4039783  31.6456151 105.4674307  94.9944324
  31.3456874 106.3699346  94.8860132  31.3007210 105.2006490  95.8465477
  25.0968632 101.9188104  91.0281029  24.1719129 101.7864318  91.2358721
  25.3453046 102.6982323  91.5250971  35.0453295  97.9856847  92.6741762
  34.1370172  97.9172255  92.3800523  34.9940890  98.4628792  93.5023587
  28.8670039  99.4614985  84.3125161  28.7469664  99.9072036  85.1510641
  28.1722627  99.8100303  83.7538699  22.4577443 101.5621377  91.8624818
  22.5869825 101.8155856  92.7764230  21.7774895 102.1549085  91.5429473
  26.6276931 112.2318627  87.9615292  26.5500960 113.1826452  88.0403773
  26.0238574 111.8864500  88.6190218  29.1194160  99.4046493 100.6176659
  28.3427494  99.9640413 100.6079524  29.7584723  99.8903275 101.1391529
  36.9114941  96.1873285  94.4519636  36.2689321  96.4805818  93.8059430
  36.4069870  96.0726206  95.2572832  34.5655105  99.9336459  85.1405495
  35.4772961 100.1663845  84.9653192  34.0564752 100.5173503  84.5780574
  27.3740533 102.2131946 100.1794626  28.1155217 102.7516990  99.9029450
  26.6677518 102.8398235 100.3366178  32.8495872 104.3561086  98.7766787
  33.2579228 103.9143497  98.0321420  32.1273134 103.7813714  99.0300980
  29.2026942  99.2933693  96.1500344  30.0488138  99.7173107  96.2934993
  29.1425580  98.6367317  96.8438908  33.1724687 104.9162277  92.5319076
  32.5433549 105.0807991  91.8295144  32.7850349 105.3303887  93.3030040
  37.0513919 105.8516715  89.8863440  36.3664957 106.2315616  89.3360473
  37.1357768 106.4612041  90.6195388  32.3526388  96.9538061  97.8081518
  32.1087320  97.7080122  97.2715794  32.6286318  97.3323409  98.6428765
  34.3064851 103.4976674  96.4858784  34.5181746 104.1408434  95.8093165
  34.2594599 102.6638990  96.0180714  31.9091079  96.1094494  93.3895356
  31.0475559  96.4075748  93.6812093  31.9353514  96.3264893  92.4576388
  28.7252649 104.6536685  89.7969161  29.1890994 104.9324388  89.0073784
  28.4609447 103.7520130  89.6142252  25.6176730 104.2008167  92.7348925
  26.1878087 104.6295435  92.0966409  26.2084842 103.9190751  93.4333110
  27.6621535 100.7759837  86.6058727  28.3645578 101.2280881  87.0732653
  27.3302163 100.1343656  87.2338620  26.1101896  99.3671594 100.9809936
  25.4800557 100.0487875 101.2145333  26.0037984  99.2554676 100.0363074
  21.4046869  99.0343390  91.9075860  20.6145923  99.2900919  91.4315971
  21.8958116  99.8491728  92.0127901  35.4210678 106.3748629  94.6581141
  36.2428122 105.9728817  94.3763823  35.4173081 106.2716863  95.6097257
  23.3561614  99.3987969  88.8659337  22.5592778  99.5106664  89.3842833
  23.1287207  99.7374622  88.0000227  29.1867282 105.9232673  96.8141851
  29.2511714 106.3853080  97.6500023  28.4778206 105.2930037  96.9424161
  19.6884572  99.2873881  94.3390851  19.9392610 100.1720890  94.6048427
  20.2244120  99.1078482  93.5665943  43.5116672 102.7187378  91.0066112
  42.7580380 102.1494776  90.8510117  43.6464213 102.6850042  91.9536747
  28.9015300 107.5900780  86.6820832  28.7660974 108.4352316  87.1105680
  29.4425112 107.7920058  85.9186766  25.3882639  93.6692360 103.3435187
  24.9949585  93.1158558 104.0182831  26.2048780  93.9802938 103.7341705
  22.3544697 105.1076218  87.2548757  22.8669218 105.9019468  87.4054322
  23.0067410 104.4102509  87.1882358  24.1639582 108.2241974  89.3371510
  24.3406210 109.1459939  89.1492494  24.9596415 107.9100394  89.7665890
  28.3050600  95.0850239 100.9355444  29.0460314  95.6857392 100.8559906
  28.5368523  94.3427877 100.3773486  23.4491938 100.2706606  99.2133673
  23.3345453  99.3691863  99.5140772  22.5936456 100.5170303  98.8618490
  30.5283776 108.2124347 100.8121174  30.0847630 107.4260725 100.4942078
  31.1900990 108.4003497 100.1465065  25.2870897 109.7420148  95.3381852
  25.8378322 109.6137212  94.5658846  24.4482373 110.0415037  94.9876745
  32.6265014 108.4927146  98.8402575  32.6083489 109.3136028  98.3482844
  33.5484934 108.3681222  99.0652716  29.0838068 106.0071276  99.6826084
  29.6166405 105.2459564  99.4525392  28.5552149 105.7144928 100.4250238
  32.2507763  91.1131342  95.2119725  31.9072033  92.0032984  95.1358836
  32.6186726  90.9233000  94.3489310  20.3193614 103.4364872  88.0308327
  21.1568836 103.8461881  87.8142035  20.4971881 102.4964315  88.0008521
  32.2158046 101.1039953  83.7192160  31.7004669 101.8744558  83.9580548
  31.9435354 100.4305089  84.3425222  29.8005157  95.9489654  88.7777399
  28.9446753  95.5596504  88.5983037  30.2132109  96.0281615  87.9177184
  31.3304304  93.4835997  93.1768959  30.8269099  93.4466132  92.3636764
  31.6234910  94.3928740  93.2365615  27.5747189  93.5674727  92.1835140
  28.4400186  93.3717535  91.8241030  27.6424698  93.3385079  93.1104497
  37.1892320 103.8572308  85.6545334  36.4121763 103.5183467  85.2100496
  37.8683801 103.8624931  84.9800299  32.0044349  98.9767045  85.5451942
  31.6994485  99.2913194  86.3962085  32.9574791  99.0548465  85.5879275
  30.4490781 105.1357268  87.1944896  29.9212142 104.4010028  86.8818133
  29.9478284 105.9131945  86.9484864  35.4283627 103.3306289  92.3111942
  34.7707301 104.0205550  92.3992070  36.2324026 103.7202721  92.6545928
  25.1809508  95.7976935  89.5551507  25.7553260  95.5752116  88.8224700
  25.7680491  95.8665629  90.3080108  34.2389086 101.6850662  90.3615884
  34.7520967 102.3180653  90.8637593  34.8890310 101.0851857  89.9959244
  25.5079096  97.8281396  83.5747392  24.6716408  98.1656082  83.8956667
  25.3683865  97.6930376  82.6374529  27.4832176  92.6718184  88.2826576
  26.8296589  92.3567201  87.6583191  27.4412650  92.0493924  89.0086399
  28.5943381 102.9537479  80.1979869  27.6870443 102.7226732  80.3971018
  29.0914413 102.1575098  80.3853850  31.5011460 111.6634986  83.1176555
  30.8273159 111.9666683  83.7261513  31.8877282 112.4664066  82.7682012
  30.7169917  99.1600117  92.6074224  29.7992478  99.3815064  92.4495912
  31.1330060  99.2346428  91.7485931  31.5004964 100.5591533  87.7376904
  32.2476783 101.0712930  87.4284026  31.7696554 100.2375586  88.5981298
  29.7731615 103.0550074  84.7203859  28.8642834 102.7709106  84.8176328
  29.8026698 103.4749152  83.8607166  35.0050882 106.6656663  88.4895026
  34.5513209 105.8247573  88.5460217  34.3744849 107.3018061  88.8269806
  33.9483801  97.5948649  89.7195694  33.2106558  97.0826035  90.0505936
  34.2010575  97.1549031  88.9078971  33.4483821 108.5033160  89.4244844
  33.7406796 109.0638217  88.7057210  33.9582442 108.7961721  90.1798003
  34.0495429  90.3724901  90.3137463  34.3554306  89.5122265  90.0263378
  34.7748034  90.9642521  90.1136457  20.3419785 100.7755588  88.7019061
  20.1444185 100.1824948  87.9770127  19.7866449 100.4707798  89.4195000
  28.3216509 100.6678694  90.8213654  28.3765118  99.7152531  90.7456131
  27.5107711 100.8238133  91.3054952  29.4707702 104.5958817  82.0591937
  29.0327132 103.8794676  81.5997575  30.2118143 104.8234932  81.4977029
  26.2608868  99.2855754  88.5804033  25.4476734  99.5849924  88.9869225
  26.7567863  98.8911443  89.2978515  28.4117446 109.2813511  90.5138298
  28.3693625 109.5074357  89.5846830  29.3280145 109.0476885  90.6624099
  31.8583080  99.7497578  97.4118927  32.2132468  99.9769052  98.2713393
  32.5055211 100.0815955  96.7896182  37.5880817 102.8716014  88.1168256
  37.4498716 103.0617610  87.1889445  37.2317036 103.6335397  88.5736307
  25.7522943  96.8574109  94.1965268  26.3922323  96.7162869  93.4988231
  24.9200474  96.5708623  93.8203870  37.6150197 104.9392541  93.1279527
  38.0486703 104.8467830  93.9762581  38.3281777 104.9150042  92.4899543
  26.5283247 106.1576540  90.3100260  27.3223846 105.6626860  90.1082835
  25.8174940 105.6294403  89.9467966  31.3478092 108.5394635  94.6612628
  31.4015114 109.1085572  95.4290344  30.4792873 108.7096520  94.2966665
  22.8366011 100.3019622  86.3860013  21.9063599 100.2404077  86.6029975
  22.9323483  99.7795574  85.5896654  22.7551560  96.8274434  88.9738255
  23.0158377  97.7419768  88.8647415  23.5768732  96.3598877  89.1234867
  24.2276485  98.2412192  96.1437079  24.8999538  98.0329554  95.4949728
  23.4006272  98.0434278  95.7042311  38.4765746 104.9816242  95.6612413
  38.6701636 105.8862052  95.9071688  38.3766364 104.5223661  96.4950998
  30.1302057  94.8674133  98.1602740  29.4829972  95.5664082  98.0667216
  30.9003072  95.3010276  98.5278988  33.5380855 105.1322985 101.2353293
  33.3866361 104.9033536 100.3183377  33.5285534 106.0893586 101.2484638
  30.3066191 102.7054897  96.2199560  31.2358251 102.8566057  96.0468527
  29.8857221 102.7938918  95.3648206  29.1054523 106.7305562  93.9898097
  28.9665609 106.3624346  94.8624036  28.3169119 107.2453201  93.8182055
  29.7002675 111.8314658  85.3323634  29.8754431 111.3602702  86.1469257
  29.0135463 112.4580425  85.5604895  30.6559738 106.1087165  91.3786935
  30.3209571 106.0687935  92.2744585  30.1563684 105.4431880  90.9057345
  24.6303982 101.5154795  96.9039516  24.4923780 100.7835033  97.5051055
  25.5408906 101.4263695  96.6223704  33.5918930 103.4543199  81.6523995
  32.9748101 102.7290027  81.5557048  33.1235418 104.2152559  81.3091069
  27.2586283 101.2274754  96.3923196  27.9685901 100.5867946  96.3509814
  27.2155591 101.4787649  97.3149377  35.2473062 108.1642107  99.3129775
  35.1885608 107.4801327  98.6460358  35.6492580 108.9061097  98.8610401
  25.9715217  98.2139972  98.2118835  25.4352574  97.7630710  98.8640432
  25.3831925  98.3485881  97.4689300  24.2663760 114.9804021  92.1063494
  24.5060359 115.6122545  92.7842513  23.4232957 114.6292061  92.3928853
  25.3817476  97.6728623  80.7745299  24.5046942  97.5517424  80.4107546
  25.8575229  96.8814701  80.5224188  35.2490469 106.1281691  97.5443755
  34.3617248 105.7907613  97.6670154  35.8189020 105.3964722  97.7812520
  16.9019616 102.4605783  90.8686806  17.5890656 102.1467513  90.2807822
  16.7467745 103.3647148  90.5954058  21.7054338  97.3495979  95.2971830
  21.6212527  96.7421649  94.5622240  20.8837045  97.8404998  95.2981326
  28.7791622 110.7883144  94.5104998  28.7061794 111.5938115  95.0224303
  28.3369015 110.9875109  93.6853019  28.5681402 110.0254914  88.0207820
  27.7848924 110.5676594  88.1146044  29.2674147 110.5428893  88.4202061
  31.8778052  95.8349543  90.6642025  32.3746752  95.0819505  90.3443095
  31.1065033  95.8713860  90.0985234  39.7307809 101.5389909  92.3060317
  39.7197686 102.4214624  91.9354250  38.8625189 101.1861459  92.1114854
  31.2390306 110.6869978  96.6663157  31.9518278 111.3217442  96.5939058
  30.7480334 110.7833844  95.8503159  32.9607833 104.5921230  88.2380448
  32.0264111 104.7122693  88.0685153  33.1384501 103.6893697  87.9740458
  28.4613021  97.9766926  90.3913710  28.0910808  97.4237966  91.0794615
  28.9572113  97.3725059  89.8388710  36.3480384 100.4338550  88.7730483
  36.8140836 101.2666541  88.6990785  36.7987885  99.9683531  89.4775741
  26.2902219 108.4364421  97.4868728  26.9911679 109.0700904  97.6398122
  25.8197334 108.7779153  96.7264367  34.4156615 106.7782371  85.7716635
  34.6916459 106.6638965  86.6810509  33.5461114 106.3799856  85.7328808
  34.3197047  92.8019137  92.8121384  33.4060127  93.0323363  92.9803591
  34.7490148  92.8857581  93.6635416  34.0903505 100.9909028  95.3121278
  33.4374956 101.2384936  94.6573731  34.4683885 100.1773167  94.9783755
  31.0510679 111.0268722  89.4149448  31.2333074 110.2090378  89.8777201
  31.8743665 111.2436414  88.9774338  31.3852845 109.9536907  86.6764497
  31.9140611 109.4429361  86.0634659  31.6481064 109.6379437  87.5410030
  30.1391078 101.7328840 101.7987315  29.4631715 101.6322969 102.4689690
  30.9618712 101.5768053 102.2623312  21.8869937 107.9700776  94.4199830
  22.4723374 107.2244464  94.5527734  21.6894776 108.2804733  95.3036494
  24.7408593 111.0052023  89.4362273  24.0718968 111.4898151  88.9526313
  24.6021462 111.2521244  90.3505651  16.4787592 100.5406376  93.1404273
  16.5171692 100.0069967  93.9341391  15.9727885 100.0141582  92.5215251
  28.8813861 113.0395767  96.0344931  29.4332169 113.2027388  96.7994016
  29.2220055 113.6300205  95.3624956  23.8578354  95.3870917  96.6366816
  23.9219681  96.2485748  96.2244213  23.7945475  94.7744918  95.9039174
  23.3330627  97.4594049 100.2839850  23.9602666  97.0771127 100.8977374
  22.4758546  97.2408251 100.6495542  33.7324735 107.8657024 101.8893585
  34.2764639 108.4786983 101.3948540  33.1511580 108.4236603 102.4060598
  20.1096170  99.2670478  86.2158205  20.4049611  98.3581157  86.1625258
  19.2084205  99.2458218  85.8939207  32.0182248 110.9877743  93.0208613
  31.8933388 110.1867482  92.5119559  32.6761340 111.4823936  92.5322583
  23.6390417  97.3426475  92.1985753  22.9177002  97.9562443  92.0593227
  24.4283672  97.8784240  92.1202399  34.0817157 108.7886763  94.6488163
  33.1347492 108.6692114  94.5766490  34.4299930 107.9009261  94.7314425
  26.4416730  94.6780902  98.4726405  26.9651132  94.9243198  99.2352714
  26.2229063  95.5100936  98.0529542  21.8384011  96.9484576  86.3397530
  21.5096717  96.0681955  86.1572636  22.1923382  96.8932245  87.2273919
  31.0863590 108.5839479  90.8492515  30.9388553 107.6556186  91.0300086
  31.9117084 108.6059570  90.3649591  24.9525834  97.2357546  86.7073008
  25.2921907  97.7643467  85.9851616  25.3997955  97.5737952  87.4831574
  34.6897712 109.4068038  91.9357388  35.6144259 109.2010899  91.7981839
  34.5213015 109.1584439  92.8446730  27.6469275  95.6194597  96.1576076
  27.3066096  94.8202410  96.5596756  26.9408282  95.9196307  95.5852909
  28.2985747  92.7043909  94.6103399  29.1211816  92.2304387  94.4882289
  28.5423811  93.4834393  95.1102085  26.9393982  95.7332167  84.9066300
  27.6602344  96.1113420  84.4030017  26.3159286  96.4521044  85.0101278
  31.0825104  96.4377316  85.8424633  31.2988719  97.3201954  85.5413461
  30.6019172  96.0463530  85.1130275  25.8224326  99.3963030  92.4195377
  25.6768907  99.7103333  93.3119659  25.3449529 100.0147930  91.8666276
  27.6820709  96.3865578  92.4676267  27.6682277  95.4906671  92.1308565
  28.3993137  96.3936241  93.1014553  29.5346839  96.8202918  94.5129394
  29.2764617  97.7419989  94.5113725  29.0031880  96.4233352  95.2029858
  34.4793028 109.9253705  87.2919480  34.6529906 109.3600127  86.5393332
  34.9721919 110.7254600  87.1098970  20.2969988 101.9368374  95.3583038
  19.7523456 102.7128182  95.4903313  21.1749338 102.2839179  95.2002160
  27.0857605  95.2679958  87.7363837  27.2073516  94.3396604  87.9354724
  26.7959647  95.2818644  86.8242152  29.9548795  92.9534868  90.8730557
  29.9770492  93.0174201  89.9182536  30.3716854  92.1139377  91.0671063
  40.3332419 102.6890128  88.9109779  40.7763565 101.9397453  88.5128903
  39.4558930 102.6800264  88.5283511  35.4668201 109.2420469  84.3916378
  36.1619105 109.8627162  84.6103693  35.8091351 108.3915821  84.6668756
  21.0836010 101.0638270  98.2513195  20.3417746 101.2120906  98.8377826
  20.7628754 101.3246536  97.3879945  37.3659624 106.6920175  85.9203709
  37.8910948 107.0307448  85.1953029  37.2781976 105.7567190  85.7366843
  29.0279672 110.6054249  98.0493585  29.3366799 110.3603395  98.9216285
  29.8255155 110.8100887  97.5612456  29.0500285 112.7592158  90.2798962
  28.6105275 112.2668537  90.9731819  29.8008401 112.2165126  90.0391037
  21.5292624 108.9503699  90.2823590  22.3550643 108.6507471  89.9022234
  21.1786676 108.1811322  90.7313379  26.4974157 108.3030167  92.3521264
  25.8754166 107.6400872  92.0523491  27.1679024 108.3291299  91.6694911
  19.7301229 106.8690026  91.2412524  18.8933137 106.4412200  91.0596525
  19.7024874 107.0622469  92.1783315  26.5698684  96.7811955 101.9453770
  26.6186840  97.6574078 101.5631539  27.1121198  96.2389348 101.3725413
  37.0553530 107.3253079 101.2254907  36.2649074 107.3077217 100.6859406
  36.8186884 107.8641372 101.9803943  37.1751405 104.1745545  98.5387635
  37.2249410 104.0095552  99.4803158  37.0665328 103.3072804  98.1485516
  26.0587664 106.8534091  85.8279724  26.2075784 107.5369555  85.1746397
  26.8654107 106.8339181  86.3429180  34.4655167 100.1576473  99.8546942
  35.3665030 100.0182938  99.5630940  34.5403142 100.3230928 100.7945119
  28.7997973  97.5343328  98.7000128  27.9301282  97.8276894  98.4282717
  29.0357453  98.1183773  99.4207392  38.6769602 106.5942486  98.7829657
  38.3854410 106.9572467  99.6193118  38.0641733 105.8809495  98.6042989
  39.8765284 104.1595366  91.3032227  40.7112175 104.5985170  91.4669787
  40.0124413 103.6834019  90.4840473  36.9256790 101.7175101  97.2509715
  37.4010912 101.9102747  96.4428566  36.0022355 101.7734287  97.0053098
  23.8140297 102.8799268  86.8340793  23.5686339 101.9761598  87.0321003
  23.9836211 102.8816419  85.8920271  31.5037006  93.7522945  96.2165549
  32.0218950  94.4883972  95.8912037  31.1492139  94.0586938  97.0512308
  23.0835944  98.6127626  84.3326954  22.3905189  98.6871981  83.6766990
  22.8387696  97.8487969  84.8548471  31.7549601  90.1723227  91.7366445
  32.0351354  89.5046416  92.3626872  32.5400208  90.3652323  91.2241109
  29.5583069 109.3482221  83.2991472  28.9857036 109.9672408  82.8461943
  30.1315863 109.8981583  83.8331393  35.6258459  98.5940861  95.4838020
  36.5775882  98.6938959  95.5050244  35.4561909  97.8019130  95.9936105
  33.6472838  95.6796444  95.6697421  33.0522771  95.9601457  94.9743910
  33.3622535  96.1690345  96.4414162  32.7780329 109.6319371  84.4300054
  33.7111002 109.5664933  84.6332929  32.6903542 110.4675638  83.9714586
  35.4068346 108.9485242  81.3904001  35.3281977 108.6145105  82.2839759
  36.2278012 109.4407009  81.3895474  38.1046537 101.8146981  94.5980320
  38.0722857 100.8762982  94.7840004  38.7147160 101.8931018  93.8646145
  29.9429868 100.6843034  80.6407524  30.8888972 100.5549242  80.7095942
  29.5644113  99.9457696  81.1176952  38.2541025  98.6058024  94.6438603
  37.7380074  97.8216481  94.4568532  39.1380974  98.2776741  94.8085123
  35.9151752  92.3499040  90.6034416  35.7176573  92.0414128  91.4877748
  36.5251458  93.0760679  90.7332346  43.9223087 102.8762988  93.7386357
  44.6526475 102.6148276  94.2994060  43.3130032 102.1391710  93.7788425
  42.0038384 101.0170850  94.3360808  41.2771547 100.8826815  93.7277300
  41.5885671 101.3247679  95.1417526  29.8268560 104.7360780 102.1008181
  30.7471570 104.9139379 102.2948228  29.7918143 103.7916825 101.9487880
  28.1272785  98.6093010  80.5762409  27.2204240  98.3126123  80.6525123
  28.4048766  98.3122828  79.7096695  19.0450725  99.9299374  91.0261456
  18.7253510  99.0764682  90.7335830  18.4984153 100.1447952  91.7819423
  22.8230633 102.6461815  94.7430962  23.0416642 103.5778922  94.7618996
  23.2356407 102.2869789  95.5285766  29.7434851  93.1529900  86.7306651
  28.9335579  92.8076985  87.1061897  30.4319267  92.8437444  87.3194262
  31.6725399  92.2307947  88.3530947  32.2256437  92.6503400  89.0120970
  31.9095485  91.3043695  88.3953903  27.6958498  98.2195020 104.1333711
  27.5955225  99.1689377 104.0645802  27.4780040  97.8913259 103.2609781
  26.8971569  95.4679945  80.7174388  27.7590733  95.7934844  80.9770206
  27.0821914  94.6811441  80.2047454  18.9138985 103.5502285  92.9954577
  18.2202457 103.1356238  92.4824532  19.6611976 103.5922822  92.3987996
  35.0504206  94.3408472  87.8609611  34.4702875  94.9993276  87.4787664
  34.7840139  93.5185816  87.4497029  33.5007772  93.7413530  90.0630932
  34.0007551  93.8530064  89.2545251  34.1443380  93.4374582  90.7031740
  27.5589768 101.6492159 102.9498773  27.0756850 102.4492519 103.1562662
  27.6450707 101.6600104 101.9966217  20.8275728 103.4820539  90.8720592
  20.8046416 103.5808226  89.9202475  21.1376364 104.3285690  91.1937758
  23.4863106 105.5396694  94.9867207  24.4406359 105.5080636  94.9197138
  23.2875629 105.0787318  95.8017432  24.0762488 104.1097810  97.5538004
  24.8955377 104.6041889  97.5772841  24.3499295 103.1929778  97.5255572
  33.8329084  96.5008562  86.9165960  32.9454939  96.7858213  86.6986154
  34.2483073  96.3402326  86.0693237  37.1843620  96.5255083  90.6320299
  37.9604010  97.0151536  90.9044916  36.4591754  96.9513137  91.0892168
  39.6216179  97.2382702  91.6894240  40.2160669  96.9978438  90.9787548
  39.6942762  96.5189833  92.3167776  21.8413334 111.0816313  92.0037404
  21.7067802 110.3216714  91.4375402  21.4245397 111.8057213  91.5366193
  32.9772297 106.2653237  81.0113980  33.6808147 106.4703239  81.6271635
  32.2534946 106.8329999  81.2763063  33.8070108 102.0163098  87.1316250
  33.7505309 102.4731650  86.2923882  34.3598450 101.2553783  86.9539093
  37.6174914  97.8052830  87.9566369  37.3611848  97.4049466  88.7874577
  36.9927782  98.5196624  87.8316509  41.9287251 100.5448903  90.4637661
  41.3686809 100.6142093  91.2369223  41.3230755 100.3689888  89.7437157
  24.9982460 111.9785630  92.2155847  24.8814844 112.9231063  92.1134537
  24.1774906 111.6759192  92.6041646  34.8858995 106.7035766  83.0612440
  35.7204599 106.2716965  82.8789915  34.7243338 106.5317780  83.9889334
  34.5404887 103.2067879  84.4268779  34.4853691 103.0412151  83.4857223
  33.9150942 103.9143912  84.5830969  19.3297402  98.4435944  98.2530201
  19.9756266  97.9334898  98.7417426  19.1214553  99.1804625  98.8273627
  31.8550794 105.5116791 103.7522342  32.7241954 105.6857444 103.3908977
  31.3757546 106.3311208 103.6298071  27.8501012  92.7075988  84.0054097
  27.8379682  93.6517828  84.1622368  28.7424434  92.5246134  83.7113559
  26.0236974 112.6313892  95.4311775  26.9264221 112.6637503  95.7478270
  25.7974344 111.7014343  95.4458111  27.7790576 111.3844879  92.0921854
  26.8286207 111.3846740  91.9786226  28.0823063 110.6377613  91.5757889
  31.6653132  89.3018765  88.2600034  30.8985528  88.7477252  88.4056717
  32.0763837  89.3740634  89.1214186  23.6694893  95.5903561 102.3505215
  24.5326354  95.2340366 102.5608540  23.0960304  95.2517456 103.0380620
  43.5143270 117.2205417  93.1567617  44.1521680 117.1012165  92.4530957
  43.3964113 118.1686261  93.2155569  40.3232976 117.1732845  93.0929141
  39.9851488 117.0573910  92.2049676  41.1922744 116.7724010  93.0730147
  36.1819792 119.0268322  89.0826032  35.6184657 118.9358259  88.3142320
  36.0672187 118.2068226  89.5628525  40.8052759 118.3267697  99.0515347
  40.7941400 117.9320495  98.1795850  40.9673399 117.5933770  99.6449118
  33.7284224 120.5219513  91.9210253  34.5205516 120.1810338  91.5056552
  33.9680874 120.6314488  92.8412406  41.7619351 122.6939289  84.3940497
  41.1107330 123.2793370  84.0074511  42.5563713 123.2245484  84.4535535
  35.6874978 119.7828427  84.7927631  36.4605854 119.2357414  84.6540507
  36.0400377 120.6472676  85.0042093  37.5260020 121.1104809  97.9994531
  37.2349886 122.0150440  97.8841197  38.1617005 121.1521337  98.7138600
  38.4516227 118.4881657  94.5895890  39.0479799 118.2637680  93.8752853
  38.5091199 117.7466403  95.1921338  38.0241256 115.9421093  82.4246081
  38.2766776 115.4202614  81.6629544  37.0865815 115.7787238  82.5272765
  43.0684538 114.9456871  90.2320825  43.8547628 114.5276294  89.8811242
  43.3323243 115.8502963  90.4002473  43.2394616 120.3829721  84.9309481
  42.6040449 120.4564348  85.6430386  42.9092022 120.9723320  84.2528561
  48.4692965 114.8832104  91.1353803  49.2018137 114.3131321  91.3691633
  47.7132321 114.4953705  91.5760309  37.7437544 117.8449199  84.6270456
  37.6273802 117.1694102  85.2951541  37.8539804 117.3581573  83.8102609
  40.0869085 117.3059346  88.3317146  39.7227292 116.7789967  89.0430067
  40.9436201 116.9157815  88.1583631  45.9918386 108.5953678  95.5948412
  45.6601711 109.4649089  95.3709627  45.3963999 108.2789962  96.2742442
  39.7274572 112.3349246  83.3278494  39.8948975 113.2029482  83.6948965
  39.5371741 112.4976527  82.4039783  42.4849905 120.7966224  94.9944324
  42.1850628 121.6991263  94.8860132  42.1400965 120.5298408  95.8465477
  35.9362387 117.2480021  91.0281029  35.0112883 117.1156235  91.2358721
  36.1846800 118.0274240  91.5250971  45.8847049 113.3148765  92.6741762
  44.9763926 113.2464173  92.3800523  45.8334645 113.7920710  93.5023587
  39.7063793 114.7906903  84.3125161  39.5863418 115.2363954  85.1510641
  39.0116381 115.1392221  83.7538699  33.2971198 116.8913295  91.8624818
  33.4263579 117.1447774  92.7764230  32.6168649 117.4841003  91.5429473
  37.4670685 127.5610545  87.9615292  37.3894715 128.5118370  88.0403773
  36.8632329 127.2156417  88.6190218  39.9587915 114.7338410 100.6176659
  39.1821249 115.2932330 100.6079524  40.5978478 115.2195193 101.1391529
  47.7508696 111.5165203  94.4519636  47.1083076 111.8097736  93.8059430
  47.2463624 111.4018123  95.2572832  45.4048859 115.2628376  85.1405495
  46.3166715 115.4955763  84.9653192  44.8958506 115.8465420  84.5780574
  38.2134287 117.5423864 100.1794626  38.9548972 118.0808908  99.9029450
  37.5071273 118.1690152 100.3366178  43.6889627 119.6853004  98.7766787
  44.0972983 119.2435415  98.0321420  42.9666888 119.1105632  99.0300980
  40.0420697 114.6225611  96.1500344  40.8881892 115.0465024  96.2934993
  39.9819335 113.9659235  96.8438908  44.0118442 120.2454195  92.5319076
  43.3827304 120.4099909  91.8295144  43.6244104 120.6595804  93.3030040
  47.8907673 121.1808632  89.8863440  47.2058712 121.5607534  89.3360473
  47.9751523 121.7903959  90.6195388  43.1920142 112.2829979  97.8081518
  42.9481074 113.0372040  97.2715794  43.4680073 112.6615327  98.6428765
  45.1458605 118.8268592  96.4858784  45.3575500 119.4700351  95.8093165
  45.0988353 117.9930908  96.0180714  42.7484834 111.4386412  93.3895356
  41.8869313 111.7367666  93.6812093  42.7747269 111.6556811  92.4576388
  39.5646403 119.9828603  89.7969161  40.0284749 120.2616306  89.0073784
  39.3003202 119.0812047  89.6142252  36.4570484 119.5300084  92.7348925
  37.0271842 119.9587353  92.0966409  37.0478596 119.2482669  93.4333110
  38.5015289 116.1051755  86.6058727  39.2039333 116.5572799  87.0732653
  38.1695918 115.4635574  87.2338620  36.9495651 114.6963512 100.9809936
  36.3194312 115.3779793 101.2145333  36.8431739 114.5846593 100.0363074
  32.2440623 114.3635308  91.9075860  31.4539677 114.6192836  91.4315971
  32.7351871 115.1783646  92.0127901  46.2604433 121.7040547  94.6581141
  47.0821877 121.3020734  94.3763823  46.2566836 121.6008781  95.6097257
  34.1955369 114.7279887  88.8659337  33.3986532 114.8398581  89.3842833
  33.9680961 115.0666539  88.0000227  40.0261036 121.2524590  96.8141851
  40.0905469 121.7144997  97.6500023  39.3171960 120.6221955  96.9424161
  30.5278326 114.6165798  94.3390851  30.7786365 115.5012808  94.6048427
  31.0637875 114.4370400  93.5665943  54.3510426 118.0479295  91.0066112
  53.5974134 117.4786693  90.8510117  54.4857967 118.0141960  91.9536747
  39.7409054 122.9192698  86.6820832  39.6054729 123.7644233  87.1105680
  40.2818867 123.1211975  85.9186766  36.2276394 108.9984278 103.3435187
  35.8343339 108.4450476 104.0182831  37.0442534 109.3094856 103.7341705
  33.1938451 120.4368136  87.2548757  33.7062972 121.2311386  87.4054322
  33.8461164 119.7394426  87.1882358  35.0033336 123.5533892  89.3371510
  35.1799964 124.4751857  89.1492494  35.7990170 123.2392311  89.7665890
  39.1444355 110.4142157 100.9355444  39.8854068 111.0149310 100.8559906
  39.3762278 109.6719794 100.3773486  34.2885693 115.5998524  99.2133673
  34.1739208 114.6983781  99.5140772  33.4330210 115.8462221  98.8618490
  41.3677530 123.5416264 100.8121174  40.9241385 122.7552643 100.4942078
  42.0294744 123.7295415 100.1465065  36.1264652 125.0712066  95.3381852
  36.6772077 124.9429129  94.5658846  35.2876128 125.3706955  94.9876745
  43.4658769 123.8219064  98.8402575  43.4477244 124.6427945  98.3482844
  44.3878689 123.6973139  99.0652716  39.9231823 121.3363194  99.6826084
  40.4560159 120.5751482  99.4525392  39.3945904 121.0436845 100.4250238
  43.0901518 106.4423260  95.2119725  42.7465787 107.3324901  95.1358836
  43.4580480 106.2524917  94.3489310  31.1587368 118.7656790  88.0308327
  31.9962590 119.1753798  87.8142035  31.3365636 117.8256232  88.0008521
  43.0551800 116.4331871  83.7192160  42.5398424 117.2036475  83.9580548
  42.7829109 115.7597007  84.3425222  40.6398911 111.2781571  88.7777399
  39.7840508 110.8888422  88.5983037  41.0525863 111.3573532  87.9177184
  42.1698058 108.8127915  93.1768959  41.6662854 108.7758050  92.3636764
  42.4628665 109.7220657  93.2365615  38.4140944 108.8966644  92.1835140
  39.2793941 108.7009453  91.8241030  38.4818453 108.6676996  93.1104497
  48.0286074 119.1864225  85.6545334  47.2515517 118.8475385  85.2100496
  48.7077555 119.1916849  84.9800299  42.8438104 114.3058963  85.5451942
  42.5388239 114.6205112  86.3962085  43.7968546 114.3840383  85.5879275
  41.2884535 120.4649186  87.1944896  40.7605897 119.7301946  86.8818133
  40.7872038 121.2423862  86.9484864  46.2677381 118.6598207  92.3111942
  45.6101056 119.3497468  92.3992070  47.0717781 119.0494639  92.6545928
  36.0203263 111.1268852  89.5551507  36.5947015 110.9044034  88.8224700
  36.6074245 111.1957547  90.3080108  45.0782840 117.0142579  90.3615884
  45.5914722 117.6472571  90.8637593  45.7284064 116.4143775  89.9959244
  36.3472850 113.1573313  83.5747392  35.5110162 113.4948000  83.8956667
  36.2077620 113.0222293  82.6374529  38.3225931 108.0010101  88.2826576
  37.6690343 107.6859118  87.6583191  38.2806405 107.3785842  89.0086399
  39.4337136 118.2829396  80.1979869  38.5264197 118.0518650  80.3971018
  39.9308168 117.4867016  80.3853850  42.3405214 126.9926904  83.1176555
  41.6666913 127.2958600  83.7261513  42.7271036 127.7955984  82.7682012
  41.5563671 114.4892035  92.6074224  40.6386232 114.7106982  92.4495912
  41.9723815 114.5638345  91.7485931  42.3398719 115.8883451  87.7376904
  43.0870538 116.4004848  87.4284026  42.6090308 115.5667503  88.5981298
  40.6125369 118.3841991  84.7203859  39.7036588 118.1001024  84.8176328
  40.6420453 118.8041070  83.8607166  45.8444636 121.9948581  88.4895026
  45.3906964 121.1539491  88.5460217  45.2138603 122.6309979  88.8269806
  44.7877556 112.9240567  89.7195694  44.0500313 112.4117953  90.0505936
  45.0404330 112.4840948  88.9078971  44.2877576 123.8325077  89.4244844
  44.5800550 124.3930135  88.7057210  44.7976196 124.1253638  90.1798003
  44.8889183 105.7016819  90.3137463  45.1948060 104.8414182  90.0263378
  45.6141788 106.2934439  90.1136457  31.1813539 116.1047505  88.7019061
  30.9837939 115.5116866  87.9770127  30.6260203 115.7999716  89.4195000
  39.1610263 115.9970612  90.8213654  39.2158873 115.0444448  90.7456131
  38.3501465 116.1530051  91.3054952  40.3101457 119.9250735  82.0591937
  39.8720887 119.2086594  81.5997575  41.0511898 120.1526850  81.4977029
  37.1002623 114.6147672  88.5804033  36.2870488 114.9141842  88.9869225
  37.5961617 114.2203360  89.2978515  39.2511201 124.6105429  90.5138298
  39.2087380 124.8366275  89.5846830  40.1673900 124.3768803  90.6624099
  42.6976835 115.0789496  97.4118927  43.0526222 115.3060969  98.2713393
  43.3448966 115.4107873  96.7896182  48.4274572 118.2007932  88.1168256
  48.2892470 118.3909528  87.1889445  48.0710790 118.9627315  88.5736307
  36.5916698 112.1866027  94.1965268  37.2316077 112.0454786  93.4988231
  35.7594228 111.9000541  93.8203870  48.4543951 120.2684459  93.1279527
  48.8880458 120.1759748  93.9762581  49.1675532 120.2441959  92.4899543
  37.3677002 121.4868458  90.3100260  38.1617600 120.9918778  90.1082835
  36.6568694 120.9586321  89.9467966  42.1871846 123.8686553  94.6612628
  42.2408868 124.4377489  95.4290344  41.3186627 124.0388438  94.2966665
  33.6759765 115.6311539  86.3860013  32.7457353 115.5695995  86.6029975
  33.7717237 115.1087492  85.5896654  33.5945314 112.1566352  88.9738255
  33.8552131 113.0711685  88.8647415  34.4162486 111.6890795  89.1234867
  35.0670239 113.5704109  96.1437079  35.7393293 113.3621471  95.4949728
  34.2400026 113.3726195  95.7042311  49.3159501 120.3108160  95.6612413
  49.5095391 121.2153970  95.9071688  49.2160119 119.8515579  96.4950998
  40.9695811 110.1966050  98.1602740  40.3223727 110.8956000  98.0667216
  41.7396827 110.6302194  98.5278988  44.3774609 120.4614902 101.2353293
  44.2260116 120.2325454 100.3183377  44.3679289 121.4185504 101.2484638
  41.1459946 118.0346815  96.2199560  42.0752006 118.1857975  96.0468527
  40.7250976 118.1230836  95.3648206  39.9448278 122.0597480  93.9898097
  39.8059363 121.6916264  94.8624036  39.1562874 122.5745119  93.8182055
  40.5396430 127.1606576  85.3323634  40.7148185 126.6894619  86.1469257
  39.8529218 127.7872342  85.5604895  41.4953493 121.4379082  91.3786935
  41.1603325 121.3979852  92.2744585  40.9957438 120.7723798  90.9057345
  35.4697737 116.8446712  96.9039516  35.3317535 116.1126951  97.5051055
  36.3802660 116.7555612  96.6223704  44.4312684 118.7835117  81.6523995
  43.8141855 118.0581945  81.5557048  43.9629173 119.5444477  81.3091069
  38.0980037 116.5566672  96.3923196  38.8079656 115.9159864  96.3509814
  38.0549346 116.8079566  97.3149377  46.0866816 123.4934025  99.3129775
  46.0279362 122.8093245  98.6460358  46.4886334 124.2353015  98.8610401
  36.8108971 113.5431889  98.2118835  36.2746328 113.0922628  98.8640432
  36.2225680 113.6777798  97.4689300  35.1057515 130.3095939  92.1063494
  35.3454113 130.9414463  92.7842513  34.2626711 129.9583979  92.3928853
  36.2211230 113.0020541  80.7745299  35.3440697 112.8809342  80.4107546
  36.6968983 112.2106619  80.5224188  46.0884223 121.4573609  97.5443755
  45.2011002 121.1199531  97.6670154  46.6582774 120.7256640  97.7812520
  27.7413370 117.7897701  90.8686806  28.4284410 117.4759431  90.2807822
  27.5861499 118.6939065  90.5954058  32.5448093 112.6787897  95.2971830
  32.4606281 112.0713567  94.5622240  31.7230799 113.1696915  95.2981326
  39.6185377 126.1175061  94.5104998  39.5455548 126.9230033  95.0224303
  39.1762770 126.3167027  93.6853019  39.4075156 125.3546831  88.0207820
  38.6242678 125.8968511  88.1146044  40.1067902 125.8720811  88.4202061
  42.7171806 111.1641461  90.6642025  43.2140506 110.4111423  90.3443095
  41.9458788 111.2005777  90.0985234  50.5701564 116.8681826  92.3060317
  50.5591440 117.7506542  91.9354250  49.7018943 116.5153377  92.1114854
  42.0784060 126.0161895  96.6663157  42.7912032 126.6509360  96.5939058
  41.5874089 126.1125761  95.8503159  43.8001587 119.9213148  88.2380448
  42.8657866 120.0414610  88.0685153  43.9778256 119.0185615  87.9740458
  39.3006775 113.3058844  90.3913710  38.9304563 112.7529884  91.0794615
  39.7965868 112.7016977  89.8388710  47.1874139 115.7630467  88.7730483
  47.6534591 116.5958459  88.6990785  47.6381639 115.2975449  89.4775741
  37.1295974 123.7656339  97.4868728  37.8305433 124.3992822  97.6398122
  36.6591089 124.1071070  96.7264367  45.2550370 122.1074288  85.7716635
  45.5310214 121.9930883  86.6810509  44.3854868 121.7091773  85.7328808
  45.1590801 108.1311054  92.8121384  44.2453881 108.3615281  92.9803591
  45.5883903 108.2149498  93.6635416  44.9297260 116.3200946  95.3121278
  44.2768710 116.5676854  94.6573731  45.3077640 115.5065084  94.9783755
  41.8904434 126.3560639  89.4149448  42.0726828 125.5382295  89.8777201
  42.7137420 126.5728332  88.9774338  42.2246599 125.2828824  86.6764497
  42.7534366 124.7721279  86.0634659  42.4874819 124.9671355  87.5410030
  40.9784833 117.0620757 101.7987315  40.3025470 116.9614887 102.4689690
  41.8012467 116.9059971 102.2623312  32.7263692 123.2992694  94.4199830
  33.3117129 122.5536382  94.5527734  32.5288530 123.6096650  95.3036494
  35.5802347 126.3343941  89.4362273  34.9112722 126.8190069  88.9526313
  35.4415217 126.5813162  90.3505651  27.3181347 115.8698294  93.1404273
  27.3565446 115.3361885  93.9341391  26.8121639 115.3433499  92.5215251
  39.7207616 128.3687685  96.0344931  40.2725924 128.5319306  96.7994016
  40.0613809 128.9592122  95.3624956  34.6972109 110.7162834  96.6366816
  34.7613435 111.5777665  96.2244213  34.6339229 110.1036836  95.9039174
  34.1724381 112.7885967 100.2839850  34.7996420 112.4063044 100.8977374
  33.3152300 112.5700169 100.6495542  44.5718490 123.1948942 101.8893585
  45.1158394 123.8078900 101.3948540  43.9905335 123.7528521 102.4060598
  30.9489924 114.5962396  86.2158205  31.2443365 113.6873075  86.1625258
  30.0477960 114.5750136  85.8939207  42.8576003 126.3169660  93.0208613
  42.7327142 125.5159400  92.5119559  43.5155094 126.8115854  92.5322583
  34.4784171 112.6718393  92.1985753  33.7570757 113.2854360  92.0593227
  35.2677427 113.2076158  92.1202399  44.9210911 124.1178680  94.6488163
  43.9741247 123.9984031  94.5766490  45.2693684 123.2301178  94.7314425
  37.2810485 110.0072819  98.4726405  37.8044886 110.2535116  99.2352714
  37.0622818 110.8392854  98.0529542  32.6777766 112.2776494  86.3397530
  32.3490472 111.3973873  86.1572636  33.0317136 112.2224162  87.2273919
  41.9257345 123.9131396  90.8492515  41.7782307 122.9848104  91.0300086
  42.7510838 123.9351487  90.3649591  35.7919589 112.5649464  86.7073008
  36.1315661 113.0935385  85.9851616  36.2391709 112.9029870  87.4831574
  45.5291466 124.7359955  91.9357388  46.4538014 124.5302817  91.7981839
  45.3606770 124.4876356  92.8446730  38.4863030 110.9486514  96.1576076
  38.1459850 110.1494327  96.5596756  37.7802036 111.2488225  95.5852909
  39.1379502 108.0335827  94.6103399  39.9605571 107.5596305  94.4882289
  39.3817565 108.8126310  95.1102085  37.7787736 111.0624085  84.9066300
  38.4996099 111.4405338  84.4030017  37.1553040 111.7812962  85.0101278
  41.9218859 111.7669234  85.8424633  42.1382473 112.6493872  85.5413461
  41.4412926 111.3755448  85.1130275  36.6618080 114.7254947  92.4195377
  36.5162661 115.0395250  93.3119659  36.1843284 115.3439848  91.8666276
  38.5214463 111.7157495  92.4676267  38.5076032 110.8198589  92.1308565
  39.2386891 111.7228159  93.1014553  40.3740594 112.1494836  94.5129394
  40.1158372 113.0711906  94.5113725  39.8425634 111.7525270  95.2029858
  45.3186783 125.2545623  87.2919480  45.4923660 124.6892045  86.5393332
  45.8115674 126.0546518  87.1098970  31.1363742 117.2660292  95.3583038
  30.5917211 118.0420100  95.4903313  32.0143092 117.6131096  95.2002160
  37.9251359 110.5971876  87.7363837  38.0467270 109.6688522  87.9354724
  37.6353401 110.6110562  86.8242152  40.7942550 108.2826786  90.8730557
  40.8164246 108.3466119  89.9182536  41.2110609 107.4431295  91.0671063
  51.1726174 118.0182046  88.9109779  51.6157320 117.2689371  88.5128903
  50.2952684 118.0092182  88.5283511  46.3061955 124.5712387  84.3916378
  47.0012860 125.1919080  84.6103693  46.6485105 123.7207738  84.6668756
  31.9229764 116.3930188  98.2513195  31.1811500 116.5412823  98.8377826
  31.6022509 116.6538454  97.3879945  48.2053378 122.0212093  85.9203709
  48.7304702 122.3599365  85.1953029  48.1175731 121.0859108  85.7366843
  39.8673427 125.9346166  98.0493585  40.1760553 125.6895313  98.9216285
  40.6648909 126.1392805  97.5612456  39.8894039 128.0884076  90.2798962
  39.4499029 127.5960455  90.9731819  40.6402156 127.5457044  90.0391037
  32.3686378 124.2795617  90.2823590  33.1944398 123.9799389  89.9022234
  32.0180430 123.5103239  90.7313379  37.3367911 123.6322085  92.3521264
  36.7147920 122.9692790  92.0523491  38.0072778 123.6583217  91.6694911
  30.5694983 122.1981943  91.2412524  29.7326891 121.7704118  91.0596525
  30.5418628 122.3914387  92.1783315  37.4092439 112.1103873 101.9453770
  37.4580594 112.9865996 101.5631539  37.9514953 111.5681266 101.3725413
  47.8947284 122.6544996 101.2254907  47.1042828 122.6369135 100.6859406
  47.6580639 123.1933290 101.9803943  48.0145159 119.5037463  98.5387635
  48.0643164 119.3387470  99.4803158  47.9059083 118.6364722  98.1485516
  36.8981418 122.1826008  85.8279724  37.0469538 122.8661473  85.1746397
  37.7047862 122.1631098  86.3429180  45.3048922 115.4868391  99.8546942
  46.2058785 115.3474855  99.5630940  45.3796896 115.6522845 100.7945119
  39.6391727 112.8635245  98.7000128  38.7695037 113.1568811  98.4282717
  39.8751207 113.4475690  99.4207392  49.5163356 121.9234404  98.7829657
  49.2248165 122.2864385  99.6193118  48.9035488 121.2101412  98.6042989
  50.7159039 119.4887284  91.3032227  51.5505930 119.9277088  91.4669787
  50.8518167 119.0125937  90.4840473  47.7650544 117.0467019  97.2509715
  48.2404666 117.2394665  96.4428566  46.8416110 117.1026205  97.0053098
  34.6534051 118.2091186  86.8340793  34.4080093 117.3053516  87.0321003
  34.8229966 118.2108336  85.8920271  42.3430761 109.0814862  96.2165549
  42.8612705 109.8175889  95.8912037  41.9885894 109.3878856  97.0512308
  33.9229699 113.9419544  84.3326954  33.2298944 114.0163899  83.6766990
  33.6781451 113.1779887  84.8548471  42.5943355 105.5015145  91.7366445
  42.8745109 104.8338334  92.3626872  43.3793962 105.6944240  91.2241109
  40.3976824 124.6774139  83.2991472  39.8250791 125.2964326  82.8461943
  40.9709617 125.2273500  83.8331393  46.4652213 113.9232779  95.4838020
  47.4169636 114.0230877  95.5050244  46.2955664 113.1311047  95.9936105
  44.4866593 111.0088362  95.6697421  43.8916525 111.2893375  94.9743910
  44.2016290 111.4982263  96.4414162  43.6174083 124.9611289  84.4300054
  44.5504757 124.8956851  84.6332929  43.5297296 125.7967556  83.9714586
  46.2462100 124.2777159  81.3904001  46.1675732 123.9437023  82.2839759
  47.0671767 124.7698927  81.3895474  48.9440291 117.1438899  94.5980320
  48.9116611 116.2054899  94.7840004  49.5540915 117.2222935  93.8646145
  40.7823622 116.0134952  80.6407524  41.7282727 115.8841160  80.7095942
  40.4037867 115.2749613  81.1176952  49.0934780 113.9349942  94.6438603
  48.5773828 113.1508399  94.4568532  49.9774728 113.6068659  94.8085123
  46.7545507 107.6790958  90.6034416  46.5570328 107.3706046  91.4877748
  47.3645212 108.4052596  90.7332346  54.7616841 118.2054905  93.7386357
  55.4920230 117.9440194  94.2994060  54.1523787 117.4683627  93.7788425
  52.8432138 116.3462768  94.3360808  52.1165302 116.2118733  93.7277300
  52.4279425 116.6539597  95.1417526  40.6662315 120.0652698 102.1008181
  41.5865324 120.2431297 102.2948228  40.6311898 119.1208743 101.9487880
  38.9666539 113.9384928  80.5762409  38.0597995 113.6418041  80.6525123
  39.2442520 113.6414746  79.7096695  29.8844480 115.2591291  91.0261456
  29.5647264 114.4056600  90.7335830  29.3377908 115.4739869  91.7819423
  33.6624387 117.9753732  94.7430962  33.8810397 118.9070840  94.7618996
  34.0750161 117.6161707  95.5285766  40.5828605 108.4821818  86.7306651
  39.7729333 108.1368903  87.1061897  41.2713022 108.1729361  87.3194262
  42.5119153 107.5599864  88.3530947  43.0650192 107.9795318  89.0120970
  42.7489240 106.6335613  88.3953903  38.5352253 113.5486938 104.1333711
  38.4348979 114.4981295 104.0645802  38.3173795 113.2205177 103.2609781
  37.7365324 110.7971863  80.7174388  38.5984488 111.1226761  80.9770206
  37.9215668 110.0103359  80.2047454  29.7532740 118.8794203  92.9954577
  29.0596211 118.4648156  92.4824532  30.5005731 118.9214739  92.3987996
  45.8897960 109.6700390  87.8609611  45.3096629 110.3285194  87.4787664
  45.6233893 108.8477734  87.4497029  44.3401527 109.0705447  90.0630932
  44.8401305 109.1821982  89.2545251  44.9837135 108.7666500  90.7031740
  38.3983523 116.9784077 102.9498773  37.9150604 117.7784437 103.1562662
  38.4844462 116.9892022 101.9966217  31.6669482 118.8112457  90.8720592
  31.6440170 118.9100144  89.9202475  31.9770119 119.6577607  91.1937758
  34.3256860 120.8688612  94.9867207  35.2800114 120.8372554  94.9197138
  34.1269384 120.4079235  95.8017432  34.9156242 119.4389728  97.5538004
  35.7349131 119.9333806  97.5772841  35.1893050 118.5221696  97.5255572
  44.6722838 111.8300480  86.9165960  43.7848693 112.1150131  86.6986154
  45.0876827 111.6694243  86.0693237  48.0237375 111.8547001  90.6320299
  48.7997765 112.3443453  90.9044916  47.2985509 112.2805055  91.0892168
  50.4609933 112.5674620  91.6894240  51.0554424 112.3270356  90.9787548
  50.5336517 111.8481751  92.3167776  32.6807089 126.4108231  92.0037404
  32.5461557 125.6508632  91.4375402  32.2639151 127.1349131  91.5366193
  43.8166052 121.5945155  81.0113980  44.5201902 121.7995157  81.6271635
  43.0928701 122.1621917  81.2763063  44.6463862 117.3455016  87.1316250
  44.5899064 117.8023567  86.2923882  45.1992205 116.5845700  86.9539093
  48.4568668 113.1344748  87.9566369  48.2005602 112.7341383  88.7874577
  47.8321536 113.8488542  87.8316509  52.7681006 115.8740821  90.4637661
  52.2080564 115.9434010  91.2369223  52.1624509 115.6981806  89.7437157
  35.8376215 127.3077548  92.2155847  35.7208599 128.2522981  92.1134537
  35.0168661 127.0051110  92.6041646  45.7252749 122.0327684  83.0612440
  46.5598353 121.6008882  82.8789915  45.5637092 121.8609698  83.9889334
  45.3798641 118.5359797  84.4268779  45.3247445 118.3704069  83.4857223
  44.7544697 119.2435830  84.5830969  30.1691156 113.7727862  98.2530201
  30.8150020 113.2626815  98.7417426  29.9608308 114.5096543  98.8273627
  42.6944549 120.8408709 103.7522342  43.5635708 121.0149361 103.3908977
  42.2151300 121.6603126 103.6298071  38.6894767 108.0367906  84.0054097
  38.6773437 108.9809746  84.1622368  39.5818189 107.8538052  83.7113559
  36.8630729 127.9605810  95.4311775  37.7657976 127.9929420  95.7478270
  36.6368099 127.0306261  95.4458111  38.6184331 126.7136797  92.0921854
  37.6679962 126.7138658  91.9786226  38.9216817 125.9669531  91.5757889
  42.5046886 104.6310683  88.2600034  41.7379282 104.0769169  88.4056717
  42.9157591 104.7032552  89.1214186  34.5088647 110.9195479 102.3505215
  35.3720109 110.5632283 102.5608540  33.9354058 110.5809373 103.0380620
  54.3537024 132.5497335  93.1567617  54.9915434 132.4304082  92.4530957
  54.2357867 133.4978179  93.2155569  51.1626731 132.5024763  93.0929141
  50.8245242 132.3865828  92.2049676  52.0316499 132.1015928  93.0730147
  47.0213546 134.3560239  89.0826032  46.4578411 134.2650176  88.3142320
  46.9065941 133.5360144  89.5628525  51.6446514 133.6559615  99.0515347
  51.6335154 133.2612413  98.1795850  51.8067153 132.9225687  99.6449118
  44.5677978 135.8511431  91.9210253  45.3599270 135.5102256  91.5056552
  44.8074628 135.9606406  92.8412406  52.6013105 138.0231207  84.3940497
  51.9501085 138.6085288  84.0074511  53.3957468 138.5537402  84.4535535
  46.5268732 135.1120344  84.7927631  47.2999608 134.5649331  84.6540507
  46.8794131 135.9764594  85.0042093  48.3653775 136.4396727  97.9994531
  48.0743641 137.3442357  97.8841197  49.0010759 136.4813254  98.7138600
  49.2909982 133.8173575  94.5895890  49.8873554 133.5929598  93.8752853
  49.3484953 133.0758321  95.1921338  48.8635010 131.2713010  82.4246081
  49.1160531 130.7494532  81.6629544  47.9259569 131.1079156  82.5272765
  53.9078293 130.2748789  90.2320825  54.6941382 129.8568212  89.8811242
  54.1716997 131.1794881  90.4002473  54.0788370 135.7121639  84.9309481
  53.4434203 135.7856266  85.6430386  53.7485777 136.3015238  84.2528561
  59.3086720 130.2124022  91.1353803  60.0411892 129.6423239  91.3691633
  58.5526076 129.8245622  91.5760309  48.5831299 133.1741116  84.6270456
  48.4667557 132.4986020  85.2951541  48.6933559 132.6873490  83.8102609
  50.9262840 132.6351263  88.3317146  50.5621047 132.1081884  89.0430067
  51.7829956 132.2449733  88.1583631  56.8312140 123.9245596  95.5948412
  56.4995465 124.7941007  95.3709627  56.2357754 123.6081880  96.2742442
  50.5668327 127.6641163  83.3278494  50.7342729 128.5321400  83.6948965
  50.3765496 127.8268445  82.4039783  53.3243660 136.1258142  94.9944324
  53.0244383 137.0283181  94.8860132  52.9794719 135.8590325  95.8465477
  46.7756141 132.5771939  91.0281029  45.8506638 132.4448153  91.2358721
  47.0240555 133.3566158  91.5250971  56.7240804 128.6440682  92.6741762
  55.8157681 128.5756091  92.3800523  56.6728399 129.1212627  93.5023587
  50.5457548 130.1198821  84.3125161  50.4257173 130.5655871  85.1510641
  49.8510136 130.4684138  83.7538699  44.1364952 132.2205212  91.8624818
  44.2657334 132.4739691  92.7764230  43.4562404 132.8132920  91.5429473
  48.3064440 142.8902462  87.9615292  48.2288469 143.8410288  88.0403773
  47.7026083 142.5448335  88.6190218  50.7981669 130.0630328 100.6176659
  50.0215003 130.6224248 100.6079524  51.4372232 130.5487111 101.1391529
  58.5902450 126.8457121  94.4519636  57.9476830 127.1389654  93.8059430
  58.0857379 126.7310041  95.2572832  56.2442614 130.5920294  85.1405495
  57.1560470 130.8247681  84.9653192  55.7352261 131.1757338  84.5780574
  49.0528042 132.8715781 100.1794626  49.7942726 133.4100825  99.9029450
  48.3465027 133.4982070 100.3366178  54.5283381 135.0144922  98.7766787
  54.9366737 134.5727332  98.0321420  53.8060643 134.4397549  99.0300980
  50.8814451 129.9517528  96.1500344  51.7275647 130.3756942  96.2934993
  50.8213089 129.2951153  96.8438908  54.8512196 135.5746112  92.5319076
  54.2221058 135.7391826  91.8295144  54.4637858 135.9887722  93.3030040
  58.7301428 136.5100550  89.8863440  58.0452466 136.8899452  89.3360473
  58.8145277 137.1195877  90.6195388  54.0313897 127.6121897  97.8081518
  53.7874829 128.3663957  97.2715794  54.3073827 127.9907244  98.6428765
  55.9852360 134.1560509  96.4858784  56.1969255 134.7992269  95.8093165
  55.9382108 133.3222826  96.0180714  53.5878588 126.7678330  93.3895356
  52.7263068 127.0659583  93.6812093  53.6141023 126.9848729  92.4576388
  50.4040158 135.3120520  89.7969161  50.8678503 135.5908223  89.0073784
  50.1396956 134.4103965  89.6142252  47.2964239 134.8592002  92.7348925
  47.8665596 135.2879270  92.0966409  47.8872351 134.5774587  93.4333110
  49.3409044 131.4343673  86.6058727  50.0433087 131.8864716  87.0732653
  49.0089672 130.7927492  87.2338620  47.7889405 130.0255429 100.9809936
  47.1588066 130.7071710 101.2145333  47.6825493 129.9138511 100.0363074
  43.0834378 129.6927225  91.9075860  42.2933432 129.9484754  91.4315971
  43.5745625 130.5075563  92.0127901  57.0998187 137.0332465  94.6581141
  57.9215631 136.6312652  94.3763823  57.0960590 136.9300699  95.6097257
  45.0349123 130.0571805  88.8659337  44.2380287 130.1690499  89.3842833
  44.8074715 130.3958457  88.0000227  50.8654791 136.5816508  96.8141851
  50.9299223 137.0436915  97.6500023  50.1565715 135.9513873  96.9424161
  41.3672081 129.9457716  94.3390851  41.6180119 130.8304726  94.6048427
  41.9031629 129.7662317  93.5665943  65.1904181 133.3771213  91.0066112
  64.4367889 132.8078611  90.8510117  65.3251722 133.3433878  91.9536747
  50.5802809 138.2484615  86.6820832  50.4448483 139.0936151  87.1105680
  51.1212621 138.4503893  85.9186766  47.0670148 124.3276195 103.3435187
  46.6737094 123.7742394 104.0182831  47.8836289 124.6386774 103.7341705
  44.0332206 135.7660053  87.2548757  44.5456727 136.5603304  87.4054322
  44.6854919 135.0686344  87.1882358  45.8427091 138.8825810  89.3371510
  46.0193719 139.8043774  89.1492494  46.6383924 138.5684229  89.7665890
  49.9838109 125.7434074 100.9355444  50.7247823 126.3441227 100.8559906
  50.2156032 125.0011712 100.3773486  45.1279447 130.9290442  99.2133673
  45.0132962 130.0275699  99.5140772  44.2723965 131.1754138  98.8618490
  52.2071285 138.8708182 100.8121174  51.7635139 138.0844560 100.4942078
  52.8688499 139.0587332 100.1465065  46.9658406 140.4003983  95.3381852
  47.5165831 140.2721047  94.5658846  46.1269882 140.6998873  94.9876745
  54.3052523 139.1510982  98.8402575  54.2870998 139.9719863  98.3482844
  55.2272443 139.0265057  99.0652716  50.7625577 136.6655111  99.6826084
  51.2953914 135.9043400  99.4525392  50.2339658 136.3728763 100.4250238
  53.9295272 121.7715177  95.2119725  53.5859542 122.6616819  95.1358836
  54.2974235 121.5816835  94.3489310  41.9981123 134.0948708  88.0308327
  42.8356345 134.5045716  87.8142035  42.1759390 133.1548150  88.0008521
  53.8945555 131.7623788  83.7192160  53.3792178 132.5328393  83.9580548
  53.6222863 131.0888925  84.3425222  51.4792666 126.6073489  88.7777399
  50.6234262 126.2180340  88.5983037  51.8919618 126.6865450  87.9177184
  53.0091813 124.1419832  93.1768959  52.5056608 124.1049968  92.3636764
  53.3022419 125.0512575  93.2365615  49.2534698 124.2258562  92.1835140
  50.1187695 124.0301371  91.8241030  49.3212207 123.9968914  93.1104497
  58.8679829 134.5156143  85.6545334  58.0909272 134.1767303  85.2100496
  59.5471310 134.5208766  84.9800299  53.6831858 129.6350880  85.5451942
  53.3781994 129.9497030  86.3962085  54.6362300 129.7132300  85.5879275
  52.1278290 135.7941104  87.1944896  51.5999651 135.0593863  86.8818133
  51.6265793 136.5715780  86.9484864  57.1071136 133.9890124  92.3111942
  56.4494810 134.6789386  92.3992070  57.9111535 134.3786556  92.6545928
  46.8597017 126.4560770  89.5551507  47.4340769 126.2335952  88.8224700
  47.4468000 126.5249465  90.3080108  55.9176595 132.3434497  90.3615884
  56.4308476 132.9764489  90.8637593  56.5677819 131.7435692  89.9959244
  47.1866605 128.4865231  83.5747392  46.3503917 128.8239918  83.8956667
  47.0471374 128.3514211  82.6374529  49.1619685 123.3302019  88.2826576
  48.5084098 123.0151036  87.6583191  49.1200159 122.7077759  89.0086399
  50.2730890 133.6121314  80.1979869  49.3657952 133.3810568  80.3971018
  50.7701922 132.8158933  80.3853850  53.1798969 142.3218821  83.1176555
  52.5060668 142.6250518  83.7261513  53.5664791 143.1247902  82.7682012
  52.3957426 129.8183953  92.6074224  51.4779987 130.0398900  92.4495912
  52.8117569 129.8930263  91.7485931  53.1792473 131.2175368  87.7376904
  53.9264292 131.7296765  87.4284026  53.4484063 130.8959421  88.5981298
  51.4519123 133.7133909  84.7203859  50.5430343 133.4292942  84.8176328
  51.4814207 134.1332987  83.8607166  56.6838391 137.3240498  88.4895026
  56.2300718 136.4831408  88.5460217  56.0532358 137.9601897  88.8269806
  55.6271310 128.2532484  89.7195694  54.8894067 127.7409871  90.0505936
  55.8798084 127.8132866  88.9078971  55.1271330 139.1616995  89.4244844
  55.4194305 139.7222052  88.7057210  55.6369951 139.4545556  90.1798003
  55.7282938 121.0308736  90.3137463  56.0341815 120.1706100  90.0263378
  56.4535543 121.6226357  90.1136457  42.0207294 131.4339423  88.7019061
  41.8231694 130.8408784  87.9770127  41.4653958 131.1291633  89.4195000
  50.0004018 131.3262530  90.8213654  50.0552627 130.3736366  90.7456131
  49.1895220 131.4821969  91.3054952  51.1495211 135.2542653  82.0591937
  50.7114641 134.5378512  81.5997575  51.8905652 135.4818767  81.4977029
  47.9396377 129.9439589  88.5804033  47.1264243 130.2433760  88.9869225
  48.4355372 129.5495278  89.2978515  50.0904955 139.9397346  90.5138298
  50.0481134 140.1658193  89.5846830  51.0067654 139.7060721  90.6624099
  53.5370589 130.4081414  97.4118927  53.8919977 130.6352887  98.2713393
  54.1842720 130.7399791  96.7896182  59.2668326 133.5299850  88.1168256
  59.1286225 133.7201446  87.1889445  58.9104545 134.2919232  88.5736307
  47.4310452 127.5157945  94.1965268  48.0709832 127.3746704  93.4988231
  46.5987983 127.2292458  93.8203870  59.2937706 135.5976377  93.1279527
  59.7274212 135.5051666  93.9762581  60.0069286 135.5733877  92.4899543
  48.2070756 136.8160375  90.3100260  49.0011355 136.3210695  90.1082835
  47.4962448 136.2878238  89.9467966  53.0265601 139.1978471  94.6612628
  53.0802623 139.7669407  95.4290344  52.1580382 139.3680356  94.2966665
  44.5153520 130.9603457  86.3860013  43.5851108 130.8987912  86.6029975
  44.6110992 130.4379410  85.5896654  44.4339069 127.4858270  88.9738255
  44.6945886 128.4003603  88.8647415  45.2556241 127.0182712  89.1234867
  45.9063994 128.8996027  96.1437079  46.5787047 128.6913389  95.4949728
  45.0793780 128.7018113  95.7042311  60.1553255 135.6400077  95.6612413
  60.3489145 136.5445888  95.9071688  60.0553873 135.1807496  96.4950998
  51.8089566 125.5257968  98.1602740  51.1617481 126.2247918  98.0667216
  52.5790581 125.9594112  98.5278988  55.2168364 135.7906820 101.2353293
  55.0653870 135.5617372 100.3183377  55.2073043 136.7477421 101.2484638
  51.9853700 133.3638733  96.2199560  52.9145760 133.5149892  96.0468527
  51.5644730 133.4522754  95.3648206  50.7842032 137.3889397  93.9898097
  50.6453118 137.0208182  94.8624036  49.9956628 137.9037037  93.8182055
  51.3790184 142.4898494  85.3323634  51.5541940 142.0186537  86.1469257
  50.6922972 143.1164260  85.5604895  52.3347247 136.7671000  91.3786935
  51.9997080 136.7271770  92.2744585  51.8351193 136.1015716  90.9057345
  46.3091491 132.1738630  96.9039516  46.1711289 131.4418869  97.5051055
  47.2196415 132.0847530  96.6223704  55.2706439 134.1127034  81.6523995
  54.6535610 133.3873862  81.5557048  54.8022927 134.8736395  81.3091069
  48.9373792 131.8858589  96.3923196  49.6473410 131.2451781  96.3509814
  48.8943100 132.1371484  97.3149377  56.9260571 138.8225943  99.3129775
  56.8673117 138.1385163  98.6460358  57.3280089 139.5644933  98.8610401
  47.6502726 128.8723807  98.2118835  47.1140083 128.4214546  98.8640432
  47.0619434 129.0069716  97.4689300  45.9451269 145.6387856  92.1063494
  46.1847868 146.2706381  92.7842513  45.1020466 145.2875896  92.3928853
  47.0604985 128.3312459  80.7745299  46.1834451 128.2101259  80.4107546
  47.5362738 127.5398537  80.5224188  56.9277978 136.7865527  97.5443755
  56.0404757 136.4491448  97.6670154  57.4976529 136.0548558  97.7812520
  38.5807125 133.1189618  90.8686806  39.2678165 132.8051348  90.2807822
  38.4255254 134.0230983  90.5954058  43.3841847 128.0079815  95.2971830
  43.3000036 127.4005484  94.5622240  42.5624553 128.4988833  95.2981326
  50.4579131 141.4466979  94.5104998  50.3849303 142.2521950  95.0224303
  50.0156524 141.6458945  93.6853019  50.2468911 140.6838749  88.0207820
  49.4636433 141.2260429  88.1146044  50.9461656 141.2012729  88.4202061
  53.5565561 126.4933378  90.6642025  54.0534260 125.7403341  90.3443095
  52.7852542 126.5297695  90.0985234  61.4095318 132.1973744  92.3060317
  61.3985195 133.0798459  91.9354250  60.5412698 131.8445295  92.1114854
  52.9177815 141.3453813  96.6663157  53.6305787 141.9801278  96.5939058
  52.4267843 141.4417679  95.8503159  54.6395342 135.2505066  88.2380448
  53.7051620 135.3706528  88.0685153  54.8172010 134.3477532  87.9740458
  50.1400530 128.6350761  90.3913710  49.7698317 128.0821802  91.0794615
  50.6359622 128.0308895  89.8388710  58.0267893 131.0922385  88.7730483
  58.4928345 131.9250376  88.6990785  58.4775394 130.6267366  89.4775741
  47.9689728 139.0948256  97.4868728  48.6699188 139.7284739  97.6398122
  47.4984843 139.4362988  96.7264367  56.0944124 137.4366206  85.7716635
  56.3703968 137.3222801  86.6810509  55.2248623 137.0383691  85.7328808
  55.9984556 123.4602972  92.8121384  55.0847636 123.6907199  92.9803591
  56.4277657 123.5441416  93.6635416  55.7691014 131.6492864  95.3121278
  55.1162464 131.8968771  94.6573731  56.1471394 130.8357002  94.9783755
  52.7298188 141.6852557  89.4149448  52.9120583 140.8674213  89.8777201
  53.5531174 141.9020249  88.9774338  53.0640354 140.6120742  86.6764497
  53.5928120 140.1013197  86.0634659  53.3268573 140.2963272  87.5410030
  51.8178587 132.3912675 101.7987315  51.1419224 132.2906804 102.4689690
  52.6406221 132.2351889 102.2623312  43.5657446 138.6284611  94.4199830
  44.1510883 137.8828299  94.5527734  43.3682285 138.9388568  95.3036494
  46.4196102 141.6635859  89.4362273  45.7506477 142.1481986  88.9526313
  46.2808971 141.9105079  90.3505651  38.1575101 131.1990212  93.1404273
  38.1959201 130.6653802  93.9341391  37.6515394 130.6725417  92.5215251
  50.5601370 143.6979602  96.0344931  51.1119678 143.8611224  96.7994016
  50.9007564 144.2884040  95.3624956  45.5365863 126.0454752  96.6366816
  45.6007190 126.9069583  96.2244213  45.4732984 125.4328754  95.9039174
  45.0118136 128.1177885 100.2839850  45.6390175 127.7354962 100.8977374
  44.1546055 127.8992087 100.6495542  55.4112244 138.5240860 101.8893585
  55.9552148 139.1370818 101.3948540  54.8299089 139.0820438 102.4060598
  41.7883679 129.9254314  86.2158205  42.0837120 129.0164992  86.1625258
  40.8871714 129.9042053  85.8939207  53.6969757 141.6461578  93.0208613
  53.5720897 140.8451318  92.5119559  54.3548849 142.1407771  92.5322583
  45.3177926 128.0010310  92.1985753  44.5964511 128.6146278  92.0593227
  46.1071181 128.5368075  92.1202399  55.7604666 139.4470598  94.6488163
  54.8135001 139.3275949  94.5766490  56.1087439 138.5593096  94.7314425
  48.1204239 125.3364737  98.4726405  48.6438641 125.5827033  99.2352714
  47.9016572 126.1684772  98.0529542  43.5171520 127.6068411  86.3397530
  43.1884226 126.7265790  86.1572636  43.8710891 127.5516080  87.2273919
  52.7651099 139.2423314  90.8492515  52.6176062 138.3140022  91.0300086
  53.5904593 139.2643405  90.3649591  46.6313343 127.8941381  86.7073008
  46.9709416 128.4227302  85.9851616  47.0785464 128.2321787  87.4831574
  56.3685221 140.0651873  91.9357388  57.2931768 139.8594734  91.7981839
  56.2000524 139.8168274  92.8446730  49.3256784 126.2778432  96.1576076
  48.9853605 125.4786245  96.5596756  48.6195790 126.5780143  95.5852909
  49.9773256 123.3627744  94.6103399  50.7999325 122.8888223  94.4882289
  50.2211320 124.1418228  95.1102085  48.6181491 126.3916003  84.9066300
  49.3389853 126.7697256  84.4030017  47.9946795 127.1104880  85.0101278
  52.7612613 127.0961152  85.8424633  52.9776228 127.9785790  85.5413461
  52.2806681 126.7047365  85.1130275  47.5011835 130.0546865  92.4195377
  47.3556416 130.3687168  93.3119659  47.0237038 130.6731765  91.8666276
  49.3608218 127.0449413  92.4676267  49.3469786 126.1490506  92.1308565
  50.0780646 127.0520077  93.1014553  51.2134348 127.4786753  94.5129394
  50.9552126 128.4003824  94.5113725  50.6819389 127.0817188  95.2029858
  56.1580537 140.5837540  87.2919480  56.3317415 140.0183963  86.5393332
  56.6509428 141.3838435  87.1098970  41.9757497 132.5952209  95.3583038
  41.4310965 133.3712017  95.4903313  42.8536847 132.9423014  95.2002160
  48.7645114 125.9263793  87.7363837  48.8861025 124.9980439  87.9354724
  48.4747156 125.9402479  86.8242152  51.6336304 123.6118704  90.8730557
  51.6558001 123.6758037  89.9182536  52.0504363 122.7723212  91.0671063
  62.0119928 133.3473963  88.9109779  62.4551074 132.5981288  88.5128903
  61.1346439 133.3384100  88.5283511  57.1455710 139.9004305  84.3916378
  57.8406614 140.5210997  84.6103693  57.4878860 139.0499656  84.6668756
  42.7623519 131.7222106  98.2513195  42.0205255 131.8704741  98.8377826
  42.4416263 131.9830371  97.3879945  59.0447133 137.3504010  85.9203709
  59.5698457 137.6891283  85.1953029  58.9569485 136.4151026  85.7366843
  50.7067181 141.2638084  98.0493585  51.0154308 141.0187231  98.9216285
  51.5042663 141.4684722  97.5612456  50.7287794 143.4175994  90.2798962
  50.2892784 142.9252372  90.9731819  51.4795910 142.8748961  90.0391037
  43.2080132 139.6087534  90.2823590  44.0338152 139.3091306  89.9022234
  42.8574184 138.8395157  90.7313379  48.1761666 138.9614003  92.3521264
  47.5541675 138.2984708  92.0523491  48.8466533 138.9875135  91.6694911
  41.4088738 137.5273861  91.2412524  40.5720646 137.0996035  91.0596525
  41.3812383 137.7206304  92.1783315  48.2486193 127.4395791 101.9453770
  48.2974349 128.3157913 101.5631539  48.7908707 126.8973184 101.3725413
  58.7341039 137.9836914 101.2254907  57.9436583 137.9661053 100.6859406
  58.4974393 138.5225208 101.9803943  58.8538914 134.8329380  98.5387635
  58.9036919 134.6679388  99.4803158  58.7452837 133.9656639  98.1485516
  47.7375173 137.5117926  85.8279724  47.8863293 138.1953390  85.1746397
  48.5441616 137.4923016  86.3429180  56.1442676 130.8160308  99.8546942
  57.0452539 130.6766773  99.5630940  56.2190651 130.9814763 100.7945119
  50.4785482 128.1927163  98.7000128  49.6088791 128.4860729  98.4282717
  50.7144962 128.7767608  99.4207392  60.3557111 137.2526322  98.7829657
  60.0641919 137.6156302  99.6193118  59.7429242 136.5393330  98.6042989
  61.5552793 134.8179202  91.3032227  62.3899684 135.2569006  91.4669787
  61.6911922 134.3417855  90.4840473  58.6044299 132.3758936  97.2509715
  59.0798421 132.5686583  96.4428566  57.6809864 132.4318122  97.0053098
  45.4927806 133.5383104  86.8340793  45.2473847 132.6345434  87.0321003
  45.6623720 133.5400254  85.8920271  53.1824515 124.4106780  96.2165549
  53.7006459 125.1467807  95.8912037  52.8279648 124.7170773  97.0512308
  44.7623453 129.2711461  84.3326954  44.0692698 129.3455816  83.6766990
  44.5175205 128.5071805  84.8548471  53.4337110 120.8307063  91.7366445
  53.7138863 120.1630252  92.3626872  54.2187717 121.0236158  91.2241109
  51.2370578 140.0066056  83.2991472  50.6644545 140.6256244  82.8461943
  51.8103372 140.5565418  83.8331393  57.3045968 129.2524697  95.4838020
  58.2563391 129.3522794  95.5050244  57.1349418 128.4602965  95.9936105
  55.3260347 126.3380280  95.6697421  54.7310280 126.6185292  94.9743910
  55.0410044 126.8274181  96.4414162  54.4567838 140.2903207  84.4300054
  55.3898511 140.2248768  84.6332929  54.3691051 141.1259473  83.9714586
  57.0855855 139.6069077  81.3904001  57.0069486 139.2728941  82.2839759
  57.9065521 140.0990845  81.3895474  59.7834046 132.4730816  94.5980320
  59.7510366 131.5346817  94.7840004  60.3934669 132.5514853  93.8646145
  51.6217377 131.3426869  80.6407524  52.5676481 131.2133077  80.7095942
  51.2431622 130.6041531  81.1176952  59.9328534 129.2641860  94.6438603
  59.4167583 128.4800316  94.4568532  60.8168483 128.9360576  94.8085123
  57.5939261 123.0082875  90.6034416  57.3964082 122.6997963  91.4877748
  58.2038967 123.7344514  90.7332346  65.6010596 133.5346823  93.7386357
  66.3313984 133.2732111  94.2994060  64.9917541 132.7975545  93.7788425
  63.6825893 131.6754686  94.3360808  62.9559056 131.5410651  93.7277300
  63.2673180 131.9831514  95.1417526  51.5056069 135.3944615 102.1008181
  52.4259079 135.5723214 102.2948228  51.4705652 134.4500661 101.9487880
  49.8060294 129.2676846  80.5762409  48.8991749 128.9709958  80.6525123
  50.0836275 128.9706664  79.7096695  40.7238234 130.5883209  91.0261456
  40.4041018 129.7348517  90.7335830  40.1771662 130.8031787  91.7819423
  44.5018142 133.3045650  94.7430962  44.7204151 134.2362758  94.7618996
  44.9143916 132.9453624  95.5285766  51.4222359 123.8113735  86.7306651
  50.6123088 123.4660820  87.1061897  52.1106776 123.5021279  87.3194262
  53.3512908 122.8891782  88.3530947  53.9043946 123.3087236  89.0120970
  53.5882994 121.9627530  88.3953903  49.3746007 128.8778856 104.1333711
  49.2742734 129.8273213 104.0645802  49.1567549 128.5497095 103.2609781
  48.5759078 126.1263781  80.7174388  49.4378242 126.4518679  80.9770206
  48.7609423 125.3395277  80.2047454  40.5926494 134.2086120  92.9954577
  39.8989966 133.7940073  92.4824532  41.3399485 134.2506657  92.3987996
  56.7291715 124.9992307  87.8609611  56.1490384 125.6577111  87.4787664
  56.4627648 124.1769652  87.4497029  55.1795281 124.3997365  90.0630932
  55.6795060 124.5113899  89.2545251  55.8230889 124.0958418  90.7031740
  49.2377277 132.3075995 102.9498773  48.7544359 133.1076355 103.1562662
  49.3238216 132.3183939 101.9966217  42.5063237 134.1404374  90.8720592
  42.4833925 134.2392062  89.9202475  42.8163873 134.9869525  91.1937758
  45.1650615 136.1980529  94.9867207  46.1193868 136.1664472  94.9197138
  44.9663138 135.7371153  95.8017432  45.7549997 134.7681645  97.5538004
  46.5742886 135.2625724  97.5772841  46.0286804 133.8513613  97.5255572
  55.5116593 127.1592398  86.9165960  54.6242448 127.4442048  86.6986154
  55.9270582 126.9986161  86.0693237  58.8631129 127.1838919  90.6320299
  59.6391519 127.6735371  90.9044916  58.1379263 127.6096973  91.0892168
  61.3003688 127.8966538  91.6894240  61.8948178 127.6562274  90.9787548
  61.3730271 127.1773668  92.3167776  43.5200843 141.7400149  92.0037404
  43.3855311 140.9800550  91.4375402  43.1032906 142.4641049  91.5366193
  54.6559806 136.9237072  81.0113980  55.3595656 137.1287075  81.6271635
  53.9322455 137.4913834  81.2763063  55.4857617 132.6746934  87.1316250
  55.4292818 133.1315485  86.2923882  56.0385959 131.9137618  86.9539093
  59.2962423 128.4636665  87.9566369  59.0399357 128.0633301  88.7874577
  58.6715291 129.1780459  87.8316509  63.6074760 131.2032739  90.4637661
  63.0474318 131.2725928  91.2369223  63.0018264 131.0273723  89.7437157
  46.6769969 142.6369466  92.2155847  46.5602353 143.5814898  92.1134537
  45.8562415 142.3343027  92.6041646  56.5646504 137.3619602  83.0612440
  57.3992108 136.9300800  82.8789915  56.4030847 137.1901615  83.9889334
  56.2192396 133.8651715  84.4268779  56.1641200 133.6995986  83.4857223
  55.5938451 134.5727748  84.5830969  41.0084911 129.1019779  98.2530201
  41.6543775 128.5918733  98.7417426  40.8002062 129.8388461  98.8273627
  53.5338303 136.1700627 103.7522342  54.4029463 136.3441279 103.3908977
  53.0545055 136.9895044 103.6298071  49.5288521 123.3659824  84.0054097
  49.5167191 124.3101664  84.1622368  50.4211943 123.1829969  83.7113559
  47.7024483 143.2897728  95.4311775  48.6051730 143.3221338  95.7478270
  47.4761853 142.3598179  95.4458111  49.4578085 142.0428714  92.0921854
  48.5073716 142.0430576  91.9786226  49.7610571 141.2961449  91.5757889
  53.3440641 119.9602600  88.2600034  52.5773037 119.4061087  88.4056717
  53.7551346 120.0324469  89.1214186  45.3482402 126.2487396 102.3505215
  46.2113863 125.8924201 102.5608540  44.7747813 125.9101291 103.0380620
  65.1930779 147.8789253  93.1567617  65.8309189 147.7596000  92.4530957
  65.0751622 148.8270097  93.2155569  62.0020485 147.8316681  93.0929141
  61.6638997 147.7157745  92.2049676  62.8710253 147.4307846  93.0730147
  57.8607301 149.6852157  89.0826032  57.2972166 149.5942094  88.3142320
  57.7459696 148.8652062  89.5628525  62.4840268 148.9851532  99.0515347
  62.4728909 148.5904331  98.1795850  62.6460908 148.2517605  99.6449118
  55.4071733 151.1803349  91.9210253  56.1993025 150.8394173  91.5056552
  55.6468383 151.2898324  92.8412406  63.4406860 153.3523125  84.3940497
  62.7894839 153.9377205  84.0074511  64.2351222 153.8829320  84.4535535
  57.3662487 150.4412262  84.7927631  58.1393363 149.8941249  84.6540507
  57.7187886 151.3056511  85.0042093  59.2047529 151.7688644  97.9994531
  58.9137395 152.6734275  97.8841197  59.8404514 151.8105172  98.7138600
  60.1303736 149.1465493  94.5895890  60.7267308 148.9221515  93.8752853
  60.1878708 148.4050238  95.1921338  59.7028765 146.6004928  82.4246081
  59.9554285 146.0786449  81.6629544  58.7653324 146.4371074  82.5272765
  64.7472047 145.6040706  90.2320825  65.5335137 145.1860130  89.8811242
  65.0110752 146.5086799  90.4002473  64.9182125 151.0413557  84.9309481
  64.2827958 151.1148183  85.6430386  64.5879531 151.6307156  84.2528561
  70.1480474 145.5415940  91.1353803  70.8805646 144.9715156  91.3691633
  69.3919830 145.1537540  91.5760309  59.4225053 148.5033034  84.6270456
  59.3061311 147.8277937  85.2951541  59.5327313 148.0165408  83.8102609
  61.7656594 147.9643181  88.3317146  61.4014801 147.4373802  89.0430067
  62.6223710 147.5741650  88.1583631  67.6705895 139.2537514  95.5948412
  67.3389220 140.1232925  95.3709627  67.0751508 138.9373798  96.2742442
  61.4062081 142.9933081  83.3278494  61.5736484 143.8613317  83.6948965
  61.2159250 143.1560363  82.4039783  64.1637414 151.4550060  94.9944324
  63.8638137 152.3575099  94.8860132  63.8188474 151.1882243  95.8465477
  57.6149896 147.9063857  91.0281029  56.6900392 147.7740071  91.2358721
  57.8634309 148.6858076  91.5250971  67.5634558 143.9732600  92.6741762
  66.6551435 143.9048008  92.3800523  67.5122154 144.4504545  93.5023587
  61.3851302 145.4490738  84.3125161  61.2650927 145.8947789  85.1510641
  60.6903890 145.7976056  83.7538699  54.9758707 147.5497130  91.8624818
  55.1051088 147.8031609  92.7764230  54.2956158 148.1424838  91.5429473
  61.6375424 145.3922246 100.6176659  60.8608758 145.9516166 100.6079524
  62.2765987 145.8779029 101.1391529  69.4296205 142.1749038  94.4519636
  68.7870585 142.4681572  93.8059430  68.9251133 142.0601959  95.2572832
  67.0836368 145.9212212  85.1405495  67.9954224 146.1539598  84.9653192
  66.5746015 146.5049256  84.5780574  59.8921796 148.2007699 100.1794626
  60.6336481 148.7392743  99.9029450  59.1858782 148.8273988 100.3366178
  65.3677136 150.3436839  98.7766787  65.7760492 149.9019250  98.0321420
  64.6454397 149.7689467  99.0300980  61.7208206 145.2809446  96.1500344
  62.5669401 145.7048860  96.2934993  61.6606844 144.6243070  96.8438908
  65.6905950 150.9038030  92.5319076  65.0614813 151.0683744  91.8295144
  65.3031613 151.3179640  93.3030040  69.5695182 151.8392468  89.8863440
  68.8846221 152.2191369  89.3360473  69.6539032 152.4487794  90.6195388
  64.8707651 142.9413814  97.8081518  64.6268583 143.6955875  97.2715794
  65.1467582 143.3199162  98.6428765  66.8246114 149.4852427  96.4858784
  67.0363009 150.1284187  95.8093165  66.7775862 148.6514743  96.0180714
  64.4272343 142.0970248  93.3895356  63.5656822 142.3951501  93.6812093
  64.4534778 142.3140646  92.4576388  61.2433912 150.6412438  89.7969161
  61.7072258 150.9200141  89.0073784  60.9790710 149.7395883  89.6142252
  58.1357993 150.1883920  92.7348925  58.7059351 150.6171188  92.0966409
  58.7266105 149.9066504  93.4333110  60.1802798 146.7635590  86.6058727
  60.8826842 147.2156634  87.0732653  59.8483427 146.1219409  87.2338620
  58.6283160 145.3547347 100.9809936  57.9981821 146.0363628 101.2145333
  58.5219248 145.2430429 100.0363074  53.9228132 145.0219143  91.9075860
  53.1327186 145.2776672  91.4315971  54.4139380 145.8367481  92.0127901
  67.9391942 152.3624382  94.6581141  68.7609386 151.9604570  94.3763823
  67.9354345 152.2592616  95.6097257  55.8742878 145.3863722  88.8659337
  55.0774041 145.4982417  89.3842833  55.6468470 145.7250375  88.0000227
  61.7048545 151.9108426  96.8141851  61.7692978 152.3728833  97.6500023
  60.9959469 151.2805791  96.9424161  52.2065835 145.2749634  94.3390851
  52.4573874 146.1596643  94.6048427  52.7425384 145.0954235  93.5665943
  76.0297935 148.7063131  91.0066112  75.2761643 148.1370529  90.8510117
  76.1645476 148.6725795  91.9536747  61.4196563 153.5776533  86.6820832
  61.2842238 154.4228069  87.1105680  61.9606376 153.7795811  85.9186766
  57.9063903 139.6568113 103.3435187  57.5130848 139.1034311 104.0182831
  58.7230043 139.9678691 103.7341705  54.8725960 151.0951971  87.2548757
  55.3850481 151.8895221  87.4054322  55.5248673 150.3978262  87.1882358
  60.8231864 141.0725992 100.9355444  61.5641577 141.6733145 100.8559906
  61.0549787 140.3303630 100.3773486  55.9673202 146.2582359  99.2133673
  55.8526717 145.3567617  99.5140772  55.1117719 146.5046056  98.8618490
  63.0465039 154.2000100 100.8121174  62.6028894 153.4136478 100.4942078
  63.7082253 154.3879250 100.1465065  65.1446277 154.4802900  98.8402575
  65.1264753 155.3011781  98.3482844  66.0666198 154.3556975  99.0652716
  61.6019332 151.9947029  99.6826084  62.1347668 151.2335317  99.4525392
  61.0733413 151.7020681 100.4250238  64.7689027 137.1007095  95.2119725
  64.4253296 137.9908737  95.1358836  65.1367989 136.9108753  94.3489310
  52.8374877 149.4240625  88.0308327  53.6750099 149.8337634  87.8142035
  53.0153145 148.4840068  88.0008521  64.7339309 147.0915706  83.7192160
  64.2185933 147.8620311  83.9580548  64.4616618 146.4180842  84.3425222
  62.3186420 141.9365407  88.7777399  61.4628017 141.5472257  88.5983037
  62.7313372 142.0157368  87.9177184  63.8485567 139.4711750  93.1768959
  63.3450363 139.4341885  92.3636764  64.1416174 140.3804493  93.2365615
  60.0928453 139.5550480  92.1835140  60.9581450 139.3593289  91.8241030
  60.1605962 139.3260832  93.1104497  69.7073583 149.8448061  85.6545334
  68.9303026 149.5059220  85.2100496  70.3865064 149.8500684  84.9800299
  64.5225613 144.9642798  85.5451942  64.2175748 145.2788947  86.3962085
  65.4756055 145.0424218  85.5879275  62.9672044 151.1233021  87.1944896
  62.4393406 150.3885781  86.8818133  62.4659547 151.9007698  86.9484864
  67.9464890 149.3182042  92.3111942  67.2888565 150.0081303  92.3992070
  68.7505290 149.7078474  92.6545928  57.6990772 141.7852688  89.5551507
  58.2734524 141.5627869  88.8224700  58.2861754 141.8541382  90.3080108
  66.7570349 147.6726415  90.3615884  67.2702231 148.3056406  90.8637593
  67.4071573 147.0727610  89.9959244  58.0260359 143.8157149  83.5747392
  57.1897671 144.1531835  83.8956667  57.8865129 143.6806129  82.6374529
  60.0013440 138.6593937  88.2826576  59.3477852 138.3442954  87.6583191
  59.9593914 138.0369677  89.0086399  61.1124645 148.9413232  80.1979869
  60.2051706 148.7102485  80.3971018  61.6095677 148.1450851  80.3853850
  63.2351180 145.1475870  92.6074224  62.3173741 145.3690817  92.4495912
  63.6511324 145.2222181  91.7485931  64.0186228 146.5467286  87.7376904
  64.7658047 147.0588683  87.4284026  64.2877817 146.2251339  88.5981298
  62.2912878 149.0425827  84.7203859  61.3824097 148.7584859  84.8176328
  62.3207962 149.4624905  83.8607166  67.5232145 152.6532416  88.4895026
  67.0694472 151.8123326  88.5460217  66.8926112 153.2893814  88.8269806
  66.4665065 143.5824402  89.7195694  65.7287822 143.0701788  90.0505936
  66.7191838 143.1424784  88.9078971  65.9665085 154.4908913  89.4244844
  66.2588059 155.0513970  88.7057210  66.4763705 154.7837474  90.1798003
  66.5676692 136.3600654  90.3137463  66.8735569 135.4998018  90.0263378
  67.2929297 136.9518274  90.1136457  52.8601048 146.7631341  88.7019061
  52.6625448 146.1700701  87.9770127  52.3047712 146.4583551  89.4195000
  60.8397772 146.6554447  90.8213654  60.8946382 145.7028284  90.7456131
  60.0288974 146.8113886  91.3054952  61.9888966 150.5834570  82.0591937
  61.5508396 149.8670429  81.5997575  62.7299407 150.8110685  81.4977029
  58.7790132 145.2731507  88.5804033  57.9657997 145.5725678  88.9869225
  59.2749126 144.8787196  89.2978515  60.9298710 155.2689264  90.5138298
  60.8874889 155.4950110  89.5846830  61.8461409 155.0352638  90.6624099
  64.3764344 145.7373331  97.4118927  64.7313731 145.9644805  98.2713393
  65.0236475 146.0691708  96.7896182  70.1062081 148.8591767  88.1168256
  69.9679979 149.0493363  87.1889445  69.7498299 149.6211150  88.5736307
  58.2704207 142.8449862  94.1965268  58.9103586 142.7038622  93.4988231
  57.4381737 142.5584376  93.8203870  70.1331460 150.9268294  93.1279527
  70.5667967 150.8343583  93.9762581  70.8463041 150.9025795  92.4899543
  59.0464511 152.1452293  90.3100260  59.8405109 151.6502613  90.1082835
  58.3356203 151.6170156  89.9467966  63.8659355 154.5270388  94.6612628
  63.9196377 155.0961325  95.4290344  62.9974136 154.6972273  94.2966665
  55.3547274 146.2895375  86.3860013  54.4244862 146.2279830  86.6029975
  55.4504746 145.7671327  85.5896654  55.2732823 142.8150187  88.9738255
  55.5339640 143.7295521  88.8647415  56.0949995 142.3474630  89.1234867
  56.7457748 144.2287945  96.1437079  57.4180802 144.0205307  95.4949728
  55.9187535 144.0310031  95.7042311  70.9947010 150.9691995  95.6612413
  71.1882900 151.8737805  95.9071688  70.8947628 150.5099414  96.4950998
  62.6483320 140.8549886  98.1602740  62.0011236 141.5539835  98.0667216
  63.4184336 141.2886029  98.5278988  66.0562118 151.1198738 101.2353293
  65.9047625 150.8909289 100.3183377  66.0466798 152.0769339 101.2484638
  62.8247455 148.6930650  96.2199560  63.7539515 148.8441810  96.0468527
  62.4038485 148.7814671  95.3648206  61.6235787 152.7181315  93.9898097
  61.4846872 152.3500099  94.8624036  60.8350383 153.2328954  93.8182055
  63.1741002 152.0962918  91.3786935  62.8390834 152.0563688  92.2744585
  62.6744947 151.4307633  90.9057345  57.1485246 147.5030548  96.9039516
  57.0105044 146.7710786  97.5051055  58.0590169 147.4139448  96.6223704
  66.1100193 149.4418952  81.6523995  65.4929364 148.7165780  81.5557048
  65.6416682 150.2028312  81.3091069  59.7767546 147.2150507  96.3923196
  60.4867165 146.5743699  96.3509814  59.7336855 147.4663402  97.3149377
  67.7654325 154.1517860  99.3129775  67.7066871 153.4677080  98.6460358
  68.1673843 154.8936850  98.8610401  58.4896480 144.2015725  98.2118835
  57.9533837 143.7506463  98.8640432  57.9013189 144.3361634  97.4689300
  57.8998739 143.6604376  80.7745299  57.0228206 143.5393177  80.4107546
  58.3756492 142.8690455  80.5224188  67.7671732 152.1157444  97.5443755
  66.8798511 151.7783366  97.6670154  68.3370283 151.3840475  97.7812520
  49.4200879 148.4481536  90.8686806  50.1071919 148.1343266  90.2807822
  49.2649008 149.3522901  90.5954058  54.2235602 143.3371733  95.2971830
  54.1393790 142.7297402  94.5622240  53.4018308 143.8280751  95.2981326
  64.3959315 141.8225296  90.6642025  64.8928015 141.0695258  90.3443095
  63.6246297 141.8589613  90.0985234  72.2489073 147.5265662  92.3060317
  72.2378949 148.4090377  91.9354250  71.3806452 147.1737212  92.1114854
  65.4789096 150.5796983  88.2380448  64.5445375 150.6998446  88.0685153
  65.6565765 149.6769450  87.9740458  60.9794284 143.9642679  90.3913710
  60.6092072 143.4113719  91.0794615  61.4753377 143.3600813  89.8388710
  68.8661647 146.4214303  88.7730483  69.3322100 147.2542294  88.6990785
  69.3169148 145.9559284  89.4775741  58.8083483 154.4240174  97.4868728
  59.5092942 155.0576657  97.6398122  58.3378598 154.7654906  96.7264367
  66.9337879 152.7658124  85.7716635  67.2097722 152.6514718  86.6810509
  66.0642377 152.3675609  85.7328808  66.8378310 138.7894890  92.8121384
  65.9241390 139.0199116  92.9803591  67.2671412 138.8733334  93.6635416
  66.6084769 146.9784782  95.3121278  65.9556219 147.2260689  94.6573731
  66.9865149 146.1648920  94.9783755  63.9034108 155.9412660  86.6764497
  64.4321875 155.4305114  86.0634659  64.1662328 155.6255190  87.5410030
  62.6572342 147.7204593 101.7987315  61.9812979 147.6198722 102.4689690
  63.4799976 147.5643806 102.2623312  48.9968856 146.5282129  93.1404273
  49.0352955 145.9945720  93.9341391  48.4909148 146.0017335  92.5215251
  56.3759618 141.3746670  96.6366816  56.4400944 142.2361501  96.2244213
  56.3126738 140.7620671  95.9039174  55.8511890 143.4469802 100.2839850
  56.4783929 143.0646880 100.8977374  54.9939809 143.2284004 100.6495542
  66.2505999 153.8532778 101.8893585  66.7945903 154.4662736 101.3948540
  65.6692844 154.4112356 102.4060598  52.6277433 145.2546231  86.2158205
  52.9230874 144.3456910  86.1625258  51.7265469 145.2333971  85.8939207
  56.1571680 143.3302228  92.1985753  55.4358266 143.9438196  92.0593227
  56.9464936 143.8659993  92.1202399  66.5998420 154.7762516  94.6488163
  65.6528756 154.6567867  94.5766490  66.9481193 153.8885014  94.7314425
  58.9597994 140.6656655  98.4726405  59.4832395 140.9118951  99.2352714
  58.7410327 141.4976689  98.0529542  54.3565275 142.9360329  86.3397530
  54.0277981 142.0557708  86.1572636  54.7104645 142.8807998  87.2273919
  63.6044854 154.5715232  90.8492515  63.4569816 153.6431939  91.0300086
  64.4298347 154.5935323  90.3649591  57.4707098 143.2233299  86.7073008
  57.8103170 143.7519220  85.9851616  57.9179218 143.5613705  87.4831574
  67.2078975 155.3943791  91.9357388  68.1325523 155.1886652  91.7981839
  67.0394279 155.1460192  92.8446730  60.1650539 141.6070350  96.1576076
  59.8247359 140.8078163  96.5596756  59.4589545 141.9072060  95.5852909
  60.8167011 138.6919662  94.6103399  61.6393080 138.2180140  94.4882289
  61.0605074 139.4710146  95.1102085  59.4575245 141.7207921  84.9066300
  60.1783608 142.0989173  84.4030017  58.8340549 142.4396797  85.0101278
  63.6006368 142.4253069  85.8424633  63.8169982 143.3077707  85.5413461
  63.1200435 142.0339283  85.1130275  58.3405589 145.3838783  92.4195377
  58.1950170 145.6979086  93.3119659  57.8630793 146.0023683  91.8666276
  60.2001972 142.3741331  92.4676267  60.1863541 141.4782424  92.1308565
  60.9174400 142.3811994  93.1014553  62.0528103 142.8078671  94.5129394
  61.7945881 143.7295742  94.5113725  61.5213143 142.4109105  95.2029858
  66.9974292 155.9129458  87.2919480  67.1711169 155.3475881  86.5393332
  67.4903183 156.7130353  87.1098970  52.8151251 147.9244127  95.3583038
  52.2704720 148.7003935  95.4903313  53.6930601 148.2714932  95.2002160
  59.6038868 141.2555711  87.7363837  59.7254779 140.3272357  87.9354724
  59.3140910 141.2694397  86.8242152  62.4730058 138.9410621  90.8730557
  62.4951755 139.0049955  89.9182536  62.8898118 138.1015130  91.0671063
  72.8513683 148.6765881  88.9109779  73.2944829 147.9273206  88.5128903
  71.9740193 148.6676017  88.5283511  67.9849464 155.2296222  84.3916378
  68.6800369 155.8502915  84.6103693  68.3272614 154.3791574  84.6668756
  53.6017273 147.0514023  98.2513195  52.8599009 147.1996659  98.8377826
  53.2810018 147.3122289  97.3879945  69.8840887 152.6795928  85.9203709
  70.4092211 153.0183201  85.1953029  69.7963240 151.7442943  85.7366843
  59.0155420 154.2905920  92.3521264  58.3935429 153.6276625  92.0523491
  59.6860287 154.3167052  91.6694911  59.0879948 142.7687708 101.9453770
  59.1368103 143.6449831 101.5631539  59.6302462 142.2265101 101.3725413
  69.5734793 153.3128832 101.2254907  68.7830337 153.2952970 100.6859406
  69.3368148 153.8517125 101.9803943  69.6932668 150.1621298  98.5387635
  69.7430673 149.9971305  99.4803158  69.5846592 149.2948557  98.1485516
  58.5768927 152.8409844  85.8279724  58.7257047 153.5245308  85.1746397
  59.3835371 152.8214934  86.3429180  66.9836431 146.1452226  99.8546942
  67.8846294 146.0058691  99.5630940  67.0584405 146.3106681 100.7945119
  61.3179236 143.5219081  98.7000128  60.4482545 143.8152647  98.4282717
  61.5538716 144.1059526  99.4207392  71.1950865 152.5818239  98.7829657
  70.9035674 152.9448220  99.6193118  70.5822996 151.8685248  98.6042989
  72.3946548 150.1471119  91.3032227  73.2293439 150.5860923  91.4669787
  72.5305676 149.6709772  90.4840473  69.4438053 147.7050854  97.2509715
  69.9192175 147.8978500  96.4428566  68.5203619 147.7610040  97.0053098
  56.3321560 148.8675021  86.8340793  56.0867602 147.9637351  87.0321003
  56.5017475 148.8692172  85.8920271  64.0218270 139.7398698  96.2165549
  64.5400214 140.4759725  95.8912037  63.6673403 140.0462691  97.0512308
  55.6017208 144.6003379  84.3326954  54.9086453 144.6747734  83.6766990
  55.3568959 143.8363723  84.8548471  64.2730864 136.1598980  91.7366445
  64.5532618 135.4922169  92.3626872  65.0581471 136.3528076  91.2241109
  62.0764333 155.3357974  83.2991472  61.5038300 155.9548161  82.8461943
  62.6497126 155.8857336  83.8331393  68.1439722 144.5816614  95.4838020
  69.0957145 144.6814712  95.5050244  67.9743173 143.7894883  95.9936105
  66.1654102 141.6672197  95.6697421  65.5704034 141.9477210  94.9743910
  65.8803799 142.1566098  96.4414162  65.2961592 155.6195124  84.4300054
  66.2292266 155.5540686  84.6332929  65.2084805 156.4551391  83.9714586
  67.9249609 154.9360995  81.3904001  67.8463241 154.6020858  82.2839759
  68.7459276 155.4282762  81.3895474  70.6227800 147.8022734  94.5980320
  70.5904120 146.8638735  94.7840004  71.2328424 147.8806771  93.8646145
  62.4611131 146.6718787  80.6407524  63.4070236 146.5424995  80.7095942
  62.0825376 145.9333449  81.1176952  70.7722289 144.5933777  94.6438603
  70.2561337 143.8092234  94.4568532  71.6562237 144.2652494  94.8085123
  68.4333016 138.3374793  90.6034416  68.2357837 138.0289881  91.4877748
  69.0432721 139.0636432  90.7332346  76.4404350 148.8638741  93.7386357
  77.1707739 148.6024029  94.2994060  75.8311296 148.1267463  93.7788425
  74.5219647 147.0046603  94.3360808  73.7952811 146.8702568  93.7277300
  74.1066934 147.3123432  95.1417526  62.3449824 150.7236533 102.1008181
  63.2652833 150.9015132 102.2948228  62.3099407 149.7792578 101.9487880
  60.6454048 144.5968763  80.5762409  59.7385504 144.3001876  80.6525123
  60.9230029 144.2998581  79.7096695  51.5631989 145.9175127  91.0261456
  51.2434773 145.0640435  90.7335830  51.0165417 146.1323705  91.7819423
  55.3411896 148.6337568  94.7430962  55.5597906 149.5654675  94.7618996
  55.7537670 148.2745542  95.5285766  62.2616114 139.1405653  86.7306651
  61.4516842 138.7952738  87.1061897  62.9500531 138.8313197  87.3194262
  64.1906662 138.2183700  88.3530947  64.7437701 138.6379153  89.0120970
  64.4276749 137.2919448  88.3953903  60.2139761 144.2070773 104.1333711
  60.1136488 145.1565130 104.0645802  59.9961304 143.8789012 103.2609781
  59.4152833 141.4555698  80.7174388  60.2771997 141.7810597  80.9770206
  59.6003177 140.6687194  80.2047454  51.4320249 149.5378038  92.9954577
  50.7383720 149.1231991  92.4824532  52.1793240 149.5798575  92.3987996
  67.5685469 140.3284225  87.8609611  66.9884138 140.9869029  87.4787664
  67.3021402 139.5061570  87.4497029  66.0189036 139.7289283  90.0630932
  66.5188814 139.8405817  89.2545251  66.6624644 139.4250335  90.7031740
  60.0771032 147.6367912 102.9498773  59.5938113 148.4368272 103.1562662
  60.1631971 147.6475857 101.9966217  53.3456991 149.4696292  90.8720592
  53.3227679 149.5683979  89.9202475  53.6557628 150.3161443  91.1937758
  56.0044369 151.5272447  94.9867207  56.9587623 151.4956389  94.9197138
  55.8056893 151.0663071  95.8017432  56.5943751 150.0973563  97.5538004
  57.4136640 150.5917642  97.5772841  56.8680559 149.1805531  97.5255572
  66.3510347 142.4884315  86.9165960  65.4636202 142.7733966  86.6986154
  66.7664336 142.3278079  86.0693237  69.7024884 142.5130836  90.6320299
  70.4785274 143.0027289  90.9044916  68.9773018 142.9388890  91.0892168
  72.1397442 143.2258456  91.6894240  72.7341933 142.9854191  90.9787548
  72.2124026 142.5065586  92.3167776  65.4953561 152.2528990  81.0113980
  66.1989411 152.4578992  81.6271635  64.7716210 152.8205752  81.2763063
  66.3251371 148.0038851  87.1316250  66.2686573 148.4607403  86.2923882
  66.8779714 147.2429536  86.9539093  70.1356177 143.7928583  87.9566369
  69.8793111 143.3925219  88.7874577  69.5109045 144.5072377  87.8316509
  74.4468515 146.5324656  90.4637661  73.8868073 146.6017846  91.2369223
  73.8412018 146.3565641  89.7437157  67.4040258 152.6911519  83.0612440
  68.2385862 152.2592718  82.8789915  67.2424601 152.5193533  83.9889334
  67.0586150 149.1943632  84.4268779  67.0034954 149.0287904  83.4857223
  66.4332206 149.9019665  84.5830969  51.8478665 144.4311697  98.2530201
  52.4937529 143.9210651  98.7417426  51.6395817 145.1680379  98.8273627
  64.3732058 151.4992544 103.7522342  65.2423217 151.6733197 103.3908977
  63.8938809 152.3186961 103.6298071  60.3682276 138.6951742  84.0054097
  60.3560946 139.6393581  84.1622368  61.2605698 138.5121887  83.7113559
  64.1834395 135.2894518  88.2600034  63.4166791 134.7353005  88.4056717
  64.5945100 135.3616387  89.1214186  56.1876156 141.5779314 102.3505215
  57.0507618 141.2216119 102.5608540  55.6141567 141.2393209 103.0380620
  80.9874229 160.8707857  91.1353803  81.7199401 160.3007074  91.3691633
  80.2313585 160.4829458  91.5760309  78.5099649 154.5829431  95.5948412
  78.1782974 155.4524842  95.3709627  77.9145263 154.2665715  96.2742442
  72.2455836 158.3224999  83.3278494  72.4130238 159.1905235  83.6948965
  72.0553005 158.4852280  82.4039783  78.4028313 159.3024518  92.6741762
  77.4945190 159.2339926  92.3800523  78.3515908 159.7796463  93.5023587
  80.2689959 157.5040956  94.4519636  79.6264339 157.7973489  93.8059430
  79.7644888 157.3893876  95.2572832  75.7101406 158.2705732  97.8081518
  75.4662338 159.0247793  97.2715794  75.9861336 158.6491080  98.6428765
  75.2666097 157.4262165  93.3895356  74.4050576 157.7243419  93.6812093
  75.2928532 157.6432564  92.4576388  86.8691689 164.0355048  91.0066112
  86.1155398 163.4662447  90.8510117  87.0039231 164.0017713  91.9536747
  68.7457657 154.9860031 103.3435187  68.3524603 154.4326229 104.0182831
  69.5623797 155.2970609 103.7341705  71.6625618 156.4017910 100.9355444
  72.4035332 157.0025063 100.8559906  71.8943541 155.6595547 100.3773486
  75.6082781 152.4299013  95.2119725  75.2647050 153.3200654  95.1358836
  75.9761744 152.2400670  94.3489310  73.1580175 157.2657325  88.7777399
  72.3021771 156.8764175  88.5983037  73.5707127 157.3449285  87.9177184
  74.6879321 154.8003668  93.1768959  74.1844117 154.7633803  92.3636764
  74.9809928 155.7096411  93.2365615  70.9322207 154.8842398  92.1835140
  71.7975204 154.6885206  91.8241030  70.9999716 154.6552749  93.1104497
  75.3619367 160.2934716  85.5451942  75.0569503 160.6080865  86.3962085
  76.3149809 160.3716136  85.5879275  68.5384526 157.1144605  89.5551507
  69.1128278 156.8919787  88.8224700  69.1255509 157.1833300  90.3080108
  70.8407194 153.9885854  88.2826576  70.1871607 153.6734872  87.6583191
  70.7987668 153.3661595  89.0086399  77.3058819 158.9116320  89.7195694
  76.5681576 158.3993706  90.0505936  77.5585593 158.4716701  88.9078971
  77.4070447 151.6892572  90.3137463  77.7129324 150.8289935  90.0263378
  78.1323052 152.2810192  90.1136457  69.1097961 158.1741780  94.1965268
  69.7497341 158.0330539  93.4988231  68.2775492 157.8876294  93.8203870
  73.4877075 156.1841803  98.1602740  72.8404990 156.8831753  98.0667216
  74.2578090 156.6177947  98.5278988  75.2353070 157.1517214  90.6642025
  75.7321769 156.3987176  90.3443095  74.4640051 157.1881530  90.0985234
  71.8188039 159.2934597  90.3913710  71.4485826 158.7405637  91.0794615
  72.3147131 158.6892730  89.8388710  77.6772065 154.1186807  92.8121384
  76.7635145 154.3491034  92.9803591  78.1065166 154.2025251  93.6635416
  67.2153372 156.7038587  96.6366816  67.2794699 157.5653418  96.2244213
  67.1520493 156.0912589  95.9039174  69.7991748 155.9948572  98.4726405
  70.3226150 156.2410869  99.2352714  69.5804081 156.8268607  98.0529542
  71.0044293 156.9362267  96.1576076  70.6641114 156.1370080  96.5596756
  70.2983299 157.2363978  95.5852909  71.6560765 154.0211580  94.6103399
  72.4786834 153.5472058  94.4882289  71.8998829 154.8002064  95.1102085
  70.2969000 157.0499838  84.9066300  71.0177362 157.4281091  84.4030017
  69.6734304 157.7688715  85.0101278  74.4400122 157.7544987  85.8424633
  74.6563737 158.6369625  85.5413461  73.9594190 157.3631201  85.1130275
  71.0395727 157.7033248  92.4676267  71.0257295 156.8074342  92.1308565
  71.7568155 157.7103912  93.1014553  72.8921857 158.1370589  94.5129394
  72.6339635 159.0587659  94.5113725  72.3606898 157.7401023  95.2029858
  70.4432623 156.5847629  87.7363837  70.5648534 155.6564275  87.9354724
  70.1534665 156.5986315  86.8242152  73.3123813 154.2702539  90.8730557
  73.3345510 154.3341872  89.9182536  73.7291872 153.4307048  91.0671063
  77.8230185 161.4744144  99.8546942  78.7240048 161.3350609  99.5630940
  77.8978160 161.6398599 100.7945119  72.1572991 158.8510998  98.7000128
  71.2876300 159.1444564  98.4282717  72.3932471 159.4351443  99.4207392
  74.8612024 155.0690615  96.2165549  75.3793968 155.8051642  95.8912037
  74.5067157 155.3754609  97.0512308  75.1124619 151.4890898  91.7366445
  75.3926372 150.8214087  92.3626872  75.8975226 151.6819993  91.2241109
  78.9833477 159.9108532  95.4838020  79.9350900 160.0106630  95.5050244
  78.8136927 159.1186800  95.9936105  77.0047856 156.9964115  95.6697421
  76.4097789 157.2769128  94.9743910  76.7197553 157.4858016  96.4414162
  81.6116043 159.9225695  94.6438603  81.0955092 159.1384152  94.4568532
  82.4955992 159.5944412  94.8085123  79.2726770 153.6666711  90.6034416
  79.0751591 153.3581799  91.4877748  79.8826476 154.3928349  90.7332346
  87.2798105 164.1930658  93.7386357  88.0101493 163.9315947  94.2994060
  86.6705050 163.4559380  93.7788425  85.3613402 162.3338521  94.3360808
  84.6346565 162.1994486  93.7277300  84.9460689 162.6415350  95.1417526
  73.1009868 154.4697571  86.7306651  72.2910597 154.1244656  87.1061897
  73.7894285 154.1605114  87.3194262  75.0300417 153.5475617  88.3530947
  75.5831455 153.9671071  89.0120970  75.2670503 152.6211366  88.3953903
  70.2546587 156.7847616  80.7174388  71.1165751 157.1102514  80.9770206
  70.4396932 155.9979112  80.2047454  78.4079224 155.6576143  87.8609611
  77.8277893 156.3160947  87.4787664  78.1415157 154.8353487  87.4497029
  76.8582790 155.0581200  90.0630932  77.3582569 155.1697735  89.2545251
  77.5018398 154.7542253  90.7031740  77.1904102 157.8176233  86.9165960
  76.3029957 158.1025884  86.6986154  77.6058091 157.6569996  86.0693237
  80.5418638 157.8422754  90.6320299  81.3179028 158.3319206  90.9044916
  79.8166772 158.2680808  91.0892168  82.9791197 158.5550373  91.6894240
  83.5735687 158.3146109  90.9787548  83.0517780 157.8357504  92.3167776
  80.9749932 159.1220501  87.9566369  80.7186866 158.7217136  88.7874577
  80.3502800 159.8364295  87.8316509  85.2862269 161.8616574  90.4637661
  84.7261827 161.9309763  91.2369223  84.6805773 161.6857559  89.7437157
  71.2076030 154.0243659  84.0054097  71.1954700 154.9685499  84.1622368
  72.0999452 153.8413805  83.7113559  75.0228150 150.6186436  88.2600034
  74.2560546 150.0644923  88.4056717  75.4338855 150.6908305  89.1214186
  67.0269911 156.9071232 102.3505215  67.8901372 156.5508036 102.5608540
  66.4535322 156.5685126 103.0380620   5.1117949  30.5726556  77.8599110
   5.8443121  30.0025773  78.0936939   4.3557304  30.1848157  78.3005615
   2.6343369  24.2848130  82.3193718   2.3026694  25.1543541  82.0954933
   2.0388983  23.9684414  82.9987749   2.5272032  29.0043217  79.3987068
   1.6188910  28.9358625  79.1045829   2.4759628  29.4815161  80.2268894
   4.3933679  27.2059655  81.1764942   3.7508059  27.4992188  80.5304737
   3.8888607  27.0912575  81.9818139   2.0473843  30.9522828  71.8650802
   2.9591699  31.1850215  71.6898499   1.5383490  31.5359872  71.3025880
   4.5332657  36.8703084  76.6108747   3.8483695  37.2501986  76.0605780
   4.6176506  37.4798411  77.3440695   1.7883588  34.5163043  83.2104090
   2.0000484  35.1594803  82.5338471   1.7413337  33.6825360  82.7426020
   2.9029416  37.3934999  81.3826448   3.7246860  36.9915186  81.1009129
   2.8991819  37.2903233  82.3342563  10.9935409  33.7373747  77.7311419
  10.2399118  33.1681145  77.5755424  11.1282951  33.7036412  78.6782054
   4.6711058  34.8758677  72.3790641   3.8940501  34.5369837  71.9345803
   5.3502539  34.8811300  71.7045606   2.9102365  34.3492659  79.0357248
   2.2526039  35.0391920  79.1237377   3.7142764  34.7389090  79.3791235
   1.7207824  32.7037031  77.0861190   2.2339705  33.3367023  77.5882900
   2.3709047  32.1038227  76.7204550   2.4869620  37.6843033  75.2140333
   2.0331947  36.8433943  75.2705523   1.8563586  38.3204431  75.5515113
   1.4302539  28.6135019  76.4441000   0.6925296  28.1012405  76.7751243
   1.6829313  28.1735400  75.6324277   0.9302559  39.5219529  76.1490151
   1.2225533  40.0824586  75.4302517   1.4401180  39.8148090  76.9043310
   5.0699555  33.8902384  74.8413562   4.9317453  34.0803980  73.9134752
   4.7135774  34.6521767  75.2981614   5.0968934  35.9578911  79.8524834
   5.5305441  35.8654200  80.7007888   5.8100515  35.9336411  79.2144850
   5.9584484  36.0002612  82.3857719   6.1520374  36.9048422  82.6316994
   5.8585102  35.5410031  83.2196304   1.0199593  36.1509354  87.9598600
   0.8685099  35.9219906  87.0428684   1.0104272  37.1079956  87.9729945
   1.0737668  34.4729568  68.3769301   0.4566838  33.7476397  68.2802354
   0.6054156  35.2338929  68.0336376   2.7291799  39.1828477  86.0375082
   2.6704346  38.4987697  85.3705665   3.1311318  39.9247467  85.5855708
   2.7309207  37.1468061  84.2689062   1.8435985  36.8093983  84.3915460
   3.3007758  36.4151092  84.5057827   7.2126547  32.5576278  79.0305623
   7.2016423  33.4400994  78.6599556   6.3443927  32.2047829  78.8360160
   3.8299122  31.4524919  75.4975789   4.2959574  32.2852911  75.4236092
   4.2806622  30.9869901  76.2021048   1.8975353  37.7968740  72.4961941
   2.1735197  37.6825335  73.4055815   1.0279852  37.3986225  72.4574114
   1.8015785  23.8205506  79.5366691   0.8878864  24.0509733  79.7048897
   2.2308886  23.9043950  80.3880723   1.5722243  32.0095398  82.0366585
   0.9193693  32.2571305  81.3819037   1.9502623  31.1959536  81.7029062
   1.2143473  38.8843394  88.6138892   1.7583377  39.4973352  88.1193847
   0.6330318  39.4422972  89.1305905   1.5635895  39.8073132  81.3733470
   0.6166230  39.6878483  81.3011797   1.9118668  38.9195630  81.4559731
   2.1716450  40.4254407  78.6602695   3.0962997  40.2197268  78.5227146
   2.0031753  40.1770808  79.5692036   1.9611766  40.9440075  74.0164786
   2.1348644  40.3786497  73.2638639   2.4540657  41.7440969  73.8344276
   7.8151157  33.7076498  75.6355086   8.2582303  32.9583823  75.2374209
   6.9377667  33.6986634  75.2528818   2.9486938  40.2606839  71.1161685
   3.6437843  40.8813532  71.3348999   3.2910089  39.4102190  71.3914062
   4.8478362  37.7106544  72.6449015   5.3729686  38.0493817  71.9198335
   4.7600714  36.7753560  72.4612150   4.5372268  38.3439448  87.9500213
   3.7467811  38.3263587  87.4104713   4.3005622  38.8827742  88.7049250
   4.6570143  35.1931915  85.2632942   4.7068148  35.0281922  86.2048465
   4.5484066  34.3259174  84.8730823   1.9473905  31.1762843  86.5792249
   2.8483768  31.0369307  86.2876246   2.0221880  31.3417297  87.5190426
   6.1588340  37.6128856  85.5074963   5.8673148  37.9758837  86.3438424
   5.5460471  36.8995864  85.3288295   7.3584022  35.1781736  78.0277534
   8.1930913  35.6171540  78.1915094   7.4943151  34.7020389  77.2085779
   4.4075528  32.7361471  83.9755021   4.8829649  32.9289117  83.1673873
   3.4841093  32.7920656  83.7298405   3.1077197  29.6127231  82.2083327
   4.0594620  29.7125328  82.2295551   2.9380647  28.8205499  82.7181411
   1.1291576  26.6982814  82.3942728   0.5341508  26.9787827  81.6989217
   0.8441273  27.1876715  83.1659469   2.8887083  39.9671611  68.1149308
   2.8100715  39.6331475  69.0085066   3.7096750  40.4593379  68.1140780
   5.5865275  32.8333350  81.3225627   5.5541595  31.8949351  81.5085310
   6.1965898  32.9117387  80.5891451   5.7359763  29.6244394  81.3683910
   5.2198812  28.8402850  81.1813839   6.6199712  29.2963110  81.5330429
   3.3970490  23.3685409  77.3279722   3.1995311  23.0600498  78.2123054
   4.0070196  24.0947048  77.4577652  11.4041824  33.8949357  80.4631663
  12.1345213  33.6334645  81.0239367  10.7948770  33.1578079  80.5033731
   9.4857122  32.0357220  81.0606115   8.7590285  31.9013185  80.4522606
   9.0704408  32.3434048  81.8662833   2.5322944  25.3594841  74.5854918
   1.9521613  26.0179645  74.2032970   2.2658876  24.5372186  74.1742336
   0.9826510  24.7599899  76.7876238   1.4826288  24.8716434  75.9790557
   1.6262118  24.4560952  77.4277047   1.3147822  27.5194932  73.6411266
   0.4273677  27.8044582  73.4231461   1.7301811  27.3588695  72.7938543
   4.6662358  27.5441453  77.3565606   5.4422748  28.0337905  77.6290222
   3.9410492  27.9699507  77.8137475   7.1034916  28.2569072  78.4139546
   7.6979407  28.0164808  77.7032854   7.1761500  27.5376203  79.0413083
   1.2888845  33.0349468  73.8561556   1.2324047  33.4918019  73.0169189
   1.8417188  32.2740152  73.6784399   5.0993651  28.8239200  74.6811676
   4.8430586  28.4235835  75.5119884   4.4746519  29.5382994  74.5561815
   9.4105989  31.5635273  77.1882967   8.8505547  31.6328462  77.9614529
   8.8049493  31.3876258  76.4682464   2.3677733  37.7222136  69.7857746
   3.2023336  37.2903334  69.6035221   2.2062075  37.5504149  70.7134641
   2.0223625  34.2254249  71.1514086   1.9672429  34.0598520  70.2102530
   1.3969680  34.9330282  71.3076275  10.9962008  48.2391787  79.8812923
  11.6340418  48.1198534  79.1776263  10.8782851  49.1872631  79.9400875
   7.8051714  48.1919215  79.8174448   7.4670225  48.0760280  78.9294983
   8.6741482  47.7910380  79.7975454   3.6638530  50.0454691  75.8071339
   3.1003395  49.9544628  75.0387627   3.5490925  49.2254596  76.2873831
   8.2871497  49.3454067  85.7760653   8.2760138  48.9506865  84.9041157
   8.4492136  48.6120139  86.3694425   1.2102962  51.5405883  78.6455559
   2.0024253  51.1996708  78.2301859   1.4499612  51.6500858  79.5657713
   9.2438088  53.7125659  71.1185804   8.5926068  54.2979739  70.7319817
  10.0382451  54.2431854  71.1780841   3.1693715  50.8014796  71.5172938
   3.9424591  50.2543783  71.3785814   3.5219114  51.6659046  71.7287399
   5.0078758  52.1291178  84.7239837   4.7168624  53.0336809  84.6086504
   5.6435742  52.1707706  85.4383907   5.9334965  49.5068027  81.3141197
   6.5298537  49.2824049  80.5998160   5.9909936  48.7652772  81.9166645
   5.5059993  46.9607462  69.1491388   5.7585514  46.4388984  68.3874851
   4.5684552  46.7973608  69.2518072  10.5503276  45.9643241  76.9566131
  11.3366365  45.5462664  76.6056548  10.8141980  46.8689333  77.1247780
  10.7213353  51.4016091  71.6554788  10.0859186  51.4750718  72.3675693
  10.3910760  51.9909690  70.9773867  15.9511703  45.9018474  77.8599110
  16.6836875  45.3317691  78.0936939  15.1951059  45.5140074  78.3005615
   5.2256282  48.8635568  71.3515763   5.1092540  48.1880472  72.0196847
   5.3358542  48.3767942  70.5347916   7.5687823  48.3245715  75.0562452
   7.2046030  47.7976336  75.7675374   8.4254939  47.9344184  74.8828938
  13.4737124  39.6140048  82.3193718  13.1420448  40.4835459  82.0954933
  12.8782737  39.2976332  82.9987749   7.2093310  43.3535615  70.0523801
   7.3767712  44.2215851  70.4194272   7.0190479  43.5162897  69.1285090
   9.9668643  51.8152594  81.7189631   9.6669366  52.7177633  81.6105438
   9.6219703  51.5484777  82.5710784   3.4181125  48.2666391  77.7526335
   2.4931621  48.1342605  77.9604027   3.6665538  49.0460610  78.2496278
  13.3665787  44.3335134  79.3987068  12.4582664  44.2650543  79.1045829
  13.3153383  44.8107079  80.2268894   7.1882531  45.8093273  71.0370467
   7.0682156  46.2550323  71.8755948   6.4935119  46.1578590  70.4784006
   4.9489423  58.5796914  74.6860599   4.8713453  59.5304739  74.7649079
   4.3451067  58.2342787  75.3435525   7.4406653  45.7524780  87.3421966
   6.6639987  46.3118700  87.3324830   8.0797216  46.2381563  87.8636836
  15.2327433  42.5351573  81.1764942  14.5901814  42.8284106  80.5304737
  14.7282362  42.4204493  81.9818139  12.8867597  46.2814746  71.8650802
  13.7985453  46.5142133  71.6898499  12.3777244  46.8651790  71.3025880
   5.6953025  48.5610233  86.9039933   6.4367709  49.0995277  86.6274756
   4.9890010  49.1876522  87.0611484  11.1708365  50.7039374  85.5012094
  11.5791721  50.2621784  84.7566726  10.4485626  50.1292001  85.7546287
   7.5239435  45.6411980  82.8745651   8.3700630  46.0651394  83.0180300
   7.4638072  44.9845605  83.5684214  11.4937179  51.2640564  79.2564383
  10.8646042  51.4286278  78.5540451  11.1062841  51.6782174  80.0275347
  15.3726411  52.1995002  76.6108747  14.6877449  52.5793903  76.0605780
  15.4570261  52.8090329  77.3440695  10.6738880  43.3016349  84.5326825
  10.4299812  44.0558409  83.9961100  10.9498811  43.6801696  85.3674072
  12.6277343  49.8454961  83.2104090  12.8394238  50.4886721  82.5338471
  12.5807091  49.0117278  82.7426020  10.2303572  42.4572782  80.1140662
   9.3688051  42.7554035  80.4057400  10.2566006  42.6743181  79.1821695
   7.0465141  51.0014972  76.5214468   7.5103487  51.2802675  75.7319091
   6.7821939  50.0998417  76.3387559   3.9389222  50.5486454  79.4594231
   4.5090579  50.9773722  78.8211716   4.5297334  50.2669039  80.1578417
   5.9834027  47.1238125  73.3304033   6.6858071  47.5759168  73.7977960
   5.6514656  46.4821944  73.9583926   4.4314389  45.7149881  87.7055243
   3.8013049  46.3966162  87.9390639   4.3250477  45.6032963  86.7608381
  13.7423171  52.7226917  81.3826448  14.5640614  52.3207104  81.1009129
  13.7385574  52.6195151  82.3342563   1.6774107  45.7466257  75.5904643
   0.8805270  45.8584951  76.1088139   1.4499699  46.0852909  74.7245534
   7.5079774  52.2710960  83.5387158   7.5724207  52.7331367  84.3745330
   6.7990698  51.6408325  83.6669468  21.8329164  49.0665665  77.7311419
  21.0792872  48.4973063  77.5755424  21.9676705  49.0328329  78.6782054
   7.2227792  53.9379067  73.4066138   7.0873467  54.7830603  73.8350986
   7.7637604  54.1398345  72.6432072   3.7095131  40.0170647  90.0680494
   3.3162077  39.4636846  90.7428138   4.5261272  40.3281226  90.4587011
   0.6757189  51.4554505  73.9794064   1.1881710  52.2497756  74.1299628
   1.3279902  50.7580796  73.9127665   2.4852074  54.5720262  76.0616817
   2.6618702  55.4938226  75.8737801   3.2808907  54.2578681  76.4911196
   6.6263092  41.4328526  87.6600750   7.3672806  42.0335679  87.5805213
   6.8581015  40.6906164  87.1018793   1.7704430  46.6184893  85.9378980
   1.6557946  45.7170151  86.2386079   0.9148948  46.8648590  85.5863796
   8.8496268  54.5602634  87.5366481   8.4060122  53.7739012  87.2187385
   9.5113482  54.7481784  86.8710371   3.6083389  56.0898435  82.0627159
   4.1590815  55.9615499  81.2904153   2.7694865  56.3893324  81.7122052
  10.9477506  54.8405434  85.5647882  10.9295982  55.6614315  85.0728151
  11.8697426  54.7159509  85.7898023   7.4050560  52.3549563  86.4071390
   7.9378897  51.5937851  86.1770698   6.8764642  52.0623215  87.1495545
  10.5720255  37.4609629  81.9365032  10.2284525  38.3511271  81.8604142
  10.9399218  37.2711287  81.0734617  10.5370538  47.4518240  70.4437467
  10.0217162  48.2222845  70.6825854  10.2647847  46.7783376  71.0670528
   8.1217649  42.2967941  75.5022705   7.2659246  41.9074791  75.3228344
   8.5344601  42.3759902  74.6422491   9.6516796  39.8314284  79.9014265
   9.1481591  39.7944419  79.0882070   9.9447403  40.7407027  79.9610922
   5.8959682  39.9153014  78.9080447   6.7612678  39.7195823  78.5486336
   5.9637191  39.6863366  79.8349804  15.5104812  50.2050595  72.3790641
  14.7334255  49.8661754  71.9345803  16.1896293  50.2103218  71.7045606
  10.3256841  45.3245332  72.2697248  10.0206977  45.6391482  73.1207391
  11.2787283  45.4026752  72.3124581   8.7703273  51.4835556  73.9190202
   8.2424635  50.7488315  73.6063440   8.2690776  52.2610232  73.6730171
  13.7496119  49.6784576  79.0357248  13.0919794  50.3683838  79.1237377
  14.5536518  50.0681008  79.3791235   3.5022001  42.1455222  76.2796814
   4.0765753  41.9230403  75.5470007   4.0892983  42.2143916  77.0325415
  12.5601578  48.0328949  77.0861190  13.0733460  48.6658941  77.5882900
  13.2102802  47.4330144  76.7204550   3.8291588  44.1759683  70.2992699
   2.9928900  44.5134370  70.6201974   3.6896358  44.0408663  69.3619836
   5.8044668  39.0196471  75.0071883   5.1509081  38.7045488  74.3828498
   5.7625143  38.3972211  75.7331706   6.9155873  49.3015766  66.9225175
   6.0082935  49.0705019  67.1216324   7.4126905  48.5053385  67.1099157
   9.8223952  58.0113273  69.8421861   9.1485651  58.3144970  70.4506819
  10.2089774  58.8142353  69.4927318   9.0382409  45.5078404  79.3319531
   8.1204970  45.7293351  79.1741219   9.4542552  45.5824715  78.4731238
   9.8217457  46.9069820  74.4622211  10.5689276  47.4191217  74.1529333
  10.0909046  46.5853873  75.3226605   8.0944107  49.4028361  71.4449165
   7.1855326  49.1187394  71.5421635   8.1239191  49.8227439  70.5852472
  13.3263374  53.0134950  75.2140333  12.8725701  52.1725860  75.2705523
  12.6957341  53.6496349  75.5515113  12.2696294  43.9426936  76.4441000
  11.5319051  43.4304323  76.7751243  12.5223067  43.5027318  75.6324277
  11.7696313  54.8511447  76.1490151  12.0619288  55.4116504  75.4302517
  12.2794934  55.1440008  76.9043310  12.3707921  36.7203188  77.0382770
  12.6766798  35.8600552  76.7508685  13.0960526  37.3120809  76.8381763
   6.6429001  47.0156981  77.5458961   6.6977611  46.0630818  77.4701437
   5.8320203  47.1716421  78.0300259   7.7920195  50.9437104  68.7837244
   7.3539625  50.2272963  68.3242881   8.5330635  51.1713219  68.2222335
   4.5821361  45.6334041  75.3049340   3.7689226  45.9328212  75.7114532
   5.0780355  45.2389730  76.0223822   6.7329939  55.6291798  77.2383604
   6.6906117  55.8552644  76.3092136   7.6492637  55.3955173  77.3869405
  10.1795572  46.0975866  84.1364233  10.5344960  46.3247339  84.9958699
  10.8267704  46.4294242  83.5141489  15.9093309  49.2194302  74.8413562
  15.7711208  49.4095898  73.9134752  15.5529528  49.9813684  75.2981614
   4.0735436  43.2052397  80.9210574   4.7134815  43.0641156  80.2233538
   3.2412966  42.9186910  80.5449176  15.9362689  51.2870829  79.8524834
  16.3699196  51.1946118  80.7007888  16.6494270  51.2628329  79.2144850
   4.8495739  52.5054827  77.0345567   5.6436338  52.0105147  76.8328142
   4.1387432  51.9772690  76.6713273   9.6690584  54.8872923  81.3857935
   9.7227606  55.4563859  82.1535650   8.8005365  55.0574808  81.0211972
   1.0764052  43.1752722  75.6983561   1.3370869  44.0898055  75.5892722
   1.8981224  42.7077164  75.8480174   2.5488977  44.5890479  82.8682386
   3.2212031  44.3807841  82.2195035   1.7218764  44.3912565  82.4287618
  16.7978239  51.3294529  82.3857719  16.9914129  52.2340340  82.6316994
  16.6978857  50.8701948  83.2196304   8.4514549  41.2152420  84.8848047
   7.8042464  41.9142369  84.7912523   9.2215565  41.6488564  85.2524295
  11.8593347  51.4801272  87.9598600  11.7078854  51.2511824  87.0428684
  11.8498027  52.4371873  87.9729945   8.6278684  49.0533185  82.9444866
   9.5570744  49.2044344  82.7713834   8.2069714  49.1417205  82.0893513
   7.4267015  53.0783849  80.7143404   7.2878101  52.7102633  81.5869342
   6.6381612  53.5931489  80.5427362   8.0215167  58.1792946  72.0568941
   8.1966923  57.7080989  72.8714563   7.3347955  58.8058712  72.2850201
   8.9772231  52.4565452  78.1032242   8.6422063  52.4166222  78.9989892
   8.4776176  51.7910168  77.6302652   2.9516475  47.8633082  83.6284823
   2.8136272  47.1313321  84.2296362   3.8621398  47.7741982  83.3469011
  11.9131422  49.8021486  68.3769301  11.2960593  49.0768314  68.2802354
  11.4447911  50.5630846  68.0336376   5.5798775  47.5753041  83.1168503
   6.2898394  46.9346233  83.0755121   5.5368083  47.8265936  84.0394683
  13.5685554  54.5120394  86.0375082  13.5098100  53.8279615  85.3705665
  13.9705072  55.2539384  85.5855708   4.2927709  44.5618259  84.9364142
   3.7565066  44.1108997  85.5885738   3.7044418  44.6964168  84.1934606
   2.5876253  61.3282308  78.8308801   2.8272851  61.9600832  79.5087819
   1.7445449  60.9770348  79.1174160   3.7029968  44.0206910  67.4990606
   2.8259434  43.8995711  67.1352852   4.1787721  43.2292989  67.2469494
  13.5702961  52.4759978  84.2689062  12.6829740  52.1385900  84.3915460
  14.1401512  51.7443010  84.5057827   7.1004115  57.1361431  81.2350305
   7.0274286  57.9416402  81.7469609   6.6581508  57.3353397  80.4098326
   6.8893894  56.3733201  74.7453126   6.1061416  56.9154881  74.8391351
   7.5886639  56.8907180  75.1447367  10.1990544  42.1827830  77.3887332
  10.6959244  41.4297793  77.0688402   9.4277526  42.2192147  76.8230541
  18.0520302  47.8868196  79.0305623  18.0410178  48.7692911  78.6599556
  17.1837681  47.5339747  78.8360160   9.5602798  57.0348265  83.3908463
  10.2730770  57.6695730  83.3184365   9.0692827  57.1312131  82.5748465
  11.2820325  50.9399517  74.9625755  10.3476604  51.0600980  74.7930459
  11.4596993  50.0371984  74.6985765   6.7825513  44.3245213  77.1159016
   6.4123301  43.7716254  77.8039922   7.2784605  43.7203347  76.5634016
  14.6692876  46.7816837  75.4975789  15.1353329  47.6144828  75.4236092
  15.1200377  46.3161818  76.2021048   4.6114712  54.7842708  84.2114034
   5.3124171  55.4179191  84.3643428   4.1409827  55.1257440  83.4509673
  12.7369107  53.1260658  72.4961941  13.0128951  53.0117253  73.4055815
  11.8673606  52.7278143  72.4574114  12.6409539  39.1497424  79.5366691
  11.7272619  39.3801651  79.7048897  13.0702641  39.2335868  80.3880723
  12.4115998  47.3387316  82.0366585  11.7587448  47.5863223  81.3819037
  12.7896377  46.5251454  81.7029062   9.3723171  57.3747009  76.1394755
   9.5545566  56.5568665  76.6022507  10.1956157  57.5914701  75.7019645
   9.7065337  56.3015194  73.4009803  10.2353103  55.7907649  72.7879965
   9.9693557  55.9857724  74.2655336   8.4603571  48.0807127  88.5232622
   7.7844208  47.9801256  89.1934997   9.2831204  47.9246341  88.9868619
   3.0621085  57.3530311  76.1607579   2.3931460  57.8376438  75.6771619
   2.9233955  57.5999531  77.0750958   7.2026353  59.3874054  82.7590238
   7.7544661  59.5505676  83.5239323   7.5432547  59.9778492  82.0870262
   2.1790847  41.7349204  83.3612122   2.2432173  42.5964035  82.9489520
   2.1157967  41.1223206  82.6284481   1.6543119  43.8072337  87.0085157
   2.2815158  43.4249414  87.6222681   0.7971038  43.5886539  87.3740849
  12.0537228  54.2135312  88.6138892  12.5977132  54.8265270  88.1193847
  11.4724073  54.7714890  89.1305905  10.3394741  57.3356030  79.7453920
  10.2145880  56.5345770  79.2364865  10.9973832  57.8302223  79.2567890
   1.9602909  43.6904762  78.9231060   1.2389495  44.3040730  78.7838533
   2.7496165  44.2262527  78.8447706  12.4029649  55.1365050  81.3733470
  11.4559985  55.0170401  81.3011797  12.7512422  54.2487548  81.4559731
   4.7629222  41.0259189  85.1971712   5.2863624  41.2721485  85.9598021
   4.5441556  41.8579224  84.7774849   9.4076082  54.9317766  77.5737822
   9.2601045  54.0034473  77.7545392  10.2329576  54.9537857  77.0894897
   3.2738327  43.5835833  73.4318314   3.6134399  44.1121754  72.7096923
   3.7210447  43.9216239  74.2076881  13.0110204  55.7546325  78.6602695
  13.9356752  55.5489186  78.5227146  12.8425508  55.5062726  79.5692036
   5.9681768  41.9672884  82.8821382   5.6278588  41.1680697  83.2842062
   5.2620774  42.2674595  82.3098215   6.6198239  39.0522196  81.3348705
   7.4424309  38.5782674  81.2127596   6.8636303  39.8312680  81.8347392
   5.2606474  42.0810455  71.6311607   5.9814836  42.4591708  71.1275324
   4.6371778  42.7999332  71.7346585   9.4037597  42.7855604  72.5669939
   9.6201211  43.6680242  72.2658767   8.9231664  42.3941817  71.8375581
   4.1436818  45.7441317  79.1440684   3.9981399  46.0581620  80.0364965
   3.6662022  46.3626217  78.5911583   6.0033201  42.7343865  79.1921573
   5.9894770  41.8384958  78.8553871   6.7205629  42.7414529  79.8259860
   7.8559332  43.1681205  81.2374701   7.5977110  44.0898276  81.2359031
   7.3244372  42.7711640  81.9275165  12.8005520  56.2731992  74.0164786
  12.9742398  55.7078415  73.2638639  13.2934412  57.0732887  73.8344276
   5.4070097  41.6158245  74.4609144   5.5286008  40.6874891  74.6600031
   5.1172139  41.6296931  73.5487459   8.2761287  39.3013156  77.5975863
   8.2982984  39.3652489  76.6427843   8.6929346  38.4617664  77.7916370
  18.6544912  49.0368415  75.6355086  19.0976058  48.2875740  75.2374209
  17.7771422  49.0278552  75.2528818  13.7880693  55.5898757  71.1161685
  14.4831598  56.2105449  71.3348999  14.1303843  54.7394108  71.3914062
  15.6872116  53.0398462  72.6449015  16.2123440  53.3785735  71.9198335
  15.5994469  52.1045477  72.4612150   7.3492165  56.9532536  84.7738892
   7.6579291  56.7081683  85.6461592   8.1467647  57.1579174  84.2857762
   7.3712777  59.1070445  77.0044269   6.9317767  58.6146824  77.6977125
   8.1220894  58.5643413  76.7636344   4.8186649  54.6508455  79.0766570
   4.1966658  53.9879160  78.7768798   5.4891516  54.6769586  78.3940218
   4.8911176  43.1290243  88.6699076   4.9399332  44.0052365  88.2876846
   5.4333691  42.5867636  88.0970719  15.3766022  53.6731366  87.9500213
  14.5861566  53.6555505  87.4104713  15.1399377  54.2119660  88.7049250
  15.4963897  50.5223832  85.2632942  15.5461902  50.3573840  86.2048465
  15.3877821  49.6551091  84.8730823   4.3800156  53.2012378  72.5525031
   4.5288276  53.8847842  71.8991703   5.1866599  53.1817468  73.0674486
  12.7867660  46.5054760  86.5792249  13.6877522  46.3661225  86.2876246
  12.8615634  46.6709215  87.5190426   7.1210465  43.8821615  85.4245435
   6.2513774  44.1755181  85.1528023   7.3569945  44.4662060  86.1452699
  16.9982094  52.9420774  85.5074963  16.7066902  53.3050754  86.3438424
  16.3854225  52.2287782  85.3288295  18.1977776  50.5073653  78.0277534
  19.0324668  50.9463458  78.1915094  18.3336905  50.0312307  77.2085779
  15.2469282  48.0653388  83.9755021  15.7223404  48.2581035  83.1673873
  14.3234848  48.1212574  83.7298405   2.1352789  49.2277556  73.5586100
   1.8898831  48.3239886  73.7566310   2.3048703  49.2294706  72.6165578
   9.8249499  40.1001232  82.9410855  10.3431443  40.8362259  82.6157344
   9.4704632  40.4065225  83.7757614   1.4048436  44.9605913  71.0572261
   0.7117681  45.0350268  70.4012297   1.1600188  44.1966257  71.5793778
  10.0762093  36.5201514  78.4611752  10.3563847  35.8524703  79.0872178
  10.8612700  36.7130610  77.9486416   7.8795561  55.6960508  70.0236778
   7.3069528  56.3150695  69.5707250   8.4528355  56.2459870  70.5576700
  13.9470951  44.9419148  82.2083327  14.8988374  45.0417246  82.2295551
  13.7774402  44.1497417  82.7181411  11.9685331  42.0274732  82.3942728
  11.3735263  42.3079744  81.6989217  11.6835027  42.5168633  83.1659469
  11.0992821  55.9797658  71.1545360  12.0323494  55.9143220  71.3578236
  11.0116034  56.8153925  70.6959893  13.7280838  55.2963529  68.1149308
  13.6494469  54.9623392  69.0085066  14.5490505  55.7885297  68.1140780
  16.4259029  48.1625268  81.3225627  16.3935349  47.2241269  81.5085310
  17.0359653  48.2409305  80.5891451   8.2642360  47.0321321  67.3652831
   9.2101465  46.9027529  67.4341249   7.8856605  46.2935983  67.8422259
  16.5753518  44.9536312  81.3683910  16.0592566  44.1694768  81.1813839
  17.4593466  44.6255028  81.5330429  14.2364244  38.6977327  77.3279722
  14.0389066  38.3892415  78.2123054  14.8463950  39.4238966  77.4577652
  22.2435579  49.2241275  80.4631663  22.9738967  48.9626563  81.0239367
  21.6342524  48.4869997  80.5033731  20.3250876  47.3649138  81.0606115
  19.5984040  47.2305102  80.4522606  19.9098163  47.6725966  81.8662833
   8.1481052  51.0839067  88.8253488   9.0684062  51.2617666  89.0193534
   8.1130635  50.1395113  88.6733187   6.4485277  44.9571297  67.3007716
   5.5416732  44.6604410  67.3770429   6.7261258  44.6601116  66.4342002
   1.1443125  48.9940102  81.4676269   1.3629135  49.9257210  81.4864303
   1.5568899  48.6348076  82.2531073   8.0647343  39.5008187  73.4551957
   7.2548071  39.1555272  73.8307203   8.7531760  39.1915731  74.0439569
   9.9937891  38.5786234  75.0776254  10.5468930  38.9981687  75.7366277
  10.2307977  37.6521982  75.1199210   6.0170990  44.5673308  90.8579018
   5.9167717  45.5167665  90.7891109   5.7992532  44.2391547  89.9855088
   5.2184062  41.8158233  67.4419695   6.0803226  42.1413131  67.7015512
   5.4034406  41.0289729  66.9292761  13.3716698  40.6886759  74.5854918
  12.7915367  41.3471563  74.2032970  13.1052631  39.8664104  74.1742336
  11.8220265  40.0891817  76.7876238  12.3220043  40.2008351  75.9790557
  12.4655872  39.7852870  77.4277047   5.8802260  47.9970446  89.6744079
   5.3969342  48.7970807  89.8807968   5.9663199  48.0078391  88.7211523
   1.8075598  51.8874981  81.7112513   2.7618851  51.8558924  81.6442445
   1.6088121  51.4265605  82.5262739   2.3974980  50.4576097  84.2783311
   3.2167869  50.9520176  84.3018148   2.6711788  49.5408065  84.2500878
  12.1541576  42.8486850  73.6411266  11.2667431  43.1336500  73.4231461
  12.5695565  42.6880613  72.7938543  15.5056112  42.8733371  77.3565606
  16.2816502  43.3629823  77.6290222  14.7804246  43.2991425  77.8137475
  17.9428671  43.5860990  78.4139546  18.5373162  43.3456726  77.7032854
  18.0155255  42.8668120  79.0413083  11.2984790  52.6131524  67.7359286
  12.0020640  52.8181527  68.3516942  10.5747438  53.1808286  68.0008370
  12.1282600  48.3641385  73.8561556  12.0717801  48.8209937  73.0169189
  12.6810942  47.6032070  73.6784399  15.9387406  44.1531117  74.6811676
  15.6824340  43.7527753  75.5119884  15.3140274  44.8674911  74.5561815
  20.2499744  46.8927191  77.1882967  19.6899302  46.9620380  77.9614529
  19.6443247  46.7168175  76.4682464   3.3194953  58.3263918  78.9401154
   3.2027337  59.2709350  78.8379844   2.4987399  58.0237479  79.3286953
  13.2071487  53.0514053  69.7857746  14.0417091  52.6195252  69.6035221
  13.0455830  52.8796067  70.7134641  12.8617379  49.5546167  71.1514086
  12.8066183  49.3890438  70.2102530  12.2363434  50.2622200  71.3076275
  10.1763286  51.8595079  90.4767648  11.0454446  52.0335731  90.1154283
   9.6970038  52.6789495  90.3543378   6.1713505  39.0554276  70.7299404
   6.1592175  39.9996116  70.8867675   7.0636927  38.8724421  70.4358865
   4.3449467  58.9792180  82.1557082   5.2476713  59.0115790  82.4723577
   4.1186837  58.0492631  82.1703418   6.1003069  57.7323166  78.8167161
   5.1498700  57.7325028  78.7031533   6.4035555  56.9855901  78.3003195
   9.9865624  35.6497052  74.9845341   9.2198020  35.0955539  75.1302023
  10.3976329  35.7218921  75.8459493   1.9907385  41.9381848  89.0750522
   2.8538847  41.5818653  89.2853847   1.4172796  41.5995743  89.7625926
  21.8355762  63.5683705  79.8812923  22.4734172  63.4490452  79.1776263
  21.7176605  64.5164548  79.9400875  18.6445468  63.5211133  79.8174448
  18.3063980  63.4052197  78.9294983  19.5135237  63.1202298  79.7975454
  14.5032284  65.3746609  75.8071339  13.9397149  65.2836546  75.0387627
  14.3884679  64.5546513  76.2873831  19.1265251  64.6745984  85.7760653
  19.1153892  64.2798783  84.9041157  19.2885891  63.9412057  86.3694425
  12.0496716  66.8697801  78.6455559  12.8418008  66.5288625  78.2301859
  12.2893366  66.9792776  79.5657713  20.0831843  69.0417577  71.1185804
  19.4319823  69.6271657  70.7319817  20.8776206  69.5723772  71.1780841
  14.0087470  66.1306714  71.5172938  14.7818346  65.5835701  71.3785814
  14.3612869  66.9950963  71.7287399  15.8472513  67.4583096  84.7239837
  15.5562379  68.3628727  84.6086504  16.4829497  67.4999624  85.4383907
  16.7728719  64.8359945  81.3141197  17.3692292  64.6115967  80.5998160
  16.8303691  64.0944690  81.9166645  16.3453748  62.2899380  69.1491388
  16.5979268  61.7680901  68.3874851  15.4078307  62.1265525  69.2518072
  21.3897031  61.2935158  76.9566131  22.1760120  60.8754582  76.6056548
  21.6535735  62.1981251  77.1247780  21.5607108  66.7308009  71.6554788
  20.9252941  66.8042635  72.3675693  21.2304514  67.3201608  70.9773867
  26.7905458  61.2310392  77.8599110  27.5230630  60.6609608  78.0936939
  26.0344813  60.8431992  78.3005615  16.0650037  64.1927486  71.3515763
  15.9486295  63.5172389  72.0196847  16.1752296  63.7059860  70.5347916
  18.4081577  63.6537633  75.0562452  18.0439785  63.1268254  75.7675374
  19.2648693  63.2636102  74.8828938  24.3130878  54.9431966  82.3193718
  23.9814203  55.8127377  82.0954933  23.7176491  54.6268250  82.9987749
  18.0487064  58.6827533  70.0523801  18.2161467  59.5507769  70.4194272
  17.8584234  58.8454814  69.1285090  20.8062398  67.1444512  81.7189631
  20.5063121  68.0469550  81.6105438  20.4613457  66.8776695  82.5710784
  14.2574879  63.5958309  77.7526335  13.3325376  63.4634523  77.9604027
  14.5059292  64.3752528  78.2496278  24.2059541  59.6627052  79.3987068
  23.2976419  59.5942460  79.1045829  24.1547137  60.1398997  80.2268894
  18.0276285  61.1385190  71.0370467  17.9075911  61.5842241  71.8755948
  17.3328874  61.4870508  70.4784006  11.6183690  63.2391582  78.5870125
  11.7476071  63.4926061  79.5009536  10.9381141  63.8319290  78.2674780
  15.7883177  73.9088832  74.6860599  15.7107207  74.8596657  74.7649079
  15.1844821  73.5634705  75.3435525  18.2800407  61.0816697  87.3421966
  17.5033741  61.6410618  87.3324830  18.9190970  61.5673480  87.8636836
  26.0721188  57.8643490  81.1764942  25.4295568  58.1576023  80.5304737
  25.5676116  57.7496411  81.9818139  23.7261351  61.6106663  71.8650802
  24.6379208  61.8434050  71.6898499  23.2170999  62.1943708  71.3025880
  16.5346780  63.8902151  86.9039933  17.2761464  64.4287195  86.6274756
  15.8283765  64.5168440  87.0611484  22.0102119  66.0331291  85.5012094
  22.4185475  65.5913702  84.7566726  21.2879381  65.4583919  85.7546287
  18.3633189  60.9703898  82.8745651  19.2094384  61.3943312  83.0180300
  18.3031827  60.3137522  83.5684214  22.3330934  66.5932482  79.2564383
  21.7039796  66.7578196  78.5540451  21.9456596  67.0074091  80.0275347
  26.2120166  67.5286920  76.6108747  25.5271204  67.9085821  76.0605780
  26.2964015  68.1382246  77.3440695  21.5132635  58.6308266  84.5326825
  21.2693566  59.3850327  83.9961100  21.7892565  59.0093614  85.3674072
  23.4671097  65.1746879  83.2104090  23.6787993  65.8178639  82.5338471
  23.4200846  64.3409195  82.7426020  21.0697326  57.7864699  80.1140662
  20.2081805  58.0845953  80.4057400  21.0959761  58.0035098  79.1821695
  17.8858896  66.3306890  76.5214468  18.3497241  66.6094593  75.7319091
  17.6215694  65.4290335  76.3387559  14.7782977  65.8778372  79.4594231
  15.3484334  66.3065640  78.8211716  15.3691089  65.5960956  80.1578417
  16.8227782  62.4530042  73.3304033  17.5251825  62.9051086  73.7977960
  16.4908410  61.8113861  73.9583926  15.2708143  61.0441799  87.7055243
  14.6406804  61.7258080  87.9390639  15.1644231  60.9324881  86.7608381
  10.5653116  60.7113595  78.6321167   9.7752170  60.9671124  78.1561277
  11.0564363  61.5261933  78.7373207  24.5816925  68.0518834  81.3826448
  25.4034369  67.6499021  81.1009129  24.5779328  67.9487068  82.3342563
  12.5167861  61.0758174  75.5904643  11.7199024  61.1876869  76.1088139
  12.2893453  61.4144826  74.7245534  18.3473529  67.6002877  83.5387158
  18.4117961  68.0623285  84.3745330  17.6384453  66.9700242  83.6669468
   8.8490819  60.9644085  81.0636158   9.0998857  61.8491095  81.3293734
   9.3850367  60.7848687  80.2911249  32.6722918  64.3957583  77.7311419
  31.9186627  63.8264981  77.5755424  32.8070460  64.3620247  78.6782054
  18.0621546  69.2670985  73.4066138  17.9267221  70.1122521  73.8350986
  18.6031359  69.4690263  72.6432072  14.5488886  55.3462565  90.0680494
  14.1555832  54.7928763  90.7428138  15.3655026  55.6573143  90.4587011
  11.5150944  66.7846423  73.9794064  12.0275464  67.5789673  74.1299628
  12.1673657  66.0872713  73.9127665  13.3245828  69.9012179  76.0616817
  13.5012457  70.8230144  75.8737801  14.1202662  69.5870598  76.4911196
  17.4656847  56.7620444  87.6600750  18.2066560  57.3627597  87.5805213
  17.6974770  56.0198082  87.1018793  12.6098185  61.9476811  85.9378980
  12.4951700  61.0462068  86.2386079  11.7542703  62.1940508  85.5863796
  19.6890023  69.8894551  87.5366481  19.2453877  69.1030930  87.2187385
  20.3507236  70.0773702  86.8710371  14.4477144  71.4190353  82.0627159
  14.9984569  71.2907416  81.2904153  13.6088620  71.7185242  81.7122052
  21.7871261  70.1697351  85.5647882  21.7689736  70.9906232  85.0728151
  22.7091181  70.0451427  85.7898023  18.2444315  67.6841481  86.4071390
  18.7772652  66.9229769  86.1770698  17.7158396  67.3915133  87.1495545
  21.4114010  52.7901547  81.9365032  21.0678279  53.6803189  81.8604142
  21.7792973  52.6003204  81.0734617   9.4799861  65.1135077  74.7553634
  10.3175083  65.5232086  74.5387342   9.6578128  64.1734519  74.7253828
  21.3764293  62.7810158  70.4437467  20.8610916  63.5514763  70.6825854
  21.1041601  62.1075294  71.0670528  18.9611404  57.6259859  75.5022705
  18.1053000  57.2366709  75.3228344  19.3738355  57.7051820  74.6422491
  20.4910550  55.1606202  79.9014265  19.9875346  55.1236337  79.0882070
  20.7841157  56.0698945  79.9610922  16.7353436  55.2444932  78.9080447
  17.6006433  55.0487740  78.5486336  16.8030945  55.0155283  79.8349804
  26.3498567  65.5342513  72.3790641  25.5728010  65.1953672  71.9345803
  27.0290048  65.5395136  71.7045606  21.1650596  60.6537250  72.2697248
  20.8600731  60.9683399  73.1207391  22.1181038  60.7318670  72.3124581
  19.6097028  66.8127473  73.9190202  19.0818389  66.0780233  73.6063440
  19.1084530  67.5902150  73.6730171  24.5889874  65.0076494  79.0357248
  23.9313548  65.6975755  79.1237377  25.3930273  65.3972926  79.3791235
  14.3415755  57.4747140  76.2796814  14.9159507  57.2522321  75.5470007
  14.9286738  57.5435834  77.0325415  23.3995332  63.3620867  77.0861190
  23.9127214  63.9950858  77.5882900  24.0496556  62.7622062  76.7204550
  14.6685342  59.5051601  70.2992699  13.8322655  59.8426287  70.6201974
  14.5290112  59.3700580  69.3619836  16.6438423  54.3488389  75.0071883
  15.9902835  54.0337406  74.3828498  16.6018897  53.7264129  75.7331706
  17.7549628  64.6307684  66.9225175  16.8476690  64.3996937  67.1216324
  18.2520660  63.8345303  67.1099157  20.6617707  73.3405191  69.8421861
  19.9879405  73.6436888  70.4506819  21.0483529  74.1434271  69.4927318
  19.8776163  60.8370322  79.3319531  18.9598725  61.0585269  79.1741219
  20.2936307  60.9116633  78.4731238  20.6611211  62.2361738  74.4622211
  21.4083030  62.7483135  74.1529333  20.9302801  61.9145790  75.3226605
  18.9337861  64.7320278  71.4449165  18.0249081  64.4479311  71.5421635
  18.9632945  65.1519357  70.5852472  24.1657129  68.3426868  75.2140333
  23.7119456  67.5017778  75.2705523  23.5351095  68.9788266  75.5515113
  23.1090048  59.2718854  76.4441000  22.3712805  58.7596240  76.7751243
  23.3616822  58.8319236  75.6324277  22.6090068  70.1803365  76.1490151
  22.9013042  70.7408422  75.4302517  23.1188689  70.4731926  76.9043310
  23.2101676  52.0495106  77.0382770  23.5160552  51.1892469  76.7508685
  23.9354280  52.6412726  76.8381763   9.5026032  62.4525793  75.4264368
   9.3050431  61.8595153  74.7015434   8.9472696  62.1478003  76.1440306
  17.4822755  62.3448899  77.5458961  17.5371365  61.3922735  77.4701437
  16.6713957  62.5008338  78.0300259  18.6313949  66.2729022  68.7837244
  18.1933379  65.5564881  68.3242881  19.3724390  66.5005137  68.2222335
  15.4215115  60.9625959  75.3049340  14.6082981  61.2620129  75.7114532
  15.9174109  60.5681648  76.0223822  17.5723693  70.9583716  77.2383604
  17.5299872  71.1844562  76.3092136  18.4886392  70.7247090  77.3869405
  21.0189327  61.4267783  84.1364233  21.3738715  61.6539256  84.9958699
  21.6661458  61.7586160  83.5141489  26.7487064  64.5486219  74.8413562
  26.6104962  64.7387815  73.9134752  26.3923283  65.3105602  75.2981614
  14.9129190  58.5344314  80.9210574  15.5528569  58.3933073  80.2233538
  14.0806721  58.2478828  80.5449176  26.7756443  66.6162746  79.8524834
  27.2092950  66.5238035  80.7007888  27.4888024  66.5920247  79.2144850
  15.6889494  67.8346745  77.0345567  16.4830092  67.3397065  76.8328142
  14.9781186  67.3064608  76.6713273  20.5084338  70.2164840  81.3857935
  20.5621361  70.7855777  82.1535650  19.6399120  70.3866725  81.0211972
  11.9972257  61.9789827  73.1105320  11.0669845  61.9174282  73.3275282
  12.0929729  61.4565779  72.3141961  11.9157806  58.5044639  75.6983561
  12.1764624  59.4189973  75.5892722  12.7374979  58.0369082  75.8480174
  13.3882732  59.9182397  82.8682386  14.0605785  59.7099759  82.2195035
  12.5612518  59.7204483  82.4287618  27.6371993  66.6586447  82.3857719
  27.8307883  67.5632257  82.6316994  27.5372611  66.1993866  83.2196304
  19.2908304  56.5444337  84.8848047  18.6436219  57.2434287  84.7912523
  20.0609319  56.9780481  85.2524295  22.6987102  66.8093190  87.9598600
  22.5472608  66.5803741  87.0428684  22.6891781  67.7663791  87.9729945
  19.4672438  64.3825102  82.9444866  20.3964498  64.5336262  82.7713834
  19.0463468  64.4709123  82.0893513  18.2660770  68.4075767  80.7143404
  18.1271856  68.0394551  81.5869342  17.4775366  68.9223406  80.5427362
  18.8608922  73.5084863  72.0568941  19.0360678  73.0372906  72.8714563
  18.1741710  74.1350629  72.2850201  19.8165985  67.7857369  78.1032242
  19.4815818  67.7458139  78.9989892  19.3169931  67.1202085  77.6302652
  13.7910229  63.1924999  83.6284823  13.6530027  62.4605238  84.2296362
  14.7015152  63.1033900  83.3469011  22.7525177  65.1313404  68.3769301
  22.1354347  64.4060232  68.2802354  22.2841665  65.8922764  68.0336376
  16.4192530  62.9044959  83.1168503  17.1292148  62.2638151  83.0755121
  16.3761838  63.1557854  84.0394683  24.4079308  69.8412312  86.0375082
  24.3491855  69.1571532  85.3705665  24.8098827  70.5831302  85.5855708
  15.1321464  59.8910177  84.9364142  14.5958821  59.4400915  85.5885738
  14.5438172  60.0256086  84.1934606  13.4270007  76.6574226  78.8308801
  13.6666605  77.2892750  79.5087819  12.5839204  76.3062266  79.1174160
  14.5423723  59.3498828  67.4990606  13.6653189  59.2287629  67.1352852
  15.0181476  58.5584906  67.2469494  24.4096716  67.8051896  84.2689062
  23.5223494  67.4677818  84.3915460  24.9795267  67.0734927  84.5057827
   6.0625863  64.1375988  77.5932113   6.7496903  63.8237718  77.0053128
   5.9073991  65.0417352  77.3199364  10.8660585  59.0266184  82.0217137
  10.7818774  58.4191854  81.2867547  10.0443291  59.5175203  82.0226633
  17.9397869  72.4653348  81.2350305  17.8668040  73.2708320  81.7469609
  17.4975262  72.6645314  80.4098326  17.7287649  71.7025118  74.7453126
  16.9455171  72.2446799  74.8391351  18.4280394  72.2199098  75.1447367
  21.0384299  57.5119748  77.3887332  21.5352998  56.7589710  77.0688402
  20.2671280  57.5484065  76.8230541  28.8914056  63.2160113  79.0305623
  28.8803932  64.0984829  78.6599556  28.0231436  62.8631664  78.8360160
  20.3996553  72.3640182  83.3908463  21.1124525  72.9987647  83.3184365
  19.9086581  72.4604048  82.5748465  22.1214079  66.2691435  74.9625755
  21.1870358  66.3892898  74.7930459  22.2990748  65.3663902  74.6985765
  17.6219268  59.6537131  77.1159016  17.2517055  59.1008171  77.8039922
  18.1178360  59.0495264  76.5634016  25.5086631  62.1108754  75.4975789
  25.9747083  62.9436746  75.4236092  25.9594131  61.6453736  76.2021048
  15.4508466  70.1134626  84.2114034  16.1517926  70.7471109  84.3643428
  14.9803581  70.4549357  83.4509673  23.5762862  68.4552576  72.4961941
  23.8522706  68.3409170  73.4055815  22.7067361  68.0570061  72.4574114
  23.4803294  54.4789341  79.5366691  22.5666373  54.7093568  79.7048897
  23.9096395  54.5627785  80.3880723  23.2509752  62.6679233  82.0366585
  22.5981202  62.9155141  81.3819037  23.6290132  61.8543372  81.7029062
  20.2116926  72.7038927  76.1394755  20.3939320  71.8860583  76.6022507
  21.0349912  72.9206619  75.7019645  20.5459091  71.6307112  73.4009803
  21.0746858  71.1199566  72.7879965  20.8087311  71.3149642  74.2655336
  19.2997325  63.4099044  88.5232622  18.6237962  63.3093174  89.1934997
  20.1224959  63.2538258  88.9868619  11.0476184  69.6470981  81.1445137
  11.6329621  68.9014669  81.2773041  10.8501023  69.9574938  82.0281801
  13.9014839  72.6822228  76.1607579  13.2325215  73.1668356  75.6771619
  13.7627709  72.9291449  77.0750958   5.6393839  62.2176581  79.8649580
   5.6777938  61.6840172  80.6586698   5.1334132  61.6911787  79.2460557
  18.0420108  74.7165972  82.7590238  18.5938416  74.8797593  83.5239323
  18.3826301  75.3070410  82.0870262  13.0184601  57.0641122  83.3612122
  13.0825928  57.9255953  82.9489520  12.9551721  56.4515123  82.6284481
  12.4936874  59.1364254  87.0085157  13.1208913  58.7541332  87.6222681
  11.6364793  58.9178456  87.3740849  22.8930982  69.5427229  88.6138892
  23.4370886  70.1557188  88.1193847  22.3117827  70.1006808  89.1305905
   9.2702416  60.9440683  72.9403511   9.5655858  60.0351362  72.8870565
   8.3690452  60.9228423  72.6184514  21.1788495  72.6647947  79.7453920
  21.0539635  71.8637687  79.2364865  21.8367586  73.1594141  79.2567890
  12.7996663  59.0196680  78.9231060  12.0783249  59.6332648  78.7838533
  13.5889919  59.5554445  78.8447706  23.2423404  70.4656968  81.3733470
  22.2953739  70.3462319  81.3011797  23.5906177  69.5779466  81.4559731
  15.6022977  56.3551106  85.1971712  16.1257379  56.6013403  85.9598021
  15.3835310  57.1871141  84.7774849  10.9990258  58.6254781  73.0642837
  10.6702964  57.7452160  72.8817942  11.3529629  58.5702450  73.9519226
  20.2469837  70.2609684  77.5737822  20.0994799  69.3326391  77.7545392
  21.0723330  70.2829774  77.0894897  14.1132081  58.9127751  73.4318314
  14.4528154  59.4413672  72.7096923  14.5604202  59.2508157  74.2076881
  23.8503959  71.0838242  78.6602695  24.7750506  70.8781104  78.5227146
  23.6819262  70.8354644  79.5692036  16.8075522  57.2964802  82.8821382
  16.4672342  56.4972615  83.2842062  16.1014528  57.5966512  82.3098215
  17.4591994  54.3814114  81.3348705  18.2818063  53.9074592  81.2127596
  17.7030057  55.1604598  81.8347392  16.1000228  57.4102372  71.6311607
  16.8208591  57.7883625  71.1275324  15.4765532  58.1291249  71.7346585
  20.2431351  58.1147521  72.5669939  20.4594966  58.9972159  72.2658767
  19.7625418  57.7233735  71.8375581  14.9830573  61.0733235  79.1440684
  14.8375153  61.3873538  80.0364965  14.5055776  61.6918135  78.5911583
  16.8426955  58.0635783  79.1921573  16.8288524  57.1676876  78.8553871
  17.5599384  58.0706446  79.8259860  18.6953086  58.4973123  81.2374701
  18.4370864  59.4190193  81.2359031  18.1638127  58.1003557  81.9275165
  23.6399275  71.6023910  74.0164786  23.8136152  71.0370332  73.2638639
  24.1328166  72.4024805  73.8344276   9.4576235  63.6138579  82.0828345
   8.9129703  64.3898387  82.2148619  10.3355585  63.9609383  81.9247467
  16.2463851  56.9450163  74.4609144  16.3679763  56.0166809  74.6600031
  15.9565894  56.9588849  73.5487459  19.1155042  54.6305073  77.5975863
  19.1376739  54.6944406  76.6427843  19.5323101  53.7909582  77.7916370
  29.4938666  64.3660333  75.6355086  29.9369812  63.6167658  75.2374209
  28.6165176  64.3570469  75.2528818  24.6274447  70.9190674  71.1161685
  25.3225352  71.5397367  71.3348999  24.9697598  70.0686026  71.3914062
  10.2442257  62.7408475  84.9758502   9.5023993  62.8891111  85.5623132
   9.9235001  63.0016741  84.1125251  26.5265871  68.3690380  72.6449015
  27.0517195  68.7077653  71.9198335  26.4388223  67.4337395  72.4612150
  18.1885919  72.2824453  84.7738892  18.4973046  72.0373600  85.6461592
  18.9861401  72.4871092  84.2857762  18.2106531  74.4362363  77.0044269
  17.7711522  73.9438742  77.6977125  18.9614648  73.8935331  76.7636344
  10.6898870  70.6273904  77.0068897  11.5156890  70.3277676  76.6267540
  10.3392922  69.8581526  77.4558685  15.6580403  69.9800372  79.0766570
  15.0360413  69.3171077  78.7768798  16.3285270  70.0061504  78.3940218
   8.8907475  68.5460230  77.9657830   8.0539384  68.1182405  77.7841831
   8.8631121  68.7392674  78.9028621  15.7304931  58.4582160  88.6699076
  15.7793086  59.3344283  88.2876846  16.2727445  57.9159553  88.0970719
  26.2159777  69.0023283  87.9500213  25.4255320  68.9847422  87.4104713
  25.9793131  69.5411577  88.7049250  26.3357652  65.8515750  85.2632942
  26.3855657  65.6865757  86.2048465  26.2271575  64.9843009  84.8730823
  15.2193910  68.5304296  72.5525031  15.3682031  69.2139760  71.8991703
  16.0260354  68.5109386  73.0674486  23.6261414  61.8346678  86.5792249
  24.5271277  61.6953143  86.2876246  23.7009389  62.0001133  87.5190426
  17.9604219  59.2113533  85.4245435  17.0907529  59.5047099  85.1528023
  18.1963700  59.7953978  86.1452699  27.8375849  68.2712691  85.5074963
  27.5460657  68.6342672  86.3438424  27.2247980  67.5579700  85.3288295
  29.0371531  65.8365571  78.0277534  29.8718422  66.2755375  78.1915094
  29.1730660  65.3604224  77.2085779  26.0863037  63.3945306  83.9755021
  26.5617158  63.5872952  83.1673873  25.1628602  63.4504492  83.7298405
  12.9746543  64.5569473  73.5586100  12.7292585  63.6531803  73.7566310
  13.1442458  64.5586624  72.6165578  20.6643253  55.4293150  82.9410855
  21.1825197  56.1654176  82.6157344  20.3098386  55.7357143  83.7757614
  12.2442191  60.2897831  71.0572261  11.5511436  60.3642186  70.4012297
  11.9993943  59.5258174  71.5793778  20.9155847  51.8493432  78.4611752
  21.1957601  51.1816621  79.0872178  21.7006454  52.0422528  77.9486416
  18.7189316  71.0252426  70.0236778  18.1463283  71.6442613  69.5707250
  19.2922110  71.5751788  70.5576700  24.7864706  60.2711066  82.2083327
  25.7382129  60.3709164  82.2295551  24.6168156  59.4789335  82.7181411
  22.8079085  57.3566649  82.3942728  22.2129017  57.6371662  81.6989217
  22.5228782  57.8460550  83.1659469  21.9386576  71.3089576  71.1545360
  22.8717249  71.2435138  71.3578236  21.8509789  72.1445843  70.6959893
  24.5674592  70.6255446  68.1149308  24.4888224  70.2915310  69.0085066
  25.3884259  71.1177214  68.1140780  27.2652784  63.4917186  81.3225627
  27.2329104  62.5533187  81.5085310  27.8753407  63.5701222  80.5891451
  19.1036114  62.3613239  67.3652831  20.0495219  62.2319447  67.4341249
  18.7250359  61.6227901  67.8422259  27.4147272  60.2828229  81.3683910
  26.8986321  59.4986686  81.1813839  28.2987221  59.9546946  81.5330429
  25.0757999  54.0269245  77.3279722  24.8782820  53.7184333  78.2123054
  25.6857705  54.7530884  77.4577652  33.0829333  64.5533193  80.4631663
  33.8132722  64.2918481  81.0239367  32.4736279  63.8161915  80.5033731
  31.1644631  62.6941055  81.0606115  30.4377794  62.5597020  80.4522606
  30.7491917  63.0017884  81.8662833  18.9874807  66.4130985  88.8253488
  19.9077816  66.5909584  89.0193534  18.9524390  65.4687030  88.6733187
  17.2879032  60.2863215  67.3007716  16.3810487  59.9896328  67.3770429
  17.5655013  59.9893033  66.4342002   8.2056972  61.6069579  77.7506762
   7.8859756  60.7534887  77.4581136   7.6590400  61.8218157  78.5064730
  11.9836879  64.3232020  81.4676269  12.2022889  65.2549127  81.4864303
  12.3962653  63.9639994  82.2531073  18.9041097  54.8300105  73.4551957
  18.0941826  54.4847190  73.8307203  19.5925514  54.5207649  74.0439569
  20.8331646  53.9078152  75.0776254  21.3862684  54.3273605  75.7366277
  21.0701732  52.9813900  75.1199210  16.8564745  59.8965225  90.8579018
  16.7561472  60.8459582  90.7891109  16.6386287  59.5683464  89.9855088
  16.0577816  57.1450150  67.4419695  16.9196980  57.4705049  67.7015512
  16.2428160  56.3581646  66.9292761   8.0745232  65.2272490  79.7199884
   7.3808703  64.8126443  79.2069838   8.8218223  65.2693027  79.1233303
  24.2110453  56.0178677  74.5854918  23.6309122  56.6763481  74.2032970
  23.9446385  55.1956021  74.1742336  22.6614019  55.4183735  76.7876238
  23.1613797  55.5300269  75.9790557  23.3049627  55.1144787  77.4277047
  16.7196015  63.3262364  89.6744079  16.2363097  64.1262724  89.8807968
  16.8056954  63.3370309  88.7211523   9.9881974  65.1590744  77.5965899
   9.9652663  65.2578431  76.6447782  10.2982611  66.0055895  77.9183065
  12.6469352  67.2166899  81.7112513  13.6012606  67.1850841  81.6442445
  12.4481876  66.7557523  82.5262739  13.2368734  65.7868015  84.2783311
  14.0561623  66.2812094  84.3018148  13.5105542  64.8699983  84.2500878
  22.9935331  58.1778767  73.6411266  22.1061186  58.4628418  73.4231461
  23.4089320  58.0172531  72.7938543  26.3449867  58.2025288  77.3565606
  27.1210257  58.6921741  77.6290222  25.6198001  58.6283342  77.8137475
  28.7822425  58.9152907  78.4139546  29.3766916  58.6748643  77.7032854
  28.8549009  58.1960038  79.0413083  11.0019581  72.7586518  78.7282711
  10.8674049  71.9986919  78.1620709  10.5851643  73.4827418  78.2611500
  22.1378544  67.9423442  67.7359286  22.8414394  68.1473444  68.3516942
  21.4141193  68.5100204  68.0008370  22.9676354  63.6933303  73.8561556
  22.9111556  64.1501855  73.0169189  23.5204697  62.9323988  73.6784399
  26.7781160  59.4823035  74.6811676  26.5218095  59.0819671  75.5119884
  26.1534028  60.1966829  74.5561815  31.0893498  62.2219108  77.1882967
  30.5293056  62.2912298  77.9614529  30.4837002  62.0460093  76.4682464
  14.1588707  73.6555835  78.9401154  14.0421091  74.6001268  78.8379844
  13.3381153  73.3529397  79.3286953  24.0465242  68.3805971  69.7857746
  24.8810845  67.9487170  69.6035221  23.8849584  68.2087985  70.7134641
  23.7011134  64.8838084  71.1514086  23.6459938  64.7182356  70.2102530
  23.0757189  65.5914117  71.3076275   8.4903649  60.1206149  84.9775508
   9.1362512  59.6105103  85.4662733   8.2820800  60.8574830  85.5518933
  21.0157041  67.1886996  90.4767648  21.8848201  67.3627649  90.1154283
  20.5363792  68.0081413  90.3543378  17.0107259  54.3846193  70.7299404
  16.9985929  55.3288033  70.8867675  17.9030681  54.2016339  70.4358865
  15.1843221  74.3084097  82.1557082  16.0870468  74.3407708  82.4723577
  14.9580591  73.3784548  82.1703418  16.9396823  73.0615084  78.8167161
  15.9892454  73.0616945  78.7031533  17.2429309  72.3147818  78.3003195
  20.8259379  50.9788970  74.9845341  20.0591774  50.4247457  75.1302023
  21.2370084  51.0510839  75.8459493  12.8301140  57.2673766  89.0750522
  13.6932601  56.9110571  89.2853847  12.2566550  56.9287661  89.7625926
  32.6749517  78.8975622  79.8812923  33.3127927  78.7782370  79.1776263
  32.5570360  79.8456466  79.9400875  29.4839223  78.8503050  79.8174448
  29.1457734  78.7344115  78.9294983  30.3528991  78.4494215  79.7975454
  25.3426039  80.7038527  75.8071339  24.7790904  80.6128464  75.0387627
  25.2278434  79.8838431  76.2873831  29.9659006  80.0037902  85.7760653
  29.9547647  79.6090700  84.9041157  30.1279645  79.2703975  86.3694425
  22.8890471  82.1989718  78.6455559  23.6811762  81.8580543  78.2301859
  23.1287121  82.3084693  79.5657713  30.9225597  84.3709494  71.1185804
  30.2713577  84.9563575  70.7319817  31.7169960  84.9015689  71.1780841
  24.8481224  81.4598632  71.5172938  25.6212100  80.9127619  71.3785814
  25.2006623  82.3242881  71.7287399  26.6866267  82.7875014  84.7239837
  26.3956133  83.6920645  84.6086504  27.3223251  82.8291541  85.4383907
  27.6122474  80.1651862  81.3141197  28.2086046  79.9407885  80.5998160
  27.6697445  79.4236608  81.9166645  27.1847502  77.6191298  69.1491388
  27.4373023  77.0972819  68.3874851  26.2472061  77.4557443  69.2518072
  32.2290785  76.6227076  76.9566131  33.0153874  76.2046499  76.6056548
  32.4929489  77.5273168  77.1247780  32.4000862  82.0599926  71.6554788
  31.7646695  82.1334553  72.3675693  32.0698269  82.6493525  70.9773867
  37.6299212  76.5602309  77.8599110  38.3624384  75.9901526  78.0936939
  36.8738568  76.1723910  78.3005615  26.9043791  79.5219404  71.3515763
  26.7880049  78.8464307  72.0196847  27.0146051  79.0351778  70.5347916
  29.2475332  78.9829551  75.0562452  28.8833539  78.4560172  75.7675374
  30.1042448  78.5928020  74.8828938  35.1524633  70.2723883  82.3193718
  34.8207957  71.1419294  82.0954933  34.5570246  69.9560167  82.9987749
  28.8880819  74.0119450  70.0523801  29.0555221  74.8799687  70.4194272
  28.6977988  74.1746732  69.1285090  31.6456152  82.4736429  81.7189631
  31.3456875  83.3761468  81.6105438  31.3007212  82.2068613  82.5710784
  25.0968634  78.9250226  77.7526335  24.1719130  78.7926440  77.9604027
  25.3453047  79.7044445  78.2496278  35.0453296  74.9918970  79.3987068
  34.1370173  74.9234378  79.1045829  34.9940892  75.4690914  80.2268894
  28.8670040  76.4677108  71.0370467  28.7469665  76.9134159  71.8755948
  28.1722628  76.8162426  70.4784006  22.4577445  78.5683500  78.5870125
  22.5869826  78.8217979  79.5009536  21.7774896  79.1611208  78.2674780
  26.6276932  89.2380750  74.6860599  26.5500962  90.1888575  74.7649079
  26.0238576  88.8926622  75.3435525  29.1194162  76.4108615  87.3421966
  28.3427496  76.9702535  87.3324830  29.7584725  76.8965398  87.8636836
  36.9114942  73.1935408  81.1764942  36.2689323  73.4867941  80.5304737
  36.4069871  73.0788328  81.9818139  34.5655106  76.9398581  71.8650802
  35.4772962  77.1725968  71.6898499  34.0564753  77.5235625  71.3025880
  27.3740534  79.2194068  86.9039933  28.1155218  79.7579112  86.6274756
  26.6677519  79.8460357  87.0611484  32.8495874  81.3623209  85.5012094
  33.2579230  80.9205619  84.7566726  32.1273135  80.7875836  85.7546287
  29.2026944  76.2995816  82.8745651  30.0488139  76.7235229  83.0180300
  29.1425581  75.6429440  83.5684214  33.1724688  81.9224400  79.2564383
  32.5433551  82.0870114  78.5540451  32.7850350  82.3366009  80.0275347
  37.0513920  82.8578837  76.6108747  36.3664958  83.2377739  76.0605780
  37.1357769  83.4674164  77.3440695  32.3526389  73.9600184  84.5326825
  32.1087321  74.7142245  83.9961100  32.6286320  74.3385532  85.3674072
  34.3064852  80.5038796  83.2104090  34.5181747  81.1470556  82.5338471
  34.2594600  79.6701113  82.7426020  31.9091081  73.1156617  80.1140662
  31.0475560  73.4137871  80.4057400  31.9353515  73.3327016  79.1821695
  28.7252650  81.6598808  76.5214468  29.1890996  81.9386511  75.7319091
  28.4609448  80.7582252  76.3387559  25.6176731  81.2070289  79.4594231
  26.1878088  81.6357558  78.8211716  26.2084843  80.9252874  80.1578417
  27.6621536  77.7821960  73.3304033  28.3645580  78.2343004  73.7977960
  27.3302165  77.1405779  73.9583926  26.1101898  76.3733717  87.7055243
  25.4800558  77.0549998  87.9390639  26.0037986  76.2616798  86.7608381
  21.4046870  76.0405513  78.6321167  20.6145924  76.2963041  78.1561277
  21.8958118  76.8553851  78.7373207  35.4210680  83.3810752  81.3826448
  36.2428123  82.9790939  81.1009129  35.4173083  83.2778986  82.3342563
  23.3561616  76.4050092  75.5904643  22.5592779  76.5168786  76.1088139
  23.1287208  76.7436744  74.7245534  29.1867283  82.9294795  83.5387158
  29.2511716  83.3915202  84.3745330  28.4778207  82.2992160  83.6669468
  19.6884573  76.2936003  81.0636158  19.9392612  77.1783013  81.3293734
  20.2244122  76.1140605  80.2911249  43.5116673  79.7249500  77.7311419
  42.7580381  79.1556898  77.5755424  43.6464214  79.6912165  78.6782054
  28.9015301  84.5962903  73.4066138  28.7660976  85.4414438  73.8350986
  29.4425113  84.7982180  72.6432072  25.3882640  70.6754482  90.0680494
  24.9949586  70.1220681  90.7428138  26.2048781  70.9865061  90.4587011
  22.3544698  82.1138341  73.9794064  22.8669219  82.9081591  74.1299628
  23.0067411  81.4164631  73.9127665  24.1639583  85.2304097  76.0616817
  24.3406211  86.1522062  75.8737801  24.9596416  84.9162516  76.4911196
  28.3050601  72.0912362  87.6600750  29.0460315  72.6919515  87.5805213
  28.5368524  71.3489999  87.1018793  23.4491939  77.2768729  85.9378980
  23.3345455  76.3753986  86.2386079  22.5936457  77.5232426  85.5863796
  30.5283777  85.2186469  87.5366481  30.0847631  84.4322848  87.2187385
  31.1900991  85.4065620  86.8710371  25.2870898  86.7482271  82.0627159
  25.8378324  86.6199334  81.2904153  24.4482374  87.0477160  81.7122052
  32.6265015  85.4989269  85.5647882  32.6083491  86.3198150  85.0728151
  33.5484935  85.3743344  85.7898023  29.0838069  83.0133399  86.4071390
  29.6166406  82.2521687  86.1770698  28.5552151  82.7207050  87.1495545
  32.2507764  68.1193465  81.9365032  31.9072034  69.0095106  81.8604142
  32.6186727  67.9295122  81.0734617  20.3193615  80.4426995  74.7553634
  21.1568837  80.8524003  74.5387342  20.4971883  79.5026437  74.7253828
  32.2158047  78.1102076  70.4437467  31.7004671  78.8806680  70.6825854
  31.9435356  77.4367212  71.0670528  29.8005158  72.9551776  75.5022705
  28.9446755  72.5658627  75.3228344  30.2132110  73.0343737  74.6422491
  31.3304305  70.4898120  79.9014265  30.8269100  70.4528255  79.0882070
  31.6234912  71.3990862  79.9610922  27.5747191  70.5736849  78.9080447
  28.4400187  70.3779658  78.5486336  27.6424700  70.3447201  79.8349804
  37.1892321  80.8634430  72.3790641  36.4121764  80.5245590  71.9345803
  37.8683802  80.8687053  71.7045606  32.0044350  75.9829168  72.2697248
  31.6994486  76.2975317  73.1207391  32.9574792  76.0610588  72.3124581
  30.4490782  82.1419391  73.9190202  29.9212144  81.4072151  73.6063440
  29.9478285  82.9194067  73.6730171  35.4283628  80.3368412  79.0357248
  34.7707303  81.0267673  79.1237377  36.2324027  80.7264843  79.3791235
  25.1809510  72.8039057  76.2796814  25.7553262  72.5814239  75.5470007
  25.7680492  72.8727752  77.0325415  34.2389087  78.6912784  77.0861190
  34.7520969  79.3242776  77.5882900  34.8890311  78.0913980  76.7204550
  25.5079097  74.8343518  70.2992699  24.6716409  75.1718205  70.6201974
  25.3683867  74.6992498  69.3619836  27.4832177  69.6780306  75.0071883
  26.8296590  69.3629323  74.3828498  27.4412652  69.0556047  75.7331706
  28.5943382  79.9599601  66.9225175  27.6870444  79.7288855  67.1216324
  29.0914414  79.1637221  67.1099157  31.5011461  88.6697108  69.8421861
  30.8273160  88.9728805  70.4506819  31.8877283  89.4726189  69.4927318
  30.7169918  76.1662240  79.3319531  29.7992479  76.3877187  79.1741219
  31.1330061  76.2408550  78.4731238  31.5004966  77.5653655  74.4622211
  32.2476785  78.0775053  74.1529333  31.7696555  77.2437708  75.3226605
  29.7731616  80.0612196  71.4449165  28.8642835  79.7771229  71.5421635
  29.8026700  80.4811275  70.5852472  35.0050883  83.6718786  75.2140333
  34.5513210  82.8309696  75.2705523  34.3744850  84.3080184  75.5515113
  33.9483803  74.6010772  76.4441000  33.2106560  74.0888158  76.7751243
  34.2010576  74.1611153  75.6324277  33.4483822  85.5095282  76.1490151
  33.7406797  86.0700339  75.4302517  33.9582443  85.8023843  76.9043310
  34.0495430  67.3787024  77.0382770  34.3554307  66.5184387  76.7508685
  34.7748035  67.9704644  76.8381763  20.3419786  77.7817710  75.4264368
  20.1444186  77.1887071  74.7015434  19.7866450  77.4769920  76.1440306
  28.3216510  77.6740817  77.5458961  28.3765120  76.7214653  77.4701437
  27.5107712  77.8300256  78.0300259  29.4707704  81.6020940  68.7837244
  29.0327133  80.8856799  68.3242881  30.2118144  81.8297055  68.2222335
  26.2608870  76.2917877  75.3049340  25.4476735  76.5912047  75.7114532
  26.7567864  75.8973565  76.0223822  28.4117448  86.2875633  77.2383604
  28.3693626  86.5136480  76.3092136  29.3280146  86.0539008  77.3869405
  31.8583081  76.7559701  84.1364233  32.2132469  76.9831174  84.9958699
  32.5055213  77.0878078  83.5141489  37.5880818  79.8778137  74.8413562
  37.4498717  80.0679733  73.9134752  37.2317037  80.6397520  75.2981614
  25.7522944  73.8636232  80.9210574  26.3922324  73.7224991  80.2233538
  24.9200475  73.5770745  80.5449176  37.6150198  81.9454664  79.8524834
  38.0486705  81.8529953  80.7007888  38.3281779  81.9212164  79.2144850
  26.5283248  83.1638662  77.0345567  27.3223847  82.6688983  76.8328142
  25.8174941  82.6356526  76.6713273  31.3478093  85.5456758  81.3857935
  31.4015115  86.1147694  82.1535650  30.4792874  85.7158643  81.0211972
  22.8366012  77.3081744  73.1105320  21.9063600  77.2466200  73.3275282
  22.9323484  76.7857697  72.3141961  22.7551561  73.8336557  75.6983561
  23.0158378  74.7481890  75.5892722  23.5768733  73.3661000  75.8480174
  24.2276486  75.2474314  82.8682386  24.8999540  75.0391676  82.2195035
  23.4006273  75.0496400  82.4287618  38.4765748  81.9878365  82.3857719
  38.6701638  82.8924175  82.6316994  38.3766366  81.5285784  83.2196304
  30.1302058  71.8736255  84.8848047  29.4829973  72.5726205  84.7912523
  30.9003074  72.3072399  85.2524295  33.5380856  82.1385107  87.9598600
  33.3866363  81.9095659  87.0428684  33.5285536  83.0955709  87.9729945
  30.3066193  79.7117020  82.9444866  31.2358253  79.8628180  82.7713834
  29.8857223  79.8001041  82.0893513  29.1054524  83.7367684  80.7143404
  28.9665610  83.3686469  81.5869342  28.3169121  84.2515324  80.5427362
  29.7002676  88.8376781  72.0568941  29.8754432  88.3664824  72.8714563
  29.0135464  89.4642547  72.2850201  30.6559740  83.1149287  78.1032242
  30.3209572  83.0750057  78.9989892  30.1563685  82.4494003  77.6302652
  24.6303983  78.5216917  83.6284823  24.4923781  77.7897156  84.2296362
  25.5408907  78.4325817  83.3469011  33.5918931  80.4605321  68.3769301
  32.9748102  79.7352150  68.2802354  33.1235420  81.2214682  68.0336376
  27.2586284  78.2336877  83.1168503  27.9685903  77.5930069  83.0755121
  27.2155592  78.4849771  84.0394683  35.2473063  85.1704230  86.0375082
  35.1885609  84.4863450  85.3705665  35.6492581  85.9123220  85.5855708
  25.9715218  75.2202094  84.9364142  25.4352575  74.7692833  85.5885738
  25.3831927  75.3548003  84.1934606  24.2663762  91.9866144  78.8308801
  24.5060360  92.6184668  79.5087819  23.4232958  91.6354184  79.1174160
  25.3817477  74.6790746  67.4990606  24.5046943  74.5579547  67.1352852
  25.8575230  73.8876824  67.2469494  35.2490470  83.1343814  84.2689062
  34.3617249  82.7969736  84.3915460  35.8189021  82.4026845  84.5057827
  16.9019617  79.4667906  77.5932113  17.5890657  79.1529636  77.0053128
  16.7467746  80.3709270  77.3199364  21.7054339  74.3558102  82.0217137
  21.6212528  73.7483772  81.2867547  20.8837046  74.8467120  82.0226633
  28.7791624  87.7945266  81.2350305  28.7061795  88.6000238  81.7469609
  28.3369017  87.9937232  80.4098326  28.5681403  87.0317036  74.7453126
  27.7848925  87.5738716  74.8391351  29.2674148  87.5491016  75.1447367
  31.8778053  72.8411666  77.3887332  32.3746753  72.0881628  77.0688402
  31.1065035  72.8775982  76.8230541  39.7307811  78.5452031  79.0305623
  39.7197687  79.4276747  78.6599556  38.8625190  78.1923582  78.8360160
  31.2390307  87.6932100  83.3908463  31.9518279  88.3279565  83.3184365
  30.7480336  87.7895966  82.5748465  32.9607834  81.5983353  74.9625755
  32.0264113  81.7184815  74.7930459  33.1384502  80.6955820  74.6985765
  28.4613022  74.9829049  77.1159016  28.0910810  74.4300089  77.8039922
  28.9572114  74.3787182  76.5634016  36.3480385  77.4400672  75.4975789
  36.8140837  78.2728664  75.4236092  36.7987886  76.9745654  76.2021048
  26.2902221  85.4426544  84.2114034  26.9911680  86.0763027  84.3643428
  25.8197336  85.7841275  83.4509673  34.4156616  83.7844493  72.4961941
  34.6916460  83.6701088  73.4055815  33.5461115  83.3861978  72.4574114
  34.3197048  69.8081259  79.5366691  33.4060128  70.0385486  79.7048897
  34.7490149  69.8919703  80.3880723  34.0903507  77.9971151  82.0366585
  33.4374957  78.2447059  81.3819037  34.4683886  77.1835289  81.7029062
  31.0510680  88.0330844  76.1394755  31.2333075  87.2152500  76.6022507
  31.8743666  88.2498536  75.7019645  31.3852846  86.9599029  73.4009803
  31.9140612  86.4491484  72.7879965  31.6481065  86.6441560  74.2655336
  30.1391080  78.7390962  88.5232622  29.4631717  78.6385091  89.1934997
  30.9618713  78.5830176  88.9868619  21.8869939  84.9762899  81.1445137
  22.4723375  84.2306587  81.2773041  21.6894777  85.2866855  82.0281801
  24.7408594  88.0114146  76.1607579  24.0718969  88.4960274  75.6771619
  24.6021464  88.2583367  77.0750958  16.4787593  77.5468499  79.8649580
  16.5171693  77.0132090  80.6586698  15.9727886  77.0203704  79.2460557
  28.8813862  90.0457890  82.7590238  29.4332170  90.2089511  83.5239323
  29.2220056  90.6362327  82.0870262  23.8578356  72.3933039  83.3612122
  23.9219682  73.2547870  82.9489520  23.7945476  71.7807041  82.6284481
  23.3330628  74.4656172  87.0085157  23.9602667  74.0833249  87.6222681
  22.4758547  74.2470374  87.3740849  33.7324737  84.8719147  88.6138892
  34.2764641  85.4849105  88.1193847  33.1511582  85.4298725  89.1305905
  20.1096171  76.2732601  72.9403511  20.4049612  75.3643279  72.8870565
  19.2084207  76.2520340  72.6184514  32.0182250  87.9939865  79.7453920
  31.8933389  87.1929605  79.2364865  32.6761341  88.4886058  79.2567890
  23.6390418  74.3488598  78.9231060  22.9177004  74.9624565  78.7838533
  24.4283674  74.8846362  78.8447706  34.0817158  85.7948885  81.3733470
  33.1347494  85.6754236  81.3011797  34.4299931  84.9071383  81.4559731
  26.4416731  71.6843024  85.1971712  26.9651133  71.9305321  85.9598021
  26.2229065  72.5163059  84.7774849  21.8384013  73.9546699  73.0642837
  21.5096719  73.0744078  72.8817942  22.1923383  73.8994367  73.9519226
  31.0863591  85.5901601  77.5737822  30.9388554  84.6618309  77.7545392
  31.9117085  85.6121692  77.0894897  24.9525836  74.2419668  73.4318314
  25.2921908  74.7705590  72.7096923  25.3997956  74.5800075  74.2076881
  34.6897713  86.4130160  78.6602695  35.6144261  86.2073021  78.5227146
  34.5213017  86.1646561  79.5692036  27.6469277  72.6256719  82.8821382
  27.3066097  71.8264532  83.2842062  26.9408283  72.9258430  82.3098215
  28.2985748  69.7106032  81.3348705  29.1211818  69.2366510  81.2127596
  28.5423812  70.4896515  81.8347392  26.9393983  72.7394290  71.6311607
  27.6602345  73.1175543  71.1275324  26.3159287  73.4583167  71.7346585
  31.0825106  73.4439439  72.5669939  31.2988720  74.3264077  72.2658767
  30.6019173  73.0525652  71.8375581  25.8224327  76.4025152  79.1440684
  25.6768908  76.7165455  80.0364965  25.3449531  77.0210053  78.5911583
  27.6820710  73.3927700  79.1921573  27.6682279  72.4968794  78.8553871
  28.3993138  73.3998364  79.8259860  29.5346841  73.8265040  81.2374701
  29.2764619  74.7482111  81.2359031  29.0031881  73.4295475  81.9275165
  34.4793029  86.9315828  74.0164786  34.6529907  86.3662250  73.2638639
  34.9721921  87.7316722  73.8344276  20.2969989  78.9430497  82.0828345
  19.7523457  79.7190305  82.2148619  21.1749339  79.2901301  81.9247467
  27.0857606  72.2742081  74.4609144  27.2073517  71.3458727  74.6600031
  26.7959648  72.2880767  73.5487459  29.9548796  69.9596991  77.5975863
  29.9770493  70.0236324  76.6427843  30.3716855  69.1201500  77.7916370
  40.3332421  79.6952251  75.6355086  40.7763567  78.9459576  75.2374209
  39.4558931  79.6862387  75.2528818  35.4668202  86.2482592  71.1161685
  36.1619107  86.8689285  71.3348999  35.8091352  85.3977943  71.3914062
  21.0836011  78.0700393  84.9758502  20.3417747  78.2183028  85.5623132
  20.7628755  78.3308659  84.1125251  37.3659625  83.6982298  72.6449015
  37.8910949  84.0369570  71.9198335  37.2781978  82.7629313  72.4612150
  29.0279674  87.6116371  84.7738892  29.3366800  87.3665518  85.6461592
  29.8255156  87.8163010  84.2857762  29.0500286  89.7654281  77.0044269
  28.6105276  89.2730659  77.6977125  29.8008403  89.2227248  76.7636344
  21.5292625  85.9565822  77.0068897  22.3550645  85.6569594  76.6267540
  21.1786677  85.1873444  77.4558685  26.4974158  85.3092290  79.0766570
  25.8754167  84.6462995  78.7768798  27.1679025  85.3353422  78.3940218
  19.7301230  83.8752148  77.9657830  18.8933138  83.4474322  77.7841831
  19.7024875  84.0684591  78.9028621  26.5698685  73.7874078  88.6699076
  26.6186841  74.6636201  88.2876846  27.1121200  73.2451471  88.0970719
  37.0553531  84.3315201  87.9500213  36.2649075  84.3139340  87.4104713
  36.8186886  84.8703495  88.7049250  37.1751406  81.1807668  85.2632942
  37.2249411  81.0157675  86.2048465  37.0665330  80.3134927  84.8730823
  26.0587665  83.8596213  72.5525031  26.2075785  84.5431678  71.8991703
  26.8654108  83.8401303  73.0674486  34.4655169  77.1638596  86.5792249
  35.3665031  77.0245060  86.2876246  34.5403143  77.3293050  87.5190426
  28.7997974  74.5405450  85.4245435  27.9301283  74.8339016  85.1528023
  29.0357454  75.1245895  86.1452699  38.6769603  83.6004609  85.5074963
  38.3854411  83.9634590  86.3438424  38.0641734  82.8871617  85.3288295
  39.8765285  81.1657489  78.0277534  40.7112177  81.6047293  78.1915094
  40.0124414  80.6896142  77.2085779  36.9256791  78.7237224  83.9755021
  37.4010913  78.9164870  83.1673873  36.0022357  78.7796410  83.7298405
  23.8140298  79.8861391  73.5586100  23.5686340  78.9823721  73.7566310
  23.9836212  79.8878541  72.6165578  31.5037008  70.7585067  82.9410855
  32.0218952  71.4946094  82.6157344  31.1492140  71.0649061  83.7757614
  23.0835945  75.6189748  71.0572261  22.3905190  75.6934103  70.4012297
  22.8387697  74.8550092  71.5793778  31.7549602  67.1785350  78.4611752
  32.0351356  66.5108539  79.0872178  32.5400209  67.3714445  77.9486416
  29.5583070  86.3544344  70.0236778  28.9857037  86.9734531  69.5707250
  30.1315864  86.9043705  70.5576700  35.6258460  75.6002984  82.2083327
  36.5775883  75.7001081  82.2295551  35.4561911  74.8081252  82.7181411
  33.6472840  72.6858567  82.3942728  33.0522772  72.9663580  81.6989217
  33.3622536  73.1752468  83.1659469  32.7780330  86.6381494  71.1545360
  33.7111003  86.5727055  71.3578236  32.6903543  87.4737761  70.6959893
  35.4068347  85.9547364  68.1149308  35.3281978  85.6207228  69.0085066
  36.2278014  86.4469132  68.1140780  38.1046538  78.8209103  81.3225627
  38.0722858  77.8825104  81.5085310  38.7147162  78.8993140  80.5891451
  29.9429869  77.6905156  67.3652831  30.8888974  77.5611365  67.4341249
  29.5644114  76.9519818  67.8422259  38.2541027  75.6120147  81.3683910
  37.7380075  74.8278604  81.1813839  39.1380975  75.2838864  81.5330429
  35.9151753  69.3561162  77.3279722  35.7176575  69.0476251  78.2123054
  36.5251459  70.0822801  77.4577652  43.9223088  79.8825110  80.4631663
  44.6526476  79.6210398  81.0239367  43.3130033  79.1453832  80.5033731
  42.0038385  78.0232973  81.0606115  41.2771549  77.8888938  80.4522606
  41.5885672  78.3309801  81.8662833  29.8268561  81.7422903  88.8253488
  30.7471571  81.9201502  89.0193534  29.7918144  80.7978948  88.6733187
  28.1272786  75.6155133  67.3007716  27.2204241  75.3188246  67.3770429
  28.4048767  75.3184951  66.4342002  19.0450726  76.9361496  77.7506762
  18.7253511  76.0826804  77.4581136  18.4984155  77.1510074  78.5064730
  22.8230634  79.6523937  81.4676269  23.0416644  80.5841045  81.4864303
  23.2356408  79.2931912  82.2531073  29.7434852  70.1592023  73.4551957
  28.9335580  69.8139108  73.8307203  30.4319269  69.8499566  74.0439569
  31.6725400  69.2370069  75.0776254  32.2256439  69.6565523  75.7366277
  31.9095486  68.3105817  75.1199210  27.6958499  75.2257143  90.8579018
  27.5955226  76.1751500  90.7891109  27.4780041  74.8975382  89.9855088
  26.8971571  72.4742068  67.4419695  27.7590735  72.7996966  67.7015512
  27.0821915  71.6873564  66.9292761  18.9138986  80.5564408  79.7199884
  18.2202458  80.1418361  79.2069838  19.6611977  80.5984944  79.1233303
  35.0504207  71.3470594  74.5854918  34.4702876  72.0055399  74.2032970
  34.7840140  70.5247939  74.1742336  33.5007774  70.7475652  76.7876238
  34.0007552  70.8592187  75.9790557  34.1443381  70.4436705  77.4277047
  27.5589769  78.6554282  89.6744079  27.0756851  79.4554642  89.8807968
  27.6450708  78.6662227  88.7211523  20.8275729  80.4882662  77.5965899
  20.8046417  80.5870349  76.6447782  21.1376365  81.3347812  77.9183065
  23.4863107  82.5458817  81.7112513  24.4406360  82.5142759  81.6442445
  23.2875630  82.0849440  82.5262739  24.0762489  81.1159933  84.2783311
  24.8955378  81.6104011  84.3018148  24.3499297  80.1991901  84.2500878
  33.8329085  73.5070685  73.6411266  32.9454940  73.7920336  73.4231461
  34.2483074  73.3464448  72.7938543  37.1843621  73.5317206  77.3565606
  37.9604011  74.0213658  77.6290222  36.4591755  73.9575260  77.8137475
  39.6216180  74.2444825  78.4139546  40.2160671  74.0040561  77.7032854
  39.6942764  73.5251956  79.0413083  21.8413336  88.0878436  78.7282711
  21.7067804  87.3278837  78.1620709  21.4245398  88.8119336  78.2611500
  32.9772299  83.2715360  67.7359286  33.6808149  83.4765362  68.3516942
  32.2534947  83.8392121  68.0008370  33.8070109  79.0225221  73.8561556
  33.7505310  79.4793772  73.0169189  34.3598451  78.2615905  73.6784399
  37.6174915  74.8114953  74.6811676  37.3611849  74.4111588  75.5119884
  36.9927783  75.5258747  74.5561815  41.9287253  77.5511026  77.1882967
  41.3686811  77.6204215  77.9614529  41.3230756  77.3752011  76.4682464
  24.9982461  88.9847753  78.9401154  24.8814846  89.9293186  78.8379844
  24.1774908  88.6821315  79.3286953  34.8858996  83.7097889  69.7857746
  35.7204600  83.2779087  69.6035221  34.7243339  83.5379902  70.7134641
  34.5404888  80.2130002  71.1514086  34.4853692  80.0474273  70.2102530
  33.9150943  80.9206035  71.3076275  19.3297403  75.4498066  84.9775508
  19.9756267  74.9397020  85.4662733  19.1214554  76.1866748  85.5518933
  31.8550795  82.5178914  90.4767648  32.7241955  82.6919566  90.1154283
  31.3757547  83.3373331  90.3543378  27.8501014  69.7138111  70.7299404
  27.8379683  70.6579951  70.8867675  28.7424436  69.5308256  70.4358865
  26.0236976  89.6376015  82.1557082  26.9264222  89.6699625  82.4723577
  25.7974346  88.7076466  82.1703418  27.7790578  88.3907001  78.8167161
  26.8286209  88.3908863  78.7031533  28.0823064  87.6439736  78.3003195
  31.6653133  66.3080888  74.9845341  30.8985529  65.7539374  75.1302023
  32.0763838  66.3802756  75.8459493  23.6694894  72.5965684  89.0750522
  24.5326356  72.2402488  89.2853847  23.0960305  72.2579578  89.7625926
  43.5143271  94.2267540  79.8812923  44.1521681  94.1074287  79.1776263
  43.3964114  95.1748384  79.9400875  40.3232977  94.1794968  79.8174448
  39.9851489  94.0636033  78.9294983  41.1922746  93.7786133  79.7975454
  36.1819793  96.0330444  75.8071339  35.6184658  95.9420381  75.0387627
  36.0672188  95.2130349  76.2873831  40.8052760  95.3329820  85.7760653
  40.7941401  94.9382618  84.9041157  40.9673400  94.5995892  86.3694425
  33.7284225  97.5281636  78.6455559  34.5205517  97.1872461  78.2301859
  33.9680875  97.6376611  79.5657713  41.7619352  99.7001412  71.1185804
  41.1107332 100.2855492  70.7319817  42.5563715 100.2307607  71.1780841
  35.6874979  96.7890549  71.5172938  36.4605855  96.2419536  71.3785814
  36.0400378  97.6534799  71.7287399  37.5260022  98.1166931  84.7239837
  37.2349888  99.0212562  84.6086504  38.1617006  98.1583459  85.4383907
  38.4516228  95.4943780  81.3141197  39.0479801  95.2699802  80.5998160
  38.5091200  94.7528525  81.9166645  38.0241257  92.9483215  69.1491388
  38.2766777  92.4264737  68.3874851  37.0865816  92.7849361  69.2518072
  43.0684540  91.9518994  76.9566131  43.8547629  91.5338417  76.6056548
  43.3323244  92.8565086  77.1247780  43.2394617  97.3891844  71.6554788
  42.6040450  97.4626471  72.3675693  42.9092023  97.9785443  70.9773867
  48.4692967  91.8894227  77.8599110  49.2018139  91.3193444  78.0936939
  47.7132322  91.5015827  78.3005615  37.7437546  94.8511321  71.3515763
  37.6273804  94.1756225  72.0196847  37.8539805  94.3643695  70.5347916
  40.0869086  94.3121468  75.0562452  39.7227294  93.7852089  75.7675374
  40.9436202  93.9219937  74.8828938  45.9918387  85.6015801  82.3193718
  45.6601712  86.4711212  82.0954933  45.3964000  85.2852085  82.9987749
  39.7274573  89.3411368  70.0523801  39.8948976  90.2091605  70.4194272
  39.5371743  89.5038650  69.1285090  42.4849907  97.8028347  81.7189631
  42.1850630  98.7053386  81.6105438  42.1400966  97.5360530  82.5710784
  35.9362388  94.2542144  77.7526335  35.0112885  94.1218358  77.9604027
  36.1846801  95.0336363  78.2496278  45.8847050  90.3210887  79.3987068
  44.9763928  90.2526296  79.1045829  45.8334646  90.7982832  80.2268894
  39.7063794  91.7969026  71.0370467  39.5863420  92.2426076  71.8755948
  39.0116383  92.1454343  70.4784006  33.2971199  93.8975417  78.5870125
  33.4263580  94.1509896  79.5009536  32.6168650  94.4903125  78.2674780
  37.4670686 104.5672667  74.6860599  37.3894716 105.5180492  74.7649079
  36.8632330 104.2218540  75.3435525  39.9587916  91.7400533  87.3421966
  39.1821250  92.2994453  87.3324830  40.5978479  92.2257316  87.8636836
  47.7508697  88.5227326  81.1764942  47.1083077  88.8159859  80.5304737
  47.2463625  88.4080246  81.9818139  45.4048860  92.2690499  71.8650802
  46.3166717  92.5017886  71.6898499  44.8958508  92.8527543  71.3025880
  38.2134288  94.5485986  86.9039933  38.9548973  95.0871030  86.6274756
  37.5071274  95.1752275  87.0611484  43.6889628  96.6915127  85.5012094
  44.0972984  96.2497537  84.7566726  42.9666890  96.1167754  85.7546287
  40.0420698  91.6287733  82.8745651  40.8881893  92.0527147  83.0180300
  39.9819336  90.9721358  83.5684214  44.0118443  97.2516317  79.2564383
  43.3827305  97.4162031  78.5540451  43.6244105  97.6657927  80.0275347
  47.8907675  98.1870755  76.6108747  47.2058713  98.5669656  76.0605780
  47.9751524  98.7966082  77.3440695  43.1920144  89.2892102  84.5326825
  42.9481075  90.0434162  83.9961100  43.4680074  89.6677449  85.3674072
  45.1458606  95.8330714  83.2104090  45.3575502  96.4762474  82.5338471
  45.0988355  94.9993031  82.7426020  42.7484835  88.4448535  80.1140662
  41.8869314  88.7429788  80.4057400  42.7747270  88.6618934  79.1821695
  39.5646405  96.9890725  76.5214468  40.0284750  97.2678428  75.7319091
  39.3003203  96.0874170  76.3387559  36.4570486  96.5362207  79.4594231
  37.0271843  96.9649475  78.8211716  37.0478598  96.2544792  80.1578417
  38.5015291  93.1113878  73.3304033  39.2039334  93.5634921  73.7977960
  38.1695919  92.4697697  73.9583926  36.9495652  91.7025634  87.7055243
  36.3194313  92.3841915  87.9390639  36.8431740  91.5908716  86.7608381
  32.2440625  91.3697430  78.6321167  31.4539679  91.6254959  78.1561277
  32.7351872  92.1845768  78.7373207  46.2604434  98.7102670  81.3826448
  47.0821878  98.3082857  81.1009129  46.2566837  98.6070904  82.3342563
  34.1955370  91.7342010  75.5904643  33.3986533  91.8460704  76.1088139
  33.9680962  92.0728662  74.7245534  40.0261038  98.2586713  83.5387158
  40.0905470  98.7207120  84.3745330  39.3171962  97.6284078  83.6669468
  30.5278328  91.6227921  81.0636158  30.7786366  92.5074931  81.3293734
  31.0637876  91.4432522  80.2911249  54.3510427  95.0541418  77.7311419
  53.5974136  94.4848816  77.5755424  54.4857968  95.0204083  78.6782054
  39.7409055  99.9254820  73.4066138  39.6054730 100.7706356  73.8350986
  40.2818868 100.1274098  72.6432072  36.2276395  86.0046400  90.0680494
  35.8343341  85.4512599  90.7428138  37.0442535  86.3156979  90.4587011
  33.1938453  97.4430258  73.9794064  33.7062973  98.2373509  74.1299628
  33.8461166  96.7456549  73.9127665  35.0033337 100.5596015  76.0616817
  35.1799966 101.4813979  75.8737801  35.7990171 100.2454434  76.4911196
  39.1444356  87.4204279  87.6600750  39.8854069  88.0211432  87.5805213
  39.3762279  86.6781917  87.1018793  34.2885694  92.6060647  85.9378980
  34.1739209  91.7045904  86.2386079  33.4330212  92.8524343  85.5863796
  41.3677532 100.5478387  87.5366481  40.9241386  99.7614765  87.2187385
  42.0294745 100.7357537  86.8710371  36.1264653 102.0774188  82.0627159
  36.6772078 101.9491252  81.2904153  35.2876129 102.3769077  81.7122052
  43.4658770 100.8281187  85.5647882  43.4477245 101.6490068  85.0728151
  44.3878690 100.7035262  85.7898023  39.9231824  98.3425316  86.4071390
  40.4560161  97.5813604  86.1770698  39.3945905  98.0498968  87.1495545
  43.0901519  83.4485382  81.9365032  42.7465788  84.3387024  81.8604142
  43.4580482  83.2587040  81.0734617  31.1587370  95.7718913  74.7553634
  31.9962592  96.1815921  74.5387342  31.3365637  94.8318355  74.7253828
  43.0551802  93.4393993  70.4437467  42.5398425  94.2098598  70.6825854
  42.7829110  92.7659129  71.0670528  40.6398913  88.2843694  75.5022705
  39.7840509  87.8950544  75.3228344  41.0525864  88.3635655  74.6422491
  42.1698059  85.8190037  79.9014265  41.6662855  85.7820173  79.0882070
  42.4628666  86.7282780  79.9610922  38.4140945  85.9028767  78.9080447
  39.2793942  85.7071576  78.5486336  38.4818454  85.6739119  79.8349804
  48.0286076  96.1926348  72.3790641  47.2515519  95.8537507  71.9345803
  48.7077557  96.1978971  71.7045606  42.8438105  91.3121085  72.2697248
  42.5388240  91.6267235  73.1207391  43.7968547  91.3902505  72.3124581
  41.2884537  97.4711309  73.9190202  40.7605898  96.7364068  73.6063440
  40.7872039  98.2485985  73.6730171  46.2677383  95.6660329  79.0357248
  45.6101057  96.3559591  79.1237377  47.0717782  96.0556761  79.3791235
  36.0203264  88.1330975  76.2796814  36.5947016  87.9106156  75.5470007
  36.6074247  88.2019670  77.0325415  45.0782841  94.0204702  77.0861190
  45.5914723  94.6534694  77.5882900  45.7284065  93.4205897  76.7204550
  36.3472851  90.1635436  70.2992699  35.5110164  90.5010123  70.6201974
  36.2077621  90.0284416  69.3619836  38.3225932  85.0072224  75.0071883
  37.6690344  84.6921241  74.3828498  38.2806406  84.3847964  75.7331706
  39.4337137  95.2891519  66.9225175  38.5264199  95.0580772  67.1216324
  39.9308169  94.4929138  67.1099157  42.3405216 103.9989026  69.8421861
  41.6666914 104.3020723  70.4506819  42.7271038 104.8018107  69.4927318
  41.5563672  91.4954157  79.3319531  40.6386234  91.7169104  79.1741219
  41.9723816  91.5700468  78.4731238  42.3398720  92.8945573  74.4622211
  43.0870539  93.4066970  74.1529333  42.6090310  92.5729626  75.3226605
  40.6125370  95.3904114  71.4449165  39.7036590  95.1063147  71.5421635
  40.6420454  95.8103192  70.5852472  45.8444638  99.0010703  75.2140333
  45.3906965  98.1601613  75.2705523  45.2138604  99.6372102  75.5515113
  44.7877557  89.9302689  76.4441000  44.0500314  89.4180076  76.7751243
  45.0404331  89.4903071  75.6324277  44.2877577 100.8387200  76.1490151
  44.5800551 101.3992257  75.4302517  44.7976197 101.1315761  76.9043310
  44.8889185  82.7078941  77.0382770  45.1948061  81.8476305  76.7508685
  45.6141789  83.2996562  76.8381763  31.1813541  93.1109628  75.4264368
  30.9837940  92.5178989  74.7015434  30.6260205  92.8061838  76.1440306
  39.1610264  93.0032734  77.5458961  39.2158874  92.0506571  77.4701437
  38.3501466  93.1592174  78.0300259  40.3101458  96.9312858  68.7837244
  39.8720888  96.2148716  68.3242881  41.0511899  97.1588972  68.2222335
  37.1002624  91.6209794  75.3049340  36.2870490  91.9203965  75.7114532
  37.5961618  91.2265483  76.0223822  39.2511202 101.6167551  77.2383604
  39.2087381 101.8428397  76.3092136  40.1673901 101.3830926  77.3869405
  42.6976836  92.0851619  84.1364233  43.0526224  92.3123092  84.9958699
  43.3448967  92.4169995  83.5141489  48.4274573  95.2070055  74.8413562
  48.2892471  95.3971651  73.9134752  48.0710792  95.9689437  75.2981614
  36.5916699  89.1928150  80.9210574  37.2316078  89.0516909  80.2233538
  35.7594230  88.9062663  80.5449176  48.4543952  97.2746582  79.8524834
  48.8880459  97.1821871  80.7007888  49.1675533  97.2504082  79.2144850
  37.3677003  98.4930580  77.0345567  38.1617601  97.9980900  76.8328142
  36.6568695  97.9648443  76.6713273  42.1871847 100.8748676  81.3857935
  42.2408870 101.4439612  82.1535650  41.3186629 101.0450561  81.0211972
  33.6759766  92.6373662  73.1105320  32.7457354  92.5758117  73.3275282
  33.7717238  92.1149615  72.3141961  33.5945315  89.1628475  75.6983561
  33.8552133  90.0773808  75.5892722  34.4162488  88.6952917  75.8480174
  35.0670241  90.5766232  82.8682386  35.7393294  90.3683594  82.2195035
  34.2400027  90.3788318  82.4287618  49.3159502  97.3170282  82.3857719
  49.5095392  98.2216093  82.6316994  49.2160120  96.8577701  83.2196304
  40.9695813  87.2028173  84.8848047  40.3223728  87.9018122  84.7912523
  41.7396828  87.6364317  85.2524295  44.3774611  97.4677025  87.9598600
  44.2260117  97.2387577  87.0428684  44.3679290  98.4247626  87.9729945
  41.1459947  95.0408938  82.9444866  42.0752007  95.1920097  82.7713834
  40.7250977  95.1292958  82.0893513  39.9448279  99.0659602  80.7143404
  39.8059365  98.6978387  81.5869342  39.1562875  99.5807242  80.5427362
  40.5396431 104.1668699  72.0568941  40.7148187 103.6956742  72.8714563
  39.8529219 104.7934465  72.2850201  41.4953494  98.4441205  78.1032242
  41.1603327  98.4041975  78.9989892  40.9957440  97.7785921  77.6302652
  35.4697738  93.8508835  83.6284823  35.3317536  93.1189074  84.2296362
  36.3802661  93.7617735  83.3469011  44.4312686  95.7897239  68.3769301
  43.8141856  95.0644067  68.2802354  43.9629174  96.5506599  68.0336376
  38.0980039  93.5628794  83.1168503  38.8079657  92.9221986  83.0755121
  38.0549347  93.8141689  84.0394683  46.0866817 100.4996148  86.0375082
  46.0279363  99.8155368  85.3705665  46.4886336 101.2415138  85.5855708
  36.8108973  90.5494012  84.9364142  36.2746330  90.0984751  85.5885738
  36.2225681  90.6839921  84.1934606  35.1057516 107.3158061  78.8308801
  35.3454114 107.9476586  79.5087819  34.2626713 106.9646101  79.1174160
  36.2211232  90.0082663  67.4990606  35.3440698  89.8871464  67.1352852
  36.6968985  89.2168742  67.2469494  46.0884225  98.4635731  84.2689062
  45.2011003  98.1261653  84.3915460  46.6582776  97.7318763  84.5057827
  27.7413372  94.7959823  77.5932113  28.4284412  94.4821553  77.0053128
  27.5861500  95.7001188  77.3199364  32.5448094  89.6850020  82.0217137
  32.4606283  89.0775689  81.2867547  31.7230800  90.1759038  82.0226633
  39.6185378 103.1237184  81.2350305  39.5455549 103.9292155  81.7469609
  39.1762771 103.3229150  80.4098326  39.4075158 102.3608954  74.7453126
  38.6242680 102.9030634  74.8391351  40.1067903 102.8782933  75.1447367
  42.7171808  88.1703583  77.3887332  43.2140507  87.4173546  77.0688402
  41.9458789  88.2067900  76.8230541  50.5701565  93.8743949  79.0305623
  50.5591441  94.7568664  78.6599556  49.7018945  93.5215500  78.8360160
  42.0784062 103.0224018  83.3908463  42.7912034 103.6571483  83.3184365
  41.5874090 103.1187884  82.5748465  43.8001588  96.9275271  74.9625755
  42.8657867  97.0476733  74.7930459  43.9778257  96.0247737  74.6985765
  39.3006776  90.3120966  77.1159016  38.9304564  89.7592007  77.8039922
  39.7965869  89.7079100  76.5634016  47.1874140  92.7692590  75.4975789
  47.6534592  93.6020581  75.4236092  47.6381640  92.3037571  76.2021048
  37.1295975 100.7718461  84.2114034  37.8305435 101.4054944  84.3643428
  36.6591090 101.1133193  83.4509673  45.2550371  99.1136411  72.4961941
  45.5310215  98.9993006  73.4055815  44.3854870  98.7153896  72.4574114
  45.1590803  85.1373177  79.5366691  44.2453882  85.3677404  79.7048897
  45.5883904  85.2211621  80.3880723  44.9297261  93.3263069  82.0366585
  44.2768711  93.5738976  81.3819037  45.3077641  92.5127207  81.7029062
  41.8904435 103.3622762  76.1394755  42.0726829 102.5444418  76.6022507
  42.7137421 103.5790454  75.7019645  42.2246600 102.2890947  73.4009803
  42.7534367 101.7783402  72.7879965  42.4874820 101.9733477  74.2655336
  40.9784834  94.0682880  88.5232622  40.3025471  93.9677009  89.1934997
  41.8012468  93.9122094  88.9868619  32.7263693 100.3054816  81.1445137
  33.3117130  99.5598504  81.2773041  32.5288532 100.6158773  82.0281801
  35.5802348 103.3406064  76.1607579  34.9112724 103.8252191  75.6771619
  35.4415218 103.5875284  77.0750958  27.3181348  92.8760417  79.8649580
  27.3565447  92.3424007  80.6586698  26.8121641  92.3495622  79.2460557
  39.7207617 105.3749807  82.7590238  40.2725925 105.5381429  83.5239323
  40.0613810 105.9654245  82.0870262  34.6972110  87.7224957  83.3612122
  34.7613437  88.5839788  82.9489520  34.6339230  87.1098959  82.6284481
  34.1724383  89.7948090  87.0085157  34.7996421  89.4125167  87.6222681
  33.3152302  89.5762292  87.3740849  44.5718491 100.2011065  88.6138892
  45.1158395 100.8141023  88.1193847  43.9905336 100.7590643  89.1305905
  30.9489925  91.6024519  72.9403511  31.2443367  90.6935197  72.8870565
  30.0477961  91.5812258  72.6184514  42.8576004 103.3231783  79.7453920
  42.7327144 102.5221523  79.2364865  43.5155095 103.8177976  79.2567890
  34.4784172  89.6780515  78.9231060  33.7570758  90.2916483  78.7838533
  35.2677428  90.2138280  78.8447706  44.9210913 101.1240803  81.3733470
  43.9741248 101.0046154  81.3011797  45.2693686 100.2363301  81.4559731
  37.2810486  87.0134942  85.1971712  37.8044888  87.2597238  85.9598021
  37.0622819  87.8454977  84.7774849  32.6777767  89.2838616  73.0642837
  32.3490473  88.4035995  72.8817942  33.0317138  89.2286285  73.9519226
  41.9257346 100.9193519  77.5737822  41.7782308  99.9910226  77.7545392
  42.7510839 100.9413610  77.0894897  35.7919590  89.5711586  73.4318314
  36.1315663  90.0997507  72.7096923  36.2391711  89.9091992  74.2076881
  45.5291468 101.7422078  78.6602695  46.4538015 101.5364939  78.5227146
  45.3606771 101.4938479  79.5692036  38.4863031  87.9548637  82.8821382
  38.1459851  87.1556450  83.2842062  37.7802037  88.2550348  82.3098215
  39.1379503  85.0397949  81.3348705  39.9605572  84.5658428  81.2127596
  39.3817566  85.8188433  81.8347392  37.7787737  88.0686208  71.6311607
  38.4996100  88.4467461  71.1275324  37.1553041  88.7875085  71.7346585
  41.9218860  88.7731357  72.5669939  42.1382475  89.6555995  72.2658767
  41.4412927  88.3817570  71.8375581  36.6618082  91.7317070  79.1440684
  36.5162662  92.0457373  80.0364965  36.1843285  92.3501970  78.5911583
  38.5214464  88.7219618  79.1921573  38.5076033  87.8260711  78.8553871
  39.2386893  88.7290282  79.8259860  40.3740595  89.1556958  81.2374701
  40.1158373  90.0774029  81.2359031  39.8425636  88.7587393  81.9275165
  45.3186784 102.2607745  74.0164786  45.4923661 101.6954168  73.2638639
  45.8115675 103.0608640  73.8344276  31.1363744  94.2722414  82.0828345
  30.5917212  95.0482222  82.2148619  32.0143094  94.6193219  81.9247467
  37.9251360  87.6033998  74.4609144  38.0467272  86.6750644  74.6600031
  37.6353403  87.6172684  73.5487459  40.7942551  85.2888909  77.5975863
  40.8164248  85.3528242  76.6427843  41.2110610  84.4493417  77.7916370
  51.1726175  95.0244168  75.6355086  51.6157321  94.2751493  75.2374209
  50.2952685  95.0154305  75.2528818  46.3061956 101.5774510  71.1161685
  47.0012861 102.1981202  71.3348999  46.6485107 100.7269861  71.3914062
  31.9229766  93.3992311  84.9758502  31.1811502  93.5474946  85.5623132
  31.6022510  93.6600576  84.1125251  48.2053380  99.0274215  72.6449015
  48.7304704  99.3661488  71.9198335  48.1175732  98.0921231  72.4612150
  39.8673428 102.9408289  84.7738892  40.1760555 102.6957436  85.6461592
  40.6648910 103.1454927  84.2857762  39.8894040 105.0946198  77.0044269
  39.4499031 104.6022577  77.6977125  40.6402157 104.5519166  76.7636344
  32.3686379 101.2857739  77.0068897  33.1944399 100.9861511  76.6267540
  32.0180431 100.5165362  77.4558685  37.3367912 100.6384208  79.0766570
  36.7147922  99.9754913  78.7768798  38.0072779 100.6645339  78.3940218
  30.5694984  99.2044066  77.9657830  29.7326893  98.7766240  77.7841831
  30.5418630  99.3976509  78.9028621  37.4092440  89.1165996  88.6699076
  37.4580595  89.9928118  88.2876846  37.9514954  88.5743389  88.0970719
  47.8947286  99.6607119  87.9500213  47.1042829  99.6431258  87.4104713
  47.6580640 100.1995413  88.7049250  48.0145161  96.5099585  85.2632942
  48.0643166  96.3449593  86.2048465  47.9059084  95.6426844  84.8730823
  36.8981419  99.1888131  72.5525031  37.0469540  99.8723595  71.8991703
  37.7047863  99.1693221  73.0674486  45.3048923  92.4930513  86.5792249
  46.2058786  92.3536978  86.2876246  45.3796898  92.6584968  87.5190426
  39.6391728  89.8697368  85.4245435  38.7695038  90.1630934  85.1528023
  39.8751209  90.4537813  86.1452699  49.5163357  98.9296527  85.5074963
  49.2248166  99.2926507  86.3438424  48.9035489  98.2163535  85.3288295
  50.7159040  96.4949407  78.0277534  51.5505931  96.9339211  78.1915094
  50.8518169  96.0188060  77.2085779  47.7650546  94.0529141  83.9755021
  48.2404667  94.2456788  83.1673873  46.8416111  94.1088327  83.7298405
  34.6534052  95.2153309  73.5586100  34.4080094  94.3115639  73.7566310
  34.8229967  95.2170459  72.6165578  42.3430762  86.0876985  82.9410855
  42.8612706  86.8238012  82.6157344  41.9885895  86.3940978  83.7757614
  33.9229700  90.9481666  71.0572261  33.2298945  91.0226021  70.4012297
  33.6781452  90.1842010  71.5793778  42.5943356  82.5077267  78.4611752
  42.8745110  81.8400457  79.0872178  43.3793963  82.7006363  77.9486416
  40.3976825 101.6836261  70.0236778  39.8250792 102.3026448  69.5707250
  40.9709619 102.2335623  70.5576700  46.4652215  90.9294901  82.2083327
  47.4169638  91.0292999  82.2295551  46.2955665  90.1373170  82.7181411
  44.4866594  88.0150485  82.3942728  43.8916526  88.2955497  81.6989217
  44.2016291  88.5044386  83.1659469  43.6174085 101.9673411  71.1545360
  44.5504758 101.9018973  71.3578236  43.5297297 102.8029678  70.6959893
  46.2462101 101.2839282  68.1149308  46.1675733 100.9499145  69.0085066
  47.0671768 101.7761050  68.1140780  48.9440293  94.1501021  81.3225627
  48.9116613  93.2117022  81.5085310  49.5540916  94.2285058  80.5891451
  40.7823623  93.0197074  67.3652831  41.7282728  92.8903282  67.4341249
  40.4037868  92.2811736  67.8422259  49.0934781  90.9412065  81.3683910
  48.5773830  90.1570521  81.1813839  49.9774730  90.6130781  81.5330429
  46.7545508  84.6853080  77.3279722  46.5570329  84.3768168  78.2123054
  47.3645213  85.4114719  77.4577652  54.7616842  95.2117028  80.4631663
  55.4920231  94.9502316  81.0239367  54.1523788  94.4745750  80.5033731
  52.8432139  93.3524891  81.0606115  52.1165303  93.2180855  80.4522606
  52.4279426  93.6601719  81.8662833  40.6662316  97.0714820  88.8253488
  41.5865325  97.2493419  89.0193534  40.6311899  96.1270866  88.6733187
  38.9666541  90.9447050  67.3007716  38.0597996  90.6480163  67.3770429
  39.2442522  90.6476869  66.4342002  29.8844481  92.2653414  77.7506762
  29.5647265  91.4118722  77.4581136  29.3377909  92.4801992  78.5064730
  33.6624388  94.9815855  81.4676269  33.8810398  95.9132963  81.4864303
  34.0750162  94.6223829  82.2531073  40.5828606  85.4883940  73.4551957
  39.7729335  85.1431025  73.8307203  41.2713023  85.1791484  74.0439569
  42.5119155  84.5661987  75.0776254  43.0650193  84.9857440  75.7366277
  42.7489241  83.6397735  75.1199210  38.5352254  90.5549061  90.8579018
  38.4348981  91.5043418  90.7891109  38.3173796  90.2267300  89.9855088
  37.7365325  87.8033986  67.4419695  38.5984489  88.1288884  67.7015512
  37.9215669  87.0165482  66.9292761  29.7532741  95.8856325  79.7199884
  29.0596212  95.4710278  79.2069838  30.5005732  95.9276862  79.1233303
  45.8897962  86.6762512  74.5854918  45.3096631  87.3347316  74.2032970
  45.6233894  85.8539857  74.1742336  44.3401528  86.0767570  76.7876238
  44.8401306  86.1884104  75.9790557  44.9837136  85.7728623  77.4277047
  38.3983524  93.9846200  89.6744079  37.9150606  94.7846560  89.8807968
  38.4844463  93.9954144  88.7211523  31.6669483  95.8174579  77.5965899
  31.6440172  95.9162266  76.6447782  31.9770120  96.6639730  77.9183065
  34.3256861  97.8750734  81.7112513  35.2800115  97.8434677  81.6442445
  34.1269385  97.4141358  82.5262739  34.9156243  96.4451850  84.2783311
  35.7349132  96.9395929  84.3018148  35.1893051  95.5283818  84.2500878
  44.6722840  88.8362603  73.6411266  43.7848695  89.1212253  73.4231461
  45.0876829  88.6756366  72.7938543  48.0237376  88.8609124  77.3565606
  48.7997766  89.3505576  77.6290222  47.2985510  89.2867178  77.8137475
  50.4609934  89.5736743  78.4139546  51.0554425  89.3332479  77.7032854
  50.5336518  88.8543873  79.0413083  32.6807090 103.4170354  78.7282711
  32.5461558 102.6570755  78.1620709  32.2639152 104.1411254  78.2611500
  43.8166053  98.6007277  67.7359286  44.5201903  98.8057280  68.3516942
  43.0928702  99.1684039  68.0008370  44.6463863  94.3517138  73.8561556
  44.5899065  94.8085690  73.0169189  45.1992206  93.5907823  73.6784399
  48.4568669  90.1406870  74.6811676  48.2005604  89.7403506  75.5119884
  47.8321537  90.8550664  74.5561815  52.7681007  92.8802944  77.1882967
  52.2080565  92.9496133  77.9614529  52.1624511  92.7043928  76.4682464
  35.8376216 104.3139671  78.9401154  35.7208600 105.2585103  78.8379844
  35.0168662 104.0113232  79.3286953  45.7252751  99.0389806  69.7857746
  46.5598354  98.6071005  69.6035221  45.5637093  98.8671820  70.7134641
  45.3798643  95.5421920  71.1514086  45.3247446  95.3766191  70.2102530
  44.7544698  96.2497953  71.3076275  30.1691158  90.7789984  84.9775508
  30.8150021  90.2688938  85.4662733  29.9608309  91.5158666  85.5518933
  42.6944550  97.8470832  90.4767648  43.5635710  98.0211484  90.1154283
  42.2151301  98.6665248  90.3543378  38.6894768  85.0430029  70.7299404
  38.6773438  85.9871869  70.8867675  39.5818190  84.8600174  70.4358865
  36.8630730 104.9667933  82.1557082  37.7657977 104.9991543  82.4723577
  36.6368100 104.0368384  82.1703418  38.6184332 103.7198919  78.8167161
  37.6679963 103.7200781  78.7031533  38.9216818 102.9731654  78.3003195
  42.5046888  81.6372805  74.9845341  41.7379283  81.0831292  75.1302023
  42.9157593  81.7094674  75.8459493  34.5088649  87.9257601  89.0750522
  35.3720110  87.5694406  89.2853847  33.9354059  87.5871496  89.7625926
  54.3537026 109.5559458  79.8812923  54.9915436 109.4366205  79.1776263
  54.2357868 110.5040301  79.9400875  51.1626732 109.5086886  79.8174448
  50.8245243 109.3927950  78.9294983  52.0316500 109.1078051  79.7975454
  47.0213548 111.3622362  75.8071339  46.4578413 111.2712299  75.0387627
  46.9065943 110.5422267  76.2873831  51.6446515 110.6621737  85.7760653
  51.6335156 110.2674536  84.9041157  51.8067154 109.9287810  86.3694425
  44.5677980 112.8573554  78.6455559  45.3599271 112.5164378  78.2301859
  44.8074630 112.9668529  79.5657713  52.6013106 115.0293330  71.1185804
  51.9501086 115.6147410  70.7319817  53.3957469 115.5599525  71.1780841
  46.5268733 112.1182467  71.5172938  47.2999609 111.5711454  71.3785814
  46.8794132 112.9826716  71.7287399  48.3653776 113.4458849  84.7239837
  48.0743642 114.3504480  84.6086504  49.0010760 113.4875377  85.4383907
  49.2909983 110.8235698  81.3141197  49.8873555 110.5991720  80.5998160
  49.3484954 110.0820443  81.9166645  48.8635011 108.2775133  69.1491388
  49.1160532 107.7556654  68.3874851  47.9259570 108.1141278  69.2518072
  53.9078294 107.2810911  76.9566131  54.6941383 106.8630335  76.6056548
  54.1716998 108.1857004  77.1247780  54.0788371 112.7183762  71.6554788
  53.4434204 112.7918388  72.3675693  53.7485778 113.3077361  70.9773867
  59.3086721 107.2186145  77.8599110  60.0411893 106.6485361  78.0936939
  58.5526077 106.8307745  78.3005615  48.5831300 110.1803239  71.3515763
  48.4667558 109.5048142  72.0196847  48.6933560 109.6935613  70.5347916
  50.9262841 109.6413386  75.0562452  50.5621048 109.1144007  75.7675374
  51.7829957 109.2511855  74.8828938  56.8312142 100.9307719  82.3193718
  56.4995466 101.8003130  82.0954933  56.2357755 100.6144003  82.9987749
  50.5668328 104.6703286  70.0523801  50.7342730 105.5383522  70.4194272
  50.3765497 104.8330567  69.1285090  53.3243661 113.1320265  81.7189631
  53.0244384 114.0345303  81.6105438  52.9794721 112.8652448  82.5710784
  46.7756143 109.5834062  77.7526335  45.8506639 109.4510276  77.9604027
  47.0240556 110.3628281  78.2496278  56.7240805 105.6502805  79.3987068
  55.8157682 105.5818213  79.1045829  56.6728401 106.1274750  80.2268894
  50.5457549 107.1260943  71.0370467  50.4257174 107.5717994  71.8755948
  49.8510137 107.4746261  70.4784006  44.1364954 109.2267335  78.5870125
  44.2657335 109.4801814  79.5009536  43.4562405 109.8195043  78.2674780
  48.3064441 119.8964585  74.6860599  48.2288471 120.8472410  74.7649079
  47.7026084 119.5510458  75.3435525  50.7981671 107.0692450  87.3421966
  50.0215005 107.6286371  87.3324830  51.4372234 107.5549233  87.8636836
  58.5902451 103.8519243  81.1764942  57.9476832 104.1451776  80.5304737
  58.0857380 103.7372164  81.9818139  56.2442615 107.5982416  71.8650802
  57.1560471 107.8309803  71.6898499  55.7352262 108.1819461  71.3025880
  49.0528043 109.8777904  86.9039933  49.7942727 110.4162948  86.6274756
  48.3465028 110.5044193  87.0611484  54.5283383 112.0207044  85.5012094
  54.9366739 111.5789455  84.7566726  53.8060644 111.4459672  85.7546287
  50.8814453 106.9579651  82.8745651  51.7275648 107.3819065  83.0180300
  50.8213090 106.3013275  83.5684214  54.8512197 112.5808235  79.2564383
  54.2221060 112.7453949  78.5540451  54.4637859 112.9949844  80.0275347
  58.7301429 113.5162673  76.6108747  58.0452467 113.8961574  76.0605780
  58.8145278 114.1257999  77.3440695  54.0313898 104.6184019  84.5326825
  53.7874830 105.3726080  83.9961100  54.3073829 104.9969367  85.3674072
  55.9852361 111.1622632  83.2104090  56.1969256 111.8054392  82.5338471
  55.9382109 110.3284948  82.7426020  53.5878590 103.7740452  80.1140662
  52.7263069 104.0721706  80.4057400  53.6141024 103.9910851  79.1821695
  50.4040159 112.3182643  76.5214468  50.8678505 112.5970346  75.7319091
  50.1396957 111.4166088  76.3387559  47.2964240 111.8654125  79.4594231
  47.8665597 112.2941393  78.8211716  47.8872352 111.5836709  80.1578417
  49.3409045 108.4405795  73.3304033  50.0433089 108.8926839  73.7977960
  49.0089674 107.7989614  73.9583926  47.7889407 107.0317552  87.7055243
  47.1588067 107.7133833  87.9390639  47.6825495 106.9200634  86.7608381
  43.0834379 106.6989348  78.6321167  42.2933433 106.9546877  78.1561277
  43.5745627 107.5137686  78.7373207  57.0998189 114.0394587  81.3826448
  57.9215632 113.6374774  81.1009129  57.0960592 113.9362821  82.3342563
  45.0349125 107.0633927  75.5904643  44.2380288 107.1752622  76.1088139
  44.8074717 107.4020579  74.7245534  50.8654792 113.5878631  83.5387158
  50.9299225 114.0499038  84.3745330  50.1565716 112.9575995  83.6669468
  41.3672082 106.9519838  81.0636158  41.6180121 107.8366848  81.3293734
  41.9031631 106.7724440  80.2911249  65.1904182 110.3833336  77.7311419
  64.4367890 109.8140734  77.5755424  65.3251723 110.3496000  78.6782054
  50.5802810 115.2546738  73.4066138  50.4448485 116.0998274  73.8350986
  51.1212622 115.4566016  72.6432072  47.0670149 101.3338318  90.0680494
  46.6737095 100.7804516  90.7428138  47.8836290 101.6448896  90.4587011
  44.0332207 112.7722176  73.9794064  44.5456728 113.5665426  74.1299628
  44.6854920 112.0748466  73.9127665  45.8427092 115.8887932  76.0616817
  46.0193720 116.8105897  75.8737801  46.6383925 115.5746352  76.4911196
  49.9838110 102.7496197  87.6600750  50.7247824 103.3503350  87.5805213
  50.2156033 102.0073835  87.1018793  45.1279448 107.9352564  85.9378980
  45.0132964 107.0337821  86.2386079  44.2723966 108.1816261  85.5863796
  52.2071286 115.8770305  87.5366481  51.7635140 115.0906683  87.2187385
  52.8688500 116.0649455  86.8710371  46.9658407 117.4066106  82.0627159
  47.5165832 117.2783169  81.2904153  46.1269883 117.7060995  81.7122052
  54.3052524 116.1573104  85.5647882  54.2871000 116.9781985  85.0728151
  55.2272444 116.0327180  85.7898023  50.7625578 113.6717234  86.4071390
  51.2953915 112.9105522  86.1770698  50.2339660 113.3790886  87.1495545
  53.9295273  98.7777300  81.9365032  53.5859543  99.6678942  81.8604142
  54.2974236  98.5878958  81.0734617  41.9981124 111.1010830  74.7553634
  42.8356346 111.5107839  74.5387342  42.1759392 110.1610272  74.7253828
  53.8945556 108.7685911  70.4437467  53.3792180 109.5390516  70.6825854
  53.6222865 108.0951047  71.0670528  51.4792667 103.6135612  75.5022705
  50.6234263 103.2242462  75.3228344  51.8919619 103.6927573  74.6422491
  53.0091814 101.1481955  79.9014265  52.5056609 101.1112090  79.0882070
  53.3022421 102.0574698  79.9610922  49.2534700 101.2320685  78.9080447
  50.1187696 101.0363493  78.5486336  49.3212209 101.0031037  79.8349804
  58.8679830 111.5218266  72.3790641  58.0909273 111.1829425  71.9345803
  59.5471311 111.5270889  71.7045606  53.6831859 106.6413003  72.2697248
  53.3781995 106.9559152  73.1207391  54.6362301 106.7194423  72.3124581
  52.1278291 112.8003226  73.9190202  51.5999653 112.0655986  73.6063440
  51.6265794 113.5777903  73.6730171  57.1071137 110.9952247  79.0357248
  56.4494812 111.6851508  79.1237377  57.9111536 111.3848679  79.3791235
  46.8597019 103.4622893  76.2796814  47.4340771 103.2398074  75.5470007
  47.4468001 103.5311587  77.0325415  55.9176596 109.3496620  77.0861190
  56.4308478 109.9826611  77.5882900  56.5677820 108.7497815  76.7204550
  47.1866606 105.4927354  70.2992699  46.3503918 105.8302040  70.6201974
  47.0471375 105.3576333  69.3619836  49.1619686 100.3364142  75.0071883
  48.5084099 100.0213159  74.3828498  49.1200161  99.7139882  75.7331706
  50.2730891 110.6183437  66.9225175  49.3657953 110.3872690  67.1216324
  50.7701923 109.8221056  67.1099157  53.1798970 119.3280944  69.8421861
  52.5060669 119.6312641  70.4506819  53.5664792 120.1310024  69.4927318
  52.3957427 106.8246075  79.3319531  51.4779988 107.0461022  79.1741219
  52.8117570 106.8992386  78.4731238  53.1792475 108.2237491  74.4622211
  53.9264294 108.7358888  74.1529333  53.4484064 107.9021544  75.3226605
  51.4519125 110.7196032  71.4449165  50.5430344 110.4355064  71.5421635
  51.4814209 111.1395110  70.5852472  56.6838392 114.3302621  75.2140333
  56.2300719 113.4893531  75.2705523  56.0532359 114.9664019  75.5515113
  55.6271312 105.2594607  76.4441000  54.8894069 104.7471993  76.7751243
  55.8798085 104.8194989  75.6324277  55.1271331 116.1679118  76.1490151
  55.4194306 116.7284175  75.4302517  55.6369952 116.4607679  76.9043310
  55.7282939  98.0370859  77.0382770  56.0341816  97.1768222  76.7508685
  56.4535544  98.6288479  76.8381763  42.0207295 108.4401546  75.4264368
  41.8231695 107.8470906  74.7015434  41.4653959 108.1353756  76.1440306
  50.0004019 108.3324652  77.5458961  50.0552629 107.3798489  77.4701437
  49.1895221 108.4884091  78.0300259  51.1495213 112.2604775  68.7837244
  50.7114642 111.5440634  68.3242881  51.8905653 112.4880890  68.2222335
  47.9396379 106.9501712  75.3049340  47.1264244 107.2495882  75.7114532
  48.4355373 106.5557401  76.0223822  50.0904957 116.9459469  77.2383604
  50.0481135 117.1720315  76.3092136  51.0067655 116.7122843  77.3869405
  53.5370590 107.4143536  84.1364233  53.8919978 107.6415009  84.9958699
  54.1842722 107.7461913  83.5141489  59.2668327 110.5361972  74.8413562
  59.1286226 110.7263568  73.9134752  58.9104546 111.2981355  75.2981614
  47.4310453 104.5220067  80.9210574  48.0709833 104.3808826  80.2233538
  46.5987984 104.2354581  80.5449176  59.2937707 112.6038499  79.8524834
  59.7274214 112.5113788  80.7007888  60.0069288 112.5796000  79.2144850
  48.2070757 113.8222498  77.0345567  49.0011356 113.3272818  76.8328142
  47.4962450 113.2940361  76.6713273  53.0265602 116.2040593  81.3857935
  53.0802624 116.7731530  82.1535650  52.1580383 116.3742478  81.0211972
  44.5153521 107.9665580  73.1105320  43.5851109 107.9050035  73.3275282
  44.6110993 107.4441532  72.3141961  44.4339070 104.4920392  75.6983561
  44.6945887 105.4065726  75.5892722  45.2556242 104.0244835  75.8480174
  45.9063995 105.9058150  82.8682386  46.5787049 105.6975512  82.2195035
  45.0793782 105.7080236  82.4287618  60.1553257 112.6462200  82.3857719
  60.3489147 113.5508010  82.6316994  60.0553875 112.1869619  83.2196304
  51.8089567 102.5320090  84.8848047  51.1617482 103.2310040  84.7912523
  52.5790583 102.9656234  85.2524295  55.2168365 112.7968943  87.9598600
  55.0653872 112.5679494  87.0428684  55.2073045 113.7539544  87.9729945
  51.9853702 110.3700855  82.9444866  52.9145762 110.5212015  82.7713834
  51.5644732 110.4584876  82.0893513  50.7842033 114.3951520  80.7143404
  50.6453119 114.0270304  81.5869342  49.9956630 114.9099159  80.5427362
  51.3790185 119.4960616  72.0568941  51.5541941 119.0248659  72.8714563
  50.6922973 120.1226382  72.2850201  52.3347249 113.7733122  78.1032242
  51.9997081 113.7333892  78.9989892  51.8351194 113.1077838  77.6302652
  46.3091492 109.1800753  83.6284823  46.1711290 108.4480991  84.2296362
  47.2196416 109.0909653  83.3469011  55.2706440 111.1189157  68.3769301
  54.6535611 110.3935985  68.2802354  54.8022929 111.8798517  68.0336376
  48.9373793 108.8920712  83.1168503  49.6473412 108.2513904  83.0755121
  48.8943101 109.1433607  84.0394683  56.9260572 115.8288065  86.0375082
  56.8673118 115.1447285  85.3705665  57.3280090 116.5707055  85.5855708
  47.6502727 105.8785930  84.9364142  47.1140084 105.4276668  85.5885738
  47.0619436 106.0131839  84.1934606  45.9451271 122.6449979  78.8308801
  46.1847869 123.2768503  79.5087819  45.1020467 122.2938019  79.1174160
  47.0604986 105.3374581  67.4990606  46.1834452 105.2163382  67.1352852
  47.5362739 104.5460659  67.2469494  56.9277979 113.7927649  84.2689062
  56.0404758 113.4553571  84.3915460  57.4976530 113.0610680  84.5057827
  38.5807126 110.1251741  77.5932113  39.2678166 109.8113471  77.0053128
  38.4255255 111.0293106  77.3199364  43.3841848 105.0141937  82.0217137
  43.3000037 104.4067607  81.2867547  42.5624555 105.5050956  82.0226633
  50.4579132 118.4529101  81.2350305  50.3849304 119.2584073  81.7469609
  50.0156526 118.6521067  80.4098326  50.2468912 117.6900872  74.7453126
  49.4636434 118.2322552  74.8391351  50.9461657 118.2074851  75.1447367
  53.5565562 103.4995501  77.3887332  54.0534262 102.7465463  77.0688402
  52.7852544 103.5359818  76.8230541  61.4095320 109.2035866  79.0305623
  61.3985196 110.0860582  78.6599556  60.5412699 108.8507417  78.8360160
  52.9177816 118.3515936  83.3908463  53.6305788 118.9863400  83.3184365
  52.4267845 118.4479801  82.5748465  54.6395343 112.2567188  74.9625755
  53.7051622 112.3768651  74.7930459  54.8172011 111.3539655  74.6985765
  50.1400531 105.6412884  77.1159016  49.7698318 105.0883924  77.8039922
  50.6359623 105.0371017  76.5634016  58.0267894 108.0984507  75.4975789
  58.4928346 108.9312499  75.4236092  58.4775395 107.6329489  76.2021048
  47.9689730 116.1010379  84.2114034  48.6699189 116.7346862  84.3643428
  47.4984845 116.4425111  83.4509673  56.0944125 114.4428329  72.4961941
  56.3703969 114.3284923  73.4055815  55.2248624 114.0445814  72.4574114
  55.9984557 100.4665094  79.5366691  55.0847637 100.6969321  79.7048897
  56.4277658 100.5503539  80.3880723  55.7691016 108.6554986  82.0366585
  55.1162466 108.9030894  81.3819037  56.1471395 107.8419125  81.7029062
  52.7298189 118.6914680  76.1394755  52.9120584 117.8736336  76.6022507
  53.5531175 118.9082372  75.7019645  53.0640355 117.6182865  73.4009803
  53.5928121 117.1075319  72.7879965  53.3268574 117.3025395  74.2655336
  51.8178589 109.3974797  88.5232622  51.1419226 109.2968927  89.1934997
  52.6406222 109.2414011  88.9868619  43.5657448 115.6346734  81.1445137
  44.1510884 114.8890422  81.2773041  43.3682286 115.9450691  82.0281801
  46.4196103 118.6697981  76.1607579  45.7506478 119.1544109  75.6771619
  46.2808973 118.9167202  77.0750958  38.1575102 108.2052334  79.8649580
  38.1959202 107.6715925  80.6586698  37.6515395 107.6787540  79.2460557
  50.5601371 120.7041725  82.7590238  51.1119679 120.8673346  83.5239323
  50.9007565 121.2946163  82.0870262  45.5365865 103.0516875  83.3612122
  45.6007191 103.9131706  82.9489520  45.4732985 102.4390876  82.6284481
  45.0118137 105.1240007  87.0085157  45.6390176 104.7417085  87.6222681
  44.1546056 104.9054209  87.3740849  55.4112246 115.5302982  88.6138892
  55.9552150 116.1432941  88.1193847  54.8299091 116.0882561  89.1305905
  41.7883680 106.9316436  72.9403511  42.0837121 106.0227115  72.8870565
  40.8871716 106.9104176  72.6184514  53.6969759 118.6523700  79.7453920
  53.5720898 117.8513440  79.2364865  54.3548850 119.1469894  79.2567890
  45.3177927 105.0072433  78.9231060  44.5964513 105.6208401  78.7838533
  46.1071183 105.5430198  78.8447706  55.7604667 116.4532721  81.3733470
  54.8135003 116.3338072  81.3011797  56.1087440 115.5655219  81.4559731
  48.1204240 102.3426859  85.1971712  48.6438642 102.5889156  85.9598021
  47.9016574 103.1746894  84.7774849  43.5171522 104.6130534  73.0642837
  43.1884228 103.7327913  72.8817942  43.8710892 104.5578203  73.9519226
  52.7651100 116.2485437  77.5737822  52.6176063 115.3202144  77.7545392
  53.5904594 116.2705527  77.0894897  46.6313345 104.9003504  73.4318314
  46.9709417 105.4289425  72.7096923  47.0785465 105.2383910  74.2076881
  56.3685222 117.0713995  78.6602695  57.2931770 116.8656857  78.5227146
  56.2000526 116.8230397  79.5692036  49.3256785 103.2840555  82.8821382
  48.9853606 102.4848368  83.2842062  48.6195792 103.5842265  82.3098215
  49.9773257 100.3689867  81.3348705  50.7999327  99.8950345  81.2127596
  50.2211321 101.1480351  81.8347392  48.6181492 103.3978125  71.6311607
  49.3389854 103.7759378  71.1275324  47.9946796 104.1167002  71.7346585
  52.7612615 104.1023274  72.5669939  52.9776229 104.9847912  72.2658767
  52.2806682 103.7109488  71.8375581  47.5011836 107.0608988  79.1440684
  47.3556417 107.3749291  80.0364965  47.0237040 107.6793888  78.5911583
  49.3608219 104.0511536  79.1921573  49.3469788 103.1552629  78.8553871
  50.0780647 104.0582199  79.8259860  51.2134350 104.4848876  81.2374701
  50.9552127 105.4065946  81.2359031  50.6819390 104.0879310  81.9275165
  56.1580538 117.5899663  74.0164786  56.3317416 117.0246085  73.2638639
  56.6509430 118.3900558  73.8344276  41.9757498 109.6014332  82.0828345
  41.4310966 110.3774140  82.2148619  42.8536848 109.9485136  81.9247467
  48.7645115 102.9325916  74.4609144  48.8861026 102.0042562  74.6600031
  48.4747157 102.9464602  73.5487459  51.6336305 100.6180826  77.5975863
  51.6558002 100.6820159  76.6427843  52.0504364  99.7785335  77.7916370
  62.0119930 110.3536086  75.6355086  62.4551076 109.6043411  75.2374209
  61.1346440 110.3446222  75.2528818  57.1455711 116.9066427  71.1161685
  57.8406616 117.5273120  71.3348999  57.4878861 116.0561779  71.3914062
  42.7623520 108.7284228  84.9758502  42.0205256 108.8766864  85.5623132
  42.4416264 108.9892494  84.1125251  59.0447134 114.3566133  72.6449015
  59.5698458 114.6953406  71.9198335  58.9569487 113.4213148  72.4612150
  50.7067183 118.2700207  84.7738892  51.0154309 118.0249353  85.6461592
  51.5042665 118.4746845  84.2857762  50.7287795 120.4238116  77.0044269
  50.2892785 119.9314495  77.6977125  51.4795912 119.8811084  76.7636344
  43.2080134 116.6149657  77.0068897  44.0338154 116.3153429  76.6267540
  42.8574186 115.8457279  77.4558685  48.1761667 115.9676125  79.0766570
  47.5541676 115.3046830  78.7768798  48.8466534 115.9937257  78.3940218
  41.4088739 114.5335983  77.9657830  40.5720647 114.1058158  77.7841831
  41.3812384 114.7268427  78.9028621  48.2486194 104.4457913  88.6699076
  48.2974350 105.3220036  88.2876846  48.7908709 103.9035306  88.0970719
  58.7341040 114.9899037  87.9500213  57.9436584 114.9723175  87.4104713
  58.4974395 115.5287330  88.7049250  58.8538915 111.8391503  85.2632942
  58.9036920 111.6741510  86.2048465  58.7452838 110.9718762  84.8730823
  47.7375174 114.5180049  72.5525031  47.8863294 115.2015513  71.8991703
  48.5441617 114.4985139  73.0674486  56.1442678 107.8222431  86.5792249
  57.0452540 107.6828896  86.2876246  56.2190652 107.9876886  87.5190426
  50.4785483 105.1989286  85.4245435  49.6088792 105.4922852  85.1528023
  50.7144963 105.7829731  86.1452699  60.3557112 114.2588444  85.5074963
  60.0641920 114.6218425  86.3438424  59.7429243 113.5455453  85.3288295
  61.5552794 111.8241324  78.0277534  62.3899686 112.2631128  78.1915094
  61.6911923 111.3479977  77.2085779  58.6044300 109.3821059  83.9755021
  59.0798422 109.5748705  83.1673873  57.6809866 109.4380245  83.7298405
  45.4927807 110.5445226  73.5586100  45.2473849 109.6407556  73.7566310
  45.6623721 110.5462377  72.6165578  53.1824517 101.4168903  82.9410855
  53.7006461 102.1529930  82.6157344  52.8279649 101.7232896  83.7757614
  44.7623454 106.2773584  71.0572261  44.0692699 106.3517939  70.4012297
  44.5175206 105.5133927  71.5793778  53.4337111  97.8369185  78.4611752
  53.7138865  97.1692374  79.0872178  54.2187718  98.0298281  77.9486416
  51.2370579 117.0128179  70.0236778  50.6644546 117.6318366  69.5707250
  51.8103373 117.5627541  70.5576700  57.3045969 106.2586819  82.2083327
  58.2563392 106.3584917  82.2295551  57.1349420 105.4665088  82.7181411
  55.3260349 103.3442402  82.3942728  54.7310281 103.6247415  81.6989217
  55.0410045 103.8336303  83.1659469  54.4567839 117.2965329  71.1545360
  55.3898512 117.2310891  71.3578236  54.3691052 118.1321596  70.6959893
  57.0855856 116.6131200  68.1149308  57.0069487 116.2791063  69.0085066
  57.9065523 117.1052967  68.1140780  59.7834047 109.4792939  81.3225627
  59.7510367 108.5408940  81.5085310  60.3934671 109.5576976  80.5891451
  51.6217378 108.3488992  67.3652831  52.5676483 108.2195200  67.4341249
  51.2431623 107.6103654  67.8422259  59.9328535 106.2703982  81.3683910
  59.4167584 105.4862439  81.1813839  60.8168484 105.9422699  81.5330429
  57.5939262 100.0144998  77.3279722  57.3964084  99.7060086  78.2123054
  58.2038968 100.7406637  77.4577652  65.6010597 110.5408946  80.4631663
  66.3313985 110.2794234  81.0239367  64.9917542 109.8037668  80.5033731
  63.6825894 108.6816808  81.0606115  62.9559058 108.5472773  80.4522606
  63.2673181 108.9893637  81.8662833  51.5056070 112.4006738  88.8253488
  52.4259080 112.5785337  89.0193534  51.4705653 111.4562783  88.6733187
  49.8060295 106.2738968  67.3007716  48.8991750 105.9772081  67.3770429
  50.0836276 105.9768786  66.4342002  40.7238235 107.5945332  77.7506762
  40.4041020 106.7410640  77.4581136  40.1771664 107.8093910  78.5064730
  44.5018143 110.3107773  81.4676269  44.7204153 111.2424880  81.4864303
  44.9143917 109.9515747  82.2531073  51.4222361 100.8175858  73.4551957
  50.6123089 100.4722943  73.8307203  52.1106778 100.5083402  74.0439569
  53.3512909  99.8953905  75.0776254  53.9043948 100.3149358  75.7366277
  53.5882995  98.9689653  75.1199210  49.3746008 105.8840978  90.8579018
  49.2742735 106.8335335  90.7891109  49.1567550 105.5559217  89.9855088
  48.5759080 103.1325903  67.4419695  49.4378244 103.4580802  67.7015512
  48.7609424 102.3457399  66.9292761  40.5926495 111.2148243  79.7199884
  39.8989967 110.8002196  79.2069838  41.3399486 111.2568780  79.1233303
  56.7291716 102.0054430  74.5854918  56.1490385 102.6639234  74.2032970
  56.4627649 101.1831774  74.1742336  55.1795282 101.4059488  76.7876238
  55.6795061 101.5176022  75.9790557  55.8230890 101.1020540  77.4277047
  49.2377278 109.3138117  89.6744079  48.7544360 110.1138477  89.8807968
  49.3238217 109.3246062  88.7211523  42.5063238 111.1466497  77.5965899
  42.4833926 111.2454184  76.6447782  42.8163874 111.9931648  77.9183065
  45.1650616 113.2042652  81.7112513  46.1193869 113.1726594  81.6442445
  44.9663139 112.7433276  82.5262739  45.7549998 111.7743768  84.2783311
  46.5742887 112.2687847  84.3018148  46.0286806 110.8575736  84.2500878
  55.5116594 104.1654520  73.6411266  54.6242449 104.4504171  73.4231461
  55.9270583 104.0048284  72.7938543  58.8631130 104.1901041  77.3565606
  59.6391520 104.6797494  77.6290222  58.1379264 104.6159095  77.8137475
  61.3003689 104.9028660  78.4139546  61.8948180 104.6624396  77.7032854
  61.3730273 104.1835791  79.0413083  43.5200845 118.7462271  78.7282711
  43.3855313 117.9862672  78.1620709  43.1032907 119.4703171  78.2611500
  54.6559808 113.9299195  67.7359286  55.3595658 114.1349197  68.3516942
  53.9322456 114.4975957  68.0008370  55.4857618 109.6809056  73.8561556
  55.4292819 110.1377608  73.0169189  56.0385960 108.9199741  73.6784399
  63.6074762 108.2094861  77.1882967  63.0474320 108.2788051  77.9614529
  63.0018265 108.0335846  76.4682464  46.6769970 119.6431588  78.9401154
  46.5602355 120.5877021  78.8379844  45.8562417 119.3405150  79.3286953
  56.5646505 114.3681724  69.7857746  57.3992109 113.9362923  69.6035221
  56.4030848 114.1963738  70.7134641  56.2192397 110.8713837  71.1514086
  56.1641201 110.7058109  70.2102530  55.5938452 111.5789870  71.3076275
  41.0084912 106.1081902  84.9775508  41.6543776 105.5980856  85.4662733
  40.8002063 106.8450583  85.5518933  53.5338304 113.1762749  90.4767648
  54.4029464 113.3503402  90.1154283  53.0545056 113.9957166  90.3543378
  49.5288523 100.3721946  70.7299404  49.5167192 101.3163786  70.8867675
  50.4211945 100.1892092  70.4358865  47.7024485 120.2959850  82.1557082
  48.6051731 120.3283461  82.4723577  47.4761855 119.3660301  82.1703418
  49.4578087 119.0490837  78.8167161  48.5073718 119.0492698  78.7031533
  49.7610573 118.3023571  78.3003195  53.3440642  96.9664723  74.9845341
  52.5773038  96.4123210  75.1302023  53.7551347  97.0386592  75.8459493
  45.3482403 103.2549519  89.0750522  46.2113865 102.8986324  89.2853847
  44.7747814 102.9163414  89.7625926  65.1930780 124.8851375  79.8812923
  65.8309190 124.7658123  79.1776263  65.0751623 125.8332219  79.9400875
  62.0020486 124.8378803  79.8174448  61.6638998 124.7219868  78.9294983
  62.8710255 124.4369968  79.7975454  57.8607302 126.6914280  75.8071339
  57.2972167 126.6004217  75.0387627  57.7459697 125.8714184  76.2873831
  62.4840269 125.9913655  85.7760653  62.4728910 125.5966453  84.9041157
  62.6460909 125.2579728  86.3694425  55.4071734 128.1865471  78.6455559
  56.1993026 127.8456296  78.2301859  55.6468384 128.2960446  79.5657713
  63.4406861 130.3585247  71.1185804  62.7894841 130.9439328  70.7319817
  64.2351224 130.8891442  71.1780841  57.3662488 127.4474385  71.5172938
  58.1393364 126.9003372  71.3785814  57.7187887 128.3118634  71.7287399
  59.2047531 128.7750767  84.7239837  58.9137396 129.6796398  84.6086504
  59.8404515 128.8167294  85.4383907  60.1303737 126.1527615  81.3141197
  60.7267310 125.9283638  80.5998160  60.1878709 125.4112361  81.9166645
  59.7028766 123.6067051  69.1491388  59.9554286 123.0848572  68.3874851
  58.7653325 123.4433196  69.2518072  64.7472049 122.6102829  76.9566131
  65.5335138 122.1922252  76.6056548  65.0110753 123.5148921  77.1247780
  64.9182126 128.0475679  71.6554788  64.2827959 128.1210306  72.3675693
  64.5879532 128.6369278  70.9773867  70.1480476 122.5478062  77.8599110
  70.8805648 121.9777279  78.0936939  69.3919831 122.1599663  78.3005615
  59.4225055 125.5095157  71.3515763  59.3061313 124.8340060  72.0196847
  59.5327314 125.0227531  70.5347916  61.7656595 124.9705304  75.0562452
  61.4014803 124.4435925  75.7675374  62.6223711 124.5803773  74.8828938
  67.6705896 116.2599636  82.3193718  67.3389221 117.1295047  82.0954933
  67.0751509 115.9435920  82.9987749  61.4062082 119.9995203  70.0523801
  61.5736485 120.8675440  70.4194272  61.2159251 120.1622485  69.1285090
  64.1637416 128.4612182  81.7189631  63.8638139 129.3637221  81.6105438
  63.8188475 128.1944366  82.5710784  57.6149897 124.9125979  77.7526335
  56.6900394 124.7802193  77.9604027  57.8634310 125.6920198  78.2496278
  67.5634559 120.9794723  79.3987068  66.6551437 120.9110131  79.1045829
  67.5122155 121.4566667  80.2268894  61.3851303 122.4552861  71.0370467
  61.2650928 122.9009912  71.8755948  60.6903892 122.8038179  70.4784006
  54.9758708 124.5559253  78.5870125  55.1051089 124.8093732  79.5009536
  54.2956159 125.1486961  78.2674780  59.1458195 135.2256503  74.6860599
  59.0682225 136.1764328  74.7649079  58.5419839 134.8802375  75.3435525
  61.6375425 122.3984368  87.3421966  60.8608759 122.9578288  87.3324830
  62.2765988 122.8841151  87.8636836  67.0836369 122.9274334  71.8650802
  67.9954226 123.1601721  71.6898499  66.5746017 123.5111378  71.3025880
  59.8921797 125.2069822  86.9039933  60.6336482 125.7454865  86.6274756
  59.1858783 125.8336110  87.0611484  65.3677137 127.3498962  85.5012094
  65.7760493 126.9081372  84.7566726  64.6454399 126.7751589  85.7546287
  61.7208207 122.2871569  82.8745651  62.5669402 122.7110982  83.0180300
  61.6606845 121.6305193  83.5684214  65.6905952 127.9100153  79.2564383
  65.0614814 128.0745867  78.5540451  65.3031614 128.3241762  80.0275347
  69.5695184 128.8454590  76.6108747  68.8846222 129.2253492  76.0605780
  69.6539033 129.4549917  77.3440695  64.8707652 119.9475937  84.5326825
  64.6268584 120.7017998  83.9961100  65.1467583 120.3261285  85.3674072
  66.8246115 126.4914549  83.2104090  67.0363010 127.1346309  82.5338471
  66.7775864 125.6576866  82.7426020  64.4272344 119.1032370  80.1140662
  63.5656823 119.4013624  80.4057400  64.4534779 119.3202769  79.1821695
  61.2433914 127.6474561  76.5214468  61.7072259 127.9262264  75.7319091
  60.9790712 126.7458005  76.3387559  58.1357995 127.1946042  79.4594231
  58.7059352 127.6233311  78.8211716  58.7266107 126.9128627  80.1578417
  60.1802800 123.7697713  73.3304033  60.8826843 124.2218757  73.7977960
  59.8483428 123.1281532  73.9583926  58.6283161 122.3609470  87.7055243
  57.9981822 123.0425751  87.9390639  58.5219249 122.2492551  86.7608381
  53.9228134 122.0281266  78.6321167  53.1327188 122.2838794  78.1561277
  54.4139381 122.8429604  78.7373207  67.9391943 129.3686505  81.3826448
  68.7609387 128.9666692  81.1009129  67.9354346 129.2654739  82.3342563
  55.8742879 122.3925845  75.5904643  55.0774042 122.5044539  76.1088139
  55.6468471 122.7312497  74.7245534  61.7048547 128.9170548  83.5387158
  61.7692979 129.3790955  84.3745330  60.9959471 128.2867913  83.6669468
  52.2065837 122.2811756  81.0636158  52.4573875 123.1658766  81.3293734
  52.7425385 122.1016358  80.2911249  61.4196564 130.5838656  73.4066138
  61.2842239 131.4290191  73.8350986  61.9606377 130.7857933  72.6432072
  57.9063904 116.6630236  90.0680494  57.5130850 116.1096434  90.7428138
  58.7230044 116.9740814  90.4587011  54.8725962 128.1014094  73.9794064
  55.3850482 128.8957344  74.1299628  55.5248675 127.4040384  73.9127665
  56.6820846 131.2179850  76.0616817  56.8587475 132.1397815  75.8737801
  57.4777680 130.9038269  76.4911196  60.8231865 118.0788115  87.6600750
  61.5641578 118.6795268  87.5805213  61.0549788 117.3365752  87.1018793
  55.9673203 123.2644482  85.9378980  55.8526718 122.3629739  86.2386079
  55.1117721 123.5108179  85.5863796  63.0465041 131.2062222  87.5366481
  62.6028895 130.4198601  87.2187385  63.7082254 131.3941373  86.8710371
  57.8052162 132.7358024  82.0627159  58.3559587 132.6075087  81.2904153
  56.9663638 133.0352913  81.7122052  65.1446279 131.4865022  85.5647882
  65.1264754 132.3073903  85.0728151  66.0666199 131.3619097  85.7898023
  61.6019333 129.0009152  86.4071390  62.1347670 128.2397440  86.1770698
  61.0733414 128.7082803  87.1495545  64.7689028 114.1069218  81.9365032
  64.4253297 114.9970859  81.8604142  65.1367990 113.9170875  81.0734617
  52.8374878 126.4302748  74.7553634  53.6750100 126.8399756  74.5387342
  53.0153146 125.4902190  74.7253828  64.7339311 124.0977829  70.4437467
  64.2185934 124.8682433  70.6825854  64.4616619 123.4242965  71.0670528
  62.3186422 118.9427529  75.5022705  61.4628018 118.5534380  75.3228344
  62.7313373 119.0219490  74.6422491  63.8485568 116.4773873  79.9014265
  63.3450364 116.4404008  79.0882070  64.1416175 117.3866615  79.9610922
  60.0928454 116.5612602  78.9080447  60.9581451 116.3655411  78.5486336
  60.1605963 116.3322954  79.8349804  69.7073585 126.8510183  72.3790641
  68.9303027 126.5121343  71.9345803  70.3865066 126.8562806  71.7045606
  64.5225614 121.9704921  72.2697248  64.2175749 122.2851070  73.1207391
  65.4756056 122.0486341  72.3124581  62.9672046 128.1295144  73.9190202
  62.4393407 127.3947904  73.6063440  62.4659548 128.9069820  73.6730171
  67.9464892 126.3244165  79.0357248  67.2888566 127.0143426  79.1237377
  68.7505291 126.7140596  79.3791235  57.6990773 118.7914810  76.2796814
  58.2734525 118.5689992  75.5470007  58.2861756 118.8603505  77.0325415
  66.7570350 124.6788537  77.0861190  67.2702232 125.3118529  77.5882900
  67.4071574 124.0789733  76.7204550  58.0260360 120.8219271  70.2992699
  57.1897673 121.1593958  70.6201974  57.8865130 120.6868251  69.3619836
  60.0013441 115.6656059  75.0071883  59.3477853 115.3505076  74.3828498
  59.9593915 115.0431800  75.7331706  61.1124646 125.9475354  66.9225175
  60.2051708 125.7164608  67.1216324  61.6095678 125.1512974  67.1099157
  64.0192725 134.6572862  69.8421861  63.3454423 134.9604558  70.4506819
  64.4058547 135.4601942  69.4927318  63.2351181 122.1537993  79.3319531
  62.3173743 122.3752940  79.1741219  63.6511325 122.2284303  78.4731238
  64.0186229 123.5529408  74.4622211  64.7658048 124.0650806  74.1529333
  64.2877819 123.2313461  75.3226605  62.2912879 126.0487949  71.4449165
  61.3824098 125.7646982  71.5421635  62.3207963 126.4687028  70.5852472
  67.5232147 129.6594539  75.2140333  67.0694474 128.8185449  75.2705523
  66.8926113 130.2955937  75.5515113  66.4665066 120.5886525  76.4441000
  65.7287823 120.0763911  76.7751243  66.7191840 120.1486906  75.6324277
  65.9665086 131.4971035  76.1490151  66.2588060 132.0576092  75.4302517
  66.4763706 131.7899596  76.9043310  66.5676694 113.3662777  77.0382770
  66.8735570 112.5060140  76.7508685  67.2929298 113.9580397  76.8381763
  52.8601050 123.7693463  75.4264368  52.6625449 123.1762824  74.7015434
  52.3047714 123.4645674  76.1440306  60.8397773 123.6616570  77.5458961
  60.8946383 122.7090406  77.4701437  60.0288975 123.8176009  78.0300259
  61.9888967 127.5896693  68.7837244  61.5508397 126.8732552  68.3242881
  62.7299408 127.8172808  68.2222335  58.7790133 122.2793630  75.3049340
  57.9657999 122.5787800  75.7114532  59.2749127 121.8849318  76.0223822
  60.9298711 132.2751386  77.2383604  60.8874890 132.5012233  76.3092136
  61.8461410 132.0414761  77.3869405  64.3764345 122.7435454  84.1364233
  64.7313733 122.9706927  84.9958699  65.0236476 123.0753831  83.5141489
  70.1062082 125.8653890  74.8413562  69.9679980 126.0555486  73.9134752
  69.7498301 126.6273273  75.2981614  58.2704208 119.8511985  80.9210574
  58.9103587 119.7100744  80.2233538  57.4381739 119.5646498  80.5449176
  70.1331461 127.9330417  79.8524834  70.5667968 127.8405706  80.7007888
  70.8463042 127.9087917  79.2144850  59.0464512 129.1514415  77.0345567
  59.8405110 128.6564736  76.8328142  58.3356204 128.6232279  76.6713273
  63.8659356 131.5332511  81.3857935  63.9196379 132.1023447  82.1535650
  62.9974138 131.7034396  81.0211972  55.3547275 123.2957497  73.1105320
  54.4244863 123.2341953  73.3275282  55.4504747 122.7733450  72.3141961
  55.2732824 119.8212310  75.6983561  55.5339642 120.7357643  75.5892722
  56.0949997 119.3536753  75.8480174  56.7457750 121.2350067  82.8682386
  57.4180803 121.0267429  82.2195035  55.9187536 121.0372153  82.4287618
  70.9947011 127.9754118  82.3857719  71.1882901 128.8799928  82.6316994
  70.8947629 127.5161537  83.2196304  62.6483322 117.8612008  84.8848047
  62.0011237 118.5601958  84.7912523  63.4184337 118.2948152  85.2524295
  66.0562120 128.1260860  87.9598600  65.9047626 127.8971412  87.0428684
  66.0466799 129.0831462  87.9729945  62.8247456 125.6992773  82.9444866
  63.7539516 125.8503933  82.7713834  62.4038486 125.7876794  82.0893513
  61.6235788 129.7243437  80.7143404  61.4846874 129.3562222  81.5869342
  60.8350384 130.2391077  80.5427362  62.2183940 134.8252534  72.0568941
  62.3935696 134.3540577  72.8714563  61.5316728 135.4518300  72.2850201
  63.1741003 129.1025040  78.1032242  62.8390836 129.0625810  78.9989892
  62.6744949 128.4369756  77.6302652  57.1485247 124.5092670  83.6284823
  57.0105045 123.7772909  84.2296362  58.0590170 124.4201570  83.3469011
  66.1100195 126.4481075  68.3769301  65.4929365 125.7227903  68.2802354
  65.6416683 127.2090435  68.0336376  59.7767548 124.2212630  83.1168503
  60.4867166 123.5805822  83.0755121  59.7336856 124.4725524  84.0394683
  67.7654326 131.1579983  86.0375082  67.7066872 130.4739203  85.3705665
  68.1673845 131.8998973  85.5855708  58.4896482 121.2077847  84.9364142
  57.9533839 120.7568586  85.5885738  57.9013190 121.3423756  84.1934606
  56.7845025 137.9741897  78.8308801  57.0241623 138.6060421  79.5087819
  55.9414222 137.6229937  79.1174160  57.8998741 120.6666499  67.4990606
  57.0228207 120.5455300  67.1352852  58.3756494 119.8752577  67.2469494
  67.7671734 129.1219567  84.2689062  66.8798512 128.7845489  84.3915460
  68.3370285 128.3902598  84.5057827  49.4200881 125.4543659  77.5932113
  50.1071921 125.1405389  77.0053128  49.2649009 126.3585023  77.3199364
  54.2235603 120.3433855  82.0217137  54.1393792 119.7359525  81.2867547
  53.4018309 120.8342873  82.0226633  61.2972887 133.7821019  81.2350305
  61.2243058 134.5875991  81.7469609  60.8550280 133.9812985  80.4098326
  61.0862667 133.0192789  74.7453126  60.3030188 133.5614469  74.8391351
  61.7855412 133.5366769  75.1447367  64.3959317 118.8287419  77.3887332
  64.8928016 118.0757381  77.0688402  63.6246298 118.8651735  76.8230541
  63.7571570 133.6807853  83.3908463  64.4699543 134.3155318  83.3184365
  63.2661599 133.7771719  82.5748465  65.4789097 127.5859106  74.9625755
  64.5445376 127.7060568  74.7930459  65.6565766 126.6831573  74.6985765
  60.9794285 120.9704802  77.1159016  60.6092073 120.4175842  77.8039922
  61.4753378 120.3662935  76.5634016  68.8661649 123.4276425  75.4975789
  69.3322101 124.2604417  75.4236092  69.3169149 122.9621407  76.2021048
  58.8083484 131.4302297  84.2114034  59.5092944 132.0638780  84.3643428
  58.3378599 131.7717028  83.4509673  66.9337880 129.7720246  72.4961941
  67.2097724 129.6576841  73.4055815  66.0642379 129.3737731  72.4574114
  66.8378311 115.7957012  79.5366691  65.9241391 116.0261239  79.7048897
  67.2671413 115.8795456  80.3880723  66.6084770 123.9846904  82.0366585
  65.9556220 124.2322812  81.3819037  66.9865150 123.1711042  81.7029062
  63.5691944 134.0206597  76.1394755  63.7514338 133.2028253  76.6022507
  64.3924930 134.2374290  75.7019645  63.9034109 132.9474782  73.4009803
  64.4321876 132.4367237  72.7879965  64.1662329 132.6317313  74.2655336
  62.6572343 124.7266715  88.5232622  61.9812980 124.6260844  89.1934997
  63.4799977 124.5705929  88.9868619  54.4051202 130.9638652  81.1445137
  54.9904639 130.2182340  81.2773041  54.2076041 131.2742608  82.0281801
  57.2589857 133.9989899  76.1607579  56.5900233 134.4836027  75.6771619
  57.1202727 134.2459120  77.0750958  48.9968857 123.5344252  79.8649580
  49.0352956 123.0007843  80.6586698  48.4909150 123.0079457  79.2460557
  61.3995126 136.0333643  82.7590238  61.9513434 136.1965264  83.5239323
  61.7401319 136.6238080  82.0870262  56.3759619 118.3808792  83.3612122
  56.4400946 119.2423623  82.9489520  56.3126739 117.7682794  82.6284481
  55.8511892 120.4531925  87.0085157  56.4783930 120.0709002  87.6222681
  54.9939811 120.2346127  87.3740849  66.2506000 130.8594900  88.6138892
  66.7945904 131.4724858  88.1193847  65.6692845 131.4174479  89.1305905
  52.6277434 122.2608354  72.9403511  52.9230875 121.3519032  72.8870565
  51.7265470 122.2396094  72.6184514  64.5363513 133.9815618  79.7453920
  64.4114653 133.1805358  79.2364865  65.1942604 134.4761812  79.2567890
  56.1571681 120.3364351  78.9231060  55.4358267 120.9500318  78.7838533
  56.9464937 120.8722115  78.8447706  66.5998422 131.7824638  81.3733470
  65.6528757 131.6629989  81.3011797  66.9481195 130.8947136  81.4559731
  58.9597995 117.6718777  85.1971712  59.4832397 117.9181074  85.9598021
  58.7410328 118.5038812  84.7774849  54.3565276 119.9422452  73.0642837
  54.0277982 119.0619831  72.8817942  54.7104647 119.8870120  73.9519226
  63.6044855 131.5777354  77.5737822  63.4569817 130.6494062  77.7545392
  64.4298348 131.5997445  77.0894897  57.4707099 120.2295422  73.4318314
  57.8103172 120.7581343  72.7096923  57.9179220 120.5675828  74.2076881
  67.2078977 132.4005913  78.6602695  68.1325524 132.1948775  78.5227146
  67.0394280 132.1522314  79.5692036  60.1650540 118.6132472  82.8821382
  59.8247360 117.8140285  83.2842062  59.4589546 118.9134183  82.3098215
  60.8167012 115.6981785  81.3348705  61.6393081 115.2242263  81.2127596
  61.0605075 116.4772268  81.8347392  59.4575246 118.7270043  71.6311607
  60.1783609 119.1051296  71.1275324  58.8340550 119.4458920  71.7346585
  63.6006369 119.4315192  72.5669939  63.8169984 120.3139830  72.2658767
  63.1200436 119.0401405  71.8375581  58.3405591 122.3900905  79.1440684
  58.1950171 122.7041208  80.0364965  57.8630794 123.0085806  78.5911583
  60.2001973 119.3803453  79.1921573  60.1863542 118.4844547  78.8553871
  60.9174402 119.3874117  79.8259860  62.0528104 119.8140793  81.2374701
  61.7945882 120.7357864  81.2359031  61.5213145 119.4171228  81.9275165
  66.9974293 132.9191581  74.0164786  67.1711170 132.3538003  73.2638639
  67.4903184 133.7192476  73.8344276  52.8151253 124.9306250  82.0828345
  52.2704721 125.7066058  82.2148619  53.6930603 125.2777054  81.9247467
  59.6038869 118.2617834  74.4609144  59.7254781 117.3334480  74.6600031
  59.3140912 118.2756520  73.5487459  62.4730060 115.9472744  77.5975863
  62.4951757 116.0112077  76.6427843  62.8898119 115.1077253  77.7916370
  67.9849465 132.2358345  71.1161685  68.6800370 132.8565038  71.3348999
  68.3272616 131.3853696  71.3914062  53.6017275 124.0576146  84.9758502
  52.8599011 124.2058781  85.5623132  53.2810019 124.3184412  84.1125251
  69.8840889 129.6858051  72.6449015  70.4092213 130.0245323  71.9198335
  69.7963241 128.7505066  72.4612150  61.5460937 133.5992124  84.7738892
  61.8548064 133.3541271  85.6461592  62.3436419 133.8038763  84.2857762
  61.5681549 135.7530034  77.0044269  61.1286540 135.2606413  77.6977125
  62.3189666 135.2103001  76.7636344  54.0473888 131.9441575  77.0068897
  54.8731908 131.6445347  76.6267540  53.6967940 131.1749197  77.4558685
  59.0155421 131.2968043  79.0766570  58.3935431 130.6338748  78.7768798
  59.6860288 131.3229175  78.3940218  52.2482493 129.8627901  77.9657830
  51.4114402 129.4350076  77.7841831  52.2206139 130.0560344  78.9028621
  59.0879949 119.7749831  88.6699076  59.1368104 120.6511954  88.2876846
  59.6302463 119.2327224  88.0970719  69.5734795 130.3190954  87.9500213
  68.7830338 130.3015093  87.4104713  69.3368149 130.8579248  88.7049250
  69.6932670 127.1683421  85.2632942  69.7430675 127.0033428  86.2048465
  69.5846593 126.3010680  84.8730823  58.5768928 129.8471966  72.5525031
  58.7257049 130.5307431  71.8991703  59.3835372 129.8277056  73.0674486
  66.9836432 123.1514349  86.5792249  67.8846295 123.0120813  86.2876246
  67.0584407 123.3168803  87.5190426  61.3179237 120.5281203  85.4245435
  60.4482547 120.8214769  85.1528023  61.5538718 121.1121648  86.1452699
  71.1950866 129.5880362  85.5074963  70.9035675 129.9510343  86.3438424
  70.5822998 128.8747370  85.3288295  69.4438055 124.7112977  83.9755021
  69.9192176 124.9040623  83.1673873  68.5203620 124.7672163  83.7298405
  56.3321561 125.8737144  73.5586100  56.0867603 124.9699474  73.7566310
  56.5017476 125.8754294  72.6165578  64.0218271 116.7460820  82.9410855
  64.5400215 117.4821847  82.6157344  63.6673404 117.0524814  83.7757614
  55.6017209 121.6065501  71.0572261  54.9086454 121.6809856  70.4012297
  55.3568961 120.8425845  71.5793778  64.2730865 113.1661103  78.4611752
  64.5532619 112.4984292  79.0872178  65.0581472 113.3590198  77.9486416
  62.0764334 132.3420097  70.0236778  61.5038301 132.9610284  69.5707250
  62.6497128 132.8919458  70.5576700  68.1439724 121.5878737  82.2083327
  69.0957147 121.6876834  82.2295551  67.9743174 120.7957005  82.7181411
  66.1654103 118.6734320  82.3942728  65.5704035 118.9539333  81.6989217
  65.8803800 119.1628221  83.1659469  65.2961594 132.6257247  71.1545360
  66.2292267 132.5602809  71.3578236  65.2084806 133.4613514  70.6959893
  67.9249610 131.9423117  68.1149308  67.8463242 131.6082981  69.0085066
  68.7459277 132.4344885  68.1140780  70.6227801 124.8084856  81.3225627
  70.5904122 123.8700857  81.5085310  71.2328425 124.8868893  80.5891451
  62.4611132 123.6780909  67.3652831  63.4070237 123.5487118  67.4341249
  62.0825377 122.9395571  67.8422259  68.4333017 115.3436915  77.3279722
  68.2357838 115.0352004  78.2123054  69.0432722 116.0698554  77.4577652
  62.3449825 127.7298656  88.8253488  63.2652834 127.9077255  89.0193534
  62.3099408 126.7854701  88.6733187  60.6454050 121.6030886  67.3007716
  59.7385505 121.3063999  67.3770429  60.9230031 121.3060704  66.4342002
  51.5631990 122.9237249  77.7506762  51.2434774 122.0702557  77.4581136
  51.0165418 123.1385827  78.5064730  55.3411897 125.6399690  81.4676269
  55.5597907 126.5716798  81.4864303  55.7537671 125.2807665  82.2531073
  62.2616115 116.1467776  73.4551957  61.4516844 115.8014861  73.8307203
  62.9500532 115.8375319  74.0439569  64.1906664 115.2245822  75.0776254
  64.7437702 115.6441276  75.7366277  64.4276750 114.2981570  75.1199210
  60.2139763 121.2132896  90.8579018  60.1136490 122.1627253  90.7891109
  59.9961305 120.8851135  89.9855088  59.4152834 118.4617821  67.4419695
  60.2771998 118.7872719  67.7015512  59.6003178 117.6749317  66.9292761
  51.4320250 126.5440161  79.7199884  50.7383721 126.1294114  79.2069838
  52.1793241 126.5860697  79.1233303  67.5685471 117.3346348  74.5854918
  66.9884140 117.9931152  74.2032970  67.3021403 116.5123692  74.1742336
  66.0189037 116.7351405  76.7876238  66.5188815 116.8467940  75.9790557
  66.6624645 116.4312458  77.4277047  60.0771033 124.6430035  89.6744079
  59.5938115 125.4430395  89.8807968  60.1631972 124.6537980  88.7211523
  53.3456992 126.4758415  77.5965899  53.3227681 126.5746102  76.6447782
  53.6557629 127.3223565  77.9183065  56.0044370 128.5334570  81.7112513
  56.9587624 128.5018512  81.6442445  55.8056894 128.0725193  82.5262739
  56.5943752 127.1035686  84.2783311  57.4136641 127.5979764  84.3018148
  56.8680560 126.1867654  84.2500878  66.3510349 119.4946438  73.6411266
  65.4636204 119.7796089  73.4231461  66.7664338 119.3340201  72.7938543
  69.7024885 119.5192959  77.3565606  70.4785275 120.0089411  77.6290222
  68.9773019 119.9451013  77.8137475  54.3594599 134.0754189  78.7282711
  54.2249067 133.3154590  78.1620709  53.9426661 134.7995089  78.2611500
  65.4953562 129.2591113  67.7359286  66.1989412 129.4641115  68.3516942
  64.7716211 129.8267874  68.0008370  66.3251372 125.0100974  73.8561556
  66.2686574 125.4669525  73.0169189  66.8779715 124.2491658  73.6784399
  70.1356178 120.7990706  74.6811676  69.8793113 120.3987341  75.5119884
  69.5109046 121.5134500  74.5561815  57.5163725 134.9723506  78.9401154
  57.3996109 135.9168939  78.8379844  56.6956171 134.6697068  79.3286953
  67.4040259 129.6973642  69.7857746  68.2385863 129.2654840  69.6035221
  67.2424602 129.5255655  70.7134641  67.0586152 126.2005755  71.1514086
  67.0034955 126.0350027  70.2102530  66.4332207 126.9081788  71.3076275
  51.8478667 121.4373819  84.9775508  52.4937530 120.9272773  85.4662733
  51.6395818 122.1742501  85.5518933  64.3732059 128.5054667  90.4767648
  65.2423218 128.6795319  90.1154283  63.8938810 129.3249084  90.3543378
  60.3682277 115.7013864  70.7299404  60.3560947 116.6455704  70.8867675
  61.2605699 115.5184010  70.4358865  58.5418239 135.6251768  82.1557082
  59.4445486 135.6575378  82.4723577  58.3155609 134.6952219  82.1703418
  60.2971841 134.3782755  78.8167161  59.3467472 134.3784616  78.7031533
  60.6004327 133.6315489  78.3003195  64.1834397 112.2956641  74.9845341
  63.4166792 111.7415127  75.1302023  64.5945102 112.3678509  75.8459493
  56.1876158 118.5841437  89.0750522  57.0507619 118.2278241  89.2853847
  55.6141568 118.2455331  89.7625926  76.0324535 140.2143293  79.8812923
  76.6702945 140.0950040  79.1776263  75.9145377 141.1624137  79.9400875
  72.8414241 140.1670721  79.8174448  72.5032752 140.0511786  78.9294983
  73.7104009 139.7661886  79.7975454  68.7001057 142.0206197  75.8071339
  68.1365922 141.9296134  75.0387627  68.5853452 141.2006102  76.2873831
  73.3234024 141.3205573  85.7760653  73.3122665 140.9258371  84.9041157
  73.4854663 140.5871645  86.3694425  66.2465488 143.5157389  78.6455559
  67.0386780 143.1748214  78.2301859  66.4862139 143.6252364  79.5657713
  74.2800615 145.6877165  71.1185804  73.6288595 146.2731246  70.7319817
  75.0744978 146.2183360  71.1780841  68.2056242 142.7766302  71.5172938
  68.9787118 142.2295289  71.3785814  68.5581641 143.6410552  71.7287399
  70.0441285 144.1042685  84.7239837  69.7531151 145.0088315  84.6086504
  70.6798269 144.1459212  85.4383907  70.9697492 141.4819533  81.3141197
  71.5661064 141.2575555  80.5998160  71.0272463 140.7404279  81.9166645
  70.5422520 138.9358968  69.1491388  70.7948041 138.4140490  68.3874851
  69.6047079 138.7725114  69.2518072  75.5865803 137.9394747  76.9566131
  76.3728892 137.5214170  76.6056548  75.8504507 138.8440839  77.1247780
  75.7575880 143.3767597  71.6554788  75.1221713 143.4502224  72.3675693
  75.4273287 143.9661196  70.9773867  80.9874230 137.8769980  77.8599110
  81.7199402 137.3069197  78.0936939  80.2313586 137.4891580  78.3005615
  70.2618809 140.8387074  71.3515763  70.1455067 140.1631978  72.0196847
  70.3721069 140.3519448  70.5347916  72.6050350 140.2997221  75.0562452
  72.2408557 139.7727842  75.7675374  73.4617466 139.9095690  74.8828938
  78.5099651 131.5891554  82.3193718  78.1782975 132.4586965  82.0954933
  77.9145264 131.2727838  82.9987749  72.2455837 135.3287121  70.0523801
  72.4130239 136.1967358  70.4194272  72.0553006 135.4914403  69.1285090
  75.0031170 143.7904100  81.7189631  74.7031893 144.6929139  81.6105438
  74.6582230 143.5236283  82.5710784  68.4543652 140.2417897  77.7526335
  67.5294148 140.1094111  77.9604027  68.7028065 141.0212116  78.2496278
  78.4028314 136.3086640  79.3987068  77.4945191 136.2402049  79.1045829
  78.3515910 136.7858585  80.2268894  72.2245058 137.7844779  71.0370467
  72.1044683 138.2301829  71.8755948  71.5297646 138.1330096  70.4784006
  65.8152463 139.8851170  78.5870125  65.9444844 140.1385649  79.5009536
  65.1349914 140.4778878  78.2674780  69.9851950 150.5548420  74.6860599
  69.9075980 151.5056245  74.7649079  69.3813593 150.2094293  75.3435525
  72.4769180 137.7276286  87.3421966  71.7002514 138.2870206  87.3324830
  73.1159743 138.2133069  87.8636836  80.2689960 134.5103079  81.1764942
  79.6264341 134.8035612  80.5304737  79.7644889 134.3955999  81.9818139
  77.9230124 138.2566252  71.8650802  78.8347980 138.4893639  71.6898499
  77.4139771 138.8403296  71.3025880  70.7315552 140.5361739  86.9039933
  71.4730236 141.0746783  86.6274756  70.0252537 141.1628028  87.0611484
  76.2070892 142.6790880  85.5012094  76.6154248 142.2373290  84.7566726
  75.4848153 142.1043507  85.7546287  72.5601962 137.6163486  82.8745651
  73.4063157 138.0402900  83.0180300  72.5000599 136.9597111  83.5684214
  76.5299706 143.2392070  79.2564383  75.9008569 143.4037784  78.5540451
  76.1425368 143.6533680  80.0275347  80.4088938 144.1746508  76.6108747
  79.7239976 144.5545409  76.0605780  80.4932787 144.7841835  77.3440695
  75.7101407 135.2767855  84.5326825  75.4662339 136.0309915  83.9961100
  75.9861337 135.6553202  85.3674072  77.6639870 141.8206467  83.2104090
  77.8756765 142.4638227  82.5338471  77.6169618 140.9868784  82.7426020
  75.2666099 134.4324288  80.1140662  74.4050578 134.7305541  80.4057400
  75.2928533 134.6494687  79.1821695  72.0827668 142.9766478  76.5214468
  72.5466014 143.2554181  75.7319091  71.8184466 142.0749923  76.3387559
  68.9751749 142.5237960  79.4594231  69.5453106 142.9525228  78.8211716
  69.5659861 142.2420545  80.1578417  71.0196554 139.0989631  73.3304033
  71.7220598 139.5510674  73.7977960  70.6877183 138.4573450  73.9583926
  69.4676916 137.6901387  87.7055243  68.8375576 138.3717668  87.9390639
  69.3613004 137.5784469  86.7608381  64.7621888 137.3573183  78.6321167
  63.9720942 137.6130712  78.1561277  65.2533136 138.1721521  78.7373207
  78.7785698 144.6978423  81.3826448  79.6003141 144.2958610  81.1009129
  78.7748101 144.5946657  82.3342563  66.7136634 137.7217763  75.5904643
  65.9167797 137.8336457  76.1088139  66.4862226 138.0604415  74.7245534
  72.5442301 144.2462466  83.5387158  72.6086734 144.7082873  84.3745330
  71.8353225 143.6159831  83.6669468  63.0459591 137.6103674  81.0636158
  63.2967630 138.4950684  81.3293734  63.5819140 137.4308275  80.2911249
  86.8691691 141.0417171  77.7311419  86.1155399 140.4724569  77.5755424
  87.0039232 141.0079836  78.6782054  72.2590319 145.9130573  73.4066138
  72.1235994 146.7582109  73.8350986  72.8000131 146.1149851  72.6432072
  68.7457658 131.9922153  90.0680494  68.3524604 131.4388352  90.7428138
  69.5623799 132.3032732  90.4587011  65.7119716 143.4306011  73.9794064
  66.2244237 144.2249262  74.1299628  66.3642429 142.7332302  73.9127665
  67.5214601 146.5471768  76.0616817  67.6981229 147.4689732  75.8737801
  68.3171434 146.2330187  76.4911196  71.6625619 133.4080032  87.6600750
  72.4035333 134.0087185  87.5805213  71.8943542 132.6657670  87.1018793
  66.8066957 138.5936400  85.9378980  66.6920473 137.6921657  86.2386079
  65.9511475 138.8400096  85.5863796  73.8858795 146.5354140  87.5366481
  73.4422649 145.7490518  87.2187385  74.5476009 146.7233290  86.8710371
  68.6445916 148.0649941  82.0627159  69.1953341 147.9367005  81.2904153
  67.8057392 148.3644830  81.7122052  75.9840033 146.8156940  85.5647882
  75.9658509 147.6365821  85.0728151  76.9059953 146.6911015  85.7898023
  72.4413087 144.3301069  86.4071390  72.9741424 143.5689357  86.1770698
  71.9127168 144.0374721  87.1495545  63.6768633 141.7594666  74.7553634
  64.5143855 142.1691674  74.5387342  63.8546901 140.8194108  74.7253828
  75.5733065 139.4269746  70.4437467  75.0579689 140.1974351  70.6825854
  75.3010374 138.7534882  71.0670528  73.1580176 134.2719447  75.5022705
  72.3021772 133.8826298  75.3228344  73.5707128 134.3511408  74.6422491
  74.6879323 131.8065790  79.9014265  74.1844118 131.7695926  79.0882070
  74.9809930 132.7158533  79.9610922  70.9322209 131.8904520  78.9080447
  71.7975205 131.6947329  78.5486336  70.9999718 131.6614872  79.8349804
  80.5467339 142.1802101  72.3790641  79.7696782 141.8413260  71.9345803
  81.2258820 142.1854724  71.7045606  75.3619368 137.2996838  72.2697248
  75.0569504 137.6142988  73.1207391  76.3149810 137.3778258  72.3124581
  73.8065800 143.4587062  73.9190202  73.2787162 142.7239821  73.6063440
  73.3053303 144.2361738  73.6730171  78.7858646 141.6536082  79.0357248
  78.1282321 142.3435344  79.1237377  79.5899045 142.0432514  79.3791235
  68.5384528 134.1206728  76.2796814  69.1128280 133.8981910  75.5470007
  69.1255510 134.1895423  77.0325415  77.5964105 140.0080455  77.0861190
  78.1095987 140.6410447  77.5882900  78.2465329 139.4081650  76.7204550
  68.8654115 136.1511189  70.2992699  68.0291427 136.4885876  70.6201974
  68.7258884 136.0160169  69.3619836  70.8407195 130.9947977  75.0071883
  70.1871608 130.6796994  74.3828498  70.7987670 130.3723717  75.7331706
  71.9518400 141.2767272  66.9225175  71.0445462 141.0456525  67.1216324
  72.4489432 140.4804891  67.1099157  74.8586479 149.9864779  69.8421861
  74.1848178 150.2896476  70.4506819  75.2452301 150.7893860  69.4927318
  74.0744936 137.4829910  79.3319531  73.1567497 137.7044857  79.1741219
  74.4905079 137.5576221  78.4731238  74.8579984 138.8821326  74.4622211
  75.6051802 139.3942723  74.1529333  75.1271573 138.5605379  75.3226605
  73.1306634 141.3779867  71.4449165  72.2217853 141.0938900  71.5421635
  73.1601718 141.7978945  70.5852472  78.3625901 144.9886456  75.2140333
  77.9088228 144.1477366  75.2705523  77.7319868 145.6247855  75.5515113
  77.3058821 135.9178442  76.4441000  76.5681577 135.4055829  76.7751243
  77.5585594 135.4778824  75.6324277  76.8058840 146.8262953  76.1490151
  77.0981815 147.3868010  75.4302517  77.3157461 147.1191514  76.9043310
  63.6994804 139.0985381  75.4264368  63.5019204 138.5054742  74.7015434
  63.1441468 138.7937591  76.1440306  71.6791528 138.9908487  77.5458961
  71.7340138 138.0382324  77.4701437  70.8682730 139.1467927  78.0300259
  72.8282722 142.9188611  68.7837244  72.3902151 142.2024469  68.3242881
  73.5693162 143.1464725  68.2222335  69.6183888 137.6085547  75.3049340
  68.8051753 137.9079718  75.7114532  70.1142882 137.2141236  76.0223822
  71.7692466 147.6043304  77.2383604  71.7268644 147.8304150  76.3092136
  72.6855164 147.3706679  77.3869405  75.2158099 138.0727372  84.1364233
  75.5707487 138.2998845  84.9958699  75.8630231 138.4045748  83.5141489
  80.9455836 141.1945808  74.8413562  80.8073735 141.3847404  73.9134752
  80.5892055 141.9565190  75.2981614  69.1097962 135.1803903  80.9210574
  69.7497342 135.0392662  80.2233538  68.2775493 134.8938416  80.5449176
  80.9725216 143.2622335  79.8524834  81.4061723 143.1697624  80.7007888
  81.6856797 143.2379835  79.2144850  69.8858266 144.4806333  77.0345567
  70.6798865 143.9856653  76.8328142  69.1749959 143.9524196  76.6713273
  74.7053111 146.8624429  81.3857935  74.7590133 147.4315365  82.1535650
  73.8367892 147.0326314  81.0211972  66.1941030 138.6249415  73.1105320
  65.2638618 138.5633870  73.3275282  66.2898502 138.1025368  72.3141961
  66.1126579 135.1504228  75.6983561  66.3733396 136.0649561  75.5892722
  66.9343751 134.6828670  75.8480174  67.5851504 136.5641985  82.8682386
  68.2574558 136.3559347  82.2195035  66.7581291 136.3664071  82.4287618
  81.8340765 143.3046035  82.3857719  82.0276656 144.2091846  82.6316994
  81.7341384 142.8453454  83.2196304  73.4877076 133.1903926  84.8848047
  72.8404991 133.8893875  84.7912523  74.2578092 133.6240070  85.2524295
  76.8955874 143.4552778  87.9598600  76.7441381 143.2263330  87.0428684
  76.8860554 144.4123379  87.9729945  73.6641211 141.0284691  82.9444866
  74.5933271 141.1795850  82.7713834  73.2432241 141.1168712  82.0893513
  72.4629542 145.0535355  80.7143404  72.3240628 144.6854140  81.5869342
  71.6744139 145.5682995  80.5427362  73.0577694 150.1544452  72.0568941
  73.2329450 149.6832495  72.8714563  72.3710482 150.7810218  72.2850201
  74.0134757 144.4316958  78.1032242  73.6784590 144.3917728  78.9989892
  73.5138703 143.7661674  77.6302652  67.9879001 139.8384588  83.6284823
  67.8498799 139.1064827  84.2296362  68.8983925 139.7493488  83.3469011
  76.9493949 141.7772992  68.3769301  76.3323120 141.0519820  68.2802354
  76.4810438 142.5382352  68.0336376  70.6161302 139.5504547  83.1168503
  71.3260921 138.9097739  83.0755121  70.5730610 139.8017442  84.0394683
  78.6048081 146.4871901  86.0375082  78.5460627 145.8031121  85.3705665
  79.0067599 147.2290891  85.5855708  69.3290236 136.5369765  84.9364142
  68.7927593 136.0860504  85.5885738  68.7406945 136.6715674  84.1934606
  67.6238780 153.3033814  78.8308801  67.8635378 153.9352339  79.5087819
  66.7807976 152.9521854  79.1174160  68.7392495 135.9958417  67.4990606
  67.8621961 135.8747217  67.1352852  69.2150248 135.2044495  67.2469494
  78.6065488 144.4511484  84.2689062  77.7192267 144.1137406  84.3915460
  79.1764039 143.7194516  84.5057827  60.2594635 140.7835576  77.5932113
  60.9465675 140.4697306  77.0053128  60.1042764 141.6876941  77.3199364
  65.0629357 135.6725773  82.0217137  64.9787546 135.0651442  81.2867547
  64.2412064 136.1634791  82.0226633  72.1366641 149.1112937  81.2350305
  72.0636813 149.9167908  81.7469609  71.6944035 149.3104903  80.4098326
  71.9256421 148.3484707  74.7453126  71.1423943 148.8906387  74.8391351
  72.6249166 148.8658686  75.1447367  75.2353071 134.1579336  77.3887332
  75.7321771 133.4049299  77.0688402  74.4640053 134.1943653  76.8230541
  83.0882829 139.8619702  79.0305623  83.0772705 140.7444417  78.6599556
  82.2200208 139.5091253  78.8360160  74.5965325 149.0099771  83.3908463
  75.3093297 149.6447236  83.3184365  74.1055354 149.1063637  82.5748465
  76.3182852 142.9151024  74.9625755  75.3839131 143.0352486  74.7930459
  76.4959520 142.0123490  74.6985765  71.8188040 136.2996719  77.1159016
  71.4485827 135.7467760  77.8039922  72.3147132 135.6954853  76.5634016
  79.7055403 138.7568343  75.4975789  80.1715855 139.5896334  75.4236092
  80.1562904 138.2913324  76.2021048  69.6477239 146.7594214  84.2114034
  70.3486698 147.3930697  84.3643428  69.1772354 147.1008946  83.4509673
  77.7731634 145.1012164  72.4961941  78.0491478 144.9868759  73.4055815
  76.9036133 144.7029649  72.4574114  77.6772066 131.1248930  79.5366691
  76.7635146 131.3553157  79.7048897  78.1065167 131.2087374  80.3880723
  77.4478524 139.3138822  82.0366585  76.7949975 139.5614729  81.3819037
  77.8258904 138.5002960  81.7029062  74.4085698 149.3498515  76.1394755
  74.5908093 148.5320171  76.6022507  75.2318684 149.5666207  75.7019645
  74.7427864 148.2766700  73.4009803  75.2715630 147.7659155  72.7879965
  75.0056083 147.9609230  74.2655336  73.4966098 140.0558633  88.5232622
  72.8206735 139.9552762  89.1934997  74.3193731 139.8997847  88.9868619
  65.2444957 146.2930569  81.1445137  65.8298393 145.5474257  81.2773041
  65.0469795 146.6034526  82.0281801  68.0983612 149.3281817  76.1607579
  67.4293987 149.8127944  75.6771619  67.9596481 149.5751037  77.0750958
  59.8362611 138.8636170  79.8649580  59.8746711 138.3299760  80.6586698
  59.3302904 138.3371375  79.2460557  72.2388880 151.3625560  82.7590238
  72.7907188 151.5257182  83.5239323  72.5795074 151.9529998  82.0870262
  67.2153374 133.7100710  83.3612122  67.2794700 134.5715541  82.9489520
  67.1520494 133.0974712  82.6284481  66.6905646 135.7823843  87.0085157
  67.3177685 135.4000920  87.6222681  65.8333565 135.5638045  87.3740849
  77.0899755 146.1886818  88.6138892  77.6339659 146.8016776  88.1193847
  76.5086600 146.7466396  89.1305905  63.4671189 137.5900272  72.9403511
  63.7624630 136.6810950  72.8870565  62.5659225 137.5688011  72.6184514
  75.3757268 149.3107536  79.7453920  75.2508407 148.5097276  79.2364865
  76.0336359 149.8053729  79.2567890  66.9965436 135.6656268  78.9231060
  66.2752022 136.2792236  78.7838533  67.7858692 136.2014033  78.8447706
  77.4392176 147.1116556  81.3733470  76.4922512 146.9921907  81.3011797
  77.7874949 146.2239054  81.4559731  69.7991749 133.0010695  85.1971712
  70.3226151 133.2472991  85.9598021  69.5804083 133.8330730  84.7774849
  65.1959030 135.2714369  73.0642837  64.8671737 134.3911748  72.8817942
  65.5498401 135.2162038  73.9519226  74.4438609 146.9069272  77.5737822
  74.2963572 145.9785980  77.7545392  75.2692103 146.9289363  77.0894897
  68.3100854 135.5587339  73.4318314  68.6496926 136.0873260  72.7096923
  68.7572974 135.8967745  74.2076881  78.0472731 147.7297831  78.6602695
  78.9719279 147.5240692  78.5227146  77.8788035 147.4814232  79.5692036
  71.0044294 133.9424390  82.8821382  70.6641115 133.1432203  83.2842062
  70.2983301 134.2426101  82.3098215  71.6560766 131.0273702  81.3348705
  72.4786836 130.5534181  81.2127596  71.8998830 131.8064186  81.8347392
  70.2969001 134.0561961  71.6311607  71.0177363 134.4343214  71.1275324
  69.6734305 134.7750838  71.7346585  74.4400124 134.7607110  72.5669939
  74.6563738 135.6431748  72.2658767  73.9594191 134.3693323  71.8375581
  69.1799345 137.7192823  79.1440684  69.0343926 138.0333126  80.0364965
  68.7024549 138.3377723  78.5911583  71.0395728 134.7095371  79.1921573
  71.0257297 133.8136464  78.8553871  71.7568156 134.7166035  79.8259860
  72.8921859 135.1432711  81.2374701  72.6339636 136.0649782  81.2359031
  72.3606899 134.7463146  81.9275165  77.8368047 148.2483498  74.0164786
  78.0104925 147.6829921  73.2638639  78.3296939 149.0484393  73.8344276
  63.6545007 140.2598167  82.0828345  63.1098475 141.0357975  82.2148619
  64.5324357 140.6068972  81.9247467  70.4432624 133.5909751  74.4609144
  70.5648535 132.6626397  74.6600031  70.1534666 133.6048437  73.5487459
  73.3123814 131.2764662  77.5975863  73.3345511 131.3403995  76.6427843
  73.7291873 130.4369170  77.7916370  83.6907439 141.0119921  75.6355086
  84.1338585 140.2627246  75.2374209  82.8133949 141.0030058  75.2528818
  78.8243220 147.5650263  71.1161685  79.5194125 148.1856955  71.3348999
  79.1666370 146.7145614  71.3914062  64.4411029 139.3868064  84.9758502
  63.6992765 139.5350699  85.5623132  64.1203773 139.6476329  84.1125251
  80.7234643 145.0149968  72.6449015  81.2485967 145.3537241  71.9198335
  80.6356996 144.0796984  72.4612150  72.3854692 148.9284042  84.7738892
  72.6941818 148.6833189  85.6461592  73.1830174 149.1330680  84.2857762
  72.4075304 151.0821952  77.0044269  71.9680294 150.5898330  77.6977125
  73.1583421 150.5394919  76.7636344  64.8867643 147.2733492  77.0068897
  65.7125663 146.9737264  76.6267540  64.5361695 146.5041115  77.4558685
  69.8549176 146.6259961  79.0766570  69.2329185 145.9630666  78.7768798
  70.5254043 146.6521092  78.3940218  63.0876248 145.1919819  77.9657830
  62.2508156 144.7641993  77.7841831  63.0599893 145.3852262  78.9028621
  69.9273703 135.1041749  88.6699076  69.9761859 135.9803871  88.2876846
  70.4696218 134.5619142  88.0970719  80.4128549 145.6482872  87.9500213
  79.6224093 145.6307011  87.4104713  80.1761904 146.1871166  88.7049250
  80.5326424 142.4975338  85.2632942  80.5824429 142.3325346  86.2048465
  80.4240347 141.6302597  84.8730823  69.4162683 145.1763884  72.5525031
  69.5650803 145.8599348  71.8991703  70.2229126 145.1568974  73.0674486
  77.8230187 138.4806266  86.5792249  78.7240049 138.3412731  86.2876246
  77.8978161 138.6460721  87.5190426  72.1572992 135.8573121  85.4245435
  71.2876301 136.1506687  85.1528023  72.3932472 136.4413566  86.1452699
  82.0344621 144.9172280  85.5074963  81.7429429 145.2802260  86.3438424
  81.4216752 144.2039288  85.3288295  83.2340303 142.4825160  78.0277534
  84.0687195 142.9214964  78.1915094  83.3699432 142.0063813  77.2085779
  80.2831809 140.0404894  83.9755021  80.7585931 140.2332541  83.1673873
  79.3597375 140.0964080  83.7298405  67.1715316 141.2029062  73.5586100
  66.9261358 140.2991392  73.7566310  67.3411230 141.2046212  72.6165578
  74.8612026 132.0752738  82.9410855  75.3793970 132.8113765  82.6157344
  74.5067158 132.3816731  83.7757614  66.4410963 136.9357419  71.0572261
  65.7480208 137.0101774  70.4012297  66.1962715 136.1717763  71.5793778
  72.9158088 147.6712014  70.0236778  72.3432055 148.2902202  69.5707250
  73.4890882 148.2211376  70.5576700  78.9833478 136.9170654  82.2083327
  79.9350901 137.0168752  82.2295551  78.8136929 136.1248923  82.7181411
  77.0047858 134.0026238  82.3942728  76.4097790 134.2831250  81.6989217
  76.7197554 134.4920139  83.1659469  76.1355348 147.9549165  71.1545360
  77.0686021 147.8894726  71.3578236  76.0478561 148.7905431  70.6959893
  78.7643365 147.2715035  68.1149308  78.6856996 146.9374898  69.0085066
  79.5853032 147.7636803  68.1140780  81.4621556 140.1376774  81.3225627
  81.4297876 139.1992775  81.5085310  82.0722180 140.2160811  80.5891451
  73.3004887 139.0072827  67.3652831  74.2463992 138.8779035  67.4341249
  72.9219132 138.2687489  67.8422259  81.6116044 136.9287818  81.3683910
  81.0955093 136.1446274  81.1813839  82.4955993 136.6006534  81.5330429
  79.2726771 130.6728833  77.3279722  79.0751593 130.3643921  78.2123054
  79.8826477 131.3990472  77.4577652  87.2798106 141.1992781  80.4631663
  88.0101494 140.9378069  81.0239367  86.6705051 140.4621503  80.5033731
  85.3613403 139.3400644  81.0606115  84.6346567 139.2056609  80.4522606
  84.9460690 139.6477472  81.8662833  73.1843579 143.0590573  88.8253488
  74.1046589 143.2369172  89.0193534  73.1493162 142.1146619  88.6733187
  71.4847804 136.9322804  67.3007716  70.5779259 136.6355916  67.3770429
  71.7623785 136.6352622  66.4342002  62.4025744 138.2529167  77.7506762
  62.0828529 137.3994475  77.4581136  61.8559173 138.4677745  78.5064730
  66.1805652 140.9691608  81.4676269  66.3991662 141.9008716  81.4864303
  66.5931426 140.6099582  82.2531073  73.1009870 131.4759693  73.4551957
  72.2910598 131.1306778  73.8307203  73.7894287 131.1667237  74.0439569
  75.0300418 130.5537740  75.0776254  75.5831457 130.9733193  75.7366277
  75.2670504 129.6273488  75.1199210  71.0533517 136.5424814  90.8579018
  70.9530244 137.4919171  90.7891109  70.8355059 136.2143053  89.9855088
  70.2546589 133.7909739  67.4419695  71.1165753 134.1164637  67.7015512
  70.4396933 133.0041235  66.9292761  62.2714004 141.8732078  79.7199884
  61.5777476 141.4586031  79.2069838  63.0186995 141.9152615  79.1233303
  78.4079225 132.6638265  74.5854918  77.8277894 133.3223069  74.2032970
  78.1415158 131.8415610  74.1742336  76.8582791 132.0643323  76.7876238
  77.3582570 132.1759857  75.9790557  77.5018399 131.7604376  77.4277047
  70.9164787 139.9721953  89.6744079  70.4331869 140.7722313  89.8807968
  71.0025726 139.9829897  88.7211523  64.1850747 141.8050332  77.5965899
  64.1621435 141.9038019  76.6447782  64.4951383 142.6515483  77.9183065
  66.8438125 143.8626487  81.7112513  67.7981378 143.8310430  81.6442445
  66.6450648 143.4017111  82.5262739  67.4337507 142.4327603  84.2783311
  68.2530396 142.9271682  84.3018148  67.7074315 141.5159571  84.2500878
  77.1904103 134.8238356  73.6411266  76.3029958 135.1088006  73.4231461
  77.6058092 134.6632119  72.7938543  80.5418639 134.8484877  77.3565606
  81.3179029 135.3381329  77.6290222  79.8166773 135.2742931  77.8137475
  82.9791198 135.5612496  78.4139546  83.5735689 135.3208232  77.7032854
  83.0517782 134.8419626  79.0413083  65.1988354 149.4046107  78.7282711
  65.0642821 148.6446508  78.1620709  64.7820416 150.1287007  78.2611500
  76.3347317 144.5883030  67.7359286  77.0383167 144.7933033  68.3516942
  75.6109965 145.1559792  68.0008370  77.1645127 140.3392892  73.8561556
  77.1080328 140.7961443  73.0169189  77.7173469 139.5783576  73.6784399
  80.9749933 136.1282623  74.6811676  80.7186867 135.7279259  75.5119884
  80.3502801 136.8426417  74.5561815  85.2862271 138.8678697  77.1882967
  84.7261829 138.9371886  77.9614529  84.6805774 138.6919681  76.4682464
  68.3557479 150.3015424  78.9401154  68.2389864 151.2460856  78.8379844
  67.5349926 149.9988985  79.3286953  78.2434014 145.0265559  69.7857746
  79.0779618 144.5946758  69.6035221  78.0818357 144.8547573  70.7134641
  77.8979906 141.5297673  71.1514086  77.8428710 141.3641944  70.2102530
  77.2725961 142.2373706  71.3076275  62.6872421 136.7665737  84.9775508
  63.3331285 136.2564691  85.4662733  62.4789572 137.5034419  85.5518933
  75.2125813 143.8346585  90.4767648  76.0816973 144.0087237  90.1154283
  74.7332565 144.6541001  90.3543378  71.2076032 131.0305782  70.7299404
  71.1954701 131.9747622  70.8867675  72.0999453 130.8475927  70.4358865
  69.3811994 150.9543686  82.1557082  70.2839240 150.9867296  82.4723577
  69.1549364 150.0244137  82.1703418  71.1365596 149.7074672  78.8167161
  70.1861227 149.7076534  78.7031533  71.4398082 148.9607407  78.3003195
  67.0269912 133.9133354  89.0750522  67.8901374 133.5570159  89.2853847
  66.4535323 133.5747249  89.7625926  86.8718289 155.5435211  79.8812923
  87.5096699 155.4241958  79.1776263  86.7539132 156.4916055  79.9400875
  83.6807995 155.4962639  79.8174448  83.3426507 155.3803703  78.9294983
  84.5497764 155.0953804  79.7975454  79.5394811 157.3498115  75.8071339
  78.9759676 157.2588052  75.0387627  79.4247206 156.5298020  76.2873831
  84.1627778 156.6497490  85.7760653  84.1516419 156.2550289  84.9041157
  84.3248418 155.9163563  86.3694425  77.0859243 158.8449307  78.6455559
  77.8780535 158.5040131  78.2301859  77.3255893 158.9544282  79.5657713
  85.1194370 161.0169083  71.1185804  84.4682350 161.6023163  70.7319817
  85.9138733 161.5475278  71.1780841  79.0449997 158.1058220  71.5172938
  79.8180873 157.5587207  71.3785814  79.3975396 158.9702469  71.7287399
  80.8835039 159.4334602  84.7239837  80.5924905 160.3380233  84.6086504
  81.5192024 159.4751130  85.4383907  81.8091246 156.8111451  81.3141197
  82.4054819 156.5867473  80.5998160  81.8666218 156.0696196  81.9166645
  81.3816275 154.2650886  69.1491388  81.6341795 153.7432407  68.3874851
  80.4440834 154.1017032  69.2518072  86.4259558 153.2686664  76.9566131
  87.2122647 152.8506088  76.6056548  86.6898262 154.1732757  77.1247780
  86.5969635 158.7059515  71.6554788  85.9615468 158.7794141  72.3675693
  86.2667041 159.2953114  70.9773867  91.8267985 153.2061898  77.8599110
  92.5593157 152.6361114  78.0936939  91.0707340 152.8183498  78.3005615
  81.1012563 156.1678992  71.3515763  80.9848822 155.4923895  72.0196847
  81.2114823 155.6811366  70.5347916  83.4444104 155.6289139  75.0562452
  83.0802312 155.1019760  75.7675374  84.3011220 155.2387608  74.8828938
  89.3493405 146.9183472  82.3193718  89.0176730 147.7878883  82.0954933
  88.7539018 146.6019756  82.9987749  83.0849591 150.6579039  70.0523801
  83.2523994 151.5259275  70.4194272  82.8946760 150.8206321  69.1285090
  85.8424925 159.1196018  81.7189631  85.5425648 160.0221057  81.6105438
  85.4975984 158.8528201  82.5710784  79.2937406 155.5709815  77.7526335
  78.3687903 155.4386029  77.9604027  79.5421819 156.3504034  78.2496278
  89.2422068 151.6378558  79.3987068  88.3338946 151.5693966  79.1045829
  89.1909664 152.1150503  80.2268894  83.0638812 153.1136696  71.0370467
  82.9438437 153.5593747  71.8755948  82.3691401 153.4622014  70.4784006
  76.6546217 155.2143088  78.5870125  76.7838598 155.4677567  79.5009536
  75.9743668 155.8070796  78.2674780  83.3162934 153.0568203  87.3421966
  82.5396268 153.6162124  87.3324830  83.9553497 153.5424986  87.8636836
  91.1083715 149.8394996  81.1764942  90.4658095 150.1327529  80.5304737
  90.6038643 149.7247917  81.9818139  88.7623878 153.5858169  71.8650802
  89.6741735 153.8185556  71.6898499  88.2533525 154.1695214  71.3025880
  81.5709306 155.8653657  86.9039933  82.3123991 156.4038701  86.6274756
  80.8646292 156.4919946  87.0611484  87.0464646 158.0082797  85.5012094
  87.4548002 157.5665208  84.7566726  86.3241908 157.4335425  85.7546287
  83.3995716 152.9455404  82.8745651  84.2456911 153.3694818  83.0180300
  83.3394354 152.2889028  83.5684214  87.3693461 158.5683988  79.2564383
  86.7402323 158.7329702  78.5540451  86.9819123 158.9825597  80.0275347
  91.2482693 159.5038426  76.6108747  90.5633731 159.8837327  76.0605780
  91.3326542 160.1133752  77.3440695  86.5495161 150.6059772  84.5326825
  86.3056093 151.3601833  83.9961100  86.8255092 150.9845120  85.3674072
  88.5033624 157.1498385  83.2104090  88.7150519 157.7930145  82.5338471
  88.4563372 156.3160701  82.7426020  86.1059853 149.7616205  80.1140662
  85.2444332 150.0597459  80.4057400  86.1322288 149.9786604  79.1821695
  82.9221423 158.3058396  76.5214468  83.3859768 158.5846099  75.7319091
  82.6578221 157.4041841  76.3387559  79.8145504 157.8529878  79.4594231
  80.3846861 158.2817146  78.8211716  80.4053616 157.5712462  80.1578417
  81.8590309 154.4281548  73.3304033  82.5614352 154.8802592  73.7977960
  81.5270937 153.7865367  73.9583926  80.3070670 153.0193305  87.7055243
  79.6769331 153.7009586  87.9390639  80.2006758 152.9076387  86.7608381
  75.6015643 152.6865101  78.6321167  74.8114697 152.9422630  78.1561277
  76.0926890 153.5013439  78.7373207  89.6179452 160.0270340  81.3826448
  90.4396896 159.6250528  81.1009129  89.6141855 159.9238574  82.3342563
  77.5530388 153.0509680  75.5904643  76.7561551 153.1628375  76.1088139
  77.3255980 153.3896333  74.7245534  83.3836056 159.5754384  83.5387158
  83.4480488 160.0374791  84.3745330  82.6746980 158.9451748  83.6669468
  73.8853346 152.9395592  81.0636158  74.1361384 153.8242601  81.3293734
  74.4212894 152.7600193  80.2911249  97.7085445 156.3709089  77.7311419
  96.9549154 155.8016487  77.5755424  97.8432986 156.3371753  78.6782054
  83.0984073 161.2422491  73.4066138  82.9629748 162.0874027  73.8350986
  83.6393886 161.4441769  72.6432072  79.5851413 147.3214071  90.0680494
  79.1918358 146.7680269  90.7428138  80.4017553 147.6324649  90.4587011
  76.5513471 158.7597929  73.9794064  77.0637991 159.5541179  74.1299628
  77.2036184 158.0624220  73.9127665  82.5019374 148.7371950  87.6600750
  83.2429087 149.3379103  87.5805213  82.7337297 147.9949588  87.1018793
  77.6460712 153.9228317  85.9378980  77.5314227 153.0213574  86.2386079
  76.7905230 154.1692014  85.5863796  84.7252550 161.8646058  87.5366481
  84.2816404 161.0782436  87.2187385  85.3869763 162.0525208  86.8710371
  86.8233788 162.1448857  85.5647882  86.8052263 162.9657739  85.0728151
  87.7453708 162.0202933  85.7898023  83.2806842 159.6592987  86.4071390
  83.8135179 158.8981275  86.1770698  82.7520923 159.3666639  87.1495545
  86.4476537 144.7653053  81.9365032  86.1040806 145.6554695  81.8604142
  86.8155499 144.5754711  81.0734617  74.5162387 157.0886583  74.7553634
  75.3537609 157.4983592  74.5387342  74.6940655 156.1486026  74.7253828
  86.4126820 154.7561664  70.4437467  85.8973443 155.5266269  70.6825854
  86.1404128 154.0826800  71.0670528  83.9973931 149.6011365  75.5022705
  83.1415527 149.2118215  75.3228344  84.4100882 149.6803326  74.6422491
  85.5273077 147.1357708  79.9014265  85.0237873 147.0987843  79.0882070
  85.8203684 148.0450451  79.9610922  81.7715963 147.2196438  78.9080447
  82.6368960 147.0239246  78.5486336  81.8393472 146.9906790  79.8349804
  91.3861094 157.5094019  72.3790641  90.6090536 157.1705178  71.9345803
  92.0652575 157.5146642  71.7045606  86.2013123 152.6288756  72.2697248
  85.8963258 152.9434905  73.1207391  87.1543565 152.7070176  72.3124581
  84.6459555 158.7878979  73.9190202  84.1180916 158.0531739  73.6063440
  84.1447057 159.5653656  73.6730171  89.6252401 156.9828000  79.0357248
  88.9676075 157.6727261  79.1237377  90.4292800 157.3724432  79.3791235
  79.3778282 149.4498646  76.2796814  79.9522034 149.2273827  75.5470007
  79.9649265 149.5187340  77.0325415  88.4357859 155.3372373  77.0861190
  88.9489741 155.9702364  77.5882900  89.0859083 154.7373568  76.7204550
  79.7047869 151.4803107  70.2992699  78.8685182 151.8177793  70.6201974
  79.5652639 151.3452087  69.3619836  81.6800950 146.3239895  75.0071883
  81.0265362 146.0088912  74.3828498  81.6381424 145.7015635  75.7331706
  82.7912155 156.6059190  66.9225175  81.8839217 156.3748443  67.1216324
  83.2883187 155.8096809  67.1099157  84.9138690 152.8121828  79.3319531
  83.9961252 153.0336775  79.1741219  85.3298834 152.8868139  78.4731238
  85.6973738 154.2113244  74.4622211  86.4445557 154.7234641  74.1529333
  85.9665328 153.8897297  75.3226605  83.9700388 156.7071785  71.4449165
  83.0611607 156.4230817  71.5421635  83.9995472 157.1270863  70.5852472
  89.2019656 160.3178374  75.2140333  88.7481983 159.4769284  75.2705523
  88.5713622 160.9539772  75.5515113  88.1452575 151.2470360  76.4441000
  87.4075332 150.7347746  76.7751243  88.3979349 150.8070742  75.6324277
  87.6452595 162.1554871  76.1490151  87.9375569 162.7159928  75.4302517
  88.1551215 162.4483432  76.9043310  88.2464203 144.0246612  77.0382770
  88.5523079 143.1643976  76.7508685  88.9716807 144.6164232  76.8381763
  74.5388559 154.4277299  75.4264368  74.3412958 153.8346659  74.7015434
  73.9835223 154.1229509  76.1440306  82.5185282 154.3200405  77.5458961
  82.5733892 153.3674242  77.4701437  81.7076484 154.4759844  78.0300259
  83.6676476 158.2480528  68.7837244  83.2295906 157.5316387  68.3242881
  84.4086917 158.4756643  68.2222335  80.4577642 152.9377465  75.3049340
  79.6445508 153.2371635  75.7114532  80.9536636 152.5433154  76.0223822
  82.6086220 162.9335222  77.2383604  82.5662399 163.1596068  76.3092136
  83.5248919 162.6998596  77.3869405  86.0551854 153.4019289  84.1364233
  86.4101242 153.6290763  84.9958699  86.7023985 153.7337666  83.5141489
  91.7849591 156.5237725  74.8413562  91.6467489 156.7139321  73.9134752
  91.4285810 157.2857108  75.2981614  79.9491717 150.5095820  80.9210574
  80.5891096 150.3684580  80.2233538  79.1169247 150.2230334  80.5449176
  91.8118970 158.5914252  79.8524834  92.2455477 158.4989541  80.7007888
  92.5250551 158.5671753  79.2144850  80.7252021 159.8098251  77.0345567
  81.5192619 159.3148571  76.8328142  80.0143713 159.2816114  76.6713273
  85.5446865 162.1916346  81.3857935  85.5983888 162.7607283  82.1535650
  84.6761647 162.3618231  81.0211972  77.0334784 153.9541333  73.1105320
  76.1032372 153.8925788  73.3275282  77.1292256 153.4317285  72.3141961
  76.9520333 150.4796145  75.6983561  77.2127151 151.3941479  75.5892722
  77.7737506 150.0120588  75.8480174  78.4245259 151.8933903  82.8682386
  79.0968312 151.6851265  82.2195035  77.5975045 151.6955989  82.4287618
  92.6734520 158.6337953  82.3857719  92.8670410 159.5383763  82.6316994
  92.5735138 158.1745372  83.2196304  84.3270831 148.5195844  84.8848047
  83.6798746 149.2185793  84.7912523  85.0971846 148.9531987  85.2524295
  87.7349629 158.7844696  87.9598600  87.5835135 158.5555247  87.0428684
  87.7254308 159.7415297  87.9729945  84.5034965 156.3576608  82.9444866
  85.4327025 156.5087768  82.7713834  84.0825995 156.4460629  82.0893513
  83.3023297 160.3827273  80.7143404  83.1634383 160.0146057  81.5869342
  82.5137893 160.8974912  80.5427362  84.8528512 159.7608876  78.1032242
  84.5178345 159.7209645  78.9989892  84.3532458 159.0953591  77.6302652
  78.8272756 155.1676506  83.6284823  78.6892554 154.4356744  84.2296362
  79.7377679 155.0785406  83.3469011  87.7887704 157.1064910  68.3769301
  87.1716874 156.3811738  68.2802354  87.3204192 157.8674270  68.0336376
  81.4555057 154.8796465  83.1168503  82.1654675 154.2389657  83.0755121
  81.4124365 155.1309360  84.0394683  89.4441835 161.8163818  86.0375082
  89.3854381 161.1323038  85.3705665  89.8461354 162.5582808  85.5855708
  80.1683991 151.8661683  84.9364142  79.6321348 151.4152421  85.5885738
  79.5800699 152.0007592  84.1934606  79.5786250 151.3250334  67.4990606
  78.7015716 151.2039135  67.1352852  80.0544003 150.5336412  67.2469494
  89.4459243 159.7803402  84.2689062  88.5586021 159.4429324  84.3915460
  90.0157794 159.0486433  84.5057827  71.0988390 156.1127494  77.5932113
  71.7859430 155.7989224  77.0053128  70.9436518 157.0168859  77.3199364
  75.9023112 151.0017690  82.0217137  75.8181301 150.3943360  81.2867547
  75.0805818 151.4926709  82.0226633  86.0746826 149.4871254  77.3887332
  86.5715525 148.7341216  77.0688402  85.3033807 149.5235571  76.8230541
  93.9276583 155.1911620  79.0305623  93.9166459 156.0736335  78.6599556
  93.0593963 154.8383170  78.8360160  87.1576606 158.2442941  74.9625755
  86.2232885 158.3644404  74.7930459  87.3353275 157.3415408  74.6985765
  82.6581794 151.6288637  77.1159016  82.2879582 151.0759677  77.8039922
  83.1540887 151.0246770  76.5634016  90.5449158 154.0860260  75.4975789
  91.0109610 154.9188252  75.4236092  90.9956658 153.6205242  76.2021048
  80.4870993 162.0886132  84.2114034  81.1880452 162.7222615  84.3643428
  80.0166108 162.4300864  83.4509673  88.6125389 160.4304082  72.4961941
  88.8885233 160.3160676  73.4055815  87.7429888 160.0321567  72.4574114
  88.5165820 146.4540847  79.5366691  87.6028900 146.6845074  79.7048897
  88.9458922 146.5379292  80.3880723  88.2872279 154.6430739  82.0366585
  87.6343729 154.8906647  81.3819037  88.6652659 153.8294878  81.7029062
  85.5821618 163.6058618  73.4009803  86.1109385 163.0951072  72.7879965
  85.8449838 163.2901148  74.2655336  84.3359852 155.3850551  88.5232622
  83.6600489 155.2844680  89.1934997  85.1587486 155.2289764  88.9868619
  70.6756366 154.1928087  79.8649580  70.7140465 153.6591678  80.6586698
  70.1696659 153.6663293  79.2460557  78.0547128 149.0392628  83.3612122
  78.1188455 149.9007459  82.9489520  77.9914248 148.4266629  82.6284481
  77.5299401 151.1115760  87.0085157  78.1571439 150.7292838  87.6222681
  76.6727319 150.8929962  87.3740849  87.9293509 161.5178735  88.6138892
  88.4733413 162.1308694  88.1193847  87.3480354 162.0758314  89.1305905
  74.3064943 152.9192189  72.9403511  74.6018384 152.0102868  72.8870565
  73.4052979 152.8979929  72.6184514  77.8359190 150.9948186  78.9231060
  77.1145776 151.6084154  78.7838533  78.6252446 151.5305951  78.8447706
  88.2785931 162.4408474  81.3733470  87.3316266 162.3213825  81.3011797
  88.6268704 161.5530972  81.4559731  80.6385504 148.3302612  85.1971712
  81.1619906 148.5764909  85.9598021  80.4197837 149.1622647  84.7774849
  76.0352785 150.6006287  73.0642837  75.7065491 149.7203666  72.8817942
  76.3892156 150.5453956  73.9519226  85.2832364 162.2361190  77.5737822
  85.1357326 161.3077897  77.7545392  86.1085857 162.2581280  77.0894897
  79.1494608 150.8879257  73.4318314  79.4890681 151.4165178  72.7096923
  79.5966729 151.2259663  74.2076881  88.8866486 163.0589749  78.6602695
  89.8113033 162.8532610  78.5227146  88.7181789 162.8106150  79.5692036
  81.8438049 149.2716308  82.8821382  81.5034869 148.4724121  83.2842062
  81.1377055 149.5718018  82.3098215  82.4954521 146.3565620  81.3348705
  83.3180590 145.8826098  81.2127596  82.7392584 147.1356104  81.8347392
  81.1362755 149.3853878  71.6311607  81.8571118 149.7635131  71.1275324
  80.5128059 150.1042755  71.7346585  85.2793878 150.0899027  72.5669939
  85.4957493 150.9723665  72.2658767  84.7987945 149.6985241  71.8375581
  80.0193100 153.0484741  79.1440684  79.8737680 153.3625044  80.0364965
  79.5418303 153.6669641  78.5911583  81.8789482 150.0387289  79.1921573
  81.8651051 149.1428382  78.8553871  82.5961911 150.0457952  79.8259860
  83.7315613 150.4724629  81.2374701  83.4733391 151.3941699  81.2359031
  83.2000654 150.0755063  81.9275165  88.6761802 163.5775416  74.0164786
  88.8498679 163.0121838  73.2638639  89.1690693 164.3776311  73.8344276
  74.4938762 155.5890085  82.0828345  73.9492230 156.3649893  82.2148619
  75.3718112 155.9360890  81.9247467  81.2826378 148.9201669  74.4609144
  81.4042290 147.9918315  74.6600031  80.9928421 148.9340355  73.5487459
  84.1517569 146.6056579  77.5975863  84.1739266 146.6695912  76.6427843
  84.5685628 145.7661088  77.7916370  94.5301193 156.3411839  75.6355086
  94.9732339 155.5919164  75.2374209  93.6527703 156.3321975  75.2528818
  89.6636974 162.8942180  71.1161685  90.3587879 163.5148873  71.3348999
  90.0060125 162.0437532  71.3914062  75.2804784 154.7159981  84.9758502
  74.5386520 154.8642617  85.5623132  74.9597528 154.9768247  84.1125251
  91.5628397 160.3441886  72.6449015  92.0879722 160.6829159  71.9198335
  91.4750750 159.4088901  72.4612150  80.6942930 161.9551878  79.0766570
  80.0722940 161.2922583  78.7768798  81.3647797 161.9813010  78.3940218
  80.7667458 150.4333666  88.6699076  80.8155613 151.3095789  88.2876846
  81.3089972 149.8911059  88.0970719  91.2522304 160.9774790  87.9500213
  90.4617847 160.9598928  87.4104713  91.0155658 161.5163083  88.7049250
  91.3720179 157.8267256  85.2632942  91.4218184 157.6617263  86.2048465
  91.2634102 156.9594515  84.8730823  80.2556437 160.5055802  72.5525031
  80.4044558 161.1891266  71.8991703  81.0622881 160.4860892  73.0674486
  88.6623941 153.8098184  86.5792249  89.5633804 153.6704649  86.2876246
  88.7371916 153.9752639  87.5190426  82.9966746 151.1865039  85.4245435
  82.1270056 151.4798605  85.1528023  83.2326227 151.7705484  86.1452699
  92.8738375 160.2464197  85.5074963  92.5823184 160.6094178  86.3438424
  92.2610507 159.5331206  85.3288295  94.0734058 157.8117077  78.0277534
  94.9080949 158.2506881  78.1915094  94.2093187 157.3355730  77.2085779
  91.1225564 155.3696812  83.9755021  91.5979685 155.5624458  83.1673873
  90.1991129 155.4255998  83.7298405  78.0109070 156.5320979  73.5586100
  77.7655112 155.6283309  73.7566310  78.1804985 156.5338130  72.6165578
  85.7005780 147.4044656  82.9410855  86.2187724 148.1405683  82.6157344
  85.3460913 147.7108649  83.7757614  77.2804718 152.2649337  71.0572261
  76.5873963 152.3393692  70.4012297  77.0356470 151.5009680  71.5793778
  85.9518374 143.8244938  78.4611752  86.2320128 143.1568127  79.0872178
  86.7368981 144.0174034  77.9486416  83.7551843 163.0003932  70.0236778
  83.1825810 163.6194119  69.5707250  84.3284637 163.5503294  70.5576700
  89.8227233 152.2462572  82.2083327  90.7744656 152.3460670  82.2295551
  89.6530683 151.4540841  82.7181411  87.8441612 149.3318155  82.3942728
  87.2491544 149.6123168  81.6989217  87.5591309 149.8212056  83.1659469
  86.9749103 163.2841082  71.1545360  87.9079776 163.2186644  71.3578236
  86.8872315 164.1197349  70.6959893  89.6037119 162.6006953  68.1149308
  89.5250751 162.2666816  69.0085066  90.4246786 163.0928720  68.1140780
  92.3015310 155.4668692  81.3225627  92.2691631 154.5284693  81.5085310
  92.9115934 155.5452729  80.5891451  84.1398641 154.3364745  67.3652831
  85.0857746 154.2070953  67.4341249  83.7612886 153.5979407  67.8422259
  92.4509799 152.2579735  81.3683910  91.9348848 151.4738192  81.1813839
  93.3349747 151.9298452  81.5330429  90.1120526 146.0020751  77.3279722
  89.9145347 145.6935839  78.2123054  90.7220231 146.7282390  77.4577652
  98.1191860 156.5284699  80.4631663  98.8495249 156.2669987  81.0239367
  97.5098806 155.7913421  80.5033731  96.2007157 154.6692561  81.0606115
  95.4740321 154.5348526  80.4522606  95.7854444 154.9769390  81.8662833
  84.0237334 158.3882491  88.8253488  84.9440343 158.5661090  89.0193534
  83.9886917 157.4438536  88.6733187  82.3241558 152.2614721  67.3007716
  81.4173014 151.9647834  67.3770429  82.6017539 151.9644539  66.4342002
  73.2419499 153.5821085  77.7506762  72.9222283 152.7286393  77.4581136
  72.6952927 153.7969663  78.5064730  77.0199406 156.2983526  81.4676269
  77.2385416 157.2300633  81.4864303  77.4325180 155.9391500  82.2531073
  83.9403624 146.8051611  73.4551957  83.1304353 146.4598696  73.8307203
  84.6288041 146.4959155  74.0439569  85.8694172 145.8829658  75.0776254
  86.4225211 146.3025111  75.7366277  86.1064259 144.9565406  75.1199210
  81.8927272 151.8716731  90.8579018  81.7923999 152.8211088  90.7891109
  81.6748814 151.5434970  89.9855088  81.0940343 149.1201656  67.4419695
  81.9559507 149.4456555  67.7015512  81.2790687 148.3333152  66.9292761
  73.1107759 157.2023996  79.7199884  72.4171230 156.7877949  79.2069838
  73.8580750 157.2444533  79.1233303  89.2472980 147.9930183  74.5854918
  88.6671649 148.6514987  74.2032970  88.9808912 147.1707527  74.1742336
  87.6976546 147.3935241  76.7876238  88.1976324 147.5051775  75.9790557
  88.3412154 147.0896293  77.4277047  81.7558542 155.3013870  89.6744079
  81.2725623 156.1014230  89.8807968  81.8419481 155.3121815  88.7211523
  75.0244501 157.1342250  77.5965899  75.0015190 157.2329937  76.6447782
  75.3345138 157.9807401  77.9183065  77.6831879 159.1918405  81.7112513
  78.6375133 159.1602347  81.6442445  77.4844403 158.7309029  82.5262739
  78.2731261 157.7619521  84.2783311  79.0924150 158.2563600  84.3018148
  78.5468069 156.8451489  84.2500878  88.0297858 150.1530273  73.6411266
  87.1423713 150.4379924  73.4231461  88.4451847 149.9924037  72.7938543
  91.3812394 150.1776794  77.3565606  92.1572784 150.6673247  77.6290222
  90.6560528 150.6034848  77.8137475  93.8184952 150.8904413  78.4139546
  94.4129443 150.6500149  77.7032854  93.8911536 150.1711544  79.0413083
  87.1741071 159.9174948  67.7359286  87.8776921 160.1224950  68.3516942
  86.4503720 160.4851710  68.0008370  88.0038881 155.6684809  73.8561556
  87.9474083 156.1253361  73.0169189  88.5567224 154.9075494  73.6784399
  91.8143687 151.4574541  74.6811676  91.5580621 151.0571177  75.5119884
  91.1896555 152.1718335  74.5561815  96.1256025 154.1970614  77.1882967
  95.5655583 154.2663804  77.9614529  95.5199528 154.0211599  76.4682464
  89.0827768 160.3557477  69.7857746  89.9173372 159.9238676  69.6035221
  88.9212111 160.1839491  70.7134641  88.7373661 156.8589590  71.1514086
  88.6822464 156.6933862  70.2102530  88.1119716 157.5665623  71.3076275
  73.5266176 152.0957655  84.9775508  74.1725039 151.5856609  85.4662733
  73.3183327 152.8326336  85.5518933  86.0519568 159.1638502  90.4767648
  86.9210727 159.3379155  90.1154283  85.5726319 159.9832919  90.3543378
  82.0469786 146.3597699  70.7299404  82.0348456 147.3039539  70.8867675
  82.9393208 146.1767845  70.4358865  85.8621906 142.9540476  74.9845341
  85.0954301 142.3998963  75.1302023  86.2732611 143.0262345  75.8459493
  77.8663667 149.2425272  89.0750522  78.7295128 148.8862077  89.2853847
  77.2929077 148.9039167  89.7625926 102.6661739 168.5353815  77.8599110
 103.3986911 167.9653032  78.0936939 101.9101095 168.1475416  78.3005615
 100.1887160 162.2475389  82.3193718  99.8570484 163.1170800  82.0954933
  99.5932773 161.9311673  82.9987749  93.9243346 165.9870956  70.0523801
  94.0917748 166.8551193  70.4194272  93.7340515 166.1498238  69.1285090
 100.0815823 166.9670476  79.3987068  99.1732700 166.8985884  79.1045829
 100.0303419 167.4442421  80.2268894 101.9477469 165.1686914  81.1764942
 101.3051849 165.4619447  80.5304737 101.4432398 165.0539834  81.9818139
  97.3888916 165.9351690  84.5326825  97.1449848 166.6893751  83.9961100
  97.6648846 166.3137038  85.3674072  96.9453608 165.0908123  80.1140662
  96.0838087 165.3889377  80.4057400  96.9716042 165.3078522  79.1821695
  90.4245167 162.6505989  90.0680494  90.0312113 162.0972187  90.7428138
  91.2411308 162.9616567  90.4587011  93.3413128 164.0663868  87.6600750
  94.0822842 164.6671021  87.5805213  93.5731051 163.3241505  87.1018793
  97.2870291 160.0944971  81.9365032  96.9434561 160.9846612  81.8604142
  97.6549254 159.9046628  81.0734617  94.8367685 164.9303282  75.5022705
  93.9809281 164.5410133  75.3228344  95.2494637 165.0095243  74.6422491
  96.3666832 162.4649626  79.9014265  95.8631627 162.4279761  79.0882070
  96.6597439 163.3742368  79.9610922  92.6109718 162.5488355  78.9080447
  93.4762714 162.3531164  78.5486336  92.6787227 162.3198707  79.8349804
  97.0406877 167.9580674  72.2697248  96.7357013 168.2726823  73.1207391
  97.9937319 168.0362094  72.3124581  90.2172037 164.7790563  76.2796814
  90.7915789 164.5565745  75.5470007  90.8043019 164.8479258  77.0325415
  92.5194704 161.6531812  75.0071883  91.8659117 161.3380829  74.3828498
  92.4775179 161.0307553  75.7331706  98.9846330 166.5762278  76.4441000
  98.2469086 166.0639664  76.7751243  99.2373103 166.1362659  75.6324277
  99.0857957 159.3538530  77.0382770  99.3916834 158.4935893  76.7508685
  99.8110562 159.9456150  76.8381763  90.7885471 165.8387738  80.9210574
  91.4284851 165.6976497  80.2233538  89.9563002 165.5522251  80.5449176
  95.1664585 163.8487761  84.8848047  94.5192500 164.5477711  84.7912523
  95.9365601 164.2823905  85.2524295  96.9140580 164.8163172  77.3887332
  97.4109280 164.0633134  77.0688402  96.1427562 164.8527488  76.8230541
  93.4975549 166.9580555  77.1159016  93.1273336 166.4051595  77.8039922
  93.9934641 166.3538688  76.5634016  99.3559575 161.7832765  79.5366691
  98.4422655 162.0136992  79.7048897  99.7852676 161.8671209  80.3880723
  88.8940883 164.3684545  83.3612122  88.9582209 165.2299376  82.9489520
  88.8308003 163.7558547  82.6284481  91.4779258 163.6594530  85.1971712
  92.0013660 163.9056827  85.9598021  91.2591592 164.4914565  84.7774849
  92.6831803 164.6008225  82.8821382  92.3428624 163.8016038  83.2842062
  91.9770810 164.9009936  82.3098215  93.3348275 161.6857538  81.3348705
  94.1574345 161.2118016  81.2127596  93.5786339 162.4648021  81.8347392
  91.9756510 164.7145796  71.6311607  92.6964872 165.0927049  71.1275324
  91.3521814 165.4334673  71.7346585  96.1187633 165.4190945  72.5669939
  96.3351247 166.3015583  72.2658767  95.6381700 165.0277159  71.8375581
  92.7183237 165.3679206  79.1921573  92.7044806 164.4720300  78.8553871
  93.4355665 165.3749870  79.8259860  94.5709368 165.8016547  81.2374701
  94.3127145 166.7233617  81.2359031  94.0394408 165.4046981  81.9275165
  92.1220133 164.2493587  74.4609144  92.2436044 163.3210233  74.6600031
  91.8322175 164.2632273  73.5487459  94.9911323 161.9348497  77.5975863
  95.0133020 161.9987830  76.6427843  95.4079382 161.0953006  77.7916370
  99.5017695 169.1390102  86.5792249 100.4027558 168.9996566  86.2876246
  99.5765670 169.3044556  87.5190426  93.8360501 166.5156956  85.4245435
  92.9663810 166.8090522  85.1528023  94.0719981 167.0997401  86.1452699
  96.5399535 162.7336573  82.9410855  97.0581479 163.4697600  82.6157344
  96.1854667 163.0400567  83.7757614  96.7912129 159.1536856  78.4611752
  97.0713883 158.4860045  79.0872178  97.5762736 159.3465951  77.9486416
 100.6620987 167.5754490  82.2083327 101.6138410 167.6752587  82.2295551
 100.4924438 166.7832758  82.7181411  98.6835367 164.6610073  82.3942728
  98.0885299 164.9415086  81.6989217  98.3985063 165.1503974  83.1659469
 103.2903553 167.5871653  81.3683910 102.7742602 166.8030110  81.1813839
 104.1743502 167.2590370  81.5330429 100.9514280 161.3312669  77.3279722
 100.7539101 161.0227757  78.2123054 101.5613986 162.0574307  77.4577652
  94.7797379 162.1343529  73.4551957  93.9698107 161.7890614  73.8307203
  95.4681796 161.8251072  74.0439569  96.7087927 161.2121575  75.0776254
  97.2618966 161.6317029  75.7366277  96.9458013 160.2857324  75.1199210
  91.9334098 164.4493574  67.4419695  92.7953262 164.7748472  67.7015512
  92.1184442 163.6625070  66.9292761 100.0866734 163.3222101  74.5854918
  99.5065403 163.9806905  74.2032970  99.8202667 162.4999445  74.1742336
  98.5370300 162.7227158  76.7876238  99.0370079 162.8343693  75.9790557
  99.1805908 162.4188211  77.4277047  98.8691612 165.4822191  73.6411266
  97.9817467 165.7671842  73.4231461  99.2845601 165.3215954  72.7938543
 102.2206148 165.5068712  77.3565606 102.9966538 165.9965164  77.6290222
 101.4954282 165.9326766  77.8137475 104.6578707 166.2196331  78.4139546
 105.2523198 165.9792067  77.7032854 104.7305291 165.5003462  79.0413083
 102.6537442 166.7866459  74.6811676 102.3974376 166.3863094  75.5119884
 102.0290310 167.5010253  74.5561815  92.8863541 161.6889617  70.7299404
  92.8742210 162.6331457  70.8867675  93.7786962 161.5059763  70.4358865
  96.7015660 158.2832394  74.9845341  95.9348056 157.7290880  75.1302023
  97.1126365 158.3554263  75.8459493  88.7057421 164.5717190  89.0750522
  89.5688883 164.2153994  89.2853847  88.1322832 164.2331084  89.7625926
  10.9962009  25.2453909  66.6058230  11.6340419  25.1260657  65.9021570
  10.8782852  26.1934753  66.6646182   7.8051715  25.1981338  66.5419754
   7.4670227  25.0822402  65.6540289   8.6741483  24.7972503  66.5220761
   3.6638531  27.0516814  62.5316645   3.1003396  26.9606751  61.7632933
   3.5490926  26.2316718  63.0119138   8.2871498  26.3516189  72.5005960
   8.2760139  25.9568988  71.6286464   8.4492138  25.6182262  73.0939731
   1.2102963  28.5468006  65.3700866   2.0024255  28.2058830  64.9547165
   1.4499613  28.6562981  66.2903019   9.2438090  30.7187782  57.8431110
   8.5926069  31.3041862  57.4565124  10.0382452  31.2493977  57.9026148
   3.1693717  27.8076919  58.2418245   3.9424593  27.2605906  58.1031120
   3.5219116  28.6721168  58.4532706   5.0078759  29.1353301  71.4485144
   4.7168625  30.0398932  71.3331810   5.6435744  29.1769829  72.1629214
   5.9334966  26.5130150  68.0386504   6.5298538  26.2886172  67.3243467
   5.9909938  25.7714895  68.6411951   5.5059995  23.9669585  55.8736695
   5.7585515  23.4451106  55.1120158   4.5684554  23.8035730  55.9763378
  10.5503277  22.9705363  63.6811438  11.3366367  22.5524786  63.3301855
  10.8141982  23.8751455  63.8493086  10.7213355  28.4078214  58.3800095
  10.0859188  28.4812840  59.0920999  10.3910761  28.9971812  57.7019174
  15.9511705  22.9080596  64.5844416  16.6836876  22.3379813  64.8182246
  15.1951060  22.5202197  65.0250922   5.2256283  25.8697691  58.0761070
   5.1092541  25.1942594  58.7442154   5.3358543  25.3830065  57.2593223
   7.5687824  25.3307838  61.7807759   7.2046031  24.8038459  62.4920680
   8.4254940  24.9406307  61.6074244  13.4737125  16.6202171  69.0439025
  13.1420450  17.4897582  68.8200240  12.8782738  16.3038455  69.7233055
   7.2093311  20.3597738  56.7769107   7.3767714  21.2277974  57.1439578
   7.0190480  20.5225019  55.8530397   9.9668644  28.8214717  68.4434938
   9.6669367  29.7239755  68.3350745   9.6219704  28.5546900  69.2956091
   3.4181126  25.2728513  64.4771642   2.4931622  25.1404728  64.6849334
   3.6665539  26.0522733  64.9741584  13.3665788  21.3397257  66.1232375
  12.4582666  21.2712665  65.8291136  13.3153384  21.8169202  66.9514200
   7.1882532  22.8155395  57.7615774   7.0682157  23.2612446  58.6001254
   6.4935120  23.1640713  57.2029312   4.9489424  35.5859037  61.4105905
   4.8713454  36.5366862  61.4894386   4.3451068  35.2404909  62.0680832
   7.4406654  22.7586902  74.0667272   6.6639988  23.3180822  74.0570137
   8.0797217  23.2443685  74.5882142  15.2327435  19.5413695  67.9010249
  14.5901815  19.8346228  67.2550043  14.7282363  19.4266615  68.7063446
  12.8867598  23.2876868  58.5896108  13.7985454  23.5204255  58.4143806
  12.3777245  23.8713913  58.0271187   5.6953026  25.5672356  73.6285239
   6.4367711  26.1057400  73.3520063   4.9890012  26.1938644  73.7856791
  11.1708366  27.7101496  72.2257401  11.5791722  27.2683907  71.4812033
  10.4485627  27.1354124  72.4791594   7.5239436  22.6474103  69.5990958
   8.3700631  23.0713517  69.7425607   7.4638074  21.9907727  70.2929521
  11.4937181  28.2702687  65.9809690  10.8646043  28.4348401  65.2785757
  11.1062843  28.6844296  66.7520654  15.3726412  29.2057125  63.3354053
  14.6877451  29.5856026  62.7851087  15.4570262  29.8152451  64.0686001
  10.6738881  20.3078471  71.2572131  10.4299813  21.0620532  70.7206407
  10.9498812  20.6863819  72.0919378  12.6277344  26.8517084  69.9349397
  12.8394239  27.4948844  69.2583778  12.5807092  26.0179400  69.4671327
  10.2303573  19.4634904  66.8385969   9.3688052  19.7616158  67.1302707
  10.2566008  19.6805303  65.9067002   7.0465142  28.0077095  63.2459775
   7.5103488  28.2864798  62.4564397   6.7821941  27.1060539  63.0632865
   3.9389224  27.5548576  66.1839538   4.5090581  27.9835845  65.5457022
   4.5297335  27.2731161  66.8823724   5.9834029  24.1300247  60.0549340
   6.6858072  24.5821291  60.5223266   5.6514657  23.4884066  60.6829233
   4.4314390  22.7212004  74.4300549   3.8013051  23.4028285  74.6635946
   4.3250478  22.6095085  73.4853688  13.7423172  29.7289039  68.1071754
  14.5640616  29.3269226  67.8254436  13.7385575  29.6257273  69.0587870
   7.5079775  29.2773082  70.2632465   7.5724208  29.7393490  71.0990637
   6.7990699  28.6470447  70.3914775  21.8329165  26.0727788  64.4556726
  21.0792873  25.5035186  64.3000730  21.9676706  26.0390452  65.4027360
   7.2227793  30.9441190  60.1311445   7.0873468  31.7892726  60.5596293
   7.7637606  31.1460468  59.3677379   0.6757191  28.4616628  60.7039370
   1.1881711  29.2559878  60.8544935   1.3279903  27.7642918  60.6372972
   2.4852075  31.5782384  62.7862123   2.6618704  32.5000349  62.5983107
   3.2808909  31.2640803  63.2156503   8.8496270  31.5664756  74.2611787
   8.4060124  30.7801135  73.9432692   9.5113483  31.7543907  73.5955678
   3.6083391  33.0960558  68.7872466   4.1590816  32.9677621  68.0149460
   2.7694867  33.3955447  68.4367358  10.9477508  31.8467556  72.2893188
  10.9295983  32.6676437  71.7973458  11.8697428  31.7221632  72.5143330
   7.4050562  29.3611686  73.1316697   7.9378899  28.5999974  72.9016005
   6.8764643  29.0685338  73.8740851  10.5370539  24.4580363  57.1682774
  10.0217163  25.2284968  57.4071161  10.2647848  23.7845499  57.7915835
   8.1217650  19.3030064  62.2268012   7.2659247  18.9136914  62.0473651
   8.5344602  19.3822024  61.3667798  15.5104814  27.2112718  59.1035947
  14.7334256  26.8723877  58.6591109  16.1896295  27.2165341  58.4290912
  10.3256843  22.3307455  58.9942555  10.0206978  22.6453604  59.8452698
  11.2787285  22.4088875  59.0369888   8.7703274  28.4897678  60.6435509
   8.2424636  27.7550438  60.3308746   8.2690777  29.2672355  60.3975477
  13.7496120  26.6846699  65.7602555  13.0919795  27.3745960  65.8482684
  14.5536520  27.0743131  66.1036541  12.5601579  25.0391071  63.8106497
  13.0733461  25.6721063  64.3128207  13.2102803  24.4392267  63.4449857
   6.9155875  26.3077889  53.6470482   6.0082936  26.0767142  53.8461631
   7.4126907  25.5115508  53.8344463   9.8223953  35.0175396  56.5667168
   9.1485652  35.3207092  57.1752126  10.2089775  35.8204476  56.2172625
   9.0382410  22.5140527  66.0564837   8.1204971  22.7355474  65.8986525
   9.4542554  22.5886837  65.1976545   9.8217458  23.9131943  61.1867518
  10.5689277  24.4253340  60.8774640  10.0909047  23.5915995  62.0471911
   8.0944108  26.4090483  58.1694472   7.1855327  26.1249516  58.2666942
   8.1239192  26.8289562  57.3097779  13.3263375  30.0197073  61.9385640
  12.8725703  29.1787983  61.9950830  12.6957342  30.6558471  62.2760420
  12.2696295  20.9489059  63.1686307  11.5319052  20.4366445  63.4996550
  12.5223069  20.5089441  62.3569584  11.7696315  31.8573570  62.8735458
  12.0619289  32.4178627  62.1547823  12.2794935  32.1502131  63.6288617
   6.6429002  24.0219104  64.2704267   6.6977612  23.0692940  64.1946744
   5.8320204  24.1778543  64.7545566   7.7920196  27.9499227  55.5082551
   7.3539626  27.2335086  55.0488188   8.5330637  28.1775342  54.9467642
   4.5821362  22.6396164  62.0294646   3.7689228  22.9390334  62.4359838
   5.0780356  22.2451853  62.7469128   6.7329940  32.6353921  63.9628911
   6.6906119  32.8614767  63.0337443   7.6492639  32.4017295  64.1114712
  10.1795574  23.1037988  70.8609540  10.5344961  23.3309461  71.7204006
  10.8267705  23.4356365  70.2386795  15.9093311  26.2256424  61.5658869
  15.7711209  26.4158020  60.6380058  15.5529529  26.9875807  62.0226920
  15.9362690  28.2932951  66.5770141  16.3699197  28.2008240  67.4253195
  16.6494271  28.2690452  65.9390157   4.8495741  29.5116950  63.7590874
   5.6436339  29.0167270  63.5573449   4.1387433  28.9834813  63.3958579
   9.6690585  31.8935045  68.1103241   9.7227607  32.4625982  68.8780957
   8.8005367  32.0636930  67.7457278  16.7978240  28.3356652  69.1103026
  16.9914130  29.2402462  69.3562301  16.6978858  27.8764071  69.9441611
   8.4514551  18.2214542  71.6093353   7.8042466  18.9204492  71.5157830
   9.2215566  18.6550686  71.9769602  11.8593348  28.4863395  74.6843907
  11.7078855  28.2573946  73.7673990  11.8498028  29.4433996  74.6975252
   8.6278685  26.0595307  69.6690173   9.5570745  26.2106467  69.4959140
   8.2069715  26.1479328  68.8138820   7.4267017  30.0845972  67.4388711
   7.2878102  29.7164756  68.3114649   6.6381613  30.5993611  67.2672668
   8.0215169  35.1855068  58.7814247   8.1966924  34.7143111  59.5959870
   7.3347957  35.8120834  59.0095508   8.9772232  29.4627574  64.8277548
   8.6422064  29.4228344  65.7235198   8.4776177  28.7972290  64.3547959
   2.9516476  24.8695204  70.3530130   2.8136274  24.1375443  70.9541669
   3.8621399  24.7804105  70.0714317  11.9131423  26.8083609  55.1014608
  11.2960594  26.0830437  55.0047661  11.4447912  27.5692969  54.7581682
   5.5798776  24.5815164  69.8413809   6.2898395  23.9408356  69.8000428
   5.5368085  24.8328059  70.7639990  13.5685555  31.5182517  72.7620388
  13.5098101  30.8341737  72.0950971  13.9705073  32.2601507  72.3101014
   2.5876254  38.3344431  65.5554107   2.8272852  38.9662955  66.2333126
   1.7445450  37.9832471  65.8419467  13.5702962  29.4822101  70.9934368
  12.6829741  29.1448023  71.1160767  14.1401513  28.7505132  71.2303134
   7.1004116  34.1423553  67.9595611   7.0274287  34.9478525  68.4714916
   6.6581509  34.3415519  67.1343633   6.8893895  33.3795323  61.4698433
   6.1061417  33.9217004  61.5636657   7.5886641  33.8969303  61.8692674
  10.1990546  19.1889953  64.1132638  10.6959245  18.4359915  63.7933709
   9.4277527  19.2254270  63.5475848  18.0520303  24.8930318  65.7550930
  18.0410179  25.7755034  65.3844863  17.1837682  24.5401869  65.5605467
   9.5602799  34.0410387  70.1153770  10.2730772  34.6757852  70.0429671
   9.0692828  34.1374253  69.2993772  11.2820326  27.9461640  61.6871062
  10.3476605  28.0663103  61.5175766  11.4596995  27.0434107  61.4231072
   6.7825514  21.3307336  63.8404323   6.4123302  20.7778376  64.5285228
   7.2784607  20.7265469  63.2879323  14.6692878  23.7878959  62.2221096
  15.1353330  24.6206951  62.1481398  15.1200378  23.3223941  62.9266354
   4.6114713  31.7904831  70.9359341   5.3124172  32.4241314  71.0888735
   4.1409828  32.1319562  70.1754980  12.7369109  30.1322781  59.2207248
  13.0128953  30.0179375  60.1301122  11.8673607  29.7340266  59.1819421
  12.6409540  16.1559546  66.2611997  11.7272620  16.3863773  66.4294204
  13.0702642  16.2397990  67.1126030  12.4115999  24.3449438  68.7611891
  11.7587449  24.5925346  68.1064344  12.7896379  23.5313577  68.4274368
   9.3723173  34.3809131  62.8640061   9.5545567  33.5630787  63.3267814
  10.1956159  34.5976824  62.4264951   9.7065338  33.3077317  60.1255110
  10.2353105  32.7969771  59.5125272   9.9693558  32.9919847  60.9900643
   8.4603572  25.0869249  75.2477928   7.7844209  24.9863379  75.9180303
   9.2831206  24.9308463  75.7113925   3.0621086  34.3592433  62.8852886
   2.3931461  34.8438561  62.4016926   2.9233956  34.6061654  63.7996264
   7.2026355  36.3936177  69.4835544   7.7544663  36.5567798  70.2484629
   7.5432548  36.9840615  68.8115569  12.0537229  31.2197434  75.3384199
  12.5977133  31.8327393  74.8439153  11.4724074  31.7777013  75.8551212
  10.3394742  34.3418152  66.4699226  10.2145881  33.5407892  65.9610172
  10.9973833  34.8364346  65.9813196  12.4029650  32.1427172  68.0978777
  11.4559986  32.0232524  68.0257103  12.7512423  31.2549670  68.1805038
   9.4076084  31.9379889  64.2983129   9.2601046  31.0096596  64.4790699
  10.2329577  31.9599979  63.8140204  13.0110206  32.7608447  65.3848001
  13.9356753  32.5551309  65.2472453  12.8425509  32.5124849  66.2937343
   9.4037598  19.7917726  59.2915246   9.6201212  20.6742364  58.9904074
   8.9231665  19.4003940  58.5620888   4.1436819  22.7503440  65.8685991
   3.9981400  23.0643743  66.7610272   3.6662023  23.3688340  65.3156889
   7.8559333  20.1743328  67.9620008   7.5977111  21.0960398  67.9604338
   7.3244373  19.7773762  68.6520472  12.8005522  33.2794115  60.7410093
  12.9742399  32.7140537  59.9883945  13.2934413  34.0795010  60.5589583
  18.6544913  26.0430538  62.3600393  19.0976059  25.2937863  61.9619516
  17.7771423  26.0340674  61.9774125  13.7880694  32.5960879  57.8406991
  14.4831599  33.2167572  58.0594306  14.1303844  31.7456230  58.1159369
  15.6872117  30.0460585  59.3694322  16.2123441  30.3847858  58.6443642
  15.5994470  29.1107600  59.1857457   7.3492166  33.9594658  71.4984199
   7.6579292  33.7143805  72.3706898   8.1467648  34.1641297  71.0103069
   7.3712778  36.1132568  63.7289575   6.9317768  35.6208947  64.4222432
   8.1220895  35.5705536  63.4881650   4.8186650  31.6570577  65.8011877
   4.1966660  30.9941282  65.5014105   5.4891517  31.6831709  65.1185525
  15.3766023  30.6793488  74.6745520  14.5861567  30.6617627  74.1350019
  15.1399378  31.2181782  75.4294557  15.4963898  27.5285955  71.9878248
  15.5461903  27.3635962  72.9293771  15.3877822  26.6613214  71.5976129
   4.3800157  30.2074500  59.2770337   4.5288278  30.8909965  58.6237010
   5.1866601  30.1879591  59.7919793  12.7867661  23.5116883  73.3037555
  13.6877524  23.3723348  73.0121553  12.8615635  23.6771338  74.2435733
   7.1210466  20.8883738  72.1490742   6.2513776  21.1817304  71.8773330
   7.3569947  21.4724183  72.8698005  16.9982095  29.9482896  72.2320270
  16.7066904  30.3112877  73.0683731  16.3854227  29.2349905  72.0533602
  18.1977778  27.5135776  64.7522840  19.0324669  27.9525580  64.9160401
  18.3336906  27.0374429  63.9331086  15.2469284  25.0715511  70.7000328
  15.7223405  25.2643157  69.8919179  14.3234849  25.1274697  70.4543712
   2.1352790  26.2339678  60.2831406   1.8898832  25.3302008  60.4811616
   2.3048705  26.2356829  59.3410884   9.8249500  17.1063354  69.6656162
  10.3431444  17.8424381  69.3402650   9.4704633  17.4127348  70.5002921
   7.8795563  32.7022631  56.7482085   7.3069530  33.3212818  56.2952557
   8.4528356  33.2521993  57.2822007  13.9470953  21.9481271  68.9328634
  14.8988375  22.0479369  68.9540858  13.7774403  21.1559540  69.4426718
  11.9685332  19.0336854  69.1188035  11.3735264  19.3141867  68.4234523
  11.6835029  19.5230755  69.8904776  11.0992822  32.9859781  57.8790667
  12.0323496  32.9205343  58.0823543  11.0116035  33.8216048  57.4205200
  13.7280839  32.3025651  54.8394615  13.6494471  31.9685515  55.7330373
  14.5490506  32.7947419  54.8386087  16.4259030  25.1687391  68.0470933
  16.3935350  24.2303391  68.2330617  17.0359654  25.2471427  67.3136758
   8.2642361  24.0383444  54.0898137   9.2101466  23.9089652  54.1586555
   7.8856606  23.2998106  54.5667565  16.5753519  21.9598434  68.0929216
  16.0592567  21.1756891  67.9059145  17.4593467  21.6317151  68.2575736
  14.2364246  15.7039450  64.0525029  14.0389067  15.3954538  64.9368361
  14.8463951  16.4301089  64.1822959  22.2435580  26.2303398  67.1876970
  22.9738969  25.9688686  67.7484673  21.6342526  25.4932119  67.2279038
  20.3250877  24.3711260  67.7851421  19.5984041  24.2367225  67.1767913
  19.9098164  24.6788089  68.5908139   8.1481054  28.0901190  75.5498794
   9.0684063  28.2679789  75.7438841   8.1130637  27.1457235  75.3978494
   6.4485278  21.9633420  54.0253023   5.5416734  21.6666533  54.1015736
   6.7261259  21.6663238  53.1587309   1.1443126  26.0002224  68.1921575
   1.3629136  26.9319332  68.2109609   1.5568900  25.6410199  68.9776379
   6.0170992  21.5735430  77.5824324   5.9167718  22.5229787  77.5136415
   5.7992534  21.2453669  76.7100394  13.3716699  17.6948882  61.3100225
  12.7915368  18.3533686  60.9278277  13.1052632  16.8726226  60.8987642
  11.8220266  17.0953939  63.5121545  12.3220044  17.2070474  62.7035864
  12.4655874  16.7914992  64.1522353   5.8802262  25.0032569  76.3989386
   5.3969343  25.8032929  76.6053275   5.9663201  25.0140514  75.4456830
   1.8075599  28.8937104  68.4357820   2.7618853  28.8621046  68.3687751
   1.6088123  28.4327728  69.2508046   2.3974981  27.4638220  71.0028617
   3.2167870  27.9582298  71.0263455   2.6711789  26.5470188  70.9746185
  12.1541577  19.8548972  60.3656573  11.2667432  20.1398623  60.1476768
  12.5695567  19.6942735  59.5183850  15.5056114  19.8795493  64.0810912
  16.2816504  20.3691946  64.3535529  14.7804248  20.3053547  64.5382782
  17.9428672  20.5923112  65.1384853  18.5373163  20.3518848  64.4278161
  18.0155256  19.8730243  65.7658389  11.2984791  29.6193647  54.4604593
  12.0020641  29.8243649  55.0762249  10.5747440  30.1870409  54.7253676
  12.1282601  25.3703508  60.5806863  12.0717803  25.8272059  59.7414496
  12.6810944  24.6094193  60.4029706  15.9387407  21.1593240  61.4056983
  15.6824341  20.7589876  62.2365190  15.3140275  21.8737034  61.2807122
  20.2499745  23.8989313  63.9128274  19.6899303  23.9682502  64.6859836
  19.6443248  23.7230298  63.1927770   3.3194954  35.3326040  65.6646460
   3.2027338  36.2771473  65.5625151   2.4987400  35.0299602  66.0532260
  13.2071488  30.0576176  56.5103053  14.0417092  29.6257374  56.3280528
  13.0455831  29.8858190  57.4379948  12.8617380  26.5608289  57.8759392
  12.8066184  26.3952561  56.9347836  12.2363436  27.2684322  58.0321582
  10.1763288  28.8657201  77.2012955  11.0454447  29.0397853  76.8399590
   9.6970039  29.6851618  77.0788684   4.3449468  35.9854302  68.8802389
   5.2476715  36.0177912  69.1968884   4.1186838  35.0554753  68.8948725
   6.1003070  34.7385289  65.5412467   5.1498701  34.7387150  65.4276840
   6.4035556  33.9918023  65.0248502  21.8355763  40.5745827  66.6058230
  22.4734173  40.4552574  65.9021570  21.7176606  41.5226671  66.6646182
  18.6445470  40.5273255  66.5419754  18.3063981  40.4114320  65.6540289
  19.5135238  40.1264420  66.5220761  14.5032285  42.3808732  62.5316645
  13.9397151  42.2898669  61.7632933  14.3884680  41.5608636  63.0119138
  19.1265253  41.6808107  72.5005960  19.1153893  41.2860905  71.6286464
  19.2885892  40.9474180  73.0939731  12.0496717  43.8759923  65.3700866
  12.8418009  43.5350748  64.9547165  12.2893367  43.9854898  66.2903019
  20.0831844  46.0479699  57.8431110  19.4319824  46.6333780  57.4565124
  20.8776207  46.5785894  57.9026148  14.0087471  43.1368836  58.2418245
  14.7818347  42.5897824  58.1031120  14.3612870  44.0013086  58.4532706
  15.8472514  44.4645219  71.4485144  15.5562380  45.3690850  71.3331810
  16.4829498  44.5061746  72.1629214  16.7728721  41.8422067  68.0386504
  17.3692293  41.6178090  67.3243467  16.8303692  41.1006813  68.6411951
  16.3453749  39.2961503  55.8736695  16.5979270  38.7743024  55.1120158
  15.4078308  39.1327648  55.9763378  21.3897032  38.2997281  63.6811438
  22.1760121  37.8816704  63.3301855  21.6535736  39.2043373  63.8493086
  21.5607109  43.7370131  58.3800095  20.9252942  43.8104758  59.0920999
  21.2304516  44.3263730  57.7019174  26.7905459  38.2372514  64.5844416
  27.5230631  37.6671731  64.8182246  26.0344815  37.8494115  65.0250922
  16.0650038  41.1989609  58.0761070  15.9486296  40.5234512  58.7442154
  16.1752298  40.7121982  57.2593223  18.4081579  40.6599756  61.7807759
  18.0439786  40.1330377  62.4920680  19.2648695  40.2698225  61.6074244
  24.3130879  31.9494088  69.0439025  23.9814204  32.8189499  68.8200240
  23.7176493  31.6330372  69.7233055  18.0487066  35.6889655  56.7769107
  18.2161468  36.5569892  57.1439578  17.8584235  35.8516937  55.8530397
  20.8062399  44.1506634  68.4434938  20.5063122  45.0531673  68.3350745
  20.4613458  43.8838817  69.2956091  14.2574880  40.6020431  64.4771642
  13.3325377  40.4696645  64.6849334  14.5059294  41.3814650  64.9741584
  24.2059543  36.6689174  66.1232375  23.2976420  36.6004583  65.8291136
  24.1547138  37.1461119  66.9514200  18.0276287  38.1447313  57.7615774
  17.9075912  38.5904364  58.6001254  17.3328875  38.4932631  57.2029312
  11.6183691  40.2453705  65.3115431  11.7476073  40.4988184  66.2254843
  10.9381143  40.8381413  64.9920086  15.7883179  50.9150955  61.4105905
  15.7107208  51.8658780  61.4894386  15.1844822  50.5696827  62.0680832
  18.2800408  38.0878820  74.0667272  17.5033743  38.6472740  74.0570137
  18.9190972  38.5735603  74.5882142  26.0721189  34.8705613  67.9010249
  25.4295569  35.1638146  67.2550043  25.5676118  34.7558533  68.7063446
  23.7261353  38.6168786  58.5896108  24.6379209  38.8496173  58.4143806
  23.2171000  39.2005830  58.0271187  16.5346781  40.8964273  73.6285239
  17.2761465  41.4349317  73.3520063  15.8283766  41.5230562  73.7856791
  22.0102120  43.0393414  72.2257401  22.4185476  42.5975824  71.4812033
  21.2879382  42.4646041  72.4791594  18.3633190  37.9766021  69.5990958
  19.2094386  38.4005434  69.7425607  18.3031828  37.3199645  70.2929521
  22.3330935  43.5994604  65.9809690  21.7039797  43.7640319  65.2785757
  21.9456597  44.0136214  66.7520654  26.2120167  44.5349042  63.3354053
  25.5271205  44.9147944  62.7851087  26.2964016  45.1444369  64.0686001
  21.5132636  35.6370389  71.2572131  21.2693568  36.3912450  70.7206407
  21.7892566  36.0155737  72.0919378  23.4671099  42.1809001  69.9349397
  23.6787994  42.8240761  69.2583778  23.4200847  41.3471318  69.4671327
  21.0697328  34.7926822  66.8385969  20.2081807  35.0908076  67.1302707
  21.0959762  35.0097221  65.9067002  17.8858897  43.3369013  63.2459775
  18.3497242  43.6156716  62.4564397  17.6215695  42.4352457  63.0632865
  14.7782978  42.8840494  66.1839538  15.3484335  43.3127762  65.5457022
  15.3691090  42.6023079  66.8823724  16.8227783  39.4592165  60.0549340
  17.5251826  39.9113209  60.5223266  16.4908411  38.8175984  60.6829233
  15.2708145  38.0503922  74.4300549  14.6406805  38.7320202  74.6635946
  15.1644232  37.9387003  73.4853688  10.5653117  37.7175718  65.3566473
   9.7752171  37.9733246  64.8806584  11.0564364  38.5324055  65.4618514
  24.5816927  45.0580957  68.1071754  25.4034370  44.6561144  67.8254436
  24.5779329  44.9549191  69.0587870  12.5167862  38.0820297  62.3149950
  11.7199026  38.1938991  62.8333446  12.2893455  38.4206949  61.4490841
  18.3473530  44.6065000  70.2632465  18.4117962  45.0685407  71.0990637
  17.6384454  43.9762365  70.3914775   8.8490820  37.9706208  67.7881464
   9.0998858  38.8553218  68.0539040   9.3850368  37.7910810  67.0156556
  32.6722920  41.4019705  64.4556726  31.9186628  40.8327103  64.3000730
  32.8070461  41.3682370  65.4027360  18.0621548  46.2733108  60.1311445
  17.9267222  47.1184643  60.5596293  18.6031360  46.4752385  59.3677379
  14.5488887  32.3524687  76.7925800  14.1555833  31.7990886  77.4673445
  15.3655028  32.6635266  77.1832318  11.5150945  43.7908546  60.7039370
  12.0275466  44.5851796  60.8544935  12.1673658  43.0934836  60.6372972
  13.3245830  46.9074302  62.7862123  13.5012458  47.8292267  62.5983107
  14.1202663  46.5932721  63.2156503  17.4656848  33.7682567  74.3846057
  18.2066562  34.3689720  74.3050519  17.6974771  33.0260204  73.8264099
  12.6098186  38.9538934  72.6624287  12.4951701  38.0524191  72.9631385
  11.7542704  39.2002631  72.3109103  19.6890024  46.8956674  74.2611787
  19.2453878  46.1093053  73.9432692  20.3507238  47.0835825  73.5955678
  14.4477145  48.4252476  68.7872466  14.9984570  48.2969539  68.0149460
  13.6088621  48.7247365  68.4367358  21.7871262  47.1759474  72.2893188
  21.7689737  47.9968355  71.7973458  22.7091182  47.0513549  72.5143330
  18.2444316  44.6903603  73.1316697  18.7772653  43.9291892  72.9016005
  17.7158397  44.3977255  73.8740851  21.4114011  29.7963669  68.6610339
  21.0678281  30.6865311  68.5849449  21.7792974  29.6065327  67.7979924
   9.4799862  42.1197200  61.4798941  10.3175084  42.5294208  61.2632648
   9.6578129  41.1796642  61.4499135  21.3764294  39.7872281  57.1682774
  20.8610917  40.5576885  57.4071161  21.1041602  39.1137417  57.7915835
  18.9611405  34.6321981  62.2268012  18.1053001  34.2428832  62.0473651
  19.3738357  34.7113942  61.3667798  20.4910552  32.1668325  66.6259572
  19.9875347  32.1298460  65.8127377  20.7841158  33.0761067  66.6856228
  16.7353437  32.2507054  65.6325754  17.6006434  32.0549863  65.2731643
  16.8030946  32.0217406  66.5595110  26.3498568  42.5404635  59.1035947
  25.5728011  42.2015795  58.6591109  27.0290049  42.5457258  58.4290912
  21.1650597  37.6599373  58.9942555  20.8600733  37.9745522  59.8452698
  22.1181039  37.7380793  59.0369888  19.6097029  43.8189596  60.6435509
  19.0818390  43.0842356  60.3308746  19.1084532  44.5964272  60.3975477
  24.5889875  42.0138616  65.7602555  23.9313549  42.7037878  65.8482684
  25.3930274  42.4035048  66.1036541  14.3415757  34.4809262  63.0042120
  14.9159508  34.2584444  62.2715313  14.9286739  34.5497957  63.7570722
  23.3995334  40.3682989  63.8106497  23.9127215  41.0012981  64.3128207
  24.0496558  39.7684185  63.4449857  14.6685344  36.5113723  57.0238006
  13.8322656  36.8488410  57.3447280  14.5290113  36.3762703  56.0865143
  16.6438424  31.3550511  61.7317190  15.9902837  31.0399528  61.1073805
  16.6018898  30.7326252  62.4577013  17.7549629  41.6369806  53.6470482
  16.8476691  41.4059060  53.8461631  18.2520661  40.8407425  53.8344463
  20.6617708  50.3467313  56.5667168  19.9879407  50.6499010  57.1752126
  21.0483530  51.1496394  56.2172625  19.8776165  37.8432445  66.0564837
  18.9598726  38.0647392  65.8986525  20.2936308  37.9178755  65.1976545
  20.6611212  39.2423860  61.1867518  21.4083031  39.7545258  60.8774640
  20.9302802  38.9207913  62.0471911  18.9337863  41.7382401  58.1694472
  18.0249082  41.4541434  58.2666942  18.9632946  42.1581480  57.3097779
  24.1657130  45.3488991  61.9385640  23.7119457  44.5079900  61.9950830
  23.5351097  45.9850389  62.2760420  23.1090050  36.2780977  63.1686307
  22.3712806  35.7658363  63.4996550  23.3616823  35.8381358  62.3569584
  22.6090069  47.1865487  62.8735458  22.9013044  47.7470544  62.1547823
  23.1188690  47.4794048  63.6288617  23.2101677  29.0557229  63.7628076
  23.5160554  28.1954592  63.4753991  23.9354282  29.6474849  63.5627070
   9.5026033  39.4587915  62.1509674   9.3050433  38.8657276  61.4260741
   8.9472697  39.1540125  62.8685613  17.4822757  39.3511022  64.2704267
  17.5371366  38.3984858  64.1946744  16.6713959  39.5070461  64.7545566
  18.6313950  43.2791145  55.5082551  18.1933380  42.5627004  55.0488188
  19.3724391  43.5067260  54.9467642  15.4215116  37.9688081  62.0294646
  14.6082982  38.2682252  62.4359838  15.9174111  37.5743770  62.7469128
  17.5723694  47.9645838  63.9628911  17.5299873  48.1906685  63.0337443
  18.4886393  47.7309213  64.1114712  21.0189328  38.4329906  70.8609540
  21.3738716  38.6601379  71.7204006  21.6661459  38.7648283  70.2386795
  26.7487065  41.5548342  61.5658869  26.6104964  41.7449938  60.6380058
  26.3923284  42.3167725  62.0226920  14.9129191  35.5406437  67.6455881
  15.5528571  35.3995196  66.9478844  14.0806722  35.2540950  67.2694483
  26.7756445  43.6224869  66.5770141  27.2092951  43.5300158  67.4253195
  27.4888025  43.5982369  65.9390157  15.6889495  44.8408867  63.7590874
  16.4830094  44.3459188  63.5573449  14.9781188  44.3126731  63.3958579
  20.5084340  47.2226963  68.1103241  20.5621362  47.7917899  68.8780957
  19.6399121  47.3928848  67.7457278  11.9972259  38.9851949  59.8350626
  11.0669847  38.9236405  60.0520588  12.0929731  38.4627902  59.0387268
  11.9157808  35.5106762  62.4228868  12.1764625  36.4252095  62.3138028
  12.7374980  35.0431205  62.5725481  13.3882733  36.9244519  69.5927692
  14.0605786  36.7161881  68.9440341  12.5612520  36.7266605  69.1532925
  27.6371994  43.6648569  69.1103026  27.8307884  44.5694380  69.3562301
  27.5372612  43.2055989  69.9441611  19.2908305  33.5506460  71.6093353
  18.6436220  34.2496410  71.5157830  20.0609320  33.9842604  71.9769602
  22.6987103  43.8155312  74.6843907  22.5472609  43.5865864  73.7673990
  22.6891782  44.7725914  74.6975252  19.4672439  41.3887225  69.6690173
  20.3964499  41.5398385  69.4959140  19.0463469  41.4771246  68.8138820
  18.2660771  45.4137889  67.4388711  18.1271857  45.0456674  68.3114649
  17.4775367  45.9285529  67.2672668  18.8608923  50.5146986  58.7814247
  19.0360679  50.0435029  59.5959870  18.1741711  51.1412752  59.0095508
  19.8165986  44.7919492  64.8277548  19.4815819  44.7520262  65.7235198
  19.3169932  44.1264208  64.3547959  13.7910230  40.1987122  70.3530130
  13.6530028  39.4667361  70.9541669  14.7015154  40.1096022  70.0714317
  22.7525178  42.1375526  55.1014608  22.1354349  41.4122355  55.0047661
  22.2841666  42.8984887  54.7581682  16.4192531  39.9107081  69.8413809
  17.1292149  39.2700274  69.8000428  16.3761839  40.1619976  70.7639990
  24.4079310  46.8474435  72.7620388  24.3491856  46.1633655  72.0950971
  24.8098828  47.5893425  72.3101014  15.1321465  36.8972299  71.6609449
  14.5958822  36.4463038  72.3131045  14.5438173  37.0318208  70.9179913
  13.4270008  53.6636349  65.5554107  13.6666607  54.2954873  66.2333126
  12.5839205  53.3124389  65.8419467  14.5423724  36.3560951  54.2235912
  13.6653190  36.2349751  53.8598159  15.0181477  35.5647029  53.9714801
  24.4096717  44.8114019  70.9934368  23.5223496  44.4739940  71.1160767
  24.9795268  44.0797050  71.2303134   6.0625864  41.1438110  64.3177420
   6.7496904  40.8299840  63.7298435   5.9073993  42.0479475  64.0444671
  10.8660586  36.0328307  68.7462443  10.7818775  35.4253977  68.0112853
  10.0443293  36.5237325  68.7471940  17.9397870  49.4715471  67.9595611
  17.8668042  50.2770443  68.4714916  17.4975263  49.6707437  67.1343633
  17.7287650  48.7087241  61.4698433  16.9455172  49.2508921  61.5636657
  18.4280395  49.2261221  61.8692674  21.0384300  34.5181871  64.1132638
  21.5353000  33.7651833  63.7933709  20.2671282  34.5546187  63.5475848
  28.8914057  40.2222236  65.7550930  28.8803934  41.1046951  65.3844863
  28.0231437  39.8693787  65.5605467  20.3996554  49.3702305  70.1153770
  21.1124526  50.0049770  70.0429671  19.9086582  49.4666171  69.2993772
  22.1214081  43.2753558  61.6871062  21.1870359  43.3955020  61.5175766
  22.2990749  42.3726025  61.4231072  17.6219269  36.6599254  63.8404323
  17.2517056  36.1070294  64.5285228  18.1178361  36.0557387  63.2879323
  25.5086632  39.1170877  62.2221096  25.9747084  39.9498869  62.1481398
  25.9594133  38.6515859  62.9266354  15.4508467  47.1196749  70.9359341
  16.1517927  47.7533232  71.0888735  14.9803582  47.4611480  70.1754980
  23.5762863  45.4614698  59.2207248  23.8522707  45.3471293  60.1301122
  22.7067362  45.0632183  59.1819421  23.4803295  31.4851464  66.2611997
  22.5666375  31.7155691  66.4294204  23.9096396  31.5689908  67.1126030
  23.2509753  39.6741356  68.7611891  22.5981204  39.9217263  68.1064344
  23.6290133  38.8605494  68.4274368  20.2116927  49.7101049  62.8640061
  20.3939322  48.8922705  63.3267814  21.0349913  49.9268741  62.4264951
  20.5459093  48.6369234  60.1255110  21.0746859  48.1261689  59.5125272
  20.8087312  48.3211765  60.9900643  19.2997326  40.4161167  75.2477928
  18.6237963  40.3155296  75.9180303  20.1224960  40.2600381  75.7113925
  11.0476185  46.6533104  67.8690444  11.6329622  45.9076791  68.0018348
  10.8501024  46.9637060  68.7527107  13.9014841  49.6884351  62.8852886
  13.2325216  50.1730479  62.4016926  13.7627710  49.9353571  63.7996264
   5.6393840  39.2238704  66.5894887   5.6777940  38.6902294  67.3832005
   5.1334133  38.6973909  65.9705864  18.0420109  51.7228095  69.4835544
  18.5938417  51.8859716  70.2484629  18.3826303  52.3132532  68.8115569
  13.0184602  34.0703244  70.0857429  13.0825929  34.9318075  69.6734827
  12.9551723  33.4577246  69.3529787  12.4936875  36.1426377  73.7330463
  13.1208914  35.7603454  74.3467988  11.6364794  35.9240579  74.0986156
  22.8930984  46.5489352  75.3384199  23.4370887  47.1619310  74.8439153
  22.3117828  47.1068930  75.8551212   9.2702418  37.9502806  59.6648818
   9.5655859  37.0413484  59.6115872   8.3690453  37.9290545  59.3429820
  21.1788496  49.6710070  66.4699226  21.0539636  48.8699810  65.9610172
  21.8367588  50.1656263  65.9813196  12.7996665  36.0258803  65.6476367
  12.0783250  36.6394770  65.5083840  13.5889920  36.5616567  65.5693013
  23.2423405  47.4719090  68.0978777  22.2953740  47.3524441  68.0257103
  23.5906178  46.5841588  68.1805038  15.6022978  33.3613229  71.9217018
  16.1257380  33.6075526  72.6843328  15.3835311  34.1933264  71.5020156
  10.9990259  35.6316904  59.7888143  10.6702965  34.7514283  59.6063249
  11.3529630  35.5764572  60.6764532  20.2469838  47.2671806  64.2983129
  20.0994801  46.3388514  64.4790699  21.0723332  47.2891897  63.8140204
  14.1132082  35.9189873  60.1563621  14.4528155  36.4475795  59.4342229
  14.5604203  36.2570280  60.9322187  23.8503960  48.0900365  65.3848001
  24.7750507  47.8843226  65.2472453  23.6819263  47.8416766  66.2937343
  16.8075523  34.3026924  69.6066689  16.4672344  33.5034737  70.0087369
  16.1014530  34.6028635  69.0343522  17.4591995  31.3876237  68.0594012
  18.2818064  30.9136715  67.9372902  17.7030059  32.1666720  68.5592698
  16.1000230  34.4164495  58.3556914  16.8208592  34.7945748  57.8520630
  15.4765534  35.1353372  58.4591892  20.2431352  35.1209644  59.2915246
  20.4594967  36.0034282  58.9904074  19.7625420  34.7295857  58.5620888
  14.9830574  38.0795357  65.8685991  14.8375155  38.3935660  66.7610272
  14.5055777  38.6980258  65.3156889  16.8426957  35.0697905  65.9166880
  16.8288525  34.1738998  65.5799178  17.5599385  35.0768569  66.5505166
  18.6953087  35.5035245  67.9620008  18.4370865  36.4252316  67.9604338
  18.1638128  35.1065680  68.6520472  23.6399276  48.6086033  60.7410093
  23.8136154  48.0432455  59.9883945  24.1328167  49.4086927  60.5589583
   9.4576236  40.6200702  68.8073652   8.9129704  41.3960510  68.9393926
  10.3355586  40.9671506  68.6492773  16.2463853  33.9512285  61.1854450
  16.3679764  33.0228932  61.3845338  15.9565895  33.9650971  60.2732766
  19.1155043  31.6367196  64.3221170  19.1376740  31.7006529  63.3673150
  19.5323102  30.7971705  64.5161676  29.4938667  41.3722455  62.3600393
  29.9369813  40.6229781  61.9619516  28.6165178  41.3632592  61.9774125
  24.6274449  47.9252797  57.8406991  25.3225353  48.5459490  58.0594306
  24.9697599  47.0748148  58.1159369  10.2442258  39.7470598  71.7003809
   9.5023994  39.8953233  72.2868439   9.9235002  40.0078863  70.8370558
  26.5265872  45.3752502  59.3694322  27.0517196  45.7139775  58.6443642
  26.4388224  44.4399518  59.1857457  18.1885921  49.2886576  71.4984199
  18.4973047  49.0435723  72.3706898  18.9861403  49.4933215  71.0103069
  18.2106533  51.4424486  63.7289575  17.7711523  50.9500864  64.4222432
  18.9614650  50.8997453  63.4881650  10.6898872  47.6336027  63.7314203
  11.5156891  47.3339798  63.3512847  10.3392924  46.8643649  64.1803992
  15.6580405  46.9862495  65.8011877  15.0360414  46.3233200  65.5014105
  16.3285272  47.0123627  65.1185525   8.8907477  45.5522353  64.6903137
   8.0539385  45.1244527  64.5087138   8.8631122  45.7454796  65.6273928
  15.7304932  35.4644283  75.3944383  15.7793088  36.3406406  75.0122152
  16.2727446  34.9221676  74.8216026  26.2159778  46.0085406  74.6745520
  25.4255322  45.9909545  74.1350019  25.9793132  46.5473700  75.4294557
  26.3357653  42.8577872  71.9878248  26.3855658  42.6927880  72.9293771
  26.2271576  41.9905131  71.5976129  15.2193912  45.5366418  59.2770337
  15.3682032  46.2201883  58.6237010  16.0260355  45.5171508  59.7919793
  23.6261415  38.8408800  73.3037555  24.5271278  38.7015265  73.0121553
  23.7009390  39.0063255  74.2435733  17.9604221  36.2175655  72.1490742
  17.0907530  36.5109221  71.8773330  18.1963701  36.8016100  72.8698005
  27.8375850  45.2774814  72.2320270  27.5460658  45.6404795  73.0683731
  27.2247981  44.5641822  72.0533602  29.0371532  42.8427694  64.7522840
  29.8718423  43.2817498  64.9160401  29.1730661  42.3666347  63.9331086
  26.0863038  40.4007429  70.7000328  26.5617160  40.5935075  69.8919179
  25.1628603  40.4566614  70.4543712  12.9746545  41.5631596  60.2831406
  12.7292587  40.6593926  60.4811616  13.1442459  41.5648746  59.3410884
  20.6643254  32.4355272  69.6656162  21.1825198  33.1716299  69.3402650
  20.3098387  32.7419265  70.5002921  12.2442192  37.2959953  57.7817568
  11.5511437  37.3704308  57.1257604  11.9993944  36.5320297  58.3039085
  20.9155849  28.8555555  65.1857059  21.1957602  28.1878744  65.8117485
  21.7006456  29.0484650  64.6731722  18.7189317  48.0314549  56.7482085
  18.1463284  48.6504736  56.2952557  19.2922111  48.5813910  57.2822007
  24.7864707  37.2773189  68.9328634  25.7382130  37.3771286  68.9540858
  24.6168157  36.4851457  69.4426718  22.8079086  34.3628772  69.1188035
  22.2129019  34.6433785  68.4234523  22.5228783  34.8522673  69.8904776
  21.9386577  48.3151699  57.8790667  22.8717250  48.2497260  58.0823543
  21.8509790  49.1507966  57.4205200  24.5674594  47.6317569  54.8394615
  24.4888225  47.2977433  55.7330373  25.3884260  48.1239337  54.8386087
  27.2652785  40.4979308  68.0470933  27.2329105  39.5595309  68.2330617
  27.8753408  40.5763345  67.3136758  19.1036116  39.3675361  54.0898137
  20.0495220  39.2381569  54.1586555  18.7250361  38.6290023  54.5667565
  27.4147273  37.2890352  68.0929216  26.8986322  36.5048808  67.9059145
  28.2987222  36.9609068  68.2575736  25.0758000  31.0331367  64.0525029
  24.8782821  30.7246456  64.9368361  25.6857706  31.7593006  64.1822959
  33.0829335  41.5595315  67.1876970  33.8132723  41.2980603  67.7484673
  32.4736280  40.8224037  67.2279038  31.1644632  39.7003178  67.7851421
  30.4377795  39.5659143  67.1767913  30.7491919  40.0080006  68.5908139
  18.9874808  43.4193107  75.5498794  19.9077818  43.5971706  75.7438841
  18.9524391  42.4749153  75.3978494  17.2879033  37.2925338  54.0253023
  16.3810488  36.9958450  54.1015736  17.5655014  36.9955156  53.1587309
   8.2056973  38.6131701  64.4752069   7.8859758  37.7597009  64.1826443
   7.6590401  38.8280279  65.2310036  11.9836881  41.3294142  68.1921575
  12.2022891  42.2611250  68.2109609  12.3962655  40.9702117  68.9776379
  18.9041099  31.8362227  60.1797264  18.0941827  31.4909312  60.5552510
  19.5925515  31.5269771  60.7684875  20.8331647  30.9140274  61.8021560
  21.3862685  31.3335728  62.4611584  21.0701733  29.9876022  61.8444516
  16.8564746  36.9027348  77.5824324  16.7561473  37.8521705  77.5136415
  16.6386288  36.5745587  76.7100394  16.0577817  34.1512273  54.1665002
  16.9196981  34.4767171  54.4260819  16.2428162  33.3643769  53.6538068
   8.0745233  42.2334613  66.4445191   7.3808705  41.8188565  65.9315145
   8.8218224  42.2755149  65.8478609  24.2110454  33.0240799  61.3100225
  23.6309123  33.6825603  60.9278277  23.9446387  32.2018144  60.8987642
  22.6614020  32.4245857  63.5121545  23.1613799  32.5362392  62.7035864
  23.3049628  32.1206910  64.1522353  16.7196016  40.3324487  76.3989386
  16.2363098  41.1324847  76.6053275  16.8056955  40.3432432  75.4456830
   9.9881976  42.1652866  64.3211205   9.9652664  42.2640554  63.3693088
  10.2982612  43.0118017  64.6428372  12.6469354  44.2229021  68.4357820
  13.6012607  44.1912964  68.3687751  12.4481877  43.7619645  69.2508046
  13.2368736  42.7930137  71.0028617  14.0561625  43.2874216  71.0263455
  13.5105543  41.8762106  70.9746185  22.9935332  35.1840890  60.3656573
  22.1061187  35.4690540  60.1476768  23.4089321  35.0234653  59.5183850
  26.3449868  35.2087411  64.0810912  27.1210258  35.6983863  64.3535529
  25.6198002  35.6345465  64.5382782  28.7822427  35.9215030  65.1384853
  29.3766917  35.6810766  64.4278161  28.8549010  35.2022161  65.7658389
  11.0019582  49.7648641  65.4528018  10.8674050  49.0049042  64.8866016
  10.5851645  50.4889541  64.9856807  22.1378545  44.9485564  54.4604593
  22.8414396  45.1535567  55.0762249  21.4141194  45.5162326  54.7253676
  22.9676356  40.6995426  60.5806863  22.9111557  41.1563977  59.7414496
  23.5204698  39.9386110  60.4029706  26.7781162  36.4885158  61.4056983
  26.5218096  36.0881793  62.2365190  26.1534030  37.2028952  61.2807122
  31.0893499  39.2281231  63.9128274  30.5293057  39.2974420  64.6859836
  30.4837003  39.0522215  63.1927770  14.1588708  50.6617958  65.6646460
  14.0421092  51.6063390  65.5625151  13.3381155  50.3591520  66.0532260
  24.0465243  45.3868094  56.5103053  24.8810847  44.9549292  56.3280528
  23.8849586  45.2150107  57.4379948  23.7011135  41.8900207  57.8759392
  23.6459939  41.7244478  56.9347836  23.0757190  42.5976240  58.0321582
   8.4903650  37.1268271  71.7020815   9.1362514  36.6167225  72.1908040
   8.2820801  37.8636953  72.2764240  21.0157042  44.1949119  77.2012955
  21.8848202  44.3689771  76.8399590  20.5363794  45.0143536  77.0788684
  17.0107260  31.3908316  57.4544711  16.9985930  32.3350156  57.6112982
  17.9030682  31.2078461  57.1604172  15.1843222  51.3146220  68.8802389
  16.0870469  51.3469830  69.1968884  14.9580592  50.3846671  68.8948725
  16.9396824  50.0677206  65.5412467  15.9892455  50.0679068  65.4276840
  17.2429311  49.3209941  65.0248502  20.8259380  27.9851093  61.7090648
  20.0591776  27.4309579  61.8547330  21.2370085  28.0572961  62.5704799
  12.8301141  34.2735888  75.7995829  13.6932603  33.9172693  76.0099153
  12.2566552  33.9349783  76.4871233  32.6749518  55.9037745  66.6058230
  33.3127928  55.7844492  65.9021570  32.5570361  56.8518589  66.6646182
  29.4839224  55.8565173  66.5419754  29.1457736  55.7406238  65.6540289
  30.3528992  55.4556338  66.5220761  25.3426040  57.7100649  62.5316645
  24.7790905  57.6190586  61.7632933  25.2278435  56.8900554  63.0119138
  29.9659007  57.0100025  72.5005960  29.9547648  56.6152823  71.6286464
  30.1279647  56.2766097  73.0939731  22.8890472  59.2051841  65.3700866
  23.6811764  58.8642666  64.9547165  23.1287122  59.3146816  66.2903019
  30.9225599  61.3771617  57.8431110  30.2713578  61.9625697  57.4565124
  31.7169961  61.9077812  57.9026148  24.8481226  58.4660754  58.2418245
  25.6212102  57.9189741  58.1031120  25.2006625  59.3305003  58.4532706
  26.6866268  59.7937136  71.4485144  26.3956134  60.6982767  71.3331810
  27.3223253  59.8353664  72.1629214  27.6122475  57.1713985  68.0386504
  28.2086047  56.9470007  67.3243467  27.6697447  56.4298730  68.6411951
  27.1847504  54.6253420  55.8736695  27.4373024  54.1034942  55.1120158
  26.2472063  54.4619566  55.9763378  32.2290786  53.6289199  63.6811438
  33.0153876  53.2108622  63.3301855  32.4929491  54.5335291  63.8493086
  32.4000864  59.0662049  58.3800095  31.7646697  59.1396675  59.0920999
  32.0698270  59.6555648  57.7019174  37.6299214  53.5664432  64.5844416
  38.3624385  52.9963649  64.8182246  36.8738569  53.1786032  65.0250922
  26.9043792  56.5281526  58.0761070  26.7880050  55.8526430  58.7442154
  27.0146052  56.0413900  57.2593223  29.2475333  55.9891673  61.7807759
  28.8833540  55.4622294  62.4920680  30.1042449  55.5990142  61.6074244
  35.1524634  47.2786006  69.0439025  34.8207959  48.1481417  68.8200240
  34.5570247  46.9622290  69.7233055  28.8880820  51.0181573  56.7769107
  29.0555223  51.8861809  57.1439578  28.6977989  51.1808855  55.8530397
  31.6456153  59.4798552  68.4434938  31.3456876  60.3823591  68.3350745
  31.3007213  59.2130735  69.2956091  25.0968635  55.9312349  64.4771642
  24.1719131  55.7988563  64.6849334  25.3453048  56.7106568  64.9741584
  35.0453297  51.9981092  66.1232375  34.1370175  51.9296501  65.8291136
  34.9940893  52.4753037  66.9514200  28.8670041  53.4739231  57.7615774
  28.7469666  53.9196281  58.6001254  28.1722629  53.8224548  57.2029312
  22.4577446  55.5745622  65.3115431  22.5869827  55.8280101  66.2254843
  21.7774897  56.1673330  64.9920086  26.6276933  66.2442872  61.4105905
  26.5500963  67.1950697  61.4894386  26.0238577  65.8988745  62.0680832
  29.1194163  53.4170738  74.0667272  28.3427497  53.9764658  74.0570137
  29.7584726  53.9027521  74.5882142  36.9114944  50.1997531  67.9010249
  36.2689324  50.4930064  67.2550043  36.4069872  50.0850451  68.7063446
  34.5655107  53.9460704  58.5896108  35.4772963  54.1788090  58.4143806
  34.0564754  54.5297748  58.0271187  27.3740535  56.2256191  73.6285239
  28.1155220  56.7641235  73.3520063  26.6677521  56.8522480  73.7856791
  32.8495875  58.3685332  72.2257401  33.2579231  57.9267742  71.4812033
  32.1273136  57.7937959  72.4791594  29.2026945  53.3057938  69.5990958
  30.0488140  53.7297352  69.7425607  29.1425583  52.6491563  70.2929521
  33.1724690  58.9286522  65.9809690  32.5433552  59.0932236  65.2785757
  32.7850352  59.3428132  66.7520654  37.0513921  59.8640960  63.3354053
  36.3664960  60.2439861  62.7851087  37.1357771  60.4736287  64.0686001
  32.3526390  50.9662307  71.2572131  32.1087322  51.7204367  70.7206407
  32.6286321  51.3447654  72.0919378  34.3064853  57.5100919  69.9349397
  34.5181748  58.1532679  69.2583778  34.2594601  56.6763236  69.4671327
  31.9091082  50.1218740  66.8385969  31.0475561  50.4199993  67.1302707
  31.9353517  50.3389139  65.9067002  28.7252651  58.6660930  63.2459775
  29.1890997  58.9448633  62.4564397  28.4609450  57.7644375  63.0632865
  25.6176732  58.2132412  66.1839538  26.1878090  58.6419680  65.5457022
  26.2084844  57.9314996  66.8823724  27.6621537  54.7884083  60.0549340
  28.3645581  55.2405126  60.5223266  27.3302166  54.1467901  60.6829233
  26.1101899  53.3795839  74.4300549  25.4800560  54.0612120  74.6635946
  26.0037987  53.2678921  73.4853688  21.4046871  53.0467635  65.3566473
  20.6145925  53.3025164  64.8806584  21.8958119  53.8615973  65.4618514
  35.4210681  60.3872874  68.1071754  36.2428125  59.9853062  67.8254436
  35.4173084  60.2841109  69.0587870  23.3561617  53.4112215  62.3149950
  22.5592780  53.5230909  62.8333446  23.1287209  53.7498867  61.4490841
  29.1867284  59.9356918  70.2632465  29.2511717  60.3977325  71.0990637
  28.4778208  59.3054283  70.3914775  19.6884574  53.2998126  67.7881464
  19.9392613  54.1845136  68.0539040  20.2244123  53.1202727  67.0156556
  43.5116674  56.7311623  64.4556726  42.7580382  56.1619021  64.3000730
  43.6464215  56.6974287  65.4027360  28.9015302  61.6025025  60.1311445
  28.7660977  62.4476561  60.5596293  29.4425115  61.8044303  59.3677379
  25.3882642  47.6816605  76.7925800  24.9949587  47.1282804  77.4673445
  26.2048782  47.9927184  77.1832318  22.3544699  59.1200463  60.7039370
  22.8669220  59.9143714  60.8544935  23.0067412  58.4226754  60.6372972
  24.1639584  62.2366220  62.7862123  24.3406213  63.1584184  62.5983107
  24.9596418  61.9224639  63.2156503  28.3050603  49.0974484  74.3846057
  29.0460316  49.6981637  74.3050519  28.5368526  48.3552122  73.8264099
  23.4491941  54.2830851  72.6624287  23.3345456  53.3816109  72.9631385
  22.5936458  54.5294548  72.3109103  30.5283778  62.2248592  74.2611787
  30.0847633  61.4384970  73.9432692  31.1900992  62.4127742  73.5955678
  25.2870900  63.7544393  68.7872466  25.8378325  63.6261457  68.0149460
  24.4482376  64.0539282  68.4367358  32.6265017  62.5051392  72.2893188
  32.6083492  63.3260273  71.7973458  33.5484937  62.3805467  72.5143330
  29.0838071  60.0195521  73.1316697  29.6166407  59.2583809  72.9016005
  28.5552152  59.7269173  73.8740851  32.2507766  45.1255587  68.6610339
  31.9072035  46.0157229  68.5849449  32.6186728  44.9357245  67.7979924
  20.3193616  57.4489118  61.4798941  21.1568838  57.8586126  61.2632648
  20.4971884  56.5088560  61.4499135  32.2158048  55.1164198  57.1682774
  31.7004672  55.8868803  57.4071161  31.9435357  54.4429334  57.7915835
  29.8005159  49.9613899  62.2268012  28.9446756  49.5720749  62.0473651
  30.2132111  50.0405860  61.3667798  31.3304306  47.4960242  66.6259572
  30.8269102  47.4590377  65.8127377  31.6234913  48.4052985  66.6856228
  27.5747192  47.5798972  65.6325754  28.4400189  47.3841781  65.2731643
  27.6424701  47.3509324  66.5595110  37.1892323  57.8696553  59.1035947
  36.4121765  57.5307712  58.6591109  37.8683803  57.8749176  58.4290912
  32.0044352  52.9891290  58.9942555  31.6994487  53.3037440  59.8452698
  32.9574794  53.0672710  59.0369888  30.4490783  59.1481514  60.6435509
  29.9212145  58.4134273  60.3308746  29.9478286  59.9256190  60.3975477
  35.4283629  57.3430534  65.7602555  34.7707304  58.0329796  65.8482684
  36.2324029  57.7326966  66.1036541  25.1809511  49.8101180  63.0042120
  25.7553263  49.5876361  62.2715313  25.7680493  49.8789874  63.7570722
  34.2389088  55.6974907  63.8106497  34.7520970  56.3304899  64.3128207
  34.8890312  55.0976102  63.4449857  25.5079098  51.8405641  57.0238006
  24.6716410  52.1780327  57.3447280  25.3683868  51.7054621  56.0865143
  27.4832179  46.6842429  61.7317190  26.8296591  46.3691446  61.1073805
  27.4412653  46.0618169  62.4577013  28.5943384  56.9661724  53.6470482
  27.6870445  56.7350977  53.8461631  29.0914416  56.1699343  53.8344463
  31.5011462  65.6759231  56.5667168  30.8273161  65.9790928  57.1752126
  31.8877284  66.4788311  56.2172625  30.7169919  53.1724362  66.0564837
  29.7992480  53.3939309  65.8986525  31.1330063  53.2470673  65.1976545
  31.5004967  54.5715778  61.1867518  32.2476786  55.0837175  60.8774640
  31.7696556  54.2499831  62.0471911  29.7731617  57.0674319  58.1694472
  28.8642836  56.7833352  58.2666942  29.8026701  57.4873397  57.3097779
  35.0050884  60.6780908  61.9385640  34.5513212  59.8371818  61.9950830
  34.3744851  61.3142307  62.2760420  33.9483804  51.6072894  63.1686307
  33.2106561  51.0950281  63.4996550  34.2010578  51.1673276  62.3569584
  33.4483824  62.5157405  62.8735458  33.7406798  63.0762462  62.1547823
  33.9582444  62.8085966  63.6288617  34.0495431  44.3849146  63.7628076
  34.3554308  43.5246510  63.4753991  34.7748036  44.9766766  63.5627070
  20.3419787  54.7879833  62.1509674  20.1444187  54.1949194  61.4260741
  19.7866451  54.4832043  62.8685613  28.3216511  54.6802939  64.2704267
  28.3765121  53.7276776  64.1946744  27.5107713  54.8362378  64.7545566
  29.4707705  58.6083062  55.5082551  29.0327135  57.8918921  55.0488188
  30.2118146  58.8359177  54.9467642  26.2608871  53.2979999  62.0294646
  25.4476737  53.5974170  62.4359838  26.7567865  52.9035688  62.7469128
  28.4117449  63.2937756  63.9628911  28.3693628  63.5198602  63.0337443
  29.3280148  63.0601131  64.1114712  31.8583083  53.7621824  70.8609540
  32.2132470  53.9893297  71.7204006  32.5055214  54.0940200  70.2386795
  37.5880820  56.8840259  61.5658869  37.4498718  57.0741855  60.6380058
  37.2317038  57.6459642  62.0226920  25.7522946  50.8698355  67.6455881
  26.3922325  50.7287114  66.9478844  24.9200476  50.5832868  67.2694483
  37.6150199  58.9516786  66.5770141  38.0486706  58.8592076  67.4253195
  38.3281780  58.9274287  65.9390157  26.5283250  60.1700785  63.7590874
  27.3223848  59.6751105  63.5573449  25.8174942  59.6418648  63.3958579
  31.3478094  62.5518881  68.1103241  31.4015116  63.1209817  68.8780957
  30.4792875  62.7220766  67.7457278  22.8366013  54.3143867  59.8350626
  21.9063601  54.2528322  60.0520588  22.9323485  53.7919820  59.0387268
  22.7551562  50.8398680  62.4228868  23.0158379  51.7544013  62.3138028
  23.5768734  50.3723122  62.5725481  24.2276487  52.2536437  69.5927692
  24.8999541  52.0453799  68.9440341  23.4006274  52.0558523  69.1532925
  38.4765749  58.9940487  69.1103026  38.6701639  59.8986298  69.3562301
  38.3766367  58.5347906  69.9441611  30.1302060  48.8798378  71.6093353
  29.4829975  49.5788327  71.5157830  30.9003075  49.3134522  71.9769602
  33.5380857  59.1447230  74.6843907  33.3866364  58.9157782  73.7673990
  33.5285537  60.1017831  74.6975252  30.3066194  56.7179143  69.6690173
  31.2358254  56.8690302  69.4959140  29.8857224  56.8063163  68.8138820
  29.1054526  60.7429807  67.4388711  28.9665611  60.3748591  68.3114649
  28.3169122  61.2577446  67.2672668  29.7002678  65.8438904  58.7814247
  29.8754433  65.3726947  59.5959870  29.0135466  66.4704670  59.0095508
  30.6559741  60.1211410  64.8277548  30.3209573  60.0812180  65.7235198
  30.1563686  59.4556126  64.3547959  24.6303985  55.5279040  70.3530130
  24.4923783  54.7959279  70.9541669  25.5408908  55.4387940  70.0714317
  33.5918932  57.4667444  55.1014608  32.9748103  56.7414272  55.0047661
  33.1235421  58.2276804  54.7581682  27.2586285  55.2398999  69.8413809
  27.9685904  54.5992191  69.8000428  27.2155594  55.4911894  70.7639990
  35.2473064  62.1766352  72.7620388  35.1885610  61.4925573  72.0950971
  35.6492582  62.9185342  72.3101014  25.9715219  52.2264217  71.6609449
  25.4352576  51.7754955  72.3131045  25.3831928  52.3610126  70.9179913
  24.2663763  68.9928266  65.5554107  24.5060361  69.6246790  66.2333126
  23.4232959  68.6416306  65.8419467  25.3817478  51.6852868  54.2235912
  24.5046945  51.5641669  53.8598159  25.8575231  50.8938947  53.9714801
  35.2490471  60.1405936  70.9934368  34.3617250  59.8031858  71.1160767
  35.8189022  59.4088968  71.2303134  16.9019618  56.4730028  64.3177420
  17.5890658  56.1591758  63.7298435  16.7467747  57.3771393  64.0444671
  21.7054341  51.3620225  68.7462443  21.6212529  50.7545894  68.0112853
  20.8837047  51.8529243  68.7471940  28.7791625  64.8007389  67.9595611
  28.7061796  65.6062360  68.4714916  28.3369018  64.9999355  67.1343633
  28.5681404  64.0379159  61.4698433  27.7848926  64.5800839  61.5636657
  29.2674150  64.5553138  61.8692674  31.8778054  49.8473788  64.1132638
  32.3746754  49.0943751  63.7933709  31.1065036  49.8838105  63.5475848
  39.7307812  55.5514154  65.7550930  39.7197688  56.4338869  65.3844863
  38.8625191  55.1985705  65.5605467  31.2390308  64.6994223  70.1153770
  31.9518280  65.3341688  70.0429671  30.7480337  64.7958089  69.2993772
  32.9607835  58.6045475  61.6871062  32.0264114  58.7246938  61.5175766
  33.1384504  57.7017942  61.4231072  28.4613023  51.9891171  63.8404323
  28.0910811  51.4362212  64.5285228  28.9572116  51.3849305  63.2879323
  36.3480387  54.4462795  62.2221096  36.8140839  55.2790786  62.1481398
  36.7987887  53.9807776  62.9266354  26.2902222  62.4488666  70.9359341
  26.9911681  63.0825149  71.0888735  25.8197337  62.7903398  70.1754980
  34.4156618  60.7906616  59.2207248  34.6916462  60.6763211  60.1301122
  33.5461116  60.3924101  59.1819421  34.3197049  46.8143382  66.2611997
  33.4060129  47.0447609  66.4294204  34.7490151  46.8981826  67.1126030
  34.0903508  55.0033274  68.7611891  33.4374958  55.2509181  68.1064344
  34.4683888  54.1897412  68.4274368  31.0510682  65.0392967  62.8640061
  31.2333076  64.2214623  63.3267814  31.8743668  65.2560659  62.4264951
  31.3852847  63.9661152  60.1255110  31.9140614  63.4553607  59.5125272
  31.6481067  63.6503682  60.9900643  30.1391081  55.7453085  75.2477928
  29.4631718  55.6447214  75.9180303  30.9618715  55.5892298  75.7113925
  21.8869940  61.9825021  67.8690444  22.4723377  61.2368709  68.0018348
  21.6894778  62.2928978  68.7527107  24.7408595  65.0176269  62.8852886
  24.0718970  65.5022396  62.4016926  24.6021465  65.2645489  63.7996264
  16.4787595  54.5530621  66.5894887  16.5171694  54.0194212  67.3832005
  15.9727887  54.0265827  65.9705864  28.8813864  67.0520012  69.4835544
  29.4332172  67.2151634  70.2484629  29.2220057  67.6424450  68.8115569
  23.8578357  49.3995162  70.0857429  23.9219683  50.2609993  69.6734827
  23.7945477  48.7869164  69.3529787  23.3330629  51.4718295  73.7330463
  23.9602668  51.0895372  74.3467988  22.4758548  51.2532496  74.0986156
  33.7324738  61.8781270  75.3384199  34.2764642  62.4911228  74.8439153
  33.1511583  62.4360848  75.8551212  20.1096172  53.2794724  59.6648818
  20.4049613  52.3705402  59.6115872  19.2084208  53.2582463  59.3429820
  32.0182251  65.0001988  66.4699226  31.8933390  64.1991728  65.9610172
  32.6761342  65.4948181  65.9813196  23.6390419  51.3550720  65.6476367
  22.9177005  51.9686688  65.5083840  24.4283675  51.8908485  65.5693013
  34.0817159  62.8011008  68.0978777  33.1347495  62.6816359  68.0257103
  34.4299932  61.9133506  68.1805038  26.4416733  48.6905147  71.9217018
  26.9651135  48.9367443  72.6843328  26.2229066  49.5225182  71.5020156
  21.8384014  50.9608821  59.7888143  21.5096720  50.0806200  59.6063249
  22.1923384  50.9056490  60.6764532  31.0863593  62.5963724  64.2983129
  30.9388555  61.6680431  64.4790699  31.9117086  62.6183815  63.8140204
  24.9525837  51.2481791  60.1563621  25.2921909  51.7767712  59.4342229
  25.3997957  51.5862197  60.9322187  34.6897714  63.4192283  65.3848001
  35.6144262  63.2135144  65.2472453  34.5213018  63.1708684  66.2937343
  27.6469278  49.6318842  69.6066689  27.3066098  48.8326655  70.0087369
  26.9408284  49.9320553  69.0343522  28.2985750  46.7168154  68.0594012
  29.1211819  46.2428632  67.9372902  28.5423813  47.4958638  68.5592698
  26.9393984  49.7456413  58.3556914  27.6602347  50.1237665  57.8520630
  26.3159288  50.4645289  58.4591892  31.0825107  50.4501562  59.2915246
  31.2988721  51.3326200  58.9904074  30.6019174  50.0587775  58.5620888
  25.8224328  53.4087275  65.8685991  25.6768909  53.7227578  66.7610272
  25.3449532  54.0272175  65.3156889  27.6820711  50.3989823  65.9166880
  27.6682280  49.5030916  65.5799178  28.3993139  50.4060487  66.5505166
  29.5346842  50.8327163  67.9620008  29.2764620  51.7544234  67.9604338
  29.0031882  50.4357598  68.6520472  34.4793031  63.9377950  60.7410093
  34.6529908  63.3724373  59.9883945  34.9721922  64.7378845  60.5589583
  20.2969990  55.9492619  68.8073652  19.7523459  56.7252427  68.9393926
  21.1749340  56.2963424  68.6492773  27.0857607  49.2804203  61.1854450
  27.2073518  48.3520849  61.3845338  26.7959650  49.2942889  60.2732766
  29.9548798  46.9659114  64.3221170  29.9770494  47.0298447  63.3673150
  30.3716857  46.1263622  64.5161676  40.3332422  56.7014373  62.3600393
  40.7763568  55.9521698  61.9619516  39.4558932  56.6924509  61.9774125
  35.4668203  63.2544715  57.8406991  36.1619108  63.8751407  58.0594306
  35.8091353  62.4040066  58.1159369  21.0836012  55.0762516  71.7003809
  20.3417748  55.2245151  72.2868439  20.7628757  55.3370781  70.8370558
  37.3659626  60.7044420  59.3694322  37.8910950  61.0431693  58.6443642
  37.2781979  59.7691435  59.1857457  29.0279675  64.6178494  71.4984199
  29.3366801  64.3727641  72.3706898  29.8255157  64.8225132  71.0103069
  29.0500287  66.7716403  63.7289575  28.6105277  66.2792782  64.4222432
  29.8008404  66.2289371  63.4881650  21.5292626  62.9627944  63.7314203
  22.3550646  62.6631716  63.3512847  21.1786678  62.1935567  64.1803992
  26.4974159  62.3154412  65.8011877  25.8754168  61.6525118  65.5014105
  27.1679026  62.3415544  65.1185525  19.7301231  60.8814271  64.6903137
  18.8933139  60.4536445  64.5087138  19.7024877  61.0746714  65.6273928
  26.5698687  50.7936201  75.3944383  26.6186842  51.6698323  75.0122152
  27.1121201  50.2513594  74.8216026  37.0553532  61.3377324  74.6745520
  36.2649076  61.3201463  74.1350019  36.8186887  61.8765617  75.4294557
  37.1751407  58.1869790  71.9878248  37.2249412  58.0219798  72.9293771
  37.0665331  57.3197049  71.5976129  26.0587666  60.8658336  59.2770337
  26.2075786  61.5493800  58.6237010  26.8654110  60.8463426  59.7919793
  34.4655170  54.1700718  73.3037555  35.3665033  54.0307183  73.0121553
  34.5403144  54.3355173  74.2435733  28.7997975  51.5467573  72.1490742
  27.9301285  51.8401139  71.8773330  29.0357456  52.1308018  72.8698005
  38.6769604  60.6066732  72.2320270  38.3854413  60.9696712  73.0683731
  38.0641736  59.8933740  72.0533602  39.8765287  58.1719611  64.7522840
  40.7112178  58.6109415  64.9160401  40.0124415  57.6958265  63.9331086
  36.9256792  55.7299346  70.7000328  37.4010914  55.9226993  69.8919179
  36.0022358  55.7858532  70.4543712  23.8140299  56.8923513  60.2831406
  23.5686341  55.9885843  60.4811616  23.9836214  56.8940664  59.3410884
  31.5037009  47.7647190  69.6656162  32.0218953  48.5008217  69.3402650
  31.1492142  48.0711183  70.5002921  23.0835947  52.6251871  57.7817568
  22.3905192  52.6996226  57.1257604  22.8387699  51.8612215  58.3039085
  31.7549603  44.1847472  65.1857059  32.0351357  43.5170661  65.8117485
  32.5400210  44.3776568  64.6731722  29.5583072  63.3606466  56.7482085
  28.9857039  63.9796653  56.2952557  30.1315865  63.9105828  57.2822007
  35.6258461  52.6065106  68.9328634  36.5775884  52.7063204  68.9540858
  35.4561912  51.8143375  69.4426718  33.6472841  49.6920690  69.1188035
  33.0522773  49.9725702  68.4234523  33.3622538  50.1814591  69.8904776
  32.7780331  63.6443616  57.8790667  33.7111005  63.5789178  58.0823543
  32.6903544  64.4799883  57.4205200  35.4068348  62.9609487  54.8394615
  35.3281980  62.6269350  55.7330373  36.2278015  63.4531255  54.8386087
  38.1046539  55.8271226  68.0470933  38.0722859  54.8887227  68.2330617
  38.7147163  55.9055263  67.3136758  29.9429870  54.6967279  54.0898137
  30.8888975  54.5673487  54.1586555  29.5644115  53.9581941  54.5667565
  38.2541028  52.6182269  68.0929216  37.7380076  51.8340726  67.9059145
  39.1380976  52.2900986  68.2575736  35.9151755  46.3623285  64.0525029
  35.7176576  46.0538373  64.9368361  36.5251460  47.0884924  64.1822959
  43.9223089  56.8887233  67.1876970  44.6526478  56.6272521  67.7484673
  43.3130035  56.1515955  67.2279038  42.0038386  55.0295095  67.7851421
  41.2771550  54.8951060  67.1767913  41.5885673  55.3371924  68.5908139
  29.8268563  58.7485025  75.5498794  30.7471572  58.9263624  75.7438841
  29.7918146  57.8041071  75.3978494  28.1272787  52.6217255  54.0253023
  27.2204243  52.3250368  54.1015736  28.4048768  52.3247073  53.1587309
  19.0450728  53.9423619  64.4752069  18.7253512  53.0888927  64.1826443
  18.4984156  54.1572197  65.2310036  22.8230635  56.6586060  68.1921575
  23.0416645  57.5903168  68.2109609  23.2356409  56.2994034  68.9776379
  29.7434853  47.1654145  60.1797264  28.9335581  46.8201230  60.5552510
  30.4319270  46.8561689  60.7684875  31.6725401  46.2432192  61.8021560
  32.2256440  46.6627645  62.4611584  31.9095488  45.3167940  61.8444516
  27.6958501  52.2319266  77.5824324  27.5955227  53.1813623  77.5136415
  27.4780043  51.9037504  76.7100394  26.8971572  49.4804191  54.1665002
  27.7590736  49.8059089  54.4260819  27.0821916  48.6935687  53.6538068
  18.9138988  57.5626530  66.4445191  18.2202459  57.1480483  65.9315145
  19.6611979  57.6047067  65.8478609  35.0504208  48.3532717  61.3100225
  34.4702877  49.0117521  60.9278277  34.7840141  47.5310062  60.8987642
  33.5007775  47.7537775  63.5121545  34.0007553  47.8654309  62.7035864
  34.1443383  47.4498828  64.1522353  27.5589771  55.6616404  76.3989386
  27.0756852  56.4616765  76.6053275  27.6450710  55.6724349  75.4456830
  20.8275730  57.4944784  64.3211205  20.8046418  57.5932471  63.3693088
  21.1376367  58.3409935  64.6428372  23.4863108  59.5520939  68.4357820
  24.4406362  59.5204881  68.3687751  23.2875632  59.0911563  69.2508046
  24.0762490  58.1222055  71.0028617  24.8955379  58.6166134  71.0263455
  24.3499298  57.2054023  70.9746185  33.8329086  50.5132807  60.3656573
  32.9454941  50.7982458  60.1476768  34.2483075  50.3526571  59.5183850
  37.1843623  50.5379328  64.0810912  37.9604013  51.0275781  64.3535529
  36.4591757  50.9637383  64.5382782  39.6216181  51.2506948  65.1384853
  40.2160672  51.0102684  64.4278161  39.6942765  50.5314078  65.7658389
  21.8413337  65.0940559  65.4528018  21.7067805  64.3340959  64.8866016
  21.4245399  65.8181458  64.9856807  32.9772300  60.2777482  54.4604593
  33.6808150  60.4827485  55.0762249  32.2534949  60.8454244  54.7253676
  33.8070110  56.0287343  60.5806863  33.7505312  56.4855895  59.7414496
  34.3598453  55.2678028  60.4029706  37.6174916  51.8177075  61.4056983
  37.3611850  51.4173711  62.2365190  36.9927784  52.5320869  61.2807122
  41.9287254  54.5573149  63.9128274  41.3686812  54.6266338  64.6859836
  41.3230757  54.3814133  63.1927770  24.9982463  65.9909876  65.6646460
  24.8814847  66.9355308  65.5625151  24.1774909  65.6883437  66.0532260
  34.8858997  60.7160011  56.5103053  35.7204601  60.2841210  56.3280528
  34.7243340  60.5442025  57.4379948  34.5404889  57.2192125  57.8759392
  34.4853693  57.0536396  56.9347836  33.9150945  57.9268158  58.0321582
  19.3297404  52.4560189  71.7020815  19.9756268  51.9459143  72.1908040
  19.1214556  53.1928871  72.2764240  31.8550797  59.5241037  77.2012955
  32.7241956  59.6981689  76.8399590  31.3757548  60.3435453  77.0788684
  27.8501015  46.7200234  57.4544711  27.8379685  47.6642074  57.6112982
  28.7424437  46.5370379  57.1604172  26.0236977  66.6438138  68.8802389
  26.9264224  66.6761748  69.1968884  25.7974347  65.7138588  68.8948725
  27.7790579  65.3969124  65.5412467  26.8286210  65.3970986  65.4276840
  28.0823065  64.6501859  65.0248502  31.6653134  43.3143010  61.7090648
  30.8985530  42.7601497  61.8547330  32.0763839  43.3864879  62.5704799
  23.6694895  49.6027806  75.7995829  24.5326357  49.2464611  76.0099153
  23.0960306  49.2641701  76.4871233  43.5143272  71.2329662  66.6058230
  44.1521682  71.1136410  65.9021570  43.3964115  72.1810506  66.6646182
  40.3232979  71.1857091  66.5419754  39.9851490  71.0698155  65.6540289
  41.1922747  70.7848256  66.5220761  36.1819794  73.0392567  62.5316645
  35.6184659  72.9482504  61.7632933  36.0672189  72.2192471  63.0119138
  40.8052762  72.3391942  72.5005960  40.7941402  71.9444741  71.6286464
  40.9673401  71.6058015  73.0939731  33.7284226  74.5343759  65.3700866
  34.5205518  74.1934583  64.9547165  33.9680876  74.6438734  66.2903019
  41.7619353  76.7063535  57.8431110  41.1107333  77.2917615  57.4565124
  42.5563716  77.2369730  57.9026148  35.6874980  73.7952672  58.2418245
  36.4605856  73.2481659  58.1031120  36.0400379  74.6596921  58.4532706
  37.5260023  75.1229054  71.4485144  37.2349889  76.0274685  71.3331810
  38.1617007  75.1645582  72.1629214  38.4516230  72.5005903  68.0386504
  39.0479802  72.2761925  67.3243467  38.5091201  71.7590648  68.6411951
  38.0241258  69.9545338  55.8736695  38.2766779  69.4326859  55.1120158
  37.0865817  69.7911483  55.9763378  43.0684541  68.9581116  63.6811438
  43.8547630  68.5400539  63.3301855  43.3323245  69.8627208  63.8493086
  43.2394618  74.3953967  58.3800095  42.6040451  74.4688593  59.0920999
  42.9092025  74.9847565  57.7019174  48.4692968  68.8956350  64.5844416
  49.2018140  68.3255566  64.8182246  47.7132324  68.5077950  65.0250922
  37.7437547  71.8573444  58.0761070  37.6273805  71.1818347  58.7442154
  37.8539807  71.3705818  57.2593223  40.0869088  71.3183591  61.7807759
  39.7227295  70.7914212  62.4920680  40.9436204  70.9282060  61.6074244
  45.9918388  62.6077924  69.0439025  45.6601713  63.4773335  68.8200240
  45.3964002  62.2914208  69.7233055  39.7274575  66.3473491  56.7769107
  39.8948977  67.2153727  57.1439578  39.5371744  66.5100772  55.8530397
  42.4849908  74.8090470  68.4434938  42.1850631  75.7115508  68.3350745
  42.1400967  74.5422653  69.2956091  35.9362389  71.2604266  64.4771642
  35.0112886  71.1280481  64.6849334  36.1846803  72.0398486  64.9741584
  45.8847052  67.3273010  66.1232375  44.9763929  67.2588418  65.8291136
  45.8334647  67.8044955  66.9514200  39.7063796  68.8031148  57.7615774
  39.5863421  69.2488199  58.6001254  39.0116384  69.1516466  57.2029312
  33.2971200  70.9037540  65.3115431  33.4263582  71.1572019  66.2254843
  32.6168652  71.4965248  64.9920086  37.4670688  81.5734790  61.4105905
  37.3894717  82.5242615  61.4894386  36.8632331  81.2280662  62.0680832
  39.9587917  68.7462655  74.0667272  39.1821252  69.3056576  74.0570137
  40.5978480  69.2319438  74.5882142  47.7508698  65.5289448  67.9010249
  47.1083078  65.8221981  67.2550043  47.2463627  65.4142369  68.7063446
  45.4048862  69.2752621  58.5896108  46.3166718  69.5080008  58.4143806
  44.8958509  69.8589666  58.0271187  38.2134290  71.5548109  73.6285239
  38.9548974  72.0933153  73.3520063  37.5071275  72.1814397  73.7856791
  43.6889629  73.6977249  72.2257401  44.0972985  73.2559660  71.4812033
  42.9666891  73.1229877  72.4791594  40.0420699  68.6349856  69.5990958
  40.8881895  69.0589270  69.7425607  39.9819337  67.9783480  70.2929521
  44.0118444  74.2578440  65.9809690  43.3827306  74.4224154  65.2785757
  43.6244106  74.6720049  66.7520654  47.8907676  75.1932878  63.3354053
  47.2058714  75.5731779  62.7851087  47.9751525  75.8028204  64.0686001
  43.1920145  66.2954224  71.2572131  42.9481077  67.0496285  70.7206407
  43.4680075  66.6739572  72.0919378  45.1458608  72.8392837  69.9349397
  45.3575503  73.4824597  69.2583778  45.0988356  72.0055153  69.4671327
  42.7484836  65.4510657  66.8385969  41.8869316  65.7491911  67.1302707
  42.7747271  65.6681056  65.9067002  39.5646406  73.9952848  63.2459775
  40.0284751  74.2740551  62.4564397  39.3003204  73.0936292  63.0632865
  36.4570487  73.5424329  66.1839538  37.0271844  73.9711598  65.5457022
  37.0478599  73.2606914  66.8823724  38.5015292  70.1176000  60.0549340
  39.2039335  70.5697044  60.5223266  38.1695920  69.4759819  60.6829233
  36.9495653  68.7087757  74.4300549  36.3194314  69.3904038  74.6635946
  36.8431741  68.5970839  73.4853688  32.2440626  68.3759553  65.3566473
  31.4539680  68.6317081  64.8806584  32.7351873  69.1907891  65.4618514
  46.2604435  75.7164792  68.1071754  47.0821879  75.3144979  67.8254436
  46.2566838  75.6133026  69.0587870  34.1955371  68.7404132  62.3149950
  33.3986535  68.8522826  62.8333446  33.9680964  69.0790784  61.4490841
  40.0261039  75.2648835  70.2632465  40.0905471  75.7269243  71.0990637
  39.3171963  74.6346200  70.3914775  30.5278329  68.6290043  67.7881464
  30.7786367  69.5137053  68.0539040  31.0637877  68.4494645  67.0156556
  54.3510429  72.0603541  64.4556726  53.5974137  71.4910939  64.3000730
  54.4857970  72.0266205  65.4027360  39.7409057  76.9316943  60.1311445
  39.6054731  77.7768479  60.5596293  40.2818869  77.1336221  59.3677379
  36.2276396  63.0108523  76.7925800  35.8343342  62.4574721  77.4673445
  37.0442537  63.3219101  77.1832318  33.1938454  74.4492381  60.7039370
  33.7062975  75.2435631  60.8544935  33.8461167  73.7518671  60.6372972
  35.0033339  77.5658137  62.7862123  35.1799967  78.4876102  62.5983107
  35.7990172  77.2516556  63.2156503  39.1444357  64.4266402  74.3846057
  39.8854071  65.0273555  74.3050519  39.3762280  63.6844040  73.8264099
  34.2885695  69.6122769  72.6624287  34.1739210  68.7108026  72.9631385
  33.4330213  69.8586466  72.3109103  41.3677533  77.5540509  74.2611787
  40.9241387  76.7676888  73.9432692  42.0294747  77.7419660  73.5955678
  36.1264654  79.0836311  68.7872466  36.6772079  78.9553374  68.0149460
  35.2876130  79.3831200  68.4367358  43.4658771  77.8343309  72.2893188
  43.4477246  78.6552190  71.7973458  44.3878691  77.7097385  72.5143330
  39.9231825  75.3487439  73.1316697  40.4560162  74.5875727  72.9016005
  39.3945906  75.0561091  73.8740851  43.0901520  60.4547505  68.6610339
  42.7465790  61.3449146  68.5849449  43.4580483  60.2649162  67.7979924
  31.1587371  72.7781035  61.4798941  31.9962593  73.1878044  61.2632648
  31.3365638  71.8380477  61.4499135  43.0551803  70.4456116  57.1682774
  42.5398426  71.2160721  57.4071161  42.7829111  69.7721252  57.7915835
  40.6398914  65.2905817  62.2268012  39.7840510  64.9012667  62.0473651
  41.0525866  65.3697777  61.3667798  42.1698061  62.8252160  66.6259572
  41.6662856  62.7882295  65.8127377  42.4628667  63.7344903  66.6856228
  38.4140946  62.9090890  65.6325754  39.2793943  62.7133698  65.2731643
  38.4818455  62.6801241  66.5595110  48.0286077  73.1988471  59.1035947
  47.2515520  72.8599630  58.6591109  48.7077558  73.2041094  58.4290912
  42.8438106  68.3183208  58.9942555  42.5388242  68.6329357  59.8452698
  43.7968548  68.3964628  59.0369888  41.2884538  74.4773431  60.6435509
  40.7605899  73.7426191  60.3308746  40.7872041  75.2548108  60.3975477
  46.2677384  72.6722452  65.7602555  45.6101058  73.3621713  65.8482684
  47.0717783  73.0618884  66.1036541  36.0203266  65.1393098  63.0042120
  36.5947017  64.9168279  62.2715313  36.6074248  65.2081792  63.7570722
  45.0782843  71.0266824  63.8106497  45.5914724  71.6596816  64.3128207
  45.7284067  70.4268020  63.4449857  36.3472853  67.1697559  57.0238006
  35.5110165  67.5072245  57.3447280  36.2077622  67.0346538  56.0865143
  38.3225933  62.0134346  61.7317190  37.6690346  61.6983364  61.1073805
  38.2806407  61.3910087  62.4577013  39.4337138  72.2953642  53.6470482
  38.5264200  72.0642895  53.8461631  39.9308170  71.4991261  53.8344463
  42.3405217  81.0051149  56.5667168  41.6666916  81.3082846  57.1752126
  42.7271039  81.8080229  56.2172625  41.5563674  68.5016280  66.0564837
  40.6386235  68.7231227  65.8986525  41.9723817  68.5762591  65.1976545
  42.3398721  69.9007696  61.1867518  43.0870540  70.4129093  60.8774640
  42.6090311  69.5791748  62.0471911  40.6125372  72.3966236  58.1694472
  39.7036591  72.1125269  58.2666942  40.6420455  72.8165315  57.3097779
  45.8444639  76.0072826  61.9385640  45.3906966  75.1663736  61.9950830
  45.2138606  76.6434224  62.2760420  44.7877558  66.9364812  63.1686307
  44.0500315  66.4242198  63.4996550  45.0404332  66.4965194  62.3569584
  44.2877578  77.8449323  62.8735458  44.5800553  78.4054380  62.1547823
  44.7976199  78.1377884  63.6288617  44.8889186  59.7141064  63.7628076
  45.1948063  58.8538427  63.4753991  45.6141791  60.3058684  63.5627070
  31.1813542  70.1171751  62.1509674  30.9837942  69.5241111  61.4260741
  30.6260206  69.8123961  62.8685613  39.1610266  70.0094857  64.2704267
  39.2158875  69.0568693  64.1946744  38.3501468  70.1654296  64.7545566
  40.3101459  73.9374980  55.5082551  39.8720889  73.2210839  55.0488188
  41.0511900  74.1651095  54.9467642  37.1002625  68.6271917  62.0294646
  36.2870491  68.9266087  62.4359838  37.5961620  68.2327606  62.7469128
  39.2511203  78.6229674  63.9628911  39.2087382  78.8490520  63.0337443
  40.1673902  78.3893048  64.1114712  42.6976837  69.0913741  70.8609540
  43.0526225  69.3185214  71.7204006  43.3448968  69.4232118  70.2386795
  48.4274574  72.2132177  61.5658869  48.2892473  72.4033773  60.6380058
  48.0710793  72.9751560  62.0226920  36.5916700  66.1990272  67.6455881
  37.2316080  66.0579031  66.9478844  35.7594231  65.9124786  67.2694483
  48.4543954  74.2808704  66.5770141  48.8880460  74.1883993  67.4253195
  49.1675534  74.2566205  65.9390157  37.3677004  75.4992703  63.7590874
  38.1617603  75.0043023  63.5573449  36.6568697  74.9710566  63.3958579
  42.1871849  77.8810798  68.1103241  42.2408871  78.4501735  68.8780957
  41.3186630  78.0512683  67.7457278  33.6759768  69.6435784  59.8350626
  32.7457356  69.5820240  60.0520588  33.7717240  69.1211737  59.0387268
  33.5945317  66.1690597  62.4228868  33.8552134  67.0835931  62.3138028
  34.4162489  65.7015040  62.5725481  35.0670242  67.5828354  69.5927692
  35.7393295  67.3745717  68.9440341  34.2400029  67.3850440  69.1532925
  49.3159503  74.3232405  69.1103026  49.5095393  75.2278215  69.3562301
  49.2160121  73.8639824  69.9441611  40.9695814  64.2090295  71.6093353
  40.3223729  64.9080245  71.5157830  41.7396829  64.6426439  71.9769602
  44.3774612  74.4739148  74.6843907  44.2260118  74.2449699  73.7673990
  44.3679291  75.4309749  74.6975252  41.1459948  72.0471060  69.6690173
  42.0752008  72.1982220  69.4959140  40.7250978  72.1355081  68.8138820
  39.9448280  76.0721725  67.4388711  39.8059366  75.7040509  68.3114649
  39.1562876  76.5869364  67.2672668  40.5396432  81.1730821  58.7814247
  40.7148188  80.7018864  59.5959870  39.8529220  81.7996587  59.0095508
  41.4953495  75.4503327  64.8277548  41.1603328  75.4104097  65.7235198
  40.9957441  74.7848043  64.3547959  35.4697739  70.8570957  70.3530130
  35.3317537  70.1251196  70.9541669  36.3802663  70.7679858  70.0714317
  44.4312687  72.7959362  55.1014608  43.8141858  72.0706190  55.0047661
  43.9629175  73.5568722  54.7581682  38.0980040  70.5690917  69.8413809
  38.8079658  69.9284109  69.8000428  38.0549348  70.8203812  70.7639990
  46.0866819  77.5058270  72.7620388  46.0279365  76.8217490  72.0950971
  46.4886337  78.2477260  72.3101014  36.8108974  67.5556135  71.6609449
  36.2746331  67.1046873  72.3131045  36.2225682  67.6902043  70.9179913
  35.1057517  84.3220184  65.5554107  35.3454116  84.9538708  66.2333126
  34.2626714  83.9708224  65.8419467  36.2211233  67.0144786  54.2235912
  35.3440699  66.8933587  53.8598159  36.6968986  66.2230864  53.9714801
  46.0884226  75.4697854  70.9934368  45.2011005  75.1323776  71.1160767
  46.6582777  74.7380885  71.2303134  27.7413373  71.8021946  64.3177420
  28.4284413  71.4883676  63.7298435  27.5861502  72.7063310  64.0444671
  32.5448095  66.6912142  68.7462443  32.4606284  66.0837812  68.0112853
  31.7230802  67.1821161  68.7471940  39.6185379  80.1299306  67.9595611
  39.5455551  80.9354278  68.4714916  39.1762772  80.3291272  67.1343633
  39.4075159  79.3671076  61.4698433  38.6242681  79.9092757  61.5636657
  40.1067904  79.8845056  61.8692674  42.7171809  65.1765706  64.1132638
  43.2140509  64.4235668  63.7933709  41.9458790  65.2130023  63.5475848
  50.5701566  70.8806071  65.7550930  50.5591443  71.7630787  65.3844863
  49.7018946  70.5277622  65.5605467  42.0784063  80.0286140  70.1153770
  42.7912035  80.6633605  70.0429671  41.5874091  80.1250006  69.2993772
  43.8001590  73.9337393  61.6871062  42.8657868  74.0538856  61.5175766
  43.9778258  73.0309860  61.4231072  39.3006778  67.3183089  63.8404323
  38.9304565  66.7654129  64.5285228  39.7965870  66.7141222  63.2879323
  47.1874141  69.7754712  62.2221096  47.6534593  70.6082704  62.1481398
  47.6381642  69.3099694  62.9266354  37.1295976  77.7780584  70.9359341
  37.8305436  78.4117067  71.0888735  36.6591091  78.1195315  70.1754980
  45.2550372  76.1198534  59.2207248  45.5310216  76.0055128  60.1301122
  44.3854871  75.7216019  59.1819421  45.1590804  62.1435299  66.2611997
  44.2453884  62.3739526  66.4294204  45.5883905  62.2273743  67.1126030
  44.9297262  70.3325191  68.7611891  44.2768713  70.5801099  68.1064344
  45.3077642  69.5189330  68.4274368  41.8904436  80.3684885  62.8640061
  42.0726831  79.5506540  63.3267814  42.7137422  80.5852577  62.4264951
  42.2246602  79.2953070  60.1255110  42.7534368  78.7845524  59.5125272
  42.4874821  78.9795600  60.9900643  40.9784835  71.0745002  75.2477928
  40.3025472  70.9739132  75.9180303  41.8012469  70.9184216  75.7113925
  32.7263694  77.3116939  67.8690444  33.3117131  76.5660627  68.0018348
  32.5288533  77.6220896  68.7527107  35.5802350  80.3468186  62.8852886
  34.9112725  80.8314314  62.4016926  35.4415219  80.5937407  63.7996264
  27.3181349  69.8822539  66.5894887  27.3565449  69.3486130  67.3832005
  26.8121642  69.3557745  65.9705864  39.7207618  82.3811930  69.4835544
  40.2725926  82.5443551  70.2484629  40.0613812  82.9716368  68.8115569
  34.6972111  64.7287080  70.0857429  34.7613438  65.5901911  69.6734827
  34.6339232  64.1161081  69.3529787  34.1724384  66.8010212  73.7330463
  34.7996423  66.4187290  74.3467988  33.3152303  66.5824414  74.0986156
  44.5718492  77.2073187  75.3384199  45.1158396  77.8203146  74.8439153
  43.9905337  77.7652766  75.8551212  30.9489927  68.6086641  59.6648818
  31.2443368  67.6997320  59.6115872  30.0477962  68.5874381  59.3429820
  42.8576005  80.3293905  66.4699226  42.7327145  79.5283645  65.9610172
  43.5155097  80.8240099  65.9813196  34.4784174  66.6842638  65.6476367
  33.7570759  67.2978606  65.5083840  35.2677429  67.2200403  65.5693013
  44.9210914  78.1302925  68.0978777  43.9741249  78.0108277  68.0257103
  45.2693687  77.2425424  68.1805038  37.2810487  64.0197064  71.9217018
  37.8044889  64.2659361  72.6843328  37.0622820  64.8517099  71.5020156
  32.6777768  66.2900739  59.7888143  32.3490474  65.4098118  59.6063249
  33.0317139  66.2348408  60.6764532  41.9257347  77.9255642  64.2983129
  41.7782310  76.9972349  64.4790699  42.7510841  77.9475732  63.8140204
  35.7919591  66.5773709  60.1563621  36.1315664  67.1059630  59.4342229
  36.2391712  66.9154115  60.9322187  45.5291469  78.7484200  65.3848001
  46.4538016  78.5427062  65.2472453  45.3606772  78.5000602  66.2937343
  38.4863032  64.9610759  69.6066689  38.1459853  64.1618573  70.0087369
  37.7802039  65.2612470  69.0343522  39.1379504  62.0460072  68.0594012
  39.9605573  61.5720550  67.9372902  39.3817568  62.8250556  68.5592698
  37.7787739  65.0748330  58.3556914  38.4996101  65.4529583  57.8520630
  37.1553043  65.7937207  58.4591892  41.9218861  65.7793479  59.2915246
  42.1382476  66.6618117  58.9904074  41.4412929  65.3879693  58.5620888
  36.6618083  68.7379193  65.8685991  36.5162664  69.0519496  66.7610272
  36.1843286  69.3564093  65.3156889  38.5214466  65.7281741  65.9166880
  38.5076034  64.8322834  65.5799178  39.2386894  65.7352404  66.5505166
  40.3740596  66.1619081  67.9620008  40.1158374  67.0836151  67.9604338
  39.8425637  65.7649515  68.6520472  45.3186785  79.2669868  60.7410093
  45.4923663  78.7016290  59.9883945  45.8115676  80.0670763  60.5589583
  31.1363745  71.2784537  68.8073652  30.5917213  72.0544345  68.9393926
  32.0143095  71.6255341  68.6492773  37.9251362  64.6096121  61.1854450
  38.0467273  63.6812767  61.3845338  37.6353404  64.6234807  60.2732766
  40.7942552  62.2951031  64.3221170  40.8164249  62.3590364  63.3673150
  41.2110611  61.4555540  64.5161676  51.1726176  72.0306291  62.3600393
  51.6157322  71.2813616  61.9619516  50.2952687  72.0216427  61.9774125
  46.3061958  78.5836632  57.8406991  47.0012862  79.2043325  58.0594306
  46.6485108  77.7331983  58.1159369  31.9229767  70.4054433  71.7003809
  31.1811503  70.5537069  72.2868439  31.6022511  70.6662699  70.8370558
  48.2053381  76.0336338  59.3694322  48.7304705  76.3723611  58.6443642
  48.1175733  75.0983353  59.1857457  39.8673429  79.9470411  71.4984199
  40.1760556  79.7019558  72.3706898  40.6648912  80.1517050  71.0103069
  39.8894042  82.1008321  63.7289575  39.4499032  81.6084700  64.4222432
  40.6402158  81.5581289  63.4881650  32.3686381  78.2919862  63.7314203
  33.1944400  77.9923634  63.3512847  32.0180433  77.5227484  64.1803992
  37.3367914  77.6446330  65.8011877  36.7147923  76.9817035  65.5014105
  38.0072781  77.6707462  65.1185525  30.5694986  76.2106188  64.6903137
  29.7326894  75.7828363  64.5087138  30.5418631  76.4038632  65.6273928
  37.4092441  66.1228118  75.3944383  37.4580597  66.9990241  75.0122152
  37.9514955  65.5805511  74.8216026  47.8947287  76.6669241  74.6745520
  47.1042831  76.6493380  74.1350019  47.6580641  77.2057535  75.4294557
  48.0145162  73.5161708  71.9878248  48.0643167  73.3511715  72.9293771
  47.9059085  72.6488967  71.5976129  36.8981421  76.1950254  59.2770337
  37.0469541  76.8785718  58.6237010  37.7047864  76.1755344  59.7919793
  45.3048924  69.4992636  73.3037555  46.2058787  69.3599101  73.0121553
  45.3796899  69.6647091  74.2435733  39.6391730  66.8759491  72.1490742
  38.7695039  67.1693057  71.8773330  39.8751210  67.4599936  72.8698005
  49.5163359  75.9358649  72.2320270  49.2248167  76.2988630  73.0683731
  48.9035490  75.2225658  72.0533602  50.7159041  73.5011529  64.7522840
  51.5505932  73.9401333  64.9160401  50.8518170  73.0250182  63.9331086
  47.7650547  71.0591264  70.7000328  48.2404669  71.2518910  69.8919179
  46.8416112  71.1150450  70.4543712  34.6534054  72.2215431  60.2831406
  34.4080096  71.3177761  60.4811616  34.8229968  72.2232582  59.3410884
  42.3430763  63.0939108  69.6656162  42.8612707  63.8300134  69.3402650
  41.9885896  63.4003101  70.5002921  33.9229701  67.9543789  57.7817568
  33.2298946  68.0288144  57.1257604  33.6781453  67.1904132  58.3039085
  42.5943358  59.5139390  65.1857059  42.8745111  58.8462579  65.8117485
  43.3793965  59.7068486  64.6731722  40.3976826  78.6898384  56.7482085
  39.8250793  79.3088571  56.2952557  40.9709620  79.2397746  57.2822007
  46.4652216  67.9357024  68.9328634  47.4169639  68.0355122  68.9540858
  46.2955666  67.1435293  69.4426718  44.4866595  65.0212607  69.1188035
  43.8916528  65.3017620  68.4234523  44.2016292  65.5106508  69.8904776
  43.6174086  78.9735534  57.8790667  44.5504759  78.9081096  58.0823543
  43.5297299  79.8091801  57.4205200  46.2462103  78.2901404  54.8394615
  46.1675734  77.9561268  55.7330373  47.0671769  78.7823172  54.8386087
  48.9440294  71.1563144  68.0470933  48.9116614  70.2179144  68.2330617
  49.5540917  71.2347180  67.3136758  40.7823625  70.0259197  54.0898137
  41.7282729  69.8965405  54.1586555  40.4037870  69.2873859  54.5667565
  49.0934782  67.9474187  68.0929216  48.5773831  67.1632644  67.9059145
  49.9774731  67.6192904  68.2575736  46.7545509  61.6915203  64.0525029
  46.5570330  61.3830291  64.9368361  47.3645215  62.4176842  64.1822959
  54.7616844  72.2179151  67.1876970  55.4920232  71.9564439  67.7484673
  54.1523789  71.4807873  67.2279038  40.6662317  74.0776943  75.5498794
  41.5865327  74.2555542  75.7438841  40.6311900  73.1332988  75.3978494
  38.9666542  67.9509173  54.0253023  38.0597997  67.6542286  54.1015736
  39.2442523  67.6538991  53.1587309  29.8844482  69.2715537  64.4752069
  29.5647267  68.4180845  64.1826443  29.3377910  69.4864115  65.2310036
  33.6624390  71.9877978  68.1921575  33.8810399  72.9195085  68.2109609
  34.0750164  71.6285952  68.9776379  40.5828608  62.4946063  60.1797264
  39.7729336  62.1493148  60.5552510  41.2713024  62.1853607  60.7684875
  42.5119156  61.5724110  61.8021560  43.0650194  61.9919563  62.4611584
  42.7489242  60.6459858  61.8444516  38.5352255  67.5611183  77.5824324
  38.4348982  68.5105540  77.5136415  38.3173797  67.2329422  76.7100394
  37.7365326  64.8096108  54.1665002  38.5984490  65.1351007  54.4260819
  37.9215671  64.0227604  53.6538068  29.7532742  72.8918448  66.4445191
  29.0596214  72.4772401  65.9315145  30.5005733  72.9338985  65.8478609
  45.8897963  63.6824635  61.3100225  45.3096632  64.3409439  60.9278277
  45.6233896  62.8601979  60.8987642  44.3401529  63.0829692  63.5121545
  44.8401308  63.1946227  62.7035864  44.9837137  62.7790745  64.1522353
  38.3983525  70.9908322  76.3989386  37.9150607  71.7908682  76.6053275
  38.4844464  71.0016267  75.4456830  31.6669485  72.8236702  64.3211205
  31.6440173  72.9224389  63.3693088  31.9770121  73.6701853  64.6428372
  34.3256863  74.8812857  68.4357820  35.2800116  74.8496799  68.3687751
  34.1269386  74.4203481  69.2508046  34.9156245  73.4513973  71.0028617
  35.7349134  73.9458052  71.0263455  35.1893052  72.5345941  70.9746185
  44.6722841  65.8424725  60.3656573  43.7848696  66.1274376  60.1476768
  45.0876830  65.6818489  59.5183850  48.0237377  65.8671246  64.0810912
  48.7997767  66.3567699  64.3535529  47.2985511  66.2929300  64.5382782
  50.4609936  66.5798865  65.1384853  51.0554426  66.3394601  64.4278161
  50.5336519  65.8605996  65.7658389  32.6807091  80.4232476  65.4528018
  32.5461559  79.6632877  64.8866016  32.2639154  81.1473376  64.9856807
  43.8166054  75.6069400  54.4604593  44.5201904  75.8119402  55.0762249
  43.0928703  76.1746162  54.7253676  44.6463865  71.3579261  60.5806863
  44.5899066  71.8147813  59.7414496  45.1992207  70.5969946  60.4029706
  48.4568671  67.1468993  61.4056983  48.2005605  66.7465629  62.2365190
  47.8321539  67.8612787  61.2807122  52.7681008  69.8865066  63.9128274
  52.2080566  69.9558256  64.6859836  52.1624512  69.7106051  63.1927770
  35.8376217  81.3201793  65.6646460  35.7208601  82.2647226  65.5625151
  35.0168664  81.0175355  66.0532260  45.7252752  76.0451929  56.5103053
  46.5598356  75.6133128  56.3280528  45.5637095  75.8733943  57.4379948
  45.3798644  72.5484042  57.8759392  45.3247448  72.3828314  56.9347836
  44.7544699  73.2560075  58.0321582  30.1691159  67.7852107  71.7020815
  30.8150023  67.2751061  72.1908040  29.9608310  68.5220788  72.2764240
  42.6944551  74.8532954  77.2012955  43.5635711  75.0273606  76.8399590
  42.2151303  75.6727371  77.0788684  38.6894769  62.0492151  57.4544711
  38.6773439  62.9933991  57.6112982  39.5818191  61.8662297  57.1604172
  36.8630731  81.9730055  68.8802389  37.7657978  82.0053665  69.1968884
  36.6368101  81.0430506  68.8948725  38.6184333  80.7261042  65.5412467
  37.6679964  80.7262903  65.4276840  38.9216820  79.9793776  65.0248502
  42.5046889  58.6434928  61.7090648  41.7379285  58.0893415  61.8547330
  42.9157594  58.7156797  62.5704799  34.5088650  64.9319724  75.7995829
  35.3720111  64.5756529  76.0099153  33.9354061  64.5933619  76.4871233
  54.3537027  86.5621580  66.6058230  54.9915437  86.4428327  65.9021570
  54.2357870  87.5102424  66.6646182  51.1626733  86.5149008  66.5419754
  50.8245245  86.3990073  65.6540289  52.0316501  86.1140173  66.5220761
  47.0213549  88.3684485  62.5316645  46.4578414  88.2774422  61.7632933
  46.9065944  87.5484389  63.0119138  51.6446516  87.6683860  72.5005960
  51.6335157  87.2736658  71.6286464  51.8067156  86.9349933  73.0939731
  44.5677981  89.8635676  65.3700866  45.3599273  89.5226501  64.9547165
  44.8074631  89.9730651  66.2903019  52.6013108  92.0355452  57.8431110
  51.9501087  92.6209533  57.4565124  53.3957470  92.5661647  57.9026148
  46.5268735  89.1244590  58.2418245  47.2999611  88.5773577  58.1031120
  46.8794134  89.9888839  58.4532706  48.3653777  90.4520972  71.4485144
  48.0743643  91.3566603  71.3331810  49.0010762  90.4937499  72.1629214
  49.2909984  87.8297820  68.0386504  49.8873556  87.6053843  67.3243467
  49.3484956  87.0882566  68.6411951  48.8635013  85.2837256  55.8736695
  49.1160533  84.7618777  55.1120158  47.9259572  85.1203401  55.9763378
  53.9078295  84.2873034  63.6811438  54.6941385  83.8692457  63.3301855
  54.1717000  85.1919126  63.8493086  54.0788373  89.7245884  58.3800095
  53.4434206  89.7980511  59.0920999  53.7485779  90.3139483  57.7019174
  59.3086722  84.2248267  64.5844416  60.0411894  83.6547484  64.8182246
  58.5526078  83.8369868  65.0250922  48.5831301  87.1865362  58.0761070
  48.4667559  86.5110265  58.7442154  48.6933561  86.6997736  57.2593223
  50.9262842  86.6475509  61.7807759  50.5621049  86.1206130  62.4920680
  51.7829958  86.2573978  61.6074244  56.8312143  77.9369841  69.0439025
  56.4995468  78.8065252  68.8200240  56.2357756  77.6206125  69.7233055
  50.5668329  81.6765408  56.7769107  50.7342732  82.5445645  57.1439578
  50.3765498  81.8392690  55.8530397  53.3243662  90.1382387  68.4434938
  53.0244385  91.0407426  68.3350745  52.9794722  89.8714570  69.2956091
  46.7756144  86.5896184  64.4771642  45.8506640  86.4572398  64.6849334
  47.0240557  87.3690403  64.9741584  56.7240806  82.6564927  66.1232375
  55.8157683  82.5880336  65.8291136  56.6728402  83.1336872  66.9514200
  50.5457550  84.1323066  57.7615774  50.4257175  84.5780117  58.6001254
  49.8510138  84.4808384  57.2029312  44.1364955  86.2329458  65.3115431
  44.2657336  86.4863937  66.2254843  43.4562406  86.8257166  64.9920086
  48.3064442  96.9026708  61.4105905  48.2288472  97.8534533  61.4894386
  47.7026086  96.5572580  62.0680832  50.7981672  84.0754573  74.0667272
  50.0215006  84.6348493  74.0570137  51.4372235  84.5611356  74.5882142
  58.5902453  80.8581366  67.9010249  57.9476833  81.1513899  67.2550043
  58.0857381  80.7434286  68.7063446  56.2442616  84.6044539  58.5896108
  57.1560472  84.8371926  58.4143806  55.7352263  85.1881583  58.0271187
  49.0528044  86.8840026  73.6285239  49.7942729  87.4225070  73.3520063
  48.3465030  87.5106315  73.7856791  54.5283384  89.0269167  72.2257401
  54.9366740  88.5851577  71.4812033  53.8060645  88.4521794  72.4791594
  50.8814454  83.9641774  69.5990958  51.7275649  84.3881187  69.7425607
  50.8213092  83.3075398  70.2929521  54.8512199  89.5870358  65.9809690
  54.2221061  89.7516072  65.2785757  54.4637861  90.0011967  66.7520654
  54.0313899  81.6246142  71.2572131  53.7874831  82.3788203  70.7206407
  54.3073830  82.0031490  72.0919378  55.9852362  88.1684754  69.9349397
  56.1969257  88.8116514  69.2583778  55.9382110  87.3347071  69.4671327
  53.5878591  80.7802575  66.8385969  52.7263070  81.0783829  67.1302707
  53.6141026  80.9972974  65.9067002  50.4040160  89.3244766  63.2459775
  50.8678506  89.6032469  62.4564397  50.1396959  88.4228210  63.0632865
  47.2964241  88.8716247  66.1839538  47.8665599  89.3003516  65.5457022
  47.8872353  88.5898832  66.8823724  49.3409046  85.4467918  60.0549340
  50.0433090  85.8988962  60.5223266  49.0089675  84.8051737  60.6829233
  47.7889408  84.0379675  74.4300549  47.1588069  84.7195955  74.6635946
  47.6825496  83.9262756  73.4853688  43.0834380  83.7051471  65.3566473
  42.2933434  83.9608999  64.8806584  43.5745628  84.5199808  65.4618514
  57.0998190  91.0456710  68.1071754  57.9215634  90.6436897  67.8254436
  57.0960593  90.9424944  69.0587870  45.0349126  84.0696050  62.3149950
  44.2380289  84.1814744  62.8333446  44.8074718  84.4082702  61.4490841
  50.8654793  90.5940753  70.2632465  50.9299226  91.0561160  71.0990637
  50.1565717  89.9638118  70.3914775  41.3672083  83.9581961  67.7881464
  41.6180122  84.8428971  68.0539040  41.9031632  83.7786563  67.0156556
  50.5802811  92.2608861  60.1311445  50.4448486  93.1060396  60.5596293
  51.1212624  92.4628138  59.3677379  47.0670151  78.3400440  76.7925800
  46.6737096  77.7866639  77.4673445  47.8836291  78.6511019  77.1832318
  44.0332208  89.7784299  60.7039370  44.5456729  90.5727549  60.8544935
  44.6854921  89.0810589  60.6372972  45.8427093  92.8950055  62.7862123
  46.0193722  93.8168020  62.5983107  46.6383927  92.5808474  63.2156503
  49.9838112  79.7558320  74.3846057  50.7247825  80.3565473  74.3050519
  50.2156035  79.0135957  73.8264099  45.1279450  84.9414687  72.6624287
  45.0132965  84.0399944  72.9631385  44.2723967  85.1878384  72.3109103
  52.2071287  92.8832427  74.2611787  51.7635142  92.0968806  73.9432692
  52.8688501  93.0711578  73.5955678  46.9658409  94.4128229  68.7872466
  47.5165834  94.2845292  68.0149460  46.1269885  94.7123118  68.4367358
  54.3052526  93.1635227  72.2893188  54.2871001  93.9844108  71.7973458
  55.2272446  93.0389302  72.5143330  50.7625580  90.6779357  73.1316697
  51.2953916  89.9167645  72.9016005  50.2339661  90.3853008  73.8740851
  53.9295275  75.7839422  68.6610339  53.5859544  76.6741064  68.5849449
  54.2974237  75.5941080  67.7979924  41.9981125  88.1072953  61.4798941
  42.8356347  88.5169961  61.2632648  42.1759393  87.1672395  61.4499135
  53.8945557  85.7748034  57.1682774  53.3792181  86.5452638  57.4071161
  53.6222866  85.1013170  57.7915835  51.4792668  80.6197734  62.2268012
  50.6234265  80.2304585  62.0473651  51.8919620  80.6989695  61.3667798
  53.0091815  78.1544078  66.6259572  52.5056611  78.1174213  65.8127377
  53.3022422  79.0636820  66.6856228  49.2534701  78.2382807  65.6325754
  50.1187698  78.0425616  65.2731643  49.3212210  78.0093159  66.5595110
  58.8679831  88.5280388  59.1035947  58.0909274  88.1891548  58.6591109
  59.5471312  88.5333011  58.4290912  53.6831861  83.6475126  58.9942555
  53.3781996  83.9621275  59.8452698  54.6362303  83.7256546  59.0369888
  52.1278292  89.8065349  60.6435509  51.5999654  89.0718109  60.3308746
  51.6265795  90.5840025  60.3975477  57.1071138  88.0014369  65.7602555
  56.4494813  88.6913631  65.8482684  57.9111538  88.3910801  66.1036541
  46.8597020  80.4685015  63.0042120  47.4340772  80.2460197  62.2715313
  47.4468002  80.5373710  63.7570722  55.9176597  86.3558742  63.8106497
  56.4308479  86.9888734  64.3128207  56.5677821  85.7559938  63.4449857
  47.1866607  82.4989476  57.0238006  46.3503919  82.8364163  57.3447280
  47.0471377  82.3638456  56.0865143  49.1619688  77.3426264  61.7317190
  48.5084100  77.0275281  61.1073805  49.1200162  76.7202005  62.4577013
  50.2730893  87.6245559  53.6470482  49.3657954  87.3934813  53.8461631
  50.7701925  86.8283179  53.8344463  53.1798971  96.3343066  56.5667168
  52.5060670  96.6374763  57.1752126  53.5664793  97.1372147  56.2172625
  52.3957428  83.8308198  66.0564837  51.4779989  84.0523145  65.8986525
  52.8117572  83.9054508  65.1976545  53.1792476  85.2299613  61.1867518
  53.9264295  85.7421011  60.8774640  53.4484065  84.9083666  62.0471911
  51.4519126  87.7258154  58.1694472  50.5430345  87.4417187  58.2666942
  51.4814210  88.1457233  57.3097779  56.6838393  91.3364744  61.9385640
  56.2300721  90.4955654  61.9950830  56.0532360  91.9726142  62.2760420
  55.6271313  82.2656730  63.1686307  54.8894070  81.7534116  63.4996550
  55.8798087  81.8257111  62.3569584  55.1271333  93.1741240  62.8735458
  55.4194307  93.7346297  62.1547823  55.6369953  93.4669801  63.6288617
  55.7282940  75.0432982  63.7628076  56.0341817  74.1830345  63.4753991
  56.4535545  75.6350602  63.5627070  42.0207296  85.4463668  62.1509674
  41.8231696  84.8533029  61.4260741  41.4653960  85.1415878  62.8685613
  50.0004020  85.3386775  64.2704267  50.0552630  84.3860611  64.1946744
  49.1895222  85.4946214  64.7545566  51.1495214  89.2666898  55.5082551
  50.7114644  88.5502757  55.0488188  51.8905655  89.4943013  54.9467642
  47.9396380  83.9563834  62.0294646  47.1264245  84.2558005  62.4359838
  48.4355374  83.5619523  62.7469128  50.0904958  93.9521591  63.9628911
  50.0481137  94.1782438  63.0337443  51.0067657  93.7184966  64.1114712
  53.5370592  84.4205659  70.8609540  53.8919979  84.6477132  71.7204006
  54.1842723  84.7524036  70.2386795  59.2668329  87.5424095  61.5658869
  59.1286227  87.7325691  60.6380058  58.9104547  88.3043478  62.0226920
  47.4310455  81.5282190  67.6455881  48.0709834  81.3870949  66.9478844
  46.5987985  81.2416703  67.2694483  59.2937708  89.6100622  66.5770141
  59.7274215  89.5175911  67.4253195  60.0069289  89.5858122  65.9390157
  48.2070759  90.8284620  63.7590874  49.0011357  90.3334941  63.5573449
  47.4962451  90.3002484  63.3958579  53.0265603  93.2102716  68.1103241
  53.0802625  93.7793652  68.8780957  52.1580384  93.3804601  67.7457278
  44.5153522  84.9727702  59.8350626  43.5851110  84.9112158  60.0520588
  44.6110994  84.4503655  59.0387268  44.4339071  81.4982515  62.4228868
  44.6945888  82.4127848  62.3138028  45.2556243  81.0306958  62.5725481
  45.9063996  82.9120272  69.5927692  46.5787050  82.7037634  68.9440341
  45.0793783  82.7142358  69.1532925  60.1553258  89.6524322  69.1103026
  60.3489148  90.5570133  69.3562301  60.0553876  89.1931742  69.9441611
  51.8089568  79.5382213  71.6093353  51.1617484  80.2372163  71.5157830
  52.5790584  79.9718357  71.9769602  55.2168366  89.8031065  74.6843907
  55.0653873  89.5741617  73.7673990  55.2073046  90.7601667  74.6975252
  51.9853703  87.3762978  69.6690173  52.9145763  87.5274138  69.4959140
  51.5644733  87.4646999  68.8138820  50.7842035  91.4013642  67.4388711
  50.6453120  91.0332427  68.3114649  49.9956631  91.9161282  67.2672668
  51.3790187  96.5022739  58.7814247  51.5541942  96.0310782  59.5959870
  50.6922975  97.1288505  59.0095508  52.3347250  90.7795245  64.8277548
  51.9997082  90.7396015  65.7235198  51.8351195  90.1139961  64.3547959
  46.3091494  86.1862875  70.3530130  46.1711292  85.4543114  70.9541669
  47.2196417  86.0971775  70.0714317  55.2706441  88.1251279  55.1014608
  54.6535612  87.3998108  55.0047661  54.8022930  88.8860640  54.7581682
  48.9373794  85.8982834  69.8413809  49.6473413  85.2576027  69.8000428
  48.8943103  86.1495729  70.7639990  56.9260573  92.8350188  72.7620388
  56.8673119  92.1509408  72.0950971  57.3280091  93.5769178  72.3101014
  47.6502728  82.8848052  71.6609449  47.1140085  82.4338791  72.3131045
  47.0619437  83.0193961  70.9179913  45.9451272  99.6512102  65.5554107
  46.1847870 100.2830626  66.2333126  45.1020468  99.3000142  65.8419467
  47.0604987  82.3436704  54.2235912  46.1834454  82.2225505  53.8598159
  47.5362740  81.5522782  53.9714801  56.9277980  90.7989772  70.9934368
  56.0404759  90.4615694  71.1160767  57.4976531  90.0672803  71.2303134
  38.5807127  87.1313863  64.3177420  39.2678167  86.8175594  63.7298435
  38.4255256  88.0355228  64.0444671  43.3841850  82.0204060  68.7462443
  43.3000038  81.4129730  68.0112853  42.5624556  82.5113078  68.7471940
  50.4579134  95.4591224  67.9595611  50.3849305  96.2646196  68.4714916
  50.0156527  95.6583190  67.1343633  50.2468913  94.6962994  61.4698433
  49.4636435  95.2384674  61.5636657  50.9461659  95.2136974  61.8692674
  53.5565563  80.5057624  64.1132638  54.0534263  79.7527586  63.7933709
  52.7852545  80.5421940  63.5475848  61.4095321  86.2097989  65.7550930
  61.3985197  87.0922705  65.3844863  60.5412700  85.8569540  65.5605467
  52.9177817  95.3578058  70.1153770  53.6305789  95.9925523  70.0429671
  52.4267846  95.4541924  69.2993772  54.6395344  89.2629311  61.6871062
  53.7051623  89.3830773  61.5175766  54.8172013  88.3601778  61.4231072
  50.1400532  82.6475007  63.8404323  49.7698320  82.0946047  64.5285228
  50.6359625  82.0433140  63.2879323  58.0267896  85.1046630  62.2221096
  58.4928348  85.9374622  62.1481398  58.4775396  84.6391612  62.9266354
  47.9689731  93.1072502  70.9359341  48.6699190  93.7408985  71.0888735
  47.4984846  93.4487233  70.1754980  56.0944127  91.4490451  59.2207248
  56.3703971  91.3347046  60.1301122  55.2248625  91.0507936  59.1819421
  55.9984558  77.4727217  66.2611997  55.0847638  77.7031444  66.4294204
  56.4277660  77.5565661  67.1126030  55.7691017  85.6617109  68.7611891
  55.1162467  85.9093016  68.1064344  56.1471397  84.8481247  68.4274368
  52.7298191  95.6976802  62.8640061  52.9120585  94.8798458  63.3267814
  53.5531177  95.9144494  62.4264951  53.0640356  94.6244987  60.1255110
  53.5928123  94.1137442  59.5125272  53.3268576  94.3087518  60.9900643
  51.8178590  86.4036920  75.2477928  51.1419227  86.3031049  75.9180303
  52.6406224  86.2476134  75.7113925  43.5657449  92.6408857  67.8690444
  44.1510886  91.8952545  68.0018348  43.3682287  92.9512813  68.7527107
  46.4196104  95.6760104  62.8852886  45.7506479  96.1606232  62.4016926
  46.2808974  95.9229324  63.7996264  38.1575104  85.2114457  66.5894887
  38.1959203  84.6778048  67.3832005  37.6515396  84.6849662  65.9705864
  50.5601373  97.7103848  69.4835544  51.1119681  97.8735469  70.2484629
  50.9007566  98.3008285  68.8115569  45.5365866  80.0578997  70.0857429
  45.6007192  80.9193828  69.6734827  45.4732986  79.4452999  69.3529787
  45.0118138  82.1302130  73.7330463  45.6390177  81.7479207  74.3467988
  44.1546057  81.9116332  74.0986156  55.4112247  92.5365105  75.3384199
  55.9552151  93.1495063  74.8439153  54.8299092  93.0944683  75.8551212
  41.7883681  83.9378559  59.6648818  42.0837122  83.0289237  59.6115872
  40.8871717  83.9166298  59.3429820  53.6969760  95.6585823  66.4699226
  53.5720899  94.8575563  65.9610172  54.3548851  96.1532016  65.9813196
  45.3177928  82.0134556  65.6476367  44.5964514  82.6270523  65.5083840
  46.1071184  82.5492320  65.5693013  55.7604668  93.4594843  68.0978777
  54.8135004  93.3400194  68.0257103  56.1087441  92.5717341  68.1805038
  48.1204242  79.3488982  71.9217018  48.6438644  79.5951279  72.6843328
  47.9016575  80.1809017  71.5020156  43.5171523  81.6192657  59.7888143
  43.1884229  80.7390036  59.6063249  43.8710893  81.5640325  60.6764532
  52.7651102  93.2547559  64.2983129  52.6176064  92.3264267  64.4790699
  53.5904595  93.2767650  63.8140204  46.6313346  81.9065626  60.1563621
  46.9709418  82.4351548  59.4342229  47.0785466  82.2446033  60.9322187
  56.3685223  94.0776118  65.3848001  57.2931771  93.8718979  65.2472453
  56.2000527  93.8292519  66.2937343  49.3256787  80.2902677  69.6066689
  48.9853607  79.4910490  70.0087369  48.6195793  80.5904388  69.0343522
  49.9773259  77.3751990  68.0594012  50.7999328  76.9012468  67.9372902
  50.2211322  78.1542473  68.5592698  48.6181493  80.4040248  58.3556914
  49.3389856  80.7821501  57.8520630  47.9946797  81.1229125  58.4591892
  52.7612616  81.1085397  59.2915246  52.9776230  81.9910035  58.9904074
  52.2806683  80.7171610  58.5620888  47.5011837  84.0671110  65.8685991
  47.3556418  84.3811413  66.7610272  47.0237041  84.6856011  65.3156889
  49.3608220  81.0573658  65.9166880  49.3469789  80.1614752  65.5799178
  50.0780648  81.0644322  66.5505166  51.2134351  81.4910998  67.9620008
  50.9552129  82.4128069  67.9604338  50.6819391  81.0941433  68.6520472
  41.9757499  86.6076455  68.8073652  41.4310968  87.3836263  68.9393926
  42.8536849  86.9547259  68.6492773  48.7645116  79.9388038  61.1854450
  48.8861027  79.0104685  61.3845338  48.4747159  79.9526724  60.2732766
  51.6336307  77.6242949  64.3221170  51.6558003  77.6882282  63.3673150
  52.0504366  76.7847458  64.5161676  42.7623521  85.7346351  71.7003809
  42.0205257  85.8828986  72.2868439  42.4416266  85.9954617  70.8370558
  50.7067184  95.2762329  71.4984199  51.0154310  95.0311476  72.3706898
  51.5042666  95.4808968  71.0103069  50.7287796  97.4300239  63.7289575
  50.2892786  96.9376617  64.4222432  51.4795913  96.8873206  63.4881650
  43.2080135  93.6211780  63.7314203  44.0338155  93.3215551  63.3512847
  42.8574187  92.8519402  64.1803992  48.1761668  92.9738248  65.8011877
  47.5541677  92.3108953  65.5014105  48.8466535  92.9999380  65.1185525
  41.4088740  91.5398106  64.6903137  40.5720648  91.1120280  64.5087138
  41.3812385  91.7330549  65.6273928  48.2486196  81.4520036  75.3944383
  48.2974351  82.3282159  75.0122152  48.7908710  80.9097429  74.8216026
  58.7341041  91.9961159  74.6745520  57.9436585  91.9785298  74.1350019
  58.4974396  92.5349453  75.4294557  58.8538916  88.8453625  71.9878248
  58.9036921  88.6803633  72.9293771  58.7452840  87.9780885  71.5976129
  47.7375175  91.5242171  59.2770337  47.8863295  92.2077636  58.6237010
  48.5441619  91.5047261  59.7919793  56.1442679  84.8284554  73.3037555
  57.0452542  84.6891018  73.0121553  56.2190653  84.9939008  74.2435733
  50.4785484  82.2051408  72.1490742  49.6088794  82.4984974  71.8773330
  50.7144964  82.7891853  72.8698005  61.5552796  88.8303447  64.7522840
  62.3899687  89.2693251  64.9160401  61.6911924  88.3542100  63.9331086
  58.6044301  86.3883182  70.7000328  59.0798423  86.5810828  69.8919179
  57.6809867  86.4442367  70.4543712  45.4927808  87.5507349  60.2831406
  45.2473850  86.6469679  60.4811616  45.6623723  87.5524499  59.3410884
  53.1824518  78.4231025  69.6656162  53.7006462  79.1592052  69.3402650
  52.8279651  78.7295018  70.5002921  44.7623456  83.2835706  57.7817568
  44.0692701  83.3580061  57.1257604  44.5175208  82.5196050  58.3039085
  53.4337112  74.8431308  65.1857059  53.7138866  74.1754497  65.8117485
  54.2187719  75.0360403  64.6731722  51.2370581  94.0190302  56.7482085
  50.6644548  94.6380489  56.2952557  51.8103374  94.5689663  57.2822007
  57.3045970  83.2648942  68.9328634  58.2563393  83.3647039  68.9540858
  57.1349421  82.4727210  69.4426718  55.3260350  80.3504525  69.1188035
  54.7310282  80.6309538  68.4234523  55.0410047  80.8398426  69.8904776
  54.4567840  94.3027452  57.8790667  55.3898514  94.2373013  58.0823543
  54.3691053  95.1383719  57.4205200  59.7834048  86.4855061  68.0470933
  59.7510368  85.5471062  68.2330617  60.3934672  86.5639098  67.3136758
  51.6217379  85.3551114  54.0898137  52.5676484  85.2257322  54.1586555
  51.2431624  84.6165776  54.5667565  59.9328537  83.2766105  68.0929216
  59.4167585  82.4924561  67.9059145  60.8168485  82.9484821  68.2575736
  57.5939264  77.0207120  64.0525029  57.3964085  76.7122209  64.9368361
  58.2038969  77.7468759  64.1822959  51.5056072  89.4068861  75.5498794
  52.4259081  89.5847460  75.7438841  51.4705655  88.4624906  75.3978494
  49.8060296  83.2801091  54.0253023  48.8991752  82.9834203  54.1015736
  50.0836277  82.9830909  53.1587309  40.7238237  84.6007454  64.4752069
  40.4041021  83.7472762  64.1826443  40.1771665  84.8156032  65.2310036
  44.5018144  87.3169895  68.1921575  44.7204154  88.2487003  68.2109609
  44.9143918  86.9577870  68.9776379  51.4222362  77.8237980  60.1797264
  50.6123090  77.4785065  60.5552510  52.1106779  77.5145524  60.7684875
  53.3512910  76.9016027  61.8021560  53.9043949  77.3211481  62.4611584
  53.5882997  75.9751775  61.8444516  49.3746010  82.8903101  77.5824324
  49.2742736  83.8397458  77.5136415  49.1567552  82.5621340  76.7100394
  48.5759081  80.1388026  54.1665002  49.4378245  80.4642924  54.4260819
  48.7609425  79.3519522  53.6538068  40.5926497  88.2210366  66.4445191
  39.8989968  87.8064318  65.9315145  41.3399488  88.2630902  65.8478609
  56.7291717  79.0116552  61.3100225  56.1490386  79.6701356  60.9278277
  56.4627650  78.1893897  60.8987642  55.1795284  78.4121610  63.5121545
  55.6795062  78.5238145  62.7035864  55.8230892  78.1082663  64.1522353
  49.2377280  86.3200240  76.3989386  48.7544361  87.1200600  76.6053275
  49.3238219  86.3308185  75.4456830  42.5063239  88.1528619  64.3211205
  42.4833927  88.2516307  63.3693088  42.8163876  88.9993770  64.6428372
  45.1650617  90.2104774  68.4357820  46.1193871  90.1788717  68.3687751
  44.9663141  89.7495398  69.2508046  45.7549999  88.7805891  71.0028617
  46.5742888  89.2749969  71.0263455  46.0286807  87.8637859  70.9746185
  55.5116595  81.1716643  60.3656573  54.6242450  81.4566293  60.1476768
  55.9270584  81.0110406  59.5183850  58.8631132  81.1963164  64.0810912
  59.6391522  81.6859616  64.3535529  58.1379266  81.6221218  64.5382782
  61.3003690  81.9090783  65.1384853  61.8948181  81.6686519  64.4278161
  61.3730274  81.1897914  65.7658389  43.5200846  95.7524394  65.4528018
  43.3855314  94.9924795  64.8866016  43.1032908  96.4765294  64.9856807
  54.6559809  90.9361317  54.4604593  55.3595659  91.1411320  55.0762249
  53.9322458  91.5038079  54.7253676  55.4857619  86.6871179  60.5806863
  55.4292821  87.1439730  59.7414496  56.0385962  85.9261863  60.4029706
  59.2962425  82.4760911  61.4056983  59.0399359  82.0757546  62.2365190
  58.6715293  83.1904705  61.2807122  46.6769972  96.6493711  65.6646460
  46.5602356  97.5939143  65.5625151  45.8562418  96.3467273  66.0532260
  56.5646506  91.3743847  56.5103053  57.3992110  90.9425045  56.3280528
  56.4030849  91.2025860  57.4379948  56.2192398  87.8775960  57.8759392
  56.1641202  87.7120231  56.9347836  55.5938454  88.5851993  58.0321582
  41.0084913  83.1144024  71.7020815  41.6543777  82.6042978  72.1908040
  40.8002065  83.8512706  72.2764240  53.5338306  90.1824872  77.2012955
  54.4029465  90.3565524  76.8399590  53.0545057  91.0019289  77.0788684
  49.5288524  77.3784069  57.4544711  49.5167194  78.3225909  57.6112982
  50.4211946  77.1954214  57.1604172  47.7024486  97.3021973  68.8802389
  48.6051733  97.3345583  69.1968884  47.4761856  96.3722424  68.8948725
  49.4578088  96.0552959  65.5412467  48.5073719  96.0554821  65.4276840
  49.7610574  95.3085694  65.0248502  53.3440643  73.9726846  61.7090648
  52.5773039  73.4185332  61.8547330  53.7551348  74.0448714  62.5704799
  45.3482404  80.2611641  75.7995829  46.2113866  79.9048446  76.0099153
  44.7747815  79.9225536  76.4871233  63.4406862 107.3647370  57.8431110
  62.7894842 107.9501450  57.4565124  64.2351225 107.8953565  57.9026148
  59.2047532 105.7812889  71.4485144  58.9137398 106.6858520  71.3331810
  59.8404516 105.8229417  72.1629214  59.1458197 112.2318625  61.4105905
  59.0682226 113.1826450  61.4894386  58.5419840 111.8864498  62.0680832
  59.8921799 102.2131944  73.6285239  60.6336483 102.7516988  73.3520063
  59.1858784 102.8398233  73.7856791  52.2065838  99.2873879  67.7881464
  52.4573876 100.1720889  68.0539040  52.7425386  99.1078480  67.0156556
  61.4196566 107.5900778  60.1311445  61.2842240 108.4352314  60.5596293
  61.9606378 107.7920056  59.3677379  57.9063905  93.6692358  76.7925800
  57.5130851  93.1158557  77.4673445  58.7230046  93.9802937  77.1832318
  54.8725963 105.1076216  60.7039370  55.3850484 105.9019467  60.8544935
  55.5248676 104.4102507  60.6372972  56.6820848 108.2241973  62.7862123
  56.8587476 109.1459937  62.5983107  57.4777681 107.9100392  63.2156503
  55.9673204 100.2706604  72.6624287  55.8526719  99.3691862  72.9631385
  55.1117722 100.5170301  72.3109103  63.0465042 108.2124345  74.2611787
  62.6028896 107.4260723  73.9432692  63.7082256 108.4003495  73.5955678
  57.8052163 109.7420146  68.7872466  58.3559588 109.6137210  68.0149460
  56.9663639 110.0415035  68.4367358  61.6019334 106.0071274  73.1316697
  62.1347671 105.2459562  72.9016005  61.0733415 105.7144926  73.8740851
  52.8374880 103.4364871  61.4798941  53.6750102 103.8461879  61.2632648
  53.0153147 102.4964313  61.4499135  52.8601051 100.7755586  62.1509674
  52.6625451 100.1824947  61.4260741  52.3047715 100.4707796  62.8685613
  60.9298712 109.2813509  63.9628911  60.8874891 109.5074355  63.0337443
  61.8461411 109.0476884  64.1114712  55.3547277 100.3019620  59.8350626
  54.4244865 100.2404075  60.0520588  55.4504749  99.7795573  59.0387268
  56.7457751  98.2412190  69.5927692  57.4180804  98.0329552  68.9440341
  55.9187537  98.0434276  69.1532925  57.1485248 101.5154793  70.3530130
  57.0105046 100.7835032  70.9541669  58.0590172 101.4263693  70.0714317
  56.7845026 114.9804019  65.5554107  57.0241625 115.6122543  66.2333126
  55.9414223 114.6292059  65.8419467  49.4200882 102.4605781  64.3177420
  50.1071922 102.1467511  63.7298435  49.2649011 103.3647146  64.0444671
  54.2235604  97.3495978  68.7462443  54.1393793  96.7421647  68.0112853
  53.4018311  97.8404996  68.7471940  61.0862668 110.0254912  61.4698433
  60.3030190 110.5676592  61.5636657  61.7855413 110.5428891  61.8692674
  58.8083485 108.4364419  70.9359341  59.5092945 109.0700902  71.0888735
  58.3378600 108.7779151  70.1754980  63.9034111 109.9536905  60.1255110
  64.4321877 109.4429360  59.5125272  64.1662330 109.6379435  60.9900643
  54.4051203 107.9700774  67.8690444  54.9904640 107.2244462  68.0018348
  54.2076042 108.2804731  68.7527107  57.2589859 111.0052022  62.8852886
  56.5900234 111.4898149  62.4016926  57.1202728 111.2521242  63.7996264
  48.9968858 100.5406375  66.5894887  49.0352958 100.0069965  67.3832005
  48.4909151 100.0141580  65.9705864  61.3995127 113.0395765  69.4835544
  61.9513435 113.2027387  70.2484629  61.7401321 113.6300203  68.8115569
  56.3759620  95.3870915  70.0857429  56.4400947  96.2485746  69.6734827
  56.3126741  94.7744917  69.3529787  52.6277436  99.2670477  59.6648818
  52.9230877  98.3581155  59.6115872  51.7265471  99.2458216  59.3429820
  54.3565277  96.9484574  59.7888143  54.0277983  96.0681953  59.6063249
  54.7104648  96.8932243  60.6764532  60.1650541  95.6194595  69.6066689
  59.8247362  94.8202408  70.0087369  59.4589547  95.9196306  69.0343522
  60.8167013  92.7043907  68.0594012  61.6393082  92.2304385  67.9372902
  61.0605077  93.4834391  68.5592698  52.8151254 101.9368372  68.8073652
  52.2704722 102.7128180  68.9393926  53.6930604 102.2839177  68.6492773
  53.6017276 101.0638269  71.7003809  52.8599012 101.2120904  72.2868439
  53.2810020 101.3246534  70.8370558  61.5460938 110.6054247  71.4984199
  61.8548065 110.3603394  72.3706898  62.3436420 110.8100885  71.0103069
  61.5681551 112.7592156  63.7289575  61.1286541 112.2668535  64.4222432
  62.3189667 112.2165124  63.4881650  54.0473890 108.9503697  63.7314203
  54.8731909 108.6507469  63.3512847  53.6967941 108.1811320  64.1803992
  59.0155423 108.3030166  65.8011877  58.3935432 107.6400871  65.5014105
  59.6860290 108.3291297  65.1185525  52.2482495 106.8690024  64.6903137
  51.4114403 106.4412198  64.5087138  52.2206140 107.0622467  65.6273928
  58.5768930 106.8534089  59.2770337  58.7257050 107.5369553  58.6237010
  59.3835373 106.8339179  59.7919793  56.3321563 102.8799266  60.2831406
  56.0867605 101.9761596  60.4811616  56.5017477 102.8816417  59.3410884
  55.6017210  98.6127624  57.7817568  54.9086455  98.6871979  57.1257604
  55.3568962  97.8487968  58.3039085  64.2730867  90.1723225  65.1857059
  64.5532620  89.5046414  65.8117485  65.0581474  90.3652321  64.6731722
  62.0764335 109.3482219  56.7482085  61.5038302 109.9672406  56.2952557
  62.6497129 109.8981581  57.2822007  62.3449826 104.7360778  75.5498794
  63.2652836 104.9139377  75.7438841  62.3099409 103.7916824  75.3978494
  51.5631991  99.9299372  64.4752069  51.2434775  99.0764680  64.1826443
  51.0165419 100.1447950  65.2310036  55.3411899 102.6461813  68.1921575
  55.5597908 103.5778921  68.2109609  55.7537673 102.2869787  68.9776379
  51.4320251 103.5502283  66.4445191  50.7383723 103.1356236  65.9315145
  52.1793242 103.5922820  65.8478609  60.0771034 101.6492157  76.3989386
  59.5938116 102.4492518  76.6053275  60.1631973 101.6600102  75.4456830
  56.0044372 105.5396692  68.4357820  56.9587625 105.5080634  68.3687751
  55.8056895 105.0787316  69.2508046  56.5943754 104.1097808  71.0028617
  57.4136643 104.6041887  71.0263455  56.8680561 103.1929776  70.9746185
  54.3594600 111.0816312  65.4528018  54.2249068 110.3216713  64.8866016
  53.9426663 111.8057212  64.9856807  57.5163726 111.9785629  65.6646460
  57.3996110 112.9231061  65.5625151  56.6956172 111.6759190  66.0532260
  51.8478668  98.4435942  71.7020815  52.4937532  97.9334896  72.1908040
  51.6395819  99.1804624  72.2764240  58.5418240 112.6313891  68.8802389
  59.4445487 112.6637501  69.1968884  58.3155610 111.7014342  68.8948725
  60.2971842 111.3844877  65.5412467  59.3467473 111.3846739  65.4276840
  60.6004329 110.6377612  65.0248502  56.1876159  95.5903559  75.7995829
  57.0507620  95.2340364  76.0099153  55.6141570  95.2517454  76.4871233
  68.7001058 119.0268320  62.5316645  68.1365923 118.9358257  61.7632933
  68.5853453 118.2068224  63.0119138  73.3234025 118.3267695  72.5005960
  73.3122666 117.9320494  71.6286464  73.4854665 117.5933768  73.0939731
  66.2465490 120.5219512  65.3700866  67.0386782 120.1810336  64.9547165
  66.4862140 120.6314487  66.2903019  74.2800617 122.6939288  57.8431110
  73.6288596 123.2793368  57.4565124  75.0744979 123.2245483  57.9026148
  68.2056244 119.7828425  58.2418245  68.9787120 119.2357412  58.1031120
  68.5581643 120.6472674  58.4532706  70.0441286 121.1104807  71.4485144
  69.7531152 122.0150438  71.3331810  70.6798271 121.1521335  72.1629214
  70.9697493 118.4881656  68.0386504  71.5661065 118.2637678  67.3243467
  71.0272465 117.7466401  68.6411951  75.7575882 120.3829720  58.3800095
  75.1221715 120.4564346  59.0920999  75.4273288 120.9723318  57.7019174
  75.0031171 120.7966223  68.4434938  74.7031894 121.6991261  68.3350745
  74.6582231 120.5298406  69.2956091  69.9851951 127.5610543  61.4105905
  69.9075981 128.5118368  61.4894386  69.3813595 127.2156415  62.0680832
  72.4769181 114.7338408  74.0667272  71.7002515 115.2932329  74.0570137
  73.1159744 115.2195191  74.5882142  70.7315553 117.5423862  73.6285239
  71.4730238 118.0808906  73.3520063  70.0252539 118.1690151  73.7856791
  72.5601963 114.6225609  69.5990958  73.4063158 115.0465023  69.7425607
  72.5000601 113.9659233  70.2929521  76.5299708 120.2454193  65.9809690
  75.9008570 120.4099907  65.2785757  76.1425370 120.6595802  66.7520654
  80.4088939 121.1808631  63.3354053  79.7239978 121.5607532  62.7851087
  80.4932789 121.7903957  64.0686001  75.7101408 112.2829977  71.2572131
  75.4662340 113.0372038  70.7206407  75.9861339 112.6615325  72.0919378
  77.6639871 118.8268590  69.9349397  77.8756766 119.4700350  69.2583778
  77.6169619 117.9930906  69.4671327  72.0827669 119.9828601  63.2459775
  72.5466015 120.2616304  62.4564397  71.8184467 119.0812046  63.0632865
  68.9751750 119.5300082  66.1839538  69.5453108 119.9587351  65.5457022
  69.5659862 119.2482667  66.8823724  69.4676917 114.6963510  74.4300549
  68.8375578 115.3779791  74.6635946  69.3613005 114.5846592  73.4853688
  78.7785699 121.7040545  68.1071754  79.6003143 121.3020732  67.8254436
  78.7748102 121.6008779  69.0587870  72.5442302 121.2524588  70.2632465
  72.6086735 121.7144996  71.0990637  71.8353226 120.6221953  70.3914775
  63.0459592 114.6165796  67.7881464  63.2967631 115.5012806  68.0539040
  63.5819141 114.4370398  67.0156556  72.2590320 122.9192696  60.1311445
  72.1235995 123.7644232  60.5596293  72.8000133 123.1211974  59.3677379
  67.5214602 123.5533890  62.7862123  67.6981230 124.4751855  62.5983107
  68.3171436 123.2392309  63.2156503  71.6625621 110.4142155  74.3846057
  72.4035334 111.0149308  74.3050519  71.8943544 109.6719793  73.8264099
  66.8066959 115.5998522  72.6624287  66.6920474 114.6983779  72.9631385
  65.9511476 115.8462219  72.3109103  68.6445918 125.0712064  68.7872466
  69.1953343 124.9429127  68.0149460  67.8057394 125.3706953  68.4367358
  75.9840035 123.8219062  72.2893188  75.9658510 124.6427943  71.7973458
  76.9059955 123.6973138  72.5143330  72.4413089 121.3363192  73.1316697
  72.9741425 120.5751480  72.9016005  71.9127170 121.0436844  73.8740851
  80.5467340 119.1864224  59.1035947  79.7696783 118.8475383  58.6591109
  81.2258821 119.1916847  58.4290912  73.8065801 120.4649184  60.6435509
  73.2787163 119.7301944  60.3308746  73.3053304 121.2423861  60.3975477
  71.9518402 118.2829395  53.6470482  71.0445463 118.0518648  53.8461631
  72.4489434 117.4867014  53.8344463  74.8586480 126.9926902  56.5667168
  74.1848179 127.2958599  57.1752126  75.2452302 127.7955982  56.2172625
  78.3625902 121.9948579  61.9385640  77.9088229 121.1539489  61.9950830
  77.7319869 122.6309977  62.2760420  76.8058842 123.8325076  62.8735458
  77.0981816 124.3930133  62.1547823  77.3157462 124.1253637  63.6288617
  72.8282723 119.9250733  55.5082551  72.3902153 119.2086592  55.0488188
  73.5693164 120.1526848  54.9467642  71.7692467 124.6105427  63.9628911
  71.7268646 124.8366273  63.0337443  72.6855166 124.3768801  64.1114712
  75.2158101 115.0789494  70.8609540  75.5707488 115.3060967  71.7204006
  75.8630232 115.4107871  70.2386795  80.9725217 120.2684457  66.5770141
  81.4061724 120.1759746  67.4253195  81.6856798 120.2441958  65.9390157
  69.8858268 121.4868456  63.7590874  70.6798866 120.9918776  63.5573449
  69.1749960 120.9586319  63.3958579  74.7053112 123.8686551  68.1103241
  74.7590134 124.4377488  68.8780957  73.8367893 124.0388436  67.7457278
  67.5851505 113.5704108  69.5927692  68.2574559 113.3621470  68.9440341
  66.7581292 113.3726194  69.1532925  73.6641212 118.0346813  69.6690173
  74.5933272 118.1857973  69.4959140  73.2432242 118.1230834  68.8138820
  72.4629544 122.0597478  67.4388711  72.3240629 121.6916262  68.3114649
  71.6744140 122.5745117  67.2672668  73.0577696 127.1606574  58.7814247
  73.2329451 126.6894617  59.5959870  72.3710484 127.7872340  59.0095508
  74.0134759 121.4379080  64.8277548  73.6784591 121.3979850  65.7235198
  73.5138704 120.7723796  64.3547959  67.9879003 116.8446710  70.3530130
  67.8498801 116.1126949  70.9541669  68.8983926 116.7555611  70.0714317
  76.9493950 118.7835115  55.1014608  76.3323121 118.0581943  55.0047661
  76.4810439 119.5444475  54.7581682  70.6161303 116.5566670  69.8413809
  71.3260922 115.9159862  69.8000428  70.5730612 116.8079565  70.7639990
  69.3290237 113.5431888  71.6609449  68.7927594 113.0922626  72.3131045
  68.7406946 113.6777797  70.9179913  67.6238781 130.3095937  65.5554107
  67.8635379 130.9414461  66.2333126  66.7807977 129.9583977  65.8419467
  60.2594636 117.7897699  64.3177420  60.9465676 117.4759429  63.7298435
  60.1042765 118.6939063  64.0444671  65.0629359 112.6787895  68.7462443
  64.9787547 112.0713565  68.0112853  64.2412065 113.1696914  68.7471940
  72.1366643 126.1175059  67.9595611  72.0636814 126.9230031  68.4714916
  71.6944036 126.3167025  67.1343633  71.9256422 125.3546829  61.4698433
  71.1423944 125.8968510  61.5636657  72.6249168 125.8720809  61.8692674
  74.5965326 126.0161893  70.1153770  75.3093298 126.6509358  70.0429671
  74.1055355 126.1125759  69.2993772  76.3182853 119.9213146  61.6871062
  75.3839132 120.0414609  61.5175766  76.4959522 119.0185613  61.4231072
  69.6477240 123.7656337  70.9359341  70.3486699 124.3992820  71.0888735
  69.1772355 124.1071068  70.1754980  77.7731636 122.1074287  59.2207248
  78.0491480 121.9930881  60.1301122  76.9036134 121.7091772  59.1819421
  74.4085700 126.3560638  62.8640061  74.5908094 125.5382293  63.3267814
  75.2318686 126.5728330  62.4264951  74.7427865 125.2828823  60.1255110
  75.2715632 124.7721277  59.5125272  75.0056085 124.9671353  60.9900643
  73.4966099 117.0620755  75.2477928  72.8206736 116.9614885  75.9180303
  74.3193733 116.9059969  75.7113925  65.2444958 123.2992692  67.8690444
  65.8298395 122.5536380  68.0018348  65.0469796 123.6096649  68.7527107
  68.0983613 126.3343939  62.8852886  67.4293988 126.8190067  62.4016926
  67.9596483 126.5813160  63.7996264  59.8362613 115.8698292  66.5894887
  59.8746712 115.3361883  67.3832005  59.3302905 115.3433498  65.9705864
  72.2388882 128.3687683  69.4835544  72.7907190 128.5319304  70.2484629
  72.5795075 128.9592121  68.8115569  67.2153375 110.7162833  70.0857429
  67.2794701 111.5777664  69.6734827  67.1520495 110.1036834  69.3529787
  66.6905647 112.7885965  73.7330463  67.3177686 112.4063043  74.3467988
  65.8333566 112.5700167  74.0986156  75.3757269 126.3169658  66.4699226
  75.2508408 125.5159398  65.9610172  76.0336360 126.8115852  65.9813196
  77.4392177 124.1178678  68.0978777  76.4922513 123.9984030  68.0257103
  77.7874950 123.2301177  68.1805038  74.4438611 123.9131395  64.2983129
  74.2963573 122.9848102  64.4790699  75.2692104 123.9351485  63.8140204
  78.0472732 124.7359953  65.3848001  78.9719280 124.5302815  65.2472453
  77.8788036 124.4876355  66.2937343  77.8368049 125.2545621  60.7410093
  78.0104926 124.6892043  59.9883945  78.3296940 126.0546516  60.5589583
  63.6545008 117.2660290  68.8073652  63.1098477 118.0420098  68.9393926
  64.5324358 117.6131094  68.6492773  78.8243221 124.5712385  57.8406991
  79.5194126 125.1919078  58.0594306  79.1666371 123.7207737  58.1159369
  64.4411030 116.3930186  71.7003809  63.6992766 116.5412822  72.2868439
  64.1203775 116.6538452  70.8370558  80.7234644 122.0212091  59.3694322
  81.2485968 122.3599364  58.6443642  80.6356997 121.0859106  59.1857457
  72.3854693 125.9346164  71.4984199  72.6941819 125.6895311  72.3706898
  73.1830175 126.1392803  71.0103069  72.4075305 128.0884074  63.7289575
  71.9680295 127.5960453  64.4222432  73.1583422 127.5457042  63.4881650
  64.8867644 124.2795615  63.7314203  65.7125664 123.9799387  63.3512847
  64.5361696 123.5103237  64.1803992  69.8549177 123.6322083  65.8011877
  69.2329186 122.9692788  65.5014105  70.5254044 123.6583215  65.1185525
  63.0876249 122.1981941  64.6903137  62.2508157 121.7704116  64.5087138
  63.0599894 122.3914385  65.6273928  69.9273705 112.1103871  75.3944383
  69.9761860 112.9865994  75.0122152  70.4696219 111.5681264  74.8216026
  69.4162684 122.1826007  59.2770337  69.5650804 122.8661471  58.6237010
  70.2229128 122.1631097  59.7919793  72.1572993 112.8635244  72.1490742
  71.2876303 113.1568810  71.8773330  72.3932473 113.4475689  72.8698005
  83.2340305 119.4887282  64.7522840  84.0687196 119.9277086  64.9160401
  83.3699433 119.0125935  63.9331086  72.9158090 124.6774137  56.7482085
  72.3432057 125.2964324  56.2952557  73.4890883 125.2273499  57.2822007
  78.9833479 113.9232777  68.9328634  79.9350902 114.0230875  68.9540858
  78.8136930 113.1311046  69.4426718  76.1355349 124.9611287  57.8790667
  77.0686023 124.8956849  58.0823543  76.0478562 125.7967554  57.4205200
  78.7643366 124.2777157  54.8394615  78.6856998 123.9437021  55.7330373
  79.5853033 124.7698925  54.8386087  81.4621557 117.1438897  68.0470933
  81.4297877 116.2054897  68.2330617  82.0722181 117.2222933  67.3136758
  73.3004888 116.0134950  54.0898137  74.2463993 115.8841158  54.1586555
  72.9219133 115.2749612  54.5667565  62.4025746 115.2591290  64.4752069
  62.0828530 114.4056598  64.1826443  61.8559174 115.4739868  65.2310036
  66.1805653 117.9753731  68.1921575  66.3991663 118.9070838  68.2109609
  66.5931427 117.6161705  68.9776379  62.2714006 118.8794201  66.4445191
  61.5777477 118.4648154  65.9315145  63.0186997 118.9214738  65.8478609
  70.9164789 116.9784075  76.3989386  70.4331870 117.7784435  76.6053275
  71.0025728 116.9892020  75.4456830  64.1850748 118.8112455  64.3211205
  64.1621436 118.9100142  63.3693088  64.4951385 119.6577606  64.6428372
  66.8438126 120.8688610  68.4357820  67.7981380 120.8372552  68.3687751
  66.6450650 120.4079234  69.2508046  67.4337508 119.4389726  71.0028617
  68.2530397 119.9333805  71.0263455  67.7074316 118.5221694  70.9746185
  65.1988355 126.4108229  65.4528018  65.0642823 125.6508630  64.8866016
  64.7820417 127.1349129  64.9856807  76.3347318 121.5945153  54.4604593
  77.0383168 121.7995155  55.0762249  75.6109967 122.1621915  54.7253676
  68.3557481 127.3077546  65.6646460  68.2389865 128.2522979  65.5625151
  67.5349927 127.0051108  66.0532260  78.2434015 122.0327682  56.5103053
  79.0779619 121.6008881  56.3280528  78.0818358 121.8609696  57.4379948
  77.8979907 118.5359795  57.8759392  77.8428711 118.3704067  56.9347836
  77.2725963 119.2435828  58.0321582  62.6872422 113.7727860  71.7020815
  63.3331286 113.2626814  72.1908040  62.4789574 114.5096541  72.2764240
  69.3811995 127.9605808  68.8802389  70.2839242 127.9929419  69.1968884
  69.1549365 127.0306259  68.8948725  71.1365597 126.7136795  65.5412467
  70.1861228 126.7138656  65.4276840  71.4398083 125.9669529  65.0248502
  67.0269913 110.9195477  75.7995829  67.8901375 110.5632282  76.0099153
  66.4535324 110.5809372  76.4871233  86.8718290 132.5497333  66.6058230
  87.5096700 132.4304081  65.9021570  86.7539133 133.4978177  66.6646182
  83.6807997 132.5024761  66.5419754  83.3426508 132.3865826  65.6540289
  84.5497765 132.1015926  66.5220761  79.5394812 134.3560238  62.5316645
  78.9759677 134.2650175  61.7632933  79.4247207 133.5360142  63.0119138
  84.1627780 133.6559613  72.5005960  84.1516420 133.2612411  71.6286464
  84.3248419 132.9225686  73.0939731  77.0859244 135.8511429  65.3700866
  77.8780536 135.5102254  64.9547165  77.3255894 135.9606404  66.2903019
  85.1194371 138.0231205  57.8431110  84.4682351 138.6085286  57.4565124
  85.9138734 138.5537400  57.9026148  79.0449998 135.1120343  58.2418245
  79.8180874 134.5649330  58.1031120  79.3975397 135.9764592  58.4532706
  80.8835041 136.4396725  71.4485144  80.5924907 137.3442356  71.3331810
  81.5192025 136.4813252  72.1629214  81.8091248 133.8173573  68.0386504
  82.4054820 133.5929596  67.3243467  81.8666219 133.0758319  68.6411951
  81.3816276 131.2713009  55.8736695  81.6341797 130.7494530  55.1120158
  80.4440835 131.1079154  55.9763378  86.4259559 130.2748787  63.6811438
  87.2122648 129.8568210  63.3301855  86.6898263 131.1794879  63.8493086
  86.5969636 135.7121637  58.3800095  85.9615469 135.7856264  59.0920999
  86.2667043 136.3015236  57.7019174  81.1012565 133.1741115  58.0761070
  80.9848823 132.4986018  58.7442154  81.2114825 132.6873489  57.2593223
  83.4444106 132.6351262  61.7807759  83.0802313 132.1081883  62.4920680
  84.3011222 132.2449731  61.6074244  83.0849593 127.6641161  56.7769107
  83.2523995 128.5321398  57.1439578  82.8946762 127.8268443  55.8530397
  85.8424926 136.1258140  68.4434938  85.5425649 137.0283179  68.3350745
  85.4975985 135.8590324  69.2956091  79.2937407 132.5771937  64.4771642
  78.3687904 132.4448151  64.6849334  79.5421821 133.3566156  64.9741584
  83.0638814 130.1198819  57.7615774  82.9438439 130.5655870  58.6001254
  82.3691402 130.4684137  57.2029312  76.6546218 132.2205211  65.3115431
  76.7838600 132.4739690  66.2254843  75.9743670 132.8132919  64.9920086
  80.8245706 142.8902461  61.4105905  80.7469735 143.8410286  61.4894386
  80.2207349 142.5448333  62.0680832  83.3162935 130.0630326  74.0667272
  82.5396269 130.6224246  74.0570137  83.9553498 130.5487109  74.5882142
  88.7623880 130.5920292  58.5896108  89.6741736 130.8247679  58.4143806
  88.2533527 131.1757336  58.0271187  81.5709308 132.8715779  73.6285239
  82.3123992 133.4100823  73.3520063  80.8646293 133.4982068  73.7856791
  87.0464647 135.0144920  72.2257401  87.4548003 134.5727330  71.4812033
  86.3241909 134.4397547  72.4791594  83.3995717 129.9517527  69.5990958
  84.2456913 130.3756940  69.7425607  83.3394355 129.2951151  70.2929521
  87.3693462 135.5746111  65.9809690  86.7402324 135.7391825  65.2785757
  86.9819124 135.9887720  66.7520654  91.2482694 136.5100548  63.3354053
  90.5633732 136.8899450  62.7851087  91.3326543 137.1195875  64.0686001
  86.1059854 126.7678328  66.8385969  85.2444333 127.0659582  67.1302707
  86.1322289 126.9848727  65.9067002  82.9221424 135.3120519  63.2459775
  83.3859769 135.5908222  62.4564397  82.6578222 134.4103963  63.0632865
  79.8145505 134.8592000  66.1839538  80.3846862 135.2879269  65.5457022
  80.4053617 134.5774585  66.8823724  81.8590310 131.4343671  60.0549340
  82.5614353 131.8864715  60.5223266  81.5270938 130.7927490  60.6829233
  80.3070671 130.0255428  74.4300549  79.6769332 130.7071708  74.6635946
  80.2006759 129.9138509  73.4853688  75.6015644 129.6927224  65.3566473
  74.8114698 129.9484752  64.8806584  76.0926891 130.5075562  65.4618514
  89.6179453 137.0332463  68.1071754  90.4396897 136.6312650  67.8254436
  89.6141856 136.9300697  69.0587870  77.5530389 130.0571803  62.3149950
  76.7561553 130.1690497  62.8333446  77.3255981 130.3958455  61.4490841
  83.3836057 136.5816506  70.2632465  83.4480489 137.0436913  71.0990637
  82.6746981 135.9513871  70.3914775  73.8853347 129.9457714  67.7881464
  74.1361385 130.8304724  68.0539040  74.4212895 129.7662316  67.0156556
  83.0984075 138.2484614  60.1311445  82.9629749 139.0936149  60.5596293
  83.6393887 138.4503891  59.3677379  76.5513472 135.7660052  60.7039370
  77.0637993 136.5603302  60.8544935  77.2036185 135.0686342  60.6372972
  78.3608357 138.8825808  62.7862123  78.5374985 139.8043773  62.5983107
  79.1565190 138.5684227  63.2156503  77.6460713 130.9290440  72.6624287
  77.5314228 130.0275697  72.9631385  76.7905231 131.1754137  72.3109103
  84.7252551 138.8708180  74.2611787  84.2816405 138.0844559  73.9432692
  85.3869765 139.0587331  73.5955678  79.4839672 140.4003982  68.7872466
  80.0347097 140.2721045  68.0149460  78.6451148 140.6998871  68.4367358
  86.8233789 139.1510980  72.2893188  86.8052264 139.9719861  71.7973458
  87.7453709 139.0265055  72.5143330  83.2806843 136.6655110  73.1316697
  83.8135180 135.9043398  72.9016005  82.7520924 136.3728761  73.8740851
  86.4476538 121.7715176  68.6610339  86.1040808 122.6616817  68.5849449
  86.8155501 121.5816833  67.7979924  74.5162389 134.0948706  61.4798941
  75.3537611 134.5045714  61.2632648  74.6940656 133.1548148  61.4499135
  86.4126821 131.7623787  57.1682774  85.8973444 132.5328391  57.4071161
  86.1404129 131.0888923  57.7915835  83.9973932 126.6073487  62.2268012
  83.1415528 126.2180338  62.0473651  84.4100884 126.6865448  61.3667798
  85.5273079 124.1419831  66.6259572  85.0237874 124.1049966  65.8127377
  85.8203685 125.0512573  66.6856228  81.7715964 124.2258560  65.6325754
  82.6368961 124.0301369  65.2731643  81.8393473 123.9968912  66.5595110
  91.3861095 134.5156141  59.1035947  90.6090538 134.1767301  58.6591109
  92.0652576 134.5208764  58.4290912  86.2013124 129.6350879  58.9942555
  85.8963260 129.9497028  59.8452698  87.1543566 129.7132299  59.0369888
  84.6459556 135.7941102  60.6435509  84.1180917 135.0593862  60.3308746
  84.1447059 136.5715778  60.3975477  79.3778283 126.4560768  63.0042120
  79.9522035 126.2335950  62.2715313  79.9649266 126.5249463  63.7570722
  88.4357861 132.3434495  63.8106497  88.9489742 132.9764487  64.3128207
  89.0859085 131.7435691  63.4449857  79.7047871 128.4865229  57.0238006
  78.8685183 128.8239916  57.3447280  79.5652640 128.3514209  56.0865143
  81.6800951 123.3302017  61.7317190  81.0265364 123.0151034  61.1073805
  81.6381425 122.7077758  62.4577013  82.7912156 133.6121312  53.6470482
  81.8839218 133.3810566  53.8461631  83.2883188 132.8158932  53.8344463
  85.6980235 142.3218819  56.5667168  85.0241934 142.6250516  57.1752126
  86.0846057 143.1247900  56.2172625  84.9138692 129.8183951  66.0564837
  83.9961253 130.0398898  65.8986525  85.3298835 129.8930261  65.1976545
  85.6973739 131.2175366  61.1867518  86.4445558 131.7296764  60.8774640
  85.9665329 130.8959419  62.0471911  83.9700389 133.7133907  58.1694472
  83.0611609 133.4292940  58.2666942  83.9995473 134.1332986  57.3097779
  89.2019657 137.3240497  61.9385640  88.7481984 136.4831407  61.9950830
  88.5713624 137.9601895  62.2760420  88.1452576 128.2532483  63.1686307
  87.4075333 127.7409869  63.4996550  88.3979350 127.8132864  62.3569584
  87.6452596 139.1616993  62.8735458  87.9375571 139.7222050  62.1547823
  88.1551217 139.4545554  63.6288617  88.2464204 121.0308735  63.7628076
  88.5523081 120.1706098  63.4753991  88.9716809 121.6226355  63.5627070
  74.5388560 131.4339421  62.1509674  74.3412960 130.8408782  61.4260741
  73.9835224 131.1291631  62.8685613  82.5185284 131.3262528  64.2704267
  82.5733893 130.3736364  64.1946744  81.7076486 131.4821967  64.7545566
  83.6676477 135.2542651  55.5082551  83.2295907 134.5378510  55.0488188
  84.4086918 135.4818766  54.9467642  80.4577643 129.9439587  62.0294646
  79.6445509 130.2433758  62.4359838  80.9536638 129.5495276  62.7469128
  82.6086221 139.9397344  63.9628911  82.5662400 140.1658191  63.0337443
  83.5248920 139.7060719  64.1114712  86.0551855 130.4081412  70.8609540
  86.4101243 130.6352885  71.7204006  86.7023986 130.7399789  70.2386795
  91.7849592 133.5299848  61.5658869  91.6467491 133.7201444  60.6380058
  91.4285811 134.2919231  62.0226920  79.9491718 127.5157943  67.6455881
  80.5891098 127.3746702  66.9478844  79.1169249 127.2292456  67.2694483
  80.7252022 136.8160373  63.7590874  81.5192621 136.3210694  63.5573449
  80.0143714 136.2878237  63.3958579  85.5446867 139.1978469  68.1103241
  85.5983889 139.7669405  68.8780957  84.6761648 139.3680354  67.7457278
  77.0334786 130.9603455  59.8350626  76.1032374 130.8987911  60.0520588
  77.1292258 130.4379408  59.0387268  76.9520335 127.4858268  62.4228868
  77.2127152 128.4003601  62.3138028  77.7737507 127.0182711  62.5725481
  78.4245260 128.8996025  69.5927692  79.0968313 128.6913387  68.9440341
  77.5975046 128.7018111  69.1532925  84.5034966 133.3638731  69.6690173
  85.4327026 133.5149891  69.4959140  84.0825996 133.4522752  68.8138820
  83.3023298 137.3889395  67.4388711  83.1634384 137.0208180  68.3114649
  82.5137894 137.9037035  67.2672668  83.8971450 142.4898492  58.7814247
  84.0723206 142.0186535  59.5959870  83.2104238 143.1164258  59.0095508
  84.8528513 136.7670998  64.8277548  84.5178346 136.7271768  65.7235198
  84.3532459 136.1015714  64.3547959  78.8272757 132.1738628  70.3530130
  78.6892555 131.4418867  70.9541669  79.7377681 132.0847528  70.0714317
  87.7887705 134.1127032  55.1014608  87.1716876 133.3873861  55.0047661
  87.3204193 134.8736393  54.7581682  81.4555058 131.8858587  69.8413809
  82.1654676 131.2451780  69.8000428  81.4124366 132.1371482  70.7639990
  89.4441837 138.8225941  72.7620388  89.3854383 138.1385161  72.0950971
  89.8461355 139.5644931  72.3101014  80.1683992 128.8723805  71.6609449
  79.6321349 128.4214544  72.3131045  79.5800700 129.0069714  70.9179913
  78.4632535 145.6387855  65.5554107  78.7029134 146.2706379  66.2333126
  77.6201732 145.2875895  65.8419467  79.5786251 128.3312457  54.2235912
  78.7015717 128.2101258  53.8598159  80.0544004 127.5398535  53.9714801
  71.0988391 133.1189616  64.3177420  71.7859431 132.8051347  63.7298435
  70.9436520 134.0230981  64.0444671  75.9023113 128.0079813  68.7462443
  75.8181302 127.4005483  68.0112853  75.0805819 128.4988831  68.7471940
  82.9760397 141.4466977  67.9595611  82.9030569 142.2521949  68.4714916
  82.5337790 141.6458943  67.1343633  82.7650177 140.6838747  61.4698433
  81.9817699 141.2260427  61.5636657  83.4642922 141.2012727  61.8692674
  86.0746827 126.4933377  64.1132638  86.5715526 125.7403339  63.7933709
  85.3033808 126.5297693  63.5475848  85.4359081 141.3453811  70.1153770
  86.1487053 141.9801276  70.0429671  84.9449109 141.4417677  69.2993772
  87.1576608 135.2505064  61.6871062  86.2232886 135.3706526  61.5175766
  87.3353276 134.3477531  61.4231072  82.6581796 128.6350760  63.8404323
  82.2879583 128.0821800  64.5285228  83.1540888 128.0308893  63.2879323
  90.5449159 131.0922383  62.2221096  91.0109611 131.9250375  62.1481398
  90.9956659 130.6267365  62.9266354  80.4870994 139.0948255  70.9359341
  81.1880454 139.7284738  71.0888735  80.0166109 139.4362986  70.1754980
  88.6125390 137.4366204  59.2207248  88.8885234 137.3222799  60.1301122
  87.7429889 137.0383689  59.1819421  88.5165822 123.4602970  66.2611997
  87.6028902 123.6907197  66.4294204  88.9458923 123.5441414  67.1126030
  85.2479454 141.6852555  62.8640061  85.4301849 140.8674211  63.3267814
  86.0712440 141.9020247  62.4264951  85.5821620 140.6120740  60.1255110
  86.1109386 140.1013195  59.5125272  85.8449839 140.2963271  60.9900643
  76.0838712 138.6284610  67.8690444  76.6692149 137.8828298  68.0018348
  75.8863551 138.9388566  68.7527107  78.9377368 141.6635857  62.8852886
  78.2687743 142.1481985  62.4016926  78.7990237 141.9105077  63.7996264
  70.6756367 131.1990210  66.5894887  70.7140467 130.6653801  67.3832005
  70.1696660 130.6725415  65.9705864  83.0782636 143.6979601  69.4835544
  83.6300944 143.8611222  70.2484629  83.4188830 144.2884038  68.8115569
  78.0547129 126.0454750  70.0857429  78.1188456 126.9069581  69.6734827
  77.9914250 125.4328752  69.3529787  77.5299402 128.1177883  73.7330463
  78.1571441 127.7354960  74.3467988  76.6727321 127.8992085  74.0986156
  87.9293510 138.5240858  75.3384199  88.4733414 139.1370816  74.8439153
  87.3480355 139.0820436  75.8551212  74.3064945 129.9254312  59.6648818
  74.6018386 129.0164990  59.6115872  73.4052980 129.9042051  59.3429820
  86.2151023 141.6461576  66.4699226  86.0902163 140.8451316  65.9610172
  86.8730115 142.1407769  65.9813196  77.8359192 128.0010309  65.6476367
  77.1145777 128.6146276  65.5083840  78.6252447 128.5368073  65.5693013
  88.2785932 139.4470596  68.0978777  87.3316267 139.3275947  68.0257103
  88.6268705 138.5593094  68.1805038  76.0352786 127.6068410  59.7888143
  75.7065492 126.7265789  59.6063249  76.3892157 127.5516078  60.6764532
  85.2832365 139.2423312  64.2983129  85.1357328 138.3140020  64.4790699
  86.1085859 139.2643403  63.8140204  79.1494609 127.8941379  60.1563621
  79.4890682 128.4227301  59.4342229  79.5966730 128.2321786  60.9322187
  88.8866487 140.0651871  65.3848001  89.8113034 139.8594732  65.2472453
  88.7181790 139.8168272  66.2937343  81.8438050 126.2778430  69.6066689
  81.5034871 125.4786243  70.0087369  81.1377056 126.5780141  69.0343522
  82.4954522 123.3627743  68.0594012  83.3180591 122.8888221  67.9372902
  82.7392586 124.1418226  68.5592698  81.1362757 126.3916001  58.3556914
  81.8571119 126.7697254  57.8520630  80.5128061 127.1104878  58.4591892
  85.2793879 127.0961150  59.2915246  85.4957494 127.9785788  58.9904074
  84.7987947 126.7047363  58.5620888  80.0193101 130.0546863  65.8685991
  79.8737682 130.3687166  66.7610272  79.5418304 130.6731764  65.3156889
  81.8789484 127.0449411  65.9166880  81.8651052 126.1490505  65.5799178
  82.5961912 127.0520075  66.5505166  83.7315614 127.4786751  67.9620008
  83.4733392 128.4003822  67.9604338  83.2000655 127.0817186  68.6520472
  88.6761803 140.5837539  60.7410093  88.8498681 140.0183961  59.9883945
  89.1690694 141.3838433  60.5589583  74.4938763 132.5952208  68.8073652
  73.9492231 133.3712016  68.9393926  75.3718113 132.9423012  68.6492773
  81.2826380 125.9263792  61.1854450  81.4042291 124.9980438  61.3845338
  80.9928422 125.9402477  60.2732766  84.1517570 123.6118702  64.3221170
  84.1739267 123.6758035  63.3673150  84.5685629 122.7723211  64.5161676
  94.5301194 133.3473962  62.3600393  94.9732340 132.5981287  61.9619516
  93.6527705 133.3384098  61.9774125  89.6636976 139.9004303  57.8406991
  90.3587880 140.5210996  58.0594306  90.0060126 139.0499654  58.1159369
  75.2804785 131.7222104  71.7003809  74.5386521 131.8704739  72.2868439
  74.9597529 131.9830370  70.8370558  91.5628399 137.3504009  59.3694322
  92.0879723 137.6891281  58.6443642  91.4750751 136.4151024  59.1857457
  83.2248447 141.2638082  71.4984199  83.5335574 141.0187229  72.3706898
  84.0223929 141.4684721  71.0103069  83.2469060 143.4175992  63.7289575
  82.8074050 142.9252370  64.4222432  83.9977176 142.8748959  63.4881650
  75.7261398 139.6087533  63.7314203  76.5519418 139.3091305  63.3512847
  75.3755450 138.8395155  64.1803992  80.6942932 138.9614001  65.8011877
  80.0722941 138.2984706  65.5014105  81.3647799 138.9875133  65.1185525
  73.9270004 137.5273859  64.6903137  73.0901912 137.0996033  64.5087138
  73.8993649 137.7206302  65.6273928  80.2556439 137.5117924  59.2770337
  80.4044559 138.1953389  58.6237010  81.0622882 137.4923014  59.7919793
  78.0109072 133.5383102  60.2831406  77.7655113 132.6345432  60.4811616
  78.1804986 133.5400252  59.3410884  77.2804719 129.2711459  57.7817568
  76.5873964 129.3455814  57.1257604  77.0356471 128.5071803  58.3039085
  85.9518376 120.8307061  65.1857059  86.2320129 120.1630250  65.8117485
  86.7368983 121.0236156  64.6731722  83.7551844 140.0066055  56.7482085
  83.1825811 140.6256242  56.2952557  84.3284638 140.5565416  57.2822007
  87.8441613 126.3380278  69.1188035  87.2491546 126.6185291  68.4234523
  87.5591310 126.8274179  69.8904776  86.9749104 140.2903205  57.8790667
  87.9079777 140.2248766  58.0823543  86.8872317 141.1259472  57.4205200
  89.6037121 139.6069075  54.8394615  89.5250752 139.2728939  55.7330373
  90.4246787 140.0990843  54.8386087  84.1398643 131.3426867  54.0898137
  85.0857747 131.2133076  54.1586555  83.7612888 130.6041529  54.5667565
  90.1120527 123.0082873  64.0525029  89.9145348 122.6997962  64.9368361
  90.7220233 123.7344512  64.1822959  84.0237335 135.3944614  75.5498794
  84.9440345 135.5723213  75.7438841  83.9886918 134.4500659  75.3978494
  82.3241560 129.2676844  54.0253023  81.4173015 128.9709957  54.1015736
  82.6017541 128.9706662  53.1587309  73.2419500 130.5883207  64.4752069
  72.9222284 129.7348515  64.1826443  72.6952928 130.8031785  65.2310036
  77.0199408 133.3045648  68.1921575  77.2385417 134.2362756  68.2109609
  77.4325181 132.9453623  68.9776379  83.9403625 123.8113734  60.1797264
  83.1304354 123.4660818  60.5552510  84.6288042 123.5021277  60.7684875
  85.8694174 122.8891780  61.8021560  86.4225212 123.3087234  62.4611584
  86.1064260 121.9627528  61.8444516  81.0940344 126.1263779  54.1665002
  81.9559508 126.4518677  54.4260819  81.2790689 125.3395275  53.6538068
  73.1107760 134.2086119  66.4445191  72.4171232 133.7940071  65.9315145
  73.8580751 134.2506655  65.8478609  89.2472981 124.9992305  61.3100225
  88.6671650 125.6577110  60.9278277  88.9808914 124.1769650  60.8987642
  87.6976547 124.3997363  63.5121545  88.1976326 124.5113898  62.7035864
  88.3412155 124.0958416  64.1522353  81.7558543 132.3075993  76.3989386
  81.2725625 133.1076353  76.6053275  81.8419482 132.3183938  75.4456830
  75.0244503 134.1404372  64.3211205  75.0015191 134.2392060  63.3693088
  75.3345139 134.9869523  64.6428372  77.6831881 136.1980528  68.4357820
  78.6375134 136.1664470  68.3687751  77.4844404 135.7371151  69.2508046
  78.2731263 134.7681644  71.0028617  79.0924152 135.2625722  71.0263455
  78.5468070 133.8513612  70.9746185  88.0297859 127.1592396  60.3656573
  87.1423714 127.4442046  60.1476768  88.4451848 126.9986159  59.5183850
  76.0382109 141.7400147  65.4528018  75.9036577 140.9800548  64.8866016
  75.6214172 142.4641047  64.9856807  87.1741072 136.9237071  54.4604593
  87.8776922 137.1287073  55.0762249  86.4503721 137.4913832  54.7253676
  88.0038883 132.6746932  60.5806863  87.9474084 133.1315483  59.7414496
  88.5567225 131.9137616  60.4029706  91.8143689 128.4636664  61.4056983
  91.5580623 128.0633299  62.2365190  91.1896557 129.1780458  61.2807122
  79.1951235 142.6369464  65.6646460  79.0783619 143.5814897  65.5625151
  78.3743681 142.3343026  66.0532260  89.0827770 137.3619600  56.5103053
  89.9173374 136.9300798  56.3280528  88.9212113 137.1901613  57.4379948
  88.7373662 133.8651713  57.8759392  88.6822466 133.6995984  56.9347836
  88.1119717 134.5727746  58.0321582  73.5266177 129.1019777  71.7020815
  74.1725041 128.5918731  72.1908040  73.3183328 129.8388459  72.2764240
  86.0519569 136.1700625  77.2012955  86.9210729 136.3441277  76.8399590
  85.5726321 136.9895042  77.0788684  82.0469787 123.3659822  57.4544711
  82.0348457 124.3101662  57.6112982  82.9393209 123.1829967  57.1604172
  80.2205749 143.2897726  68.8802389  81.1232996 143.3221336  69.1968884
  79.9943119 142.3598177  68.8948725  81.9759351 142.0428712  65.5412467
  81.0254982 142.0430574  65.4276840  82.2791837 141.2961447  65.0248502
  85.8621907 119.9602599  61.7090648  85.0954303 119.4061085  61.8547330
  86.2732612 120.0324467  62.5704799  97.7112045 147.8789251  66.6058230
  98.3490455 147.7595998  65.9021570  97.5932888 148.8270095  66.6646182
  94.5201751 147.8316679  66.5419754  94.1820263 147.7157744  65.6540289
  95.3891519 147.4307844  66.5220761  90.3788567 149.6852155  62.5316645
  89.8153432 149.5942092  61.7632933  90.2640962 148.8652060  63.0119138
  95.0021534 148.9851531  72.5005960  94.9910175 148.5904329  71.6286464
  95.1642174 148.2517603  73.0939731  87.9252999 151.1803347  65.3700866
  88.7174291 150.8394172  64.9547165  88.1649649 151.2898322  66.2903019
  95.9588126 153.3523123  57.8431110  95.3076105 153.9377203  57.4565124
  96.7532488 153.8829318  57.9026148  89.8843753 150.4412260  58.2418245
  90.6574629 149.8941247  58.1031120  90.2369152 151.3056510  58.4532706
  91.7228795 151.7688642  71.4485144  91.4318661 152.6734273  71.3331810
  92.3585780 151.8105170  72.1629214  92.6485002 149.1465491  68.0386504
  93.2448574 148.9221513  67.3243467  92.7059974 148.4050236  68.6411951
  92.2210030 146.6004926  55.8736695  92.4735551 146.0786448  55.1120158
  91.2834590 146.4371072  55.9763378  97.2653313 145.6040705  63.6811438
  98.0516403 145.1860128  63.3301855  97.5292018 146.5086797  63.8493086
  97.4363391 151.0413555  58.3800095  96.8009224 151.1148182  59.0920999
  97.1060797 151.6307154  57.7019174 102.6661740 145.5415938  64.5844416
 103.3986912 144.9715155  64.8182246 101.9101096 145.1537538  65.0250922
  91.9406319 148.5033032  58.0761070  91.8242577 147.8277936  58.7442154
  92.0508579 148.0165406  57.2593223  94.2837860 147.9643179  61.7807759
  93.9196067 147.4373800  62.4920680  95.1404976 147.5741648  61.6074244
  93.9243347 142.9933079  56.7769107  94.0917749 143.8613315  57.1439578
  93.7340516 143.1560361  55.8530397  96.6818680 151.4550058  68.4434938
  96.3819403 152.3575097  68.3350745  96.3369740 151.1882241  69.2956091
  90.1331162 147.9063855  64.4771642  89.2081658 147.7740069  64.6849334
  90.3815575 148.6858074  64.9741584 100.0815824 143.9732598  66.1232375
  99.1732701 143.9048007  65.8291136 100.0303420 144.4504543  66.9514200
  93.9032568 145.4490737  57.7615774  93.7832193 145.8947787  58.6001254
  93.2085156 145.7976054  57.2029312  87.4939973 147.5497128  65.3115431
  87.6232354 147.8031607  66.2254843  86.8137424 148.1424836  64.9920086
  91.6639460 158.2194378  61.4105905  91.5863490 159.1702203  61.4894386
  91.0601104 157.8740251  62.0680832  94.1556690 145.3922244  74.0667272
  93.3790024 145.9516164  74.0570137  94.7947253 145.8779027  74.5882142
 101.9477471 142.1749037  67.9010249 101.3051851 142.4681570  67.2550043
 101.4432399 142.0601957  68.7063446  99.6017634 145.9212210  58.5896108
 100.5135490 146.1539597  58.4143806  99.0927281 146.5049254  58.0271187
  92.4103062 148.2007697  73.6285239  93.1517747 148.7392741  73.3520063
  91.7040048 148.8273986  73.7856791  97.8858402 150.3436838  72.2257401
  98.2941758 149.9019248  71.4812033  97.1635663 149.7689465  72.4791594
  94.2389472 145.2809444  69.5990958  95.0850667 145.7048858  69.7425607
  94.1788110 144.6243069  70.2929521  98.2087216 150.9038028  65.9809690
  97.5796079 151.0683742  65.2785757  97.8212879 151.3179638  66.7520654
 102.0876448 151.8392466  63.3354053 101.4027487 152.2191367  62.7851087
 102.1720298 152.4487793  64.0686001  97.3888917 142.9413813  71.2572131
  97.1449849 143.6955873  70.7206407  97.6648848 143.3199160  72.0919378
  99.3427380 149.4852425  69.9349397  99.5544275 150.1284185  69.2583778
  99.2957128 148.6514742  69.4671327  93.7615178 150.6412436  63.2459775
  94.2253524 150.9200139  62.4564397  93.4971976 149.7395881  63.0632865
  90.6539259 150.1883918  66.1839538  91.2240616 150.6171186  65.5457022
  91.2447371 149.9066503  66.8823724  92.6984064 146.7635589  60.0549340
  93.4008108 147.2156632  60.5223266  92.3664693 146.1219408  60.6829233
  91.1464426 145.3547345  74.4300549  90.5163087 146.0363626  74.6635946
  91.0400514 145.2430427  73.4853688  86.4409398 145.0219141  65.3566473
  85.6508452 145.2776670  64.8806584  86.9320646 145.8367479  65.4618514
 100.4573208 152.3624381  68.1071754 101.2790652 151.9604568  67.8254436
 100.4535611 152.2592615  69.0587870  88.3924144 145.3863721  62.3149950
  87.5955307 145.4982415  62.8333446  88.1649736 145.7250373  61.4490841
  94.2229811 151.9108424  70.2632465  94.2874244 152.3728831  71.0990637
  93.5140735 151.2805789  70.3914775  84.7247101 145.2749632  67.7881464
  84.9755140 146.1596642  68.0539040  85.2606650 145.0954233  67.0156556
 108.5479201 148.7063129  64.4556726 107.7942909 148.1370527  64.3000730
 108.6826742 148.6725793  65.4027360  93.9377829 153.5776531  60.1311445
  93.8023504 154.4228067  60.5596293  94.4787642 153.7795809  59.3677379
  90.4245169 139.6568111  76.7925800  90.0312114 139.1034310  77.4673445
  91.2411309 139.9678690  77.1832318  87.3907226 151.0951969  60.7039370
  87.9031747 151.8895220  60.8544935  88.0429939 150.3978260  60.6372972
  89.2002111 154.2117726  62.7862123  89.3768739 155.1335690  62.5983107
  89.9958945 153.8976145  63.2156503  88.4854468 146.2582358  72.6624287
  88.3707983 145.3567615  72.9631385  87.6298985 146.5046054  72.3109103
  95.5646305 154.2000098  74.2611787  95.1210160 153.4136476  73.9432692
  96.2263519 154.3879248  73.5955678  90.3233427 155.7295899  68.7872466
  90.8740852 155.6012963  68.0149460  89.4844902 156.0290788  68.4367358
  97.6627543 154.4802898  72.2893188  97.6446019 155.3011779  71.7973458
  98.5847464 154.3556973  72.5143330  94.1200598 151.9947027  73.1316697
  94.6528934 151.2335315  72.9016005  93.5914679 151.7020679  73.8740851
  85.3556143 149.4240624  61.4798941  86.1931365 149.8337632  61.2632648
  85.5334411 148.4840066  61.4499135  97.2520575 147.0915704  57.1682774
  96.7367199 147.8620309  57.4071161  96.9797884 146.4180840  57.7915835
  94.8367686 141.9365405  62.2268012  93.9809283 141.5472255  62.0473651
  95.2494638 142.0157366  61.3667798 102.2254849 149.8448059  59.1035947
 101.4484292 149.5059218  58.6591109 102.9046330 149.8500682  58.4290912
  97.0406878 144.9642796  58.9942555  96.7357014 145.2788946  59.8452698
  97.9937321 145.0424216  59.0369888  95.4853310 151.1233020  60.6435509
  94.9574672 150.3885779  60.3308746  94.9840813 151.9007696  60.3975477
 100.4646156 149.3182040  65.7602555  99.8069831 150.0081302  65.8482684
 101.2686556 149.7078472  66.1036541  90.2172038 141.7852686  63.0042120
  90.7915790 141.5627867  62.2715313  90.8043020 141.8541380  63.7570722
  99.2751615 147.6726413  63.8106497  99.7883497 148.3056405  64.3128207
  99.9252839 147.0727608  63.4449857  90.5441625 143.8157147  57.0238006
  89.7078937 144.1531834  57.3447280  90.4046395 143.6806127  56.0865143
  92.5194706 138.6593935  61.7317190  91.8659118 138.3442952  61.1073805
  92.4775180 138.0369675  62.4577013  93.6305911 148.9413230  53.6470482
  92.7232972 148.7102483  53.8461631  94.1276943 148.1450849  53.8344463
  96.5373989 157.6510737  56.5667168  95.8635688 157.9542434  57.1752126
  96.9239811 158.4539817  56.2172625  95.7532446 145.1475868  66.0564837
  94.8355007 145.3690815  65.8986525  96.1692590 145.2222179  65.1976545
  96.5367494 146.5467284  61.1867518  97.2839313 147.0588681  60.8774640
  96.8059083 146.2251337  62.0471911  94.8094144 149.0425825  58.1694472
  93.9005363 148.7584858  58.2666942  94.8389228 149.4624903  57.3097779
 100.0413411 152.6532414  61.9385640  99.5875738 151.8123324  61.9950830
  99.4107378 153.2893813  62.2760420  98.9846331 143.5824400  63.1686307
  98.2469088 143.0701787  63.4996550  99.2373104 143.1424782  62.3569584
  98.4846351 154.4908911  62.8735458  98.7769325 155.0513968  62.1547823
  98.9944971 154.7837472  63.6288617  99.0857958 136.3600652  63.7628076
  99.3916835 135.4998016  63.4753991  99.8110563 136.9518273  63.5627070
  85.3782314 146.7631339  62.1509674  85.1806714 146.1700700  61.4260741
  84.8228978 146.4583549  62.8685613  93.3579038 146.6554445  64.2704267
  93.4127648 145.7028282  64.1946744  92.5470240 146.8113885  64.7545566
  94.5070232 150.5834568  55.5082551  94.0689662 149.8670427  55.0488188
  95.2480673 150.8110683  54.9467642  91.2971398 145.2731505  62.0294646
  90.4839263 145.5725676  62.4359838  91.7930392 144.8787194  62.7469128
  93.4479976 155.2689262  63.9628911  93.4056155 155.4950108  63.0337443
  94.3642675 155.0352637  64.1114712  96.8945610 145.7373330  70.8609540
  97.2494997 145.9644803  71.7204006  97.5417741 146.0691706  70.2386795
 102.6243347 148.8591766  61.5658869 102.4861245 149.0493362  60.6380058
 102.2679565 149.6211148  62.0226920  90.7885473 142.8449861  67.6455881
  91.4284852 142.7038620  66.9478844  89.9563003 142.5584374  67.2694483
 102.6512726 150.9268293  66.5770141 103.0849233 150.8343582  67.4253195
 103.3644307 150.9025793  65.9390157  91.5645777 152.1452291  63.7590874
  92.3586375 151.6502611  63.5573449  90.8537469 151.6170154  63.3958579
  96.3840621 154.5270387  68.1103241  96.4377643 155.0961323  68.8780957
  95.5155402 154.6972272  67.7457278  87.8728540 146.2895373  59.8350626
  86.9426128 146.2279828  60.0520588  87.9686012 145.7671326  59.0387268
  87.7914089 142.8150186  62.4228868  88.0520906 143.7295519  62.3138028
  88.6131261 142.3474628  62.5725481  89.2639014 144.2287943  69.5927692
  89.9362068 144.0205305  68.9440341  88.4368801 144.0310029  69.1532925
 103.5128276 150.9691993  69.1103026 103.7064166 151.8737804  69.3562301
 103.4128894 150.5099412  69.9441611  98.5743384 151.1198736  74.6843907
  98.4228891 150.8909288  73.7673990  98.5648064 152.0769337  74.6975252
  95.3428721 148.6930649  69.6690173  96.2720781 148.8441808  69.4959140
  94.9219751 148.7814669  68.8138820  94.1417053 152.7181313  67.4388711
  94.0028138 152.3500098  68.3114649  93.3531649 153.2328953  67.2672668
  94.7365205 157.8190410  58.7814247  94.9116960 157.3478453  59.5959870
  94.0497993 158.4456176  59.0095508  95.6922268 152.0962916  64.8277548
  95.3572100 152.0563686  65.7235198  95.1926213 151.4307632  64.3547959
  89.6666512 147.5030546  70.3530130  89.5286310 146.7710785  70.9541669
  90.5771435 147.4139446  70.0714317  98.6281459 149.4418950  55.1014608
  98.0110630 148.7165778  55.0047661  98.1597948 150.2028310  54.7581682
  92.2948812 147.2150505  69.8413809  93.0048431 146.5743697  69.8000428
  92.2518121 147.4663400  70.7639990 100.2835591 154.1517858  72.7620388
 100.2248137 153.4677079  72.0950971 100.6855109 154.8936849  72.3101014
  91.0077746 144.2015723  71.6609449  90.4715103 143.7506461  72.3131045
  90.4194455 144.3361632  70.9179913  89.3026290 160.9679772  65.5554107
  89.5422888 161.5998296  66.2333126  88.4595486 160.6167812  65.8419467
  90.4180005 143.6604374  54.2235912  89.5409472 143.5393175  53.8598159
  90.8937758 142.8690453  53.9714801 100.2852998 152.1157442  70.9934368
  99.3979777 151.7783364  71.1160767 100.8551549 151.3840474  71.2303134
  81.9382145 148.4481534  64.3177420  82.6253185 148.1343264  63.7298435
  81.7830274 149.3522899  64.0444671  86.7416868 143.3371731  68.7462443
  86.6575056 142.7297400  68.0112853  85.9199574 143.8280749  68.7471940
  93.8154152 156.7758895  67.9595611  93.7424323 157.5813866  68.4714916
  93.3731545 156.9750861  67.1343633  93.6043931 156.0130665  61.4698433
  92.8211453 156.5552345  61.5636657  94.3036676 156.5304644  61.8692674
  96.9140581 141.8225294  64.1132638  97.4109281 141.0695257  63.7933709
  96.1427563 141.8589611  63.5475848 104.7670339 147.5265660  65.7550930
 104.7560215 148.4090375  65.3844863 103.8987718 147.1737211  65.5605467
  96.2752835 156.6745729  70.1153770  96.9880807 157.3093194  70.0429671
  95.7842864 156.7709595  69.2993772  97.9970362 150.5796981  61.6871062
  97.0626641 150.6998444  61.5175766  98.1747031 149.6769448  61.4231072
  93.4975550 143.9642677  63.8404323  93.1273338 143.4113718  64.5285228
  93.9934643 143.3600811  63.2879323 101.3842913 146.4214301  62.2221096
 101.8503366 147.2542292  62.1481398 101.8350414 145.9559282  62.9266354
  91.3264749 154.4240172  70.9359341  92.0274208 155.0576655  71.0888735
  90.8559864 154.7654904  70.1754980  99.4519145 152.7658122  59.2207248
  99.7278988 152.6514717  60.1301122  98.5823643 152.3675607  59.1819421
  99.1266035 146.9784780  68.7611891  98.4737485 147.2260687  68.1064344
  99.5046415 146.1648918  68.4274368  96.0873209 157.0144473  62.8640061
  96.2695603 156.1966129  63.3267814  96.9106195 157.2312165  62.4264951
  96.4215374 155.9412658  60.1255110  96.9503141 155.4305113  59.5125272
  96.6843594 155.6255188  60.9900643  95.1753608 147.7204591  75.2477928
  94.4994245 147.6198720  75.9180303  95.9981242 147.5643805  75.7113925
  86.9232467 153.9576527  67.8690444  87.5085904 153.2120215  68.0018348
  86.7257305 154.2680484  68.7527107  89.7771122 156.9927775  62.8852886
  89.1081497 157.4773902  62.4016926  89.6383992 157.2396995  63.7996264
  81.5150122 146.5282128  66.5894887  81.5534221 145.9945718  67.3832005
  81.0090414 146.0017333  65.9705864  93.9176391 159.0271518  69.4835544
  94.4694699 159.1903140  70.2484629  94.2582584 159.6175956  68.8115569
  88.8940884 141.3746668  70.0857429  88.9582210 142.2361499  69.6734827
  88.8308004 140.7620670  69.3529787  88.3693156 143.4469801  73.7330463
  88.9965195 143.0646878  74.3467988  87.5121075 143.2284003  74.0986156
  98.7687265 153.8532776  75.3384199  99.3127169 154.4662734  74.8439153
  98.1874110 154.4112354  75.8551212  85.1458699 145.2546230  59.6648818
  85.4412140 144.3456908  59.6115872  84.2446735 145.2333969  59.3429820
  97.0544778 156.9753494  66.4699226  96.9295917 156.1743234  65.9610172
  97.7123869 157.4699687  65.9813196  88.6752946 143.3302226  65.6476367
  87.9539532 143.9438194  65.5083840  89.4646202 143.8659991  65.5693013
  99.1179686 154.7762514  68.0978777  98.1710022 154.6567865  68.0257103
  99.4662459 153.8885012  68.1805038  86.8746541 142.9360327  59.7888143
  86.5459247 142.0557706  59.6063249  87.2285911 142.8807996  60.6764532
  96.1226120 154.5715230  64.2983129  95.9751082 153.6431937  64.4790699
  96.9479613 154.5935321  63.8140204  89.9888364 143.2233297  60.1563621
  90.3284436 143.7519218  59.4342229  90.4360484 143.5613703  60.9322187
  99.7260241 155.3943789  65.3848001 100.6506789 155.1886650  65.2472453
  99.5575545 155.1460190  66.2937343  91.9756511 141.7207919  58.3556914
  92.6964874 142.0989172  57.8520630  91.3521815 142.4396796  58.4591892
  96.1187634 142.4253068  59.2915246  96.3351248 143.3077706  58.9904074
  95.6381701 142.0339281  58.5620888  90.8586855 145.3838781  65.8685991
  90.7131436 145.6979084  66.7610272  90.3812059 146.0023681  65.3156889
  92.7183238 142.3741329  65.9166880  92.7044807 141.4782422  65.5799178
  93.4355666 142.3811993  66.5505166  94.5709369 142.8078669  67.9620008
  94.3127147 143.7295740  67.9604338  94.0394409 142.4109104  68.6520472
  99.5155558 155.9129456  60.7410093  99.6892435 155.3475879  59.9883945
 100.0084449 156.7130351  60.5589583  85.3332517 147.9244125  68.8073652
  84.7885986 148.7003933  68.9393926  86.2111867 148.2714930  68.6492773
  92.1220134 141.2555709  61.1854450  92.2436045 140.3272355  61.3845338
  91.8322176 141.2694395  60.2732766 105.3694949 148.6765879  62.3600393
 105.8126095 147.9273204  61.9619516 104.4921459 148.6676016  61.9774125
 100.5030730 155.2296221  57.8406991 101.1981635 155.8502913  58.0594306
 100.8453880 154.3791572  58.1159369  86.1198539 147.0514022  71.7003809
  85.3780275 147.1996657  72.2868439  85.7991284 147.3122287  70.8370558
 102.4022153 152.6795926  59.3694322 102.9273477 153.0183199  58.6443642
 102.3144506 151.7442942  59.1857457  94.0642202 156.5930000  71.4984199
  94.3729328 156.3479147  72.3706898  94.8617684 156.7976638  71.0103069
  94.0862814 158.7467909  63.7289575  93.6467804 158.2544288  64.4222432
  94.8370931 158.2040877  63.4881650  86.5655153 154.9379450  63.7314203
  87.3913173 154.6383222  63.3512847  86.2149205 154.1687073  64.1803992
  91.5336686 154.2905919  65.8011877  90.9116695 153.6276624  65.5014105
  92.2041553 154.3167050  65.1185525  84.7663758 152.8565777  64.6903137
  83.9295666 152.4287951  64.5087138  84.7387403 153.0498220  65.6273928
  91.6061214 142.7687707  75.3944383  91.6549369 143.6449829  75.0122152
  92.1483728 142.2265100  74.8216026 102.0916059 153.3128830  74.6745520
 101.3011603 153.2952969  74.1350019 101.8549414 153.8517124  75.4294557
 102.2113934 150.1621296  71.9878248 102.2611939 149.9971304  72.9293771
 102.1027858 149.2948555  71.5976129  91.0950193 152.8409842  59.2770337
  91.2438313 153.5245306  58.6237010  91.9016637 152.8214932  59.7919793
  99.5017697 146.1452224  73.3037555 100.4027560 146.0058689  73.0121553
  99.5765671 146.3106679  74.2435733  93.8360502 143.5219079  72.1490742
  92.9663811 143.8152645  71.8773330  94.0719982 144.1059524  72.8698005
 103.7132131 152.5818238  72.2320270 103.4216939 152.9448218  73.0683731
 103.1004262 151.8685246  72.0533602 104.9127814 150.1471117  64.7522840
 105.7474705 150.5860922  64.9160401 105.0486942 149.6709771  63.9331086
 101.9619319 147.7050852  70.7000328 102.4373441 147.8978499  69.8919179
 101.0384885 147.7610038  70.4543712  88.8502826 148.8675020  60.2831406
  88.6048868 147.9637350  60.4811616  89.0198741 148.8692170  59.3410884
  88.1198474 144.6003377  57.7817568  87.4267719 144.6747732  57.1257604
  87.8750225 143.8363721  58.3039085  94.5945599 155.3357972  56.7482085
  94.0219566 155.9548159  56.2952557  95.1678392 155.8857334  57.2822007
 100.6620988 144.5816612  68.9328634 101.6138411 144.6814710  68.9540858
 100.4924439 143.7894881  69.4426718  97.8142858 155.6195122  57.8790667
  98.7473532 155.5540684  58.0823543  97.7266071 156.4551389  57.4205200
 100.4430875 154.9360993  54.8394615 100.3644507 154.6020856  55.7330373
 101.2640542 155.4282761  54.8386087 103.1409066 147.8022732  68.0470933
 103.1085386 146.8638733  68.2330617 103.7509690 147.8806769  67.3136758
  94.9792397 146.6718785  54.0898137  95.9251502 146.5424993  54.1586555
  94.6006642 145.9333447  54.5667565 103.2903555 144.5933776  68.0929216
 102.7742603 143.8092232  67.9059145 104.1743503 144.2652492  68.2575736
 108.9585616 148.8638739  67.1876970 109.6889005 148.6024027  67.7484673
 108.3492562 148.1267461  67.2279038 107.0400913 147.0046602  67.7851421
 106.3134077 146.8702566  67.1767913 106.6248200 147.3123430  68.5908139
  94.8631090 150.7236531  75.5498794  95.7834099 150.9015130  75.7438841
  94.8280673 149.7792577  75.3978494  93.1635314 144.5968761  54.0253023
  92.2566770 144.3001874  54.1015736  93.4411295 144.2998580  53.1587309
  84.0813255 145.9175125  64.4752069  83.7616039 145.0640433  64.1826443
  83.5346683 146.1323703  65.2310036  87.8593162 148.6337566  68.1921575
  88.0779172 149.5654674  68.2109609  88.2718936 148.2745540  68.9776379
  94.7797380 139.1405651  60.1797264  93.9698108 138.7952736  60.5552510
  95.4681797 138.8313195  60.7684875  96.7087928 138.2183698  61.8021560
  97.2618967 138.6379151  62.4611584  96.9458015 137.2919446  61.8444516
  92.7321027 144.2070772  77.5824324  92.6317754 145.1565129  77.5136415
  92.5142570 143.8789011  76.7100394  91.9334099 141.4555697  54.1665002
  92.7953263 141.7810595  54.4260819  92.1184443 140.6687193  53.6538068
  83.9501515 149.5378036  66.4445191  83.2564986 149.1231989  65.9315145
  84.6974506 149.5798573  65.8478609 100.0866735 140.3284223  61.3100225
  99.5065404 140.9869027  60.9278277  99.8202668 139.5061568  60.8987642
  98.5370302 139.7289281  63.5121545  99.0370080 139.8405815  62.7035864
  99.1805910 139.4250334  64.1522353  92.5952298 147.6367910  76.3989386
  92.1119379 148.4368271  76.6053275  92.6813237 147.6475855  75.4456830
  85.8638257 149.4696290  64.3211205  85.8408945 149.5683977  63.3693088
  86.1738894 150.3161441  64.6428372  88.5225635 151.5272445  68.4357820
  89.4768889 151.4956388  68.3687751  88.3238159 151.0663069  69.2508046
  89.1125017 150.0973561  71.0028617  89.9317906 150.5917640  71.0263455
  89.3861825 149.1805529  70.9746185  98.8691613 142.4884314  60.3656573
  97.9817468 142.7733964  60.1476768  99.2845602 142.3278077  59.5183850
 102.2206149 142.5130835  64.0810912 102.9966540 143.0027287  64.3535529
 101.4954284 142.9388889  64.5382782 104.6578708 143.2258454  65.1384853
 105.2523199 142.9854190  64.4278161 104.7305292 142.5065584  65.7658389
  86.8775864 157.0692065  65.4528018  86.7430332 156.3092466  64.8866016
  86.4607926 157.7932965  64.9856807  98.0134827 152.2528988  54.4604593
  98.7170677 152.4578991  55.0762249  97.2897476 152.8205750  54.7253676
  98.8432637 148.0038849  60.5806863  98.7867838 148.4607401  59.7414496
  99.3960980 147.2429534  60.4029706 102.6537443 143.7928581  61.4056983
 102.3974377 143.3925217  62.2365190 102.0290311 144.5072375  61.2807122
 106.9649781 146.5324655  63.9128274 106.4049339 146.6017844  64.6859836
 106.3593284 146.3565639  63.1927770  90.0344990 157.9661382  65.6646460
  89.9177374 158.9106814  65.5625151  89.2137436 157.6634943  66.0532260
  99.9221524 152.6911517  56.5103053 100.7567128 152.2592716  56.3280528
  99.7605867 152.5193531  57.4379948  99.5767416 149.1943631  57.8759392
  99.5216220 149.0287902  56.9347836  98.9513472 149.9019664  58.0321582
  84.3659931 144.4311695  71.7020815  85.0118795 143.9210649  72.1908040
  84.1577083 145.1680377  72.2764240  96.8913324 151.4992543  77.2012955
  97.7604483 151.6733195  76.8399590  96.4120075 152.3186959  77.0788684
  92.8863542 138.6951740  57.4544711  92.8742212 139.6393580  57.6112982
  93.7786964 138.5121885  57.1604172  91.0599504 158.6189644  68.8802389
  91.9626751 158.6513254  69.1968884  90.8336874 157.6890095  68.8948725
  92.8153106 157.3720630  65.5412467  91.8648737 157.3722492  65.4276840
  93.1185592 156.6253365  65.0248502  96.7015661 135.2894516  61.7090648
  95.9348057 134.7353003  61.8547330  97.1126366 135.3616385  62.5704799
  88.7057422 141.5779312  75.7995829  89.5688884 141.2216117  76.0099153
  88.1322833 141.2393207  76.4871233 108.5505799 163.2081169  66.6058230
 109.1884209 163.0887916  65.9021570 108.4326642 164.1562012  66.6646182
 105.3595506 163.1608597  66.5419754 105.0214017 163.0449661  65.6540289
 106.2285274 162.7599762  66.5220761 101.2182321 165.0144073  62.5316645
 100.6547186 164.9234010  61.7632933 101.1034716 164.1943977  63.0119138
 105.8415289 164.3143448  72.5005960 105.8303929 163.9196247  71.6286464
 106.0035928 163.5809521  73.0939731  98.7646753 166.5095265  65.3700866
  99.5568045 166.1686089  64.9547165  99.0043403 166.6190240  66.2903019
 100.7237507 165.7704178  58.2418245 101.4968383 165.2233165  58.1031120
 101.0762906 166.6348427  58.4532706 102.5622550 167.0980560  71.4485144
 102.2712416 168.0026191  71.3331810 103.1979534 167.1397088  72.1629214
 103.4878757 164.4757409  68.0386504 104.0842329 164.2513431  67.3243467
 103.5453728 163.7342154  68.6411951 103.0603785 161.9296844  55.8736695
 103.3129306 161.4078365  55.1120158 102.1228344 161.7662989  55.9763378
 108.1047068 160.9332622  63.6811438 108.8910157 160.5152046  63.3301855
 108.3685772 161.8378715  63.8493086 108.2757145 166.3705473  58.3800095
 107.6402978 166.4440099  59.0920999 107.9454552 166.9599072  57.7019174
 113.5055495 160.8707856  64.5844416 114.2380667 160.3007072  64.8182246
 112.7494851 160.4829456  65.0250922 102.7800074 163.8324950  58.0761070
 102.6636332 163.1569853  58.7442154 102.8902334 163.3457324  57.2593223
 105.1231615 163.2935097  61.7807759 104.7589822 162.7665718  62.4920680
 105.9798731 162.9033566  61.6074244 111.0280915 154.5829430  69.0439025
 110.6964240 155.4524841  68.8200240 110.4326529 154.2665714  69.7233055
 104.7637102 158.3224997  56.7769107 104.9311504 159.1905233  57.1439578
 104.5734271 158.4852278  55.8530397 107.5212435 166.7841976  68.4434938
 107.2213158 167.6867014  68.3350745 107.1763494 166.5174159  69.2956091
 100.9724916 163.2355773  64.4771642 100.0475413 163.1031987  64.6849334
 101.2209329 164.0149992  64.9741584 110.9209579 159.3024516  66.1232375
 110.0126456 159.2339924  65.8291136 110.8697174 159.7796461  66.9514200
 104.7426323 160.7782654  57.7615774 104.6225948 161.2239705  58.6001254
 104.0478911 161.1267972  57.2029312  98.3333727 162.8789046  65.3115431
  98.4626108 163.1323525  66.2254843  97.6531179 163.4716754  64.9920086
 104.9950444 160.7214161  74.0667272 104.2183778 161.2808082  74.0570137
 105.6341007 161.2070944  74.5882142 112.7871225 157.5040954  67.9010249
 112.1445605 157.7973487  67.2550043 112.2826154 157.3893875  68.7063446
 110.4411389 161.2504127  58.5896108 111.3529245 161.4831514  58.4143806
 109.9321036 161.8341172  58.0271187 103.2496817 163.5299615  73.6285239
 103.9911501 164.0684659  73.3520063 102.5433802 164.1565904  73.7856791
 108.7252156 165.6728755  72.2257401 109.1335512 165.2311166  71.4812033
 108.0029418 165.0981383  72.4791594 105.0783226 160.6101362  69.5990958
 105.9244422 161.0340776  69.7425607 105.0181864 159.9534986  70.2929521
 109.0480971 166.2329946  65.9809690 108.4189833 166.3975660  65.2785757
 108.6606633 166.6471555  66.7520654 108.2282672 158.2705730  71.2572131
 107.9843604 159.0247791  70.7206407 108.5042602 158.6491078  72.0919378
 110.1821134 164.8144343  69.9349397 110.3938030 165.4576103  69.2583778
 110.1350883 163.9806659  69.4671327 107.7847363 157.4262163  66.8385969
 106.9231842 157.7243417  67.1302707 107.8109798 157.6432562  65.9067002
 104.6008933 165.9704354  63.2459775 105.0647278 166.2492057  62.4564397
 104.3365731 165.0687799  63.0632865 101.4933014 165.5175836  66.1839538
 102.0634371 165.9463104  65.5457022 102.0841126 165.2358420  66.8823724
 103.5377819 162.0927506  60.0549340 104.2401862 162.5448550  60.5223266
 103.2058447 161.4511325  60.6829233 101.9858180 160.6839263  74.4300549
 101.3556841 161.3655544  74.6635946 101.8794268 160.5722345  73.4853688
  97.2803153 160.3511059  65.3566473  96.4902207 160.6068588  64.8806584
  97.7714400 161.1659397  65.4618514  99.2317898 160.7155638  62.3149950
  98.4349062 160.8274333  62.8333446  99.0043490 161.0542290  61.4490841
 105.0623566 167.2400341  70.2632465 105.1267998 167.7020749  71.0990637
 104.3534490 166.6097706  70.3914775  95.5640856 160.6041549  67.7881464
  95.8148894 161.4888559  68.0539040  96.1000404 160.4246151  67.0156556
 104.7771584 168.9068449  60.1311445 104.6417258 169.7519985  60.5596293
 105.3181396 169.1087727  59.3677379 101.2638923 154.9860029  76.7925800
 100.8705869 154.4326227  77.4673445 102.0805063 155.2970607  77.1832318
  98.2300981 166.4243887  60.7039370  98.7425501 167.2187137  60.8544935
  98.8823694 165.7270177  60.6372972 104.1806884 156.4017908  74.3846057
 104.9216598 157.0025061  74.3050519 104.4124807 155.6595546  73.8264099
  99.3248222 161.5874275  72.6624287  99.2101737 160.6859532  72.9631385
  98.4692740 161.8337972  72.3109103 104.9594352 167.3238945  73.1316697
 105.4922689 166.5627233  72.9016005 104.4308433 167.0312597  73.8740851
 108.1264047 152.4299011  68.6610339 107.7828316 153.3200653  68.5849449
 108.4943010 152.2400668  67.7979924  96.1949898 164.7532541  61.4798941
  97.0325120 165.1629550  61.2632648  96.3728165 163.8131983  61.4499135
 108.0914330 162.4207622  57.1682774 107.5760953 163.1912227  57.4071161
 107.8191638 161.7472758  57.7915835 105.6761441 157.2657323  62.2268012
 104.8203037 156.8764173  62.0473651 106.0888393 157.3449284  61.3667798
 107.2060587 154.8003666  66.6259572 106.7025383 154.7633801  65.8127377
 107.4991194 155.7096409  66.6856228 103.4503473 154.8842396  65.6325754
 104.3156470 154.6885204  65.2731643 103.5180982 154.6552748  66.5595110
 107.8800633 160.2934714  58.9942555 107.5750769 160.6080863  59.8452698
 108.8331075 160.3716134  59.0369888 106.3247065 166.4524937  60.6435509
 105.7968426 165.7177697  60.3308746 105.8234568 167.2299614  60.3975477
 111.3039911 164.6473958  65.7602555 110.6463585 165.3373219  65.8482684
 112.1080310 165.0370390  66.1036541 101.0565792 157.1144604  63.0042120
 101.6309544 156.8919785  62.2715313 101.6436775 157.1833298  63.7570722
 110.1145370 163.0018331  63.8106497 110.6277251 163.6348322  64.3128207
 110.7646594 162.4019526  63.4449857 101.3835380 159.1449065  57.0238006
 100.5472692 159.4823751  57.3447280 101.2440149 159.0098044  56.0865143
 103.3588460 153.9885853  61.7317190 102.7052872 153.6734870  61.1073805
 103.3168934 153.3661593  62.4577013 104.4699665 164.2705148  53.6470482
 103.5626727 164.0394401  53.8461631 104.9670697 163.4742767  53.8344463
 106.5926201 160.4767786  66.0564837 105.6748762 160.6982733  65.8986525
 107.0086344 160.5514097  65.1976545 107.3761248 161.8759202  61.1867518
 108.1233067 162.3880599  60.8774640 107.6452838 161.5543255  62.0471911
 105.6487898 164.3717743  58.1694472 104.7399118 164.0876775  58.2666942
 105.6782982 164.7916821  57.3097779 109.8240085 158.9116318  63.1686307
 109.0862842 158.3993704  63.4996550 110.0766859 158.4716700  62.3569584
 109.9251713 151.6892570  63.7628076 110.2310590 150.8289933  63.4753991
 110.6504318 152.2810190  63.5627070  96.2176069 162.0923257  62.1509674
  96.0200469 161.4992617  61.4260741  95.6622733 161.7875467  62.8685613
 104.1972792 161.9846363  64.2704267 104.2521402 161.0320200  64.1946744
 103.3863995 162.1405802  64.7545566 105.3463986 165.9126486  55.5082551
 104.9083416 165.1962345  55.0488188 106.0874427 166.1402601  54.9467642
 102.1365152 160.6023423  62.0294646 101.3233018 160.9017593  62.4359838
 102.6324147 160.2079112  62.7469128 104.2873730 170.5981180  63.9628911
 104.2449909 170.8242026  63.0337443 105.2036429 170.3644554  64.1114712
 107.7339364 161.0665247  70.8609540 108.0888752 161.2936720  71.7204006
 108.3811495 161.3983624  70.2386795 113.4637101 164.1883683  61.5658869
 113.3255000 164.3785279  60.6380058 113.1073320 164.9503066  62.0226920
 101.6279227 158.1741778  67.6455881 102.2678606 158.0330537  66.9478844
 100.7956758 157.8876292  67.2694483 102.4039531 167.4744209  63.7590874
 103.1980130 166.9794529  63.5573449 101.6931223 166.9462072  63.3958579
  98.7122295 161.6187291  59.8350626  97.7819883 161.5571746  60.0520588
  98.8079767 161.0963243  59.0387268  98.6307844 158.1442103  62.4228868
  98.8914661 159.0587437  62.3138028  99.4525016 157.6766546  62.5725481
 100.1032769 159.5579861  69.5927692 100.7755822 159.3497223  68.9440341
  99.2762555 159.3601947  69.1532925 106.0058341 156.1841801  71.6093353
 105.3586256 156.8831751  71.5157830 106.7759356 156.6177945  71.9769602
 109.4137139 166.4490654  74.6843907 109.2622645 166.2201205  73.7673990
 109.4041818 167.4061255  74.6975252 106.1822475 164.0222566  69.6690173
 107.1114535 164.1733726  69.4959140 105.7613505 164.1106587  68.8138820
 104.9810807 168.0473231  67.4388711 104.8421893 167.6792015  68.3114649
 104.1925403 168.5620870  67.2672668 106.5316022 167.4254833  64.8277548
 106.1965855 167.3855603  65.7235198 106.0319968 166.7599549  64.3547959
 100.5060266 162.8322464  70.3530130 100.3680064 162.1002702  70.9541669
 101.4165190 162.7431364  70.0714317 109.4675214 164.7710868  55.1014608
 108.8504385 164.0457696  55.0047661 108.9991702 165.5320228  54.7581682
 103.1342567 162.5442423  69.8413809 103.8442185 161.9035615  69.8000428
 103.0911875 162.7955318  70.7639990 101.8471501 159.5307641  71.6609449
 101.3108858 159.0798379  72.3131045 101.2588209 159.6653550  70.9179913
 101.2573760 158.9896292  54.2235912 100.3803226 158.8685093  53.8598159
 101.7331513 158.1982370  53.9714801  92.7775900 163.7773452  64.3177420
  93.4646940 163.4635182  63.7298435  92.6224029 164.6814816  64.0444671
  97.5810622 158.6663648  68.7462443  97.4968811 158.0589318  68.0112853
  96.7593328 159.1572667  68.7471940 107.7534336 157.1517212  64.1132638
 108.2503035 156.3987174  63.7933709 106.9821317 157.1881529  63.5475848
 108.8364117 165.9088899  61.6871062 107.9020395 166.0290362  61.5175766
 109.0140785 165.0061366  61.4231072 104.3369305 159.2934595  63.8404323
 103.9667092 158.7405635  64.5285228 104.8328397 158.6892728  63.2879323
 112.2236668 161.7506218  62.2221096 112.6897120 162.5834210  62.1481398
 112.6744168 161.2851200  62.9266354 102.1658503 169.7532090  70.9359341
 102.8667963 170.3868573  71.0888735 101.6953618 170.0946821  70.1754980
 110.1953331 154.1186805  66.2611997 109.2816411 154.3491032  66.4294204
 110.6246432 154.2025250  67.1126030 109.9659789 162.3076697  68.7611891
 109.3131239 162.5552605  68.1064344 110.3440169 161.4940836  68.4274368
 106.0147362 163.0496508  75.2477928 105.3387999 162.9490638  75.9180303
 106.8374996 162.8935722  75.7113925  92.3543876 161.8574045  66.5894887
  92.3927976 161.3237636  67.3832005  91.8484169 161.3309251  65.9705864
  99.7334638 156.7038586  70.0857429  99.7975965 157.5653417  69.6734827
  99.6701759 156.0912587  69.3529787  99.2086911 158.7761718  73.7330463
  99.8358950 158.3938796  74.3467988  98.3514830 158.5575920  74.0986156
  95.9852454 160.5838147  59.6648818  96.2805895 159.6748826  59.6115872
  95.0840489 160.5625887  59.3429820  99.5146701 158.6594144  65.6476367
  98.7933286 159.2730112  65.5083840 100.3039956 159.1951909  65.5693013
 102.3173014 155.9948570  71.9217018 102.8407416 156.2410867  72.6843328
 102.0985347 156.8268605  71.5020156  97.7140295 158.2652245  59.7888143
  97.3853001 157.3849624  59.6063249  98.0679666 158.2099914  60.6764532
 100.8282118 158.5525215  60.1563621 101.1678191 159.0811136  59.4342229
 101.2754239 158.8905621  60.9322187 103.5225559 156.9362266  69.6066689
 103.1822380 156.1370079  70.0087369 102.8164565 157.2363976  69.0343522
 104.1742031 154.0211578  68.0594012 104.9968100 153.5472056  67.9372902
 104.4180095 154.8002062  68.5592698 102.8150266 157.0499836  58.3556914
 103.5358628 157.4281089  57.8520630 102.1915570 157.7688713  58.4591892
 106.9581388 157.7544985  59.2915246 107.1745003 158.6369623  58.9904074
 106.4775456 157.3631199  58.5620888 101.6980610 160.7130699  65.8685991
 101.5525190 161.0271002  66.7610272 101.2205813 161.3315599  65.3156889
 103.5576993 157.7033247  65.9166880 103.5438561 156.8074340  65.5799178
 104.2749421 157.7103910  66.5505166 105.4103123 158.1370587  67.9620008
 105.1520901 159.0587657  67.9604338 104.8788164 157.7401021  68.6520472
  96.1726272 163.2536043  68.8073652  95.6279740 164.0295851  68.9393926
  97.0505622 163.6006847  68.6492773 102.9613889 156.5847627  61.1854450
 103.0829800 155.6564273  61.3845338 102.6715931 156.5986313  60.2732766
 105.8305079 154.2702537  64.3221170 105.8526776 154.3341870  63.3673150
 106.2473138 153.4307046  64.5161676  96.9592294 162.3805939  71.7003809
  96.2174030 162.5288575  72.2868439  96.6385038 162.6414205  70.8370558
 102.3730441 169.6197836  65.8011877 101.7510450 168.9568541  65.5014105
 103.0435308 169.6458968  65.1185525 102.4454968 158.0979624  75.3944383
 102.4943124 158.9741747  75.0122152 102.9877482 157.5557017  74.8216026
 101.9343948 168.1701760  59.2770337 102.0832068 168.8537224  58.6237010
 102.7410391 168.1506850  59.7919793 110.3411451 161.4744142  73.3037555
 111.2421314 161.3350607  73.0121553 110.4159426 161.6398597  74.2435733
 104.6754257 158.8510997  72.1490742 103.8057566 159.1444563  71.8773330
 104.9113737 159.4351442  72.8698005 112.8013074 163.0342770  70.7000328
 113.2767196 163.2270416  69.8919179 111.8778639 163.0901956  70.4543712
  99.6896581 164.1966937  60.2831406  99.4442622 163.2929267  60.4811616
  99.8592495 164.1984088  59.3410884 107.3793290 155.0690614  69.6656162
 107.8975234 155.8051641  69.3402650 107.0248423 155.3754607  70.5002921
  98.9592228 159.9295295  57.7817568  98.2661473 160.0039650  57.1257604
  98.7143980 159.1655638  58.3039085 107.6305885 151.4890896  65.1857059
 107.9107638 150.8214085  65.8117485 108.4156491 151.6819992  64.6731722
 111.5014743 159.9108530  68.9328634 112.4532166 160.0106628  68.9540858
 111.3318193 159.1186799  69.4426718 109.5229122 156.9964113  69.1188035
 108.9279054 157.2769126  68.4234523 109.2378819 157.4858014  69.8904776
 113.9802821 163.1314650  68.0470933 113.9479141 162.1930651  68.2330617
 114.5903444 163.2098687  67.3136758 105.8186152 162.0010703  54.0898137
 106.7645256 161.8716911  54.1586555 105.4400397 161.2625365  54.5667565
 114.1297309 159.9225693  68.0929216 113.6136358 159.1384150  67.9059145
 115.0137258 159.5944410  68.2575736 111.7908036 153.6666709  64.0525029
 111.5932857 153.3581797  64.9368361 112.4007742 154.3928348  64.1822959
 105.7024844 166.0528449  75.5498794 106.6227854 166.2307048  75.7438841
 105.6674427 165.1084494  75.3978494 104.0029069 159.9260679  54.0253023
 103.0960524 159.6293792  54.1015736 104.2805050 159.6290497  53.1587309
  94.9207009 161.2467043  64.4752069  94.6009793 160.3932351  64.1826443
  94.3740437 161.4615621  65.2310036  98.6986917 163.9629484  68.1921575
  98.9172926 164.8946591  68.2109609  99.1112690 163.6037458  68.9776379
 105.6191134 154.4697569  60.1797264 104.8091863 154.1244654  60.5552510
 106.3075551 154.1605113  60.7684875 107.5481683 153.5475616  61.8021560
 108.1012721 153.9671069  62.4611584 107.7851769 152.6211364  61.8444516
 103.5714782 159.5362689  77.5824324 103.4711509 160.4857046  77.5136415
 103.3536324 159.2080928  76.7100394 102.7727853 156.7847614  54.1665002
 103.6347017 157.1102513  54.4260819 102.9578198 155.9979110  53.6538068
  94.7895269 164.8669954  66.4445191  94.0958741 164.4523907  65.9315145
  95.5368260 164.9090491  65.8478609 110.9260490 155.6576141  61.3100225
 110.3459159 156.3160945  60.9278277 110.6596423 154.8353485  60.8987642
 109.3764056 155.0581199  63.5121545 109.8763835 155.1697733  62.7035864
 110.0199664 154.7542251  64.1522353 103.4346052 162.9659828  76.3989386
 102.9513134 163.7660188  76.6053275 103.5206991 162.9767773  75.4456830
  96.7032012 164.7988208  64.3211205  96.6802700 164.8975895  63.3693088
  97.0132648 165.6453359  64.6428372  99.3619390 166.8564363  68.4357820
 100.3162643 166.8248305  68.3687751  99.1631913 166.3954987  69.2508046
  99.9518772 165.4265479  71.0028617 100.7711661 165.9209558  71.0263455
 100.2255579 164.5097447  70.9746185 109.7085368 157.8176231  60.3656573
 108.8211223 158.1025882  60.1476768 110.1239357 157.6569995  59.5183850
 113.0599904 157.8422752  64.0810912 113.8360294 158.3319205  64.3535529
 112.3348038 158.2680806  64.5382782 115.4972463 158.5550371  65.1384853
 116.0916953 158.3146107  64.4278161 115.5699046 157.8357502  65.7658389
 109.6826392 163.3330767  60.5806863 109.6261593 163.7899319  59.7414496
 110.2354734 162.5721452  60.4029706 113.4931198 159.1220499  61.4056983
 113.2368132 158.7217135  62.2365190 112.8684066 159.8364293  61.2807122
 110.4161171 164.5235548  57.8759392 110.3609975 164.3579820  56.9347836
 109.7907226 165.2311581  58.0321582  95.2053686 159.7603613  71.7020815
  95.8512549 159.2502567  72.1908040  94.9970837 160.4972294  72.2764240
 107.7307078 166.8284460  77.2012955 108.5998238 167.0025113  76.8399590
 107.2513830 167.6478877  77.0788684 103.7257296 154.0243657  57.4544711
 103.7135966 154.9685497  57.6112982 104.6180718 153.8413803  57.1604172
 107.5409416 150.6186434  61.7090648 106.7741812 150.0644921  61.8547330
 107.9520121 150.6908303  62.5704799  99.5451177 156.9071230  75.7995829
 100.4082638 156.5508035  76.0099153  98.9716588 156.5685125  76.4871233
  21.8355765  17.5807950  53.3303536  22.4734175  17.4614697  52.6266876
  21.7176608  18.5288794  53.3891489  18.6445471  17.5335378  53.2665061
  18.3063982  17.4176443  52.3785596  19.5135239  17.1326543  53.2466067
  14.5032287  19.3870854  49.2561952  13.9397152  19.2960791  48.4878240
  14.3884682  18.5670759  49.7364445  19.1265254  18.6870230  59.2251267
  19.1153895  18.2923028  58.3531770  19.2885893  17.9536302  59.8185038
  12.0496719  20.8822046  52.0946173  12.8418010  20.5412870  51.6792472
  12.2893369  20.9917021  53.0148326  20.0831845  23.0541822  44.5676417
  19.4319825  23.6395902  44.1810431  20.8776208  23.5848017  44.6271454
  14.0087472  20.1430959  44.9663551  14.7818348  19.5959946  44.8276427
  14.3612871  21.0075208  45.1778013  15.8472515  21.4707341  58.1730451
  15.5562381  22.3752972  58.0577117  16.4829499  21.5123869  58.8874520
  16.7728722  18.8484190  54.7631810  17.3692294  18.6240212  54.0488773
  16.8303693  18.1068935  55.3657258  21.3897033  15.3059404  50.4056744
  22.1760122  14.8878827  50.0547161  21.6535737  16.2105496  50.5738393
  21.5607110  20.7432254  45.1045401  20.9252943  20.8166880  45.8166306
  21.2304517  21.3325853  44.4264481  26.7905460  15.2434637  51.3089723
  27.5230632  14.6733854  51.5427552  26.0344816  14.8556237  51.7496229
  16.0650039  18.2051731  44.8006376  15.9486297  17.5296635  45.4687460
  16.1752299  17.7184105  43.9838529  18.4081580  17.6661878  48.5053065
  18.0439787  17.1392499  49.2165987  19.2648696  17.2760347  48.3319551
  24.3130881   8.9556211  55.7684332  23.9814205   9.8251622  55.5445547
  23.7176494   8.6392495  56.4478362  20.8062400  21.1568757  55.1680244
  20.5063123  22.0593796  55.0596052  20.4613460  20.8900940  56.0201397
  14.2574882  17.6082554  51.2016949  13.3325378  17.4758768  51.4094640
  14.5059295  18.3876773  51.6986891  24.2059544  13.6751297  52.8477682
  23.2976421  13.6066705  52.5536443  24.1547140  14.1523242  53.6759507
  11.6183693  17.2515827  52.0360738  11.7476074  17.5050306  52.9500150
  10.9381144  17.8443535  51.7165393  15.7883180  27.9213077  48.1351212
  15.7107210  28.8720902  48.2139693  15.1844824  27.5758950  48.7926138
  18.2800410  15.0940943  60.7912579  17.5033744  15.6534863  60.7815444
  18.9190973  15.5797726  61.3127449  26.0721190  11.8767735  54.6255556
  25.4295571  12.1700269  53.9795350  25.5676119  11.7620656  55.4308752
  23.7261354  15.6230909  45.3141415  24.6379210  15.8558295  45.1389112
  23.2171001  16.2067953  44.7516493  16.5346782  17.9026396  60.3530546
  17.2761466  18.4411440  60.0765370  15.8283767  18.5292685  60.5102098
  22.0102122  20.0455536  58.9502707  22.4185478  19.6037947  58.2057340
  21.2879383  19.4708164  59.2036900  18.3633192  14.9828143  56.3236264
  19.2094387  15.4067557  56.4670913  18.3031829  14.3261768  57.0174827
  22.3330936  20.6056727  52.7054996  21.7039799  20.7702441  52.0031064
  21.9456598  21.0198337  53.4765960  26.2120168  21.5411165  50.0599360
  25.5271206  21.9210066  49.5096393  26.2964018  22.1506492  50.7931308
  21.5132637  12.6432512  57.9817438  21.2693569  13.3974572  57.4451714
  21.7892568  13.0217859  58.8164685  23.4671100  19.1871124  56.6594704
  23.6787995  19.8302884  55.9829085  23.4200848  18.3533441  56.1916634
  21.0697329  11.7988945  53.5631276  20.2081808  12.0970198  53.8548013
  21.0959763  12.0159343  52.6312308  17.8858898  20.3431135  49.9705081
  18.3497244  20.6218838  49.1809704  17.6215696  19.4414580  49.7878172
  14.7782979  19.8902617  52.9084845  15.3484336  20.3189885  52.2702329
  15.3691091  19.6085201  53.6069030  16.8227784  16.4654288  46.7794647
  17.5251828  16.9175331  47.2468573  16.4908413  15.8238106  47.4074540
  15.2708146  15.0566044  61.1545856  14.6406806  15.7382325  61.3881253
  15.1644234  14.9449126  60.2098994  24.5816928  22.0643079  54.8317061
  25.4034371  21.6623267  54.5499743  24.5779331  21.9611314  55.7833177
  18.3473531  21.6127123  56.9877771  18.4117964  22.0747530  57.8235943
  17.6384455  20.9824488  57.1160081  32.6722921  18.4081828  51.1802032
  31.9186629  17.8389226  51.0246037  32.8070462  18.3744492  52.1272667
  18.0621549  23.2795230  46.8556752  17.9267224  24.1246766  47.2841600
  18.6031361  23.4814508  46.0922686  11.5150946  20.7970668  47.4284677
  12.0275467  21.5913918  47.5790241  12.1673659  20.0996959  47.3618278
  13.3245831  23.9136424  49.5107430  13.5012459  24.8354389  49.3228414
  14.1202664  23.5994844  49.9401810  19.6890025  23.9018797  60.9857094
  19.2453879  23.1155175  60.6677998  20.3507239  24.0897947  60.3200985
  14.4477146  25.4314598  55.5117772  14.9984572  25.3031662  54.7394766
  13.6088622  25.7309487  55.1612665  21.7871263  24.1821597  59.0138495
  21.7689739  25.0030478  58.5218764  22.7091183  24.0575672  59.2388636
  18.2444317  21.6965726  59.8562003  18.7772654  20.9354014  59.6261311
  17.7158399  21.4039378  60.5986158   9.4799863  19.1259322  48.2044247
  10.3175085  19.5356331  47.9877955   9.6578131  18.1858765  48.1744441
  21.3764295  16.7934403  43.8928080  20.8610919  17.5639008  44.1316468
  21.1041604  16.1199539  44.5161142  18.9611406  11.6384104  48.9513319
  18.1053003  11.2490954  48.7718957  19.3738358  11.7176065  48.0913104
  26.3498569  19.5466758  45.8281254  25.5728012  19.2077917  45.3836416
  27.0290050  19.5519381  45.1536219  21.1650598  14.6661495  45.7187861
  20.8600734  14.9807644  46.5698005  22.1181040  14.7442915  45.7615194
  19.6097030  20.8251719  47.3680815  19.0818392  20.0904478  47.0554053
  19.1084533  21.6026395  47.1220784  24.5889876  19.0200739  52.4847862
  23.9313551  19.7100000  52.5727990  25.3930275  19.4097171  52.8281848
  23.3995335  17.3745112  50.5351804  23.9127217  18.0075104  51.0373513
  24.0496559  16.7746307  50.1695164  20.6617709  27.3529436  43.2912475
  19.9879408  27.6561133  43.8997432  21.0483531  28.1558516  42.9417932
  19.8776166  14.8494567  52.7810144  18.9598727  15.0709514  52.6231832
  20.2936309  14.9240878  51.9221851  20.6611214  16.2485983  47.9112824
  21.4083033  16.7607380  47.6019946  20.9302803  15.9270036  48.7717218
  18.9337864  18.7444524  44.8939779  18.0249083  18.4603557  44.9912248
  18.9632948  19.1643602  44.0343085  24.1657131  22.3551113  48.6630946
  23.7119458  21.5142023  48.7196137  23.5351098  22.9912512  49.0005726
  23.1090051  13.2843099  49.8931614  22.3712808  12.7720485  50.2241856
  23.3616824  12.8443481  49.0814890  22.6090070  24.1927610  49.5980764
  22.9013045  24.7532667  48.8793130  23.1188691  24.4856171  50.3533923
  17.4822758  16.3573144  50.9949574  17.5371368  15.4046981  50.9192051
  16.6713960  16.5132583  51.4790872  18.6313952  20.2853267  42.2327857
  18.1933382  19.5689126  41.7733495  19.3724392  20.5129382  41.6712949
  15.4215118  14.9750204  48.7539953  14.6082983  15.2744375  49.1605145
  15.9174112  14.5805893  49.4714435  17.5723696  24.9707961  50.6874217
  17.5299874  25.1968807  49.7582750  18.4886394  24.7371336  50.8360019
  21.0189329  15.4392029  57.5854847  21.3738717  15.6663502  58.4449312
  21.6661461  15.7710405  56.9632102  26.7487066  18.5610464  48.2904176
  26.6104965  18.7512060  47.3625365  26.3923285  19.3229847  48.7472227
  26.7756446  20.6286991  53.3015447  27.2092953  20.5362281  54.1498501
  27.4888027  20.6044492  52.6635463  15.6889496  21.8470990  50.4836180
  16.4830095  21.3521310  50.2818755  14.9781189  21.3188853  50.1203886
  20.5084341  24.2289086  54.8348548  20.5621363  24.7980022  55.6026264
  19.6399122  24.3990971  54.4702585  27.6371996  20.6710692  55.8348333
  27.8307886  21.5756503  56.0807608  27.5372614  20.2118111  56.6686918
  19.2908306  10.5568583  58.3338660  18.6436221  11.2558532  58.2403136
  20.0609322  10.9904727  58.7014908  22.6987104  20.8217435  61.4089213
  22.5472611  20.5927986  60.4919297  22.6891784  21.7788036  61.4220558
  19.4672441  18.3949348  56.3935480  20.3964501  18.5460507  56.2204447
  19.0463471  18.4833368  55.5384126  18.2660772  22.4200012  54.1634017
  18.1271858  22.0518796  55.0359955  17.4775369  22.9347651  53.9917975
  18.8608924  27.5209108  45.5059554  19.0360680  27.0497152  46.3205177
  18.1741712  28.1474875  45.7340815  19.8165988  21.7981615  51.5522855
  19.4815820  21.7582385  52.4480505  19.3169933  21.1326331  51.0793265
  13.7910232  17.2049245  57.0775436  13.6530029  16.4729484  57.6786975
  14.7015155  17.1158145  56.7959624  22.7525179  19.1437649  41.8259915
  22.1354350  18.4184477  41.7292967  22.2841668  19.9047009  41.4826989
  16.4192532  16.9169204  56.5659116  17.1292151  16.2762396  56.5245734
  16.3761840  17.1682099  57.4885297  24.4079311  23.8536557  59.4865695
  24.3491857  23.1695777  58.8196278  24.8098829  24.5955547  59.0346321
  13.4270010  30.6698471  52.2799414  13.6666608  31.3016995  52.9578433
  12.5839206  30.3186511  52.5664773  24.4096718  21.8176141  57.7179675
  23.5223497  21.4802063  57.8406074  24.9795269  21.0859173  57.9548440
  17.9397872  26.4777594  54.6840918  17.8668043  27.2832565  55.1960223
  17.4975265  26.6769559  53.8588939  17.7287651  25.7149364  48.1943740
  16.9455173  26.2571044  48.2881964  18.4280396  26.2323343  48.5937981
  21.0384301  11.5243993  50.8377945  21.5353001  10.7713955  50.5179015
  20.2671283  11.5608310  50.2721154  28.8914059  17.2284359  52.4796236
  28.8803935  18.1109074  52.1090170  28.0231438  16.8755909  52.2850773
  20.3996555  26.3764428  56.8399077  21.1124527  27.0111892  56.7674978
  19.9086584  26.4728294  56.0239078  22.1214082  20.2815680  48.4116368
  21.1870361  20.4017143  48.2421073  22.2990750  19.3788147  48.1476378
  17.6219270  13.6661376  50.5649630  17.2517058  13.1132417  51.2530535
  18.1178362  13.0619510  50.0124630  25.5086633  16.1233000  48.9466402
  25.9747086  16.9560991  48.8726705  25.9594134  15.6577981  49.6511661
  15.4508469  24.1258871  57.6604647  16.1517928  24.7595354  57.8134042
  14.9803584  24.4673603  56.9000287  23.5762864  22.4676821  45.9452554
  23.8522708  22.3533416  46.8546429  22.7067363  22.0694306  45.9064728
  23.4803296   8.4913587  52.9857304  22.5666376   8.7217813  53.1539511
  23.9096398   8.5752031  53.8371336  23.2509755  16.6803479  55.4857198
  22.5981205  16.9279386  54.8309651  23.6290134  15.8667617  55.1519675
  20.2116928  26.7163172  49.5885368  20.3939323  25.8984828  50.0513120
  21.0349914  26.9330864  49.1510258  20.5459094  25.6431357  46.8500417
  21.0746860  25.1323811  46.2370579  20.8087314  25.3273887  47.7145950
  19.2997328  17.4223290  61.9723235  18.6237965  17.3217419  62.6425610
  20.1224961  17.2662503  62.4359232  11.0476187  23.6595226  54.5935750
  11.6329623  22.9138914  54.7263654  10.8501025  23.9699183  55.4772414
  13.9014842  26.6946474  49.6098193  13.2325217  27.1792601  49.1262233
  13.7627712  26.9415694  50.5241571  18.0420110  28.7290217  56.2080851
  18.5938418  28.8921839  56.9729936  18.3826304  29.3194655  55.5360876
  22.8930985  23.5551475  62.0629505  23.4370889  24.1681433  61.5684460
  22.3117830  24.1131053  62.5796518  21.1788498  26.6772193  53.1944533
  21.0539637  25.8761932  52.6855479  21.8367589  27.1718386  52.7058503
  23.2423406  24.4781213  54.8224083  22.2953742  24.3586564  54.7502410
  23.5906179  23.5903711  54.9050345  20.2469839  24.2733929  51.0228435
  20.0994802  23.3450636  51.2036005  21.0723333  24.2954020  50.5385511
  23.8503961  25.0962488  52.1093308  24.7750509  24.8905349  51.9717759
  23.6819265  24.8478889  53.0182650  14.9830575  15.0857480  52.5931297
  14.8375156  15.3997783  53.4855579  14.5055779  15.7042380  52.0402196
  18.6953089  12.5097368  54.6865314  18.4370867  13.4314439  54.6849645
  18.1638129  12.1127803  55.3765778  23.6399277  25.6148155  47.4655400
  23.8136155  25.0494578  46.7129252  24.1328169  26.4149050  47.2834890
   9.4576237  17.6262824  55.5318958   8.9129705  18.4022632  55.6639233
  10.3355587  17.9733629  55.3738080  29.4938669  18.3784578  49.0845699
  29.9369815  17.6291903  48.6864823  28.6165179  18.3694714  48.7019431
  24.6274450  24.9314920  44.5652298  25.3225355  25.5521612  44.7839613
  24.9697600  24.0810271  44.8404676  26.5265873  22.3814625  46.0939629
  27.0517197  22.7201898  45.3688949  26.4388226  21.4461640  45.9102763
  18.1885922  26.2948699  58.2229505  18.4973048  26.0497845  59.0952205
  18.9861404  26.4995337  57.7348375  18.2106534  28.4486608  50.4534882
  17.7711524  27.9562987  51.1467739  18.9614651  27.9059576  50.2126957
  10.6898873  24.6398149  50.4559510  11.5156893  24.3401921  50.0758153
  10.3392925  23.8705772  50.9049299  15.6580406  23.9924617  52.5257183
  15.0360415  23.3295322  52.2259411  16.3285273  24.0185749  51.8430831
   8.8907478  22.5584476  51.4148443   8.0539386  22.1306650  51.2332445
   8.8631123  22.7516919  52.3519235  26.2159779  23.0147529  61.3990827
  25.4255323  22.9971668  60.8595326  25.9793134  23.5535822  62.1539863
  26.3357654  19.8639995  58.7123555  26.3855659  19.6990002  59.6539078
  26.2271578  18.9967254  58.3221436  15.2193913  22.5428541  46.0015644
  15.3682033  23.2264005  45.3482317  16.0260356  22.5233631  46.5165100
  23.6261417  15.8470923  60.0282862  24.5271279  15.7077388  59.7366860
  23.7009391  16.0125378  60.9681039  17.9604222  13.2237778  58.8736048
  17.0907531  13.5171344  58.6018637  18.1963702  13.8078223  59.5943312
  27.8375851  22.2836937  58.9565577  27.5460659  22.6466917  59.7929038
  27.2247982  21.5703945  58.7778909  29.0371533  19.8489816  51.4768147
  29.8718425  20.2879620  51.6405707  29.1730662  19.3728470  50.6576393
  26.0863039  17.4069551  57.4245635  26.5617161  17.5997198  56.6164486
  25.1628605  17.4628737  57.1789018  12.9746546  18.5693718  47.0076713
  12.7292588  17.6656048  47.2056923  13.1442460  18.5710869  46.0656191
  20.6643256   9.4417395  56.3901469  21.1825200  10.1778422  56.0647957
  20.3098389   9.7481388  57.2248228  18.7189318  25.0376671  43.4727391
  18.1463285  25.6566858  43.0197863  19.2922112  25.5876033  44.0067313
  24.7864708  14.2835311  55.6573940  25.7382131  14.3833409  55.6786164
  24.6168159  13.4913580  56.1672025  22.8079088  11.3690894  55.8433341
  22.2129020  11.6495907  55.1479830  22.5228784  11.8584795  56.6150082
  21.9386578  25.3213821  44.6035974  22.8717251  25.2559383  44.8068849
  21.8509791  26.1570088  44.1450506  24.5674595  24.6379692  41.5639921
  24.4888226  24.3039555  42.4575679  25.3884262  25.1301460  41.5631394
  27.2652786  17.5041431  54.7716240  27.2329106  16.5657432  54.9575924
  27.8753410  17.5825468  54.0382065  27.4147275  14.2952474  54.8174523
  26.8986323  13.5110931  54.6304452  28.2987223  13.9671191  54.9821043
  25.0758001   8.0393490  50.7770336  24.8782823   7.7308578  51.6613668
  25.6857707   8.7655129  50.9068266  33.0829336  18.5657438  53.9122277
  33.8132724  18.3042726  54.4729980  32.4736281  17.8286160  53.9524345
  31.1644633  16.7065300  54.5096728  30.4377797  16.5721265  53.9013219
  30.7491920  17.0142129  55.3153446  18.9874809  20.4255230  62.2744101
  19.9077819  20.6033829  62.4684147  18.9524392  19.4811275  62.1223800
  11.9836882  18.3356265  54.9166882  12.2022892  19.2673373  54.9354916
  12.3962656  17.9764239  55.7021686  16.8564747  13.9089470  64.3069631
  16.7561474  14.8583827  64.2381722  16.6386289  13.5807709  63.4345701
   8.0745234  19.2396735  53.1690497   7.3808706  18.8250688  52.6560452
   8.8218225  19.2817272  52.5723916  24.2110455  10.0302922  48.0345531
  23.6309124  10.6887726  47.6523584  23.9446388   9.2080267  47.6232949
  22.6614022   9.4307980  50.2366852  23.1613800   9.5424514  49.4281171
  23.3049629   9.1269033  50.8767660  16.7196017  17.3386609  63.1234693
  16.2363099  18.1386969  63.3298582  16.8056956  17.3494554  62.1702137
   9.9881977  19.1714989  51.0456512   9.9652665  19.2702676  50.0938395
  10.2982613  20.0180140  51.3673678  12.6469355  21.2291144  55.1603126
  13.6012608  21.1975086  55.0933058  12.4481878  20.7681768  55.9753352
  13.2368737  19.7992260  57.7273924  14.0561626  20.2936339  57.7508761
  13.5105545  18.8824228  57.6991492  22.9935333  12.1903012  47.0901880
  22.1061188  12.4752663  46.8722074  23.4089322  12.0296776  46.2429157
  26.3449869  12.2149533  50.8056219  27.1210259  12.7045986  51.0780836
  25.6198003  12.6407588  51.2628088  28.7822428  12.9277153  51.8630160
  29.3766919  12.6872889  51.1523468  28.8549012  12.2084283  52.4903696
  11.0019584  26.7710764  52.1773324  10.8674052  26.0111164  51.6111322
  10.5851646  27.4951663  51.7102113  22.1378547  21.9547687  41.1849900
  22.8414397  22.1597690  41.8007555  21.4141195  22.5224449  41.4498983
  22.9676357  17.7057548  47.3052170  22.9111558  18.1626100  46.4659802
  23.5204699  16.9448233  47.1275013  26.7781163  13.4947280  48.1302289
  26.5218097  13.0943916  48.9610497  26.1534031  14.2091074  48.0052428
  31.0893501  16.2343353  50.6373581  30.5293059  16.3036543  51.4105143
  30.4837004  16.0584338  49.9173077  14.1588710  27.6680081  52.3891767
  14.0421094  28.6125513  52.2870457  13.3381156  27.3653642  52.7777566
  24.0465244  22.3930216  43.2348360  24.8810848  21.9611415  43.0525834
  23.8849587  22.2212230  44.1625254  23.7011136  18.8962330  44.6004699
  23.6459940  18.7306601  43.6593143  23.0757192  19.6038362  44.7566889
  21.0157043  21.2011241  63.9258262  21.8848203  21.3751894  63.5644897
  20.5363795  22.0205658  63.8033991  15.1843224  28.3208342  55.6047695
  16.0870470  28.3531953  55.9214190  14.9580594  27.3908793  55.6194031
  16.9396826  27.0739329  52.2657774  15.9892457  27.0741191  52.1522146
  17.2429312  26.3272064  51.7493809  32.6749519  32.9099867  53.3303536
  33.3127929  32.7906615  52.6266876  32.5570362  33.8580711  53.3891489
  29.4839225  32.8627295  53.2665061  29.1457737  32.7468360  52.3785596
  30.3528994  32.4618461  53.2466067  25.3426041  34.7162772  49.2561952
  24.7790906  34.6252709  48.4878240  25.2278436  33.8962676  49.7364445
  29.9659008  34.0162147  59.2251267  29.9547649  33.6214945  58.3531770
  30.1279648  33.2828220  59.8185038  22.8890473  36.2113963  52.0946173
  23.6811765  35.8704788  51.6792472  23.1287123  36.3208939  53.0148326
  30.9225600  38.3833740  44.5676417  30.2713580  38.9687820  44.1810431
  31.7169963  38.9139935  44.6271454  24.8481227  35.4722877  44.9663551
  25.6212103  34.9251864  44.8276427  25.2006626  36.3367126  45.1778013
  26.6866270  36.7999259  58.1730451  26.3956136  37.7044890  58.0577117
  27.3223254  36.8415787  58.8874520  27.6122476  34.1776108  54.7631810
  28.2086049  33.9532130  54.0488773  27.6697448  33.4360853  55.3657258
  27.1847505  31.6315543  42.5982001  27.4373025  31.1097064  41.8365464
  26.2472064  31.4681688  42.7008685  32.2290788  30.6351321  50.4056744
  33.0153877  30.2170744  50.0547161  32.4929492  31.5397413  50.5738393
  32.4000865  36.0724172  45.1045401  31.7646698  36.1458798  45.8166306
  32.0698271  36.6617770  44.4264481  37.6299215  30.5726554  51.3089723
  38.3624387  30.0025771  51.5427552  36.8738570  30.1848155  51.7496229
  26.9043794  33.5343649  44.8006376  26.7880052  32.8588552  45.4687460
  27.0146053  33.0476023  43.9838529  29.2475334  32.9953796  48.5053065
  28.8833542  32.4684417  49.2165987  30.1042450  32.6052265  48.3319551
  35.1524635  24.2848129  55.7684332  34.8207960  25.1543540  55.5445547
  34.5570248  23.9684413  56.4478362  28.8880821  28.0243696  43.5014414
  29.0555224  28.8923932  43.8684885  28.6977991  28.1870977  42.5775703
  31.6456155  36.4860675  55.1680244  31.3456878  37.3885713  55.0596052
  31.3007214  36.2192858  56.0201397  25.0968636  32.9374471  51.2016949
  24.1719133  32.8050685  51.4094640  25.3453049  33.7168691  51.6986891
  35.0453298  29.0043215  52.8477682  34.1370176  28.9358623  52.5536443
  34.9940894  29.4815160  53.6759507  28.8670042  30.4801353  44.4861081
  28.7469668  30.9258404  45.3246561  28.1722631  30.8286671  43.9274619
  22.4577447  32.5807745  52.0360738  22.5869828  32.8342224  52.9500150
  21.7774898  33.1735453  51.7165393  26.6276934  43.2504995  48.1351212
  26.5500964  44.2012820  48.2139693  26.0238578  42.9050867  48.7926138
  29.1194164  30.4232860  60.7912579  28.3427498  30.9826780  60.7815444
  29.7584727  30.9089643  61.3127449  36.9114945  27.2059653  54.6255556
  36.2689325  27.4992186  53.9795350  36.4069873  27.0912573  55.4308752
  34.5655108  30.9522826  45.3141415  35.4772965  31.1850213  45.1389112
  34.0564756  31.5359871  44.7516493  27.3740537  33.2318314  60.3530546
  28.1155221  33.7703358  60.0765370  26.6677522  33.8584602  60.5102098
  32.8495876  35.3747454  58.9502707  33.2579232  34.9329865  58.2057340
  32.1273138  34.8000082  59.2036900  29.2026946  30.3120061  56.3236264
  30.0488141  30.7359474  56.4670913  29.1425584  29.6553685  57.0174827
  33.1724691  35.9348645  52.7054996  32.5433553  36.0994359  52.0031064
  32.7850353  36.3490254  53.4765960  37.0513923  36.8703083  50.0599360
  36.3664961  37.2501984  49.5096393  37.1357772  37.4798409  50.7931308
  32.3526392  27.9724429  57.9817438  32.1087323  28.7266490  57.4451714
  32.6286322  28.3509777  58.8164685  34.3064854  34.5163042  56.6594704
  34.5181750  35.1594802  55.9829085  34.2594603  33.6825358  56.1916634
  31.9091083  27.1280862  53.5631276  31.0475562  27.4262116  53.8548013
  31.9353518  27.3451261  52.6312308  28.7252653  35.6723053  49.9705081
  29.1890998  35.9510756  49.1809704  28.4609451  34.7706497  49.7878172
  25.6176734  35.2194534  52.9084845  26.1878091  35.6481803  52.2702329
  26.2084846  34.9377119  53.6069030  27.6621539  31.7946205  46.7794647
  28.3645582  32.2467249  47.2468573  27.3302167  31.1530024  47.4074540
  26.1101900  30.3857962  61.1545856  25.4800561  31.0674243  61.3881253
  26.0037988  30.2741043  60.2098994  21.4046873  30.0529758  52.0811780
  20.6145927  30.3087286  51.6051891  21.8958120  30.8678096  52.1863821
  35.4210682  37.3934997  54.8317061  36.2428126  36.9915184  54.5499743
  35.4173085  37.2903231  55.7833177  23.3561618  30.4174337  49.0395257
  22.5592781  30.5293031  49.5578752  23.1287210  30.7560989  48.1736147
  29.1867286  36.9419040  56.9877771  29.2511718  37.4039448  57.8235943
  28.4778210  36.3116405  57.1160081  19.6884576  30.3060248  54.5126771
  19.9392614  31.1907258  54.7784347  20.2244124  30.1264850  53.7401863
  43.5116675  33.7373746  51.1802032  42.7580384  33.1681144  51.0246037
  43.6464217  33.7036410  52.1272667  28.9015303  38.6087148  46.8556752
  28.7660978  39.4538684  47.2841600  29.4425116  38.8106425  46.0922686
  25.3882643  24.6878728  63.5171107  24.9949589  24.1344926  64.1918751
  26.2048783  24.9989306  63.9077624  22.3544701  36.1262586  47.4284677
  22.8669221  36.9205836  47.5790241  23.0067414  35.4288876  47.3618278
  24.1639585  39.2428342  49.5107430  24.3406214  40.1646307  49.3228414
  24.9596419  38.9286761  49.9401810  28.3050604  26.1036607  61.1091364
  29.0460317  26.7043760  61.0295826  28.5368527  25.3614245  60.5509406
  23.4491942  31.2892974  59.3869593  23.3345457  30.3878231  59.6876692
  22.5936460  31.5356671  59.0354410  30.5283780  39.2310714  60.9857094
  30.0847634  38.4447093  60.6677998  31.1900993  39.4189865  60.3200985
  25.2870901  40.7606516  55.5117772  25.8378326  40.6323579  54.7394766
  24.4482377  41.0601405  55.1612665  32.6265018  39.5113514  59.0138495
  32.6083493  40.3322395  58.5218764  33.5484938  39.3867589  59.2388636
  29.0838072  37.0257644  59.8562003  29.6166409  36.2645932  59.6261311
  28.5552153  36.7331296  60.5986158  32.2507767  22.1317710  55.3855645
  31.9072036  23.0219351  55.3094756  32.6186730  21.9419367  54.5225230
  20.3193618  34.4551240  48.2044247  21.1568840  34.8648249  47.9877955
  20.4971885  33.5150682  48.1744441  32.2158050  32.1226321  43.8928080
  31.7004673  32.8930925  44.1316468  31.9435358  31.4491457  44.5161142
  29.8005161  26.9676022  48.9513319  28.9446757  26.5782872  48.7718957
  30.2132112  27.0467982  48.0913104  31.3304307  24.5022365  53.3504878
  30.8269103  24.4652500  52.5372684  31.6234914  25.4115108  53.4101535
  27.5747193  24.5861095  52.3571060  28.4400190  24.3903903  51.9976950
  27.6424702  24.3571446  53.2840417  37.1892324  34.8758675  45.8281254
  36.4121767  34.5369835  45.3836416  37.8683805  34.8811299  45.1536219
  32.0044353  29.9953413  45.7187861  31.6994488  30.3099562  46.5698005
  32.9574795  30.0734833  45.7615194  30.4490785  36.1543636  47.3680815
  29.9212146  35.4196396  47.0554053  29.9478287  36.9318313  47.1220784
  35.4283631  34.3492657  52.4847862  34.7707305  35.0391918  52.5727990
  36.2324030  34.7389089  52.8281848  25.1809512  26.8163303  49.7287427
  25.7553264  26.5938484  48.9960620  25.7680495  26.8851997  50.4816028
  34.2389089  32.7037029  50.5351804  34.7520971  33.3367021  51.0373513
  34.8890313  32.1038225  50.1695164  25.5079099  28.8467764  43.7483312
  24.6716412  29.1842450  44.0692587  25.3683869  28.7116743  42.8110449
  27.4832180  23.6904551  48.4562496  26.8296592  23.3753569  47.8319111
  27.4412654  23.0680292  49.1822319  28.5943385  33.9723846  40.3715788
  27.6870447  33.7413100  40.5706937  29.0914417  33.1761466  40.5589770
  31.5011464  42.6821354  43.2912475  30.8273162  42.9853050  43.8997432
  31.8877286  43.4850434  42.9417932  30.7169920  30.1786485  52.7810144
  29.7992482  30.4001432  52.6231832  31.1330064  30.2532795  51.9221851
  31.5004968  31.5777901  47.9112824  32.2476787  32.0899298  47.6019946
  31.7696558  31.2561953  48.7717218  29.7731618  34.0736441  44.8939779
  28.8642838  33.7895474  44.9912248  29.8026702  34.4935520  44.0343085
  35.0050886  37.6843031  48.6630946  34.5513213  36.8433941  48.7196137
  34.3744852  38.3204429  49.0005726  33.9483805  28.6135017  49.8931614
  33.2106562  28.1012403  50.2241856  34.2010579  28.1735399  49.0814890
  33.4483825  39.5219528  49.5980764  33.7406799  40.0824585  48.8793130
  33.9582446  39.8148089  50.3533923  34.0495433  21.3911269  50.4873383
  34.3554309  20.5308632  50.1999298  34.7748037  21.9828889  50.2872377
  20.3419789  31.7941955  48.8754981  20.1444188  31.2011316  48.1506047
  19.7866453  31.4894166  49.5930920  28.3216512  31.6865062  50.9949574
  28.3765122  30.7338898  50.9192051  27.5107714  31.8424501  51.4790872
  29.4707706  35.6145185  42.2327857  29.0327136  34.8981044  41.7733495
  30.2118147  35.8421300  41.6712949  26.2608872  30.3042122  48.7539953
  25.4476738  30.6036292  49.1605145  26.7567866  29.9097810  49.4714435
  28.4117450  40.2999879  50.6874217  28.3693629  40.5260725  49.7582750
  29.3280149  40.0663253  50.8360019  31.8583084  30.7683946  57.5854847
  32.2132472  30.9955419  58.4449312  32.5055215  31.1002323  56.9632102
  37.5880821  33.8902382  48.2904176  37.4498719  34.0803978  47.3625365
  37.2317040  34.6521765  48.7472227  25.7522947  27.8760477  54.3701188
  26.3922326  27.7349236  53.6724151  24.9200478  27.5894991  53.9939790
  37.6150200  35.9578909  53.3015447  38.0486707  35.8654198  54.1498501
  38.3281781  35.9336410  52.6635463  26.5283251  37.1762908  50.4836180
  27.3223849  36.6813228  50.2818755  25.8174943  36.6480771  50.1203886
  31.3478095  39.5581003  54.8348548  31.4015118  40.1271940  55.6026264
  30.4792877  39.7282888  54.4702585  22.8366014  31.3205989  46.5595933
  21.9063602  31.2590445  46.7765895  22.9323486  30.7981942  45.7632574
  22.7551563  27.8460802  49.1474175  23.0158381  28.7606135  49.0383335
  23.5768736  27.3785245  49.2970787  24.2276489  29.2598559  56.3172999
  24.8999542  29.0515922  55.6685648  23.4006275  29.0620645  55.8778231
  38.4765750  36.0002610  55.8348333  38.6701640  36.9048420  56.0807608
  38.3766368  35.5410029  56.6686918  30.1302061  25.8860500  58.3338660
  29.4829976  26.5850450  58.2403136  30.9003076  26.3196644  58.7014908
  33.5380859  36.1509352  61.4089213  33.3866365  35.9219904  60.4919297
  33.5285538  37.1079954  61.4220558  30.3066195  33.7241265  56.3935480
  31.2358255  33.8752425  56.2204447  29.8857225  33.8125286  55.5384126
  29.1054527  37.7491930  54.1634017  28.9665613  37.3810714  55.0359955
  28.3169123  38.2639569  53.9917975  29.7002679  42.8501026  45.5059554
  29.8754435  42.3789069  46.3205177  29.0135467  43.4766792  45.7340815
  30.6559742  37.1273532  51.5522855  30.3209575  37.0874302  52.4480505
  30.1563688  36.4618248  51.0793265  24.6303986  32.5341162  57.0775436
  24.4923784  31.8021401  57.6786975  25.5408909  32.4450062  56.7959624
  33.5918934  34.4729567  41.8259915  32.9748104  33.7476395  41.7292967
  33.1235422  35.2338927  41.4826989  27.2586287  32.2461122  56.5659116
  27.9685905  31.6054314  56.5245734  27.2155595  32.4974017  57.4885297
  35.2473065  39.1828475  59.4865695  35.1885612  38.4987695  58.8196278
  35.6492584  39.9247465  59.0346321  25.9715221  29.2326340  58.3854755
  25.4352578  28.7817078  59.0376352  25.3831929  29.3672248  57.6425220
  24.2663764  45.9990389  52.2799414  24.5060362  46.6308913  52.9578433
  23.4232961  45.6478429  52.5664773  25.3817480  28.6914991  40.9481219
  24.5046946  28.5703792  40.5843466  25.8575233  27.9001069  40.6960108
  35.2490473  37.1468059  57.7179675  34.3617251  36.8093981  57.8406074
  35.8189024  36.4151090  57.9548440  16.9019620  33.4792151  51.0422726
  17.5890660  33.1653881  50.4543741  16.7467748  34.3833515  50.7689978
  21.7054342  28.3682347  55.4707750  21.6212531  27.7608017  54.7358160
  20.8837048  28.8591366  55.4717246  28.7791626  41.8069511  54.6840918
  28.7061798  42.6124483  55.1960223  28.3369019  42.0061477  53.8588939
  28.5681406  41.0441281  48.1943740  27.7848928  41.5862962  48.2881964
  29.2674151  41.5615261  48.5937981  31.8778056  26.8535911  50.8377945
  32.3746755  26.1005873  50.5179015  31.1065037  26.8900227  50.2721154
  39.7307813  32.5576276  52.4796236  39.7197689  33.4400992  52.1090170
  38.8625193  32.2047827  52.2850773  31.2390310  41.7056345  56.8399077
  31.9518282  42.3403810  56.7674978  30.7480338  41.8020211  56.0239078
  32.9607836  35.6107598  48.4116368  32.0264115  35.7309060  48.2421073
  33.1384505  34.7080065  48.1476378  28.4613025  28.9953294  50.5649630
  28.0910812  28.4424334  51.2530535  28.9572117  28.3911427  50.0124630
  36.3480388  31.4524917  48.9466402  36.8140840  32.2852909  48.8726705
  36.7987888  30.9869899  49.6511661  26.2902223  39.4550789  57.6604647
  26.9911683  40.0887272  57.8134042  25.8197338  39.7965520  56.9000287
  34.4156619  37.7968739  45.9452554  34.6916463  37.6825333  46.8546429
  33.5461118  37.3986223  45.9064728  34.3197051  23.8205504  52.9857304
  33.4060130  24.0509731  53.1539511  34.7490152  23.9043948  53.8371336
  34.0903509  32.0095396  55.4857198  33.4374959  32.2571304  54.8309651
  34.4683889  31.1959534  55.1519675  31.0510683  42.0455089  49.5885368
  31.2333077  41.2276745  50.0513120  31.8743669  42.2622782  49.1510258
  31.3852848  40.9723275  46.8500417  31.9140615  40.4615729  46.2370579
  31.6481068  40.6565805  47.7145950  30.1391082  32.7515207  61.9723235
  29.4631719  32.6509337  62.6425610  30.9618716  32.5954421  62.4359232
  21.8869941  38.9887144  54.5935750  22.4723378  38.2430832  54.7263654
  21.6894780  39.2991101  55.4772414  24.7408596  42.0238391  49.6098193
  24.0718972  42.5084519  49.1262233  24.6021466  42.2707612  50.5241571
  16.4787596  31.5592744  53.3140193  16.5171695  31.0256335  54.1077311
  15.9727889  31.0327950  52.6951170  28.8813865  44.0582135  56.2080851
  29.4332173  44.2213756  56.9729936  29.2220058  44.6486573  55.5360876
  23.8578358  26.4057285  56.8102736  23.9219685  27.2672115  56.3980133
  23.7945478  25.7931286  56.0775094  23.3330631  28.4780417  60.4575770
  23.9602670  28.0957494  61.0713294  22.4758550  28.2594619  60.8231462
  33.7324739  38.8843392  62.0629505  34.2764643  39.4973351  61.5684460
  33.1511584  39.4422971  62.5796518  20.1096173  30.2856846  46.3894125
  20.4049615  29.3767525  46.3361178  19.2084209  30.2644586  46.0675127
  32.0182252  42.0064110  53.1944533  31.8933392  41.2053850  52.6855479
  32.6761343  42.5010304  52.7058503  23.6390420  28.3612843  52.3721673
  22.9177006  28.9748811  52.2329147  24.4283676  28.8970608  52.2938319
  34.0817161  39.8073130  54.8224083  33.1347496  39.6878482  54.7502410
  34.4299934  38.9195628  54.9050345  26.4416734  25.6967269  58.6462325
  26.9651136  25.9429566  59.4088634  26.2229067  26.5287304  58.2265462
  21.8384015  27.9670944  46.5133450  21.5096721  27.0868323  46.3308556
  22.1923386  27.9118613  47.4009839  31.0863594  39.6025847  51.0228435
  30.9388556  38.6742554  51.2036005  31.9117087  39.6245937  50.5385511
  24.9525838  28.2543914  46.8808928  25.2921911  28.7829835  46.1587536
  25.3997959  28.5924320  47.6567494  34.6897716  40.4254405  52.1093308
  35.6144263  40.2197267  51.9717759  34.5213019  40.1770806  53.0182650
  27.6469279  26.6380964  56.3311996  27.3066099  25.8388777  56.7332675
  26.9408285  26.9382675  55.7588829  28.2985751  23.7230277  54.7839319
  29.1211820  23.2490755  54.6618209  28.5423814  24.5020761  55.2838005
  26.9393985  26.7518535  45.0802220  27.6602348  27.1299788  44.5765937
  26.3159289  27.4707412  45.1837198  31.0825108  27.4563684  46.0160553
  31.2988723  28.3388322  45.7149381  30.6019175  27.0649898  45.2866195
  25.8224330  30.4149397  52.5931297  25.6768910  30.7289701  53.4855579
  25.3449533  31.0334298  52.0402196  27.6820712  27.4051945  52.6412187
  27.6682281  26.5093039  52.3044485  28.3993141  27.4122609  53.2750473
  29.5346843  27.8389286  54.6865314  29.2764621  28.7606356  54.6849645
  29.0031884  27.4419720  55.3765778  34.4793032  40.9440073  47.4655400
  34.6529909  40.3786495  46.7129252  34.9721923  41.7440968  47.2834890
  20.2969992  32.9554742  55.5318958  19.7523460  33.7314550  55.6639233
  21.1749342  33.3025546  55.3738080  27.0857608  26.2866326  47.9099757
  27.2073520  25.3582972  48.1090644  26.7959651  26.3005012  46.9978072
  29.9548799  23.9721236  51.0466477  29.9770496  24.0360569  50.0918456
  30.3716858  23.1325745  51.2406983  40.3332423  33.7076496  49.0845699
  40.7763569  32.9583821  48.6864823  39.4558933  33.6986632  48.7019431
  35.4668204  40.2606837  44.5652298  36.1619109  40.8813530  44.7839613
  35.8091355  39.4102188  44.8404676  21.0836014  32.0824638  58.4249115
  20.3417750  32.2307273  59.0113746  20.7628758  32.3432904  57.5615865
  37.3659628  37.7106543  46.0939629  37.8910952  38.0493815  45.3688949
  37.2781980  36.7753558  45.9102763  29.0279676  41.6240616  58.2229505
  29.3366803  41.3789763  59.0952205  29.8255158  41.8287255  57.7348375
  29.0500288  43.7778526  50.4534882  28.6105279  43.2854905  51.1467739
  29.8008405  43.2351494  50.2126957  21.5292627  39.9690067  50.4559510
  22.3550647  39.6693839  50.0758153  21.1786679  39.1997689  50.9049299
  26.4974160  39.3216535  52.5257183  25.8754170  38.6587240  52.2259411
  27.1679027  39.3477667  51.8430831  19.7301232  37.8876393  51.4148443
  18.8933141  37.4598568  51.2332445  19.7024878  38.0808837  52.3519235
  26.5698688  27.7998323  62.1189690  26.6186843  28.6760446  61.7367459
  27.1121202  27.2575716  61.5461333  37.0553534  38.3439446  61.3990827
  36.2649077  38.3263585  60.8595326  36.8186888  38.8827740  62.1539863
  37.1751409  35.1931913  58.7123555  37.2249414  35.0281920  59.6539078
  37.0665332  34.3259172  58.3221436  26.0587667  37.8720458  46.0015644
  26.2075788  38.5555923  45.3482317  26.8654111  37.8525548  46.5165100
  34.4655171  31.1762841  60.0282862  35.3665034  31.0369306  59.7366860
  34.5403146  31.3417296  60.9681039  28.7997976  28.5529696  58.8736048
  27.9301286  28.8463262  58.6018637  29.0357457  29.1370141  59.5943312
  38.6769606  37.6128854  58.9565577  38.3854414  37.9758835  59.7929038
  38.0641737  36.8995863  58.7778909  39.8765288  35.1781734  51.4768147
  40.7112179  35.6171538  51.6405707  40.0124417  34.7020387  50.6576393
  36.9256794  32.7361469  57.4245635  37.4010915  32.9289115  56.6164486
  36.0022359  32.7920655  57.1789018  23.8140300  33.8985636  47.0076713
  23.5686342  32.9947966  47.2056923  23.9836215  33.9002787  46.0656191
  31.5037010  24.7709312  56.3901469  32.0218954  25.5070339  56.0647957
  31.1492143  25.0773306  57.2248228  23.0835948  29.6313994  44.5062874
  22.3905193  29.7058349  43.8502910  22.8387700  28.8674337  45.0284391
  31.7549604  21.1909595  51.9102365  32.0351358  20.5232784  52.5362792
  32.5400211  21.3838691  51.3977029  29.5583073  40.3668589  43.4727391
  28.9857040  40.9858776  43.0197863  30.1315867  40.9167951  44.0067313
  35.6258463  29.6127229  55.6573940  36.5775886  29.7125327  55.6786164
  35.4561913  28.8205498  56.1672025  33.6472842  26.6982812  55.8433341
  33.0522774  26.9787825  55.1479830  33.3622539  27.1876713  56.6150082
  32.7780333  40.6505739  44.6035974  33.7111006  40.5851301  44.8068849
  32.6903546  41.4862006  44.1450506  35.4068349  39.9671609  41.5639921
  35.3281981  39.6331473  42.4575679  36.2278016  40.4593377  41.5631394
  38.1046541  32.8333349  54.7716240  38.0722861  31.8949349  54.9575924
  38.7147164  32.9117385  54.0382065  29.9429871  31.7029402  40.8143444
  30.8888976  31.5735610  40.8831862  29.5644116  30.9644064  41.2912872
  38.2541029  29.6244392  54.8174523  37.7380078  28.8402849  54.6304452
  39.1380978  29.2963109  54.9821043  35.9151756  23.3685408  50.7770336
  35.7176577  23.0600496  51.6613668  36.5251462  24.0947047  50.9068266
  43.9223090  33.8949355  53.9122277  44.6526479  33.6334644  54.4729980
  43.3130036  33.1578077  53.9524345  42.0038388  32.0357218  54.5096728
  41.2771551  31.9013183  53.9013219  41.5885674  32.3434047  55.3153446
  29.8268564  35.7547148  62.2744101  30.7471573  35.9325747  62.4684147
  29.7918147  34.8103193  62.1223800  28.1272789  29.6279378  40.7498329
  27.2204244  29.3312491  40.8261043  28.4048770  29.3309196  39.8832615
  19.0450729  30.9485741  51.1997376  18.7253513  30.0951050  50.9071750
  18.4984157  31.1634320  51.9555343  22.8230636  33.6648182  54.9166882
  23.0416646  34.5965290  54.9354916  23.2356410  33.3056157  55.7021686
  29.7434854  24.1716268  46.9042570  28.9335583  23.8263353  47.2797817
  30.4319271  23.8623811  47.4930182  31.6725403  23.2494315  48.5266867
  32.2256441  23.6689768  49.1856890  31.9095489  22.3230063  48.5689823
  27.6958502  29.2381388  64.3069631  27.5955229  30.1875745  64.2381722
  27.4780044  28.9099627  63.4345701  26.8971573  26.4866313  40.8910308
  27.7590737  26.8121212  41.1506126  27.0821917  25.6997809  40.3783374
  18.9138989  34.5688653  53.1690497  18.2202460  34.1542606  52.6560452
  19.6611980  34.6109189  52.5723916  35.0504210  25.3594840  48.0345531
  34.4702879  26.0179644  47.6523584  34.7840142  24.5372184  47.6232949
  33.5007776  24.7599897  50.2366852  34.0007554  24.8716432  49.4281171
  34.1443384  24.4560950  50.8767660  27.5589772  32.6678527  63.1234693
  27.0756854  33.4678887  63.3298582  27.6450711  32.6786472  62.1702137
  20.8275731  34.5006907  51.0456512  20.8046420  34.5994594  50.0938395
  21.1376368  35.3472057  51.3673678  23.4863109  36.5583062  55.1603126
  24.4406363  36.5267004  55.0933058  23.2875633  36.0973685  55.9753352
  24.0762491  35.1284178  57.7273924  24.8955380  35.6228256  57.7508761
  24.3499299  34.2116146  57.6991492  33.8329088  27.5194930  47.0901880
  32.9454943  27.8044581  46.8722074  34.2483077  27.3588693  46.2429157
  37.1843624  27.5441451  50.8056219  37.9604014  28.0337904  51.0780836
  36.4591758  27.9699505  51.2628088  39.6216182  28.2569070  51.8630160
  40.2160673  28.0164806  51.1523468  39.6942766  27.5376201  52.4903696
  21.8413338  42.1002681  52.1773324  21.7067806  41.3403082  51.6111322
  21.4245400  42.8243581  51.7102113  32.9772301  37.2839605  41.1849900
  33.6808151  37.4889607  41.8007555  32.2534950  37.8516367  41.4498983
  33.8070111  33.0349466  47.3052170  33.7505313  33.4918017  46.4659802
  34.3598454  32.2740151  47.1275013  37.6174917  28.8239198  48.1302289
  37.3611852  28.4235834  48.9610497  36.9927785  29.5382992  48.0052428
  41.9287255  31.5635271  50.6373581  41.3686813  31.6328460  51.4105143
  41.3230759  31.3876256  49.9173077  24.9982464  42.9971998  52.3891767
  24.8814848  43.9417431  52.2870457  24.1774910  42.6945560  52.7777566
  34.8858999  37.7222134  43.2348360  35.7204602  37.2903332  43.0525834
  34.7243341  37.5504148  44.1625254  34.5404891  34.2254247  44.6004699
  34.4853695  34.0598519  43.6593143  33.9150946  34.9330280  44.7566889
  19.3297406  29.4622312  58.4266121  19.9756269  28.9521266  58.9153346
  19.1214557  30.1990993  59.0009546  31.8550798  36.5303159  63.9258262
  32.7241958  36.7043811  63.5644897  31.3757549  37.3497576  63.8033991
  27.8501016  23.7262356  44.1790017  27.8379686  24.6704196  44.3358288
  28.7424438  23.5432502  43.8849479  26.0236978  43.6500260  55.6047695
  26.9264225  43.6823870  55.9214190  25.7974348  42.7200711  55.6194031
  27.7790580  42.4031247  52.2657774  26.8286211  42.4033108  52.1522146
  28.0823066  41.6563981  51.7493809  31.6653136  20.3205133  48.4335954
  30.8985531  19.7663620  48.5792637  32.0763841  20.3927002  49.2950106
  23.6694897  26.6089929  62.5241135  24.5326358  26.2526734  62.7344460
  23.0960307  26.2703824  63.2116540  43.5143274  48.2391785  53.3303536
  44.1521684  48.1198532  52.6266876  43.3964117  49.1872629  53.3891489
  40.3232980  48.1919213  53.2665061  39.9851491  48.0760278  52.3785596
  41.1922748  47.7910378  53.2466067  36.1819796  50.0454690  49.2561952
  35.6184661  49.9544627  48.4878240  36.0672191  49.2254594  49.7364445
  40.8052763  49.3454065  59.2251267  40.7941404  48.9506863  58.3531770
  40.9673402  48.6120138  59.8185038  33.7284228  51.5405881  52.0946173
  34.5205519  51.1996706  51.6792472  33.9680878  51.6500856  53.0148326
  41.7619354  53.7125657  44.5676417  41.1107334  54.2979738  44.1810431
  42.5563717  54.2431852  44.6271454  35.6874981  50.8014794  44.9663551
  36.4605857  50.2543782  44.8276427  36.0400380  51.6659044  45.1778013
  37.5260024  52.1291177  58.1730451  37.2349890  53.0336808  58.0577117
  38.1617008  52.1707704  58.8874520  38.4516231  49.5068025  54.7631810
  39.0479803  49.2824048  54.0488773  38.5091202  48.7652771  55.3657258
  38.0241259  46.9607461  42.5982001  38.2766780  46.4388982  41.8365464
  37.0865818  46.7973606  42.7008685  43.0684542  45.9643239  50.4056744
  43.8547631  45.5462662  50.0547161  43.3323246  46.8689331  50.5738393
  43.2394619  51.4016089  45.1045401  42.6040452  51.4750716  45.8166306
  42.9092026  51.9909688  44.4264481  48.4692969  45.9018472  51.3089723
  49.2018141  45.3317689  51.5427552  47.7132325  45.5140073  51.7496229
  37.7437548  48.8635567  44.8006376  37.6273806  48.1880470  45.4687460
  37.8539808  48.3767940  43.9838529  40.0869089  48.3245714  48.5053065
  39.7227296  47.7976335  49.2165987  40.9436205  47.9344183  48.3319551
  45.9918390  39.6140046  55.7684332  45.6601714  40.4835457  55.5445547
  45.3964003  39.2976330  56.4478362  39.7274576  43.3535613  43.5014414
  39.8948978  44.2215850  43.8684885  39.5371745  43.5162895  42.5775703
  42.4849909  51.8152592  55.1680244  42.1850632  52.7177631  55.0596052
  42.1400969  51.5484775  56.0201397  35.9362391  48.2666389  51.2016949
  35.0112887  48.1342603  51.4094640  36.1846804  49.0460608  51.6986891
  45.8847053  44.3335132  52.8477682  44.9763930  44.2650541  52.5536443
  45.8334649  44.8107077  53.6759507  39.7063797  45.8093271  44.4861081
  39.5863422  46.2550322  45.3246561  39.0116385  46.1578588  43.9274619
  33.2971202  47.9099663  52.0360738  33.4263583  48.1634142  52.9500150
  32.6168653  48.5027371  51.7165393  37.4670689  58.5796913  48.1351212
  37.3894719  59.5304738  48.2139693  36.8632333  58.2342785  48.7926138
  39.9587919  45.7524778  60.7912579  39.1821253  46.3118698  60.7815444
  40.5978482  46.2381561  61.3127449  47.7508699  42.5351571  54.6255556
  47.1083080  42.8284104  53.9795350  47.2463628  42.4204491  55.4308752
  45.4048863  46.2814744  45.3141415  46.3166719  46.5142131  45.1389112
  44.8958510  46.8651788  44.7516493  38.2134291  48.5610231  60.3530546
  38.9548975  49.0995275  60.0765370  37.5071276  49.1876520  60.5102098
  43.6889631  50.7039372  58.9502707  44.0972987  50.2621782  58.2057340
  42.9666892  50.1291999  59.2036900  40.0420701  45.6411979  56.3236264
  40.8881896  46.0651392  56.4670913  39.9819338  44.9845603  57.0174827
  44.0118445  51.2640562  52.7054996  43.3827308  51.4286277  52.0031064
  43.6244107  51.6782172  53.4765960  47.8907677  52.1995000  50.0599360
  47.2058715  52.5793902  49.5096393  47.9751527  52.8090327  50.7931308
  43.1920146  43.3016347  57.9817438  42.9481078  44.0558407  57.4451714
  43.4680077  43.6801695  58.8164685  45.1458609  49.8454959  56.6594704
  45.3575504  50.4886719  55.9829085  45.0988357  49.0117276  56.1916634
  42.7484838  42.4572780  53.5631276  41.8869317  42.7554034  53.8548013
  42.7747272  42.6743179  52.6312308  39.5646407  51.0014971  49.9705081
  40.0284753  51.2802674  49.1809704  39.3003205  50.0998415  49.7878172
  36.4570488  50.5486452  52.9084845  37.0271845  50.9773720  52.2702329
  37.0478600  50.2669037  53.6069030  38.5015293  47.1238123  46.7794647
  39.2039337  47.5759167  47.2468573  38.1695922  46.4821942  47.4074540
  36.9495655  45.7149880  61.1545856  36.3194315  46.3966160  61.3881253
  36.8431743  45.6032961  60.2098994  32.2440627  45.3821676  52.0811780
  31.4539681  45.6379204  51.6051891  32.7351875  46.1970013  52.1863821
  46.2604437  52.7226915  54.8317061  47.0821880  52.3207102  54.5499743
  46.2566840  52.6195149  55.7833177  34.1955373  45.7466255  49.0395257
  33.3986536  45.8584949  49.5578752  33.9680965  46.0852907  48.1736147
  40.0261040  52.2710958  56.9877771  40.0905473  52.7331365  57.8235943
  39.3171964  51.6408323  57.1160081  30.5278330  45.6352166  54.5126771
  30.7786369  46.5199176  54.7784347  31.0637879  45.4556768  53.7401863
  54.3510430  49.0665663  51.1802032  53.5974138  48.4973061  51.0246037
  54.4857971  49.0328328  52.1272667  39.7409058  53.9379066  46.8556752
  39.6054733  54.7830601  47.2841600  40.2818870  54.1398343  46.0922686
  36.2276397  40.0170645  63.5171107  35.8343343  39.4636844  64.1918751
  37.0442538  40.3281224  63.9077624  33.1938455  51.4554504  47.4284677
  33.7062976  52.2497754  47.5790241  33.8461168  50.7580794  47.3618278
  35.0033340  54.5720260  49.5107430  35.1799968  55.4938225  49.3228414
  35.7990173  54.2578679  49.9401810  39.1444358  41.4328524  61.1091364
  39.8854072  42.0335678  61.0295826  39.3762281  40.6906162  60.5509406
  34.2885696  46.6184892  59.3869593  34.1739212  45.7170149  59.6876692
  33.4330214  46.8648588  59.0354410  41.3677534  54.5602632  60.9857094
  40.9241388  53.7739011  60.6677998  42.0294748  54.7481783  60.3200985
  36.1264655  56.0898434  55.5117772  36.6772081  55.9615497  54.7394766
  35.2876131  56.3893323  55.1612665  43.4658772  54.8405432  59.0138495
  43.4477248  55.6614313  58.5218764  44.3878692  54.7159507  59.2388636
  39.9231826  52.3549561  59.8562003  40.4560163  51.5937850  59.6261311
  39.3945908  52.0623213  60.5986158  43.0901521  37.4609627  55.3855645
  42.7465791  38.3511269  55.3094756  43.4580484  37.2711285  54.5225230
  31.1587372  49.7843158  48.2044247  31.9962594  50.1940166  47.9877955
  31.3365640  48.8442600  48.1744441  43.0551804  47.4518238  43.8928080
  42.5398428  48.2222843  44.1316468  42.7829113  46.7783375  44.5161142
  40.6398915  42.2967939  48.9513319  39.7840512  41.9074790  48.7718957
  41.0525867  42.3759900  48.0913104  42.1698062  39.8314283  53.3504878
  41.6662857  39.7944418  52.5372684  42.4628669  40.7407025  53.4101535
  38.4140948  39.9153012  52.3571060  39.2793944  39.7195821  51.9976950
  38.4818457  39.6863364  53.2840417  48.0286078  50.2050593  45.8281254
  47.2515521  49.8661753  45.3836416  48.7077559  50.2103216  45.1536219
  42.8438107  45.3245331  45.7187861  42.5388243  45.6391480  46.5698005
  43.7968549  45.4026750  45.7615194  41.2884539  51.4835554  47.3680815
  40.7605901  50.7488313  47.0554053  40.7872042  52.2610230  47.1220784
  46.2677385  49.6784574  52.4847862  45.6101060  50.3683836  52.5727990
  47.0717784  50.0681006  52.8281848  36.0203267  42.1455220  49.7287427
  36.5947019  41.9230402  48.9960620  36.6074249  42.2143915  50.4816028
  45.0782844  48.0328947  50.5351804  45.5914726  48.6658939  51.0373513
  45.7284068  47.4330143  50.1695164  36.3472854  44.1759681  43.7483312
  35.5110166  44.5134368  44.0692587  36.2077624  44.0408661  42.8110449
  38.3225934  39.0196469  48.4562496  37.6690347  38.7045486  47.8319111
  38.2806409  38.3972210  49.1822319  39.4337139  49.3015764  40.3715788
  38.5264201  49.0705018  40.5706937  39.9308171  48.5053383  40.5589770
  42.3405218  58.0113271  43.2912475  41.6666917  58.3144968  43.8997432
  42.7271040  58.8142352  42.9417932  41.5563675  45.5078403  52.7810144
  40.6386236  45.7293350  52.6231832  41.9723818  45.5824713  51.9221851
  42.3398723  46.9069818  47.9112824  43.0870542  47.4191216  47.6019946
  42.6090312  46.5853871  48.7717218  40.6125373  49.4028359  44.8939779
  39.7036592  49.1187392  44.9912248  40.6420457  49.8227438  44.0343085
  45.8444640  53.0134949  48.6630946  45.3906967  52.1725858  48.7196137
  45.2138607  53.6496347  49.0005726  44.7877560  43.9426935  49.8931614
  44.0500317  43.4304321  50.2241856  45.0404333  43.5027316  49.0814890
  44.2877579  54.8511445  49.5980764  44.5800554  55.4116502  48.8793130
  44.7976200  55.1440006  50.3533923  44.8889187  36.7203187  50.4873383
  45.1948064  35.8600550  50.1999298  45.6141792  37.3120807  50.2872377
  31.1813543  47.1233873  48.8754981  30.9837943  46.5303234  48.1506047
  30.6260207  46.8186083  49.5930920  39.1610267  47.0156980  50.9949574
  39.2158877  46.0630816  50.9192051  38.3501469  47.1716419  51.4790872
  40.3101461  50.9437103  42.2327857  39.8720891  50.2272962  41.7733495
  41.0511901  51.1713218  41.6712949  37.1002627  45.6334039  48.7539953
  36.2870492  45.9328210  49.1605145  37.5961621  45.2389728  49.4714435
  39.2511205  55.6291796  50.6874217  39.2087383  55.8552643  49.7582750
  40.1673903  55.3955171  50.8360019  42.6976838  46.0975864  57.5854847
  43.0526226  46.3247337  58.4449312  43.3448970  46.4294241  56.9632102
  48.4274575  49.2194300  48.2904176  48.2892474  49.4095896  47.3625365
  48.0710794  49.9813683  48.7472227  36.5916701  43.2052395  54.3701188
  37.2316081  43.0641154  53.6724151  35.7594232  42.9186908  53.9939790
  48.4543955  51.2870827  53.3015447  48.8880462  51.1946116  54.1498501
  49.1675536  51.2628327  52.6635463  37.3677005  52.5054825  50.4836180
  38.1617604  52.0105145  50.2818755  36.6568698  51.9772688  50.1203886
  42.1871850  54.8872921  54.8348548  42.2408872  55.4563857  55.6026264
  41.3186631  55.0574806  54.4702585  33.6759769  46.6497907  46.5595933
  32.7457357  46.5882363  46.7765895  33.7717241  46.1273860  45.7632574
  33.5945318  43.1752720  49.1474175  33.8552135  44.0898053  49.0383335
  34.4162490  42.7077162  49.2970787  35.0670243  44.5890477  56.3172999
  35.7393297  44.3807839  55.6685648  34.2400030  44.3912563  55.8778231
  49.3159505  51.3294527  55.8348333  49.5095395  52.2340338  56.0807608
  49.2160123  50.8701946  56.6686918  40.9695815  41.2152418  58.3338660
  40.3223730  41.9142368  58.2403136  41.7396831  41.6488562  58.7014908
  44.3774613  51.4801270  61.4089213  44.2260120  51.2511822  60.4919297
  44.3679293  52.4371872  61.4220558  41.1459950  49.0533183  56.3935480
  42.0752010  49.2044343  56.2204447  40.7250980  49.1417204  55.5384126
  39.9448281  53.0783847  54.1634017  39.8059367  52.7102632  55.0359955
  39.1562878  53.5931487  53.9917975  40.5396433  58.1792944  45.5059554
  40.7148189  57.7080987  46.3205177  39.8529221  58.8058710  45.7340815
  41.4953497  52.4565450  51.5522855  41.1603329  52.4166220  52.4480505
  40.9957442  51.7910166  51.0793265  35.4697740  47.8633080  57.0775436
  35.3317538  47.1313319  57.6786975  36.3802664  47.7741980  56.7959624
  44.4312688  49.8021484  41.8259915  43.8141859  49.0768313  41.7292967
  43.9629177  50.5630845  41.4826989  38.0980041  47.5753039  56.5659116
  38.8079660  46.9346232  56.5245734  38.0549349  47.8265934  57.4885297
  46.0866820  54.5120393  59.4865695  46.0279366  53.8279613  58.8196278
  46.4886338  55.2539383  59.0346321  36.8108975  44.5618257  58.3854755
  36.2746332  44.1108996  59.0376352  36.2225684  44.6964166  57.6425220
  35.1057519  61.3282307  52.2799414  35.3454117  61.9600831  52.9578433
  34.2626715  60.9770347  52.5664773  36.2211234  44.0206909  40.9481219
  35.3440700  43.8995709  40.5843466  36.6968987  43.2292987  40.6960108
  46.0884227  52.4759977  57.7179675  45.2011006  52.1385898  57.8406074
  46.6582778  51.7443008  57.9548440  27.7413374  48.8084068  51.0422726
  28.4284414  48.4945798  50.4543741  27.5861503  49.7125433  50.7689978
  32.5448096  43.6974265  55.4707750  32.4606285  43.0899935  54.7358160
  31.7230803  44.1883283  55.4717246  39.6185381  57.1361429  54.6840918
  39.5455552  57.9416400  55.1960223  39.1762774  57.3353395  53.8588939
  39.4075160  56.3733199  48.1943740  38.6242682  56.9154879  48.2881964
  40.1067905  56.8907179  48.5937981  42.7171810  42.1827828  50.8377945
  43.2140510  41.4297791  50.5179015  41.9458792  42.2192145  50.2721154
  50.5701568  47.8868194  52.4796236  50.5591444  48.7692909  52.1090170
  49.7018947  47.5339745  52.2850773  42.0784064  57.0348263  56.8399077
  42.7912036  57.6695728  56.7674978  41.5874093  57.1312129  56.0239078
  43.8001591  50.9399516  48.4116368  42.8657870  51.0600978  48.2421073
  43.9778259  50.0371982  48.1476378  39.3006779  44.3245211  50.5649630
  38.9304567  43.7716252  51.2530535  39.7965871  43.7203345  50.0124630
  47.1874142  46.7816835  48.9466402  47.6534594  47.6144827  48.8726705
  47.6381643  46.3161817  49.6511661  37.1295978  54.7842706  57.6604647
  37.8305437  55.4179189  57.8134042  36.6591093  55.1257438  56.9000287
  45.2550373  53.1260656  45.9452554  45.5310217  53.0117251  46.8546429
  44.3854872  52.7278141  45.9064728  45.1590805  39.1497422  52.9857304
  44.2453885  39.3801649  53.1539511  45.5883906  39.2335866  53.8371336
  44.9297264  47.3387314  55.4857198  44.2768714  47.5863221  54.8309651
  45.3077643  46.5251452  55.1519675  41.8904437  57.3747007  49.5885368
  42.0726832  56.5568663  50.0513120  42.7137423  57.5914699  49.1510258
  42.2246603  56.3015192  46.8500417  42.7534369  55.7907647  46.2370579
  42.4874822  55.9857722  47.7145950  40.9784837  48.0807125  61.9723235
  40.3025474  47.9801254  62.6425610  41.8012470  47.9246339  62.4359232
  32.7263696  54.3179062  54.5935750  33.3117132  53.5722749  54.7263654
  32.5288534  54.6283018  55.4772414  35.5802351  57.3530309  49.6098193
  34.9112726  57.8376437  49.1262233  35.4415221  57.5999529  50.5241571
  27.3181350  46.8884662  53.3140193  27.3565450  46.3548252  54.1077311
  26.8121643  46.3619867  52.6951170  39.7207619  59.3874052  56.2080851
  40.2725927  59.5505674  56.9729936  40.0613813  59.9778490  55.5360876
  34.6972113  41.7349202  56.8102736  34.7613439  42.5964033  56.3980133
  34.6339233  41.1223204  56.0775094  34.1724385  43.8072335  60.4575770
  34.7996424  43.4249412  61.0713294  33.3152304  43.5886537  60.8231462
  44.5718494  54.2135310  62.0629505  45.1158398  54.8265268  61.5684460
  43.9905339  54.7714888  62.5796518  30.9489928  45.6148764  46.3894125
  31.2443369  44.7059442  46.3361178  30.0477964  45.5936503  46.0675127
  42.8576007  57.3356028  53.1944533  42.7327146  56.5345768  52.6855479
  43.5155098  57.8302221  52.7058503  34.4784175  43.6904760  52.3721673
  33.7570761  44.3040728  52.2329147  35.2677431  44.2262525  52.2938319
  44.9210915  55.1365048  54.8224083  43.9741251  55.0170399  54.7502410
  45.2693688  54.2487546  54.9050345  37.2810488  41.0259187  58.6462325
  37.8044890  41.2721484  59.4088634  37.0622822  41.8579222  58.2265462
  32.6777770  43.2962862  46.5133450  32.3490476  42.4160240  46.3308556
  33.0317140  43.2410530  47.4009839  41.9257348  54.9317764  51.0228435
  41.7782311  54.0034472  51.2036005  42.7510842  54.9537855  50.5385511
  35.7919593  43.5835831  46.8808928  36.1315665  44.1121753  46.1587536
  36.2391713  43.9216237  47.6567494  45.5291470  55.7546323  52.1093308
  46.4538018  55.5489184  51.9717759  45.3606774  55.5062724  53.0182650
  38.4863034  41.9672882  56.3311996  38.1459854  41.1680695  56.7332675
  37.7802040  42.2674593  55.7588829  39.1379505  39.0522194  54.7839319
  39.9605575  38.5782673  54.6618209  39.3817569  39.8312678  55.2838005
  37.7787740  42.0810453  45.0802220  38.4996102  42.4591706  44.5765937
  37.1553044  42.7999330  45.1837198  41.9218863  42.7855602  46.0160553
  42.1382477  43.6680240  45.7149381  41.4412930  42.3941815  45.2866195
  36.6618084  45.7441315  52.5931297  36.5162665  46.0581618  53.4855579
  36.1843288  46.3626215  52.0402196  38.5214467  42.7343863  52.6412187
  38.5076036  41.8384956  52.3044485  39.2386895  42.7414527  53.2750473
  40.3740598  43.1681203  54.6865314  40.1158376  44.0898274  54.6849645
  39.8425638  42.7711638  55.3765778  45.3186786  56.2731990  47.4655400
  45.4923664  55.7078413  46.7129252  45.8115678  57.0732885  47.2834890
  31.1363746  48.2846660  55.5318958  30.5917214  49.0606468  55.6639233
  32.0143096  48.6317464  55.3738080  37.9251363  41.6158243  47.9099757
  38.0467274  40.6874890  48.1090644  37.6353405  41.6296929  46.9978072
  40.7942553  39.3013154  51.0466477  40.8164250  39.3652487  50.0918456
  41.2110612  38.4617662  51.2406983  51.1726178  49.0368413  49.0845699
  51.6157324  48.2875739  48.6864823  50.2952688  49.0278550  48.7019431
  46.3061959  55.5898755  44.5652298  47.0012864  56.2105448  44.7839613
  46.6485109  54.7394106  44.8404676  31.9229768  47.4116556  58.4249115
  31.1811504  47.5599191  59.0113746  31.6022512  47.6724821  57.5615865
  48.2053382  53.0398460  46.0939629  48.7304706  53.3785733  45.3688949
  48.1175735  52.1045476  45.9102763  39.8673431  56.9532534  58.2229505
  40.1760557  56.7081681  59.0952205  40.6648913  57.1579173  57.7348375
  39.8894043  59.1070444  50.4534882  39.4499033  58.6146822  51.1467739
  40.6402160  58.5643411  50.2126957  32.3686382  55.2981985  50.4559510
  33.1944402  54.9985756  50.0758153  32.0180434  54.5289607  50.9049299
  37.3367915  54.6508453  52.5257183  36.7147924  53.9879158  52.2259411
  38.0072782  54.6769585  51.8430831  30.5694987  53.2168311  51.4148443
  29.7326895  52.7890485  51.2332445  30.5418632  53.4100754  52.3519235
  37.4092442  43.1290241  62.1189690  37.4580598  44.0052364  61.7367459
  37.9514957  42.5867634  61.5461333  47.8947288  53.6731364  61.3990827
  47.1042832  53.6555503  60.8595326  47.6580643  54.2119658  62.1539863
  48.0145163  50.5223830  58.7123555  48.0643168  50.3573838  59.6539078
  47.9059087  49.6551089  58.3221436  36.8981422  53.2012376  46.0015644
  37.0469542  53.8847840  45.3482317  37.7047865  53.1817466  46.5165100
  45.3048926  46.5054758  60.0282862  46.2058788  46.3661223  59.7366860
  45.3796900  46.6709213  60.9681039  39.6391731  43.8821613  58.8736048
  38.7695040  44.1755179  58.6018637  39.8751211  44.4662058  59.5943312
  49.5163360  52.9420772  58.9565577  49.2248168  53.3050752  59.7929038
  48.9035491  52.2287780  58.7778909  50.7159042  50.5073652  51.4768147
  51.5505934  50.9463456  51.6405707  50.8518171  50.0312305  50.6576393
  47.7650548  48.0653387  57.4245635  48.2404670  48.2581033  56.6164486
  46.8416114  48.1212572  57.1789018  34.6534055  49.2277554  47.0076713
  34.4080097  48.3239884  47.2056923  34.8229969  49.2294704  46.0656191
  42.3430765  40.1001230  56.3901469  42.8612709  40.8362257  56.0647957
  41.9885897  40.4065223  57.2248228  33.9229702  44.9605911  44.5062874
  33.2298947  45.0350266  43.8502910  33.6781454  44.1966255  45.0284391
  42.5943359  36.5201513  51.9102365  42.8745113  35.8524702  52.5362792
  43.3793966  36.7130608  51.3977029  40.3976827  55.6960507  43.4727391
  39.8250794  56.3150694  43.0197863  40.9709621  56.2459868  44.0067313
  46.4652217  44.9419147  55.6573940  47.4169640  45.0417244  55.6786164
  46.2955668  44.1497415  56.1672025  44.4866597  42.0274730  55.8433341
  43.8916529  42.3079743  55.1479830  44.2016293  42.5168631  56.6150082
  43.6174087  55.9797657  44.6035974  44.5504760  55.9143218  44.8068849
  43.5297300  56.8153924  44.1450506  46.2462104  55.2963527  41.5639921
  46.1675735  54.9623391  42.4575679  47.0671771  55.7885295  41.5631394
  48.9440295  48.1625266  54.7716240  48.9116615  47.2241267  54.9575924
  49.5540919  48.2409303  54.0382065  40.7823626  47.0321319  40.8143444
  41.7282731  46.9027527  40.8831862  40.4037871  46.2935981  41.2912872
  49.0934784  44.9536310  54.8174523  48.5773832  44.1694766  54.6304452
  49.9774732  44.6255026  54.9821043  46.7545510  38.6977325  50.7770336
  46.5570332  38.3892414  51.6613668  47.3645216  39.4238964  50.9068266
  54.7616845  49.2241273  53.9122277  55.4920233  48.9626561  54.4729980
  54.1523790  48.4869995  53.9524345  52.8432142  47.3649136  54.5096728
  52.1165306  47.2305101  53.9013219  52.4279429  47.6725964  55.3153446
  40.6662318  51.0839065  62.2744101  41.5865328  51.2617664  62.4684147
  40.6311901  50.1395111  62.1223800  38.9666543  44.9571296  40.7498329
  38.0597998  44.6604408  40.8261043  39.2442524  44.6601114  39.8832615
  29.8844483  46.2777659  51.1997376  29.5647268  45.4242967  50.9071750
  29.3377912  46.4926237  51.9555343  33.6624391  48.9940100  54.9166882
  33.8810401  49.9257208  54.9354916  34.0750165  48.6348074  55.7021686
  40.5828609  39.5008185  46.9042570  39.7729337  39.1555270  47.2797817
  41.2713026  39.1915729  47.4930182  42.5119157  38.5786232  48.5266867
  43.0650196  38.9981686  49.1856890  42.7489243  37.6521980  48.5689823
  38.5352256  44.5673306  64.3069631  38.4348983  45.5167663  64.2381722
  38.3173798  44.2391545  63.4345701  37.7365328  41.8158231  40.8910308
  38.5984492  42.1413129  41.1506126  37.9215672  41.0289727  40.3783374
  29.7532743  49.8980571  53.1690497  29.0596215  49.4834523  52.6560452
  30.5005734  49.9401107  52.5723916  45.8897964  40.6886757  48.0345531
  45.3096633  41.3471561  47.6523584  45.6233897  39.8664102  47.6232949
  44.3401531  40.0891815  50.2366852  44.8401309  40.2008350  49.4281171
  44.9837138  39.7852868  50.8767660  38.3983526  47.9970445  63.1234693
  37.9150608  48.7970805  63.3298582  38.4844465  48.0078390  62.1702137
  31.6669486  49.8298824  51.0456512  31.6440174  49.9286512  50.0938395
  31.9770122  50.6763975  51.3673678  34.3256864  51.8874979  55.1603126
  35.2800117  51.8558922  55.0933058  34.1269387  51.4265603  55.9753352
  34.9156246  50.4576095  57.7273924  35.7349135  50.9520174  57.7508761
  35.1893054  49.5408064  57.6991492  44.6722842  42.8486848  47.0901880
  43.7848697  43.1336498  46.8722074  45.0876831  42.6880611  46.2429157
  48.0237378  42.8733369  50.8056219  48.7997768  43.3629821  51.0780836
  47.2985512  43.2991423  51.2628088  50.4609937  43.5860988  51.8630160
  51.0554428  43.3456724  51.1523468  50.5336521  42.8668119  52.4903696
  32.6807093  57.4294599  52.1773324  32.5461561  56.6695000  51.6111322
  32.2639155  58.1535499  51.7102113  43.8166056  52.6131522  41.1849900
  44.5201906  52.8181525  41.8007555  43.0928704  53.1808284  41.4498983
  44.6463866  48.3641384  47.3052170  44.5899067  48.8209935  46.4659802
  45.1992208  47.6032068  47.1275013  48.4568672  44.1531116  48.1302289
  48.2005606  43.7527751  48.9610497  47.8321540  44.8674909  48.0052428
  52.7681010  46.8927189  50.6373581  52.2080568  46.9620378  51.4105143
  52.1624513  46.7168173  49.9173077  35.8376218  58.3263916  52.3891767
  35.7208603  59.2709348  52.2870457  35.0168665  58.0237477  52.7777566
  45.7252753  53.0514052  43.2348360  46.5598357  52.6195250  43.0525834
  45.5637096  52.8796065  44.1625254  45.3798645  49.5546165  44.6004699
  45.3247449  49.3890436  43.6593143  44.7544700  50.2622198  44.7566889
  30.1691160  44.7914229  58.4266121  30.8150024  44.2813183  58.9153346
  29.9608311  45.5282911  59.0009546  42.6944552  51.8595077  63.9258262
  43.5635712  52.0335729  63.5644897  42.2151304  52.6789494  63.8033991
  38.6894771  39.0554274  44.1790017  38.6773441  39.9996114  44.3358288
  39.5818193  38.8724419  43.8849479  36.8630733  58.9792178  55.6047695
  37.7657979  59.0115788  55.9214190  36.6368103  58.0492629  55.6194031
  38.6184335  57.7323164  52.2657774  37.6679966  57.7325026  52.1522146
  38.9216821  56.9855899  51.7493809  42.5046890  35.6497051  48.4335954
  41.7379286  35.0955537  48.5792637  42.9157595  35.7218919  49.2950106
  34.5088651  41.9381846  62.5241135  35.3720113  41.5818651  62.7344460
  33.9354062  41.5995741  63.2116540  54.3537028  63.5683703  53.3303536
  54.9915438  63.4490450  52.6266876  54.2357871  64.5164547  53.3891489
  51.1626734  63.5211131  53.2665061  50.8245246  63.4052196  52.3785596
  52.0316503  63.1202296  53.2466067  47.0213550  65.3746607  49.2561952
  46.4578415  65.2836544  48.4878240  46.9065945  64.5546512  49.7364445
  51.6446517  64.6745983  59.2251267  51.6335158  64.2798781  58.3531770
  51.8067157  63.9412055  59.8185038  44.5677982  66.8697799  52.0946173
  45.3599274  66.5288623  51.6792472  44.8074632  66.9792774  53.0148326
  52.6013109  69.0417575  44.5676417  51.9501089  69.6271655  44.1810431
  53.3957472  69.5723770  44.6271454  46.5268736  66.1306712  44.9663551
  47.2999612  65.5835699  44.8276427  46.8794135  66.9950961  45.1778013
  48.3653779  67.4583094  58.1730451  48.0743645  68.3628725  58.0577117
  49.0010763  67.4999622  58.8874520  49.2909985  64.8359943  54.7631810
  49.8873558  64.6115965  54.0488773  49.3484957  64.0944688  55.3657258
  48.8635014  62.2899378  42.5982001  49.1160534  61.7680899  41.8365464
  47.9259573  62.1265524  42.7008685  53.9078297  61.2935157  50.4056744
  54.6941386  60.8754580  50.0547161  54.1717001  62.1981249  50.5738393
  54.0788374  66.7308007  45.1045401  53.4434207  66.8042633  45.8166306
  53.7485780  67.3201606  44.4264481  59.3086724  61.2310390  51.3089723
  60.0411896  60.6609607  51.5427552  58.5526079  60.8431990  51.7496229
  48.5831303  64.1927484  44.8006376  48.4667561  63.5172388  45.4687460
  48.6933562  63.7059858  43.9838529  50.9262843  63.6537631  48.5053065
  50.5621051  63.1268252  49.2165987  51.7829959  63.2636100  48.3319551
  56.8312144  54.9431964  55.7684332  56.4995469  55.8127375  55.5445547
  56.2357757  54.6268248  56.4478362  50.5668330  58.6827531  43.5014414
  50.7342733  59.5507767  43.8684885  50.3765500  58.8454813  42.5775703
  53.3243664  67.1444510  55.1680244  53.0244387  68.0469549  55.0596052
  52.9794723  66.8776693  56.0201397  46.7756145  63.5958307  51.2016949
  45.8506642  63.4634521  51.4094640  47.0240558  64.3752526  51.6986891
  56.7240807  59.6627050  52.8477682  55.8157685  59.5942458  52.5536443
  56.6728403  60.1398995  53.6759507  50.5457551  61.1385188  44.4861081
  50.4257177  61.5842239  45.3246561  49.8510140  61.4870506  43.9274619
  44.1364956  63.2391580  52.0360738  44.2657337  63.4926059  52.9500150
  43.4562407  63.8319288  51.7165393  48.3064443  73.9088830  48.1351212
  48.2288473  74.8596655  48.2139693  47.7026087  73.5634703  48.7926138
  50.7981673  61.0816696  60.7912579  50.0215007  61.6410616  60.7815444
  51.4372236  61.5673479  61.3127449  58.5902454  57.8643488  54.6255556
  57.9476834  58.1576022  53.9795350  58.0857382  57.7496409  55.4308752
  56.2442617  61.6106662  45.3141415  57.1560474  61.8434048  45.1389112
  55.7352265  62.1943706  44.7516493  49.0528045  63.8902149  60.3530546
  49.7942730  64.4287193  60.0765370  48.3465031  64.5168438  60.5102098
  54.5283385  66.0331289  58.9502707  54.9366741  65.5913700  58.2057340
  53.8060647  65.4583917  59.2036900  50.8814455  60.9703896  56.3236264
  51.7275650  61.3943310  56.4670913  50.8213093  60.3137521  57.0174827
  54.8512200  66.5932480  52.7054996  54.2221062  66.7578194  52.0031064
  54.4637862  67.0074090  53.4765960  58.7301432  67.5286918  50.0599360
  58.0452470  67.9085819  49.5096393  58.8145281  68.1382245  50.7931308
  54.0313901  58.6308265  57.9817438  53.7874832  59.3850325  57.4451714
  54.3073831  59.0093612  58.8164685  55.9852363  65.1746877  56.6594704
  56.1969259  65.8178637  55.9829085  55.9382112  64.3409194  56.1916634
  53.5878592  57.7864698  53.5631276  52.7263071  58.0845951  53.8548013
  53.6141027  58.0035097  52.6312308  50.4040162  66.3306888  49.9705081
  50.8678507  66.6094591  49.1809704  50.1396960  65.4290333  49.7878172
  47.2964243  65.8778370  52.9084845  47.8665600  66.3065638  52.2702329
  47.8872355  65.5960954  53.6069030  49.3409048  62.4530041  46.7794647
  50.0433091  62.9051084  47.2468573  49.0089676  61.8113859  47.4074540
  47.7889409  61.0441797  61.1545856  47.1588070  61.7258078  61.3881253
  47.6825497  60.9324879  60.2098994  43.0834382  60.7113593  52.0811780
  42.2933436  60.9671122  51.6051891  43.5745629  61.5261931  52.1863821
  57.0998191  68.0518832  54.8317061  57.9215635  67.6499020  54.5499743
  57.0960594  67.9487067  55.7833177  45.0349127  61.0758172  49.0395257
  44.2380290  61.1876867  49.5578752  44.8074719  61.4144825  48.1736147
  50.8654795  67.6002876  56.9877771  50.9299227  68.0623283  57.8235943
  50.1565719  66.9700241  57.1160081  41.3672085  60.9644084  54.5126771
  41.6180123  61.8491094  54.7784347  41.9031633  60.7848685  53.7401863
  65.1904184  64.3957581  51.1802032  64.4367893  63.8264979  51.0246037
  65.3251725  64.3620245  52.1272667  50.5802812  69.2670983  46.8556752
  50.4448487  70.1122519  47.2841600  51.1212625  69.4690261  46.0922686
  47.0670152  55.3462563  63.5171107  46.6737098  54.7928762  64.1918751
  47.8836292  55.6573142  63.9077624  44.0332210  66.7846421  47.4284677
  44.5456730  67.5789671  47.5790241  44.6854923  66.0872712  47.3618278
  45.8427094  69.9012178  49.5107430  46.0193723  70.8230142  49.3228414
  46.6383928  69.5870597  49.9401810  49.9838113  56.7620442  61.1091364
  50.7247826  57.3627595  61.0295826  50.2156036  56.0198080  60.5509406
  45.1279451  61.9476809  59.3869593  45.0132966  61.0462067  59.6876692
  44.2723969  62.1940506  59.0354410  52.2071289  69.8894550  60.9857094
  51.7635143  69.1030928  60.6677998  52.8688502  70.0773700  60.3200985
  46.9658410  71.4190351  55.5117772  47.5165835  71.2907415  54.7394766
  46.1269886  71.7185240  55.1612665  54.3052527  70.1697350  59.0138495
  54.2871002  70.9906231  58.5218764  55.2272447  70.0451425  59.2388636
  50.7625581  67.6841479  59.8562003  51.2953918  66.9229767  59.6261311
  50.2339662  67.3915131  60.5986158  53.9295276  52.7901545  55.3855645
  53.5859545  53.6803187  55.3094756  54.2974239  52.6003203  54.5225230
  41.9981127  65.1135076  48.2044247  42.8356349  65.5232084  47.9877955
  42.1759394  64.1734518  48.1744441  53.8945559  62.7810156  43.8928080
  53.3792182  63.5514761  44.1316468  53.6222867  62.1075292  44.5161142
  51.4792670  57.6259857  48.9513319  50.6234266  57.2366707  48.7718957
  51.8919621  57.7051818  48.0913104  53.0091816  55.1606200  53.3504878
  52.5056612  55.1236335  52.5372684  53.3022423  56.0698943  53.4101535
  49.2534702  55.2444930  52.3571060  50.1187699  55.0487739  51.9976950
  49.3212211  55.0155282  53.2840417  58.8679833  65.5342511  45.8281254
  58.0909276  65.1953670  45.3836416  59.5471314  65.5395134  45.1536219
  53.6831862  60.6537248  45.7187861  53.3781997  60.9683397  46.5698005
  54.6362304  60.7318668  45.7615194  52.1278294  66.8127472  47.3680815
  51.5999655  66.0780231  47.0554053  51.6265796  67.5902148  47.1220784
  57.1071140  65.0076492  52.4847862  56.4494814  65.6975753  52.5727990
  57.9111539  65.3972924  52.8281848  46.8597021  57.4747138  49.7287427
  47.4340773  57.2522319  48.9960620  47.4468004  57.5435832  50.4816028
  55.9176598  63.3620865  50.5351804  56.4308480  63.9950857  51.0373513
  56.5677822  62.7622060  50.1695164  47.1866608  59.5051599  43.7483312
  46.3503921  59.8426285  44.0692587  47.0471378  59.3700579  42.8110449
  49.1619689  54.3488387  48.4562496  48.5084101  54.0337404  47.8319111
  49.1200163  53.7264127  49.1822319  50.2730894  64.6307682  40.3715788
  49.3657956  64.3996935  40.5706937  50.7701926  63.8345301  40.5589770
  53.1798973  73.3405189  43.2912475  52.5060671  73.6436886  43.8997432
  53.5664795  74.1434269  42.9417932  52.3957429  60.8370320  52.7810144
  51.4779991  61.0585267  52.6231832  52.8117573  60.9116631  51.9221851
  53.1792477  62.2361736  47.9112824  53.9264296  62.7483133  47.6019946
  53.4484067  61.9145789  48.7717218  51.4519127  64.7320277  44.8939779
  50.5430347  64.4479310  44.9912248  51.4814211  65.1519355  44.0343085
  56.6838395  68.3426866  48.6630946  56.2300722  67.5017776  48.7196137
  56.0532361  68.9788265  49.0005726  55.6271314  59.2718852  49.8931614
  54.8894071  58.7596238  50.2241856  55.8798088  58.8319234  49.0814890
  55.1271334  70.1803363  49.5980764  55.4194308  70.7408420  48.8793130
  55.6369954  70.4731924  50.3533923  55.7282942  52.0495104  50.4873383
  56.0341818  51.1892468  50.1999298  56.4535546  52.6412724  50.2872377
  42.0207298  62.4525791  48.8754981  41.8231697  61.8595152  48.1506047
  41.4653962  62.1478001  49.5930920  50.0004021  62.3448897  50.9949574
  50.0552631  61.3922734  50.9192051  49.1895223  62.5008336  51.4790872
  51.1495215  66.2729020  42.2327857  50.7114645  65.5564879  41.7733495
  51.8905656  66.5005135  41.6712949  47.9396381  60.9625957  48.7539953
  47.1264247  61.2620128  49.1605145  48.4355375  60.5681646  49.4714435
  50.0904959  70.9583714  50.6874217  50.0481138  71.1844560  49.7582750
  51.0067658  70.7247089  50.8360019  53.5370593  61.4267782  57.5854847
  53.8919981  61.6539255  58.4449312  54.1842724  61.7586158  56.9632102
  59.2668330  64.5486217  48.2904176  59.1286228  64.7387813  47.3625365
  58.9104549  65.3105600  48.7472227  47.4310456  58.5344313  54.3701188
  48.0709835  58.3933072  53.6724151  46.5987987  58.2478826  53.9939790
  59.2937709  66.6162744  53.3015447  59.7274216  66.5238034  54.1498501
  60.0069290  66.5920245  52.6635463  48.2070760  67.8346743  50.4836180
  49.0011358  67.3397063  50.2818755  47.4962452  67.3064606  50.1203886
  53.0265604  70.2164839  54.8348548  53.0802627  70.7855775  55.6026264
  52.1580386  70.3866724  54.4702585  44.5153523  61.9789825  46.5595933
  43.5851111  61.9174280  46.7765895  44.6110995  61.4565778  45.7632574
  44.4339072  58.5044638  49.1474175  44.6945890  59.4189971  49.0383335
  45.2556245  58.0369080  49.2970787  45.9063998  59.9182395  56.3172999
  46.5787051  59.7099757  55.6685648  45.0793784  59.7204481  55.8778231
  60.1553259  66.6586445  55.8348333  60.3489149  67.5632256  56.0807608
  60.0553877  66.1993864  56.6686918  51.8089570  56.5444336  58.3338660
  51.1617485  57.2434285  58.2403136  52.5790585  56.9780480  58.7014908
  55.2168368  66.8093188  61.4089213  55.0653874  66.5803740  60.4919297
  55.2073047  67.7663789  61.4220558  51.9853704  64.3825101  56.3935480
  52.9145764  64.5336260  56.2204447  51.5644734  64.4709121  55.5384126
  50.7842036  68.4075765  54.1634017  50.6453122  68.0394549  55.0359955
  49.9956632  68.9223404  53.9917975  51.3790188  73.5084861  45.5059554
  51.5541944  73.0372905  46.3205177  50.6922976  74.1350628  45.7340815
  52.3347251  67.7857368  51.5522855  51.9997084  67.7458138  52.4480505
  51.8351197  67.1202084  51.0793265  46.3091495  63.1924998  57.0775436
  46.1711293  62.4605237  57.6786975  47.2196418  63.1033898  56.7959624
  55.2706443  65.1313402  41.8259915  54.6535613  64.4060230  41.7292967
  54.8022931  65.8922762  41.4826989  48.9373796  62.9044957  56.5659116
  49.6473414  62.2638149  56.5245734  48.8943104  63.1557852  57.4885297
  56.9260574  69.8412310  59.4865695  56.8673120  69.1571531  58.8196278
  57.3280093  70.5831300  59.0346321  47.6502730  59.8910175  58.3854755
  47.1140087  59.4400913  59.0376352  47.0619438  60.0256084  57.6425220
  45.9451273  76.6574224  52.2799414  46.1847871  77.2892748  52.9578433
  45.1020470  76.3062264  52.5664773  47.0604989  59.3498826  40.9481219
  46.1834455  59.2287627  40.5843466  47.5362742  58.5584905  40.6960108
  56.9277982  67.8051894  57.7179675  56.0404760  67.4677816  57.8406074
  57.4976533  67.0734926  57.9548440  38.5807129  64.1375986  51.0422726
  39.2678169  63.8237716  50.4543741  38.4255257  65.0417351  50.7689978
  43.3841851  59.0266183  55.4707750  43.3000040  58.4191852  54.7358160
  42.5624557  59.5175201  55.4717246  50.4579135  72.4653347  54.6840918
  50.3849306  73.2708318  55.1960223  50.0156528  72.6645312  53.8588939
  50.2468915  71.7025117  48.1943740  49.4636437  72.2446797  48.2881964
  50.9461660  72.2199096  48.5937981  53.5565565  57.5119746  50.8377945
  54.0534264  56.7589708  50.5179015  52.7852546  57.5484063  50.2721154
  61.4095322  63.2160112  52.4796236  61.3985198  64.0984827  52.1090170
  60.5412702  62.8631663  52.2850773  52.9177819  72.3640181  56.8399077
  53.6305791  72.9987646  56.7674978  52.4267847  72.4604047  56.0239078
  54.6395345  66.2691433  48.4116368  53.7051624  66.3892896  48.2421073
  54.8172014  65.3663900  48.1476378  50.1400533  59.6537129  50.5649630
  49.7698321  59.1008170  51.2530535  50.6359626  59.0495263  50.0124630
  58.0267897  62.1108753  48.9466402  58.4928349  62.9436744  48.8726705
  58.4775397  61.6453734  49.6511661  47.9689732  70.1134624  57.6604647
  48.6699192  70.7471107  57.8134042  47.4984847  70.4549356  56.9000287
  56.0944128  68.4552574  45.9452554  56.3703972  68.3409169  46.8546429
  55.2248627  68.0570059  45.9064728  55.9984560  54.4789340  52.9857304
  55.0847639  54.7093566  53.1539511  56.4277661  54.5627784  53.8371336
  55.7691018  62.6679232  55.4857198  55.1162468  62.9155139  54.8309651
  56.1471398  61.8543370  55.1519675  52.7298192  72.7038925  49.5885368
  52.9120586  71.8860581  50.0513120  53.5531178  72.9206617  49.1510258
  53.0640357  71.6307110  46.8500417  53.5928124  71.1199565  46.2370579
  53.3268577  71.3149640  47.7145950  51.8178591  63.4099043  61.9723235
  51.1419228  63.3093172  62.6425610  52.6406225  63.2538256  62.4359232
  43.5657450  69.6470979  54.5935750  44.1510887  68.9014667  54.7263654
  43.3682289  69.9574936  55.4772414  46.4196105  72.6822227  49.6098193
  45.7506481  73.1668354  49.1262233  46.2808975  72.9291447  50.5241571
  38.1575105  62.2176579  53.3140193  38.1959204  61.6840170  54.1077311
  37.6515398  61.6911785  52.6951170  50.5601374  74.7165970  56.2080851
  51.1119682  74.8797592  56.9729936  50.9007567  75.3070408  55.5360876
  45.5365867  57.0641120  56.8102736  45.6007194  57.9255951  56.3980133
  45.4732987  56.4515122  56.0775094  45.0118140  59.1364252  60.4575770
  45.6390178  58.7541330  61.0713294  44.1546059  58.9178454  60.8231462
  55.4112248  69.5427228  62.0629505  55.9552152  70.1557186  61.5684460
  54.8299093  70.1006806  62.5796518  41.7883682  60.9440682  46.3894125
  42.0837124  60.0351360  46.3361178  40.8871718  60.9228421  46.0675127
  53.6969761  72.6647946  53.1944533  53.5720901  71.8637685  52.6855479
  54.3548852  73.1594139  52.7058503  45.3177929  59.0196678  52.3721673
  44.5964515  59.6332646  52.2329147  46.1071185  59.5554443  52.2938319
  55.7604670  70.4656966  54.8224083  54.8135005  70.3462317  54.7502410
  56.1087443  69.5779464  54.9050345  48.1204243  56.3551105  58.6462325
  48.6438645  56.6013401  59.4088634  47.9016576  57.1871139  58.2265462
  43.5171524  58.6254779  46.5133450  43.1884230  57.7452158  46.3308556
  43.8710895  58.5702448  47.4009839  52.7651103  70.2609682  51.0228435
  52.6176065  69.3326389  51.2036005  53.5904596  70.2829773  50.5385511
  46.6313347  58.9127749  46.8808928  46.9709420  59.4413670  46.1587536
  47.0785468  59.2508155  47.6567494  56.3685225  71.0838241  52.1093308
  57.2931772  70.8781102  51.9717759  56.2000528  70.8354642  53.0182650
  49.3256788  57.2964800  56.3311996  48.9853608  56.4972613  56.7332675
  48.6195794  57.5966511  55.7588829  49.9773260  54.3814112  54.7839319
  50.7999329  53.9074590  54.6618209  50.2211323  55.1604596  55.2838005
  48.6181494  57.4102371  45.0802220  49.3389857  57.7883623  44.5765937
  47.9946798  58.1291247  45.1837198  52.7612617  58.1147520  46.0160553
  52.9776232  58.9972157  45.7149381  52.2806684  57.7233733  45.2866195
  47.5011839  61.0733233  52.5931297  47.3556419  61.3873536  53.4855579
  47.0237042  61.6918133  52.0402196  49.3608221  58.0635781  52.6412187
  49.3469790  57.1676874  52.3044485  50.0780650  58.0706445  53.2750473
  51.2134352  58.4973121  54.6865314  50.9552130  59.4190192  54.6849645
  50.6819393  58.1003556  55.3765778  56.1580541  71.6023908  47.4655400
  56.3317418  71.0370331  46.7129252  56.6509432  72.4024803  47.2834890
  41.9757501  63.6138577  55.5318958  41.4310969  64.3898385  55.6639233
  42.8536851  63.9609382  55.3738080  48.7645117  56.9450161  47.9099757
  48.8861029  56.0166807  48.1090644  48.4747160  56.9588847  46.9978072
  51.6336308  54.6305072  51.0466477  51.6558005  54.6944405  50.0918456
  52.0504367  53.7909580  51.2406983  62.0119932  64.3660331  49.0845699
  62.4551078  63.6167656  48.6864823  61.1346442  64.3570467  48.7019431
  57.1455713  70.9190673  44.5652298  57.8406618  71.5397365  44.7839613
  57.4878864  70.0686024  44.8404676  42.7623523  62.7408473  58.4249115
  42.0205259  62.8891109  59.0113746  42.4416267  63.0016739  57.5615865
  59.0447137  68.3690378  46.0939629  59.5698461  68.7077651  45.3688949
  58.9569489  67.4337393  45.9102763  50.7067185  72.2824452  58.2229505
  51.0154312  72.0373598  59.0952205  51.5042667  72.4871090  57.7348375
  50.7287797  74.4362361  50.4534882  50.2892788  73.9438740  51.1467739
  51.4795914  73.8935329  50.2126957  43.2080136  70.6273902  50.4559510
  44.0338156  70.3277674  50.0758153  42.8574188  69.8581525  50.9049299
  48.1761669  69.9800370  52.5257183  47.5541679  69.3171075  52.2259411
  48.8466536  70.0061502  51.8430831  41.4088741  68.5460229  51.4148443
  40.5720650  68.1182403  51.2332445  41.3812387  68.7392672  52.3519235
  48.2486197  58.4582158  62.1189690  48.2974352  59.3344281  61.7367459
  48.7908711  57.9159552  61.5461333  58.7341043  69.0023282  61.3990827
  57.9436586  68.9847421  60.8595326  58.4974397  69.5411575  62.1539863
  58.8538918  65.8515748  58.7123555  58.9036923  65.6865756  59.6539078
  58.7452841  64.9843007  58.3221436  47.7375176  68.5304294  46.0015644
  47.8863297  69.2139758  45.3482317  48.5441620  68.5109384  46.5165100
  56.1442680  61.8346676  60.0282862  57.0452543  61.6953141  59.7366860
  56.2190655  62.0001131  60.9681039  50.4785485  59.2113531  58.8736048
  49.6088795  59.5047097  58.6018637  50.7144966  59.7953976  59.5943312
  60.3557114  68.2712690  58.9565577  60.0641923  68.6342670  59.7929038
  59.7429246  67.5579698  58.7778909  61.5552797  65.8365569  51.4768147
  62.3899688  66.2755373  51.6405707  61.6911926  65.3604223  50.6576393
  58.6044303  63.3945304  57.4245635  59.0798424  63.5872951  56.6164486
  57.6809868  63.4504490  57.1789018  45.4927809  64.5569471  47.0076713
  45.2473851  63.6531801  47.2056923  45.6623724  64.5586622  46.0656191
  53.1824519  55.4293148  56.3901469  53.7006463  56.1654175  56.0647957
  52.8279652  55.7357141  57.2248228  44.7623457  60.2897829  44.5062874
  44.0692702  60.3642184  43.8502910  44.5175209  59.5258173  45.0284391
  53.4337113  51.8493430  51.9102365  53.7138867  51.1816619  52.5362792
  54.2187720  52.0422526  51.3977029  51.2370582  71.0252424  43.4727391
  50.6644549  71.6442611  43.0197863  51.8103376  71.5751786  44.0067313
  57.3045972  60.2711064  55.6573940  58.2563395  60.3709162  55.6786164
  57.1349422  59.4789333  56.1672025  55.3260351  57.3566648  55.8433341
  54.7310283  57.6371660  55.1479830  55.0410048  57.8460548  56.6150082
  54.4567842  71.3089574  44.6035974  55.3898515  71.2435136  44.8068849
  54.3691054  72.1445841  44.1450506  57.0855858  70.6255445  41.5639921
  57.0069490  70.2915308  42.4575679  57.9065525  71.1177213  41.5631394
  59.7834050  63.4917184  54.7716240  59.7510370  62.5533185  54.9575924
  60.3934673  63.5701221  54.0382065  51.6217380  62.3613237  40.8143444
  52.5676485  62.2319445  40.8831862  51.2431625  61.6227899  41.2912872
  59.9328538  60.2828227  54.8174523  59.4167587  59.4986684  54.6304452
  60.8168487  59.9546944  54.9821043  57.5939265  54.0269243  50.7770336
  57.3964086  53.7184331  51.6613668  58.2038970  54.7530882  50.9068266
  65.6010599  64.5533191  53.9122277  66.3313988  64.2918479  54.4729980
  64.9917545  63.8161913  53.9524345  63.6825896  62.6941053  54.5096728
  62.9559060  62.5597018  53.9013219  63.2673183  63.0017882  55.3153446
  51.5056073  66.4130983  62.2744101  52.4259082  66.5909582  62.4684147
  51.4705656  65.4687028  62.1223800  49.8060298  60.2863213  40.7498329
  48.8991753  59.9896326  40.8261043  50.0836279  59.9893031  39.8832615
  40.7238238  61.6069577  51.1997376  40.4041022  60.7534885  50.9071750
  40.1771666  61.8218155  51.9555343  44.5018145  64.3232018  54.9166882
  44.7204155  65.2549126  54.9354916  44.9143919  63.9639992  55.7021686
  51.4222363  54.8300103  46.9042570  50.6123092  54.4847188  47.2797817
  52.1106780  54.5207647  47.4930182  53.3512912  53.9078150  48.5266867
  53.9043950  54.3273603  49.1856890  53.5882998  52.9813898  48.5689823
  49.3746011  59.8965224  64.3069631  49.2742738  60.8459580  64.2381722
  49.1567553  59.5683462  63.4345701  48.5759082  57.1450149  40.8910308
  49.4378246  57.4705047  41.1506126  48.7609426  56.3581644  40.3783374
  40.5926498  65.2272488  53.1690497  39.8989969  64.8126441  52.6560452
  41.3399489  65.2693025  52.5723916  56.7291719  56.0178675  48.0345531
  56.1490388  56.6763479  47.6523584  56.4627651  55.1956020  47.6232949
  55.1795285  55.4183733  50.2366852  55.6795063  55.5300267  49.4281171
  55.8230893  55.1144786  50.8767660  49.2377281  63.3262362  63.1234693
  48.7544363  64.1262722  63.3298582  49.3238220  63.3370307  62.1702137
  42.5063240  65.1590742  51.0456512  42.4833929  65.2578429  50.0938395
  42.8163877  66.0055893  51.3673678  45.1650618  67.2166897  55.1603126
  46.1193872  67.1850839  55.0933058  44.9663142  66.7557521  55.9753352
  45.7550000  65.7868013  57.7273924  46.5742889  66.2812092  57.7508761
  46.0286808  64.8699981  57.6991492  55.5116597  58.1778765  47.0901880
  54.6242452  58.4628416  46.8722074  55.9270586  58.0172529  46.2429157
  58.8631133  58.2025286  50.8056219  59.6391523  58.6921739  51.0780836
  58.1379267  58.6283341  51.2628088  61.3003691  58.9152906  51.8630160
  61.8948182  58.6748642  51.1523468  61.3730275  58.1960036  52.4903696
  43.5200847  72.7586517  52.1773324  43.3855315  71.9986917  51.6111322
  43.1032909  73.4827416  51.7102113  54.6559810  67.9423440  41.1849900
  55.3595660  68.1473443  41.8007555  53.9322459  68.5100202  41.4498983
  55.4857620  63.6933301  47.3052170  55.4292822  64.1501853  46.4659802
  56.0385963  62.9323986  47.1275013  59.2962426  59.4823033  48.1302289
  59.0399361  59.0819669  48.9610497  58.6715294  60.1966827  48.0052428
  63.6074764  62.2219106  50.6373581  63.0474322  62.2912296  51.4105143
  63.0018268  62.0460091  49.9173077  46.6769973  73.6555834  52.3891767
  46.5602357  74.6001266  52.2870457  45.8562419  73.3529395  52.7777566
  56.5646508  68.3805969  43.2348360  57.3992111  67.9487168  43.0525834
  56.4030850  68.2087983  44.1625254  56.2192400  64.8838083  44.6004699
  56.1641203  64.7182354  43.6593143  55.5938455  65.5914116  44.7566889
  41.0084915  60.1206147  58.4266121  41.6543778  59.6105101  58.9153346
  40.8002066  60.8574829  59.0009546  53.5338307  67.1886994  63.9258262
  54.4029467  67.3627647  63.5644897  53.0545058  68.0081411  63.8033991
  49.5288525  54.3846192  44.1790017  49.5167195  55.3288032  44.3358288
  50.4211947  54.2016337  43.8849479  47.7024487  74.3084095  55.6047695
  48.6051734  74.3407706  55.9214190  47.4761857  73.3784546  55.6194031
  49.4578089  73.0615082  52.2657774  48.5073720  73.0616944  52.1522146
  49.7610575  72.3147817  51.7493809  53.3440645  50.9788968  48.4335954
  52.5773040  50.4247455  48.5792637  53.7551350  51.0510837  49.2950106
  45.3482406  57.2673764  62.5241135  46.2113867  56.9110569  62.7344460
  44.7747816  56.9287659  63.2116540  62.0020489  78.8503049  53.2665061
  61.6639000  78.7344113  52.3785596  62.8710257  78.4494214  53.2466067
  57.8607305  80.7038525  49.2561952  57.2972170  80.6128462  48.4878240
  57.7459700  79.8838429  49.7364445  62.4840272  80.0037900  59.2251267
  62.4728913  79.6090699  58.3531770  62.6460911  79.2703973  59.8185038
  55.4071737  82.1989717  52.0946173  56.1993028  81.8580541  51.6792472
  55.6468387  82.3084692  53.0148326  63.4406863  84.3709493  44.5676417
  62.7894843  84.9563573  44.1810431  64.2351226  84.9015688  44.6271454
  57.3662490  81.4598630  44.9663551  58.1393366  80.9127617  44.8276427
  57.7187889  82.3242879  45.1778013  59.2047533  82.7875012  58.1730451
  58.9137399  83.6920643  58.0577117  59.8404517  82.8291540  58.8874520
  60.1303740  80.1651861  54.7631810  60.7267312  79.9407883  54.0488773
  60.1878711  79.4236606  55.3657258  59.7028768  77.6191296  42.5982001
  59.9554289  77.0972817  41.8365464  58.7653327  77.4557441  42.7008685
  64.7472051  76.6227074  50.4056744  65.5335140  76.2046497  50.0547161
  65.0110755  77.5273166  50.5738393  64.9182128  82.0599925  45.1045401
  64.2827961  82.1334551  45.8166306  64.5879535  82.6493523  44.4264481
  59.4225057  79.5219402  44.8006376  59.3061315  78.8464305  45.4687460
  59.5327317  79.0351776  43.9838529  61.7656598  78.9829549  48.5053065
  61.4014805  78.4560170  49.2165987  62.6223714  78.5928018  48.3319551
  61.4062085  74.0119449  43.5014414  61.5736487  74.8799685  43.8684885
  61.2159254  74.1746730  42.5775703  64.1637418  82.4736428  55.1680244
  63.8638141  83.3761466  55.0596052  63.8188478  82.2068611  56.0201397
  57.6149900  78.9250224  51.2016949  56.6900396  78.7926439  51.4094640
  57.8634313  79.7044444  51.6986891  61.3851306  76.4677106  44.4861081
  61.2650931  76.9134157  45.3246561  60.6903894  76.8162424  43.9274619
  54.9758711  78.5683498  52.0360738  55.1051092  78.8217977  52.9500150
  54.2956162  79.1611206  51.7165393  59.1458198  89.2380748  48.1351212
  59.0682228  90.1888573  48.2139693  58.5419841  88.8926620  48.7926138
  61.6375428  76.4108613  60.7912579  60.8608762  76.9702533  60.7815444
  62.2765991  76.8965396  61.3127449  59.8921800  79.2194067  60.3530546
  60.6336484  79.7579111  60.0765370  59.1858785  79.8460355  60.5102098
  61.7208210  76.2995814  56.3236264  62.5669405  76.7235227  56.4670913
  61.6606847  75.6429438  57.0174827  64.8707655  73.9600182  57.9817438
  64.6268587  74.7142243  57.4451714  65.1467586  74.3385530  58.8164685
  64.4272347  73.1156615  53.5631276  63.5656826  73.4137869  53.8548013
  64.4534781  73.3327014  52.6312308  61.2433916  81.6598806  49.9705081
  61.7072262  81.9386509  49.1809704  60.9790714  80.7582250  49.7878172
  58.1357997  81.2070287  52.9084845  58.7059354  81.6357556  52.2702329
  58.7266109  80.9252872  53.6069030  60.1802802  77.7821958  46.7794647
  60.8826846  78.2343002  47.2468573  59.8483431  77.1405777  47.4074540
  58.6283164  76.3733715  61.1545856  57.9981824  77.0549996  61.3881253
  58.5219252  76.2616796  60.2098994  53.9228136  76.0405511  52.0811780
  53.1327190  76.2963039  51.6051891  54.4139384  76.8553849  52.1863821
  55.8742882  76.4050090  49.0395257  55.0774045  76.5168784  49.5578752
  55.6468474  76.7436742  48.1736147  61.7048549  82.9294793  56.9877771
  61.7692982  83.3915201  57.8235943  60.9959473  82.2992158  57.1160081
  52.2065839  76.2936001  54.5126771  52.4573878  77.1783011  54.7784347
  52.7425388  76.1140603  53.7401863  61.4196567  84.5962901  46.8556752
  61.2842242  85.4414437  47.2841600  61.9606379  84.7982179  46.0922686
  57.9063906  70.6754481  63.5171107  57.5130852  70.1220679  64.1918751
  58.7230047  70.9865059  63.9077624  54.8725964  82.1138339  47.4284677
  55.3850485  82.9081589  47.5790241  55.5248677  81.4164629  47.3618278
  56.6820849  85.2304095  49.5107430  56.8587477  86.1522060  49.3228414
  57.4777682  84.9162514  49.9401810  60.8231867  72.0912360  61.1091364
  61.5641581  72.6919513  61.0295826  61.0549790  71.3489998  60.5509406
  55.9673205  77.2768727  59.3869593  55.8526721  76.3753984  59.6876692
  55.1117723  77.5232424  59.0354410  57.8052164  86.7482269  55.5117772
  58.3559590  86.6199332  54.7394766  56.9663640  87.0477158  55.1612665
  61.6019335  83.0133397  59.8562003  62.1347672  82.2521685  59.6261311
  61.0733417  82.7207049  60.5986158  64.7689030  68.1193463  55.3855645
  64.4253300  69.0095104  55.3094756  65.1367993  67.9295120  54.5225230
  52.8374881  80.4426993  48.2044247  53.6750103  80.8524002  47.9877955
  53.0153149  79.5026435  48.1744441  62.3186424  72.9551775  48.9513319
  61.4628020  72.5658625  48.7718957  62.7313376  73.0343735  48.0913104
  63.8485571  70.4898118  53.3504878  63.3450366  70.4528253  52.5372684
  64.1416178  71.3990861  53.4101535  60.0928457  70.5736848  52.3571060
  60.9581453  70.3779656  51.9976950  60.1605966  70.3447199  53.2840417
  62.9672048  82.1419389  47.3680815  62.4393410  81.4072149  47.0554053
  62.4659551  82.9194066  47.1220784  57.6990776  72.8039056  49.7287427
  58.2734528  72.5814237  48.9960620  58.2861758  72.8727750  50.4816028
  58.0260363  74.8343517  43.7483312  57.1897675  75.1718203  44.0692587
  57.8865132  74.6992496  42.8110449  60.0013443  69.6780304  48.4562496
  59.3477856  69.3629322  47.8319111  59.9593918  69.0556045  49.1822319
  61.1124648  79.9599600  40.3715788  60.2051710  79.7288853  40.5706937
  61.6095680  79.1637219  40.5589770  64.0192727  88.6697107  43.2912475
  63.3454426  88.9728803  43.8997432  64.4058549  89.4726187  42.9417932
  63.2351184  76.1662238  52.7810144  62.3173745  76.3877185  52.6231832
  63.6511327  76.2408548  51.9221851  62.2912882  80.0612194  44.8939779
  61.3824101  79.7771227  44.9912248  62.3207966  80.4811273  44.0343085
  65.9665088  85.5095281  49.5980764  66.2588063  86.0700338  48.8793130
  66.4763709  85.8023842  50.3533923  66.5676696  67.3787022  50.4873383
  66.8735573  66.5184385  50.1999298  67.2929301  67.9704642  50.2872377
  52.8601052  77.7817709  48.8754981  52.6625452  77.1887069  48.1506047
  52.3047716  77.4769919  49.5930920  60.8397776  77.6740815  50.9949574
  60.8946386  76.7214651  50.9192051  60.0288978  77.8300254  51.4790872
  61.9888970  81.6020938  42.2327857  61.5508399  80.8856797  41.7733495
  62.7299410  81.8297053  41.6712949  58.7790136  76.2917875  48.7539953
  57.9658001  76.5912045  49.1605145  59.2749130  75.8973564  49.4714435
  60.9298714  86.2875632  50.6874217  60.8874892  86.5136478  49.7582750
  61.8461412  86.0539006  50.8360019  64.3764347  76.7559699  57.5854847
  64.7313735  76.9831172  58.4449312  65.0236479  77.0878076  56.9632102
  58.2704210  73.8636230  54.3701188  58.9103590  73.7224989  53.6724151
  57.4381741  73.5770744  53.9939790  59.0464514  83.1638661  50.4836180
  59.8405113  82.6688981  50.2818755  58.3356207  82.6356524  50.1203886
  63.8659359  85.5456756  54.8348548  63.9196381  86.1147693  55.6026264
  62.9974140  85.7158641  54.4702585  55.3547278  77.3081742  46.5595933
  54.4244866  77.2466198  46.7765895  55.4504750  76.7857695  45.7632574
  55.2732827  73.8336555  49.1474175  55.5339644  74.7481889  49.0383335
  56.0949999  73.3660998  49.2970787  56.7457752  75.2474312  56.3172999
  57.4180806  75.0391675  55.6685648  55.9187539  75.0496398  55.8778231
  62.6483324  71.8736253  58.3338660  62.0011239  72.5726203  58.2403136
  63.4184340  72.3072397  58.7014908  62.8247459  79.7117018  56.3935480
  63.7539519  79.8628178  56.2204447  62.4038489  79.8001039  55.5384126
  61.6235790  83.7367683  54.1634017  61.4846876  83.3686467  55.0359955
  60.8350387  84.2515322  53.9917975  62.2183942  88.8376779  45.5059554
  62.3935698  88.3664822  46.3205177  61.5316730  89.4642545  45.7340815
  63.1741006  83.1149285  51.5522855  62.8390838  83.0750055  52.4480505
  62.6744951  82.4494001  51.0793265  57.1485249  78.5216915  57.0775436
  57.0105047  77.7897154  57.6786975  58.0590173  78.4325816  56.7959624
  66.1100197  80.4605320  41.8259915  65.4929368  79.7352148  41.7292967
  65.6416686  81.2214680  41.4826989  59.7767550  78.2336875  56.5659116
  60.4867169  77.5930067  56.5245734  59.7336858  78.4849770  57.4885297
  58.4896484  75.2202093  58.3854755  57.9533841  74.7692831  59.0376352
  57.9013193  75.3548001  57.6425220  56.7845028  91.9866142  52.2799414
  57.0241626  92.6184666  52.9578433  55.9414224  91.6354182  52.5664773
  57.8998743  74.6790744  40.9481219  57.0228209  74.5579545  40.5843466
  58.3756496  73.8876822  40.6960108  49.4200883  79.4667904  51.0422726
  50.1071923  79.1529634  50.4543741  49.2649012  80.3709268  50.7689978
  54.2235605  74.3558100  55.4707750  54.1393794  73.7483770  54.7358160
  53.4018312  74.8467119  55.4717246  61.2972889  87.7945264  54.6840918
  61.2243061  88.6000236  55.1960223  60.8550283  87.9937230  53.8588939
  61.0862669  87.0317034  48.1943740  60.3030191  87.5738715  48.2881964
  61.7855414  87.5491014  48.5937981  64.3959319  72.8411664  50.8377945
  64.8928019  72.0881626  50.5179015  63.6246301  72.8775980  50.2721154
  63.7571573  87.6932098  56.8399077  64.4699545  88.3279563  56.7674978
  63.2661602  87.7895964  56.0239078  60.9794288  74.9829047  50.5649630
  60.6092076  74.4300087  51.2530535  61.4753380  74.3787180  50.0124630
  58.8083487  85.4426542  57.6604647  59.5092946  86.0763025  57.8134042
  58.3378602  85.7841273  56.9000287  66.6084773  77.9971149  55.4857198
  65.9556223  78.2447057  54.8309651  66.9865152  77.1835287  55.1519675
  63.5691946  88.0330842  49.5885368  63.7514341  87.2152498  50.0513120
  64.3924932  88.2498535  49.1510258  63.9034112  86.9599028  46.8500417
  64.4321878  86.4491482  46.2370579  64.1662331  86.6441558  47.7145950
  62.6572346  78.7390960  61.9723235  61.9812983  78.6385090  62.6425610
  63.4799979  78.5830174  62.4359232  54.4051205  84.9762897  54.5935750
  54.9904641  84.2306585  54.7263654  54.2076043  85.2866854  55.4772414
  57.2589860  88.0114144  49.6098193  56.5900235  88.4960272  49.1262233
  57.1202730  88.2583365  50.5241571  48.9968859  77.5468497  53.3140193
  49.0352959  77.0132088  54.1077311  48.4909152  77.0203703  52.6951170
  61.3995128  90.0457888  56.2080851  61.9513436  90.2089509  56.9729936
  61.7401322  90.6362326  55.5360876  56.3759622  72.3933038  56.8102736
  56.4400948  73.2547869  56.3980133  56.3126742  71.7807039  56.0775094
  55.8511894  74.4656170  60.4575770  56.4783933  74.0833247  61.0713294
  54.9939813  74.2470372  60.8231462  52.6277437  76.2732599  46.3894125
  52.9230878  75.3643278  46.3361178  51.7265473  76.2520339  46.0675127
  64.5363516  87.9939863  53.1944533  64.4114655  87.1929603  52.6855479
  65.1942607  88.4886057  52.7058503  56.1571684  74.3488596  52.3721673
  55.4358270  74.9624564  52.2329147  56.9464940  74.8846361  52.2938319
  58.9597997  71.6843022  58.6462325  59.4832399  71.9305319  59.4088634
  58.7410331  72.5163057  58.2265462  54.3565279  73.9546697  46.5133450
  54.0277985  73.0744076  46.3308556  54.7104649  73.8994366  47.4009839
  57.4707102  74.2419667  46.8808928  57.8103174  74.7705588  46.1587536
  57.9179222  74.5800073  47.6567494  67.2078979  86.4130158  52.1093308
  68.1325527  86.2073020  51.9717759  67.0394283  86.1646560  53.0182650
  60.1650542  72.6256717  56.3311996  59.8247363  71.8264531  56.7332675
  59.4589549  72.9258428  55.7588829  60.8167014  69.7106030  54.7839319
  61.6393084  69.2366508  54.6618209  61.0605078  70.4896514  55.2838005
  59.4575249  72.7394288  45.0802220  60.1783611  73.1175541  44.5765937
  58.8340553  73.4583165  45.1837198  63.6006372  73.4439437  46.0160553
  63.8169986  74.3264075  45.7149381  63.1200439  73.0525651  45.2866195
  58.3405593  76.4025151  52.5931297  58.1950174  76.7165454  53.4855579
  57.8630797  77.0210051  52.0402196  60.2001976  73.3927698  52.6412187
  60.1863545  72.4968792  52.3044485  60.9174404  73.3998362  53.2750473
  62.0528107  73.8265039  54.6865314  61.7945884  74.7482109  54.6849645
  61.5213147  73.4295473  55.3765778  66.9974295  86.9315826  47.4655400
  67.1711173  86.3662248  46.7129252  67.4903187  87.7316721  47.2834890
  52.8151255  78.9430495  55.5318958  52.2704723  79.7190303  55.6639233
  53.6930605  79.2901299  55.3738080  59.6038872  72.2742079  47.9099757
  59.7254783  71.3458725  48.1090644  59.3140914  72.2880765  46.9978072
  62.4730062  69.9596989  51.0466477  62.4951759  70.0236322  50.0918456
  62.8898121  69.1201498  51.2406983  53.6017277  78.0700391  58.4249115
  52.8599013  78.2183027  59.0113746  53.2810021  78.3308657  57.5615865
  61.5681552  89.7654279  50.4534882  61.1286542  89.2730658  51.1467739
  62.3189669  89.2227247  50.2126957  54.0473891  85.9565820  50.4559510
  54.8731911  85.6569592  50.0758153  53.6967943  85.1873442  50.9049299
  59.0155424  85.3092288  52.5257183  58.3935433  84.6462993  52.2259411
  59.6860291  85.3353420  51.8430831  52.2482496  83.8752146  51.4148443
  51.4114404  83.4474321  51.2332445  52.2206141  84.0684590  52.3519235
  59.0879951  73.7874076  62.1189690  59.1368107  74.6636199  61.7367459
  59.6302466  73.2451469  61.5461333  58.5768931  83.8596211  46.0015644
  58.7257051  84.5431676  45.3482317  59.3835374  83.8401302  46.5165100
  61.3179240  74.5405449  58.8736048  60.4482549  74.8339015  58.6018637
  61.5538720  75.1245894  59.5943312  56.3321564  79.8861389  47.0076713
  56.0867606  78.9823719  47.2056923  56.5017478  79.8878540  46.0656191
  64.0218274  70.7585065  56.3901469  64.5400218  71.4946092  56.0647957
  63.6673406  71.0649059  57.2248228  55.6017211  75.6189747  44.5062874
  54.9086456  75.6934102  43.8502910  55.3568963  74.8550090  45.0284391
  64.2730868  67.1785348  51.9102365  64.5532622  66.5108537  52.5362792
  65.0581475  67.3714444  51.3977029  62.0764336  86.3544342  43.4727391
  61.5038303  86.9734529  43.0197863  62.6497130  86.9043704  44.0067313
  65.2961596  86.6381492  44.6035974  66.2292269  86.5727054  44.8068849
  65.2084809  87.4737759  44.1450506  67.9249613  85.9547362  41.5639921
  67.8463244  85.6207226  42.4575679  68.7459280  86.4469130  41.5631394
  62.4611135  77.6905155  40.8143444  63.4070240  77.5611363  40.8831862
  62.0825380  76.9519817  41.2912872  68.4333019  69.3561161  50.7770336
  68.2357841  69.0476249  51.6613668  69.0432725  70.0822800  50.9068266
  62.3449827  81.7422901  62.2744101  63.2652837  81.9201500  62.4684147
  62.3099410  80.7978946  62.1223800  60.6454052  75.6155131  40.7498329
  59.7385507  75.3188244  40.8261043  60.9230033  75.3184949  39.8832615
  51.5631992  76.9361494  51.1997376  51.2434777  76.0826803  50.9071750
  51.0165421  77.1510073  51.9555343  55.3411900  79.6523935  54.9166882
  55.5597910  80.5841043  54.9354916  55.7537674  79.2931910  55.7021686
  62.2616118  70.1592021  46.9042570  61.4516846  69.8139106  47.2797817
  62.9500535  69.8499564  47.4930182  64.1906666  69.2370068  48.5266867
  64.7437705  69.6565521  49.1856890  64.4276752  68.3105816  48.5689823
  60.2139765  75.2257141  64.3069631  60.1136492  76.1751498  64.2381722
  59.9961307  74.8975380  63.4345701  59.4152837  72.4742066  40.8910308
  60.2772001  72.7996965  41.1506126  59.6003181  71.6873562  40.3783374
  51.4320252  80.5564406  53.1690497  50.7383724  80.1418359  52.6560452
  52.1793243  80.5984942  52.5723916  67.5685473  71.3470593  48.0345531
  66.9884142  72.0055397  47.6523584  67.3021406  70.5247937  47.6232949
  66.0189039  70.7475650  50.2366852  66.5188818  70.8592185  49.4281171
  66.6624647  70.4436703  50.8767660  60.0771035  78.6554280  63.1234693
  59.5938117  79.4554640  63.3298582  60.1631974  78.6662225  62.1702137
  53.3456995  80.4882660  51.0456512  53.3227683  80.5870347  50.0938395
  53.6557631  81.3347811  51.3673678  56.0044373  82.5458815  55.1603126
  56.9587626  82.5142757  55.0933058  55.8056896  82.0849438  55.9753352
  56.5943755  81.1159931  57.7273924  57.4136644  81.6104009  57.7508761
  56.8680563  80.1991899  57.6991492  54.3594602  88.0878434  52.1773324
  54.2249070  87.3278835  51.6111322  53.9426664  88.8119334  51.7102113
  65.4953565  83.2715358  41.1849900  66.1989415  83.4765360  41.8007555
  64.7716213  83.8392120  41.4498983  57.5163727  88.9847751  52.3891767
  57.3996112  89.9293184  52.2870457  56.6956174  88.6821313  52.7777566
  67.4040262  83.7097887  43.2348360  68.2385866  83.2779085  43.0525834
  67.2424605  83.5379901  44.1625254  51.8478669  75.4498065  58.4266121
  52.4937533  74.9397019  58.9153346  51.6395820  76.1866746  59.0009546
  64.3732061  82.5178912  63.9258262  65.2423221  82.6919564  63.5644897
  63.8938813  83.3373329  63.8033991  60.3682280  69.7138109  44.1790017
  60.3560949  70.6579949  44.3358288  61.2605702  69.5308255  43.8849479
  58.5418242  89.6376013  55.6047695  59.4445488  89.6699623  55.9214190
  58.3155612  88.7076464  55.6194031  60.2971844  88.3907000  52.2657774
  59.3467475  88.3908861  52.1522146  60.6004330  87.6439734  51.7493809
  64.1834399  66.3080886  48.4335954  63.4166795  65.7539373  48.5792637
  64.5945104  66.3802755  49.2950106  56.1876160  72.5965682  62.5241135
  57.0507622  72.2402487  62.7344460  55.6141571  72.2579577  63.2116540
  68.7001059  96.0330443  49.2561952  68.1365924  95.9420380  48.4878240
  68.5853454  95.2130347  49.7364445  74.2800618  99.7001410  44.5676417
  73.6288598 100.2855491  44.1810431  75.0744981 100.2307605  44.6271454
  68.2056245  96.7890547  44.9663551  68.9787121  96.2419535  44.8276427
  68.5581644  97.6534797  45.1778013  70.5422523  92.9483214  42.5982001
  70.7948043  92.4264735  41.8365464  69.6047082  92.7849359  42.7008685
  70.2618812  94.8511320  44.8006376  70.1455070  94.1756223  45.4687460
  70.3721071  94.3643693  43.9838529  72.2455839  89.3411366  43.5014414
  72.4130242  90.2091603  43.8684885  72.0553008  89.5038648  42.5775703
  68.4543654  94.2542142  51.2016949  67.5294151  94.1218356  51.4094640
  68.7028067  95.0336361  51.6986891  65.8152465  93.8975416  52.0360738
  65.9444846  94.1509895  52.9500150  65.1349916  94.4903124  51.7165393
  69.9851952 104.5672666  48.1351212  69.9075982 105.5180491  48.2139693
  69.3813596 104.2218538  48.7926138  72.0827671  96.9890724  49.9705081
  72.5466016  97.2678427  49.1809704  71.8184469  96.0874168  49.7878172
  64.7621891  91.3697429  52.0811780  63.9720945  91.6254957  51.6051891
  65.2533138  92.1845766  52.1863821  66.7136636  91.7342008  49.0395257
  65.9167799  91.8460702  49.5578752  66.4862228  92.0728660  48.1736147
  72.2590321  99.9254819  46.8556752  72.1235996 100.7706354  47.2841600
  72.8000134 100.1274096  46.0922686  65.7119719  97.4430257  47.4284677
  66.2244239  98.2373507  47.5790241  66.3642432  96.7456547  47.3618278
  67.5214603 100.5596013  49.5107430  67.6981232 101.4813978  49.3228414
  68.3171437 100.2454432  49.9401810  63.6768635  95.7718911  48.2044247
  64.5143857  96.1815919  47.9877955  63.8546903  94.8318353  48.1744441
  68.8654117  90.1635434  43.7483312  68.0291430  90.5010121  44.0692587
  68.7258887  90.0284414  42.8110449  71.9518403  95.2891517  40.3715788
  71.0445465  95.0580771  40.5706937  72.4489435  94.4929136  40.5589770
  74.8586482 103.9989024  43.2912475  74.1848180 104.3020721  43.8997432
  75.2452304 104.8018105  42.9417932  63.6994807  93.1109626  48.8754981
  63.5019206  92.5178987  48.1506047  63.1441471  92.8061836  49.5930920
  72.8282724  96.9312856  42.2327857  72.3902154  96.2148715  41.7733495
  73.5693165  97.1588971  41.6712949  66.1941032  92.6373660  46.5595933
  65.2638620  92.5758116  46.7765895  66.2898504  92.1149613  45.7632574
  66.1126581  89.1628473  49.1474175  66.3733399  90.0773806  49.0383335
  66.9343754  88.6952915  49.2970787  73.0577697 104.1668697  45.5059554
  73.2329453 103.6956740  46.3205177  72.3710485 104.7934463  45.7340815
  67.6238782 107.3158060  52.2799414  67.8635380 107.9476584  52.9578433
  66.7807979 106.9646100  52.5664773  68.7392498  90.0082662  40.9481219
  67.8621964  89.8871462  40.5843466  69.2150251  89.2168740  40.6960108
  68.0983614 103.3406062  49.6098193  67.4293990 103.8252190  49.1262233
  67.9596484 103.5875282  50.5241571  63.4671191  91.6024517  46.3894125
  63.7624632  90.6935195  46.3361178  62.5659227  91.5812256  46.0675127
  65.1959033  89.2838615  46.5133450  64.8671739  88.4035994  46.3308556
  65.5498404  89.2286283  47.4009839  68.3100856  89.5711584  46.8808928
  68.6496929  90.0997506  46.1587536  68.7572977  89.9091991  47.6567494
  69.4162685  99.1888129  46.0015644  69.5650806  99.8723594  45.3482317
  70.2229129  99.1693219  46.5165100  67.1715318  95.2153307  47.0076713
  66.9261360  94.3115637  47.2056923  67.3411233  95.2170457  46.0656191
  66.4410966  90.9481664  44.5062874  65.7480211  91.0226019  43.8502910
  66.1962718  90.1842008  45.0284391  72.9158091 101.6836260  43.4727391
  72.3432058 102.3026447  43.0197863  73.4890885 102.2335621  44.0067313
  71.4847807  90.9447049  40.7498329  70.5779262  90.6480161  40.8261043
  71.7623788  90.6476867  39.8832615  62.4025747  92.2653412  51.1997376
  62.0828531  91.4118720  50.9071750  61.8559175  92.4801990  51.9555343
  70.2546591  87.8033984  40.8910308  71.1165755  88.1288882  41.1506126
  70.4396935  87.0165480  40.3783374  68.3557482 104.3139669  52.3891767
  68.2389866 105.2585101  52.2870457  67.5349928 104.0113230  52.7777566
  62.6872424  90.7789982  58.4266121  63.3331287  90.2688936  58.9153346
  62.4789575  91.5158664  59.0009546  79.5394814 111.3622360  49.2561952
  78.9759679 111.2712297  48.4878240  79.4247209 110.5422265  49.7364445
  77.0859246 112.8573552  52.0946173  77.8780537 112.5164377  51.6792472
  77.3255896 112.9668527  53.0148326  85.1194372 115.0293328  44.5676417
  84.4682352 115.6147408  44.1810431  85.9138735 115.5599523  44.6271454
  79.0449999 112.1182465  44.9663551  79.8180875 111.5711452  44.8276427
  79.3975398 112.9826714  45.1778013  81.3816277 108.2775131  42.5982001
  81.6341798 107.7556653  41.8365464  80.4440836 108.1141277  42.7008685
  86.5969637 112.7183760  45.1045401  85.9615470 112.7918386  45.8166306
  86.2667044 113.3077359  44.4264481  81.1012566 110.1803237  44.8006376
  80.9848824 109.5048141  45.4687460  81.2114826 109.6935611  43.9838529
  76.6546220 109.2267333  52.0360738  76.7838601 109.4801812  52.9500150
  75.9743671 109.8195041  51.7165393  80.8245707 119.8964583  48.1351212
  80.7469737 120.8472408  48.2139693  80.2207350 119.5510456  48.7926138
  91.2482695 113.5162671  50.0599360  90.5633733 113.8961572  49.5096393
  91.3326544 114.1257998  50.7931308  97.7085448 110.3833334  51.1802032
  96.9549156 109.8140732  51.0246037  97.8432989 110.3495998  52.1272667
  83.0984076 115.2546736  46.8556752  82.9629751 116.0998272  47.2841600
  83.6393888 115.4566014  46.0922686  76.5513473 112.7722174  47.4284677
  77.0637994 113.5665425  47.5790241  77.2036186 112.0748465  47.3618278
  78.3608358 115.8887931  49.5107430  78.5374986 116.8105895  49.3228414
  79.1565191 115.5746350  49.9401810  79.4839673 117.4066104  55.5117772
  80.0347098 117.2783168  54.7394766  78.6451149 117.7060993  55.1612665
  74.5162390 111.1010829  48.2044247  75.3537612 111.5107837  47.9877955
  74.6940658 110.1610271  48.1744441  91.3861096 111.5218264  45.8281254
  90.6090539 111.1829423  45.3836416  92.0652577 111.5270887  45.1536219
  84.6459557 112.8003225  47.3680815  84.1180919 112.0655984  47.0554053
  84.1447060 113.5777901  47.1220784  82.7912157 110.6183435  40.3715788
  81.8839219 110.3872688  40.5706937  83.2883189 109.8221054  40.5589770
  85.6980236 119.3280942  43.2912475  85.0241935 119.6312639  43.8997432
  86.0846058 120.1310022  42.9417932  83.9700391 110.7196030  44.8939779
  83.0611610 110.4355063  44.9912248  83.9995475 111.1395108  44.0343085
  89.2019658 114.3302619  48.6630946  88.7481985 113.4893529  48.7196137
  88.5713625 114.9664018  49.0005726  87.6452597 116.1679116  49.5980764
  87.9375572 116.7284173  48.8793130  88.1551218 116.4607677  50.3533923
  74.5388561 108.4401544  48.8754981  74.3412961 107.8470905  48.1506047
  73.9835225 108.1353754  49.5930920  83.6676479 112.2604773  42.2327857
  83.2295908 111.5440632  41.7733495  84.4086919 112.4880888  41.6712949
  82.6086223 116.9459467  50.6874217  82.5662401 117.1720313  49.7582750
  83.5248921 116.7122842  50.8360019  91.7849593 110.5361970  48.2904176
  91.6467492 110.7263566  47.3625365  91.4285812 111.2981353  48.7472227
  91.8118973 112.6038497  53.3015447  92.2455480 112.5113787  54.1498501
  92.5250554 112.5795998  52.6635463  80.7252023 113.8222496  50.4836180
  81.5192622 113.3272816  50.2818755  80.0143716 113.2940359  50.1203886
  77.0334787 107.9665578  46.5595933  76.1032375 107.9050033  46.7765895
  77.1292259 107.4441531  45.7632574  83.8971451 119.4960614  45.5059554
  84.0723207 119.0248658  46.3205177  83.2104239 120.1226381  45.7340815
  87.7887706 111.1189155  41.8259915  87.1716877 110.3935983  41.7292967
  87.3204195 111.8798515  41.4826989  78.4632537 122.6449977  52.2799414
  78.7029135 123.2768501  52.9578433  77.6201733 122.2938017  52.5664773
  79.5786252 105.3374579  40.9481219  78.7015718 105.2163380  40.5843466
  80.0544005 104.5460658  40.6960108  71.0988392 110.1251739  51.0422726
  71.7859432 109.8113469  50.4543741  70.9436521 111.0293104  50.7689978
  82.9760398 118.4529100  54.6840918  82.9030570 119.2584071  55.1960223
  82.5337792 118.6521066  53.8588939  82.7650178 117.6900870  48.1943740
  81.9817700 118.2322550  48.2881964  83.4642923 118.2074849  48.5937981
  93.9276586 109.2035865  52.4796236  93.9166462 110.0860580  52.1090170
  93.0593965 108.8507416  52.2850773  87.1576609 112.2567186  48.4116368
  86.2232888 112.3768649  48.2421073  87.3353277 111.3539653  48.1476378
  88.6125391 114.4428327  45.9452554  88.8885235 114.3284922  46.8546429
  87.7429890 114.0445812  45.9064728  85.2479455 118.6914678  49.5885368
  85.4301850 117.8736334  50.0513120  86.0712441 118.9082370  49.1510258
  85.5821621 117.6182863  46.8500417  86.1109387 117.1075318  46.2370579
  85.8449840 117.3025393  47.7145950  76.0838714 115.6346732  54.5935750
  76.6692150 114.8890420  54.7263654  75.8863552 115.9450689  55.4772414
  78.9377369 118.6697980  49.6098193  78.2687744 119.1544107  49.1262233
  78.7990239 118.9167200  50.5241571  70.6756368 108.2052332  53.3140193
  70.7140468 107.6715923  54.1077311  70.1696661 107.6787538  52.6951170
  83.0782637 120.7041723  56.2080851  83.6300945 120.8673345  56.9729936
  83.4188831 121.2946161  55.5360876  74.3064946 106.9316435  46.3894125
  74.6018387 106.0227113  46.3361178  73.4052982 106.9104174  46.0675127
  86.2151025 118.6523699  53.1944533  86.0902164 117.8513439  52.6855479
  86.8730116 119.1469892  52.7058503  85.2832366 116.2485435  51.0228435
  85.1357329 115.3202142  51.2036005  86.1085860 116.2705526  50.5385511
  88.8866488 117.0713994  52.1093308  89.8113036 116.8656855  51.9717759
  88.7181792 116.8230395  53.0182650  88.6761804 117.5899661  47.4655400
  88.8498682 117.0246084  46.7129252  89.1690696 118.3900556  47.2834890
  89.6636977 116.9066426  44.5652298  90.3587882 117.5273118  44.7839613
  90.0060127 116.0561777  44.8404676  91.5628400 114.3566131  46.0939629
  92.0879724 114.6953404  45.3688949  91.4750753 113.4213146  45.9102763
  83.2469061 120.4238114  50.4534882  82.8074051 119.9314493  51.1467739
  83.9977178 119.8811082  50.2126957  75.7261400 116.6149655  50.4559510
  76.5519420 116.3153427  50.0758153  75.3755452 115.8457278  50.9049299
  80.6942933 115.9676123  52.5257183  80.0722942 115.3046828  52.2259411
  81.3647800 115.9937255  51.8430831  73.9270005 114.5335982  51.4148443
  73.0901913 114.1058156  51.2332445  73.8993650 114.7268425  52.3519235
  80.2556440 114.5180047  46.0015644  80.4044560 115.2015511  45.3482317
  81.0622883 114.4985137  46.5165100  94.0734060 111.8241322  51.4768147
  94.9080952 112.2631126  51.6405707  94.2093189 111.3479976  50.6576393
  78.0109073 110.5445224  47.0076713  77.7655115 109.6407554  47.2056923
  78.1804987 110.5462375  46.0656191  77.2804720 106.2773582  44.5062874
  76.5873965 106.3517937  43.8502910  77.0356472 105.5133926  45.0284391
  83.7551845 117.0128177  43.4727391  83.1825812 117.6318364  43.0197863
  84.3284639 117.5627539  44.0067313  86.9749105 117.2965327  44.6035974
  87.9079778 117.2310889  44.8068849  86.8872318 118.1321594  44.1450506
  89.6037122 116.6131198  41.5639921  89.5250753 116.2791061  42.4575679
  90.4246789 117.1052966  41.5631394  84.1398644 108.3488990  40.8143444
  85.0857749 108.2195198  40.8831862  83.7612889 107.6103652  41.2912872
  98.1191863 110.5408944  53.9122277  98.8495251 110.2794232  54.4729980
  97.5098808 109.8037666  53.9524345  82.3241561 106.2738966  40.7498329
  81.4173016 105.9772079  40.8261043  82.6017542 105.9768784  39.8832615
  77.0199409 110.3107771  54.9166882  77.2385419 111.2424879  54.9354916
  77.4325183 109.9515745  55.7021686  73.1107761 111.2148241  53.1690497
  72.4171233 110.8002194  52.6560452  73.8580752 111.2568778  52.5723916
  77.6831882 113.2042650  55.1603126  78.6375135 113.1726592  55.0933058
  77.4844405 112.7433274  55.9753352  76.0382111 118.7462270  52.1773324
  75.9036579 117.9862670  51.6111322  75.6214173 119.4703169  51.7102113
  87.1741074 113.9299193  41.1849900  87.8776924 114.1349196  41.8007555
  86.4503722 114.4975955  41.4498983  96.1256028 108.2094860  50.6373581
  95.5655586 108.2788049  51.4105143  95.5199531 108.0335844  49.9173077
  79.1951236 119.6431587  52.3891767  79.0783621 120.5877019  52.2870457
  78.3743683 119.3405148  52.7777566  89.0827771 114.3681722  43.2348360
  89.9173375 113.9362921  43.0525834  88.9212114 114.1963736  44.1625254
  88.7373663 110.8713836  44.6004699  88.6822467 110.7058107  43.6593143
  88.1119718 111.5789869  44.7566889  80.2205751 120.2959848  55.6047695
  81.1232997 120.3283459  55.9214190  79.9943121 119.3660299  55.6194031
  81.9759353 119.0490835  52.2657774  81.0254984 119.0492697  52.1522146
  82.2791839 118.3023570  51.7493809  97.7112046 124.8851373  53.3303536
  98.3490456 124.7658121  52.6266876  97.5932889 125.8332217  53.3891489
  94.5201752 124.8378802  53.2665061  94.1820264 124.7219866  52.3785596
  95.3891521 124.4369967  53.2466067  90.3788568 126.6914278  49.2561952
  89.8153433 126.6004215  48.4878240  90.2640963 125.8714182  49.7364445
  95.0021535 125.9913653  59.2251267  94.9910176 125.5966452  58.3531770
  95.1642175 125.2579726  59.8185038  87.9253000 128.1865470  52.0946173
  88.7174292 127.8456294  51.6792472  88.1649650 128.2960445  53.0148326
  95.9588127 130.3585246  44.5676417  95.3076107 130.9439326  44.1810431
  96.7532490 130.8891441  44.6271454  89.8843754 127.4474383  44.9663551
  90.6574630 126.9003370  44.8276427  90.2369153 128.3118632  45.1778013
  91.7228796 128.7750765  58.1730451  91.4318662 129.6796396  58.0577117
  92.3585781 128.8167293  58.8874520  92.6485003 126.1527614  54.7631810
  93.2448576 125.9283636  54.0488773  92.7059975 125.4112359  55.3657258
  92.2210032 123.6067049  42.5982001  92.4735552 123.0848570  41.8365464
  91.2834591 123.4433194  42.7008685  97.2653315 122.6102827  50.4056744
  98.0516404 122.1922250  50.0547161  97.5292019 123.5148919  50.5738393
  97.4363392 128.0475678  45.1045401  96.8009225 128.1210304  45.8166306
  97.1060798 128.6369276  44.4264481 102.6661742 122.5478060  51.3089723
 103.3986914 121.9777277  51.5427552 101.9101097 122.1599661  51.7496229
  91.9406320 125.5095155  44.8006376  91.8242579 124.8340058  45.4687460
  92.0508580 125.0227529  43.9838529  94.2837861 124.9705302  48.5053065
  93.9196069 124.4435923  49.2165987  95.1404977 124.5803771  48.3319551
 100.1887162 116.2599635  55.7684332  99.8570487 117.1295046  55.5445547
  99.5932775 115.9435919  56.4478362  93.9243348 119.9995202  43.5014414
  94.0917751 120.8675438  43.8684885  93.7340517 120.1622483  42.5775703
  96.6818682 128.4612181  55.1680244  96.3819405 129.3637219  55.0596052
  96.3369741 128.1944364  56.0201397  90.1331163 124.9125977  51.2016949
  89.2081660 124.7802192  51.4094640  90.3815576 125.6920197  51.6986891
 100.0815825 120.9794721  52.8477682  99.1732703 120.9110129  52.5536443
 100.0303421 121.4566666  53.6759507  93.9032569 122.4552859  44.4861081
  93.7832194 122.9009910  45.3246561  93.2085158 122.8038177  43.9274619
  87.4939974 124.5559251  52.0360738  87.6232355 124.8093730  52.9500150
  86.8137425 125.1486959  51.7165393  91.6639461 135.2256501  48.1351212
  91.5863491 136.1764326  48.2139693  91.0601105 134.8802373  48.7926138
  94.1556691 122.3984366  60.7912579  93.3790025 122.9578286  60.7815444
  94.7947254 122.8841149  61.3127449 101.9477472 119.1811159  54.6255556
 101.3051852 119.4743692  53.9795350 101.4432400 119.0664080  55.4308752
  99.6017635 122.9274332  45.3141415 100.5135492 123.1601719  45.1389112
  99.0927283 123.5111377  44.7516493  92.4103063 125.2069820  60.3530546
  93.1517748 125.7454864  60.0765370  91.7040049 125.8336108  60.5102098
  97.8858403 127.3498960  58.9502707  98.2941759 126.9081371  58.2057340
  97.1635665 126.7751588  59.2036900  94.2389473 122.2871567  56.3236264
  95.0850668 122.7110981  56.4670913  94.1788111 121.6305191  57.0174827
  98.2087218 127.9100151  52.7054996  97.5796080 128.0745865  52.0031064
  97.8212880 128.3241760  53.4765960 102.0876450 128.8454589  50.0599360
 101.4027488 129.2253490  49.5096393 102.1720299 129.4549915  50.7931308
  97.3888918 119.9475935  57.9817438  97.1449850 120.7017996  57.4451714
  97.6648849 120.3261283  58.8164685  99.3427381 126.4914548  56.6594704
  99.5544276 127.1346308  55.9829085  99.2957129 125.6576864  56.1916634
  96.9453610 119.1032368  53.5631276  96.0838089 119.4013622  53.8548013
  96.9716045 119.3202767  52.6312308  93.7615180 127.6474559  49.9705081
  94.2253525 127.9262262  49.1809704  93.4971978 126.7458003  49.7878172
  90.6539261 127.1946040  52.9084845  91.2240618 127.6233309  52.2702329
  91.2447373 126.9128625  53.6069030  92.6984066 123.7697711  46.7794647
  93.4008109 124.2218755  47.2468573  92.3664694 123.1281530  47.4074540
  91.1464427 122.3609468  61.1545856  90.5163088 123.0425749  61.3881253
  91.0400515 122.2492550  60.2098994  86.4409400 122.0281264  52.0811780
  85.6508454 122.2838792  51.6051891  86.9320647 122.8429602  52.1863821
 100.4573209 129.3686503  54.8317061 101.2790653 128.9666690  54.5499743
 100.4535612 129.2654737  55.7833177  88.3924145 122.3925843  49.0395257
  87.5955308 122.5044537  49.5578752  88.1649737 122.7312495  48.1736147
  94.2229813 128.9170546  56.9877771  94.2874245 129.3790954  57.8235943
  93.5140737 128.2867911  57.1160081  84.7247103 122.2811754  54.5126771
  84.9755141 123.1658764  54.7784347  85.2606651 122.1016356  53.7401863
 108.5479202 125.7125252  51.1802032 107.7942911 125.1432650  51.0246037
 108.6826743 125.6787916  52.1272667  93.9377830 130.5838654  46.8556752
  93.8023505 131.4290190  47.2841600  94.4787643 130.7857932  46.0922686
  87.3907228 128.1014092  47.4284677  87.9031748 128.8957342  47.5790241
  88.0429941 127.4040382  47.3618278  89.2002112 131.2179848  49.5107430
  89.3768741 132.1397813  49.3228414  89.9958946 130.9038267  49.9401810
  93.3413131 118.0788113  61.1091364  94.0822844 118.6795266  61.0295826
  93.5731054 117.3365751  60.5509406  88.4854469 123.2644480  59.3869593
  88.3707984 122.3629737  59.6876692  87.6298987 123.5108177  59.0354410
  95.5646307 131.2062220  60.9857094  95.1210161 130.4198599  60.6677998
  96.2263520 131.3941371  60.3200985  90.3233428 132.7358022  55.5117772
  90.8740853 132.6075085  54.7394766  89.4844904 133.0352911  55.1612665
  97.6627545 131.4865020  59.0138495  97.6446020 132.3073901  58.5218764
  98.5847465 131.3619096  59.2388636  94.1200599 129.0009150  59.8562003
  94.6528936 128.2397438  59.6261311  93.5914680 128.7082802  60.5986158
  97.2870294 114.1069216  55.3855645  96.9434563 114.9970857  55.3094756
  97.6549256 113.9170873  54.5225230  85.3556144 126.4302746  48.2044247
  86.1931366 126.8399755  47.9877955  85.5334412 125.4902188  48.1744441
  97.2520577 124.0977827  43.8928080  96.7367200 124.8682432  44.1316468
  96.9797885 123.4242963  44.5161142  94.8367688 118.9427528  48.9513319
  93.9809284 118.5534378  48.7718957  95.2494639 119.0219488  48.0913104
  96.3666834 116.4773871  53.3504878  95.8631630 116.4404006  52.5372684
  96.6597441 117.3866614  53.4101535  92.6109720 116.5612601  52.3571060
  93.4762717 116.3655409  51.9976950  92.6787229 116.3322952  53.2840417
 102.2254851 126.8510182  45.8281254 101.4484293 126.5121341  45.3836416
 102.9046332 126.8562805  45.1536219  97.0406880 121.9704919  45.7187861
  96.7357015 122.2851068  46.5698005  97.9937322 122.0486339  45.7615194
  95.4853312 128.1295142  47.3680815  94.9574673 127.3947902  47.0554053
  94.9840814 128.9069819  47.1220784 100.4646158 126.3244163  52.4847862
  99.8069832 127.0143424  52.5727990 101.2686557 126.7140595  52.8281848
  90.2172039 118.7914809  49.7287427  90.7915791 118.5689990  48.9960620
  90.8043022 118.8603503  50.4816028  99.2751616 124.6788535  50.5351804
  99.7883498 125.3118527  51.0373513  99.9252840 124.0789731  50.1695164
  90.5441626 120.8219270  43.7483312  89.7078939 121.1593956  44.0692587
  90.4046396 120.6868249  42.8110449  92.5194707 115.6656057  48.4562496
  91.8659119 115.3505075  47.8319111  92.4775181 115.0431798  49.1822319
  93.6305912 125.9475353  40.3715788  92.7232974 125.7164606  40.5706937
  94.1276944 125.1512972  40.5589770  96.5373991 134.6572860  43.2912475
  95.8635689 134.9604556  43.8997432  96.9239813 135.4601940  42.9417932
  95.7532447 122.1537991  52.7810144  94.8355009 122.3752938  52.6231832
  96.1692591 122.2284301  51.9221851  96.5367495 123.5529407  47.9112824
  97.2839314 124.0650804  47.6019946  96.8059085 123.2313459  48.7717218
  94.8094145 126.0487947  44.8939779  93.9005364 125.7646980  44.9912248
  94.8389229 126.4687026  44.0343085 100.0413413 129.6594537  48.6630946
  99.5875740 128.8185447  48.7196137  99.4107379 130.2955935  49.0005726
  98.9846332 120.5886523  49.8931614  98.2469089 120.0763909  50.2241856
  99.2373106 120.1486905  49.0814890  98.4846352 131.4971034  49.5980764
  98.7769326 132.0576091  48.8793130  98.9944972 131.7899595  50.3533923
  99.0857960 113.3662775  50.4873383  99.3916836 112.5060138  50.1999298
  99.8110564 113.9580395  50.2872377  85.3782316 123.7693462  48.8754981
  85.1806715 123.1762822  48.1506047  84.8228980 123.4645672  49.5930920
  93.3579039 123.6616568  50.9949574  93.4127649 122.7090404  50.9192051
  92.5470241 123.8176007  51.4790872  94.5070233 127.5896691  42.2327857
  94.0689663 126.8732550  41.7733495  95.2480674 127.8172806  41.6712949
  91.2971399 122.2793628  48.7539953  90.4839265 122.5787798  49.1605145
  91.7930393 121.8849317  49.4714435  93.4479977 132.2751385  50.6874217
  93.4056156 132.5012231  49.7582750  94.3642676 132.0414759  50.8360019
  96.8945611 122.7435452  57.5854847  97.2494999 122.9706925  58.4449312
  97.5417742 123.0753829  56.9632102 102.6243348 125.8653888  48.2904176
 102.4861246 126.0555484  47.3625365 102.2679567 126.6273271  48.7472227
  90.7885474 119.8511983  54.3701188  91.4284853 119.7100742  53.6724151
  89.9563004 119.5646497  53.9939790 102.6512727 127.9330415  53.3015447
 103.0849234 127.8405704  54.1498501 103.3644308 127.9087916  52.6635463
  91.5645778 129.1514414  50.4836180  92.3586376 128.6564734  50.2818755
  90.8537470 128.6232277  50.1203886  96.3840622 131.5332509  54.8348548
  96.4377645 132.1023446  55.6026264  95.5155404 131.7034394  54.4702585
  87.8728541 123.2957495  46.5595933  86.9426129 123.2341951  46.7765895
  87.9686013 122.7733448  45.7632574  87.7914090 119.8212308  49.1474175
  88.0520908 120.7357642  49.0383335  88.6131263 119.3536751  49.2970787
  89.2639016 121.2350065  56.3172999  89.9362069 121.0267428  55.6685648
  88.4368802 121.0372151  55.8778231 103.5128277 127.9754116  55.8348333
 103.7064167 128.8799926  56.0807608 103.4128895 127.5161535  56.6686918
  95.1664588 117.8612006  58.3338660  94.5192503 118.5601956  58.2403136
  95.9365603 118.2948150  58.7014908  98.5743386 128.1260859  61.4089213
  98.4228892 127.8971410  60.4919297  98.5648065 129.0831460  61.4220558
  95.3428722 125.6992771  56.3935480  96.2720782 125.8503931  56.2204447
  94.9219752 125.7876792  55.5384126  94.1417054 129.7243436  54.1634017
  94.0028140 129.3562220  55.0359955  93.3531650 130.2391075  53.9917975
  94.7365206 134.8252532  45.5059554  94.9116961 134.3540575  46.3205177
  94.0497994 135.4518298  45.7340815  95.6922269 129.1025038  51.5522855
  95.3572102 129.0625808  52.4480505  95.1926215 128.4369754  51.0793265
  89.6666513 124.5092668  57.0775436  89.5286311 123.7772907  57.6786975
  90.5771436 124.4201569  56.7959624  98.6281461 126.4481073  41.8259915
  98.0110631 125.7227901  41.7292967  98.1597949 127.2090433  41.4826989
  92.2948814 124.2212628  56.5659116  93.0048432 123.5805820  56.5245734
  92.2518122 124.4725523  57.4885297 100.2835592 131.1579981  59.4865695
 100.2248138 130.4739201  58.8196278 100.6855111 131.8998971  59.0346321
  91.0077748 121.2077846  58.3854755  90.4715105 120.7568584  59.0376352
  90.4194456 121.3423754  57.6425220  89.3026291 137.9741895  52.2799414
  89.5422889 138.6060419  52.9578433  88.4595488 137.6229935  52.5664773
  90.4180007 120.6666497  40.9481219  89.5409473 120.5455298  40.5843466
  90.8937760 119.8752575  40.6960108 100.2853000 129.1219565  57.7179675
  99.3979778 128.7845487  57.8406074 100.8551551 128.3902596  57.9548440
  81.9382147 125.4543657  51.0422726  82.6253187 125.1405387  50.4543741
  81.7830275 126.3585021  50.7689978  86.7416869 120.3433853  55.4707750
  86.6575058 119.7359523  54.7358160  85.9199575 120.8342872  55.4717246
  93.8154153 133.7821017  54.6840918  93.7424324 134.5875989  55.1960223
  93.3731546 133.9812983  53.8588939  93.6043933 133.0192787  48.1943740
  92.8211454 133.5614468  48.2881964  94.3036678 133.5366767  48.5937981
  96.9140583 118.8287417  50.8377945  97.4109282 118.0757379  50.5179015
  96.1427564 118.8651734  50.2721154 104.7670340 124.5327782  52.4796236
 104.7560216 125.4152498  52.1090170 103.8987720 124.1799333  52.2850773
  96.2752836 133.6807851  56.8399077  96.9880809 134.3155316  56.7674978
  95.7842865 133.7771717  56.0239078  97.9970363 127.5859104  48.4116368
  97.0626642 127.7060567  48.2421073  98.1747032 126.6831571  48.1476378
  93.4975551 120.9704800  50.5649630  93.1273339 120.4175840  51.2530535
  93.9934644 120.3662933  50.0124630 101.3842915 123.4276423  48.9466402
 101.8503367 124.2604415  48.8726705 101.8350415 122.9621405  49.6511661
  91.3264750 131.4302295  57.6604647  92.0274210 132.0638778  57.8134042
  90.8559865 131.7717026  56.9000287  99.4519146 129.7720245  45.9452554
  99.7278990 129.6576839  46.8546429  98.5823645 129.3737730  45.9064728
  99.3559577 115.7957010  52.9857304  98.4422657 116.0261237  53.1539511
  99.7852679 115.8795454  53.8371336  99.1266036 123.9846902  55.4857198
  98.4737486 124.2322810  54.8309651  99.5046416 123.1711041  55.1519675
  96.0873210 134.0206596  49.5885368  96.2695604 133.2028251  50.0513120
  96.9106196 134.2374288  49.1510258  96.4215375 132.9474781  46.8500417
  96.9503142 132.4367235  46.2370579  96.6843595 132.6317311  47.7145950
  95.1753609 124.7266713  61.9723235  94.4994246 124.6260843  62.6425610
  95.9981243 124.5705927  62.4359232  86.9232468 130.9638650  54.5935750
  87.5085905 130.2182338  54.7263654  86.7257307 131.2742607  55.4772414
  89.7771123 133.9989897  49.6098193  89.1081499 134.4836025  49.1262233
  89.6383993 134.2459118  50.5241571  81.5150123 123.5344250  53.3140193
  81.5534222 123.0007841  54.1077311  81.0090416 123.0079456  52.6951170
  93.9176392 136.0333641  56.2080851  94.4694700 136.1965262  56.9729936
  94.2582585 136.6238079  55.5360876  88.8940885 118.3808791  56.8102736
  88.9582212 119.2423622  56.3980133  88.8308005 117.7682792  56.0775094
  88.3693158 120.4531923  60.4575770  88.9965196 120.0709000  61.0713294
  87.5121076 120.2346125  60.8231462  98.7687266 130.8594898  62.0629505
  99.3127170 131.4724857  61.5684460  98.1874111 131.4174477  62.5796518
  85.1458700 122.2608352  46.3894125  85.4412141 121.3519031  46.3361178
  84.2446736 122.2396092  46.0675127  97.0544779 133.9815616  53.1944533
  96.9295919 133.1805356  52.6855479  97.7123870 134.4761810  52.7058503
  88.6752947 120.3364349  52.3721673  87.9539533 120.9500317  52.2329147
  89.4646203 120.8722114  52.2938319  99.1179688 131.7824636  54.8224083
  98.1710023 131.6629988  54.7502410  99.4662461 130.8947134  54.9050345
  91.4779261 117.6718775  58.6462325  92.0013663 117.9181072  59.4088634
  91.2591594 118.5038810  58.2265462  86.8746542 119.9422450  46.5133450
  86.5459248 119.0619829  46.3308556  87.2285913 119.8870119  47.4009839
  96.1226121 131.5777353  51.0228435  95.9751083 130.6494060  51.2036005
  96.9479614 131.5997443  50.5385511  89.9888365 120.2295420  46.8808928
  90.3284438 120.7581341  46.1587536  90.4360486 120.5675826  47.6567494
  99.7260243 132.4005911  52.1093308 100.6506790 132.1948773  51.9717759
  99.5575546 132.1522313  53.0182650  92.6831806 118.6132470  56.3311996
  92.3428626 117.8140284  56.7332675  91.9770812 118.9134181  55.7588829
  93.3348278 115.6981783  54.7839319  94.1574347 115.2242261  54.6618209
  93.5786341 116.4772267  55.2838005  91.9756512 118.7270041  45.0802220
  92.6964875 119.1051294  44.5765937  91.3521816 119.4458918  45.1837198
  96.1187635 119.4315190  46.0160553  96.3351250 120.3139828  45.7149381
  95.6381702 119.0401404  45.2866195  90.8586857 122.3900904  52.5931297
  90.7131437 122.7041207  53.4855579  90.3812060 123.0085804  52.0402196
  92.7183239 119.3803452  52.6412187  92.7044808 118.4844545  52.3044485
  93.4355668 119.3874115  53.2750473  94.5709370 119.8140792  54.6865314
  94.3127148 120.7357862  54.6849645  94.0394411 119.4171226  55.3765778
  99.5155559 132.9191579  47.4655400  99.6892436 132.3538001  46.7129252
 100.0084450 133.7192474  47.2834890  85.3332519 124.9306248  55.5318958
  84.7885987 125.7066056  55.6639233  86.2111869 125.2777052  55.3738080
  92.1220135 118.2617832  47.9099757  92.2436047 117.3334478  48.1090644
  91.8322178 118.2756518  46.9978072  94.9911326 115.9472742  51.0466477
  95.0133023 116.0112075  50.0918456  95.4079385 115.1077251  51.2406983
 105.3694950 125.6828002  49.0845699 105.8126096 124.9335327  48.6864823
 104.4921460 125.6738138  48.7019431 100.5030731 132.2358343  44.5652298
 101.1981636 132.8565036  44.7839613 100.8453882 131.3853694  44.8404676
  86.1198541 124.0576144  58.4249115  85.3780277 124.2058780  59.0113746
  85.7991285 124.3184410  57.5615865 102.4022155 129.6858049  46.0939629
 102.9273479 130.0245322  45.3688949 102.3144507 128.7505064  45.9102763
  94.0642203 133.5992122  58.2229505  94.3729330 133.3541269  59.0952205
  94.8617685 133.8038761  57.7348375  94.0862815 135.7530032  50.4534882
  93.6467806 135.2606411  51.1467739  94.8370932 135.2103000  50.2126957
  86.5655154 131.9441573  50.4559510  87.3913174 131.6445345  50.0758153
  86.2149206 131.1749195  50.9049299  91.5336687 131.2968041  52.5257183
  90.9116697 130.6338746  52.2259411  92.2041554 131.3229173  51.8430831
  84.7663759 129.8627899  51.4148443  83.9295668 129.4350074  51.2332445
  84.7387405 130.0560343  52.3519235 102.0916061 130.3190952  61.3990827
 101.3011604 130.3015091  60.8595326 101.8549415 130.8579246  62.1539863
 102.2113936 127.1683419  58.7123555 102.2611941 127.0033426  59.6539078
 102.1027859 126.3010678  58.3221436  91.0950194 129.8471964  46.0015644
  91.2438315 130.5307429  45.3482317  91.9016638 129.8277055  46.5165100
  99.5017698 123.1514347  60.0282862 100.4027561 123.0120812  59.7366860
  99.5765673 123.3168802  60.9681039  93.8360503 120.5281202  58.8736048
  92.9663813 120.8214768  58.6018637  94.0719984 121.1121647  59.5943312
 103.7132132 129.5880360  58.9565577 103.4216941 129.9510341  59.7929038
 103.1004264 128.8747369  58.7778909 104.9127815 127.1533240  51.4768147
 105.7474706 127.5923044  51.6405707 105.0486944 126.6771893  50.6576393
 101.9619321 124.7112975  57.4245635 102.4373442 124.9040621  56.6164486
 101.0384886 124.7672161  57.1789018  88.8502827 125.8737142  47.0076713
  88.6048869 124.9699472  47.2056923  89.0198742 125.8754293  46.0656191
  96.5399537 116.7460818  56.3901469  97.0581481 117.4821845  56.0647957
  96.1854670 117.0524812  57.2248228  88.1198475 121.6065500  44.5062874
  87.4267720 121.6809855  43.8502910  87.8750227 120.8425843  45.0284391
  96.7912131 113.1661101  51.9102365  97.0713885 112.4984290  52.5362792
  97.5762738 113.3590197  51.3977029  94.5945600 132.3420095  43.4727391
  94.0219567 132.9610282  43.0197863  95.1678394 132.8919457  44.0067313
 100.6620990 121.5878735  55.6573940 101.6138413 121.6876833  55.6786164
 100.4924440 120.7957004  56.1672025  98.6835369 118.6734318  55.8433341
  98.0885301 118.9539331  55.1479830  98.3985066 119.1628219  56.6150082
  97.8142860 132.6257245  44.6035974  98.7473533 132.5602807  44.8068849
  97.7266072 133.4613512  44.1450506 100.4430876 131.9423115  41.5639921
 100.3644508 131.6082979  42.4575679 101.2640543 132.4344883  41.5631394
 103.1409067 124.8084855  54.7716240 103.1085388 123.8700855  54.9575924
 103.7509691 124.8868891  54.0382065  94.9792398 123.6780908  40.8143444
  95.9251503 123.5487116  40.8831862  94.6006643 122.9395570  41.2912872
 103.2903556 121.5995898  54.8174523 102.7742605 120.8154355  54.6304452
 104.1743504 121.2714615  54.9821043 100.9514283 115.3436914  50.7770336
 100.7539104 115.0352002  51.6613668 101.5613988 116.0698553  50.9068266
 108.9585617 125.8700862  53.9122277 109.6889006 125.6086150  54.4729980
 108.3492563 125.1329583  53.9524345 107.0400914 124.0108724  54.5096728
 106.3134078 123.8764689  53.9013219 106.6248201 124.3185553  55.3153446
  94.8631091 127.7298654  62.2744101  95.7834100 127.9077253  62.4684147
  94.8280674 126.7854699  62.1223800  93.1635315 121.6030884  40.7498329
  92.2566771 121.3063997  40.8261043  93.4411296 121.3060702  39.8832615
  84.0813256 122.9237247  51.1997376  83.7616040 122.0702556  50.9071750
  83.5346684 123.1385826  51.9555343  87.8593163 125.6399688  54.9166882
  88.0779173 126.5716796  54.9354916  88.2718937 125.2807663  55.7021686
  94.7797381 116.1467774  46.9042570  93.9698110 115.8014859  47.2797817
  95.4681798 115.8375318  47.4930182  96.7087929 115.2245821  48.5266867
  97.2618968 115.6441274  49.1856890  96.9458016 114.2981569  48.5689823
  91.9334100 118.4617819  40.8910308  92.7953264 118.7872718  41.1506126
  92.1184444 117.6749315  40.3783374  83.9501516 126.5440159  53.1690497
  83.2564987 126.1294112  52.6560452  84.6974507 126.5860695  52.5723916
 100.0866737 117.3346346  48.0345531  99.5065406 117.9931150  47.6523584
  99.8202669 116.5123690  47.6232949  98.5370303 116.7351403  50.2366852
  99.0370081 116.8467938  49.4281171  99.1805911 116.4312456  50.8767660
  92.5952299 124.6430033  63.1234693  92.1119380 125.4430393  63.3298582
  92.6813238 124.6537978  62.1702137  85.8638258 126.4758413  51.0456512
  85.8408947 126.5746100  50.0938395  86.1738895 127.3223564  51.3673678
  88.5225636 128.5334568  55.1603126  89.4768890 128.5018510  55.0933058
  88.3238160 128.0725192  55.9753352  89.1125018 127.1035684  57.7273924
  89.9317907 127.5979762  57.7508761  89.3861826 126.1867652  57.6991492
  98.8691615 119.4946436  47.0901880  97.9817470 119.7796087  46.8722074
  99.2845604 119.3340200  46.2429157 102.2206151 119.5192957  50.8056219
 102.9966541 120.0089410  51.0780836 101.4954285 119.9451011  51.2628088
 104.6578709 120.2320576  51.8630160 105.2523200 119.9916312  51.1523468
 104.7305293 119.5127707  52.4903696  86.8775865 134.0754187  52.1773324
  86.7430333 133.3154588  51.6111322  86.4607927 134.7995087  51.7102113
  98.0134828 129.2591111  41.1849900  98.7170678 129.4641113  41.8007555
  97.2897477 129.8267873  41.4498983  98.8432638 125.0100972  47.3052170
  98.7867840 125.4669523  46.4659802  99.3960981 124.2491657  47.1275013
 102.6537444 120.7990704  48.1302289 102.3974378 120.3987340  48.9610497
 102.0290312 121.5134498  48.0052428 106.9649782 123.5386777  50.6373581
 106.4049340 123.6079966  51.4105143 106.3593285 123.3627762  49.9173077
  90.0344991 134.9723504  52.3891767  89.9177375 135.9168937  52.2870457
  89.2137437 134.6697066  52.7777566  99.9221525 129.6973640  43.2348360
 100.7567129 129.2654838  43.0525834  99.7605868 129.5255654  44.1625254
  99.5767418 126.2005753  44.6004699  99.5216221 126.0350025  43.6593143
  98.9513473 126.9081786  44.7566889  84.3659933 121.4373818  58.4266121
  85.0118796 120.9272772  58.9153346  84.1577084 122.1742499  59.0009546
  92.8863543 115.7013862  44.1790017  92.8742213 116.6455702  44.3358288
  93.7786965 115.5184008  43.8849479  91.0599505 135.6251766  55.6047695
  91.9626752 135.6575376  55.9214190  90.8336875 134.6952217  55.6194031
  92.8153107 134.3782753  52.2657774  91.8648738 134.3784614  52.1522146
  93.1185593 133.6315487  51.7493809  96.7015663 112.2956639  48.4335954
  95.9348058 111.7415126  48.5792637  97.1126368 112.3678508  49.2950106
 108.5505801 140.2143291  53.3303536 109.1884211 140.0950038  52.6266876
 108.4326643 141.1624135  53.3891489 105.3595507 140.1670719  53.2665061
 105.0214018 140.0511784  52.3785596 106.2285275 139.7661884  53.2466067
 101.2182323 142.0206196  49.2561952 100.6547188 141.9296133  48.4878240
 101.1034718 141.2006100  49.7364445 105.8415290 141.3205571  59.2251267
 105.8303931 140.9258369  58.3531770 106.0035929 140.5871644  59.8185038
  98.7646754 143.5157387  52.0946173  99.5568046 143.1748212  51.6792472
  99.0043405 143.6252362  53.0148326 106.7981881 145.6877163  44.5676417
 106.1469861 146.2731244  44.1810431 107.5926244 146.2183358  44.6271454
 100.7237508 142.7766300  44.9663551 101.4968384 142.2295288  44.8276427
 101.0762907 143.6410550  45.1778013 102.5622551 144.1042683  58.1730451
 102.2712417 145.0088314  58.0577117 103.1979535 144.1459210  58.8874520
 103.4878758 141.4819531  54.7631810 104.0842330 141.2575554  54.0488773
 103.5453729 140.7404277  55.3657258 103.0603786 138.9358967  42.5982001
 103.3129307 138.4140488  41.8365464 102.1228345 138.7725112  42.7008685
 108.1047069 137.9394745  50.4056744 108.8910158 137.5214168  50.0547161
 108.3685773 138.8440837  50.5738393 108.2757146 143.3767595  45.1045401
 107.6402979 143.4502222  45.8166306 107.9454553 143.9661194  44.4264481
 113.5055496 137.8769978  51.3089723 114.2380668 137.3069195  51.5427552
 112.7494852 137.4891579  51.7496229 102.7800075 140.8387073  44.8006376
 102.6636333 140.1631976  45.4687460 102.8902335 140.3519446  43.9838529
 105.1231616 140.2997220  48.5053065 104.7589823 139.7727841  49.2165987
 105.9798732 139.9095689  48.3319551 111.0280917 131.5891552  55.7684332
 110.6964241 132.4586963  55.5445547 110.4326530 131.2727836  56.4478362
 104.7637103 135.3287119  43.5014414 104.9311505 136.1967356  43.8684885
 104.5734272 135.4914401  42.5775703 107.5212436 143.7904098  55.1680244
 107.2213159 144.6929137  55.0596052 107.1763496 143.5236281  56.0201397
 100.9724918 140.2417895  51.2016949 100.0475414 140.1094109  51.4094640
 101.2209331 141.0212114  51.6986891 110.9209580 136.3086638  52.8477682
 110.0126457 136.2402047  52.5536443 110.8697176 136.7858583  53.6759507
 104.7426324 137.7844777  44.4861081 104.6225949 138.2301828  45.3246561
 104.0478912 138.1330095  43.9274619  98.3333729 139.8851169  52.0360738
  98.4626110 140.1385648  52.9500150  97.6531180 140.4778877  51.7165393
 102.5033216 150.5548419  48.1351212 102.4257246 151.5056244  48.2139693
 101.8994859 150.2094291  48.7926138 104.9950446 137.7276284  60.7912579
 104.2183780 138.2870204  60.7815444 105.6341009 138.2133067  61.3127449
 112.7871226 134.5103077  54.6255556 112.1445607 134.8035610  53.9795350
 112.2826155 134.3955997  55.4308752 110.4411390 138.2566250  45.3141415
 111.3529246 138.4893637  45.1389112 109.9321037 138.8403294  44.7516493
 103.2496818 140.5361737  60.3530546 103.9911502 141.0746781  60.0765370
 102.5433803 141.1628026  60.5102098 108.7252158 142.6790878  58.9502707
 109.1335514 142.2373288  58.2057340 108.0029419 142.1043505  59.2036900
 105.0783228 137.6163485  56.3236264 105.9244423 138.0402898  56.4670913
 105.0181865 136.9597109  57.0174827 109.0480972 143.2392068  52.7054996
 108.4189835 143.4037783  52.0031064 108.6606634 143.6533678  53.4765960
 112.9270204 144.1746506  50.0599360 112.2421242 144.5545408  49.5096393
 113.0114053 144.7841833  50.7931308 108.2282673 135.2767853  57.9817438
 107.9843605 136.0309914  57.4451714 108.5042603 135.6553201  58.8164685
 110.1821136 141.8206465  56.6594704 110.3938031 142.4638225  55.9829085
 110.1350884 140.9868782  56.1916634 107.7847365 134.4324286  53.5631276
 106.9231844 134.7305540  53.8548013 107.8109799 134.6494685  52.6312308
 104.6008934 142.9766477  49.9705081 105.0647280 143.2554180  49.1809704
 104.3365732 142.0749921  49.7878172 101.4933015 142.5237958  52.9084845
 102.0634372 142.9525226  52.2702329 102.0841127 142.2420543  53.6069030
 103.5377820 139.0989629  46.7794647 104.2401864 139.5510673  47.2468573
 103.2058449 138.4573448  47.4074540 101.9858182 137.6901386  61.1545856
 101.3556842 138.3717666  61.3881253 101.8794270 137.5784467  60.2098994
  97.2803154 137.3573182  52.0811780  96.4902208 137.6130710  51.6051891
  97.7714401 138.1721519  52.1863821 111.2966964 144.6978421  54.8317061
 112.1184407 144.2958608  54.5499743 111.2929367 144.5946655  55.7833177
  99.2317900 137.7217761  49.0395257  98.4349063 137.8336455  49.5578752
  99.0043492 138.0604413  48.1736147 105.0623567 144.2462464  56.9877771
 105.1268000 144.7082871  57.8235943 104.3534491 143.6159829  57.1160081
  95.5640857 137.6103672  54.5126771  95.8148896 138.4950682  54.7784347
  96.1000406 137.4308274  53.7401863 119.3872957 141.0417169  51.1802032
 118.6336665 140.4724567  51.0246037 119.5220498 141.0079834  52.1272667
 104.7771585 145.9130572  46.8556752 104.6417260 146.7582107  47.2841600
 105.3181397 146.1149849  46.0922686  98.2300982 143.4306010  47.4284677
  98.7425503 144.2249260  47.5790241  98.8823695 142.7332300  47.3618278
 100.0395867 146.5471766  49.5107430 100.2162495 147.4689731  49.3228414
 100.8352700 146.2330185  49.9401810 104.1806885 133.4080031  61.1091364
 104.9216599 134.0087184  61.0295826 104.4124808 132.6657668  60.5509406
  99.3248223 138.5936398  59.3869593  99.2101739 137.6921655  59.6876692
  98.4692741 138.8400095  59.0354410 106.4040061 146.5354138  60.9857094
 105.9603915 145.7490517  60.6677998 107.0657275 146.7233289  60.3200985
 101.1627182 148.0649940  55.5117772 101.7134607 147.9367003  54.7394766
 100.3238658 148.3644829  55.1612665 108.5021299 146.8156938  59.0138495
 108.4839775 147.6365819  58.5218764 109.4241219 146.6911013  59.2388636
 104.9594353 144.3301067  59.8562003 105.4922690 143.5689356  59.6261311
 104.4308434 144.0374719  60.5986158 108.1264048 129.4361133  55.3855645
 107.7828318 130.3262775  55.3094756 108.4943011 129.2462791  54.5225230
  96.1949899 141.7594664  48.2044247  97.0325121 142.1691672  47.9877955
  96.3728167 140.8194106  48.1744441 108.0914331 139.4269745  43.8928080
 107.5760955 140.1974349  44.1316468 107.8191640 138.7534881  44.5161142
 105.6761442 134.2719445  48.9513319 104.8203038 133.8826296  48.7718957
 106.0888394 134.3511406  48.0913104 107.2060589 131.8065789  53.3504878
 106.7025384 131.7695924  52.5372684 107.4991196 132.7158531  53.4101535
 103.4503475 131.8904518  52.3571060 104.3156471 131.6947327  51.9976950
 103.5180984 131.6614870  53.2840417 113.0648605 142.1802099  45.8281254
 112.2878048 141.8413259  45.3836416 113.7440086 142.1854722  45.1536219
 107.8800634 137.2996837  45.7187861 107.5750770 137.6142986  46.5698005
 108.8331076 137.3778257  45.7615194 106.3247066 143.4587060  47.3680815
 105.7968428 142.7239820  47.0554053 105.8234569 144.2361736  47.1220784
 111.3039912 141.6536080  52.4847862 110.6463587 142.3435342  52.5727990
 112.1080311 142.0432512  52.8281848 101.0565794 134.1206726  49.7287427
 101.6309546 133.8981908  48.9960620 101.6436776 134.1895421  50.4816028
 110.1145371 140.0080453  50.5351804 110.6277253 140.6410445  51.0373513
 110.7646595 139.4081649  50.1695164 101.3835381 136.1511187  43.7483312
 100.5472693 136.4885874  44.0692587 101.2440150 136.0160167  42.8110449
 103.3588461 130.9947975  48.4562496 102.7052874 130.6796992  47.8319111
 103.3168936 130.3723716  49.1822319 104.4699666 141.2767270  40.3715788
 103.5626728 141.0456524  40.5706937 104.9670698 140.4804889  40.5589770
 107.3767745 149.9864777  43.2912475 106.7029444 150.2896474  43.8997432
 107.7633567 150.7893858  42.9417932 106.5926202 137.4829909  52.7810144
 105.6748763 137.7044856  52.6231832 107.0086345 137.5576219  51.9221851
 107.3761250 138.8821324  47.9112824 108.1233068 139.3942722  47.6019946
 107.6452839 138.5605377  48.7717218 105.6487900 141.3779865  44.8939779
 104.7399119 141.0938898  44.9912248 105.6782984 141.7978944  44.0343085
 110.8807167 144.9886455  48.6630946 110.4269494 144.1477364  48.7196137
 110.2501134 145.6247853  49.0005726 109.8240087 135.9178441  49.8931614
 109.0862843 135.4055827  50.2241856 110.0766860 135.4778822  49.0814890
 109.3240106 146.8262951  49.5980764 109.6163081 147.3868008  48.8793130
 109.8338727 147.1191512  50.3533923 109.9251714 128.6954693  50.4873383
 110.2310591 127.8352056  50.1999298 110.6504319 129.2872313  50.2872377
  96.2176070 139.0985379  48.8754981  96.0200470 138.5054740  48.1506047
  95.6622734 138.7937589  49.5930920 104.1972794 138.9908486  50.9949574
 104.2521404 138.0382322  50.9192051 103.3863996 139.1467925  51.4790872
 105.3463988 142.9188609  42.2327857 104.9083417 142.2024468  41.7733495
 106.0874428 143.1464724  41.6712949 102.1365154 137.6085545  48.7539953
 101.3233019 137.9079716  49.1605145 102.6324148 137.2141234  49.4714435
 104.2873732 147.6043302  50.6874217 104.2449910 147.8304149  49.7582750
 105.2036430 147.3706677  50.8360019 107.7339365 138.0727370  57.5854847
 108.0888753 138.2998843  58.4449312 108.3811497 138.4045747  56.9632102
 113.4637102 141.1945806  48.2904176 113.3255001 141.3847402  47.3625365
 113.1073321 141.9565189  48.7472227 101.6279228 135.1803901  54.3701188
 102.2678608 135.0392660  53.6724151 100.7956759 134.8938414  53.9939790
 113.4906482 143.2622333  53.3015447 113.9242989 143.1697622  54.1498501
 114.2038063 143.2379833  52.6635463 102.4039532 144.4806331  50.4836180
 103.1980131 143.9856652  50.2818755 101.6931225 143.9524195  50.1203886
 107.2234377 146.8624427  54.8348548 107.2771399 147.4315363  55.6026264
 106.3549158 147.0326312  54.4702585  98.7122296 138.6249413  46.5595933
  97.7819884 138.5633869  46.7765895  98.8079768 138.1025366  45.7632574
  98.6307845 135.1504226  49.1474175  98.8914662 136.0649559  49.0383335
  99.4525017 134.6828669  49.2970787 100.1032770 136.5641983  56.3172999
 100.7755824 136.3559345  55.6685648  99.2762557 136.3664069  55.8778231
 114.3522031 143.3046033  55.8348333 114.5457922 144.2091844  56.0807608
 114.2522650 142.8453453  56.6686918 106.0058342 133.1903924  58.3338660
 105.3586257 133.8893874  58.2403136 106.7759358 133.6240068  58.7014908
 109.4137140 143.4552776  61.4089213 109.2622647 143.2263328  60.4919297
 109.4041820 144.4123378  61.4220558 106.1822477 141.0284689  56.3935480
 107.1114537 141.1795849  56.2204447 105.7613507 141.1168710  55.5384126
 104.9810808 145.0535353  54.1634017 104.8421894 144.6854138  55.0359955
 104.1925405 145.5682993  53.9917975 105.5758960 150.1544450  45.5059554
 105.7510716 149.6832493  46.3205177 104.8891748 150.7810216  45.7340815
 106.5316023 144.4316956  51.5522855 106.1965856 144.3917726  52.4480505
 106.0319969 143.7661672  51.0793265 100.5060267 139.8384586  57.0775436
 100.3680065 139.1064825  57.6786975 101.4165191 139.7493486  56.7959624
 109.4675215 141.7772990  41.8259915 108.8504386 141.0519819  41.7292967
 108.9991704 142.5382351  41.4826989 103.1342568 139.5504545  56.5659116
 103.8442187 138.9097738  56.5245734 103.0911876 139.8017440  57.4885297
 111.1229347 146.4871899  59.4865695 111.0641893 145.8031119  58.8196278
 111.5248865 147.2290889  59.0346321 101.8471502 136.5369763  58.3854755
 101.3108859 136.0860502  59.0376352 101.2588211 136.6715672  57.6425220
 100.1420046 153.3033813  52.2799414 100.3816644 153.9352337  52.9578433
  99.2989242 152.9521853  52.5664773 101.2573761 135.9958415  40.9481219
 100.3803227 135.8747216  40.5843466 101.7331514 135.2044493  40.6960108
 111.1246754 144.4511483  57.7179675 110.2373533 144.1137404  57.8406074
 111.6945305 143.7194514  57.9548440  92.7775901 140.7835574  51.0422726
  93.4646941 140.4697304  50.4543741  92.6224030 141.6876939  50.7689978
  97.5810623 135.6725771  55.4707750  97.4968812 135.0651441  54.7358160
  96.7593330 136.1634789  55.4717246 104.6547907 149.1112935  54.6840918
 104.5818079 149.9167907  55.1960223 104.2125301 149.3104901  53.8588939
 104.4437687 148.3484705  48.1943740 103.6605209 148.8906385  48.2881964
 105.1430432 148.8658685  48.5937981 107.7534337 134.1579335  50.8377945
 108.2503037 133.4049297  50.5179015 106.9821319 134.1943651  50.2721154
 115.6064095 139.8619700  52.4796236 115.5953971 140.7444416  52.1090170
 114.7381474 139.5091251  52.2850773 107.1146591 149.0099769  56.8399077
 107.8274563 149.6447234  56.7674978 106.6236620 149.1063635  56.0239078
 108.8364118 142.9151022  48.4116368 107.9020397 143.0352484  48.2421073
 109.0140786 142.0123489  48.1476378 104.3369306 136.2996718  50.5649630
 103.9667093 135.7467758  51.2530535 104.8328398 135.6954851  50.0124630
 112.2236669 138.7568341  48.9466402 112.6897121 139.5896333  48.8726705
 112.6744170 138.2913323  49.6511661 102.1658505 146.7594213  57.6604647
 102.8667964 147.3930696  57.8134042 101.6953619 147.1008944  56.9000287
 110.2912900 145.1012162  45.9452554 110.5672744 144.9868757  46.8546429
 109.4217399 144.7029647  45.9064728 110.1953332 131.1248928  52.9857304
 109.2816412 131.3553155  53.1539511 110.6246433 131.2087372  53.8371336
 109.9659790 139.3138820  55.4857198 109.3131241 139.5614727  54.8309651
 110.3440170 138.5002958  55.1519675 106.9266964 149.3498513  49.5885368
 107.1089359 148.5320169  50.0513120 107.7499950 149.5666205  49.1510258
 107.2609130 148.2766698  46.8500417 107.7896896 147.7659153  46.2370579
 107.5237349 147.9609229  47.7145950 106.0147363 140.0558631  61.9723235
 105.3388001 139.9552760  62.6425610 106.8374997 139.8997845  62.4359232
  97.7626223 146.2930568  54.5935750  98.3479659 145.5474256  54.7263654
  97.5651061 146.6034524  55.4772414 100.6164878 149.3281815  49.6098193
  99.9475253 149.8127943  49.1262233 100.4777747 149.5751035  50.5241571
  92.3543877 138.8636168  53.3140193  92.3927977 138.3299758  54.1077311
  91.8484170 138.3371373  52.6951170 104.7570146 151.3625559  56.2080851
 105.3088454 151.5257180  56.9729936 105.0976340 151.9529996  55.5360876
  99.7334640 133.7100708  56.8102736  99.7975966 134.5715539  56.3980133
  99.6701760 133.0974710  56.0775094  99.2086912 135.7823841  60.4575770
  99.8358951 135.4000918  61.0713294  98.3514831 135.5638043  60.8231462
 109.6081021 146.1886816  62.0629505 110.1520925 146.8016774  61.5684460
 109.0267866 146.7466394  62.5796518  95.9852455 137.5900270  46.3894125
  96.2805896 136.6810948  46.3361178  95.0840491 137.5688009  46.0675127
 107.8938534 149.3107534  53.1944533 107.7689673 148.5097274  52.6855479
 108.5517625 149.8053727  52.7058503  99.5146702 135.6656267  52.3721673
  98.7933288 136.2792234  52.2329147 100.3039958 136.2014031  52.2938319
 109.9573442 147.1116554  54.8224083 109.0103778 146.9921905  54.7502410
 110.3056215 146.2239052  54.9050345 102.3173015 133.0010693  58.6462325
 102.8407417 133.2472990  59.4088634 102.0985349 133.8330728  58.2265462
  97.7140296 135.2714368  46.5133450  97.3853003 134.3911747  46.3308556
  98.0679667 135.2162036  47.4009839 106.9619875 146.9069270  51.0228435
 106.8144838 145.9785978  51.2036005 107.7873369 146.9289361  50.5385511
 100.8282120 135.5587337  46.8808928 101.1678192 136.0873259  46.1587536
 101.2754240 135.8967744  47.6567494 110.5653997 147.7297829  52.1093308
 111.4900545 147.5240690  51.9717759 110.3969301 147.4814230  53.0182650
 103.5225560 133.9424388  56.3311996 103.1822381 133.1432201  56.7332675
 102.8164567 134.2426099  55.7588829 104.1742032 131.0273701  54.7839319
 104.9968102 130.5534179  54.6618209 104.4180096 131.8064184  55.2838005
 102.8150267 134.0561959  45.0802220 103.5358629 134.4343212  44.5765937
 102.1915571 134.7750836  45.1837198 106.9581390 134.7607108  46.0160553
 107.1745004 135.6431746  45.7149381 106.4775457 134.3693321  45.2866195
 101.6980611 137.7192821  52.5931297 101.5525192 138.0333124  53.4855579
 101.2205815 138.3377722  52.0402196 103.5576994 134.7095369  52.6412187
 103.5438563 133.8136463  52.3044485 104.2749422 134.7166033  53.2750473
 105.4103125 135.1432709  54.6865314 105.1520902 136.0649780  54.6849645
 104.8788165 134.7463144  55.3765778 110.3549313 148.2483497  47.4655400
 110.5286191 147.6829919  46.7129252 110.8478205 149.0484391  47.2834890
  96.1726273 140.2598166  55.5318958  95.6279741 141.0357974  55.6639233
  97.0505623 140.6068970  55.3738080 102.9613890 133.5909749  47.9099757
 103.0829801 132.6626396  48.1090644 102.6715932 133.6048435  46.9978072
 105.8305080 131.2764660  51.0466477 105.8526777 131.3403993  50.0918456
 106.2473139 130.4369169  51.2406983 116.2088705 141.0119919  49.0845699
 116.6519851 140.2627245  48.6864823 115.3315215 141.0030056  48.7019431
 111.3424486 147.5650261  44.5652298 112.0375390 148.1856954  44.7839613
 111.6847636 146.7145612  44.8404676  96.9592295 139.3868062  58.4249115
  96.2174031 139.5350697  59.0113746  96.6385039 139.6476327  57.5615865
 113.2415909 145.0149966  46.0939629 113.7667233 145.3537239  45.3688949
 113.1538262 144.0796982  45.9102763 104.9035958 148.9284040  58.2229505
 105.2123084 148.6833187  59.0952205 105.7011440 149.1330679  57.7348375
 104.9256570 151.0821950  50.4534882 104.4861560 150.5898328  51.1467739
 105.6764687 150.5394917  50.2126957  97.4048909 147.2733491  50.4559510
  98.2306929 146.9737262  50.0758153  97.0542961 146.5041113  50.9049299
 102.3730442 146.6259959  52.5257183 101.7510451 145.9630664  52.2259411
 103.0435309 146.6521091  51.8430831  95.6057514 145.1919817  51.4148443
  94.7689422 144.7641991  51.2332445  95.5781159 145.3852260  52.3519235
 102.4454969 135.1041747  62.1189690 102.4943125 135.9803870  61.7367459
 102.9877484 134.5619140  61.5461333 112.9309815 145.6482870  61.3990827
 112.1405359 145.6307009  60.8595326 112.6943170 146.1871164  62.1539863
 113.0507690 142.4975336  58.7123555 113.1005695 142.3325344  59.6539078
 112.9421613 141.6302595  58.3221436 101.9343949 145.1763882  46.0015644
 102.0832069 145.8599347  45.3482317 102.7410392 145.1568972  46.5165100
 110.3411453 138.4806264  60.0282862 111.2421315 138.3412729  59.7366860
 110.4159427 138.6460719  60.9681039 104.6754258 135.8573119  58.8736048
 103.8057567 136.1506685  58.6018637 104.9113738 136.4413564  59.5943312
 114.5525887 144.9172278  58.9565577 114.2610695 145.2802259  59.7929038
 113.9398018 144.2039286  58.7778909 115.7521569 142.4825158  51.4768147
 116.5868461 142.9214962  51.6405707 115.8880698 142.0063811  50.6576393
 112.8013075 140.0404893  57.4245635 113.2767197 140.2332539  56.6164486
 111.8778641 140.0964078  57.1789018  99.6896582 141.2029060  47.0076713
  99.4442624 140.2991390  47.2056923  99.8592496 141.2046210  46.0656191
 107.3793292 132.0752736  56.3901469 107.8975236 132.8113763  56.0647957
 107.0248424 132.3816729  57.2248228  98.9592229 136.9357417  44.5062874
  98.2661474 137.0101772  43.8502910  98.7143981 136.1717761  45.0284391
 107.6305886 128.4953019  51.9102365 107.9107640 127.8276208  52.5362792
 108.4156493 128.6882114  51.3977029 105.4339354 147.6712013  43.4727391
 104.8613321 148.2902200  43.0197863 106.0072148 148.2211374  44.0067313
 111.5014744 136.9170653  55.6573940 112.4532167 137.0168750  55.6786164
 111.3318195 136.1248921  56.1672025 109.5229124 134.0026236  55.8433341
 108.9279056 134.2831249  55.1479830 109.2378820 134.4920137  56.6150082
 108.6536614 147.9549163  44.6035974 109.5867287 147.8894724  44.8068849
 108.5659827 148.7905430  44.1450506 111.2824631 147.2715033  41.5639921
 111.2038262 146.9374897  42.4575679 112.1034298 147.7636801  41.5631394
 113.9802822 140.1376772  54.7716240 113.9479142 139.1992773  54.9575924
 114.5903446 140.2160809  54.0382065 105.8186153 139.0072825  40.8143444
 106.7645258 138.8779033  40.8831862 105.4400398 138.2687487  41.2912872
 114.1297310 136.9287816  54.8174523 113.6136359 136.1446272  54.6304452
 115.0137259 136.6006532  54.9821043 111.7908037 130.6728831  50.7770336
 111.5932859 130.3643920  51.6613668 112.4007743 131.3990470  50.9068266
 119.7979372 141.1992779  53.9122277 120.5282760 140.9378067  54.4729980
 119.1886317 140.4621501  53.9524345 117.8794669 139.3400642  54.5096728
 117.1527833 139.2056607  53.9013219 117.4641956 139.6477470  55.3153446
 105.7024845 143.0590571  62.2744101 106.6227855 143.2369170  62.4684147
 105.6674428 142.1146617  62.1223800 104.0029070 136.9322802  40.7498329
 103.0960525 136.6355914  40.8261043 104.2805051 136.6352620  39.8832615
  94.9207010 138.2529165  51.1997376  94.6009795 137.3994473  50.9071750
  94.3740439 138.4677743  51.9555343  98.6986918 140.9691606  54.9166882
  98.9172928 141.9008714  54.9354916  99.1112692 140.6099581  55.7021686
 105.6191136 131.4759691  46.9042570 104.8091864 131.1306776  47.2797817
 106.3075553 131.1667235  47.4930182 107.5481684 130.5537738  48.5266867
 108.1012723 130.9733192  49.1856890 107.7851770 129.6273486  48.5689823
 103.5714783 136.5424812  64.3069631 103.4711510 137.4919169  64.2381722
 103.3536325 136.2143051  63.4345701 102.7727855 133.7909737  40.8910308
 103.6347019 134.1164635  41.1506126 102.9578199 133.0041233  40.3783374
  94.7895270 141.8732077  53.1690497  94.0958742 141.4586029  52.6560452
  95.5368261 141.9152613  52.5723916 110.9260491 132.6638263  48.0345531
 110.3459160 133.3223067  47.6523584 110.6596424 131.8415608  47.6232949
 109.3764057 132.0643321  50.2366852 109.8763836 132.1759856  49.4281171
 110.0199665 131.7604374  50.8767660 103.4346053 139.9721951  63.1234693
 102.9513135 140.7722311  63.3298582 103.5206992 139.9829896  62.1702137
  96.7032013 141.8050330  51.0456512  96.6802701 141.9038018  50.0938395
  97.0132649 142.6515481  51.3673678  99.3619391 143.8626485  55.1603126
 100.3162644 143.8310428  55.0933058  99.1631914 143.4017109  55.9753352
  99.9518773 142.4327601  57.7273924 100.7711662 142.9271680  57.7508761
 100.2255581 141.5159570  57.6991492 109.7085369 134.8238354  47.0901880
 108.8211224 135.1088004  46.8722074 110.1239358 134.6632117  46.2429157
 113.0599905 134.8484875  50.8056219 113.8360295 135.3381327  51.0780836
 112.3348039 135.2742929  51.2628088 115.4972464 135.5612494  51.8630160
 116.0916955 135.3208230  51.1523468 115.5699048 134.8419625  52.4903696
  97.7169620 149.4046105  52.1773324  97.5824087 148.6446506  51.6111322
  97.3001682 150.1287005  51.7102113 108.8528583 144.5883028  41.1849900
 109.5564433 144.7933031  41.8007555 108.1291231 145.1559790  41.4498983
 109.6826393 140.3392890  47.3052170 109.6261594 140.7961441  46.4659802
 110.2354735 139.5783574  47.1275013 113.4931199 136.1282622  48.1302289
 113.2368133 135.7279257  48.9610497 112.8684067 136.8426416  48.0052428
 117.8043537 138.8678695  50.6373581 117.2443095 138.9371884  51.4105143
 117.1987040 138.6919679  49.9173077 100.8738745 150.3015422  52.3891767
 100.7571130 151.2460854  52.2870457 100.0531192 149.9988984  52.7777566
 110.7615280 145.0265558  43.2348360 111.5960884 144.5946756  43.0525834
 110.5999623 144.8547571  44.1625254 110.4161172 141.5297671  44.6004699
 110.3609976 141.3641942  43.6593143 109.7907227 142.2373704  44.7566889
  95.2053687 136.7665735  58.4266121  95.8512551 136.2564689  58.9153346
  94.9970838 137.5034417  59.0009546 107.7307079 143.8346583  63.9258262
 108.5998239 144.0087235  63.5644897 107.2513831 144.6541000  63.8033991
 103.7257298 131.0305780  44.1790017 103.7135967 131.9747620  44.3358288
 104.6180719 130.8475925  43.8849479 101.8993260 150.9543684  55.6047695
 102.8020506 150.9867294  55.9214190 101.6730630 150.0244135  55.6194031
 103.6546862 149.7074670  52.2657774 102.7042493 149.7076532  52.1522146
 103.9579348 148.9607405  51.7493809 107.5409417 127.6248557  48.4335954
 106.7741813 127.0707043  48.5792637 107.9520122 127.6970425  49.2950106
  99.5451178 133.9133352  62.5241135 100.4082640 133.5570157  62.7344460
  98.9716589 133.5747247  63.2116540 119.3899555 155.5435209  53.3303536
 120.0277965 155.4241956  52.6266876 119.2720398 156.4916053  53.3891489
 116.1989261 155.4962637  53.2665061 115.8607773 155.3803702  52.3785596
 117.0679030 155.0953802  53.2466067 112.0576077 157.3498113  49.2561952
 111.4940942 157.2588050  48.4878240 111.9428472 156.5298018  49.7364445
 116.6809044 156.6497489  59.2251267 116.6697685 156.2550287  58.3531770
 116.8429684 155.9163561  59.8185038 109.6040509 158.8449305  52.0946173
 110.3961801 158.5040130  51.6792472 109.8437159 158.9544280  53.0148326
 111.5631263 158.1058218  44.9663551 112.3362139 157.5587205  44.8276427
 111.9156662 158.9702467  45.1778013 113.4016305 159.4334600  58.1730451
 113.1106171 160.3380231  58.0577117 114.0373290 159.4751128  58.8874520
 114.3272512 156.8111449  54.7631810 114.9236085 156.5867471  54.0488773
 114.3847484 156.0696194  55.3657258 113.8997541 154.2650884  42.5982001
 114.1523061 153.7432406  41.8365464 112.9622100 154.1017030  42.7008685
 118.9440824 153.2686663  50.4056744 119.7303913 152.8506086  50.0547161
 119.2079528 154.1732755  50.5738393 124.3449251 153.2061896  51.3089723
 125.0774423 152.6361113  51.5427552 123.5888606 152.8183496  51.7496229
 113.6193829 156.1678990  44.8006376 113.5030088 155.4923894  45.4687460
 113.7296089 155.6811364  43.9838529 115.9625370 155.6289137  48.5053065
 115.5983578 155.1019758  49.2165987 116.8192486 155.2387606  48.3319551
 121.8674671 146.9183470  55.7684332 121.5357996 147.7878881  55.5445547
 121.2720284 146.6019754  56.4478362 115.6030857 150.6579037  43.5014414
 115.7705260 151.5259273  43.8684885 115.4128026 150.8206319  42.5775703
 118.3606191 159.1196016  55.1680244 118.0606914 160.0221055  55.0596052
 118.0157250 158.8528199  56.0201397 111.8118672 155.5709813  51.2016949
 110.8869169 155.4386027  51.4094640 112.0603085 156.3504032  51.6986891
 121.7603334 151.6378556  52.8477682 120.8520212 151.5693965  52.5536443
 121.7090930 152.1150501  53.6759507 115.5820078 153.1136695  44.4861081
 115.4619703 153.5593745  45.3246561 114.8872667 153.4622012  43.9274619
 109.1727483 155.2143086  52.0360738 109.3019864 155.4677565  52.9500150
 108.4924934 155.8070794  51.7165393 115.8344200 153.0568202  60.7912579
 115.0577534 153.6162122  60.7815444 116.4734763 153.5424985  61.3127449
 123.6264981 149.8394995  54.6255556 122.9839361 150.1327528  53.9795350
 123.1219909 149.7247915  55.4308752 121.2805144 153.5858168  45.3141415
 122.1923001 153.8185554  45.1389112 120.7714791 154.1695212  44.7516493
 114.0890572 155.8653655  60.3530546 114.8305257 156.4038699  60.0765370
 113.3827558 156.4919944  60.5102098 119.5645912 158.0082796  58.9502707
 119.9729268 157.5665206  58.2057340 118.8423174 157.4335423  59.2036900
 115.9176982 152.9455402  56.3236264 116.7638177 153.3694816  56.4670913
 115.8575620 152.2889027  57.0174827 119.8874727 158.5683986  52.7054996
 119.2583589 158.7329700  52.0031064 119.5000389 158.9825596  53.4765960
 119.0676427 150.6059771  57.9817438 118.8237359 151.3601831  57.4451714
 119.3436358 150.9845118  58.8164685 121.0214890 157.1498383  56.6594704
 121.2331785 157.7930143  55.9829085 120.9744638 156.3160700  56.1916634
 118.6241119 149.7616204  53.5631276 117.7625598 150.0597457  53.8548013
 118.6503554 149.9786603  52.6312308 115.4402689 158.3058394  49.9705081
 115.9041034 158.5846097  49.1809704 115.1759487 157.4041839  49.7878172
 112.3326770 157.8529876  52.9084845 112.9028127 158.2817144  52.2702329
 112.9234882 157.5712460  53.6069030 114.3771575 154.4281547  46.7794647
 115.0795618 154.8802590  47.2468573 114.0452203 153.7865365  47.4074540
 112.8251936 153.0193303  61.1545856 112.1950597 153.7009584  61.3881253
 112.7188024 152.9076385  60.2098994 108.1196909 152.6865099  52.0811780
 107.3295963 152.9422628  51.6051891 108.6108156 153.5013437  52.1863821
 110.0711654 153.0509679  49.0395257 109.2742817 153.1628373  49.5578752
 109.8437246 153.3896331  48.1736147 115.9017322 159.5754382  56.9877771
 115.9661754 160.0374789  57.8235943 115.1928245 158.9451747  57.1160081
 106.4034612 152.9395590  54.5126771 106.6542650 153.8242600  54.7784347
 106.9394160 152.7600191  53.7401863 115.6165339 161.2422489  46.8556752
 115.4811014 162.0874025  47.2841600 116.1575152 161.4441767  46.0922686
 112.1032679 147.3214069  63.5171107 111.7099624 146.7680268  64.1918751
 112.9198819 147.6324648  63.9077624 109.0694737 158.7597927  47.4284677
 109.5819257 159.5541178  47.5790241 109.7217449 158.0624218  47.3618278
 110.8789621 161.8763684  49.5107430 111.0556250 162.7981648  49.3228414
 111.6746455 161.5622103  49.9401810 115.0200640 148.7371948  61.1091364
 115.7610353 149.3379101  61.0295826 115.2518563 147.9949586  60.5509406
 110.1641978 153.9228315  59.3869593 110.0495493 153.0213573  59.6876692
 109.3086496 154.1692012  59.0354410 112.0020937 163.3941857  55.5117772
 112.5528362 163.2658921  54.7394766 111.1632413 163.6936746  55.1612665
 115.7988108 159.6592985  59.8562003 116.3316445 158.8981273  59.6261311
 115.2702189 159.3666637  60.5986158 118.9657803 144.7653051  55.3855645
 118.6222072 145.6554693  55.3094756 119.3336765 144.5754709  54.5225230
 107.0343653 157.0886582  48.2044247 107.8718875 157.4983590  47.9877955
 107.2121921 156.1486024  48.1744441 118.9308086 154.7561662  43.8928080
 118.4154709 155.5266267  44.1316468 118.6585394 154.0826798  44.5161142
 116.5155197 149.6011363  48.9513319 115.6596793 149.2118213  48.7718957
 116.9282148 149.6803324  48.0913104 118.0454343 147.1357706  53.3504878
 117.5419139 147.0987841  52.5372684 118.3384950 148.0450449  53.4101535
 114.2897229 147.2196436  52.3571060 115.1550226 147.0239245  51.9976950
 114.3574738 146.9906788  53.2840417 118.7194389 152.6288754  45.7187861
 118.4144524 152.9434904  46.5698005 119.6724831 152.7070174  45.7615194
 117.1640821 158.7878978  47.3680815 116.6362182 158.0531737  47.0554053
 116.6628323 159.5653654  47.1220784 122.1433667 156.9827998  52.4847862
 121.4857341 157.6727260  52.5727990 122.9474066 157.3724430  52.8281848
 111.8959548 149.4498644  49.7287427 112.4703300 149.2273825  48.9960620
 112.4830531 149.5187338  50.4816028 120.9539125 155.3372371  50.5351804
 121.4671007 155.9702363  51.0373513 121.6040349 154.7373566  50.1695164
 112.2229135 151.4803105  43.7483312 111.3866448 151.8177791  44.0692587
 112.0833905 151.3452085  42.8110449 114.1982216 146.3239893  48.4562496
 113.5446628 146.0088910  47.8319111 114.1562690 145.7015633  49.1822319
 117.4319956 152.8121826  52.7810144 116.5142518 153.0336773  52.6231832
 117.8480100 152.8868137  51.9221851 118.2155004 154.2113242  47.9112824
 118.9626823 154.7234639  47.6019946 118.4846594 153.8897295  48.7717218
 116.4881654 156.7071783  44.8939779 115.5792873 156.4230816  44.9912248
 116.5176738 157.1270861  44.0343085 120.6633841 151.2470358  49.8931614
 119.9256598 150.7347745  50.2241856 120.9160615 150.8070740  49.0814890
 120.7645468 144.0246610  50.4873383 121.0704345 143.1643974  50.1999298
 121.4898073 144.6164231  50.2872377 107.0569825 154.4277297  48.8754981
 106.8594224 153.8346658  48.1506047 106.5016489 154.1229507  49.5930920
 115.0366548 154.3200403  50.9949574 115.0915158 153.3674240  50.9192051
 114.2257750 154.4759842  51.4790872 112.9758908 152.9377463  48.7539953
 112.1626774 153.2371634  49.1605145 113.4717902 152.5433152  49.4714435
 115.1267486 162.9335220  50.6874217 115.0843665 163.1596066  49.7582750
 116.0430185 162.6998595  50.8360019 118.5733120 153.4019288  57.5854847
 118.9282508 153.6290761  58.4449312 119.2205251 153.7337664  56.9632102
 124.3030857 156.5237723  48.2904176 124.1648755 156.7139319  47.3625365
 123.9467076 157.2857106  48.7472227 112.4672983 150.5095819  54.3701188
 113.1072362 150.3684578  53.6724151 111.6350513 150.2230332  53.9939790
 113.2433287 159.8098249  50.4836180 114.0373885 159.3148569  50.2818755
 112.5324979 159.2816112  50.1203886 109.5516050 153.9541331  46.5595933
 108.6213638 153.8925786  46.7765895 109.6473522 153.4317284  45.7632574
 109.4701599 150.4796144  49.1474175 109.7308417 151.3941477  49.0383335
 110.2918772 150.0120586  49.2970787 110.9426525 151.8933901  56.3172999
 111.6149578 151.6851263  55.6685648 110.1156311 151.6955987  55.8778231
 116.8452097 148.5195842  58.3338660 116.1980012 149.2185791  58.2403136
 117.6153112 148.9531986  58.7014908 120.2530895 158.7844694  61.4089213
 120.1016401 158.5555246  60.4919297 120.2435574 159.7415295  61.4220558
 117.0216231 156.3576607  56.3935480 117.9508291 156.5087766  56.2204447
 116.6007261 156.4460627  55.5384126 115.8204563 160.3827271  54.1634017
 115.6815649 160.0146055  55.0359955 115.0319159 160.8974910  53.9917975
 117.3709778 159.7608874  51.5522855 117.0359611 159.7209644  52.4480505
 116.8713724 159.0953590  51.0793265 111.3454022 155.1676504  57.0775436
 111.2073820 154.4356743  57.6786975 112.2558945 155.0785404  56.7959624
 113.9736323 154.8796463  56.5659116 114.6835941 154.2389655  56.5245734
 113.9305631 155.1309358  57.4885297 112.6865257 151.8661681  58.3854755
 112.1502614 151.4152419  59.0376352 112.0981965 152.0007590  57.6425220
 112.0967516 151.3250332  40.9481219 111.2196982 151.2039133  40.5843466
 112.5725269 150.5336411  40.6960108 103.6169656 156.1127492  51.0422726
 104.3040695 155.7989222  50.4543741 103.4617784 157.0168857  50.7689978
 108.4204378 151.0017689  55.4707750 108.3362567 150.3943358  54.7358160
 107.5987084 151.4926707  55.4717246 118.5928092 149.4871252  50.8377945
 119.0896791 148.7341215  50.5179015 117.8215073 149.5235569  50.2721154
 119.6757872 158.2442939  48.4116368 118.7414151 158.3644402  48.2421073
 119.8534541 157.3415406  48.1476378 115.1763060 151.6288635  50.5649630
 114.8060848 151.0759676  51.2530535 115.6722153 151.0246769  50.0124630
 123.0630424 154.0860259  48.9466402 123.5290876 154.9188250  48.8726705
 123.5137924 153.6205240  49.6511661 113.0052259 162.0886130  57.6604647
 113.7061718 162.7222613  57.8134042 112.5347374 162.4300862  56.9000287
 121.0347086 146.4540846  52.9857304 120.1210166 146.6845073  53.1539511
 121.4640188 146.5379290  53.8371336 120.8053545 154.6430738  55.4857198
 120.1524995 154.8906645  54.8309651 121.1833925 153.8294876  55.1519675
 116.8541118 155.3850549  61.9723235 116.1781755 155.2844678  62.6425610
 117.6768752 155.2289762  62.4359232 108.6019977 161.6222485  54.5935750
 109.1873414 160.8766173  54.7263654 108.4044816 161.9326442  55.4772414
 111.4558632 164.6573733  49.6098193 110.7869008 165.1419860  49.1262233
 111.3171502 164.9042953  50.5241571 103.1937632 154.1928085  53.3140193
 103.2321731 153.6591676  54.1077311 102.6877925 153.6663291  52.6951170
 110.5728394 149.0392626  56.8102736 110.6369721 149.9007457  56.3980133
 110.5095514 148.4266628  56.0775094 110.0480667 151.1115759  60.4575770
 110.6752705 150.7292836  61.0713294 109.1908585 150.8929960  60.8231462
 106.8246209 152.9192188  46.3894125 107.1199650 152.0102866  46.3361178
 105.9234245 152.8979927  46.0675127 110.3540456 150.9948184  52.3721673
 109.6327042 151.6084152  52.2329147 111.1433712 151.5305949  52.2938319
 113.1566770 148.3302611  58.6462325 113.6801172 148.5764907  59.4088634
 112.9379103 149.1622646  58.2265462 108.5534051 150.6006285  46.5133450
 108.2246757 149.7203664  46.3308556 108.9073422 150.5453954  47.4009839
 111.6675874 150.8879255  46.8808928 112.0071947 151.4165176  46.1587536
 112.1147995 151.2259661  47.6567494 114.3619315 149.2716306  56.3311996
 114.0216135 148.4724119  56.7332675 113.6558321 149.5718017  55.7588829
 115.0135787 146.3565618  54.7839319 115.8361856 145.8826096  54.6618209
 115.2573850 147.1356102  55.2838005 113.6544021 149.3853877  45.0802220
 114.3752384 149.7635129  44.5765937 113.0309325 150.1042753  45.1837198
 117.7975144 150.0899026  46.0160553 118.0138759 150.9723664  45.7149381
 117.3169211 149.6985239  45.2866195 112.5374366 153.0484739  52.5931297
 112.3918946 153.3625042  53.4855579 112.0599569 153.6669639  52.0402196
 114.3970748 150.0387287  52.6412187 114.3832317 149.1428380  52.3044485
 115.1143177 150.0457951  53.2750473 116.2496879 150.4724627  54.6865314
 115.9914657 151.3941698  54.6849645 115.7181919 150.0755062  55.3765778
 107.0120028 155.5890083  55.5318958 106.4673496 156.3649891  55.6639233
 107.8899378 155.9360888  55.3738080 113.8007644 148.9201667  47.9099757
 113.9223556 147.9918313  48.1090644 113.5109687 148.9340353  46.9978072
 116.6698835 146.6056578  51.0466477 116.6920532 146.6695911  50.0918456
 117.0866894 145.7661086  51.2406983 107.7986050 154.7159980  58.4249115
 107.0567786 154.8642615  59.0113746 107.4778794 154.9768245  57.5615865
 108.2442663 162.6025408  50.4559510 109.0700683 162.3029180  50.0758153
 107.8936715 161.8333031  50.9049299 113.2124196 161.9551876  52.5257183
 112.5904206 161.2922582  52.2259411 113.8829063 161.9813008  51.8430831
 106.4451268 160.5211735  51.4148443 105.6083177 160.0933909  51.2332445
 106.4174914 160.7144178  52.3519235 113.2848724 150.4333665  62.1189690
 113.3336879 151.3095787  61.7367459 113.8271238 149.8911058  61.5461333
 112.7737703 160.5055800  46.0015644 112.9225824 161.1891264  45.3482317
 113.5804147 160.4860890  46.5165100 121.1805207 153.8098182  60.0282862
 122.0815070 153.6704647  59.7366860 121.2553181 153.9752637  60.9681039
 115.5148012 151.1865037  58.8736048 114.6451322 151.4798603  58.6018637
 115.7507493 151.7705482  59.5943312 123.6406830 155.3696810  57.4245635
 124.1160951 155.5624457  56.6164486 122.7172395 155.4255996  57.1789018
 110.5290336 156.5320977  47.0076713 110.2836378 155.6283307  47.2056923
 110.6986251 156.5338128  46.0656191 118.2187046 147.4044654  56.3901469
 118.7368990 148.1405681  56.0647957 117.8642179 147.7108647  57.2248228
 109.7985984 152.2649335  44.5062874 109.1055229 152.3393690  43.8502910
 109.5537736 151.5009679  45.0284391 118.4699640 143.8244936  51.9102365
 118.7501394 143.1568125  52.5362792 119.2550247 144.0174032  51.3977029
 122.3408499 152.2462570  55.6573940 123.2925922 152.3460668  55.6786164
 122.1711949 151.4540839  56.1672025 120.3622878 149.3318154  55.8433341
 119.7672810 149.6123166  55.1479830 120.0772575 149.8212055  56.6150082
 124.8196576 155.4668690  54.7716240 124.7872897 154.5284691  54.9575924
 125.4297200 155.5452727  54.0382065 124.9691065 152.2579733  54.8174523
 124.4530114 151.4738190  54.6304452 125.8531013 151.9298450  54.9821043
 122.6301792 146.0020749  50.7770336 122.4326613 145.6935837  51.6613668
 123.2401497 146.7282388  50.9068266 116.5418600 158.3882489  62.2744101
 117.4621609 158.5661088  62.4684147 116.5068183 157.4438535  62.1223800
 114.8422824 152.2614719  40.7498329 113.9354280 151.9647832  40.8261043
 115.1198805 151.9644538  39.8832615 105.7600765 153.5821083  51.1997376
 105.4403549 152.7286391  50.9071750 105.2134193 153.7969661  51.9555343
 109.5380672 156.2983524  54.9166882 109.7566682 157.2300632  54.9354916
 109.9506446 155.9391498  55.7021686 116.4584890 146.8051609  46.9042570
 115.6485619 146.4598694  47.2797817 117.1469307 146.4959153  47.4930182
 118.3875438 145.8829656  48.5266867 118.9406477 146.3025109  49.1856890
 118.6245525 144.9565404  48.5689823 114.4108538 151.8716730  64.3069631
 114.3105265 152.8211087  64.2381722 114.1930080 151.5434968  63.4345701
 113.6121609 149.1201655  40.8910308 114.4740773 149.4456553  41.1506126
 113.7971953 148.3333151  40.3783374 105.6289025 157.2023994  53.1690497
 104.9352496 156.7877947  52.6560452 106.3762016 157.2444531  52.5723916
 121.7654246 147.9930181  48.0345531 121.1852915 148.6514985  47.6523584
 121.4990178 147.1707526  47.6232949 120.2157812 147.3935239  50.2366852
 120.7157590 147.5051773  49.4281171 120.8593420 147.0896292  50.8767660
 114.2739808 155.3013868  63.1234693 113.7906889 156.1014229  63.3298582
 114.3600747 155.3121813  62.1702137 107.5425767 157.1342248  51.0456512
 107.5196455 157.2329935  50.0938395 107.8526404 157.9807399  51.3673678
 110.2013145 159.1918403  55.1603126 111.1556399 159.1602345  55.0933058
 110.0025669 158.7309027  55.9753352 110.7912527 157.7619519  57.7273924
 111.6105416 158.2563598  57.7508761 111.0649335 156.8451487  57.6991492
 120.5479124 150.1530271  47.0901880 119.6604979 150.4379922  46.8722074
 120.9633113 149.9924035  46.2429157 123.8993660 150.1776792  50.8056219
 124.6754050 150.6673245  51.0780836 123.1741794 150.6034847  51.2628088
 126.3366218 150.8904412  51.8630160 126.9310709 150.6500148  51.1523468
 126.4092802 150.1711542  52.4903696 108.5563374 164.7338023  52.1773324
 108.4217842 163.9738424  51.6111322 108.1395436 165.4578922  51.7102113
 120.5220147 155.6684807  47.3052170 120.4655349 156.1253359  46.4659802
 121.0748490 154.9075492  47.1275013 124.3324953 151.4574539  48.1302289
 124.0761887 151.0571175  48.9610497 123.7077821 152.1718333  48.0052428
 106.0447442 152.0957653  58.4266121 106.6906305 151.5856607  58.9153346
 105.8364593 152.8326335  59.0009546 118.5700834 159.1638501  63.9258262
 119.4391993 159.3379153  63.5644897 118.0907585 159.9832917  63.8033991
 114.5651052 146.3597698  44.1790017 114.5529722 147.3039538  44.3358288
 115.4574474 146.1767843  43.8849479 118.3803172 142.9540474  48.4335954
 117.6135567 142.3998961  48.5792637 118.7913877 143.0262343  49.2950106
 110.3844933 149.2425270  62.5241135 111.2476394 148.8862075  62.7344460
 109.8110343 148.9039165  63.2116540  29.9659010  11.0224270  45.9496573
  29.9547650  10.6277068  45.0777077  30.1279649  10.2890342  46.5430345
  26.6866271  13.8061382  44.8975757  26.3956137  14.7107012  44.7822424
  27.3223255  13.8477909  45.6119827  31.6456156  13.4922797  41.8925551
  31.3456879  14.3947836  41.7841358  31.3007215  13.2254980  42.7446704
  29.1194165   7.4294983  47.5157886  28.3427500   7.9888903  47.5060750
  29.7584729   7.9151766  48.0372756  27.3740538  10.2380436  47.0775853
  28.1155222  10.7765480  46.8010676  26.6677523  10.8646725  47.2347404
  32.8495877  12.3809577  45.6748014  33.2579233  11.9391987  44.9302646
  32.1273139  11.8062204  45.9282207  32.3526393   4.9786552  44.7062745
  32.1087325   5.7328612  44.1697020  32.6286323   5.3571899  45.5409992
  34.3064856  11.5225164  43.3840010  34.5181751  12.1656924  42.7074391
  34.2594604  10.6887481  42.9161940  26.1101902   7.3920084  47.8791163
  25.4800562   8.0736365  48.1126559  26.0037989   7.2803166  46.9344301
  35.4210684  14.3997120  41.5562368  36.2428127  13.9977307  41.2745049
  35.4173086  14.2965354  42.5078483  29.1867287  13.9481163  43.7123078
  29.2511719  14.4101570  44.5481250  28.4778211  13.3178528  43.8405388
  43.5116677  10.7435868  37.9047339  42.7580385  10.1743266  37.7491343
  43.6464218  10.7098533  38.8517974  30.5283781  16.2372837  47.7102400
  30.0847635  15.4509215  47.3923305  31.1900995  16.4251987  47.0446291
  25.2870902  17.7668639  42.2363079  25.8378327  17.6385702  41.4640073
  24.4482378  18.0663528  41.8857972  32.6265019  16.5175637  45.7383802
  32.6083494  17.3384518  45.2464071  33.5484939  16.3929712  45.9633943
  29.0838073  14.0319766  46.5807310  29.6166410  13.2708055  46.3506618
  28.5552154  13.7393418  47.3231465  31.8583085   7.7746069  44.3100153
  32.2132473   8.0017542  45.1694619  32.5055216   8.1064446  43.6877409
  37.6150202  12.9641032  40.0260754  38.0486708  12.8716321  40.8743808
  38.3281782  12.9398532  39.3880770  31.3478097  16.5643126  41.5593854
  31.4015119  17.1334062  42.3271570  30.4792878  16.7345011  41.1947892
  38.4765751  13.0064732  42.5593639  38.6701641  13.9110543  42.8052914
  38.3766369  12.5472151  43.3932224  33.5380860  13.1571475  48.1334520
  33.3866366  12.9282027  47.2164604  33.5285539  14.1142076  48.1465865
  30.3066196  10.7303388  43.1180786  31.2358256  10.8814547  42.9449754
  29.8857226  10.8187409  42.2629433  29.1054528  14.7554052  40.8879324
  28.9665614  14.3872837  41.7605262  28.3169124  15.2701692  40.7163282
  35.2473067  16.1890598  46.2111002  35.1885613  15.5049818  45.5441585
  35.6492585  16.9309588  45.7591628  24.2663765  23.0052511  39.0044721
  24.5060364  23.6371036  39.6823739  23.4232962  22.6540551  39.2910080
  35.2490474  14.1530182  44.4424981  34.3617253  13.8156103  44.5651380
  35.8189025  13.4213213  44.6793747  28.7791627  18.8131634  41.4086225
  28.7061799  19.6186605  41.9205529  28.3369020  19.0123600  40.5834246
  31.2390311  18.7118468  43.5644383  31.9518283  19.3465933  43.4920285
  30.7480339  18.8082334  42.7484385  26.2902224  16.4612911  44.3849954
  26.9911684  17.0949394  44.5379348  25.8197339  16.8027643  43.6245593
  34.0903510   9.0157519  42.2102504  33.4374961   9.2633426  41.5554957
  34.4683890   8.2021657  41.8764982  30.1391083   9.7577330  48.6968542
  29.4631720   9.6571459  49.3670917  30.9618717   9.6016544  49.1604539
  28.8813866  21.0644257  42.9326158  29.4332174  21.2275879  43.6975243
  29.2220060  21.6548695  42.2606182  33.7324741  15.8905515  48.7874812
  34.2764645  16.5035473  48.2929767  33.1511585  16.4485093  49.3041825
  32.0182253  19.0126233  39.9189840  31.8933393  18.2115973  39.4100785
  32.6761345  19.5072426  39.4303810  34.0817162  16.8135253  41.5469390
  33.1347497  16.6940604  41.4747717  34.4299935  15.9257751  41.6295651
  34.6897717  17.4316528  38.8338615  35.6144264  17.2259389  38.6963066
  34.5213020  17.1832929  39.7427956  29.0279678  18.6302739  44.9474812
  29.3366804  18.3851886  45.8197511  29.8255160  18.8349377  44.4593682
  29.0500290  20.7840649  37.1780188  28.6105280  20.2917027  37.8713045
  29.8008407  20.2413616  36.9372264  37.0553535  15.3501569  48.1236133
  36.2649079  15.3325708  47.5840633  36.8186889  15.8889863  48.8785170
  37.1751410  12.1994035  45.4368862  37.2249415  12.0344043  46.3784385
  37.0665333  11.3321294  45.0466743  34.4655172   8.1824963  46.7528168
  35.3665035   8.0431428  46.4612166  34.5403147   8.3479418  47.6926346
  38.6769607  14.6190977  45.6810883  38.3854415  14.9820957  46.5174344
  38.0641738  13.9057985  45.5024215  39.8765289  12.1843857  38.2013454
  40.7112180  12.6233661  38.3651014  40.0124418  11.7082510  37.3821699
  36.9256795   9.7423591  44.1490941  37.4010917   9.9351238  43.3409793
  36.0022360   9.7982777  43.9034325  35.6258464   6.6189352  42.3819247
  36.5775887   6.7187449  42.4031471  35.4561914   5.8267620  42.8917331
  38.1046542   9.8395471  41.4961547  38.0722862   8.9011472  41.6821230
  38.7147165   9.9179508  40.7627371  43.9223092  10.9011478  40.6367583
  44.6526480  10.6396766  41.1975287  43.3130037  10.1640200  40.6769651
  42.0038389   9.0419341  41.2342035  41.2771552   8.9075306  40.6258526
  41.5885676   9.3496169  42.0398753  29.8268565  12.7609270  48.9989408
  30.7471575  12.9387869  49.1929454  29.7918148  11.8165316  48.8469107
  27.6958503   6.2443511  51.0314938  27.5955230   7.1937868  50.9627029
  27.4780045   5.9161750  50.1591008  27.5589773   9.6740650  49.8479999
  27.0756855  10.4741010  50.0543888  27.6450712   9.6848594  48.8947443
  24.0762493  12.1346300  44.4519231  24.8955382  12.6290379  44.4754068
  24.3499300  11.2178268  44.4236798  24.9982465  20.0034121  39.1137074
  24.8814849  20.9479553  39.0115764  24.1774912  19.7007682  39.5022873
  31.8550799  13.5365282  50.6503568  32.7241959  13.7105934  50.2890203
  31.3757551  14.3559699  50.5279298  26.0236979  20.6562383  42.3293002
  26.9264226  20.6885993  42.6459497  25.7974349  19.7262834  42.3439338
  27.7790581  19.4093369  38.9903081  26.8286212  19.4095231  38.8767453
  28.0823068  18.6626104  38.4739115  43.5143275  25.2453908  40.0548843
  44.1521685  25.1260655  39.3512183  43.3964118  26.1934752  40.1136795
  40.3232981  25.1981336  39.9910368  39.9851493  25.0822400  39.1030903
  41.1922749  24.7972501  39.9711374  36.1819797  27.0516812  35.9807259
  35.6184662  26.9606749  35.2123546  36.0672192  26.2316717  36.4609751
  40.8052764  26.3516187  45.9496573  40.7941405  25.9568986  45.0777077
  40.9673404  25.6182260  46.5430345  33.7284229  28.5468004  38.8191479
  34.5205521  28.2058828  38.4037778  33.9680879  28.6562979  39.7393632
  41.7619356  30.7187780  31.2921724  41.1107335  31.3041860  30.9055737
  42.5563718  31.2493975  31.3516761  35.6874983  27.8076917  31.6908858
  36.4605859  27.2605904  31.5521734  36.0400382  28.6721166  31.9023319
  37.5260025  29.1353299  44.8975757  37.2349891  30.0398930  44.7822424
  38.1617010  29.1769827  45.6119827  38.4516232  26.5130148  41.4877117
  39.0479804  26.2886170  40.7734080  38.5091204  25.7714893  42.0902565
  43.0684543  22.9705361  37.1302051  43.8547633  22.5524785  36.7792468
  43.3323248  23.8751454  37.2983699  43.2394621  28.4078212  31.8290708
  42.6040454  28.4812838  32.5411613  42.9092027  28.9971811  31.1509787
  48.4692971  22.9080595  38.0335030  49.2018142  22.3379812  38.2672859
  47.7132326  22.5202195  38.4741535  37.7437549  25.8697689  31.5251683
  37.6273807  25.1942592  32.1932767  37.8539809  25.3830063  30.7083836
  40.0869090  25.3307836  35.2298372  39.7227297  24.8038457  35.9411294
  40.9436206  24.9406305  35.0564857  45.9918391  16.6202169  42.4929638
  45.6601716  17.4897580  42.2690853  45.3964004  16.3038453  43.1723669
  42.4849910  28.8214715  41.8925551  42.1850633  29.7239754  41.7841358
  42.1400970  28.5546898  42.7446704  35.9362392  25.2728512  37.9262255
  35.0112888  25.1404726  38.1339947  36.1846805  26.0522731  38.4232198
  45.8847054  21.3397255  39.5722988  44.9763932  21.2712663  39.2781749
  45.8334650  21.8169200  40.4004814  33.2971203  24.9161785  38.7606044
  33.4263584  25.1696264  39.6745456  32.6168654  25.5089493  38.4410699
  37.4670690  35.5859035  34.8596519  37.3894720  36.5366860  34.9384999
  36.8632334  35.2404908  35.5171445  39.9587920  22.7586901  47.5157886
  39.1821254  23.3180821  47.5060750  40.5978483  23.2443684  48.0372756
  47.7508701  19.5413693  41.3500862  47.1083081  19.8346227  40.7040657
  47.2463629  19.4266614  42.1554059  45.4048864  23.2876867  32.0386721
  46.3166720  23.5204253  31.8634419  44.8958511  23.8713911  31.4761800
  38.2134292  25.5672354  47.0775853  38.9548977  26.1057398  46.8010676
  37.5071278  26.1938643  47.2347404  43.6889632  27.7101494  45.6748014
  44.0972988  27.2683905  44.9302646  42.9666893  27.1354122  45.9282207
  40.0420702  22.6474101  43.0481571  40.8881897  23.0713515  43.1916220
  39.9819340  21.9907725  43.7420134  44.0118447  28.2702685  39.4300303
  43.3827309  28.4348399  38.7276371  43.6244109  28.6844295  40.2011267
  47.8907678  29.2057123  36.7844667  47.2058717  29.5856024  36.2341700
  47.9751528  29.8152450  37.5176614  43.1920147  20.3078470  44.7062745
  42.9481079  21.0620530  44.1697020  43.4680078  20.6863817  45.5409992
  45.1458610  26.8517082  43.3840010  45.3575505  27.4948842  42.7074391
  45.0988358  26.0179398  42.9161940  42.7484839  19.4634903  40.2876582
  41.8869318  19.7616156  40.5793320  42.7747274  19.6805301  39.3557615
  39.5646408  28.0077093  36.6950388  40.0284754  28.2864796  35.9055010
  39.3003207  27.1060538  36.5123479  36.4570489  27.5548575  39.6330151
  37.0271847  27.9835843  38.9947636  37.0478601  27.2731159  40.3314337
  38.5015294  24.1300245  33.5039953  39.2039338  24.5821289  33.9713880
  38.1695923  23.4884064  34.1319846  36.9495656  22.7212002  47.8791163
  36.3194317  23.4028283  48.1126559  36.8431744  22.6095084  46.9344301
  32.2440628  22.3883798  38.8057087  31.4539682  22.6441327  38.3297197
  32.7351876  23.2032136  38.9109127  46.2604438  29.7289037  41.5562368
  47.0821882  29.3269225  41.2745049  46.2566841  29.6257271  42.5078483
  34.1955374  22.7528377  35.7640563  33.3986537  22.8647072  36.2824059
  33.9680966  23.0915030  34.8981454  40.0261041  29.2773081  43.7123078
  40.0905474  29.7393488  44.5481250  39.3171965  28.6470446  43.8405388
  30.5278331  22.6414289  41.2372077  30.7786370  23.5261299  41.5029653
  31.0637880  22.4618890  40.4647169  54.3510431  26.0727786  37.9047339
  53.5974139  25.5035184  37.7491343  54.4857972  26.0390450  38.8517974
  39.7409059  30.9441188  33.5802058  39.6054734  31.7892724  34.0086906
  40.2818872  31.1460466  32.8167992  36.2276399  17.0232768  50.2416414
  35.8343344  16.4698967  50.9164058  37.0442539  17.3343346  50.6322931
  33.1938456  28.4616626  34.1529983  33.7062977  29.2559876  34.3035548
  33.8461169  27.7642917  34.0863585  35.0033341  31.5782382  36.2352737
  35.1799970  32.5000347  36.0473721  35.7990175  31.2640802  36.6647116
  39.1444360  18.4390647  47.8336670  39.8854073  19.0397800  47.7541133
  39.3762283  17.6968285  47.2754713  34.2885698  23.6247014  46.1114900
  34.1739213  22.7232272  46.4121999  33.4330215  23.8710711  45.7599716
  41.3677535  31.5664755  47.7102400  40.9241390  30.7801133  47.3923305
  42.0294749  31.7543905  47.0446291  36.1264657  33.0960556  42.2363079
  36.6772082  32.9677620  41.4640073  35.2876133  33.3955445  41.8857972
  43.4658774  31.8467555  45.7383802  43.4477249  32.6676436  45.2464071
  44.3878694  31.7221630  45.9633943  39.9231828  29.3611684  46.5807310
  40.4560165  28.5999972  46.3506618  39.3945909  29.0685336  47.3231465
  43.0901523  14.4671750  42.1100952  42.7465792  15.3573392  42.0340062
  43.4580485  14.2773408  41.2470537  31.1587373  26.7905280  34.9289554
  31.9962595  27.2002289  34.7123262  31.3365641  25.8504723  34.8989748
  43.0551805  24.4580361  30.6173387  42.5398429  25.2284966  30.8561774
  42.7829114  23.7845497  31.2406448  40.6398916  19.3030062  35.6758625
  39.7840513  18.9136912  35.4964264  41.0525868  19.3822023  34.8158411
  42.1698063  16.8376405  40.0750185  41.6662859  16.8006540  39.2617990
  42.4628670  17.7469148  40.1346842  38.4140949  16.9215135  39.0816367
  39.2793946  16.7257944  38.7222256  38.4818458  16.6925487  40.0085724
  48.0286080  27.2112716  32.5526560  47.2515522  26.8723875  32.1081722
  48.7077560  27.2165339  31.8781525  42.8438109  22.3307453  32.4433168
  42.5388244  22.6453602  33.2943311  43.7968551  22.4088873  32.4860501
  41.2884540  28.4897677  34.0926122  40.7605902  27.7550436  33.7799360
  40.7872043  29.2672353  33.8466090  46.2677386  26.6846697  39.2093168
  45.6101061  27.3745958  39.2973297  47.0717786  27.0743129  39.5527155
  36.0203268  19.1517343  36.4532734  36.5947020  18.9292524  35.7205927
  36.6074250  19.2206037  37.2061335  45.0782845  25.0391070  37.2597110
  45.5914727  25.6721062  37.7618820  45.7284069  24.4392265  36.8940470
  42.3405219  35.0175394  30.0157781  41.6666918  35.3207091  30.6242739
  42.7271041  35.8204474  29.6663238  41.5563676  22.5140525  39.5055451
  40.6386237  22.7355472  39.3477139  41.9723820  22.5886836  38.6467158
  42.3398724  23.9131941  34.6358131  43.0870543  24.4253338  34.3265253
  42.6090313  23.5915994  35.4962524  40.6125374  26.4090482  31.6185085
  39.7036593  26.1249514  31.7157555  40.6420458  26.8289560  30.7588392
  45.8444641  30.0197071  35.3876253  45.3906969  29.1787981  35.4441443
  45.2138608  30.6558470  35.7251033  44.7877561  20.9489057  36.6176920
  44.0500318  20.4366443  36.9487163  45.0404335  20.5089439  35.8060197
  44.2877581  31.8573568  36.3226071  44.5800555  32.4178625  35.6038437
  44.7976201  32.1502129  37.0779230  44.8889188  13.7265309  37.2118690
  45.1948065  12.8662673  36.9244605  45.6141793  14.3182929  37.0117683
  31.1813544  24.1295996  35.6000287  30.9837944  23.5365356  34.8751354
  30.6260208  23.8248206  36.3176226  39.1610268  24.0219102  37.7194881
  39.2158878  23.0692939  37.6437357  38.3501470  24.1778541  38.2036179
  40.3101462  27.9499225  28.9573164  39.8720892  27.2335084  28.4978801
  41.0511903  28.1775340  28.3958255  37.1002628  22.6396162  35.4785259
  36.2870494  22.9390333  35.8850452  37.5961622  22.2451851  36.1959742
  39.2511206  32.6353919  37.4119524  39.2087385  32.8614765  36.4828056
  40.1673905  32.4017294  37.5605325  42.6976840  23.1037986  44.3100153
  43.0526227  23.3309460  45.1694619  43.3448971  23.4356363  43.6877409
  48.4274577  26.2256422  35.0149482  48.2892475  26.4158018  34.0870672
  48.0710795  26.9875805  35.4717533  36.5916703  20.2114518  41.0946494
  37.2316082  20.0703277  40.3969458  35.7594233  19.9249031  40.7185096
  48.4543956  28.2932949  40.0260754  48.8880463  28.2008238  40.8743808
  49.1675537  28.2690450  39.3880770  37.3677007  29.5116948  37.2081487
  38.1617605  29.0167268  37.0064062  36.6568699  28.9834811  36.8449192
  42.1871851  31.8935043  41.5593854  42.2408873  32.4625980  42.3271570
  41.3186632  32.0636928  41.1947892  33.5945319  20.1814842  35.8719481
  33.8552136  21.0960176  35.7628642  34.4162491  19.7139285  36.0216094
  35.0670245  21.5952600  43.0418306  35.7393298  21.3869962  42.3930955
  34.2400031  21.3974686  42.6023538  49.3159506  28.3356650  42.5593639
  49.5095396  29.2402461  42.8052914  49.2160124  27.8764069  43.3932224
  40.9695817  18.2214541  45.0583967  40.3223732  18.9204490  44.9648443
  41.7396832  18.6550685  45.4260215  44.3774614  28.4863393  48.1334520
  44.2260121  28.2573944  47.2164604  44.3679294  29.4433994  48.1465865
  41.1459951  26.0595305  43.1180786  42.0752011  26.2106465  42.9449754
  40.7250981  26.1479326  42.2629433  39.9448283  30.0845970  40.8879324
  39.8059368  29.7164754  41.7605262  39.1562879  30.5993609  40.7163282
  40.5396435  35.1855066  32.2304860  40.7148190  34.7143110  33.0450483
  39.8529223  35.8120833  32.4586121  41.4953498  29.4627573  38.2768162
  41.1603330  29.4228343  39.1725812  40.9957443  28.7972289  37.8038572
  35.4697742  24.8695203  43.8020743  35.3317540  24.1375441  44.4032282
  36.3802665  24.7804103  43.5204931  44.4312689  26.8083607  28.5505221
  43.8141860  26.0830435  28.4538274  43.9629178  27.5692967  28.2072296
  38.0980042  24.5815162  43.2904423  38.8079661  23.9408354  43.2491041
  38.0549351  24.8328057  44.2130603  46.0866821  31.5182515  46.2111002
  46.0279367  30.8341735  45.5441585  46.4886339  32.2601505  45.7591628
  36.8108976  21.5680380  45.1100062  36.2746333  21.1171118  45.7621658
  36.2225685  21.7026289  44.3670526  35.1057520  38.3344429  39.0044721
  35.3454118  38.9662953  39.6823739  34.2626716  37.9832469  39.2910080
  46.0884228  29.4822099  44.4424981  45.2011007  29.1448021  44.5651380
  46.6582779  28.7505130  44.6793747  27.7413375  25.8146191  37.7668033
  28.4284415  25.5007921  37.1789048  27.5861504  26.7187556  37.4935284
  32.5448098  20.7036388  42.1953057  32.4606286  20.0962057  41.4603466
  31.7230804  21.1945406  42.1962553  39.6185382  34.1423552  41.4086225
  39.5455553  34.9478523  41.9205529  39.1762775  34.3415517  40.5834246
  39.4075161  33.3795322  34.9189046  38.6242683  33.9217002  35.0127271
  40.1067907  33.8969301  35.3183287  42.7171811  19.1889951  37.5623252
  43.2140511  18.4359913  37.2424322  41.9458793  19.2254268  36.9966461
  50.5701569  24.8930317  39.2041543  50.5591445  25.7755032  38.8335476
  49.7018948  24.5401867  39.0096080  42.0784065  34.0410386  43.5644383
  42.7912037  34.6757850  43.4920285  41.5874094  34.1374252  42.7484385
  43.8001592  27.9461638  35.1361675  42.8657871  28.0663101  34.9666379
  43.9778261  27.0434105  34.8721685  39.3006780  21.3307334  37.2894936
  38.9304568  20.7778374  37.9775842  39.7965873  20.7265468  36.7369936
  47.1874144  23.7878958  35.6711709  47.6534596  24.6206949  35.5972012
  47.6381644  23.3223939  36.3756968  37.1295979  31.7904829  44.3849954
  37.8305438  32.4241312  44.5379348  36.6591094  32.1319561  43.6245593
  45.2550375  30.1322779  32.6697861  45.5310219  30.0179373  33.5791735
  44.3854873  29.7340264  32.6310034  45.1590806  16.1559545  39.7102610
  44.2453886  16.3863771  39.8784817  45.5883908  16.2397989  40.5616643
  44.9297265  24.3449437  42.2102504  44.2768715  24.5925344  41.5554957
  45.3077645  23.5313575  41.8764982  41.8904439  34.3809130  36.3130675
  42.0726833  33.5630786  36.7758427  42.7137425  34.5976822  35.8755565
  42.2246604  33.3077315  33.5745723  42.7534371  32.7969769  32.9615885
  42.4874824  32.9919845  34.4391256  40.9784838  25.0869248  48.6968542
  40.3025475  24.9863377  49.3670917  41.8012472  24.9308461  49.1604539
  32.7263697  31.3241184  41.3181057  33.3117134  30.5784872  41.4508961
  32.5288535  31.6345141  42.2017721  35.5802352  34.3592432  36.3343499
  34.9112727  34.8438559  35.8507539  35.4415222  34.6061652  37.2486878
  27.3181352  23.8946784  40.0385500  27.3565451  23.3610375  40.8322618
  26.8121644  23.3681990  39.4196477  39.7207621  36.3936175  42.9326158
  40.2725929  36.5567797  43.6975243  40.0613814  36.9840613  42.2606182
  34.6972114  18.7411325  43.5348042  34.7613440  19.6026156  43.1225440
  34.6339234  18.1285327  42.8020401  34.1724386  20.8134457  47.1821077
  34.7996425  20.4311535  47.7958601  33.3152305  20.5948659  47.5476769
  44.5718495  31.2197433  48.7874812  45.1158399  31.8327391  48.2929767
  43.9905340  31.7777011  49.3041825  42.8576008  34.3418151  39.9189840
  42.7327147  33.5407890  39.4100785  43.5155099  34.8364344  39.4303810
  34.4784176  20.6966883  39.0966980  33.7570762  21.3102851  38.9574453
  35.2677432  21.2324648  39.0183626  44.9210916  32.1427171  41.5469390
  43.9741252  32.0232522  41.4747717  45.2693689  31.2549669  41.6295651
  37.2810490  18.0321310  45.3707632  37.8044892  18.2783606  46.1333941
  37.0622823  18.8641344  44.9510769  41.9257350  31.9379887  37.7473742
  41.7782312  31.0096594  37.9281312  42.7510843  31.9599978  37.2630817
  45.5291471  32.7608446  38.8338615  46.4538019  32.5551307  38.6963066
  45.3606775  32.5124847  39.7427956  38.4863035  18.9735005  43.0557302
  38.1459855  18.1742818  43.4577982  37.7802041  19.2736716  42.4834135
  39.1379507  16.0584317  41.5084625  39.9605576  15.5844795  41.3863516
  39.3817570  16.8374801  42.0083312  36.6618085  22.7503438  39.3176604
  36.5162666  23.0643741  40.2100885  36.1843289  23.3688338  38.7647502
  38.5214468  19.7405986  39.3657493  38.5076037  18.8447079  39.0289791
  39.2386896  19.7476649  39.9995779  40.3740599  20.1743326  41.4110621
  40.1158377  21.0960397  41.4094951  39.8425639  19.7773760  42.1011085
  45.3186788  33.2794113  34.1900706  45.4923665  32.7140536  33.4374559
  45.8115679  34.0795008  34.0080196  31.1363748  25.2908782  42.2564265
  30.5917216  26.0668590  42.3884539  32.0143097  25.6379587  42.0983386
  40.7942555  16.3075276  37.7711783  40.8164251  16.3714610  36.8163763
  41.2110614  15.4679785  37.9652290  51.1726179  26.0430536  35.8091006
  51.6157325  25.2937861  35.4110129  50.2952689  26.0340672  35.4264738
  46.3061960  32.5960877  31.2897604  47.0012865  33.2167570  31.5084919
  46.6485110  31.7456229  31.5649982  31.9229769  24.4178678  45.1494422
  31.1811505  24.5661314  45.7359052  31.6022514  24.6786944  44.2861171
  48.2053383  30.0460583  32.8184935  48.7304707  30.3847856  32.0934255
  48.1175736  29.1107598  32.6348070  39.8673432  33.9594657  44.9474812
  40.1760558  33.7143803  45.8197511  40.6648914  34.1641295  44.4593682
  39.8894044  36.1132566  37.1780188  39.4499034  35.6208945  37.8713045
  40.6402161  35.5705534  36.9372264  32.3686383  32.3044107  37.1804817
  33.1944403  32.0047879  36.8003460  32.0180435  31.5351730  37.6294605
  37.3367916  31.6570575  39.2502490  36.7147925  30.9941280  38.9504718
  38.0072783  31.6831707  38.5676138  30.5694988  30.2230434  38.1393750
  29.7326896  29.7952608  37.9577751  30.5418634  30.4162877  39.0764541
  37.4092444  20.1352363  48.8434996  37.4580599  21.0114486  48.4612766
  37.9514958  19.5929756  48.2706639  47.8947289  30.6793487  48.1236133
  47.1042833  30.6617625  47.5840633  47.6580644  31.2181780  48.8785170
  48.0145164  27.5285953  45.4368862  48.0643169  27.3635960  46.3784385
  47.9059088  26.6613212  45.0466743  36.8981423  30.2074499  32.7260951
  37.0469543  30.8909963  32.0727623  37.7047867  30.1879589  33.2410406
  45.3048927  23.5116881  46.7528168  46.2058790  23.3723346  46.4612166
  45.3796901  23.6771336  47.6926346  39.6391732  20.8883736  45.5981355
  38.7695042  21.1817302  45.3263943  39.8751213  21.4724181  46.3188618
  49.5163361  29.9482895  45.6810883  49.2248170  30.3112875  46.5174344
  48.9035493  29.2349903  45.5024215  50.7159044  27.5135774  38.2013454
  51.5505935  27.9525578  38.3651014  50.8518172  27.0374428  37.3821699
  47.7650549  25.0715509  44.1490941  48.2404671  25.2643155  43.3409793
  46.8416115  25.1274695  43.9034325  34.6534056  26.2339676  33.7322020
  34.4080098  25.3302006  33.9302230  34.8229971  26.2356827  32.7901498
  42.3430766  17.1063353  43.1146775  42.8612710  17.8424380  42.7893264
  41.9885899  17.4127346  43.9493534  42.5943360  13.5263635  38.6347672
  42.8745114  12.8586824  39.2608098  43.3793967  13.7192731  38.1222336
  40.3976829  32.7022629  30.1972698  39.8250796  33.3212816  29.7443170
  40.9709622  33.2521991  30.7312620  46.4652218  21.9481269  42.3819247
  47.4169641  22.0479367  42.4031471  46.2955669  21.1559538  42.8917331
  44.4866598  19.0336852  42.5678648  43.8916530  19.3141865  41.8725136
  44.2016295  19.5230753  43.3395389  43.6174088  32.9859779  31.3281280
  44.5504762  32.9205341  31.5314156  43.5297301  33.8216046  30.8695813
  46.2462105  32.3025650  28.2885228  46.1675737  31.9685513  29.1820986
  47.0671772  32.7947418  28.2876700  48.9440296  25.1687389  41.4961547
  48.9116616  24.2303390  41.6821230  49.5540920  25.2471426  40.7627371
  49.0934785  21.9598432  41.5419830  48.5773833  21.1756889  41.3549759
  49.9774733  21.6317149  41.7066349  46.7545512  15.7039448  37.5015642
  46.5570333  15.3954536  38.3858974  47.3645217  16.4301087  37.6313572
  54.7616846  26.2303396  40.6367583  55.4920235  25.9688684  41.1975287
  54.1523792  25.4932118  40.6769651  52.8432143  24.3711258  41.2342035
  52.1165307  24.2367223  40.6258526  52.4279430  24.6788087  42.0398753
  40.6662320  28.0901188  48.9989408  41.5865329  28.2679787  49.1929454
  40.6311903  27.1457233  48.8469107  29.8844485  23.2839782  37.9242682
  29.5647269  22.4305090  37.6317056  29.3377913  23.4988360  38.6800650
  33.6624392  26.0002223  41.6412189  33.8810402  26.9319330  41.6600223
  34.0750166  25.6410197  42.4266993  42.5119158  15.5848355  35.2512174
  43.0650197  16.0043808  35.9102197  42.7489245  14.6584103  35.2935130
  38.5352258  21.5735428  51.0314938  38.4348984  22.5229785  50.9627029
  38.3173800  21.2453667  50.1591008  29.7532745  26.9042693  39.8935804
  29.0596216  26.4896646  39.3805758  30.5005736  26.9463230  39.2969223
  45.8897965  17.6948880  34.7590838  45.3096634  18.3533684  34.3768890
  45.6233898  16.8726225  34.3478256  44.3401532  17.0953938  36.9612158
  44.8401310  17.2070472  36.1526477  44.9837140  16.7914991  37.6012967
  38.3983528  25.0032567  49.8479999  37.9150609  25.8032927  50.0543888
  38.4844467  25.0140512  48.8947443  31.6669487  26.8360947  37.7701819
  31.6440175  26.9348634  36.8183702  31.9770124  27.6826098  38.0918985
  34.3256865  28.8937102  41.8848433  35.2800119  28.8621044  41.8178365
  34.1269389  28.4327726  42.6998659  34.9156247  27.4638218  44.4519231
  35.7349136  27.9582297  44.4754068  35.1893055  26.5470186  44.4236798
  44.6722843  19.8548970  33.8147186  43.7848698  20.1398621  33.5967381
  45.0876832  19.6942734  32.9674463  48.0237380  19.8795491  37.5301526
  48.7997770  20.3691944  37.8026142  47.2985514  20.3053546  37.9873395
  50.4609938  20.5923111  38.5875466  51.0554429  20.3518847  37.8768774
  50.5336522  19.8730241  39.2149002  32.6807094  34.4356721  38.9018631
  32.5461562  33.6757122  38.3356629  32.2639156  35.1597621  38.4347420
  43.8166057  29.6193645  27.9095206  44.5201907  29.8243648  28.5252862
  43.0928706  30.1870407  28.1744290  44.6463867  25.3703506  34.0297476
  44.5899069  25.8272058  33.1905109  45.1992210  24.6094191  33.8520319
  48.4568673  21.1593238  34.8547596  48.2005607  20.7589874  35.6855804
  47.8321541  21.8737032  34.7297735  52.7681011  23.8989311  37.3618887
  52.2080569  23.9682501  38.1350449  52.1624514  23.7230296  36.6418384
  35.8376220  35.3326039  39.1137074  35.7208604  36.2771471  39.0115764
  35.0168666  35.0299600  39.5022873  45.7252754  30.0576174  29.9593666
  46.5598358  29.6257373  29.7771141  45.5637097  29.8858188  30.8870561
  45.3798646  26.5608288  31.3250006  45.3247450  26.3952559  30.3838450
  44.7544702  27.2684320  31.4812195  30.1691161  21.7976352  45.1511428
  30.8150025  21.2875306  45.6398653  29.9608313  22.5345034  45.7254853
  42.6944554  28.8657199  50.6503568  43.5635713  29.0397852  50.2890203
  42.2151305  29.6851616  50.5279298  36.8630734  35.9854300  42.3293002
  37.7657981  36.0177911  42.6459497  36.6368104  35.0554751  42.3439338
  38.6184336  34.7385287  38.9903081  37.6679967  34.7387149  38.8767453
  38.9216822  33.9918022  38.4739115  34.5088652  18.9443969  49.2486442
  35.3720114  18.5880774  49.4589767  33.9354063  18.6057864  49.9361846
  54.3537029  40.5745825  40.0548843  54.9915439  40.4552573  39.3512183
  54.2357872  41.5226669  40.1136795  51.1626736  40.5273253  39.9910368
  50.8245247  40.4114318  39.1030903  52.0316504  40.1264419  39.9711374
  47.0213551  42.3808730  35.9807259  46.4578416  42.2898667  35.2123546
  46.9065946  41.5608634  36.4609751  51.6446519  41.6808105  45.9496573
  51.6335159  41.2860903  45.0777077  51.8067158  40.9474178  46.5430345
  44.5677983  43.8759921  38.8191479  45.3599275  43.5350746  38.4037778
  44.8074633  43.9854896  39.7393632  52.6013110  46.0479698  31.2921724
  51.9501090  46.6333778  30.9055737  53.3957473  46.5785892  31.3516761
  46.5268737  43.1368835  31.6908858  47.2999613  42.5897822  31.5521734
  46.8794136  44.0013084  31.9023319  48.3653780  44.4645217  44.8975757
  48.0743646  45.3690848  44.7822424  49.0010764  44.5061745  45.6119827
  49.2909987  41.8422065  41.4877117  49.8873559  41.6178088  40.7734080
  49.3484958  41.1006811  42.0902565  48.8635015  39.2961501  29.3227308
  49.1160536  38.7743022  28.5610771  47.9259574  39.1327646  29.4253991
  53.9078298  38.2997279  37.1302051  54.6941387  37.8816702  36.7792468
  54.1717002  39.2043371  37.2983699  54.0788375  43.7370129  31.8290708
  53.4434208  43.8104756  32.5411613  53.7485782  44.3263728  31.1509787
  59.3086725  38.2372512  38.0335030  60.0411897  37.6671729  38.2672859
  58.5526081  37.8494113  38.4741535  48.5831304  41.1989607  31.5251683
  48.4667562  40.5234510  32.1932767  48.6933564  40.7121981  30.7083836
  50.9262845  40.6599754  35.2298372  50.5621052  40.1330375  35.9411294
  51.7829961  40.2698223  35.0564857  56.8312145  31.9494086  42.4929638
  56.4995470  32.8189497  42.2690853  56.2357759  31.6330370  43.1723669
  50.5668332  35.6889654  30.2259721  50.7342734  36.5569890  30.5930192
  50.3765501  35.8516935  29.3021010  53.3243665  44.1506632  41.8925551
  53.0244388  45.0531671  41.7841358  52.9794724  43.8838816  42.7446704
  46.7756146  40.6020429  37.9262255  45.8506643  40.4696643  38.1339947
  47.0240560  41.3814649  38.4232198  56.7240809  36.6689173  39.5722988
  55.8157686  36.6004581  39.2781749  56.6728404  37.1461118  40.4004814
  50.5457553  38.1447311  31.2106387  50.4257178  38.5904362  32.0491868
  49.8510141  38.4932629  30.6519926  44.1364957  40.2453703  38.7606044
  44.2657339  40.4988182  39.6745456  43.4562409  40.8381411  38.4410699
  48.3064445  50.9150953  34.8596519  48.2288474  51.8658778  34.9384999
  47.7026088  50.5696825  35.5171445  50.7981674  38.0878818  47.5157886
  50.0215009  38.6472738  47.5060750  51.4372238  38.5735601  48.0372756
  58.5902455  34.8705611  41.3500862  57.9476835  35.1638144  40.7040657
  58.0857384  34.7558531  42.1554059  56.2442619  38.6168784  32.0386721
  57.1560475  38.8496171  31.8634419  55.7352266  39.2005828  31.4761800
  49.0528047  40.8964272  47.0775853  49.7942731  41.4349316  46.8010676
  48.3465032  41.5230560  47.2347404  54.5283386  43.0393412  45.6748014
  54.9366742  42.5975823  44.9302646  53.8060648  42.4646040  45.9282207
  50.8814456  37.9766019  43.0481571  51.7275652  38.4005432  43.1916220
  50.8213094  37.3199643  43.7420134  54.8512201  43.5994603  39.4300303
  54.2221063  43.7640317  38.7276371  54.4637863  44.0136212  40.2011267
  58.7301433  44.5349041  36.7844667  58.0452471  44.9147942  36.2341700
  58.8145282  45.1444367  37.5176614  54.0313902  35.6370387  44.7062745
  53.7874834  36.3912448  44.1697020  54.3073832  36.0155735  45.5409992
  55.9852365  42.1809000  43.3840010  56.1969260  42.8240759  42.7074391
  55.9382113  41.3471316  42.9161940  53.5878594  34.7926820  40.2876582
  52.7263073  35.0908074  40.5793320  53.6141028  35.0097219  39.3557615
  50.4040163  43.3369011  36.6950388  50.8678508  43.6156714  35.9055010
  50.1396961  42.4352455  36.5123479  47.2964244  42.8840492  39.6330151
  47.8665601  43.3127761  38.9947636  47.8872356  42.6023077  40.3314337
  49.3409049  39.4592163  33.5039953  50.0433092  39.9113207  33.9713880
  49.0089677  38.8175982  34.1319846  47.7889410  38.0503920  47.8791163
  47.1588071  38.7320201  48.1126559  47.6825498  37.9387001  46.9344301
  43.0834383  37.7175716  38.8057087  42.2933437  37.9733244  38.3297197
  43.5745630  38.5324054  38.9109127  57.0998192  45.0580955  41.5562368
  57.9215636  44.6561142  41.2745049  57.0960595  44.9549189  42.5078483
  45.0349128  38.0820295  35.7640563  44.2380292  38.1938989  36.2824059
  44.8074721  38.4206947  34.8981454  50.8654796  44.6064998  43.7123078
  50.9299228  45.0685406  44.5481250  50.1565720  43.9762363  43.8405388
  41.3672086  37.9706206  41.2372077  41.6180124  38.8553216  41.5029653
  41.9031634  37.7910808  40.4647169  65.1904186  41.4019703  37.9047339
  64.4367894  40.8327102  37.7491343  65.3251727  41.3682368  38.8517974
  50.5802814  46.2733106  33.5802058  50.4448488  47.1184642  34.0086906
  51.1212626  46.4752383  32.8167992  47.0670153  32.3524686  50.2416414
  46.6737099  31.7990884  50.9164058  47.8836294  32.6635264  50.6322931
  44.0332211  43.7908544  34.1529983  44.5456732  44.5851794  34.3035548
  44.6854924  43.0934834  34.0863585  45.8427096  46.9074300  36.2352737
  46.0193724  47.8292265  36.0473721  46.6383929  46.5932719  36.6647116
  49.9838114  33.7682565  47.8336670  50.7247828  34.3689718  47.7541133
  50.2156037  33.0260203  47.2754713  45.1279452  38.9538932  46.1114900
  45.0132967  38.0524189  46.4121999  44.2723970  39.2002629  45.7599716
  52.2071290  46.8956672  47.7102400  51.7635144  46.1093051  47.3923305
  52.8688504  47.0835823  47.0446291  46.9658411  48.4252474  42.2363079
  47.5165836  48.2969537  41.4640073  46.1269887  48.7247363  41.8857972
  54.3052528  47.1759472  45.7383802  54.2871003  47.9968353  45.2464071
  55.2272448  47.0513547  45.9633943  50.7625582  44.6903602  46.5807310
  51.2953919  43.9291890  46.3506618  50.2339663  44.3977254  47.3231465
  53.9295277  29.7963668  42.1100952  53.5859547  30.6865309  42.0340062
  54.2974240  29.6065325  41.2470537  41.9981128  42.1197198  34.9289554
  42.8356350  42.5294206  34.7123262  42.1759395  41.1796640  34.8989748
  53.8945560  39.7872279  30.6173387  53.3792183  40.5576883  30.8561774
  53.6222868  39.1137415  31.2406448  51.4792671  34.6321980  35.6758625
  50.6234267  34.2428830  35.4964264  51.8919623  34.7113940  34.8158411
  53.0091818  32.1668323  40.0750185  52.5056613  32.1298458  39.2617990
  53.3022424  33.0761066  40.1346842  49.2534703  32.2507053  39.0816367
  50.1187700  32.0549861  38.7222256  49.3212212  32.0217404  40.0085724
  58.8679834  42.5404633  32.5526560  58.0909277  42.2015793  32.1081722
  59.5471315  42.5457257  31.8781525  53.6831863  37.6599371  32.4433168
  53.3781999  37.9745520  33.2943311  54.6362305  37.7380791  32.4860501
  52.1278295  43.8189594  34.0926122  51.5999656  43.0842354  33.7799360
  51.6265798  44.5964271  33.8466090  57.1071141  42.0138615  39.2093168
  56.4494815  42.7037876  39.2973297  57.9111540  42.4035047  39.5527155
  46.8597023  34.4809260  36.4532734  47.4340774  34.2584442  35.7205927
  47.4468005  34.5497955  37.2061335  55.9176600  40.3682987  37.2597110
  56.4308481  41.0012979  37.7618820  56.5677824  39.7684183  36.8940470
  47.1866610  36.5113721  30.4728619  46.3503922  36.8488408  30.7937894
  47.0471379  36.3762701  29.5355756  49.1619690  31.3550509  35.1807803
  48.5084103  31.0399527  34.5564418  49.1200164  30.7326250  35.9067626
  50.2730895  41.6369804  27.0961095  49.3657957  41.4059058  27.2952244
  50.7701927  40.8407424  27.2835077  53.1798974  50.3467312  30.0157781
  52.5060673  50.6499008  30.6242739  53.5664796  51.1496392  29.6663238
  52.3957431  37.8432443  39.5055451  51.4779992  38.0647390  39.3477139
  52.8117574  37.9178753  38.6467158  53.1792478  39.2423859  34.6358131
  53.9264297  39.7545256  34.3265253  53.4484068  38.9207911  35.4962524
  51.4519129  41.7382399  31.6185085  50.5430348  41.4541432  31.7157555
  51.4814212  42.1581478  30.7588392  56.6838396  45.3488989  35.3876253
  56.2300723  44.5079899  35.4441443  56.0532363  45.9850387  35.7251033
  55.6271315  36.2780975  36.6176920  54.8894072  35.7658361  36.9487163
  55.8798089  35.8381356  35.8060197  55.1271335  47.1865486  36.3226071
  55.4194310  47.7470543  35.6038437  55.6369956  47.4794047  37.0779230
  55.7282943  29.0557227  37.2118690  56.0341820  28.1954590  36.9244605
  56.4535548  29.6474847  37.0117683  42.0207299  39.4587913  35.6000287
  41.8231699  38.8657274  34.8751354  41.4653963  39.1540124  36.3176226
  50.0004023  39.3511020  37.7194881  50.0552632  38.3984856  37.6437357
  49.1895225  39.5070459  38.2036179  51.1495216  43.2791143  28.9573164
  50.7114646  42.5627002  28.4978801  51.8905657  43.5067258  28.3958255
  47.9396382  37.9688080  35.4785259  47.1264248  38.2682250  35.8850452
  48.4355377  37.5743768  36.1959742  50.0904960  47.9645837  37.4119524
  50.0481139  48.1906683  36.4828056  51.0067659  47.7309211  37.5605325
  53.5370594  38.4329904  44.3100153  53.8919982  38.6601377  45.1694619
  54.1842725  38.7648281  43.6877409  59.2668331  41.5548340  35.0149482
  59.1286230  41.7449936  34.0870672  58.9104550  42.3167723  35.4717533
  47.4310457  35.5406435  41.0946494  48.0709837  35.3995194  40.3969458
  46.5987988  35.2540949  40.7185096  59.2937711  43.6224867  40.0260754
  59.7274217  43.5300156  40.8743808  60.0069291  43.5982367  39.3880770
  48.2070761  44.8408866  37.2081487  49.0011360  44.3459186  37.0064062
  47.4962454  44.3126729  36.8449192  53.0265606  47.2226961  41.5593854
  53.0802628  47.7917897  42.3271570  52.1580387  47.3928846  41.1947892
  44.5153525  38.9851947  33.2841240  43.5851113  38.9236403  33.5011202
  44.6110997  38.4627900  32.4877881  44.4339074  35.5106760  35.8719481
  44.6945891  36.4252093  35.7628642  45.2556246  35.0431203  36.0216094
  45.9063999  36.9244517  43.0418306  46.5787052  36.7161879  42.3930955
  45.0793786  36.7266603  42.6023538  60.1553260  43.6648568  42.5593639
  60.3489150  44.5694378  42.8052914  60.0553878  43.2055987  43.3932224
  51.8089571  33.5506458  45.0583967  51.1617486  34.2496408  44.9648443
  52.5790586  33.9842602  45.4260215  55.2168369  43.8155310  48.1334520
  55.0653875  43.5865862  47.2164604  55.2073048  44.7725912  48.1465865
  51.9853705  41.3887223  43.1180786  52.9145765  41.5398383  42.9449754
  51.5644735  41.4771244  42.2629433  50.7842037  45.4137888  40.8879324
  50.6453123  45.0456672  41.7605262  49.9956633  45.9285527  40.7163282
  51.3790189  50.5146984  32.2304860  51.5541945  50.0435027  33.0450483
  50.6922977  51.1412750  32.4586121  52.3347252  44.7919490  38.2768162
  51.9997085  44.7520260  39.1725812  51.8351198  44.1264206  37.8038572
  46.3091496  40.1987120  43.8020743  46.1711294  39.4667359  44.4032282
  47.2196420  40.1096020  43.5204931  55.2706444  42.1375525  28.5505221
  54.6535615  41.4122353  28.4538274  54.8022932  42.8984885  28.2072296
  48.9373797  39.9107080  43.2904423  49.6473415  39.2700272  43.2491041
  48.8943105  40.1619974  44.2130603  56.9260576  46.8474433  46.2111002
  56.8673122  46.1633653  45.5441585  57.3280094  47.5893423  45.7591628
  47.6502731  36.8972298  45.1100062  47.1140088  36.4463036  45.7621658
  47.0619439  37.0318206  44.3670526  45.9451274  53.6636347  39.0044721
  46.1847873  54.2954871  39.6823739  45.1020471  53.3124387  39.2910080
  47.0604990  36.3560949  27.6726526  46.1834456  36.2349750  27.3088772
  47.5362743  35.5647027  27.4205414  56.9277983  44.8114017  44.4424981
  56.0404762  44.4739939  44.5651380  57.4976534  44.0797048  44.6793747
  38.5807130  41.1438109  37.7668033  39.2678170  40.8299839  37.1789048
  38.4255259  42.0479473  37.4935284  43.3841852  36.0328305  42.1953057
  43.3000041  35.4253975  41.4603466  42.5624559  36.5237324  42.1962553
  50.4579136  49.4715469  41.4086225  50.3849308  50.2770441  41.9205529
  50.0156529  49.6707435  40.5834246  50.2468916  48.7087239  34.9189046
  49.4636438  49.2508919  35.0127271  50.9461661  49.2261219  35.3183287
  53.5565566  34.5181869  37.5623252  54.0534266  33.7651831  37.2424322
  52.7852547  34.5546185  36.9966461  61.4095323  40.2222234  39.2041543
  61.3985200  41.1046950  38.8335476  60.5412703  39.8693785  39.0096080
  52.9177820  49.3702303  43.5644383  53.6305792  50.0049768  43.4920285
  52.4267848  49.4666169  42.7484385  54.6395347  43.2753556  35.1361675
  53.7051625  43.3955018  34.9666379  54.8172015  42.3726023  34.8721685
  50.1400535  36.6599252  37.2894936  49.7698322  36.1070292  37.9775842
  50.6359627  36.0557385  36.7369936  58.0267898  39.1170875  35.6711709
  58.4928350  39.9498867  35.5972012  58.4775399  38.6515857  36.3756968
  47.9689733  47.1196747  44.3849954  48.6699193  47.7533230  44.5379348
  47.4984848  47.4611478  43.6245593  56.0944129  45.4614697  32.6697861
  56.3703973  45.3471291  33.5791735  55.2248628  45.0632181  32.6310034
  55.9984561  31.4851462  39.7102610  55.0847641  31.7155689  39.8784817
  56.4277662  31.5689906  40.5616643  55.7691019  39.6741354  42.2102504
  55.1162470  39.9217262  41.5554957  56.1471399  38.8605492  41.8764982
  52.7298193  49.7101047  36.3130675  52.9120588  48.8922703  36.7758427
  53.5531179  49.9268740  35.8755565  53.0640359  48.6369233  33.5745723
  53.5928125  48.1261687  32.9615885  53.3268578  48.3211763  34.4391256
  51.8178592  40.4161165  48.6968542  51.1419229  40.3155295  49.3670917
  52.6406226  40.2600379  49.1604539  43.5657451  46.6533102  41.3181057
  44.1510888  45.9076790  41.4508961  43.3682290  46.9637059  42.2017721
  46.4196107  49.6884349  36.3343499  45.7506482  50.1730477  35.8507539
  46.2808976  49.9353570  37.2486878  38.1575106  39.2238702  40.0385500
  38.1959206  38.6902293  40.8322618  37.6515399  38.6973908  39.4196477
  50.5601375  51.7228093  42.9326158  51.1119683  51.8859714  43.6975243
  50.9007569  52.3132531  42.2606182  45.5365868  34.0703243  43.5348042
  45.6007195  34.9318073  43.1225440  45.4732989  33.4577244  42.8020401
  45.0118141  36.1426375  47.1821077  45.6390180  35.7603452  47.7958601
  44.1546060  35.9240577  47.5476769  55.4112250  46.5489350  48.7874812
  55.9552153  47.1619309  48.2929767  54.8299094  47.1068929  49.3041825
  41.7883684  37.9502804  33.1139431  42.0837125  37.0413483  33.0606485
  40.8871719  37.9290544  32.7920434  53.6969762  49.6710068  39.9189840
  53.5720902  48.8699808  39.4100785  54.3548854  50.1656262  39.4303810
  45.3177931  36.0258801  39.0966980  44.5964516  36.6394768  38.9574453
  46.1071186  36.5616566  39.0183626  55.7604671  47.4719088  41.5469390
  54.8135006  47.3524440  41.4747717  56.1087444  46.5841586  41.6295651
  48.1204244  33.3613227  45.3707632  48.6438646  33.6075524  46.1333941
  47.9016577  34.1933262  44.9510769  43.5171525  35.6316902  33.2378756
  43.1884231  34.7514281  33.0553862  43.8710896  35.5764571  34.1255146
  52.7651104  47.2671805  37.7473742  52.6176067  46.3388512  37.9281312
  53.5904598  47.2891895  37.2630817  46.6313348  35.9189872  33.6054234
  46.9709421  36.4475793  32.8832843  47.0785469  36.2570278  34.3812801
  56.3685226  48.0900363  38.8338615  57.2931773  47.8843225  38.6963066
  56.2000529  47.8416764  39.7427956  49.3256789  34.3026922  43.0557302
  48.9853610  33.5034735  43.4577982  48.6195796  34.6028633  42.4834135
  49.9773261  31.3876235  41.5084625  50.7999330  30.9136713  41.3863516
  50.2211325  32.1666719  42.0083312  48.6181496  34.4164493  31.8047527
  49.3389858  34.7945746  31.3011244  47.9946800  35.1353370  31.9082505
  52.7612618  35.1209642  32.7405859  52.9776233  36.0034280  32.4394687
  52.2806686  34.7295856  32.0111501  47.5011840  38.0795355  39.3176604
  47.3556421  38.3935658  40.2100885  47.0237043  38.6980256  38.7647502
  49.3608223  35.0697903  39.3657493  49.3469791  34.1738997  39.0289791
  50.0780651  35.0768567  39.9995779  51.2134353  35.5035244  41.4110621
  50.9552131  36.4252314  41.4094951  50.6819394  35.1065678  42.1011085
  56.1580542  48.6086031  34.1900706  56.3317420  48.0432453  33.4374559
  56.6509433  49.4086926  34.0080196  41.9757502  40.6200700  42.2564265
  41.4310970  41.3960508  42.3884539  42.8536852  40.9671504  42.0983386
  48.7645119  33.9512284  34.6345064  48.8861030  33.0228930  34.8335951
  48.4747161  33.9650970  33.7223379  51.6336309  31.6367194  37.7711783
  51.6558006  31.7006527  36.8163763  52.0504368  30.7971703  37.9652290
  62.0119933  41.3722454  35.8091006  62.4551079  40.6229779  35.4110129
  61.1346444  41.3632590  35.4264738  57.1455715  47.9252795  31.2897604
  57.8406619  48.5459488  31.5084919  57.4878865  47.0748146  31.5649982
  42.7623524  39.7470596  45.1494422  42.0205260  39.8953231  45.7359052
  42.4416268  40.0078862  44.2861171  59.0447138  45.3752501  32.8184935
  59.5698462  45.7139773  32.0934255  58.9569490  44.4399516  32.6348070
  50.7067186  49.2886574  44.9474812  51.0154313  49.0435721  45.8197511
  51.5042669  49.4933213  44.4593682  50.7287799  51.4424484  37.1780188
  50.2892789  50.9500863  37.8713045  51.4795916  50.8997452  36.9372264
  43.2080138  47.6336025  37.1804817  44.0338157  47.3339797  36.8003460
  42.8574190  46.8643647  37.6294605  48.1761671  46.9862493  39.2502490
  47.5541680  46.3233198  38.9504718  48.8466538  47.0123625  38.5676138
  41.4088743  45.5522351  38.1393750  40.5720651  45.1244526  37.9577751
  41.3812388  45.7454795  39.0764541  48.2486198  35.4644281  48.8434996
  48.2974354  36.3406404  48.4612766  48.7908712  34.9221674  48.2706639
  58.7341044  46.0085404  48.1236133  57.9436588  45.9909543  47.5840633
  58.4974398  46.5473698  48.8785170  58.8538919  42.8577871  45.4368862
  58.9036924  42.6927878  46.3784385  58.7452842  41.9905130  45.0466743
  47.7375178  45.5366416  32.7260951  47.8863298  46.2201881  32.0727623
  48.5441621  45.5171506  33.2410406  56.1442681  38.8408799  46.7528168
  57.0452544  38.7015264  46.4612166  56.2190656  39.0063254  47.6926346
  50.4785487  36.2175653  45.5981355  49.6088796  36.5109220  45.3263943
  50.7144967  36.8016098  46.3188618  60.3557116  45.2774812  45.6810883
  60.0641924  45.6404793  46.5174344  59.7429247  44.5641820  45.5024215
  61.5552798  42.8427692  38.2013454  62.3899689  43.2817496  38.3651014
  61.6911927  42.3666345  37.3821699  58.6044304  40.4007427  44.1490941
  59.0798426  40.5935073  43.3409793  57.6809869  40.4566613  43.9034325
  45.4927811  41.5631594  33.7322020  45.2473853  40.6593924  33.9302230
  45.6623725  41.5648744  32.7901498  53.1824520  32.4355270  43.1146775
  53.7006464  33.1716297  42.7893264  52.8279653  32.7419264  43.9493534
  44.7623458  37.2959952  31.2308181  44.0692703  37.3704307  30.5748217
  44.5175210  36.5320295  31.7529698  53.4337115  28.8555553  38.6347672
  53.7138868  28.1878742  39.2608098  54.2187722  29.0484649  38.1222336
  51.2370583  48.0314547  30.1972698  50.6644550  48.6504734  29.7443170
  51.8103377  48.5813909  30.7312620  57.3045973  37.2773187  42.3819247
  58.2563396  37.3771285  42.4031471  57.1349423  36.4851455  42.8917331
  55.3260352  34.3628770  42.5678648  54.7310285  34.6433783  41.8725136
  55.0410049  34.8522671  43.3395389  54.4567843  48.3151697  31.3281280
  55.3898516  48.2497259  31.5314156  54.3691056  49.1507964  30.8695813
  57.0855860  47.6317567  28.2885228  57.0069491  47.2977431  29.1820986
  57.9065526  48.1239335  28.2876700  59.7834051  40.4979307  41.4961547
  59.7510371  39.5595307  41.6821230  60.3934674  40.5763343  40.7627371
  51.6217382  39.3675360  27.5388751  52.5676486  39.2381568  27.6077169
  51.2431627  38.6290021  28.0158179  59.9328539  37.2890350  41.5419830
  59.4167588  36.5048807  41.3549759  60.8168488  36.9609067  41.7066349
  57.5939266  31.0331366  37.5015642  57.3964087  30.7246454  38.3858974
  58.2038972  31.7593005  37.6313572  65.6010601  41.5595313  40.6367583
  66.3313989  41.2980602  41.1975287  64.9917546  40.8224035  40.6769651
  63.6825898  39.7003176  41.2342035  62.9559061  39.5659141  40.6258526
  63.2673185  40.0080005  42.0398753  51.5056074  43.4193106  48.9989408
  52.4259084  43.5971705  49.1929454  51.4705657  42.4749151  48.8469107
  49.8060299  37.2925336  27.4743636  48.8991754  36.9958449  27.5506349
  50.0836280  36.9955154  26.6077922  40.7238239  38.6131699  37.9242682
  40.4041024  37.7597008  37.6317056  40.1771667  38.8280278  38.6800650
  44.5018147  41.3294140  41.6412189  44.7204156  42.2611248  41.6600223
  44.9143921  40.9702115  42.4266993  51.4222365  31.8362226  33.6287877
  50.6123093  31.4909311  34.0043123  52.1106781  31.5269769  34.2175489
  53.3512913  30.9140272  35.2512174  53.9043951  31.3335726  35.9102197
  53.5882999  29.9876021  35.2935130  49.3746012  36.9027346  51.0314938
  49.2742739  37.8521703  50.9627029  49.1567554  36.5745585  50.1591008
  48.5759083  34.1512271  27.6155615  49.4378247  34.4767169  27.8751432
  48.7609428  33.3643767  27.1028681  40.5926499  42.2334611  39.8935804
  39.8989971  41.8188564  39.3805758  41.3399490  42.2755147  39.2969223
  56.7291720  33.0240798  34.7590838  56.1490389  33.6825602  34.3768890
  56.4627653  32.2018142  34.3478256  55.1795286  32.4245855  36.9612158
  55.6795065  32.5362390  36.1526477  55.8230894  32.1206908  37.6012967
  49.2377282  40.3324485  49.8479999  48.7544364  41.1324845  50.0543888
  49.3238221  40.3432430  48.8947443  42.5063242  42.1652865  37.7701819
  42.4833930  42.2640552  36.8183702  42.8163878  43.0118015  38.0918985
  45.1650620  44.2229020  41.8848433  46.1193873  44.1912962  41.8178365
  44.9663143  43.7619643  42.6998659  45.7550002  42.7930136  44.4519231
  46.5742891  43.2874214  44.4754068  46.0286809  41.8762104  44.4236798
  55.5116598  35.1840888  33.8147186  54.6242453  35.4690539  33.5967381
  55.9270587  35.0234651  32.9674463  58.8631134  35.2087409  37.5301526
  59.6391524  35.6983861  37.8026142  58.1379268  35.6345463  37.9873395
  61.3003693  35.9215028  38.5875466  61.8948183  35.6810764  37.8768774
  61.3730276  35.2022159  39.2149002  43.5200848  49.7648639  38.9018631
  43.3855316  49.0049040  38.3356629  43.1032911  50.4889539  38.4347420
  54.6559811  44.9485563  27.9095206  55.3595661  45.1535565  28.5252862
  53.9322460  45.5162325  28.1744290  55.4857622  40.6995424  34.0297476
  55.4292823  41.1563975  33.1905109  56.0385964  39.9386109  33.8520319
  59.2962428  36.4885156  34.8547596  59.0399362  36.0881791  35.6855804
  58.6715296  37.2028950  34.7297735  63.6074765  39.2281229  37.3618887
  63.0474323  39.2974418  38.1350449  63.0018269  39.0522214  36.6418384
  46.6769974  50.6617956  39.1137074  46.5602358  51.6063389  39.0115764
  45.8562421  50.3591518  39.5022873  56.5646509  45.3868092  29.9593666
  57.3992113  44.9549290  29.7771141  56.4030852  45.2150106  30.8870561
  56.2192401  41.8900205  31.3250006  56.1641205  41.7244477  30.3838450
  55.5938456  42.5976238  31.4812195  41.0084916  37.1268270  45.1511428
  41.6543780  36.6167224  45.6398653  40.8002067  37.8636951  45.7254853
  53.5338308  44.1949117  50.6503568  54.4029468  44.3689769  50.2890203
  53.0545060  45.0143534  50.5279298  49.5288526  31.3908314  30.9035324
  49.5167196  32.3350154  31.0603595  50.4211948  31.2078460  30.6094785
  47.7024488  51.3146218  42.3293002  48.6051735  51.3469828  42.6459497
  47.4761858  50.3846669  42.3439338  49.4578090  50.0677205  38.9903081
  48.5073721  50.0679066  38.8767453  49.7610577  49.3209939  38.4739115
  53.3440646  27.9851091  35.1581261  52.5773042  27.4309578  35.3037943
  53.7551351  28.0572960  36.0195412  45.3482407  34.2735887  49.2486442
  46.2113869  33.9172692  49.4589767  44.7747818  33.9349781  49.9361846
  65.1930784  55.9037743  40.0548843  65.8309194  55.7844490  39.3512183
  65.0751627  56.8518587  40.1136795  62.0020490  55.8565171  39.9910368
  61.6639002  55.7406236  39.1030903  62.8710258  55.4556336  39.9711374
  57.8607306  57.7100648  35.9807259  57.2972171  57.6190584  35.2123546
  57.7459701  56.8900552  36.4609751  62.4840273  57.0100023  45.9496573
  62.4728914  56.6152821  45.0777077  62.6460913  56.2766095  46.5430345
  55.4071738  59.2051839  38.8191479  56.1993030  58.8642664  38.4037778
  55.6468388  59.3146814  39.7393632  63.4406865  61.3771615  31.2921724
  62.7894844  61.9625696  30.9055737  64.2351227  61.9077810  31.3516761
  57.3662492  58.4660752  31.6908858  58.1393368  57.9189739  31.5521734
  57.7187891  59.3305002  31.9023319  59.2047534  59.7937135  44.8975757
  58.9137400  60.6982765  44.7822424  59.8404519  59.8353662  45.6119827
  60.1303741  57.1713983  41.4877117  60.7267313  56.9470006  40.7734080
  60.1878713  56.4298729  42.0902565  59.7028770  54.6253418  29.3227308
  59.9554290  54.1034940  28.5610771  58.7653329  54.4619564  29.4253991
  64.7472052  53.6289197  37.1302051  65.5335142  53.2108620  36.7792468
  65.0110757  54.5335289  37.2983699  64.9182130  59.0662047  31.8290708
  64.2827963  59.1396674  32.5411613  64.5879536  59.6555646  31.1509787
  70.1480479  53.5664430  38.0335030  70.8805651  52.9963647  38.2672859
  69.3919835  53.1786031  38.4741535  59.4225058  56.5281524  31.5251683
  59.3061316  55.8526428  32.1932767  59.5327318  56.0413898  30.7083836
  61.7656599  55.9891672  35.2298372  61.4014806  55.4622293  35.9411294
  62.6223715  55.5990141  35.0564857  67.6705900  47.2786004  42.4929638
  67.3389225  48.1481415  42.2690853  67.0751513  46.9622288  43.1723669
  61.4062086  51.0181571  30.2259721  61.5736489  51.8861808  30.5930192
  61.2159255  51.1808853  29.3021010  64.1637419  59.4798550  41.8925551
  63.8638142  60.3823589  41.7841358  63.8188479  59.2130733  42.7446704
  57.6149901  55.9312347  37.9262255  56.6900397  55.7988561  38.1339947
  57.8634314  56.7106566  38.4232198  67.5634563  51.9981090  39.5722988
  66.6551440  51.9296499  39.2781749  67.5122159  52.4753035  40.4004814
  61.3851307  53.4739229  31.2106387  61.2650932  53.9196280  32.0491868
  60.6903895  53.8224546  30.6519926  54.9758712  55.5745621  38.7606044
  55.1051093  55.8280099  39.6745456  54.2956163  56.1673329  38.4410699
  59.1458199  66.2442871  34.8596519  59.0682229  67.1950696  34.9384999
  58.5419843  65.8988743  35.5171445  61.6375429  53.4170736  47.5157886
  60.8608763  53.9764656  47.5060750  62.2765992  53.9027519  48.0372756
  69.4296210  50.1997529  41.3500862  68.7870590  50.4930062  40.7040657
  68.9251138  50.0850449  42.1554059  67.0836373  53.9460702  32.0386721
  67.9954229  54.1788089  31.8634419  66.5746020  54.5297746  31.4761800
  59.8921801  56.2256189  47.0775853  60.6336486  56.7641233  46.8010676
  59.1858787  56.8522478  47.2347404  65.3677141  58.3685330  45.6748014
  65.7760497  57.9267740  44.9302646  64.6454402  57.7937957  45.9282207
  61.7208211  53.3057937  43.0481571  62.5669406  53.7297350  43.1916220
  61.6606849  52.6491561  43.7420134  65.6905956  58.9286520  39.4300303
  65.0614818  59.0932235  38.7276371  65.3031618  59.3428130  40.2011267
  69.5695187  59.8640958  36.7844667  68.8846226  60.2439860  36.2341700
  69.6539037  60.4736285  37.5176614  64.8707656  50.9662305  44.7062745
  64.6268588  51.7204365  44.1697020  65.1467587  51.3447652  45.5409992
  66.8246119  57.5100917  43.3840010  67.0363014  58.1532677  42.7074391
  66.7775867  56.6763234  42.9161940  64.4272348  50.1218738  40.2876582
  63.5656827  50.4199991  40.5793320  64.4534783  50.3389137  39.3557615
  61.2433917  58.6660928  36.6950388  61.7072263  58.9448631  35.9055010
  60.9790716  57.7644373  36.5123479  58.1357998  58.2132410  39.6330151
  58.7059356  58.6419678  38.9947636  58.7266110  57.9314995  40.3314337
  60.1802803  54.7884081  33.5039953  60.8826847  55.2405125  33.9713880
  59.8483432  54.1467900  34.1319846  58.6283165  53.3795837  47.8791163
  57.9981826  54.0612118  48.1126559  58.5219253  53.2678919  46.9344301
  53.9228137  53.0467633  38.8057087  53.1327191  53.3025162  38.3297197
  54.4139385  53.8615971  38.9109127  67.9391947  60.3872873  41.5562368
  68.7609391  59.9853060  41.2745049  67.9354350  60.2841107  42.5078483
  55.8742883  53.4112213  35.7640563  55.0774046  53.5230907  36.2824059
  55.6468475  53.7498865  34.8981454  61.7048550  59.9356916  43.7123078
  61.7692983  60.3977323  44.5481250  60.9959474  59.3054281  43.8405388
  52.2065840  53.2998124  41.2372077  52.4573879  54.1845134  41.5029653
  52.7425389  53.1202725  40.4647169  76.0297940  56.7311621  37.9047339
  75.2761648  56.1619019  37.7491343  76.1645481  56.6974286  38.8517974
  61.4196568  61.6025023  33.5802058  61.2842243  62.4476559  34.0086906
  61.9606381  61.8044301  32.8167992  57.9063908  47.6816603  50.2416414
  57.5130853  47.1282802  50.9164058  58.7230048  47.9927182  50.6322931
  54.8725965  59.1200461  34.1529983  55.3850486  59.9143712  34.3035548
  55.5248678  58.4226752  34.0863585  56.6820850  62.2366218  36.2352737
  56.8587479  63.1584182  36.0473721  57.4777684  61.9224637  36.6647116
  60.8231869  49.0974482  47.8336670  61.5641582  49.6981636  47.7541133
  61.0549792  48.3552120  47.2754713  55.9673207  54.2830850  46.1114900
  55.8526722  53.3816107  46.4121999  55.1117724  54.5294546  45.7599716
  63.0465044  62.2248590  47.7102400  62.6028899  61.4384969  47.3923305
  63.7082258  62.4127740  47.0446291  57.8052166  63.7544392  42.2363079
  58.3559591  63.6261455  41.4640073  56.9663642  64.0539281  41.8857972
  65.1446283  62.5051390  45.7383802  65.1264758  63.3260271  45.2464071
  66.0666203  62.3805465  45.9633943  61.6019337  60.0195519  46.5807310
  62.1347673  59.2583808  46.3506618  61.0733418  59.7269171  47.3231465
  64.7689032  45.1255585  42.1100952  64.4253301  46.0157227  42.0340062
  65.1367994  44.9357243  41.2470537  52.8374882  57.4489116  34.9289554
  53.6750104  57.8586124  34.7123262  53.0153150  56.5088558  34.8989748
  64.7339314  55.1164196  30.6173387  64.2185938  55.8868801  30.8561774
  64.4616623  54.4429333  31.2406448  62.3186425  49.9613897  35.6758625
  61.4628022  49.5720748  35.4964264  62.7313377  50.0405858  34.8158411
  63.8485572  47.4960240  40.0750185  63.3450368  47.4590376  39.2617990
  64.1416179  48.4052983  40.1346842  60.0928458  47.5798970  39.0816367
  60.9581455  47.3841779  38.7222256  60.1605967  47.3509322  40.0085724
  69.7073589  57.8696551  32.5526560  68.9303031  57.5307711  32.1081722
  70.3865069  57.8749174  31.8781525  64.5225618  52.9891289  32.4433168
  64.2175753  53.3037438  33.2943311  65.4756060  53.0672708  32.4860501
  62.9672049  59.1481512  34.0926122  62.4393411  58.4134271  33.7799360
  62.4659552  59.9256188  33.8466090  67.9464895  57.3430532  39.2093168
  67.2888570  58.0329794  39.2973297  68.7505295  57.7326964  39.5527155
  57.6990777  49.8101178  36.4532734  58.2734529  49.5876360  35.7205927
  58.2861759  49.8789873  37.2061335  66.7570354  55.6974905  37.2597110
  67.2702236  56.3304897  37.7618820  67.4071578  55.0976101  36.8940470
  58.0260364  51.8405639  30.4728619  57.1897676  52.1780326  30.7937894
  57.8865134  51.7054619  29.5355756  60.0013445  46.6842427  35.1807803
  59.3477857  46.3691444  34.5564418  59.9593919  46.0618168  35.9067626
  61.1124650  56.9661722  27.0961095  60.2051711  56.7350976  27.2952244
  61.6095682  56.1699341  27.2835077  64.0192728  65.6759229  30.0157781
  63.3454427  65.9790926  30.6242739  64.4058550  66.4788310  29.6663238
  63.2351185  53.1724361  39.5055451  62.3173746  53.3939308  39.3477139
  63.6511329  53.2470671  38.6467158  64.0186233  54.5715776  34.6358131
  64.7658052  55.0837173  34.3265253  64.2877822  54.2499829  35.4962524
  62.2912883  57.0674317  31.6185085  61.3824102  56.7833350  31.7157555
  62.3207967  57.4873396  30.7588392  67.5232150  60.6780906  35.3876253
  67.0694478  59.8371816  35.4441443  66.8926117  61.3142305  35.7251033
  66.4665070  51.6072893  36.6176920  65.7287827  51.0950279  36.9487163
  66.7191844  51.1673274  35.8060197  65.9665090  62.5157403  36.3226071
  66.2588064  63.0762460  35.6038437  66.4763710  62.8085964  37.0779230
  66.5676697  44.3849145  37.2118690  66.8735574  43.5246508  36.9244605
  67.2929302  44.9766765  37.0117683  52.8601053  54.7879831  35.6000287
  52.6625453  54.1949192  34.8751354  52.3047717  54.4832041  36.3176226
  60.8397777  54.6802938  37.7194881  60.8946387  53.7276774  37.6437357
  60.0288979  54.8362377  38.2036179  61.9888971  58.6083061  28.9573164
  61.5508401  57.8918920  28.4978801  62.7299412  58.8359175  28.3958255
  58.7790137  53.2979997  35.4785259  57.9658003  53.5974168  35.8850452
  59.2749131  52.9035686  36.1959742  60.9298715  63.2937754  37.4119524
  60.8874894  63.5198601  36.4828056  61.8461414  63.0601129  37.5605325
  64.3764349  53.7621822  44.3100153  64.7313736  53.9893295  45.1694619
  65.0236480  54.0940199  43.6877409  70.1062086  56.8840258  35.0149482
  69.9679984  57.0741854  34.0870672  69.7498304  57.6459641  35.4717533
  58.2704212  50.8698353  41.0946494  58.9103591  50.7287112  40.3969458
  57.4381742  50.5832866  40.7185096  70.1331465  58.9516785  40.0260754
  70.5667972  58.8592074  40.8743808  70.8463046  58.9274285  39.3880770
  59.0464516  60.1700783  37.2081487  59.8405114  59.6751103  37.0064062
  58.3356208  59.6418646  36.8449192  63.8659360  62.5518879  41.5593854
  63.9196382  63.1209815  42.3271570  62.9974141  62.7220764  41.1947892
  55.3547279  54.3143865  33.2841240  54.4244867  54.2528321  33.5011202
  55.4504751  53.7919818  32.4877881  55.2732828  50.8398678  35.8719481
  55.5339645  51.7544011  35.7628642  56.0950000  50.3723120  36.0216094
  56.7457753  52.2536435  43.0418306  57.4180807  52.0453797  42.3930955
  55.9187540  52.0558521  42.6023538  70.9947015  58.9940485  42.5593639
  71.1882905  59.8986296  42.8052914  70.8947633  58.5347904  43.3932224
  62.6483325  48.8798376  45.0583967  62.0011241  49.5788326  44.9648443
  63.4184341  49.3134520  45.4260215  66.0562123  59.1447228  48.1334520
  65.9047630  58.9157780  47.2164604  66.0466803  60.1017830  48.1465865
  62.8247460  56.7179141  43.1180786  63.7539520  56.8690300  42.9449754
  62.4038490  56.8063162  42.2629433  61.6235792  60.7429805  40.8879324
  61.4846877  60.3748590  41.7605262  60.8350388  61.2577445  40.7163282
  62.2183944  65.8438902  32.2304860  62.3935699  65.3726945  33.0450483
  61.5316732  66.4704668  32.4586121  63.1741007  60.1211408  38.2768162
  62.8390839  60.0812178  39.1725812  62.6744952  59.4556124  37.8038572
  57.1485251  55.5279038  43.8020743  57.0105049  54.7959277  44.4032282
  58.0590174  55.4387938  43.5204931  66.1100198  57.4667442  28.5505221
  65.4929369  56.7414270  28.4538274  65.6416687  58.2276803  28.2072296
  59.7767551  55.2398997  43.2904423  60.4867170  54.5992190  43.2491041
  59.7336860  55.4911892  44.2130603  67.7654330  62.1766351  46.2111002
  67.7066876  61.4925571  45.5441585  68.1673848  62.9185341  45.7591628
  58.4896485  52.2264215  45.1100062  57.9533842  51.7754954  45.7621658
  57.9013194  52.3610124  44.3670526  56.7845029  68.9928265  39.0044721
  57.0241627  69.6246789  39.6823739  55.9414225  68.6416305  39.2910080
  57.8998744  51.6852867  27.6726526  57.0228211  51.5641667  27.3088772
  58.3756497  50.8938945  27.4205414  67.7671737  60.1405935  44.4424981
  66.8798516  59.8031856  44.5651380  68.3370288  59.4088966  44.6793747
  49.4200884  56.4730026  37.7668033  50.1071924  56.1591756  37.1789048
  49.2649013  57.3771391  37.4935284  54.2235607  51.3620223  42.1953057
  54.1393795  50.7545892  41.4603466  53.4018313  51.8529241  42.1962553
  61.2972891  64.8007387  41.4086225  61.2243062  65.6062358  41.9205529
  60.8550284  64.9999353  40.5834246  61.0862670  64.0379157  34.9189046
  60.3030192  64.5800837  35.0127271  61.7855416  64.5553137  35.3183287
  64.3959320  49.8473786  37.5623252  64.8928020  49.0943749  37.2424322
  63.6246302  49.8838103  36.9966461  72.2489078  55.5514152  39.2041543
  72.2378954  56.4338867  38.8335476  71.3806457  55.1985703  39.0096080
  63.7571574  64.6994221  43.5644383  64.4699546  65.3341686  43.4920285
  63.2661603  64.7958087  42.7484385  65.4789101  58.6045474  35.1361675
  64.5445380  58.7246936  34.9666379  65.6565770  57.7017940  34.8721685
  60.9794289  51.9891169  37.2894936  60.6092077  51.4362210  37.9775842
  61.4753382  51.3849303  36.7369936  68.8661653  54.4462793  35.6711709
  69.3322105  55.2790785  35.5972012  69.3169153  53.9807775  36.3756968
  58.8083488  62.4488664  44.3849954  59.5092947  63.0825147  44.5379348
  58.3378603  62.7903396  43.6245593  66.9337884  60.7906614  32.6697861
  67.2097728  60.6763209  33.5791735  66.0642382  60.3924099  32.6310034
  66.8378315  46.8143380  39.7102610  65.9241395  47.0447607  39.8784817
  67.2671417  46.8981824  40.5616643  66.6084774  55.0033272  42.2102504
  65.9556224  55.2509179  41.5554957  66.9865154  54.1897410  41.8764982
  63.5691948  65.0392965  36.3130675  63.7514342  64.2214621  36.7758427
  64.3924934  65.2560657  35.8755565  63.9034113  63.9661150  33.5745723
  64.4321880  63.4553605  32.9615885  64.1662333  63.6503680  34.4391256
  62.6572347  55.7453083  48.6968542  61.9812984  55.6447212  49.3670917
  63.4799981  55.5892297  49.1604539  54.4051206  61.9825019  41.3181057
  54.9904643  61.2368707  41.4508961  54.2076044  62.2928976  42.2017721
  57.2589861  65.0176267  36.3343499  56.5900236  65.5022395  35.8507539
  57.1202731  65.2645487  37.2486878  48.9968861  54.5530620  40.0385500
  49.0352960  54.0194210  40.8322618  48.4909153  54.0265825  39.4196477
  61.3995130  67.0520010  42.9326158  61.9513438  67.2151632  43.6975243
  61.7401323  67.6424448  42.2606182  56.3759623  49.3995160  43.5348042
  56.4400949  50.2609991  43.1225440  56.3126743  48.7869162  42.8020401
  55.8511895  51.4718293  47.1821077  56.4783934  51.0895370  47.7958601
  54.9939814  51.2532495  47.5476769  66.2506004  61.8781268  48.7874812
  66.7945908  62.4911226  48.2929767  65.6692849  62.4360846  49.3041825
  52.6277438  53.2794722  33.1139431  52.9230879  52.3705400  33.0606485
  51.7265474  53.2582461  32.7920434  64.5363517  65.0001986  39.9189840
  64.4114656  64.1991726  39.4100785  65.1942608  65.4948179  39.4303810
  56.1571685  51.3550718  39.0966980  55.4358271  51.9686686  38.9574453
  56.9464941  51.8908483  39.0183626  66.5998425  62.8011006  41.5469390
  65.6528761  62.6816357  41.4747717  66.9481198  61.9133504  41.6295651
  58.9597999  48.6905145  45.3707632  59.4832401  48.9367441  46.1333941
  58.7410332  49.5225180  44.9510769  54.3565280  50.9608820  33.2378756
  54.0277986  50.0806198  33.0553862  54.7104650  50.9056488  34.1255146
  63.6044859  62.5963722  37.7473742  63.4569821  61.6680430  37.9281312
  64.4298352  62.6183813  37.2630817  57.4707103  51.2481789  33.6054234
  57.8103175  51.7767711  32.8832843  57.9179223  51.5862195  34.3812801
  67.2078980  63.4192281  38.8338615  68.1325528  63.2135142  38.6963066
  67.0394284  63.1708682  39.7427956  60.1650544  49.6318840  43.0557302
  59.8247364  48.8326653  43.4577982  59.4589550  49.9320551  42.4834135
  60.8167016  46.7168152  41.5084625  61.6393085  46.2428631  41.3863516
  61.0605079  47.4958636  42.0083312  59.4575250  49.7456411  31.8047527
  60.1783613  50.1237664  31.3011244  58.8340554  50.4645288  31.9082505
  63.6006373  50.4501560  32.7405859  63.8169987  51.3326198  32.4394687
  63.1200440  50.0587773  32.0111501  58.3405594  53.4087273  39.3176604
  58.1950175  53.7227576  40.2100885  57.8630798  54.0272173  38.7647502
  60.2001977  50.3989821  39.3657493  60.1863546  49.5030914  39.0289791
  60.9174405  50.4060485  39.9995779  62.0528108  50.8327161  41.4110621
  61.7945886  51.7544232  41.4094951  61.5213148  50.4357596  42.1011085
  66.9974297  63.9377948  34.1900706  67.1711174  63.3724371  33.4374559
  67.4903188  64.7378843  34.0080196  52.8151256  55.9492617  42.2564265
  52.2704725  56.7252425  42.3884539  53.6930606  56.2963422  42.0983386
  59.6038873  49.2804201  34.6345064  59.7254784  48.3520848  34.8335951
  59.3140916  49.2942887  33.7223379  62.4730064  46.9659112  37.7711783
  62.4951760  47.0298445  36.8163763  62.8898123  46.1263620  37.9652290
  72.8513688  56.7014371  35.8091006  73.2944834  55.9521697  35.4110129
  71.9740198  56.6924508  35.4264738  67.9849469  63.2544713  31.2897604
  68.6800374  63.8751405  31.5084919  68.3272619  62.4040064  31.5649982
  53.6017278  55.0762514  45.1494422  52.8599014  55.2245149  45.7359052
  53.2810023  55.3370779  44.2861171  69.8840892  60.7044418  32.8184935
  70.4092216  61.0431691  32.0934255  69.7963245  59.7691434  32.6348070
  61.5460941  64.6178492  44.9474812  61.8548067  64.3727639  45.8197511
  62.3436423  64.8225130  44.4593682  61.5681553  66.7716402  37.1780188
  61.1286543  66.2792780  37.8713045  62.3189670  66.2289369  36.9372264
  54.0473892  62.9627942  37.1804817  54.8731912  62.6631714  36.8003460
  53.6967944  62.1935565  37.6294605  59.0155425  62.3154411  39.2502490
  58.3935434  61.6525116  38.9504718  59.6860292  62.3415543  38.5676138
  52.2482497  60.8814269  38.1393750  51.4114405  60.4536443  37.9577751
  52.2206142  61.0746712  39.0764541  59.0879953  50.7936199  48.8434996
  59.1368108  51.6698322  48.4612766  59.6302467  50.2513592  48.2706639
  69.5734798  61.3377322  48.1236133  68.7830342  61.3201461  47.5840633
  69.3368153  61.8765616  48.8785170  69.6932673  58.1869788  45.4368862
  69.7430678  58.0219796  46.3784385  69.5846597  57.3197047  45.0466743
  58.5768932  60.8658334  32.7260951  58.7257052  61.5493798  32.0727623
  59.3835376  60.8463424  33.2410406  66.9836436  54.1700716  46.7528168
  67.8846299  54.0307181  46.4612166  67.0584410  54.3355171  47.6926346
  61.3179241  51.5467571  45.5981355  60.4482551  51.8401137  45.3263943
  61.5538721  52.1308016  46.3188618  71.1950870  60.6066730  45.6810883
  70.9035679  60.9696710  46.5174344  70.5823002  59.8933738  45.5024215
  72.3946553  58.1719610  38.2013454  73.2293444  58.6109414  38.3651014
  72.5305681  57.6958263  37.3821699  69.4438058  55.7299344  44.1490941
  69.9192180  55.9226991  43.3409793  68.5203624  55.7858530  43.9034325
  56.3321565  56.8923512  33.7322020  56.0867607  55.9885842  33.9302230
  56.5017480  56.8940662  32.7901498  64.0218275  47.7647188  43.1146775
  64.5400219  48.5008215  42.7893264  63.6673408  48.0711181  43.9493534
  55.6017213  52.6251869  31.2308181  54.9086458  52.6996224  30.5748217
  55.3568965  51.8612213  31.7529698  64.2730869  44.1847471  38.6347672
  64.5532623  43.5170660  39.2608098  65.0581476  44.3776566  38.1222336
  62.0764338  63.3606464  30.1972698  61.5038305  63.9796652  29.7443170
  62.6497131  63.9105826  30.7312620  68.1439727  52.6065105  42.3819247
  69.0957150  52.7063202  42.4031471  67.9743178  51.8143373  42.8917331
  66.1654107  49.6920688  42.5678648  65.5704039  49.9725701  41.8725136
  65.8803804  50.1814589  43.3395389  65.2961597  63.6443615  31.3281280
  66.2292271  63.5789176  31.5314156  65.2084810  64.4799881  30.8695813
  67.9249614  62.9609485  28.2885228  67.8463246  62.6269349  29.1820986
  68.7459281  63.4531253  28.2876700  70.6227805  55.8271224  41.4961547
  70.5904125  54.8887225  41.6821230  71.2328429  55.9055261  40.7627371
  62.4611136  54.6967277  27.5388751  63.4070241  54.5673485  27.6077169
  62.0825381  53.9581939  28.0158179  70.7722294  52.6182268  41.5419830
  70.2561342  51.8340724  41.3549759  71.6562242  52.2900984  41.7066349
  68.4333021  46.3623283  37.5015642  68.2357842  46.0538371  38.3858974
  69.0432726  47.0884922  37.6313572  76.4404355  56.8887231  40.6367583
  77.1707744  56.6272519  41.1975287  75.8311301  56.1515953  40.6769651
  74.5219652  55.0295094  41.2342035  73.7952816  54.8951059  40.6258526
  74.1066939  55.3371922  42.0398753  62.3449829  58.7485023  48.9989408
  63.2652838  58.9263622  49.1929454  62.3099412  57.8041069  48.8469107
  60.6454053  52.6217254  27.4743636  59.7385509  52.3250366  27.5506349
  60.9230034  52.3247072  26.6077922  51.5631994  53.9423617  37.9242682
  51.2434778  53.0888925  37.6317056  51.0165422  54.1572195  38.6800650
  55.3411901  56.6586058  41.6412189  55.5597911  57.5903166  41.6600223
  55.7537675  56.2994032  42.4266993  62.2616119  47.1654143  33.6287877
  61.4516847  46.8201228  34.0043123  62.9500536  46.8561687  34.2175489
  64.1906667  46.2432190  35.2512174  64.7437706  46.6627644  35.9102197
  64.4276754  45.3167938  35.2935130  60.2139767  52.2319264  51.0314938
  60.1136493  53.1813621  50.9627029  59.9961309  51.9037503  50.1591008
  59.4152838  49.4804189  27.6155615  60.2772002  49.8059087  27.8751432
  59.6003182  48.6935685  27.1028681  51.4320254  57.5626529  39.8935804
  50.7383725  57.1480481  39.3805758  52.1793245  57.6047065  39.2969223
  67.5685474  48.3532715  34.7590838  66.9884143  49.0117519  34.3768890
  67.3021407  47.5310060  34.3478256  66.0189041  47.7537773  36.9612158
  66.5188819  47.8654308  36.1526477  66.6624649  47.4498826  37.6012967
  60.0771037  55.6616403  49.8479999  59.5938118  56.4616763  50.0543888
  60.1631976  55.6724348  48.8947443  53.3456996  57.4944782  37.7701819
  53.3227684  57.5932470  36.8183702  53.6557633  58.3409933  38.0918985
  56.0044374  59.5520937  41.8848433  56.9587628  59.5204880  41.8178365
  55.8056898  59.0911561  42.6998659  56.5943756  58.1222053  44.4519231
  57.4136645  58.6166132  44.4754068  56.8680564  57.2054022  44.4236798
  66.3510352  50.5132806  33.8147186  65.4636207  50.7982456  33.5967381
  66.7664341  50.3526569  32.9674463  69.7024889  50.5379327  37.5301526
  70.4785279  51.0275779  37.8026142  68.9773023  50.9637381  37.9873395
  72.1397447  51.2506946  38.5875466  72.7341938  51.0102682  37.8768774
  72.2124031  50.5314076  39.2149002  54.3594603  65.0940557  38.9018631
  54.2249071  64.3340958  38.3356629  53.9426665  65.8181457  38.4347420
  65.4953566  60.2777480  27.9095206  66.1989416  60.4827483  28.5252862
  64.7716215  60.8454242  28.1744290  66.3251376  56.0287342  34.0297476
  66.2686578  56.4855893  33.1905109  66.8779719  55.2678026  33.8520319
  70.1356182  51.8177073  34.8547596  69.8793116  51.4173709  35.6855804
  69.5109050  52.5320867  34.7297735  74.4468520  54.5573147  37.3618887
  73.8868078  54.6266336  38.1350449  73.8412023  54.3814131  36.6418384
  57.5163729  65.9909874  39.1137074  57.3996113  66.9355306  39.0115764
  56.6956175  65.6883435  39.5022873  67.4040263  60.7160010  29.9593666
  68.2385867  60.2841208  29.7771141  67.2424606  60.5442023  30.8870561
  67.0586155  57.2192123  31.3250006  67.0034959  57.0536394  30.3838450
  66.4332211  57.9268156  31.4812195  51.8478670  52.4560187  45.1511428
  52.4937534  51.9459141  45.6398653  51.6395822  53.1928869  45.7254853
  64.3732063  59.5241035  50.6503568  65.2423222  59.6981687  50.2890203
  63.8938814  60.3435452  50.5279298  60.3682281  46.7200232  30.9035324
  60.3560951  47.6642072  31.0603595  61.2605703  46.5370377  30.6094785
  58.5418243  66.6438136  42.3293002  59.4445490  66.6761746  42.6459497
  58.3155613  65.7138587  42.3439338  60.2971845  65.3969122  38.9903081
  59.3467476  65.3970984  38.8767453  60.6004331  64.6501857  38.4739115
  64.1834400  43.3143009  35.1581261  63.4166796  42.7601495  35.3037943
  64.5945105  43.3864877  36.0195412  56.1876161  49.6027804  49.2486442
  57.0507623  49.2464609  49.4589767  55.6141572  49.2641699  49.9361846
  72.8414245  71.1857089  39.9910368  72.5032756  71.0698153  39.1030903
  73.7104013  70.7848254  39.9711374  68.7001060  73.0392565  35.9807259
  68.1365925  72.9482502  35.2123546  68.5853455  72.2192470  36.4609751
  66.2465492  74.5343757  38.8191479  67.0386784  74.1934581  38.4037778
  66.4862142  74.6438732  39.7393632  74.2800619  76.7063533  31.2921724
  73.6288599  77.2917613  30.9055737  75.0744982  77.2369728  31.3516761
  68.2056246  73.7952670  31.6908858  68.9787122  73.2481657  31.5521734
  68.5581645  74.6596919  31.9023319  70.9697496  72.5005901  41.4877117
  71.5661068  72.2761923  40.7734080  71.0272467  71.7590646  42.0902565
  70.5422524  69.9545336  29.3227308  70.7948045  69.4326857  28.5610771
  69.6047083  69.7911482  29.4253991  75.5865807  68.9581115  37.1302051
  76.3728896  68.5400538  36.7792468  75.8504511  69.8627207  37.2983699
  75.7575884  74.3953965  31.8290708  75.1221717  74.4688591  32.5411613
  75.4273291  74.9847564  31.1509787  80.9874234  68.8956348  38.0335030
  81.7199406  68.3255565  38.2672859  80.2313590  68.5077948  38.4741535
  70.2618813  71.8573442  31.5251683  70.1455071  71.1818346  32.1932767
  70.3721073  71.3705816  30.7083836  72.6050354  71.3183589  35.2298372
  72.2408561  70.7914210  35.9411294  73.4617470  70.9282058  35.0564857
  78.5099654  62.6077922  42.4929638  78.1782979  63.4773333  42.2690853
  77.9145268  62.2914206  43.1723669  72.2455841  66.3473489  30.2259721
  72.4130243  67.2153725  30.5930192  72.0553010  66.5100771  29.3021010
  68.4543655  71.2604265  37.9262255  67.5294152  71.1280479  38.1339947
  68.7028069  72.0398484  38.4232198  78.4028318  67.3273008  39.5722988
  77.4945195  67.2588416  39.2781749  78.3515913  67.8044953  40.4004814
  72.2245062  68.8031146  31.2106387  72.1044687  69.2488197  32.0491868
  71.5297650  69.1516464  30.6519926  65.8152466  70.9037538  38.7606044
  65.9444848  71.1572017  39.6745456  65.1349918  71.4965246  38.4410699
  69.9851954  81.5734788  34.8596519  69.9075983  82.5242613  34.9384999
  69.3813597  81.2280661  35.5171445  72.4769183  68.7462654  47.5157886
  71.7002517  69.3056574  47.5060750  73.1159746  69.2319437  48.0372756
  80.2689964  65.5289446  41.3500862  79.6264344  65.8221980  40.7040657
  79.7644893  65.4142367  42.1554059  77.9230128  69.2752620  32.0386721
  78.8347984  69.5080006  31.8634419  77.4139775  69.8589664  31.4761800
  70.7315556  71.5548107  47.0775853  71.4730240  72.0933151  46.8010676
  70.0252541  72.1814396  47.2347404  76.5299710  74.2578438  39.4300303
  75.9008572  74.4224152  38.7276371  76.1425372  74.6720048  40.2011267
  80.4088942  75.1932876  36.7844667  79.7239980  75.5731777  36.2341700
  80.4932791  75.8028203  37.5176614  75.7101411  66.2954223  44.7062745
  75.4662343  67.0496283  44.1697020  75.9861341  66.6739570  45.5409992
  75.2666102  65.4510656  40.2876582  74.4050582  65.7491909  40.5793320
  75.2928537  65.6681054  39.3557615  72.0827672  73.9952846  36.6950388
  72.5466017  74.2740549  35.9055010  71.8184470  73.0936291  36.5123479
  68.9751753  73.5424328  39.6330151  69.5453110  73.9711596  38.9947636
  69.5659865  73.2606912  40.3314337  71.0196558  70.1175999  33.5039953
  71.7220601  70.5697042  33.9713880  70.6877186  69.4759817  34.1319846
  69.4676919  68.7087755  47.8791163  68.8375580  69.3904036  48.1126559
  69.3613007  68.5970837  46.9344301  64.7621892  68.3759551  38.8057087
  63.9720946  68.6317080  38.3297197  65.2533139  69.1907889  38.9109127
  66.7136637  68.7404130  35.7640563  65.9167801  68.8522825  36.2824059
  66.4862229  69.0790783  34.8981454  63.0459595  68.6290042  41.2372077
  63.2967633  69.5137052  41.5029653  63.5819143  68.4494643  40.4647169
  86.8691695  72.0603539  37.9047339  86.1155403  71.4910937  37.7491343
  87.0039236  72.0266203  38.8517974  72.2590323  76.9316941  33.5802058
  72.1235997  77.7768477  34.0086906  72.8000135  77.1336219  32.8167992
  68.7457662  63.0108521  50.2416414  68.3524608  62.4574720  50.9164058
  69.5623803  63.3219099  50.6322931  65.7119720  74.4492379  34.1529983
  66.2244241  75.2435629  34.3035548  66.3642433  73.7518670  34.0863585
  67.5214605  77.5658135  36.2352737  67.6981233  78.4876100  36.0473721
  68.3171438  77.2516555  36.6647116  71.6625623  64.4266400  47.8336670
  72.4035337  65.0273553  47.7541133  71.8943546  63.6844038  47.2754713
  66.8066961  69.6122767  46.1114900  66.6920476  68.7108025  46.4121999
  65.9511479  69.8586464  45.7599716  75.6082786  60.4547503  42.1100952
  75.2647056  61.3449145  42.0340062  75.9761749  60.2649161  41.2470537
  63.6768637  72.7781033  34.9289554  64.5143859  73.1878042  34.7123262
  63.8546904  71.8380476  34.8989748  75.5733069  70.4456114  30.6173387
  75.0579692  71.2160719  30.8561774  75.3010377  69.7721250  31.2406448
  73.1580180  65.2905815  35.6758625  72.3021776  64.9012665  35.4964264
  73.5707132  65.3697776  34.8158411  74.6879327  62.8252158  40.0750185
  74.1844122  62.7882293  39.2617990  74.9809933  63.7344901  40.1346842
  70.9322212  62.9090888  39.0816367  71.7975209  62.7133697  38.7222256
  70.9999721  62.6801240  40.0085724  80.5467343  73.1988469  32.5526560
  79.7696786  72.8599628  32.1081722  81.2258824  73.2041092  31.8781525
  75.3619372  68.3183206  32.4433168  75.0569508  68.6329355  33.2943311
  76.3149814  68.3964626  32.4860501  73.8065804  74.4773430  34.0926122
  73.2787165  73.7426189  33.7799360  73.3053307  75.2548106  33.8466090
  78.7858650  72.6722450  39.2093168  78.1282324  73.3621711  39.2973297
  79.5899049  73.0618882  39.5527155  68.5384531  65.1393096  36.4532734
  69.1128283  64.9168277  35.7205927  69.1255514  65.2081790  37.2061335
  77.5964109  71.0266823  37.2597110  78.1095990  71.6596815  37.7618820
  78.2465333  70.4268018  36.8940470  68.8654119  67.1697557  30.4728619
  68.0291431  67.5072243  30.7937894  68.7258888  67.0346537  29.5355756
  70.8407199  62.0134345  35.1807803  70.1871612  61.6983362  34.5564418
  70.7987673  61.3910085  35.9067626  71.9518404  72.2953640  27.0961095
  71.0445466  72.0642893  27.2952244  72.4489436  71.4991259  27.2835077
  74.8586483  81.0051147  30.0157781  74.1848182  81.3082844  30.6242739
  75.2452305  81.8080227  29.6663238  74.0744940  68.5016278  39.5055451
  73.1567501  68.7231225  39.3477139  74.4905083  68.5762589  38.6467158
  74.8579987  69.9007694  34.6358131  75.6051806  70.4129091  34.3265253
  75.1271577  69.5791747  35.4962524  73.1306637  72.3966235  31.6185085
  72.2217857  72.1125267  31.7157555  73.1601721  72.8165313  30.7588392
  78.3625905  76.0072824  35.3876253  77.9088232  75.1663734  35.4441443
  77.7319872  76.6434223  35.7251033  77.3058824  66.9364810  36.6176920
  76.5681581  66.4242196  36.9487163  77.5585598  66.4965192  35.8060197
  76.8058844  77.8449321  36.3226071  77.0981819  78.4054378  35.6038437
  77.3157465  78.1377882  37.0779230  77.4070452  59.7141062  37.2118690
  77.7129329  58.8538426  36.9244605  78.1323057  60.3058682  37.0117683
  63.6994808  70.1171749  35.6000287  63.5019208  69.5241109  34.8751354
  63.1441472  69.8123959  36.3176226  71.6791532  70.0094855  37.7194881
  71.7340141  69.0568692  37.6437357  70.8682734  70.1654294  38.2036179
  72.8282725  73.9374978  28.9573164  72.3902155  73.2210837  28.4978801
  73.5693166  74.1651093  28.3958255  69.6183891  68.6271915  35.4785259
  68.8051757  68.9266086  35.8850452  70.1142886  68.2327604  36.1959742
  71.7692469  78.6229672  37.4119524  71.7268648  78.8490518  36.4828056
  72.6855168  78.3893047  37.5605325  80.9455840  72.2132175  35.0149482
  80.8073739  72.4033771  34.0870672  80.5892059  72.9751558  35.4717533
  69.1097966  66.1990271  41.0946494  69.7497346  66.0579030  40.3969458
  68.2775497  65.9124784  40.7185096  69.8858270  75.4992701  37.2081487
  70.6798869  75.0043021  37.0064062  69.1749963  74.9710564  36.8449192
  66.1941034  69.6435783  33.2841240  65.2638622  69.5820238  33.5011202
  66.2898506  69.1211735  32.4877881  66.1126583  66.1690596  35.8719481
  66.3733400  67.0835929  35.7628642  66.9343755  65.7015038  36.0216094
  67.5851508  67.5828353  43.0418306  68.2574561  67.3745715  42.3930955
  66.7581294  67.3850439  42.6023538  73.4877080  64.2090294  45.0583967
  72.8404995  64.9080243  44.9648443  74.2578095  64.6426438  45.4260215
  73.0577698  81.1730819  32.2304860  73.2329454  80.7018863  33.0450483
  72.3710486  81.7996586  32.4586121  74.0134761  75.4503326  38.2768162
  73.6784594  75.4104096  39.1725812  73.5138707  74.7848042  37.8038572
  67.9879005  70.8570956  43.8020743  67.8498803  70.1251194  44.4032282
  68.8983929  70.7679856  43.5204931  76.9493953  72.7959360  28.5505221
  76.3323124  72.0706188  28.4538274  76.4810441  73.5568720  28.2072296
  70.6161306  70.5690915  43.2904423  71.3260924  69.9284107  43.2491041
  70.5730614  70.8203810  44.2130603  69.3290240  67.5556133  45.1100062
  68.7927597  67.1046871  45.7621658  68.7406948  67.6902042  44.3670526
  67.6238783  84.3220182  39.0044721  67.8635382  84.9538706  39.6823739
  66.7807980  83.9708222  39.2910080  68.7392499  67.0144784  27.6726526
  67.8621965  66.8933585  27.3088772  69.2150252  66.2230863  27.4205414
  60.2594639  71.8021944  37.7668033  60.9465679  71.4883674  37.1789048
  60.1042768  72.7063309  37.4935284  65.0629361  66.6912141  42.1953057
  64.9787550  66.0837810  41.4603466  64.2412068  67.1821159  42.1962553
  71.9256425  79.3671075  34.9189046  71.1423947  79.9092755  35.0127271
  72.6249170  79.8845054  35.3183287  75.2353075  65.1765704  37.5623252
  75.7321775  64.4235666  37.2424322  74.4640056  65.2130021  36.9966461
  83.0882832  70.8806070  39.2041543  83.0772709  71.7630785  38.8335476
  82.2200212  70.5277620  39.0096080  76.3182856  73.9337391  35.1361675
  75.3839134  74.0538854  34.9666379  76.4959524  73.0309858  34.8721685
  71.8188044  67.3183087  37.2894936  71.4485831  66.7654127  37.9775842
  72.3147136  66.7141221  36.7369936  79.7055407  69.7754711  35.6711709
  80.1715859  70.6082702  35.5972012  80.1562908  69.3099692  36.3756968
  77.7731638  76.1198532  32.6697861  78.0491482  76.0055126  33.5791735
  76.9036137  75.7216017  32.6310034  77.6772070  62.1435298  39.7102610
  76.7635150  62.3739524  39.8784817  78.1065171  62.2273742  40.5616643
  74.4085702  80.3684883  36.3130675  74.5908097  79.5506539  36.7758427
  75.2318688  80.5852575  35.8755565  74.7427868  79.2953068  33.5745723
  75.2715634  78.7845522  32.9615885  75.0056087  78.9795598  34.4391256
  65.2444960  77.3116937  41.3181057  65.8298397  76.5660625  41.4508961
  65.0469799  77.6220894  42.2017721  68.0983616  80.3468185  36.3343499
  67.4293991  80.8314312  35.8507539  67.9596485  80.5937405  37.2486878
  59.8362615  69.8822537  40.0385500  59.8746715  69.3486128  40.8322618
  59.3302908  69.3557743  39.4196477  67.2153377  64.7287078  43.5348042
  67.2794704  65.5901909  43.1225440  67.1520498  64.1161080  42.8020401
  66.6905650  66.8010210  47.1821077  67.3177689  66.4187288  47.7958601
  65.8333569  66.5824412  47.5476769  63.4671193  68.6086640  33.1139431
  63.7624634  67.6997318  33.0606485  62.5659228  68.5874379  32.7920434
  75.3757271  80.3293904  39.9189840  75.2508411  79.5283643  39.4100785
  76.0336363  80.8240097  39.4303810  66.9965440  66.6842636  39.0966980
  66.2752025  67.2978604  38.9574453  67.7858695  67.2200401  39.0183626
  69.7991753  64.0197063  45.3707632  70.3226155  64.2659359  46.1333941
  69.5804086  64.8517097  44.9510769  65.1959034  66.2900737  33.2378756
  64.8671740  65.4098116  33.0553862  65.5498405  66.2348406  34.1255146
  74.4438613  77.9255640  37.7473742  74.2963576  76.9972347  37.9281312
  75.2692107  77.9475731  37.2630817  68.3100857  66.5773707  33.6054234
  68.6496930  67.1059628  32.8832843  68.7572978  66.9154113  34.3812801
  78.0472735  78.7484199  38.8338615  78.9719282  78.5427060  38.6963066
  77.8788038  78.5000600  39.7427956  71.0044298  64.9610758  43.0557302
  70.6641119  64.1618571  43.4577982  70.2983305  65.2612469  42.4834135
  71.6560770  62.0460070  41.5084625  72.4786839  61.5720548  41.3863516
  71.8998834  62.8250554  42.0083312  70.2969005  65.0748329  31.8047527
  71.0177367  65.4529581  31.3011244  69.6734309  65.7937205  31.9082505
  74.4400127  65.7793478  32.7405859  74.6563742  66.6618115  32.4394687
  73.9594195  65.3879691  32.0111501  69.1799349  68.7379191  39.3176604
  69.0343930  69.0519494  40.2100885  68.7024552  69.3564091  38.7647502
  71.0395732  65.7281739  39.3657493  71.0257300  64.8322832  39.0289791
  71.7568160  65.7352403  39.9995779  72.8921862  66.1619079  41.4110621
  72.6339640  67.0836150  41.4094951  72.3606903  65.7649513  42.1011085
  77.8368051  79.2669866  34.1900706  78.0104929  78.7016289  33.4374559
  78.3296942  80.0670761  34.0080196  63.6545011  71.2784535  42.2564265
  63.1098479  72.0544343  42.3884539  64.5324361  71.6255340  42.0983386
  70.4432628  64.6096119  34.6345064  70.5648539  63.6812765  34.8335951
  70.1534670  64.6234805  33.7223379  73.3123818  62.2951029  37.7711783
  73.3345515  62.3590363  36.8163763  73.7291877  61.4555538  37.9652290
  83.6907442  72.0306289  35.8091006  84.1338588  71.2813614  35.4110129
  82.8133953  72.0216425  35.4264738  78.8243224  78.5836630  31.2897604
  79.5194128  79.2043323  31.5084919  79.1666374  77.7331982  31.5649982
  64.4411033  70.4054431  45.1494422  63.6992769  70.5537067  45.7359052
  64.1203777  70.6662697  44.2861171  80.7234647  76.0336336  32.8184935
  81.2485971  76.3723609  32.0934255  80.6356999  75.0983351  32.6348070
  72.4075308  82.1008319  37.1780188  71.9680298  81.6084698  37.8713045
  73.1583424  81.5581287  36.9372264  64.8867647  78.2919860  37.1804817
  65.7125666  77.9923632  36.8003460  64.5361699  77.5227483  37.6294605
  69.8549180  77.6446328  39.2502490  69.2329189  76.9817033  38.9504718
  70.5254047  77.6707460  38.5676138  63.0876252  76.2106187  38.1393750
  62.2508160  75.7828361  37.9577751  63.0599897  76.4038630  39.0764541
  69.9273707  66.1228116  48.8434996  69.9761863  66.9990239  48.4612766
  70.4696221  65.5805509  48.2706639  69.4162687  76.1950252  32.7260951
  69.5650807  76.8785716  32.0727623  70.2229130  76.1755342  33.2410406
  72.1572996  66.8759489  45.5981355  71.2876305  67.1693055  45.3263943
  72.3932476  67.4599934  46.3188618  83.2340307  73.5011527  38.2013454
  84.0687198  73.9401331  38.3651014  83.3699436  73.0250181  37.3821699
  67.1715320  72.2215429  33.7322020  66.9261362  71.3177759  33.9302230
  67.3411234  72.2232580  32.7901498  74.8612029  63.0939106  43.1146775
  75.3793973  63.8300133  42.7893264  74.5067162  63.4003099  43.9493534
  66.4410967  67.9543787  31.2308181  65.7480212  68.0288142  30.5748217
  66.1962719  67.1904131  31.7529698  75.1124624  59.5139388  38.6347672
  75.3926377  58.8462577  39.2608098  75.8975231  59.7068484  38.1222336
  72.9158092  78.6898382  30.1972698  72.3432059  79.3088569  29.7443170
  73.4890886  79.2397744  30.7312620  78.9833482  67.9357022  42.3819247
  79.9350905  68.0355120  42.4031471  78.8136932  67.1435291  42.8917331
  77.0047861  65.0212605  42.5678648  76.4097794  65.3017618  41.8725136
  76.7197558  65.5106506  43.3395389  76.1355352  78.9735532  31.3281280
  77.0686025  78.9081094  31.5314156  76.0478565  79.8091799  30.8695813
  78.7643369  78.2901403  28.2885228  78.6857000  77.9561266  29.1820986
  79.5853035  78.7823171  28.2876700  81.4621560  71.1563142  41.4961547
  81.4297880  70.2179143  41.6821230  82.0722183  71.2347179  40.7627371
  73.3004891  70.0259195  27.5388751  74.2463995  69.8965403  27.6077169
  72.9219136  69.2873857  28.0158179  81.6116048  67.9474185  41.5419830
  81.0955097  67.1632642  41.3549759  82.4955997  67.6192902  41.7066349
  79.2726775  61.6915201  37.5015642  79.0751596  61.3830289  38.3858974
  79.8826481  62.4176840  37.6313572  87.2798110  72.2179149  40.6367583
  88.0101498  71.9564437  41.1975287  86.6705055  71.4807871  40.6769651
  85.3613407  70.3587011  41.2342035  84.6346570  70.2242976  40.6258526
  84.9460694  70.6663840  42.0398753  71.4847808  67.9509171  27.4743636
  70.5779263  67.6542284  27.5506349  71.7623789  67.6538989  26.6077922
  62.4025748  69.2715535  37.9242682  62.0828532  68.4180843  37.6317056
  61.8559176  69.4864113  38.6800650  66.1805656  71.9877976  41.6412189
  66.3991665  72.9195084  41.6600223  66.5931430  71.6285950  42.4266993
  73.1009873  62.4946061  33.6287877  72.2910602  62.1493146  34.0043123
  73.7894290  62.1853605  34.2175489  75.0300422  61.5724108  35.2512174
  75.5831460  61.9919561  35.9102197  75.2670508  60.6459856  35.2935130
  71.0533521  67.5611181  51.0314938  70.9530248  68.5105538  50.9627029
  70.8355063  67.2329420  50.1591008  70.2546592  64.8096107  27.6155615
  71.1165756  65.1351005  27.8751432  70.4396937  64.0227602  27.1028681
  62.2714008  72.8918446  39.8935804  61.5777480  72.4772399  39.3805758
  63.0186999  72.9338983  39.2969223  78.4079229  63.6824633  34.7590838
  77.8277898  64.3409437  34.3768890  78.1415162  62.8601978  34.3478256
  76.8582795  63.0829691  36.9612158  77.3582574  63.1946225  36.1526477
  77.5018403  62.7790744  37.6012967  64.1850751  72.8236700  37.7701819
  64.1621439  72.9224387  36.8183702  64.4951387  73.6701851  38.0918985
  66.8438129  74.8812855  41.8848433  67.7981382  74.8496797  41.8178365
  66.6450652  74.4203479  42.6998659  77.1904107  65.8424723  33.8147186
  76.3029962  66.1274374  33.5967381  77.6058096  65.6818487  32.9674463
  80.5418643  65.8671244  37.5301526  81.3179033  66.3567697  37.8026142
  79.8166777  66.2929299  37.9873395  82.9791202  66.5798864  38.5875466
  83.5735692  66.3394600  37.8768774  83.0517785  65.8605994  39.2149002
  65.1988357  80.4232475  38.9018631  65.0642825  79.6632875  38.3356629
  64.7820420  81.1473374  38.4347420  76.3347320  75.6069398  27.9095206
  77.0383170  75.8119401  28.5252862  75.6109969  76.1746160  28.1744290
  77.1645131  71.3579259  34.0297476  77.1080332  71.8147811  33.1905109
  77.7173473  70.5969944  33.8520319  80.9749937  67.1468991  34.8547596
  80.7186871  66.7465627  35.6855804  80.3502805  67.8612785  34.7297735
  85.2862274  69.8865064  37.3618887  84.7261832  69.9558254  38.1350449
  84.6805778  69.7106049  36.6418384  68.3557483  81.3201792  39.1137074
  68.2389867  82.2647224  39.0115764  67.5349929  81.0175353  39.5022873
  78.2434018  76.0451927  29.9593666  79.0779622  75.6133126  29.7771141
  78.0818361  75.8733941  30.8870561  77.8979910  72.5484041  31.3250006
  77.8428714  72.3828312  30.3838450  77.2725965  73.2560073  31.4812195
  62.6872425  67.7852105  45.1511428  63.3331289  67.2751059  45.6398653
  62.4789576  68.5220787  45.7254853  71.2076035  62.0492150  30.9035324
  71.1954705  62.9933989  31.0603595  72.0999457  61.8662295  30.6094785
  69.3811997  81.9730053  42.3293002  70.2839244  82.0053664  42.6459497
  69.1549367  81.0430504  42.3439338  71.1365599  80.7261040  38.9903081
  70.1861230  80.7262902  38.8767453  71.4398086  79.9793775  38.4739115
  75.0228155  58.6434926  35.1581261  74.2560551  58.0893413  35.3037943
  75.4338860  58.7156795  36.0195412  67.0269916  64.9319722  49.2486442
  67.8901377  64.5756527  49.4589767  66.4535327  64.5933617  49.9361846
  86.8718293  86.5621578  40.0548843  87.5096703  86.4428326  39.3512183
  86.7539136  87.5102422  40.1136795  83.6807999  86.5149006  39.9910368
  83.3426511  86.3990071  39.1030903  84.5497767  86.1140172  39.9711374
  79.5394815  88.3684483  35.9807259  78.9759680  88.2774420  35.2123546
  79.4247210  87.5484387  36.4609751  77.0859247  89.8635674  38.8191479
  77.8780539  89.5226499  38.4037778  77.3255897  89.9730650  39.7393632
  85.1194374  92.0355451  31.2921724  84.4682353  92.6209531  30.9055737
  85.9138736  92.5661645  31.3516761  79.0450001  89.1244588  31.6908858
  79.8180877  88.5773575  31.5521734  79.3975400  89.9888837  31.9023319
  81.3816279  85.2837254  29.3227308  81.6341799  84.7618775  28.5610771
  80.4440838  85.1203399  29.4253991  86.4259561  84.2873032  37.1302051
  87.2122651  83.8692455  36.7792468  86.6898266  85.1919124  37.2983699
  86.5969639  89.7245883  31.8290708  85.9615472  89.7980509  32.5411613
  86.2667045  90.3139481  31.1509787  91.8267988  84.2248265  38.0335030
  92.5593160  83.6547482  38.2672859  91.0707344  83.8369866  38.4741535
  81.1012567  87.1865360  31.5251683  80.9848825  86.5110263  32.1932767
  81.2114827  86.6997734  30.7083836  83.4444108  86.6475507  35.2298372
  83.0802315  86.1206128  35.9411294  84.3011224  86.2573976  35.0564857
  83.0849595  81.6765407  30.2259721  83.2523998  82.5445643  30.5930192
  82.8946764  81.8392688  29.3021010  79.2937410  86.5896182  37.9262255
  78.3687906  86.4572396  38.1339947  79.5421823  87.3690402  38.4232198
  89.2422072  82.6564926  39.5722988  88.3338949  82.5880334  39.2781749
  89.1909668  83.1336871  40.4004814  83.0638816  84.1323064  31.2106387
  82.9438441  84.5780115  32.0491868  82.3691404  84.4808382  30.6519926
  76.6546221  86.2329456  38.7606044  76.7838602  86.4863935  39.6745456
  75.9743672  86.8257164  38.4410699  91.1083719  80.8581364  41.3500862
  90.4658099  81.1513897  40.7040657  90.6038647  80.7434284  42.1554059
  88.7623882  84.6044537  32.0386721  89.6741738  84.8371924  31.8634419
  88.2533529  85.1881581  31.4761800  87.3693465  89.5870356  39.4300303
  86.7402327  89.7516070  38.7276371  86.9819127  90.0011965  40.2011267
  91.2482696  90.5224794  36.7844667  90.5633735  90.9023695  36.2341700
  91.3326546  91.1320120  37.5176614  86.1059857  80.7802573  40.2876582
  85.2444336  81.0783827  40.5793320  86.1322292  80.9972972  39.3557615
  82.9221426  89.3244764  36.6950388  83.3859772  89.6032467  35.9055010
  82.6578224  88.4228208  36.5123479  79.8145507  88.8716245  39.6330151
  80.3846865  89.3003514  38.9947636  80.4053619  88.5898830  40.3314337
  81.8590312  85.4467916  33.5039953  82.5614356  85.8988960  33.9713880
  81.5270941  84.8051735  34.1319846  75.6015646  83.7051469  38.8057087
  74.8114700  83.9608997  38.3297197  76.0926894  84.5199807  38.9109127
  77.5530392  84.0696048  35.7640563  76.7561555  84.1814742  36.2824059
  77.3255984  84.4082700  34.8981454  97.7085449  87.3895457  37.9047339
  96.9549157  86.8202855  37.7491343  97.8432990  87.3558121  38.8517974
  83.0984077  92.2608859  33.5802058  82.9629752  93.1060395  34.0086906
  83.6393890  92.4628136  32.8167992  76.5513474  89.7784297  34.1529983
  77.0637995  90.5727547  34.3035548  77.2036187  89.0810587  34.0863585
  74.5162391  88.1072951  34.9289554  75.3537613  88.5169960  34.7123262
  74.6940659  87.1672393  34.8989748  86.4126823  85.7748032  30.6173387
  85.8973447  86.5452636  30.8561774  86.1404132  85.1013168  31.2406448
  83.9973934  80.6197733  35.6758625  83.1415531  80.2304583  35.4964264
  84.4100886  80.6989693  34.8158411  91.3861097  88.5280386  32.5526560
  90.6090540  88.1891546  32.1081722  92.0652578  88.5333010  31.8781525
  86.2013127  83.6475124  32.4433168  85.8963262  83.9621273  33.2943311
  87.1543569  83.7256544  32.4860501  84.6459558  89.8065347  34.0926122
  84.1180920  89.0718107  33.7799360  84.1447061  90.5840024  33.8466090
  89.6252404  88.0014368  39.2093168  88.9676079  88.6913629  39.2973297
  90.4292804  88.3910800  39.5527155  79.3778286  80.4685013  36.4532734
  79.9522038  80.2460195  35.7205927  79.9649268  80.5373708  37.2061335
  88.4357863  86.3558740  37.2597110  88.9489745  86.9888732  37.7618820
  89.0859087  85.7559936  36.8940470  79.7047873  82.4989475  30.4728619
  78.8685185  82.8364161  30.7937894  79.5652643  82.3638454  29.5355756
  81.6800954  77.3426262  35.1807803  81.0265366  77.0275280  34.5564418
  81.6381428  76.7202003  35.9067626  82.7912159  87.6245557  27.0961095
  81.8839220  87.3934811  27.2952244  83.2883191  86.8283177  27.2835077
  85.6980237  96.3343065  30.0157781  85.0241936  96.6374761  30.6242739
  86.0846059  97.1372145  29.6663238  84.9138694  83.8308196  39.5055451
  83.9961255  84.0523143  39.3477139  85.3298838  83.9054506  38.6467158
  85.6973742  85.2299612  34.6358131  86.4445561  85.7421009  34.3265253
  85.9665331  84.9083664  35.4962524  83.9700392  87.7258152  31.6185085
  83.0611611  87.4417185  31.7157555  83.9995476  88.1457231  30.7588392
  89.2019659  91.3364742  35.3876253  88.7481987  90.4955652  35.4441443
  88.5713626  91.9726140  35.7251033  88.1452579  82.2656728  36.6176920
  87.4075336  81.7534114  36.9487163  88.3979352  81.8257109  35.8060197
  87.6452599  93.1741239  36.3226071  87.9375573  93.7346296  35.6038437
  88.1551219  93.4669800  37.0779230  88.2464206  75.0432980  37.2118690
  88.5523083  74.1830343  36.9244605  88.9716811  75.6350600  37.0117683
  74.5388562  85.4463666  35.6000287  74.3412962  84.8533027  34.8751354
  73.9835226  85.1415877  36.3176226  82.5185286  85.3386773  37.7194881
  82.5733896  84.3860609  37.6437357  81.7076488  85.4946212  38.2036179
  83.6676480  89.2666896  28.9573164  83.2295910  88.5502755  28.4978801
  84.4086921  89.4943011  28.3958255  80.4577646  83.9563833  35.4785259
  79.6445511  84.2558003  35.8850452  80.9536640  83.5619521  36.1959742
  91.7849595  87.5424093  35.0149482  91.6467493  87.7325689  34.0870672
  91.4285813  88.3043476  35.4717533  77.0334788  84.9727700  33.2841240
  76.1032376  84.9112156  33.5011202  77.1292260  84.4503653  32.4877881
  76.9520337  81.4982513  35.8719481  77.2127154  82.4127846  35.7628642
  77.7737509  81.0306956  36.0216094  83.8971453  96.5022737  32.2304860
  84.0723208  96.0310780  33.0450483  83.2104241  97.1288503  32.4586121
  87.7887707  88.1251278  28.5505221  87.1716878  87.3998106  28.4538274
  87.3204196  88.8860638  28.2072296  79.5786253  82.3436702  27.6726526
  78.7015720  82.2225503  27.3088772  80.0544006  81.5522780  27.4205414
  71.0988393  87.1313862  37.7668033  71.7859433  86.8175592  37.1789048
  70.9436522  88.0355226  37.4935284  75.9023116  82.0204058  42.1953057
  75.8181304  81.4129728  41.4603466  75.0805822  82.5113077  42.1962553
  86.0746829  80.5057622  37.5623252  86.5715529  79.7527584  37.2424322
  85.3033811  80.5421938  36.9966461  93.9276587  86.2097987  39.2041543
  93.9166463  87.0922703  38.8335476  93.0593966  85.8569538  39.0096080
  87.1576610  89.2629309  35.1361675  86.2232889  89.3830771  34.9666379
  87.3353279  88.3601776  34.8721685  82.6581798  82.6475005  37.2894936
  82.2879586  82.0946045  37.9775842  83.1540891  82.0433138  36.7369936
  90.5449161  85.1046628  35.6711709  91.0109614  85.9374620  35.5972012
  90.9956662  84.6391610  36.3756968  88.6125393  91.4490450  32.6697861
  88.8885237  91.3347044  33.5791735  87.7429891  91.0507934  32.6310034
  88.5165824  77.4727215  39.7102610  87.6028904  77.7031442  39.8784817
  88.9458926  77.5565659  40.5616643  85.5821622  94.6244986  33.5745723
  86.1109389  94.1137440  32.9615885  85.8449842  94.3087516  34.4391256
  74.3064947  83.9378557  33.1139431  74.6018388  83.0289236  33.0606485
  73.4052983  83.9166297  32.7920434  77.8359194  82.0134554  39.0966980
  77.1145780  82.6270521  38.9574453  78.6252450  82.5492319  39.0183626
  76.0352789  81.6192655  33.2378756  75.7065495  80.7390034  33.0553862
  76.3892159  81.5640324  34.1255146  79.1494612  81.9065625  33.6054234
  79.4890684  82.4351546  32.8832843  79.5966732  82.2446031  34.3812801
  88.8866489  94.0776116  38.8338615  89.8113037  93.8718978  38.6963066
  88.7181793  93.8292517  39.7427956  81.1362759  80.4040246  31.8047527
  81.8571122  80.7821499  31.3011244  80.5128063  81.1229123  31.9082505
  85.2793882  81.1085395  32.7405859  85.4957496  81.9910033  32.4394687
  84.7987949  80.7171609  32.0111501  88.6761806  94.5961784  34.1900706
  88.8498683  94.0308206  33.4374559  89.1690697  95.3962679  34.0080196
  81.2826382  79.9388037  34.6345064  81.4042293  79.0104683  34.8335951
  80.9928424  79.9526723  33.7223379  84.1517573  77.6242947  37.7711783
  84.1739269  77.6882280  36.8163763  84.5685632  76.7847456  37.9652290
  94.5301197  87.3598207  35.8091006  94.9732343  86.6105532  35.4110129
  93.6527707  87.3508343  35.4264738  89.6636978  93.9128548  31.2897604
  90.3587883  94.5335241  31.5084919  90.0060128  93.0623899  31.5649982
  91.5628401  91.3628254  32.8184935  92.0879725  91.7015526  32.0934255
  91.4750754  90.4275269  32.6348070  75.7261401  93.6211778  37.1804817
  76.5519421  93.3215550  36.8003460  75.3755453  92.8519400  37.6294605
  73.9270006  91.5398104  38.1393750  73.0901914  91.1120279  37.9577751
  73.8993651  91.7330548  39.0764541  80.2556441  91.5242169  32.7260951
  80.4044561  92.2077634  32.0727623  81.0622885  91.5047259  33.2410406
  94.0734062  88.8303445  38.2013454  94.9080953  89.2693249  38.3651014
  94.2093190  88.3542098  37.3821699  78.0109074  87.5507347  33.7322020
  77.7655116  86.6469677  33.9302230  78.1804989  87.5524497  32.7901498
  77.2804722  83.2835705  31.2308181  76.5873967  83.3580060  30.5748217
  77.0356473  82.5196048  31.7529698  85.9518378  74.8431306  38.6347672
  86.2320132  74.1754495  39.2608098  86.7368985  75.0360402  38.1222336
  83.7551847  94.0190300  30.1972698  83.1825814  94.6380487  29.7443170
  84.3284640  94.5689662  30.7312620  86.9749106  94.3027450  31.3281280
  87.9079780  94.2373012  31.5314156  86.8872319  95.1383717  30.8695813
  89.6037123  93.6193320  28.2885228  89.5250755  93.2853184  29.1820986
  90.4246790  94.1115088  28.2876700  84.1398645  85.3551113  27.5388751
  85.0857750  85.2257321  27.6077169  83.7612890  84.6165775  28.0158179
  90.1120530  77.0207119  37.5015642  89.9145351  76.7122207  38.3858974
  90.7220235  77.7468758  37.6313572  98.1191864  87.5471066  40.6367583
  98.8495253  87.2856355  41.1975287  97.5098810  86.8099788  40.6769651
  96.2007161  85.6878929  41.2342035  95.4740325  85.5534894  40.6258526
  95.7854448  85.9955758  42.0398753  82.3241562  83.2801089  27.4743636
  81.4173018  82.9834202  27.5506349  82.6017543  82.9830907  26.6077922
  73.2419503  84.6007452  37.9242682  72.9222287  83.7472761  37.6317056
  72.6952931  84.8156031  38.6800650  77.0199410  87.3169893  41.6412189
  77.2385420  88.2487001  41.6600223  77.4325184  86.9577868  42.4266993
  83.9403628  77.8237979  33.6287877  83.1304356  77.4785064  34.0043123
  84.6288045  77.5145522  34.2175489  85.8694176  76.9016026  35.2512174
  86.4225215  77.3211479  35.9102197  86.1064263  75.9751774  35.2935130
  81.0940347  80.1388024  27.6155615  81.9559511  80.4642923  27.8751432
  81.2790691  79.3519520  27.1028681  73.1107763  88.2210364  39.8935804
  72.4171234  87.8064317  39.3805758  73.8580754  88.2630900  39.2969223
  89.2472983  79.0116551  34.7590838  88.6671652  79.6701355  34.3768890
  88.9808916  78.1893895  34.3478256  87.6976550  78.4121608  36.9612158
  88.1976328  78.5238143  36.1526477  88.3412158  78.1082661  37.6012967
  75.0244505  88.1528618  37.7701819  75.0015193  88.2516305  36.8183702
  75.3345142  88.9993768  38.0918985  77.6831883  90.2104773  41.8848433
  78.6375137  90.1788715  41.8178365  77.4844407  89.7495396  42.6998659
  88.0297861  81.1716641  33.8147186  87.1423716  81.4566292  33.5967381
  88.4451850  81.0110404  32.9674463  91.3812398  81.1963162  37.5301526
  92.1572788  81.6859614  37.8026142  90.6560532  81.6221216  37.9873395
  93.8184956  81.9090781  38.5875466  94.4129447  81.6686517  37.8768774
  93.8911540  81.1897912  39.2149002  87.1741075  90.9361316  27.9095206
  87.8776925  91.1411318  28.5252862  86.4503724  91.5038078  28.1744290
  88.0038885  86.6871177  34.0297476  87.9474087  87.1439728  33.1905109
  88.5567228  85.9261862  33.8520319  91.8143691  82.4760909  34.8547596
  91.5580625  82.0757545  35.6855804  91.1896559  83.1904703  34.7297735
  96.1256029  85.2156982  37.3618887  95.5655587  85.2850171  38.1350449
  95.5199532  85.0397967  36.6418384  89.0827772  91.3743845  29.9593666
  89.9173376  90.9425043  29.7771141  88.9212115  91.2025859  30.8870561
  88.7373664  87.8775958  31.3250006  88.6822468  87.7120230  30.3838450
  88.1119720  88.5851991  31.4812195  82.0469790  77.3784067  30.9035324
  82.0348460  78.3225907  31.0603595  82.9393212  77.1954213  30.6094785
  85.8621909  73.9726844  35.1581261  85.0954305  73.4185331  35.3037943
  86.2732614  74.0448713  36.0195412  97.7112047 101.8913496  40.0548843
  98.3490457 101.7720243  39.3512183  97.5932890 102.8394340  40.1136795
  94.5201754 101.8440924  39.9910368  94.1820265 101.7281989  39.1030903
  95.3891522 101.4432089  39.9711374  90.3788569 103.6976401  35.9807259
  89.8153434 103.6066337  35.2123546  90.2640964 102.8776305  36.4609751
  87.9253001 105.1927592  38.8191479  88.7174293 104.8518417  38.4037778
  88.1649651 105.3022567  39.7393632  95.9588128 107.3647368  31.2921724
  95.3076108 107.9501449  30.9055737  96.7532491 107.8953563  31.3516761
  89.8843755 104.4536505  31.6908858  90.6574631 103.9065492  31.5521734
  90.2369154 105.3180755  31.9023319  92.6485005 103.1589736  41.4877117
  93.2448577 102.9345759  40.7734080  92.7059976 102.4174482  42.0902565
  92.2210033 100.6129172  29.3227308  92.4735554 100.0910693  28.5610771
  91.2834592 100.4495317  29.4253991  97.2653316  99.6164950  37.1302051
  98.0516405  99.1984373  36.7792468  97.5292020 100.5211042  37.2983699
  97.4363393 105.0537800  31.8290708  96.8009226 105.1272427  32.5411613
  97.1060800 105.6431399  31.1509787 102.6661743  99.5540183  38.0335030
 103.3986915  98.9839400  38.2672859 101.9101099  99.1661784  38.4741535
  91.9406322 102.5157277  31.5251683  91.8242580 101.8402181  32.1932767
  92.0508582 102.0289651  30.7083836  94.2837863 101.9767425  35.2298372
  93.9196070 101.4498046  35.9411294  95.1404979 101.5865894  35.0564857
 100.1887163  93.2661757  42.4929638  99.8570488  94.1357168  42.2690853
  99.5932777  92.9498041  43.1723669  93.9243350  97.0057324  30.2259721
  94.0917752  97.8737561  30.5930192  93.7340519  97.1684606  29.3021010
  96.6818683 105.4674303  41.8925551  96.3819406 106.3699342  41.7841358
  96.3369742 105.2006486  42.7446704  90.1331164 101.9188100  37.9262255
  89.2081661 101.7864314  38.1339947  90.3815578 102.6982319  38.4232198
 100.0815827  97.9856843  39.5722988  99.1732704  97.9172252  39.2781749
 100.0303422  98.4628788  40.4004814  93.9032571  99.4614982  31.2106387
  93.7832196  99.9072033  32.0491868  93.2085159  99.8100299  30.6519926
  87.4939975 101.5621374  38.7606044  87.6232357 101.8155853  39.6745456
  86.8137427 102.1549082  38.4410699  91.6639463 112.2318624  34.8596519
  91.5863492 113.1826449  34.9384999  91.0601106 111.8864496  35.5171445
 101.9477473  96.1873282  41.3500862 101.3051853  96.4805815  40.7040657
 101.4432402  96.0726202  42.1554059  99.6017637  99.9336455  32.0386721
 100.5135493 100.1663842  31.8634419  99.0927284 100.5173499  31.4761800
  98.2087219 104.9162273  39.4300303  97.5796081 105.0807988  38.7276371
  97.8212881 105.3303883  40.2011267 102.0876451 105.8516711  36.7844667
 101.4027489 106.2315613  36.2341700 102.1720300 106.4612038  37.5176614
  96.9453611  96.1094491  40.2876582  96.0838090  96.4075744  40.5793320
  96.9716046  96.3264890  39.3557615  93.7615181 104.6536681  36.6950388
  94.2253526 104.9324384  35.9055010  93.4971979 103.7520126  36.5123479
  90.6539262 104.2008163  39.6330151  91.2240619 104.6295431  38.9947636
  91.2447374 103.9190748  40.3314337  92.6984067 100.7759834  33.5039953
  93.4008110 101.2280878  33.9713880  92.3664695 100.1343653  34.1319846
 100.4573210 106.3748626  41.5562368 101.2790654 105.9728813  41.2745049
 100.4535613 106.2716860  42.5078483  88.3924146  99.3987966  35.7640563
  87.5955310  99.5106660  36.2824059  88.1649738  99.7374618  34.8981454
  94.2229814 105.9232669  43.7123078  94.2874246 106.3853076  44.5481250
  93.5140738 105.2930034  43.8405388 108.5479204 102.7187374  37.9047339
 107.7942912 102.1494772  37.7491343 108.6826745 102.6850039  38.8517974
  93.9377832 107.5900776  33.5802058  93.8023506 108.4352312  34.0086906
  94.4787644 107.7920054  32.8167992  87.3907229 105.1076215  34.1529983
  87.9031750 105.9019465  34.3035548  88.0429942 104.4102505  34.0863585
  89.2002114 108.2241971  36.2352737  89.3768742 109.1459936  36.0473721
  89.9958947 107.9100390  36.6647116  95.5646308 108.2124343  47.7102400
  95.1210162 107.4260722  47.3923305  96.2263522 108.4003494  47.0446291
  90.3233429 109.7420145  42.2363079  90.8740854 109.6137208  41.4640073
  89.4844905 110.0415034  41.8857972  97.6627546 108.4927143  45.7383802
  97.6446021 109.3136024  45.2464071  98.5847466 108.3681218  45.9633943
  85.3556146 103.4364869  34.9289554  86.1931368 103.8461877  34.7123262
  85.5334413 102.4964311  34.8989748  97.2520578 101.1039949  30.6173387
  96.7367201 101.8744554  30.8561774  96.9797886 100.4305086  31.2406448
  94.8367689  95.9489650  35.6758625  93.9809285  95.5596501  35.4964264
  95.2494641  96.0281611  34.8158411  92.6109721  93.5674723  39.0816367
  93.4762718  93.3717532  38.7222256  92.6787230  93.3385075  40.0085724
 102.2254852 103.8572304  32.5526560 101.4484295 103.5183464  32.1081722
 102.9046333 103.8624927  31.8781525  97.0406881  98.9767042  32.4433168
  96.7357017  99.2913191  33.2943311  97.9937323  99.0548461  32.4860501
  95.4853313 105.1357265  34.0926122  94.9574674 104.4010024  33.7799360
  94.9840816 105.9131941  33.8466090 100.4646159 103.3306285  39.2093168
  99.8069833 104.0205547  39.2973297 101.2686558 103.7202717  39.5527155
  90.2172040  95.7976931  36.4532734  90.7915792  95.5752113  35.7205927
  90.8043023  95.8665626  37.2061335  99.2751618 101.6850658  37.2597110
  99.7883499 102.3180650  37.7618820  99.9252842 101.0851854  36.8940470
  90.5441628  97.8281392  30.4728619  89.7078940  98.1656079  30.7937894
  90.4046397  97.6930372  29.5355756  92.5194708  92.6718180  35.1807803
  91.8659121  92.3567197  34.5564418  92.4775182  92.0493921  35.9067626
  93.6305913 102.9537475  27.0961095  92.7232975 102.7226729  27.2952244
  94.1276945 102.1575094  27.2835077  96.5373992 111.6634982  30.0157781
  95.8635691 111.9666679  30.6242739  96.9239814 112.4664063  29.6663238
  95.7532449  99.1600114  39.5055451  94.8355010  99.3815061  39.3477139
  96.1692592  99.2346424  38.6467158  96.5367496 100.5591529  34.6358131
  97.2839315 101.0712927  34.3265253  96.8059086 100.2375582  35.4962524
  94.8094146 103.0550070  31.6185085  93.9005366 102.7709103  31.7157555
  94.8389230 103.4749149  30.7588392 100.0413414 106.6656660  35.3876253
  99.5875741 105.8247569  35.4441443  99.4107381 107.3018058  35.7251033
  98.9846333  97.5948646  36.6176920  98.2469090  97.0826032  36.9487163
  99.2373107  97.1549027  35.8060197  98.4846353 108.5033156  36.3226071
  98.7769328 109.0638213  35.6038437  98.9944974 108.7961717  37.0779230
  99.0857961  90.3724898  37.2118690  99.3916838  89.5122261  36.9244605
  99.8110566  90.9642518  37.0117683  85.3782317 100.7755584  35.6000287
  85.1806717 100.1824945  34.8751354  84.8228981 100.4707794  36.3176226
  93.3579041 100.6678691  37.7194881  93.4127650  99.7152527  37.6437357
  92.5470243 100.8238130  38.2036179  94.5070234 104.5958814  28.9573164
  94.0689664 103.8794673  28.4978801  95.2480675 104.8234929  28.3958255
  91.2971400  99.2855750  35.4785259  90.4839266  99.5849921  35.8850452
  91.7930395  98.8911439  36.1959742  93.4479978 109.2813507  37.4119524
  93.4056157 109.5074354  36.4828056  94.3642677 109.0476882  37.5605325
 102.6243349 102.8716011  35.0149482 102.4861248 103.0617607  34.0870672
 102.2679568 103.6335394  35.4717533  90.7885475  96.8574106  41.0946494
  91.4284855  96.7162865  40.3969458  89.9563006  96.5708619  40.7185096
 102.6512729 104.9392538  40.0260754 103.0849235 104.8467827  40.8743808
 103.3644309 104.9150038  39.3880770  91.5645779 106.1576536  37.2081487
  92.3586378 105.6626856  37.0064062  90.8537471 105.6294399  36.8449192
  96.3840624 108.5394632  41.5593854  96.4377646 109.1085568  42.3271570
  95.5155405 108.7096517  41.1947892  87.8728543 100.3019618  33.2841240
  86.9426131 100.2404074  33.5011202  87.9686015  99.7795571  32.4877881
  87.7914092  96.8274431  35.8719481  88.0520909  97.7419764  35.7628642
  88.6131264  96.3598873  36.0216094 103.5128278 104.9816238  42.5593639
 103.7064168 105.8862049  42.8052914 103.4128896 104.5223657  43.3932224
  94.1417055 106.7305558  40.8879324  94.0028141 106.3624343  41.7605262
  93.3531651 107.2453198  40.7163282  94.7365207 111.8314655  32.2304860
  94.9116963 111.3602698  33.0450483  94.0497995 112.4580421  32.4586121
  95.6922270 106.1087161  38.2768162  95.3572103 106.0687931  39.1725812
  95.1926216 105.4431877  37.8038572  98.6281462 103.4543195  28.5505221
  98.0110633 102.7290023  28.4538274  98.1597950 104.2152556  28.2072296
 100.2835594 108.1642104  46.2111002 100.2248140 107.4801324  45.5441585
 100.6855112 108.9061094  45.7591628  89.3026292 114.9804018  39.0044721
  89.5422891 115.6122542  39.6823739  88.4595489 114.6292058  39.2910080
  90.4180008  97.6728620  27.6726526  89.5409474  97.5517420  27.3088772
  90.8937761  96.8814698  27.4205414 100.2853001 106.1281688  44.4424981
  99.3979780 105.7907609  44.5651380 100.8551552 105.3964719  44.6793747
  81.9382148 102.4605779  37.7668033  82.6253188 102.1467509  37.1789048
  81.7830277 103.3647144  37.4935284  93.8154154 110.7883140  41.4086225
  93.7424326 111.5938111  41.9205529  93.3731547 110.9875106  40.5834246
  93.6043934 110.0254910  34.9189046  92.8211456 110.5676590  35.0127271
  94.3036679 110.5428890  35.3183287  96.9140584  95.8349539  37.5623252
  97.4109283  95.0819502  37.2424322  96.1427565  95.8713856  36.9966461
 104.7670341 101.5389905  39.2041543 104.7560218 102.4214620  38.8335476
 103.8987721 101.1861456  39.0096080  96.2752838 110.6869974  43.5644383
  96.9880810 111.3217439  43.4920285  95.7842866 110.7833840  42.7484385
  97.9970365 104.5921227  35.1361675  97.0626643 104.7122689  34.9666379
  98.1747033 103.6893693  34.8721685  93.4975553  97.9766922  37.2894936
  93.1273340  97.4237963  37.9775842  93.9934645  97.3725056  36.7369936
 101.3842916 100.4338546  35.6711709 101.8503368 101.2666538  35.5972012
 101.8350416  99.9683528  36.3756968  99.4519147 106.7782367  32.6697861
  99.7278991 106.6638962  33.5791735  98.5823646 106.3799852  32.6310034
  99.3559579  92.8019133  39.7102610  98.4422659  93.0323360  39.8784817
  99.7852680  92.8857577  40.5616643  96.0873211 111.0268718  36.3130675
  96.2695606 110.2090374  36.7758427  96.9106197 111.2436410  35.8755565
  96.4215377 109.9536903  33.5745723  96.9503143 109.4429358  32.9615885
  96.6843596 109.6379433  34.4391256  89.7771125 111.0052020  36.3343499
  89.1081500 111.4898148  35.8507539  89.6383994 111.2521240  37.2486878
  93.9176393 113.0395763  42.9326158  94.4694701 113.2027385  43.6975243
  94.2582587 113.6300201  42.2606182  98.7687267 107.8657021  48.7874812
  99.3127171 108.4786979  48.2929767  98.1874112 108.4236599  49.3041825
  85.1458702  99.2670475  33.1139431  85.4412143  98.3581153  33.0606485
  84.2446737  99.2458214  32.7920434  97.0544780 110.9877739  39.9189840
  96.9295920 110.1867479  39.4100785  97.7123872 111.4823932  39.4303810
  88.6752949  97.3426471  39.0966980  87.9539534  97.9562439  38.9574453
  89.4646204  97.8784236  39.0183626  99.1179689 108.7886759  41.5469390
  98.1710024 108.6692110  41.4747717  99.4662462 107.9009257  41.6295651
  86.8746543  96.9484573  33.2378756  86.5459249  96.0681951  33.0553862
  87.2285914  96.8932241  34.1255146  96.1226122 108.5839475  37.7473742
  95.9751085 107.6556183  37.9281312  96.9479616 108.6059566  37.2630817
  89.9888366  97.2357542  33.6054234  90.3284439  97.7643464  32.8832843
  90.4360487  97.5737948  34.3812801  99.7260244 109.4068034  38.8338615
 100.6506791 109.2010895  38.6963066  99.5575547 109.1584435  39.7427956
  91.9756514  95.7332164  31.8047527  92.6964876  96.1113417  31.3011244
  91.3521818  96.4521041  31.9082505  96.1187636  96.4377313  32.7405859
  96.3351251  97.3201951  32.4394687  95.6381704  96.0463526  32.0111501
  90.8586858  99.3963026  39.3176604  90.7131439  99.7103329  40.2100885
  90.3812061 100.0147926  38.7647502  92.7183241  96.3865574  39.3657493
  92.7044809  95.4906667  39.0289791  93.4355669  96.3936238  39.9995779
  94.5709371  96.8202914  41.4110621  94.3127149  97.7419985  41.4094951
  94.0394412  96.4233349  42.1011085  99.5155560 109.9253701  34.1900706
  99.6892438 109.3600124  33.4374559 100.0084451 110.7254596  34.0080196
  92.1220137  95.2679954  34.6345064  92.2436048  94.3396601  34.8335951
  91.8322179  95.2818640  33.7223379  94.9911327  92.9534865  37.7711783
  95.0133024  93.0174198  36.8163763  95.4079386  92.1139373  37.9652290
 105.3694951 102.6890124  35.8091006 105.8126097 101.9397450  35.4110129
 104.4921462 102.6800261  35.4264738 100.5030733 109.2420466  31.2897604
 101.1981637 109.8627159  31.5084919 100.8453883 108.3915817  31.5649982
 102.4022156 106.6920171  32.8184935 102.9273480 107.0307444  32.0934255
 102.3144508 105.7567187  32.6348070  94.0642204 110.6054245  44.9474812
  94.3729331 110.3603392  45.8197511  94.8617686 110.8100883  44.4593682
  94.0862817 112.7592155  37.1780188  93.6467807 112.2668533  37.8713045
  94.8370933 112.2165122  36.9372264  86.5655155 108.9503696  37.1804817
  87.3913175 108.6507467  36.8003460  86.2149207 108.1811318  37.6294605
  91.5336689 108.3030164  39.2502490  90.9116698 107.6400869  38.9504718
  92.2041556 108.3291296  38.5676138  84.7663761 106.8690022  38.1393750
  83.9295669 106.4412196  37.9577751  84.7387406 107.0622465  39.0764541
 102.0916062 107.3253075  48.1236133 101.3011606 107.3077214  47.5840633
 101.8549416 107.8641369  48.8785170 102.2113937 104.1745541  45.4368862
 102.2611942 104.0095549  46.3784385 102.1027860 103.3072800  45.0466743
  91.0950196 106.8534087  32.7260951  91.2438316 107.5369551  32.0727623
  91.9016639 106.8339177  33.2410406 103.7132134 106.5942483  45.6810883
 103.4216942 106.9572463  46.5174344 103.1004265 105.8809491  45.5024215
 104.9127816 104.1595363  38.2013454 105.7474707 104.5985167  38.3651014
 105.0486945 103.6834016  37.3821699  88.8502829 102.8799265  33.7322020
  88.6048870 101.9761595  33.9302230  89.0198743 102.8816415  32.7901498
  88.1198476  98.6127622  31.2308181  87.4267721  98.6871977  30.5748217
  87.8750228  97.8487966  31.7529698  94.5945601 109.3482218  30.1972698
  94.0219568 109.9672405  29.7443170  95.1678395 109.8981579  30.7312620
  97.8142861 109.6319368  31.3281280  98.7473534 109.5664929  31.5314156
  97.7266074 110.4675635  30.8695813 100.4430878 108.9485238  28.2885228
 100.3644509 108.6145102  29.1820986 101.2640544 109.4407006  28.2876700
 103.1409069 101.8146977  41.4961547 103.1085389 100.8762978  41.6821230
 103.7509692 101.8931014  40.7627371  94.9792400 100.6843030  27.5388751
  95.9251504 100.5549238  27.6077169  94.6006645  99.9457692  28.0158179
 100.9514284  92.3499036  37.5015642 100.7539105  92.0414124  38.3858974
 101.5613990  93.0760675  37.6313572 108.9585619 102.8762984  40.6367583
 109.6889007 102.6148272  41.1975287 108.3492564 102.1391706  40.6769651
 107.0400916 101.0170847  41.2342035 106.3134079 100.8826812  40.6258526
 106.6248203 101.3247675  42.0398753  93.1635317  98.6093007  27.4743636
  92.2566772  98.3126119  27.5506349  93.4411298  98.3122825  26.6077922
  94.7797382  93.1529896  33.6287877  93.9698111  92.8076981  34.0043123
  95.4681799  92.8437440  34.2175489  96.7087931  92.2307943  35.2512174
  97.2618969  92.6503397  35.9102197  96.9458017  91.3043691  35.2935130
  91.9334101  95.4679942  27.6155615  92.7953265  95.7934840  27.8751432
  92.1184446  94.6811438  27.1028681  83.9501517 103.5502282  39.8935804
  83.2564989 103.1356234  39.3805758  84.6974508 103.5922818  39.2969223
 100.0866738  94.3408468  34.7590838  99.5065407  94.9993272  34.3768890
  99.8202671  93.5185813  34.3478256  98.5370304  93.7413526  36.9612158
  99.0370083  93.8530061  36.1526477  99.1805912  93.4374579  37.6012967
  85.8638260 103.4820535  37.7701819  85.8408948 103.5808223  36.8183702
  86.1738896 104.3285686  38.0918985  98.8691616  96.5008559  33.8147186
  97.9817471  96.7858209  33.5967381  99.2845605  96.3402322  32.9674463
 102.2206152  96.5255080  37.5301526 102.9966542  97.0151532  37.8026142
 101.4954286  96.9513134  37.9873395 104.6578711  97.2382699  38.5875466
 105.2523201  96.9978435  37.8768774 104.7305294  96.5189829  39.2149002
  86.8775866 111.0816310  38.9018631  86.7430334 110.3216711  38.3356629
  86.4607929 111.8057210  38.4347420  98.0134829 106.2653233  27.9095206
  98.7170679 106.4703236  28.5252862  97.2897478 106.8329995  28.1744290
  98.8432640 102.0163095  34.0297476  98.7867841 102.4731646  33.1905109
  99.3960982 101.2553779  33.8520319 102.6537446  97.8052827  34.8547596
 102.3974380  97.4049462  35.6855804 102.0290314  98.5196620  34.7297735
 106.9649783 100.5448900  37.3618887 106.4049341 100.6142089  38.1350449
 106.3593287 100.3689884  36.6418384  90.0344992 111.9785627  39.1137074
  89.9177376 112.9231059  39.0115764  89.2137438 111.6759188  39.5022873
  99.9221527 106.7035763  29.9593666 100.7567131 106.2716961  29.7771141
  99.7605870 106.5317776  30.8870561  99.5767419 103.2067876  31.3250006
  99.5216223 103.0412147  30.3838450  98.9513474 103.9143909  31.4812195
  92.8863544  92.7075985  30.9035324  92.8742214  93.6517825  31.0603595
  93.7786966  92.5246130  30.6094785  91.0599506 112.6313889  42.3293002
  91.9626753 112.6637499  42.6459497  90.8336876 111.7014340  42.3439338
  92.8153108 111.3844875  38.9903081  91.8648739 111.3846737  38.8767453
  93.1185594 110.6377610  38.4739115  96.7015664  89.3018762  35.1581261
  95.9348060  88.7477248  35.3037943  97.1126369  89.3740630  36.0195412
 108.5505802 117.2205414  40.0548843 109.1884212 117.1012161  39.3512183
 108.4326645 118.1686258  40.1136795 105.3595508 117.1732842  39.9910368
 105.0214020 117.0573907  39.1030903 106.2285276 116.7724007  39.9711374
 101.2182324 119.0268318  35.9807259 100.6547189 118.9358255  35.2123546
 101.1034719 118.2068223  36.4609751 105.8415291 118.3267694  45.9496573
 105.8303932 117.9320492  45.0777077 106.0035931 117.5933766  46.5430345
  98.7646756 120.5219510  38.8191479  99.5568048 120.1810334  38.4037778
  99.0043406 120.6314485  39.7393632 106.7981883 122.6939286  31.2921724
 106.1469862 123.2793366  30.9055737 107.5926245 123.2245481  31.3516761
 100.7237510 119.7828423  31.6908858 101.4968386 119.2357410  31.5521734
 101.0762909 120.6472672  31.9023319 102.5622552 121.1104805  44.8975757
 102.2712418 122.0150436  44.7822424 103.1979537 121.1521333  45.6119827
 103.4878759 118.4881654  41.4877117 104.0842331 118.2637676  40.7734080
 103.5453731 117.7466399  42.0902565 103.0603788 115.9421089  29.3227308
 103.3129308 115.4202610  28.5610771 102.1228347 115.7787235  29.4253991
 108.1047070 114.9456868  37.1302051 108.8910160 114.5276291  36.7792468
 108.3685775 115.8502960  37.2983699 108.2757148 120.3829718  31.8290708
 107.6402981 120.4564344  32.5411613 107.9454554 120.9723317  31.1509787
 113.5055497 114.8832101  38.0335030 114.2380669 114.3131318  38.2672859
 112.7494853 114.4953701  38.4741535 102.7800076 117.8449195  31.5251683
 102.6636334 117.1694099  32.1932767 102.8902336 117.3581569  30.7083836
 105.1231617 117.3059342  35.2298372 104.7589824 116.7789963  35.9411294
 105.9798733 116.9157811  35.0564857 111.0280918 108.5953675  42.4929638
 110.6964243 109.4649086  42.2690853 110.4326531 108.2789959  43.1723669
 104.7637104 112.3349242  30.2259721 104.9311506 113.2029478  30.5930192
 104.5734273 112.4976524  29.3021010 107.5212437 120.7966221  41.8925551
 107.2213160 121.6991260  41.7841358 107.1763497 120.5298404  42.7446704
 100.9724919 117.2480018  37.9262255 100.0475415 117.1156232  38.1339947
 101.2209332 118.0274237  38.4232198 110.9209581 113.3148761  39.5722988
 110.0126458 113.2464169  39.2781749 110.8697177 113.7920706  40.4004814
 104.7426325 114.7906899  31.2106387 104.6225950 115.2363950  32.0491868
 104.0478913 115.1392217  30.6519926  98.3333730 116.8913291  38.7606044
  98.4626111 117.1447770  39.6745456  97.6531181 117.4840999  38.4410699
 102.5033217 127.5610541  34.8596519 102.4257247 128.5118366  34.9384999
 101.8994861 127.2156414  35.5171445 104.9950447 114.7338407  47.5157886
 104.2183781 115.2932327  47.5060750 105.6341010 115.2195190  48.0372756
 112.7871228 111.5165199  41.3500862 112.1445608 111.8097733  40.7040657
 112.2826156 111.4018120  42.1554059 110.4411391 115.2628373  32.0386721
 111.3529247 115.4955759  31.8634419 109.9321038 115.8465417  31.4761800
 103.2496819 117.5423860  47.0775853 103.9911504 118.0808904  46.8010676
 102.5433805 118.1690149  47.2347404 108.7252159 119.6853000  45.6748014
 109.1335515 119.2435411  44.9302646 108.0029420 119.1105628  45.9282207
 105.0783229 114.6225607  43.0481571 105.9244424 115.0465021  43.1916220
 105.0181867 113.9659232  43.7420134 109.0480973 120.2454191  39.4300303
 108.4189836 120.4099905  38.7276371 108.6606636 120.6595801  40.2011267
 112.9270205 121.1808629  36.7844667 112.2421244 121.5607530  36.2341700
 113.0114055 121.7903956  37.5176614 108.2282674 112.2829976  44.7062745
 107.9843606 113.0372036  44.1697020 108.5042605 112.6615323  45.5409992
 110.1821137 118.8268588  43.3840010 110.3938032 119.4700348  42.7074391
 110.1350885 117.9930905  42.9161940 107.7847366 111.4386409  40.2876582
 106.9231845 111.7367662  40.5793320 107.8109801 111.6556808  39.3557615
 104.6008935 119.9828599  36.6950388 105.0647281 120.2616302  35.9055010
 104.3365733 119.0812044  36.5123479 101.4933016 119.5300081  39.6330151
 102.0634373 119.9587349  38.9947636 102.0841128 119.2482665  40.3314337
 103.5377821 116.1051752  33.5039953 104.2401865 116.5572795  33.9713880
 103.2058450 115.4635570  34.1319846 101.9858183 114.6963508  47.8791163
 101.3556844 115.3779789  48.1126559 101.8794271 114.5846590  46.9344301
  97.2803155 114.3635304  38.8057087  96.4902209 114.6192833  38.3297197
  97.7714403 115.1783642  38.9109127 111.2966965 121.7040543  41.5562368
 112.1184409 121.3020731  41.2745049 111.2929368 121.6008778  42.5078483
  99.2317901 114.7279883  35.7640563  98.4349064 114.8398578  36.2824059
  99.0043493 115.0666536  34.8981454 105.0623568 121.2524587  43.7123078
 105.1268001 121.7144994  44.5481250 104.3534492 120.6221952  43.8405388
  95.5640858 114.6165795  41.2372077  95.8148897 115.5012805  41.5029653
  96.1000407 114.4370396  40.4647169 119.3872958 118.0479292  37.9047339
 118.6336666 117.4786690  37.7491343 119.5220499 118.0141956  38.8517974
 104.7771586 122.9192694  33.5802058 104.6417261 123.7644230  34.0086906
 105.3181399 123.1211972  32.8167992 101.2638926 108.9984274  50.2416414
 100.8705871 108.4450473  50.9164058 102.0805066 109.3094852  50.6322931
  98.2300983 120.4368132  34.1529983  98.7425504 121.2311382  34.3035548
  98.8823696 119.7394423  34.0863585 100.0395868 123.5533888  36.2352737
 100.2162496 124.4751853  36.0473721 100.8352702 123.2392308  36.6647116
 104.1806887 110.4142153  47.8336670 104.9216600 111.0149306  47.7541133
 104.4124809 109.6719791  47.2754713  99.3248225 115.5998520  46.1114900
  99.2101740 114.6983778  46.4121999  98.4692742 115.8462217  45.7599716
 106.4040062 123.5416261  47.7102400 105.9603917 122.7552639  47.3923305
 107.0657276 123.7295411  47.0446291 101.1627184 125.0712062  42.2363079
 101.7134609 124.9429126  41.4640073 100.3238659 125.3706951  41.8857972
 108.5021300 123.8219061  45.7383802 108.4839776 124.6427942  45.2464071
 109.4241221 123.6973136  45.9633943 104.9594355 121.3363190  46.5807310
 105.4922691 120.5751478  46.3506618 104.4308436 121.0436842  47.3231465
 108.1264050 106.4423256  42.1100952 107.7828319 107.3324898  42.0340062
 108.4943012 106.2524914  41.2470537  96.1949900 118.7656787  34.9289554
  97.0325122 119.1753795  34.7123262  96.3728168 117.8256229  34.8989748
 108.0914332 116.4331867  30.6173387 107.5760956 117.2036472  30.8561774
 107.8191641 115.7597003  31.2406448 105.6761443 111.2781568  35.6758625
 104.8203040 110.8888418  35.4964264 106.0888395 111.3573529  34.8158411
 107.2060590 108.8127911  40.0750185 106.7025386 108.7758046  39.2617990
 107.4991197 109.7220654  40.1346842 103.4503476 108.8966641  39.0816367
 104.3156473 108.7009450  38.7222256 103.5180985 108.6676993  40.0085724
 113.0648606 119.1864222  32.5526560 112.2878049 118.8475381  32.1081722
 113.7440087 119.1916845  31.8781525 107.8800635 114.3058959  32.4433168
 107.5750771 114.6205108  33.2943311 108.8331078 114.3840379  32.4860501
 106.3247067 120.4649183  34.0926122 105.7968429 119.7301942  33.7799360
 105.8234570 121.2423859  33.8466090 111.3039913 118.6598203  39.2093168
 110.6463588 119.3497464  39.2973297 112.1080313 119.0494635  39.5527155
 101.0565795 111.1268849  36.4532734 101.6309547 110.9044030  35.7205927
 101.6436777 111.1957543  37.2061335 110.1145372 117.0142576  37.2597110
 110.6277254 117.6472568  37.7618820 110.7646596 116.4143771  36.8940470
 101.3835382 113.1573310  30.4728619 100.5472694 113.4947996  30.7937894
 101.2440152 113.0222290  29.5355756 103.3588463 108.0010098  35.1807803
 102.7052875 107.6859115  34.5564418 103.3168937 107.3785838  35.9067626
 104.4699668 118.2829393  27.0961095 103.5626729 118.0518646  27.2952244
 104.9670700 117.4867012  27.2835077 107.3767746 126.9926900  30.0157781
 106.7029445 127.2958597  30.6242739 107.7633568 127.7955980  29.6663238
 106.5926203 114.4892031  39.5055451 105.6748764 114.7106978  39.3477139
 107.0086347 114.5638342  38.6467158 107.3761251 115.8883447  34.6358131
 108.1233070 116.4004844  34.3265253 107.6452840 115.5667500  35.4962524
 105.6487901 118.3841988  31.6185085 104.7399120 118.1001021  31.7157555
 105.6782985 118.8041066  30.7588392 110.8807168 121.9948577  35.3876253
 110.4269495 121.1539487  35.4441443 110.2501135 122.6309976  35.7251033
 109.8240088 112.9240563  36.6176920 109.0862845 112.4117949  36.9487163
 110.0766861 112.4840945  35.8060197 109.3240108 123.8325074  36.3226071
 109.6163082 124.3930131  35.6038437 109.8338728 124.1253635  37.0779230
 109.9251715 105.7016815  37.2118690 110.2310592 104.8414179  36.9244605
 110.6504320 106.2934435  37.0117683  96.2176071 116.1047502  35.6000287
  96.0200471 115.5116863  34.8751354  95.6622735 115.7999712  36.3176226
 104.1972795 115.9970608  37.7194881 104.2521405 115.0444445  37.6437357
 103.3863997 116.1530047  38.2036179 105.3463989 119.9250731  28.9573164
 104.9083419 119.2086590  28.4978801 106.0874430 120.1526846  28.3958255
 102.1365155 114.6147668  35.4785259 101.3233020 114.9141839  35.8850452
 102.6324149 114.2203357  36.1959742 104.2873733 124.6105425  37.4119524
 104.2449912 124.8366271  36.4828056 105.2036432 124.3768800  37.5605325
 107.7339367 115.0789493  44.3100153 108.0888754 115.3060966  45.1694619
 108.3811498 115.4107869  43.6877409 113.4637104 118.2007928  35.0149482
 113.3255002 118.3909524  34.0870672 113.1073322 118.9627311  35.4717533
 101.6279230 112.1866024  41.0946494 102.2678609 112.0454783  40.3969458
 100.7956760 111.9000537  40.7185096 113.4906483 120.2684455  40.0260754
 113.9242990 120.1759745  40.8743808 114.2038064 120.2441956  39.3880770
 102.4039534 121.4868454  37.2081487 103.1980132 120.9918774  37.0064062
 101.6931226 120.9586317  36.8449192 107.2234378 123.8686550  41.5593854
 107.2771400 124.4377486  42.3271570 106.3549159 124.0388435  41.1947892
  98.7122297 115.6311536  33.2841240  97.7819885 115.5695991  33.5011202
  98.8079769 115.1087488  32.4877881  98.6307846 112.1566349  35.8719481
  98.8914663 113.0711682  35.7628642  99.4525018 111.6890791  36.0216094
 100.1032771 113.5704106  43.0418306 100.7755825 113.3621468  42.3930955
  99.2762558 113.3726192  42.6023538 114.3522033 120.3108156  42.5593639
 114.5457923 121.2153967  42.8052914 114.2522651 119.8515575  43.3932224
 106.0058343 110.1966047  45.0583967 105.3586258 110.8955996  44.9648443
 106.7759359 110.6302191  45.4260215 109.4137141 120.4614899  48.1334520
 109.2622648 120.2325451  47.2164604 109.4041821 121.4185500  48.1465865
 106.1822478 118.0346812  43.1180786 107.1114538 118.1857971  42.9449754
 105.7613508 118.1230832  42.2629433 104.9810810 122.0597476  40.8879324
 104.8421895 121.6916260  41.7605262 104.1925406 122.5745115  40.7163282
 105.5758962 127.1606572  32.2304860 105.7510717 126.6894616  33.0450483
 104.8891750 127.7872339  32.4586121 106.5316025 121.4379079  38.2768162
 106.1965857 121.3979849  39.1725812 106.0319970 120.7723795  37.8038572
 100.5060269 116.8446709  43.8020743 100.3680067 116.1126948  44.4032282
 101.4165192 116.7555609  43.5204931 109.4675216 118.7835113  28.5505221
 108.8504387 118.0581941  28.4538274 108.9991705 119.5444473  28.2072296
 103.1342569 116.5566668  43.2904423 103.8442188 115.9159860  43.2491041
 103.0911878 116.8079563  44.2130603 111.1229348 123.4934021  46.2111002
 111.0641894 122.8093241  45.5441585 111.5248866 124.2353011  45.7591628
 101.8471503 113.5431886  45.1100062 101.3108860 113.0922624  45.7621658
 101.2588212 113.6777795  44.3670526 100.1420047 130.3095935  39.0044721
 100.3816645 130.9414459  39.6823739  99.2989243 129.9583975  39.2910080
 101.2573762 113.0020537  27.6726526 100.3803229 112.8809338  27.3088772
 101.7331515 112.2106616  27.4205414 111.1246755 121.4573605  44.4424981
 110.2373534 121.1199527  44.5651380 111.6945306 120.7256637  44.6793747
  92.7775902 117.7897697  37.7668033  93.4646942 117.4759427  37.1789048
  92.6224031 118.6939062  37.4935284  97.5810625 112.6787894  42.1953057
  97.4968813 112.0713563  41.4603466  96.7593331 113.1696912  42.1962553
 104.6547909 126.1175058  41.4086225 104.5818080 126.9230029  41.9205529
 104.2125302 126.3167023  40.5834246 104.4437688 125.3546828  34.9189046
 103.6605210 125.8968508  35.0127271 105.1430433 125.8720807  35.3183287
 107.7534338 111.1641457  37.5623252 108.2503038 110.4111419  37.2424322
 106.9821320 111.2005774  36.9966461 115.6064096 116.8681823  39.2041543
 115.5953972 117.7506538  38.8335476 114.7381475 116.5153373  39.0096080
 107.1146592 126.0161892  43.5644383 107.8274564 126.6509357  43.4920285
 106.6236621 126.1125758  42.7484385 108.8364119 119.9213144  35.1361675
 107.9020398 120.0414607  34.9666379 109.0140788 119.0185611  34.8721685
 104.3369307 113.3058840  37.2894936 103.9667095 112.7529881  37.9775842
 104.8328400 112.7016974  36.7369936 112.2236670 115.7630464  35.6711709
 112.6897123 116.5958455  35.5972012 112.6744171 115.2975445  36.3756968
 102.1658506 123.7656335  44.3849954 102.8667965 124.3992818  44.5379348
 101.6953621 124.1071067  43.6245593 110.2912902 122.1074285  32.6697861
 110.5672745 121.9930880  33.5791735 109.4217400 121.7091770  32.6310034
 110.1953333 108.1311051  39.7102610 109.2816413 108.3615277  39.8784817
 110.6246435 108.2149495  40.5616643 109.9659792 116.3200943  42.2102504
 109.3131242 116.5676850  41.5554957 110.3440172 115.5065081  41.8764982
 106.9266966 126.3560636  36.3130675 107.1089360 125.5382292  36.7758427
 107.7499952 126.5728328  35.8755565 107.2609131 125.2828821  33.5745723
 107.7896898 124.7721275  32.9615885 107.5237351 124.9671351  34.4391256
 106.0147365 117.0620754  48.6968542 105.3388002 116.9614883  49.3670917
 106.8374999 116.9059967  49.1604539  97.7626224 123.2992690  41.3181057
  98.3479661 122.5536378  41.4508961  97.5651062 123.6096647  42.2017721
 100.6164879 126.3343938  36.3343499  99.9475254 126.8190065  35.8507539
 100.4777749 126.5813158  37.2486878  92.3543879 115.8698290  40.0385500
  92.3927978 115.3361881  40.8322618  91.8484171 115.3433496  39.4196477
 104.7570148 128.3687681  42.9326158 105.3088456 128.5319303  43.6975243
 105.0976341 128.9592119  42.2606182  99.7334641 110.7162831  43.5348042
  99.7975967 111.5777662  43.1225440  99.6701761 110.1036833  42.8020401
  99.2086913 112.7885963  47.1821077  99.8358952 112.4063041  47.7958601
  98.3514832 112.5700165  47.5476769 109.6081022 123.1948939  48.7874812
 110.1520926 123.8078897  48.2929767 109.0267867 123.7528517  49.3041825
  95.9852456 114.5962393  33.1139431  96.2805897 113.6873071  33.0606485
  95.0840492 114.5750132  32.7920434 107.8938535 126.3169657  39.9189840
 107.7689674 125.5159396  39.4100785 108.5517626 126.8115850  39.4303810
  99.5146703 112.6718389  39.0966980  98.7933289 113.2854357  38.9574453
 100.3039959 113.2076154  39.0183626 109.9573443 124.1178677  41.5469390
 109.0103779 123.9984028  41.4747717 110.3056216 123.2301175  41.6295651
 102.3173017 110.0072816  45.3707632 102.8407418 110.2535112  46.1333941
 102.0985350 110.8392850  44.9510769  97.7140298 112.2776490  33.2378756
  97.3853004 111.3973869  33.0553862  98.0679668 112.2224159  34.1255146
 106.9619877 123.9131393  37.7473742 106.8144839 122.9848100  37.9281312
 107.7873370 123.9351484  37.2630817 100.8282121 112.5649460  33.6054234
 101.1678193 113.0935381  32.8832843 101.2754241 112.9029866  34.3812801
 110.5653998 124.7359952  38.8338615 111.4900546 124.5302813  38.6963066
 110.3969302 124.4876353  39.7427956 103.5225562 110.9486511  43.0557302
 103.1822382 110.1494324  43.4577982 102.8164568 111.2488222  42.4834135
 104.1742034 108.0335823  41.5084625 104.9968103 107.5596301  41.3863516
 104.4180097 108.8126307  42.0083312 102.8150268 111.0624082  31.8047527
 103.5358631 111.4405334  31.3011244 102.1915572 111.7812958  31.9082505
 106.9581391 111.7669231  32.7405859 107.1745005 112.6493868  32.4394687
 106.4775458 111.3755444  32.0111501 101.6980612 114.7254944  39.3176604
 101.5525193 115.0395247  40.2100885 101.2205816 115.3439844  38.7647502
 103.5576995 111.7157492  39.3657493 103.5438564 110.8198585  39.0289791
 104.2749423 111.7228156  39.9995779 105.4103126 112.1494832  41.4110621
 105.1520904 113.0711903  41.4094951 104.8788166 111.7525267  42.1011085
 110.3549315 125.2545619  34.1900706 110.5286192 124.6892042  33.4374559
 110.8478206 126.0546514  34.0080196  96.1726274 117.2660288  42.2564265
  95.6279743 118.0420096  42.3884539  97.0505624 117.6131093  42.0983386
 102.9613891 110.5971872  34.6345064 103.0829802 109.6688518  34.8335951
 102.6715933 110.6110558  33.7223379 105.8305081 108.2826783  37.7711783
 105.8526778 108.3466116  36.8163763 106.2473140 107.4431291  37.9652290
 116.2088706 118.0182042  35.8091006 116.6519852 117.2689367  35.4110129
 115.3315216 118.0092178  35.4264738 111.3424487 124.5712384  31.2897604
 112.0375392 125.1919076  31.5084919 111.6847637 123.7207735  31.5649982
  96.9592296 116.3930184  45.1494422  96.2174032 116.5412820  45.7359052
  96.6385041 116.6538450  44.2861171 113.2415910 122.0212089  32.8184935
 113.7667234 122.3599362  32.0934255 113.1538263 121.0859104  32.6348070
 104.9035959 125.9346163  44.9474812 105.2123085 125.6895309  45.8197511
 105.7011441 126.1392801  44.4593682 104.9256571 128.0884072  37.1780188
 104.4861561 127.5960451  37.8713045 105.6764688 127.5457040  36.9372264
  97.4048910 124.2795613  37.1804817  98.2306930 123.9799385  36.8003460
  97.0542962 123.5103236  37.6294605 102.3730443 123.6322081  39.2502490
 101.7510452 122.9692786  38.9504718 103.0435310 123.6583213  38.5676138
  95.6057515 122.1981940  38.1393750  94.7689423 121.7704114  37.9577751
  95.5781160 122.3914383  39.0764541 102.4454971 112.1103869  48.8434996
 102.4943126 112.9865992  48.4612766 102.9877485 111.5681262  48.2706639
 112.9309816 122.6544993  48.1236133 112.1405360 122.6369132  47.5840633
 112.6943171 123.1933286  48.8785170 113.0507691 119.5037459  45.4368862
 113.1005696 119.3387467  46.3784385 112.9421615 118.6364718  45.0466743
 101.9343950 122.1826005  32.7260951 102.0832070 122.8661469  32.0727623
 102.7410394 122.1631095  33.2410406 110.3411454 115.4868387  46.7528168
 111.2421317 115.3474852  46.4612166 110.4159428 115.6522842  47.6926346
 104.6754259 112.8635242  45.5981355 103.8057568 113.1568808  45.3263943
 104.9113739 113.4475687  46.3188618 114.5525888 121.9234401  45.6810883
 114.2610696 122.2864381  46.5174344 113.9398019 121.2101409  45.5024215
 115.7521571 119.4887280  38.2013454 116.5868462 119.9277084  38.3651014
 115.8880699 119.0125934  37.3821699 112.8013076 117.0467015  44.1490941
 113.2767198 117.2394662  43.3409793 111.8778642 117.1026201  43.9034325
  99.6896583 118.2091182  33.7322020  99.4442625 117.3053512  33.9302230
  99.8592498 118.2108333  32.7901498 107.3793293 109.0814859  43.1146775
 107.8975237 109.8175886  42.7893264 107.0248426 109.3878852  43.9493534
  98.9592231 113.9419540  31.2308181  98.2661476 114.0163895  30.5748217
  98.7143982 113.1779884  31.7529698 107.6305887 105.5015141  38.6347672
 107.9107641 104.8338330  39.2608098 108.4156494 105.6944237  38.1222336
 105.4339356 124.6774135  30.1972698 104.8613323 125.2964322  29.7443170
 106.0072149 125.2273497  30.7312620 111.5014745 113.9232775  42.3819247
 112.4532168 114.0230873  42.4031471 111.3318196 113.1311044  42.8917331
 109.5229125 111.0088359  42.5678648 108.9279057 111.2893371  41.8725136
 109.2378822 111.4982259  43.3395389 108.6536615 124.9611285  31.3281280
 109.5867289 124.8956847  31.5314156 108.5659828 125.7967552  30.8695813
 111.2824632 124.2777156  28.2885228 111.2038264 123.9437019  29.1820986
 112.1034299 124.7698924  28.2876700 113.9802823 117.1438895  41.4961547
 113.9479143 116.2054896  41.6821230 114.5903447 117.2222932  40.7627371
 105.8186154 116.0134948  27.5388751 106.7645259 115.8841156  27.6077169
 105.4400399 115.2749610  28.0158179 114.1297312 113.9349938  41.5419830
 113.6136360 113.1508395  41.3549759 115.0137260 113.6068655  41.7066349
 111.7908039 107.6790954  37.5015642 111.5932860 107.3706042  38.3858974
 112.4007744 108.4052593  37.6313572 119.7979373 118.2054902  40.6367583
 120.5282762 117.9440190  41.1975287 119.1886319 117.4683624  40.6769651
 117.8794670 116.3462764  41.2342035 117.1527834 116.2118729  40.6258526
 117.4641957 116.6539593  42.0398753 105.7024847 120.0652694  48.9989408
 106.6227856 120.2431293  49.1929454 105.6674430 119.1208739  48.8469107
 104.0029071 113.9384924  27.4743636 103.0960527 113.6418037  27.5506349
 104.2805052 113.6414742  26.6077922  94.9207012 115.2591288  37.9242682
  94.6009796 114.4056596  37.6317056  94.3740440 115.4739866  38.6800650
  98.6986919 117.9753729  41.6412189  98.9172929 118.9070837  41.6600223
  99.1112693 117.6161703  42.4266993 105.6191137 108.4821814  33.6287877
 104.8091865 108.1368899  34.0043123 106.3075554 108.1729358  34.2175489
 107.5481685 107.5599861  35.2512174 108.1012724 107.9795314  35.9102197
 107.7851772 106.6335609  35.2935130 103.5714784 113.5486935  51.0314938
 103.4711511 114.4981291  50.9627029 103.3536327 113.2205173  50.1591008
 102.7727856 110.7971860  27.6155615 103.6347020 111.1226758  27.8751432
 102.9578200 110.0103355  27.1028681  94.7895272 118.8794199  39.8935804
  94.0958743 118.4648152  39.3805758  95.5368263 118.9214736  39.2969223
 110.9260492 109.6700386  34.7590838 110.3459161 110.3285190  34.3768890
 110.6596425 108.8477731  34.3478256 109.3764059 109.0705444  36.9612158
 109.8763837 109.1821978  36.1526477 110.0199667 108.7666497  37.6012967
 103.4346055 116.9784073  49.8479999 102.9513136 117.7784433  50.0543888
 103.5206994 116.9892018  48.8947443  96.7032014 118.8112453  37.7701819
  96.6802702 118.9100140  36.8183702  97.0132651 119.6577604  38.0918985
  99.3619392 120.8688608  41.8848433 100.3162646 120.8372550  41.8178365
  99.1631916 120.4079232  42.6998659  99.9518774 119.4389724  44.4519231
 100.7711663 119.9333803  44.4754068 100.2255582 118.5221692  44.4236798
 109.7085370 111.8300476  33.8147186 108.8211225 112.1150127  33.5967381
 110.1239359 111.6694240  32.9674463 113.0599906 111.8546997  37.5301526
 113.8360297 112.3443450  37.8026142 112.3348041 112.2805052  37.9873395
 115.4972465 112.5674617  38.5875466 116.0916956 112.3270353  37.8768774
 115.5699049 111.8481747  39.2149002  97.7169621 126.4108228  38.9018631
  97.5824089 125.6508628  38.3356629  97.3001683 127.1349127  38.4347420
 108.8528584 121.5945151  27.9095206 109.5564434 121.7995154  28.5252862
 108.1291233 122.1621913  28.1744290 109.6826394 117.3455012  34.0297476
 109.6261596 117.8023564  33.1905109 110.2354737 116.5845697  33.8520319
 113.4931200 113.1344744  34.8547596 113.2368134 112.7341380  35.6855804
 112.8684068 113.8488538  34.7297735 117.8043538 115.8740817  37.3618887
 117.2443096 115.9434007  38.1350449 117.1987041 115.6981802  36.6418384
 100.8738747 127.3077545  39.1137074 100.7571131 128.2522977  39.0115764
 100.0531193 127.0051106  39.5022873 110.7615281 122.0327680  29.9593666
 111.5960885 121.6008879  29.7771141 110.5999624 121.8609694  30.8870561
 110.4161173 118.5359794  31.3250006 110.3609977 118.3704065  30.3838450
 109.7907229 119.2435826  31.4812195  95.2053688 113.7727858  45.1511428
  95.8512552 113.2626812  45.6398653  94.9970840 114.5096540  45.7254853
 107.7307081 120.8408705  50.6503568 108.5998240 121.0149358  50.2890203
 107.2513832 121.6603122  50.5279298 103.7257299 108.0367903  30.9035324
 103.7135969 108.9809743  31.0603595 104.6180721 107.8538048  30.6094785
 101.8993261 127.9605806  42.3293002 102.8020508 127.9929417  42.6459497
 101.6730631 127.0306257  42.3439338 103.6546863 126.7136793  38.9903081
 102.7042494 126.7138655  38.8767453 103.9579349 125.9669528  38.4739115
 107.5409418 104.6310679  35.1581261 106.7741814 104.0769166  35.3037943
 107.9520123 104.7032548  36.0195412  99.5451179 110.9195475  49.2486442
 100.4082641 110.5632280  49.4589767  98.9716590 110.5809370  49.9361846
 119.3899556 132.5497331  40.0548843 120.0277966 132.4304079  39.3512183
 119.2720399 133.4978175  40.1136795 116.1989263 132.5024759  39.9910368
 115.8607774 132.3865824  39.1030903 117.0679031 132.1015925  39.9711374
 112.0576078 134.3560236  35.9807259 111.4940943 134.2650173  35.2123546
 111.9428473 133.5360140  36.4609751 116.6809046 133.6559611  45.9496573
 116.6697686 133.2612409  45.0777077 116.8429685 132.9225684  46.5430345
 109.6040510 135.8511428  38.8191479 110.3961802 135.5102252  38.4037778
 109.8437160 135.9606403  39.7393632 111.5631264 135.1120341  31.6908858
 112.3362140 134.5649328  31.5521734 111.9156663 135.9764590  31.9023319
 113.4016307 136.4396723  44.8975757 113.1106173 137.3442354  44.7822424
 114.0373291 136.4813251  45.6119827 114.3272514 133.8173572  41.4877117
 114.9236086 133.5929594  40.7734080 114.3847485 133.0758317  42.0902565
 113.8997542 131.2713007  29.3227308 114.1523063 130.7494528  28.5610771
 112.9622101 131.1079152  29.4253991 118.9440825 130.2748785  37.1302051
 119.7303914 129.8568208  36.7792468 119.2079529 131.1794877  37.2983699
 124.3449252 130.2124018  38.0335030 125.0774424 129.6423235  38.2672859
 123.5888608 129.8245619  38.4741535 113.6193831 133.1741113  31.5251683
 113.5030089 132.4986016  32.1932767 113.7296091 132.6873487  30.7083836
 115.9625372 132.6351260  35.2298372 115.5983579 132.1081881  35.9411294
 116.8192488 132.2449729  35.0564857 121.8674672 123.9245593  42.4929638
 121.5357997 124.7941004  42.2690853 121.2720286 123.6081877  43.1723669
 115.6030859 127.6641160  30.2259721 115.7705261 128.5321396  30.5930192
 115.4128028 127.8268441  29.3021010 118.3606192 136.1258139  41.8925551
 118.0606915 137.0283177  41.7841358 118.0157251 135.8590322  42.7446704
 111.8118673 132.5771935  37.9262255 110.8869170 132.4448149  38.1339947
 112.0603086 133.3566155  38.4232198 121.7603336 128.6440679  39.5722988
 120.8520213 128.5756087  39.2781749 121.7090931 129.1212624  40.4004814
 115.5820080 130.1198817  31.2106387 115.4619705 130.5655868  32.0491868
 114.8872668 130.4684135  30.6519926 109.1727484 132.2205209  38.7606044
 109.3019866 132.4739688  39.6745456 108.4924936 132.8132917  38.4410699
 113.3426972 142.8902459  34.8596519 113.2651001 143.8410284  34.9384999
 112.7388615 142.5448331  35.5171445 115.8344201 130.0630324  47.5157886
 115.0577535 130.6224244  47.5060750 116.4734764 130.5487107  48.0372756
 123.6264982 126.8457117  41.3500862 122.9839362 127.1389650  40.7040657
 123.1219911 126.7310037  42.1554059 121.2805146 130.5920290  32.0386721
 122.1923002 130.8247677  31.8634419 120.7714793 131.1757335  31.4761800
 114.0890574 132.8715778  47.0775853 114.8305258 133.4100822  46.8010676
 113.3827559 133.4982066  47.2347404 119.5645913 135.0144918  45.6748014
 119.9729269 134.5727329  44.9302646 118.8423175 134.4397546  45.9282207
 115.9176983 129.9517525  43.0481571 116.7638179 130.3756938  43.1916220
 115.8575621 129.2951149  43.7420134 119.8874728 135.5746109  39.4300303
 119.2583590 135.7391823  38.7276371 119.5000390 135.9887718  40.2011267
 123.7663960 136.5100547  36.7844667 123.0814998 136.8899448  36.2341700
 123.8507809 137.1195873  37.5176614 119.0676429 127.6121893  44.7062745
 118.8237361 128.3663954  44.1697020 119.3436359 127.9907241  45.5409992
 121.0214891 134.1560506  43.3840010 121.2331787 134.7992266  42.7074391
 120.9744640 133.3222822  42.9161940 118.6241120 126.7678326  40.2876582
 117.7625599 127.0659580  40.5793320 118.6503555 126.9848725  39.3557615
 115.4402690 135.3120517  36.6950388 115.9041035 135.5908220  35.9055010
 115.1759488 134.4103961  36.5123479 112.3326771 134.8591998  39.6330151
 112.9028128 135.2879267  38.9947636 112.9234883 134.5774583  40.3314337
 114.3771576 131.4343669  33.5039953 115.0795619 131.8864713  33.9713880
 114.0452204 130.7927488  34.1319846 112.8251937 130.0255426  47.8791163
 112.1950598 130.7071707  48.1126559 112.7188025 129.9138507  46.9344301
 108.1196910 129.6927222  38.8057087 107.3295964 129.9484750  38.3297197
 108.6108157 130.5075560  38.9109127 122.1360719 137.0332461  41.5562368
 122.9578163 136.6312648  41.2745049 122.1323122 136.9300695  42.5078483
 110.0711655 130.0571801  35.7640563 109.2742819 130.1690495  36.2824059
 109.8437247 130.3958453  34.8981454 115.9017323 136.5816504  43.7123078
 115.9661755 137.0436912  44.5481250 115.1928247 135.9513869  43.8405388
 106.4034613 129.9457712  41.2372077 106.6542651 130.8304722  41.5029653
 106.9394161 129.7662314  40.4647169 130.2266712 133.3771210  37.9047339
 129.4730421 132.8078608  37.7491343 130.3614254 133.3433874  38.8517974
 115.6165341 138.2484612  33.5802058 115.4811015 139.0936148  34.0086906
 116.1575153 138.4503889  32.8167992 112.1032680 124.3276192  50.2416414
 111.7099626 123.7742390  50.9164058 112.9198820 124.6386770  50.6322931
 109.0694738 135.7660050  34.1529983 109.5819258 136.5603300  34.3035548
 109.7217451 135.0686340  34.0863585 110.8789623 138.8825806  36.2352737
 111.0556251 139.8043771  36.0473721 111.6746456 138.5684225  36.6647116
 115.0200641 125.7434071  47.8336670 115.7610355 126.3441224  47.7541133
 115.2518564 125.0011709  47.2754713 110.1641979 130.9290438  46.1114900
 110.0495494 130.0275695  46.4121999 109.3086497 131.1754135  45.7599716
 117.2433817 138.8708178  47.7102400 116.7997671 138.0844557  47.3923305
 117.9051030 139.0587329  47.0446291 112.0020938 140.4003980  42.2363079
 112.5528363 140.2721043  41.4640073 111.1632414 140.6998869  41.8857972
 119.3415055 139.1510978  45.7383802 119.3233530 139.9719859  45.2464071
 120.2634975 139.0265053  45.9633943 115.7988109 136.6655108  46.5807310
 116.3316446 135.9043396  46.3506618 115.2702190 136.3728760  47.3231465
 118.9657804 121.7715174  42.1100952 118.6222073 122.6616815  42.0340062
 119.3336767 121.5816831  41.2470537 107.0343655 134.0948704  34.9289554
 107.8718877 134.5045713  34.7123262 107.2121922 133.1548146  34.8989748
 118.9308087 131.7623785  30.6173387 118.4154710 132.5328389  30.8561774
 118.6585395 131.0888921  31.2406448 116.5155198 126.6073486  35.6758625
 115.6596794 126.2180336  35.4964264 116.9282150 126.6865446  34.8158411
 118.0454344 124.1419829  40.0750185 117.5419140 124.1049964  39.2617990
 118.3384951 125.0512572  40.1346842 114.2897230 124.2258559  39.0816367
 115.1550227 124.0301367  38.7222256 114.3574739 123.9968910  40.0085724
 118.7194390 129.6350877  32.4433168 118.4144526 129.9497026  33.2943311
 119.6724832 129.7132297  32.4860501 117.1640822 135.7941100  34.0926122
 116.6362183 135.0593860  33.7799360 116.6628325 136.5715777  33.8466090
 122.1433668 133.9890121  39.2093168 121.4857342 134.6789382  39.2973297
 122.9474067 134.3786553  39.5527155 111.8959549 126.4560767  36.4532734
 112.4703301 126.2335948  35.7205927 112.4830532 126.5249461  37.2061335
 120.9539127 132.3434493  37.2597110 121.4671008 132.9764485  37.7618820
 121.6040351 131.7435689  36.8940470 112.2229137 128.4865228  30.4728619
 111.3866449 128.8239914  30.7937894 112.0833906 128.3514207  29.5355756
 114.1982217 123.3302015  35.1807803 113.5446629 123.0151033  34.5564418
 114.1562691 122.7077756  35.9067626 117.4319958 129.8183949  39.5055451
 116.5142519 130.0398896  39.3477139 117.8480101 129.8930259  38.6467158
 118.2155005 131.2175365  34.6358131 118.9626824 131.7296762  34.3265253
 118.4846595 130.8959417  35.4962524 116.4881655 133.7133905  31.6185085
 115.5792875 133.4292938  31.7157555 116.5176739 134.1332984  30.7588392
 121.7200923 137.3240495  35.3876253 121.2663250 136.4831405  35.4441443
 121.0894890 137.9601893  35.7251033 120.6633842 128.2532481  36.6176920
 119.9256599 127.7409867  36.9487163 120.9160616 127.8132863  35.8060197
 120.1633862 139.1616992  36.3226071 120.4556836 139.7222049  35.6038437
 120.6732483 139.4545553  37.0779230 120.7645470 121.0308733  37.2118690
 121.0704347 120.1706096  36.9244605 121.4898075 121.6226353  37.0117683
 107.0569826 131.4339419  35.6000287 106.8594226 130.8408780  34.8751354
 106.5016490 131.1291630  36.3176226 115.0366549 131.3262526  37.7194881
 115.0915159 130.3736362  37.6437357 114.2257752 131.4821965  38.2036179
 112.9758909 129.9439586  35.4785259 112.1626775 130.2433756  35.8850452
 113.4717904 129.5495274  36.1959742 115.1267487 139.9397343  37.4119524
 115.0843666 140.1658189  36.4828056 116.0430186 139.7060717  37.5605325
 118.5733121 130.4081410  44.3100153 118.9282509 130.6352883  45.1694619
 119.2205252 130.7399787  43.6877409 124.3030858 133.5299846  35.0149482
 124.1648757 133.7201442  34.0870672 123.9467077 134.2919229  35.4717533
 112.4672984 127.5157941  41.0946494 113.1072363 127.3746700  40.3969458
 111.6350515 127.2292455  40.7185096 124.3300238 135.5976373  40.0260754
 124.7636744 135.5051662  40.8743808 125.0431818 135.5733874  39.3880770
 113.2433288 136.8160372  37.2081487 114.0373887 136.3210692  37.0064062
 112.5324980 136.2878235  36.8449192 118.0628133 139.1978467  41.5593854
 118.1165155 139.7669404  42.3271570 117.1942914 139.3680352  41.1947892
 109.5516052 130.9603453  33.2841240 108.6213640 130.8987909  33.5011202
 109.6473524 130.4379406  32.4877881 109.4701601 127.4858266  35.8719481
 109.7308418 128.4003599  35.7628642 110.2918773 127.0182709  36.0216094
 110.9426526 128.8996023  43.0418306 111.6149579 128.6913386  42.3930955
 110.1156312 128.7018109  42.6023538 125.1915787 135.6400074  42.5593639
 125.3851677 136.5445884  42.8052914 125.0916405 135.1807493  43.3932224
 116.8452098 125.5257964  45.0583967 116.1980013 126.2247914  44.9648443
 117.6153113 125.9594108  45.4260215 120.2530896 135.7906816  48.1334520
 120.1016402 135.5617368  47.2164604 120.2435575 136.7477418  48.1465865
 117.0216232 133.3638729  43.1180786 117.9508292 133.5149889  42.9449754
 116.6007262 133.4522750  42.2629433 115.8204564 137.3889394  40.8879324
 115.6815650 137.0208178  41.7605262 115.0319160 137.9037033  40.7163282
 117.3709779 136.7670996  38.2768162 117.0359612 136.7271766  39.1725812
 116.8713725 136.1015712  37.8038572 111.3454023 132.1738626  43.8020743
 111.2073821 131.4418865  44.4032282 112.2558947 132.0847526  43.5204931
 113.9736324 131.8858586  43.2904423 114.6835942 131.2451778  43.2491041
 113.9305632 132.1371481  44.2130603 121.9623103 138.8225939  46.2111002
 121.9035649 138.1385159  45.5441585 122.3642621 139.5644929  45.7591628
 112.6865258 128.8723804  45.1100062 112.1502615 128.4214542  45.7621658
 112.0981966 129.0069712  44.3670526 110.9813801 145.6387853  39.0044721
 111.2210400 146.2706377  39.6823739 110.1382998 145.2875893  39.2910080
 112.0967517 128.3312455  27.6726526 111.2196983 128.2101256  27.3088772
 112.5725270 127.5398533  27.4205414 121.9640510 136.7865523  44.4424981
 121.0767289 136.4491445  44.5651380 122.5339061 136.0548554  44.6793747
 103.6169657 133.1189615  37.7668033 104.3040697 132.8051345  37.1789048
 103.4617786 134.0230979  37.4935284 108.4204379 128.0079811  42.1953057
 108.3362568 127.4005481  41.4603466 107.5987085 128.4988830  42.1962553
 115.4941663 141.4466975  41.4086225 115.4211835 142.2521947  41.9205529
 115.0519056 141.6458941  40.5834246 115.2831443 140.6838745  34.9189046
 114.4998965 141.2260426  35.0127271 115.9824188 141.2012725  35.3183287
 118.5928093 126.4933375  37.5623252 119.0896792 125.7403337  37.2424322
 117.8215074 126.5297691  36.9966461 126.4457850 132.1973740  39.2041543
 126.4347727 133.0798456  38.8335476 125.5775230 131.8445291  39.0096080
 117.9540347 141.3453809  43.5644383 118.6668319 141.9801274  43.4920285
 117.4630375 141.4417675  42.7484385 119.6757874 135.2505062  35.1361675
 118.7414152 135.3706524  34.9666379 119.8534542 134.3477529  34.8721685
 115.1763062 128.6350758  37.2894936 114.8060849 128.0821798  37.9775842
 115.6722154 128.0308891  36.7369936 123.0630425 131.0922381  35.6711709
 123.5290877 131.9250373  35.5972012 123.5137925 130.6267363  36.3756968
 113.0052260 139.0948253  44.3849954 113.7061720 139.7284736  44.5379348
 112.5347375 139.4362984  43.6245593 121.0347088 123.4602968  39.7102610
 120.1210168 123.6907195  39.8784817 121.4640189 123.5441412  40.5616643
 120.8053546 131.6492860  42.2102504 120.1524996 131.8968768  41.5554957
 121.1833926 130.8356998  41.8764982 117.7660720 141.6852553  36.3130675
 117.9483115 140.8674209  36.7758427 118.5893706 141.9020246  35.8755565
 116.8541119 132.3912671  48.6968542 116.1781756 132.2906801  49.3670917
 117.6768753 132.2351885  49.1604539 108.6019978 138.6284608  41.3181057
 109.1873415 137.8828296  41.4508961 108.4044817 138.9388565  42.2017721
 111.4558634 141.6635855  36.3343499 110.7869009 142.1481983  35.8507539
 111.3171503 141.9105076  37.2486878 103.1937633 131.1990208  40.0385500
 103.2321733 130.6653799  40.8322618 102.6877926 130.6725414  39.4196477
 115.5963902 143.6979599  42.9326158 116.1482210 143.8611220  43.6975243
 115.9370096 144.2884037  42.2606182 110.5728395 126.0454749  43.5348042
 110.6369722 126.9069579  43.1225440 110.5095516 125.4328750  42.8020401
 110.0480668 128.1177881  47.1821077 110.6752707 127.7354958  47.7958601
 109.1908587 127.8992083  47.5476769 120.4474776 138.5240856  48.7874812
 120.9914680 139.1370815  48.2929767 119.8661621 139.0820435  49.3041825
 106.8246211 129.9254310  33.1139431 107.1199652 129.0164989  33.0606485
 105.9234246 129.9042050  32.7920434 118.7332289 141.6461574  39.9189840
 118.6083429 140.8451314  39.4100785 119.3911381 142.1407768  39.4303810
 110.3540458 128.0010307  39.0966980 109.6327043 128.6146275  38.9574453
 111.1433713 128.5368072  39.0183626 120.7967198 139.4470594  41.5469390
 119.8497533 139.3275946  41.4747717 121.1449971 138.5593092  41.6295651
 113.1566771 125.3364733  45.3707632 113.6801173 125.5827030  46.1333941
 112.9379104 126.1684768  44.9510769 108.5534052 127.6068408  33.2378756
 108.2246758 126.7265787  33.0553862 108.9073423 127.5516077  34.1255146
 117.8013631 139.2423311  37.7473742 117.6538594 138.3140018  37.9281312
 118.6267125 139.2643401  37.2630817 111.6675875 127.8941378  33.6054234
 112.0071948 128.4227299  32.8832843 112.1147996 128.2321784  34.3812801
 121.4047753 140.0651869  38.8338615 122.3294300 139.8594731  38.6963066
 121.2363056 139.8168271  39.7427956 114.3619316 126.2778428  43.0557302
 114.0216137 125.4786241  43.4577982 113.6558322 126.5780139  42.4834135
 115.0135788 123.3627741  41.5084625 115.8361857 122.8888219  41.3863516
 115.2573852 124.1418225  42.0083312 113.6544023 126.3915999  31.8047527
 114.3752385 126.7697252  31.3011244 113.0309327 127.1104876  31.9082505
 117.7975145 127.0961148  32.7405859 118.0138760 127.9785786  32.4394687
 117.3169213 126.7047362  32.0111501 112.5374367 130.0546861  39.3176604
 112.3918947 130.3687165  40.2100885 112.0599570 130.6731762  38.7647502
 114.3970750 127.0449409  39.3657493 114.3832318 126.1490503  39.0289791
 115.1143178 127.0520073  39.9995779 116.2496880 127.4786750  41.4110621
 115.9914658 128.4003820  41.4094951 115.7181921 127.0817184  42.1011085
 107.0120029 132.5952206  42.2564265 106.4673497 133.3712014  42.3884539
 107.8899379 132.9423010  42.0983386 113.8007646 125.9263790  34.6345064
 113.9223557 124.9980436  34.8335951 113.5109688 125.9402476  33.7223379
 116.6698836 123.6118700  37.7711783 116.6920533 123.6758033  36.8163763
 117.0866895 122.7723209  37.9652290 127.0482460 133.3473960  35.8091006
 127.4913606 132.5981285  35.4110129 126.1708971 133.3384096  35.4264738
 107.7986051 131.7222102  45.1494422 107.0567787 131.8704737  45.7359052
 107.4778795 131.9830368  44.2861171 115.7429713 141.2638080  44.9474812
 116.0516840 141.0187227  45.8197511 116.5405195 141.4684719  44.4593682
 115.7650325 143.4175990  37.1780188 115.3255316 142.9252369  37.8713045
 116.5158442 142.8748958  36.9372264 108.2442664 139.6087531  37.1804817
 109.0700684 139.3091303  36.8003460 107.8936716 138.8395153  37.6294605
 113.2124198 138.9613999  39.2502490 112.5904207 138.2984704  38.9504718
 113.8829065 138.9875131  38.5676138 106.4451270 137.5273857  38.1393750
 105.6083178 137.0996032  37.9577751 106.4174915 137.7206301  39.0764541
 113.2848725 127.4395787  48.8434996 113.3336881 128.3157910  48.4612766
 113.8271239 126.8973180  48.2706639 123.7703571 137.9836910  48.1236133
 122.9799115 137.9661049  47.5840633 123.5336925 138.5225204  48.8785170
 123.8901446 134.8329377  45.4368862 123.9399451 134.6679384  46.3784385
 123.7815369 133.9656636  45.0466743 112.7737705 137.5117922  32.7260951
 112.9225825 138.1953387  32.0727623 113.5804148 137.4923012  33.2410406
 121.1805208 130.8160305  46.7528168 122.0815071 130.6766770  46.4612166
 121.2553183 130.9814760  47.6926346 115.5148014 128.1927160  45.5981355
 114.6451323 128.4860726  45.3263943 115.7507494 128.7767605  46.3188618
 125.3919643 137.2526318  45.6810883 125.1004451 137.6156299  46.5174344
 124.7791774 136.5393327  45.5024215 126.5915325 134.8179198  38.2013454
 127.4262216 135.2569002  38.3651014 126.7274454 134.3417851  37.3821699
 123.6406831 132.3758933  44.1490941 124.1160953 132.5686579  43.3409793
 122.7172396 132.4318119  43.9034325 110.5290338 133.5383100  33.7322020
 110.2836379 132.6345430  33.9302230 110.6986252 133.5400251  32.7901498
 118.2187047 124.4106776  43.1146775 118.7368991 125.1467803  42.7893264
 117.8642180 124.7170770  43.9493534 109.7985985 129.2711458  31.2308181
 109.1055230 129.3455813  30.5748217 109.5537737 128.5071801  31.7529698
 118.4699642 120.8307059  38.6347672 118.7501395 120.1630248  39.2608098
 119.2550249 121.0236155  38.1222336 122.3408500 129.2524693  42.3819247
 123.2925923 129.3522791  42.4031471 122.1711950 128.4602962  42.8917331
 120.3622879 126.3380276  42.5678648 119.7672812 126.6185289  41.8725136
 120.0772576 126.8274177  43.3395389 124.8196578 132.4730813  41.4961547
 124.7872898 131.5346813  41.6821230 125.4297201 132.5514849  40.7627371
 124.9691066 129.2641856  41.5419830 124.4530115 128.4800313  41.3549759
 125.8531015 128.9360573  41.7066349 122.6301793 123.0082872  37.5015642
 122.4326614 122.6997960  38.3858974 123.2401499 123.7344511  37.6313572
 130.6373128 133.5346820  40.6367583 131.3676516 133.2732108  41.1975287
 130.0280073 132.7975541  40.6769651 128.7188425 131.6754682  41.2342035
 127.9921588 131.5410647  40.6258526 128.3035712 131.9831511  42.0398753
 116.5418601 135.3944612  48.9989408 117.4621611 135.5723211  49.1929454
 116.5068184 134.4500657  48.8469107 114.8422826 129.2676842  27.4743636
 113.9354281 128.9709955  27.5506349 115.1198807 128.9706660  26.6077922
 105.7600766 130.5883205  37.9242682 105.4403550 129.7348514  37.6317056
 105.2134194 130.8031784  38.6800650 109.5380674 133.3045646  41.6412189
 109.7566683 134.2362754  41.6600223 109.9506447 132.9453621  42.4266993
 116.4584891 123.8113732  33.6287877 115.6485620 123.4660817  34.0043123
 117.1469308 123.5021275  34.2175489 118.3875440 122.8891779  35.2512174
 118.9406478 123.3087232  35.9102197 118.6245526 121.9627527  35.2935130
 114.4108539 128.8778852  51.0314938 114.3105266 129.8273209  50.9627029
 114.1930081 128.5497091  50.1591008 113.6121610 126.1263777  27.6155615
 114.4740774 126.4518676  27.8751432 113.7971955 125.3395273  27.1028681
 105.6289026 134.2086117  39.8935804 104.9352498 133.7940070  39.3805758
 106.3762017 134.2506653  39.2969223 121.7654247 124.9992304  34.7590838
 121.1852916 125.6577108  34.3768890 121.4990180 124.1769648  34.3478256
 120.2157813 124.3997361  36.9612158 120.7157592 124.5113896  36.1526477
 120.8593421 124.0958414  37.6012967 114.2739809 132.3075991  49.8479999
 113.7906891 133.1076351  50.0543888 114.3600748 132.3183936  48.8947443
 107.5425769 134.1404371  37.7701819 107.5196457 134.2392058  36.8183702
 107.8526405 134.9869521  38.0918985 110.2013147 136.1980526  41.8848433
 111.1556400 136.1664468  41.8178365 110.0025670 135.7371149  42.6998659
 110.7912529 134.7681642  44.4519231 111.6105418 135.2625720  44.4754068
 111.0649336 133.8513610  44.4236798 120.5479125 127.1592394  33.8147186
 119.6604980 127.4442045  33.5967381 120.9633114 126.9986157  32.9674463
 123.8993661 127.1838915  37.5301526 124.6754051 127.6735368  37.8026142
 123.1741795 127.6096969  37.9873395 126.3366220 127.8966534  38.5875466
 126.9310710 127.6562270  37.8768774 126.4092803 127.1773665  39.2149002
 108.5563375 141.7400145  38.9018631 108.4217843 140.9800546  38.3356629
 108.1395438 142.4641045  38.4347420 120.5220149 132.6746930  34.0297476
 120.4655350 133.1315481  33.1905109 121.0748491 131.9137615  33.8520319
 124.3324955 128.4636662  34.8547596 124.0761889 128.0633298  35.6855804
 123.7077823 129.1780456  34.7297735 128.6437292 131.2032735  37.3618887
 128.0836850 131.2725924  38.1350449 128.0380796 131.0273720  36.6418384
 111.7132501 142.6369462  39.1137074 111.5964885 143.5814895  39.0115764
 110.8924947 142.3343024  39.5022873 106.0447443 129.1019776  45.1511428
 106.6906306 128.5918730  45.6398653 105.8364594 129.8388457  45.7254853
 118.5700835 136.1700623  50.6503568 119.4391995 136.3441275  50.2890203
 118.0907587 136.9895040  50.5279298 114.5651053 123.3659820  30.9035324
 114.5529723 124.3101660  31.0603595 115.4574475 123.1829966  30.6094785
 112.7387015 143.2897724  42.3293002 113.6414262 143.3221334  42.6459497
 112.5124385 142.3598175  42.3439338 114.4940617 142.0428711  38.9903081
 113.5436248 142.0430572  38.8767453 114.7973103 141.2961445  38.4739115
 118.3803173 119.9602597  35.1581261 117.6135569 119.4061084  35.3037943
 118.7913878 120.0324466  36.0195412 110.3844934 126.2487393  49.2486442
 111.2476395 125.8924198  49.4589767 109.8110345 125.9101288  49.9361846
 127.5202800 148.9851529  45.9496573 127.5091441 148.5904327  45.0777077
 127.6823440 148.2517602  46.5430345 124.2410061 151.7688641  44.8975757
 123.9499927 152.6734272  44.7822424 124.8767046 151.8105168  45.6119827
 132.7068427 139.2537510  42.4929638 132.3751752 140.1232921  42.2690853
 132.1114040 138.9373794  43.1723669 126.6737956 145.3922242  47.5157886
 125.8971290 145.9516162  47.5060750 127.3128519 145.8779025  48.0372756
 124.9284328 148.2007695  47.0775853 125.6699013 148.7392739  46.8010676
 124.2221314 148.8273984  47.2347404 126.7570738 145.2809443  43.0481571
 127.6031933 145.7048856  43.1916220 126.6969376 144.6243067  43.7420134
 129.9070183 142.9413811  44.7062745 129.6631115 143.6955871  44.1697020
 130.1830114 143.3199159  45.5409992 123.6645692 145.3547344  47.8791163
 123.0344353 146.0363624  48.1126559 123.5581780 145.2430425  46.9344301
 118.9590664 145.0219140  38.8057087 118.1689718 145.2776668  38.3297197
 119.4501912 145.8367477  38.9109127 117.2428367 145.2749630  41.2372077
 117.4936406 146.1596640  41.5029653 117.7787916 145.0954232  40.4647169
 122.9426435 139.6568109  50.2416414 122.5493380 139.1034308  50.9164058
 123.7592575 139.9678688  50.6322931 125.8594396 141.0725988  47.8336670
 126.6004109 141.6733142  47.7541133 126.0912318 140.3303626  47.2754713
 121.0035734 146.2582356  46.1114900 120.8889249 145.3567613  46.4121999
 120.1480251 146.5046052  45.7599716 126.6381864 151.9947025  46.5807310
 127.1710200 151.2335314  46.3506618 126.1095945 151.7020677  47.3231465
 129.8051559 137.1007091  42.1100952 129.4615828 137.9908733  42.0340062
 130.1730521 136.9108749  41.2470537 128.8848099 139.4711747  40.0750185
 128.3812895 139.4341882  39.2617990 129.1778706 140.3804489  40.1346842
 125.1290985 139.5550476  39.0816367 125.9943982 139.3593285  38.7222256
 125.1968494 139.3260828  40.0085724 129.4126876 145.7373328  44.3100153
 129.7676263 145.9644801  45.1694619 130.0599007 146.0691705  43.6877409
 123.3066739 142.8449859  41.0946494 123.9466118 142.7038618  40.3969458
 122.4744269 142.5584372  40.7185096 121.7820280 144.2287941  43.0418306
 122.4543334 144.0205303  42.3930955 120.9550067 144.0310027  42.6023538
 127.6845852 140.8549882  45.0583967 127.0373767 141.5539832  44.9648443
 128.4546868 141.2886026  45.4260215 131.0924650 151.1198734  48.1334520
 130.9410157 150.8909286  47.2164604 131.0829330 152.0769336  48.1465865
 122.1847778 147.5030544  43.8020743 122.0467576 146.7710783  44.4032282
 123.0952701 147.4139444  43.5204931 124.8130078 147.2150503  43.2904423
 125.5229697 146.5743696  43.2491041 124.7699386 147.4663398  44.2130603
 123.5259012 144.2015721  45.1100062 122.9896369 143.7506460  45.7621658
 122.9375721 144.3361630  44.3670526 119.2598134 143.3371729  42.1953057
 119.1756322 142.7297399  41.4603466 118.4380840 143.8280747  42.1962553
 131.8740842 138.7894886  39.7102610 130.9603922 139.0199113  39.8784817
 132.3033944 138.8733330  40.5616643 127.6934874 147.7204589  48.6968542
 127.0175511 147.6198718  49.3670917 128.5162508 147.5643803  49.1604539
 114.0331388 146.5282126  40.0385500 114.0715487 145.9945716  40.8322618
 113.5271680 146.0017331  39.4196477 121.4122150 141.3746666  43.5348042
 121.4763476 142.2361497  43.1225440 121.3489270 140.7620668  42.8020401
 120.8874422 143.4469799  47.1821077 121.5146461 143.0646876  47.7958601
 120.0302341 143.2284001  47.5476769 121.1934212 143.3302224  39.0966980
 120.4720798 143.9438192  38.9574453 121.9827468 143.8659989  39.0183626
 123.9960526 140.6656651  45.3707632 124.5194927 140.9118948  46.1333941
 123.7772859 141.4976686  44.9510769 125.2013071 141.6070346  43.0557302
 124.8609891 140.8078159  43.4577982 124.4952077 141.9072057  42.4834135
 125.8529542 138.6919659  41.5084625 126.6755612 138.2180137  41.3863516
 126.0967606 139.4710142  42.0083312 125.2364504 142.3741327  39.3657493
 125.2226073 141.4782420  39.0289791 125.9536932 142.3811991  39.9995779
 127.0890635 142.8078667  41.4110621 126.8308413 143.7295738  41.4094951
 126.5575675 142.4109102  42.1011085 117.8513783 147.9244124  42.2564265
 117.3067251 148.7003932  42.3884539 118.7293133 148.2714928  42.0983386
 118.6379805 147.0514020  45.1494422 117.8961541 147.1996655  45.7359052
 118.3172550 147.3122285  44.2861171 124.1242480 142.7687705  48.8434996
 124.1730635 143.6449828  48.4612766 124.6664994 142.2265098  48.2706639
 132.0198963 146.1452222  46.7528168 132.9208825 146.0058687  46.4612166
 132.0946937 146.3106677  47.6926346 126.3541768 143.5219077  45.5981355
 125.4845077 143.8152643  45.3263943 126.5901248 144.1059522  46.3188618
 129.0580802 139.7398694  43.1146775 129.5762746 140.4759721  42.7893264
 128.7035935 140.0462687  43.9493534 129.3093396 136.1598977  38.6347672
 129.5895150 135.4922166  39.2608098 130.0944003 136.3528072  38.1222336
 131.2016634 141.6672194  42.5678648 130.6066566 141.9477207  41.8725136
 130.9166331 142.1566095  43.3395389 127.3812356 150.7236529  48.9989408
 128.3015365 150.9015128  49.1929454 127.3461939 149.7792575  48.8469107
 116.5994521 145.9175123  37.9242682 116.2797305 145.0640431  37.6317056
 116.0527949 146.1323701  38.6800650 120.3774428 148.6337564  41.6412189
 120.5960438 149.5654672  41.6600223 120.7900202 148.2745539  42.4266993
 125.2502293 144.2070770  51.0314938 125.1499020 145.1565127  50.9627029
 125.0323836 143.8789009  50.1591008 116.4682781 149.5378035  39.8935804
 115.7746252 149.1231987  39.3805758 117.2155772 149.5798571  39.2969223
 125.1133564 147.6367909  49.8479999 124.6300645 148.4368269  50.0543888
 125.1994503 147.6475854  48.8947443 121.6306283 150.0973559  44.4519231
 122.4499172 150.5917638  44.4754068 121.9043091 149.1805528  44.4236798
 116.8841197 144.4311693  45.1511428 117.5300061 143.9210647  45.6398653
 116.6758348 145.1680375  45.7254853 129.4094590 151.4992541  50.6503568
 130.2785749 151.6733193  50.2890203 128.9301341 152.3186958  50.5279298
 121.2238688 141.5779310  49.2486442 122.0870150 141.2216115  49.4589767
 120.6504099 141.2393205  49.9361846  51.6446520  18.6870228  32.6741880
  51.6335161  18.2923026  31.8022384  51.8067159  17.9536300  33.2675651
  48.3653781  21.4707340  31.6221064  48.0743647  22.3752970  31.5067730
  49.0010765  21.5123867  32.3365133  53.3243666  21.1568755  28.6170858
  53.0244389  22.0593794  28.5086665  52.9794726  20.8900938  29.4692010
  50.7981676  15.0940941  34.2403192  50.0215010  15.6534861  34.2306057
  51.4372239  15.5797724  34.7618062  49.0528048  17.9026394  33.8021159
  49.7942732  18.4411438  33.5255983  48.3465033  18.5292683  33.9592711
  54.5283388  20.0455535  32.3993321  54.9366744  19.6037945  31.6547953
  53.8060649  19.4708162  32.6527514  54.0313903  12.6432510  31.4308051
  53.7874835  13.3974570  30.8942327  54.3073834  13.0217857  32.2655298
  55.9852366  19.1871122  30.1085317  56.1969261  19.8302882  29.4319698
  55.9382114  18.3533439  29.6407247  47.7889412  15.0566042  34.6036469
  47.1588072  15.7382323  34.8371866  47.6825500  14.9449124  33.6589607
  57.0998194  22.0643078  28.2807674  57.9215637  21.6623265  27.9990356
  57.0960597  21.9611312  29.2323790  50.8654797  21.6127121  30.4368385
  50.9299230  22.0747528  31.2726557  50.1565721  20.9824486  30.5650695
  65.1904187  18.4081826  24.6292646  64.4367895  17.8389224  24.4736650
  65.3251728  18.3744491  25.5763280  47.0670154   9.3586808  36.9661720
  46.6737100   8.8053007  37.6409364  47.8836295   9.6697387  37.3568238
  52.2071291  23.9018795  34.4347707  51.7635145  23.1155173  34.1168612
  52.8688505  24.0897945  33.7691598  46.9658412  25.4314596  28.9608386
  47.5165838  25.3031660  28.1885380  46.1269888  25.7309485  28.6103278
  54.3052529  24.1821595  32.4629108  54.2871005  25.0030476  31.9709378
  55.2272449  24.0575670  32.6879250  50.7625583  21.6965724  33.3052617
  51.2953920  20.9354012  33.0751925  50.2339665  21.4039376  34.0476771
  53.5370595  15.4392027  31.0345460  53.8919983  15.6663500  31.8939926
  54.1842727  15.7710404  30.4122715  59.2937712  20.6286990  26.7506061
  59.7274219  20.5362279  27.5989115  60.0069293  20.6044490  26.1126077
  53.0265607  24.2289084  28.2839161  53.0802629  24.7980020  29.0516877
  52.1580388  24.3990969  27.9193198  60.1553262  20.6710690  29.2838946
  60.3489152  21.5756501  29.5298221  60.0553880  20.2118109  30.1177531
  55.2168370  20.8217433  34.8579827  55.0653877  20.5927985  33.9409910
  55.2073050  21.7788034  34.8711172  51.9853707  18.3949346  29.8426093
  52.9145767  18.5460505  29.6695060  51.5644737  18.4833367  28.9874739
  50.7842038  22.4200010  27.6124631  50.6453124  22.0518795  28.4850569
  49.9956635  22.9347650  27.4408588  56.9260577  23.8536556  32.9356308
  56.8673123  23.1695776  32.2686891  57.3280095  24.5955546  32.4836934
  45.9451276  30.6698469  25.7290027  46.1847874  31.3016994  26.4069046
  45.1020472  30.3186509  26.0155387  56.9277984  21.8176140  31.1670288
  56.0404763  21.4802061  31.2896687  57.4976535  21.0859171  31.4039053
  50.4579138  26.4777592  28.1331531  50.3849309  27.2832563  28.6450836
  50.0156531  26.6769558  27.3079553  52.9177821  26.3764426  30.2889690
  53.6305793  27.0111891  30.2165591  52.4267850  26.4728292  29.4729692
  47.9689735  24.1258869  31.1095261  48.6699194  24.7595352  31.2624655
  47.4984850  24.4673601  30.3490900  55.7691021  16.6803477  28.9347811
  55.1162471  16.9279384  28.2800264  56.1471400  15.8667615  28.6010288
  51.8178594  17.4223288  35.4213848  51.1419231  17.3217417  36.0916223
  52.6406227  17.2662502  35.8849845  50.5601376  28.7290215  29.6571464
  51.1119684  28.8921837  30.4220549  50.9007570  29.3194653  28.9851489
  55.4112251  23.5551473  35.5120119  55.9552155  24.1681431  35.0175073
  54.8299096  24.1131051  36.0287132  53.6969764  26.6772191  26.6435146
  53.5720903  25.8761931  26.1346092  54.3548855  27.1718384  26.1549116
  55.7604672  24.4781211  28.2714696  54.8135008  24.3586562  28.1993023
  56.1087445  23.5903709  28.3540958  56.3685227  25.0962486  25.5583921
  57.2931775  24.8905347  25.4208373  56.2000531  24.8478887  26.4673263
  50.7067188  26.2948697  31.6720119  51.0154314  26.0497844  32.5442818
  51.5042670  26.4995335  31.1838989  50.7287800  28.4486607  23.9025495
  50.2892790  27.9562985  24.5958352  51.4795917  27.9059574  23.6617570
  48.2486199  12.4706404  35.5680303  48.2974355  13.3468526  35.1858072
  48.7908714  11.9283797  34.9951946  58.7341045  23.0147527  34.8481440
  57.9436589  22.9971666  34.3085939  58.4974400  23.5535821  35.6030476
  58.8538920  19.8639993  32.1614168  58.9036925  19.6990001  33.1029691
  58.7452844  18.9967252  31.7712049  56.1442683  15.8470921  33.4773475
  57.0452545  15.7077386  33.1857473  56.2190657  16.0125376  34.4171653
  60.3557117  22.2836935  32.4056190  60.0641925  22.6466915  33.2419651
  59.7429248  21.5703943  32.2269522  61.5552799  19.8489815  24.9258760
  62.3899691  20.2879619  25.0896321  61.6911928  19.3728468  24.1067006
  58.6044305  17.4069549  30.8736248  59.0798427  17.5997196  30.0655099
  57.6809871  17.4628735  30.6279632  57.3045974  14.2835310  29.1064554
  58.2563397  14.3833407  29.1276778  57.1349425  13.4913578  29.6162638
  59.7834052  17.5041429  28.2206853  59.7510372  16.5657430  28.4066537
  60.3934676  17.5825466  27.4872678  65.6010602  18.5657436  27.3612890
  66.3313990  18.3042724  27.9220593  64.9917547  17.8286158  27.4014958
  63.6825899  16.7065299  27.9587341  62.9559063  16.5721264  27.3503833
  63.2673186  17.0142127  28.7644059  51.5056075  20.4255228  35.7234714
  52.4259085  20.6033827  35.9174761  51.4705658  19.4811274  35.5714413
  49.3746013  13.9089469  37.7560244  49.2742740  14.8583826  37.6872335
  49.1567555  13.5807708  36.8836314  49.2377283  17.3386608  36.5725306
  48.7544365  18.1386968  36.7789195  49.3238222  17.3494552  35.6192750
  45.7550003  19.7992258  31.1764537  46.5742892  20.2936337  31.1999375
  46.0286811  18.8824226  31.1482105  46.6769975  27.6680079  25.8382380
  46.5602360  28.6125511  25.7361070  45.8562422  27.3653640  26.2268179
  53.5338309  21.2011240  37.3748875  54.4029469  21.3751892  37.0135510
  53.0545061  22.0205656  37.2524604  47.7024490  28.3208341  29.0538309
  48.6051736  28.3531951  29.3704804  47.4761860  27.3908792  29.0684644
  49.4578092  27.0739327  25.7148387  48.5073723  27.0741189  25.6012760
  49.7610578  26.3272062  25.1984422  45.3482408  11.2798009  35.9731749
  46.2113870  10.9234814  36.1835073  44.7747819  10.9411904  36.6607153
  65.1930785  32.9099866  26.7794150  65.8309195  32.7906613  26.0757490
  65.0751628  33.8580710  26.8382102  62.0020491  32.8627294  26.7155674
  61.6639003  32.7468358  25.8276209  62.8710260  32.4618459  26.6956681
  57.8607307  34.7162770  22.7052565  57.2972172  34.6252707  21.9368853
  57.7459702  33.8962675  23.1855058  62.4840274  34.0162145  32.6741880
  62.4728915  33.6214944  31.8022384  62.6460914  33.2828218  33.2675651
  55.4071739  36.2113962  25.5436786  56.1993031  35.8704786  25.1283085
  55.6468389  36.3208937  26.4638939  63.4406866  38.3833738  18.0167030
  62.7894846  38.9687818  17.6301044  64.2351229  38.9139933  18.0762068
  57.3662493  35.4722875  18.4154165  58.1393369  34.9251862  18.2767040
  57.7187892  36.3367124  18.6268626  59.2047536  36.7999257  31.6221064
  58.9137402  37.7044888  31.5067730  59.8404520  36.8415785  32.3365133
  60.1303742  34.1776106  28.2122424  60.7267315  33.9532128  27.4979386
  60.1878714  33.4360851  28.8147871  64.7472054  30.6351319  23.8547358
  65.5335143  30.2170743  23.5037775  65.0110758  31.5397412  24.0229006
  64.9182131  36.0724170  18.5536015  64.2827964  36.1458796  19.2656919
  64.5879537  36.6617769  17.8755094  70.1480481  30.5726553  24.7580336
  70.8805653  30.0025769  24.9918166  69.3919836  30.1848153  25.1986842
  59.4225060  33.5343647  18.2496989  59.3061318  32.8588550  18.9178074
  59.5327319  33.0476021  17.4329143  61.7656600  32.9953794  21.9543679
  61.4014808  32.4684415  22.6656600  62.6223716  32.6052263  21.7810164
  67.6705901  24.2848127  29.2174945  67.3389226  25.1543538  28.9936160
  67.0751514  23.9684411  29.8968975  64.1637421  36.4860673  28.6170858
  63.8638144  37.3885712  28.5086665  63.8188480  36.2192856  29.4692010
  57.6149902  32.9374470  24.6507562  56.6900399  32.8050684  24.8585254
  57.8634315  33.7168689  25.1477504  67.5634564  29.0043213  26.2968295
  66.6551442  28.9358621  26.0027056  67.5122160  29.4815158  27.1250120
  54.9758713  32.5807743  25.4851351  55.1051094  32.8342222  26.3990763
  54.2956164  33.1735451  25.1656006  59.1458200  43.2504993  21.5841825
  59.0682230  44.2012818  21.6630306  58.5419844  42.9050866  22.2416752
  61.6375430  30.4232859  34.2403192  60.8608764  30.9826779  34.2306057
  62.2765993  30.9089642  34.7618062  69.4296211  27.2059651  28.0746169
  68.7870591  27.4992184  27.4285963  68.9251139  27.0912572  28.8799365
  67.0836374  30.9522825  18.7632028  67.9954231  31.1850211  18.5879726
  66.5746022  31.5359869  18.2007107  59.8921803  33.2318312  33.8021159
  60.6336487  33.7703356  33.5255983  59.1858788  33.8584601  33.9592711
  65.3677142  35.3747452  32.3993321  65.7760498  34.9329863  31.6547953
  64.6454404  34.8000080  32.6527514  61.7208212  30.3120059  29.7726878
  62.5669407  30.7359473  29.9161527  61.6606850  29.6553683  30.4665441
  65.6905957  35.9348643  26.1545610  65.0614819  36.0994357  25.4521677
  65.3031619  36.3490253  26.9256574  69.5695189  36.8703081  23.5089973
  68.8846227  37.2501982  22.9587007  69.6539038  37.4798407  24.2421921
  64.8707658  27.9724427  31.4308051  64.6268589  28.7266488  30.8942327
  65.1467588  28.3509775  32.2655298  66.8246120  34.5163040  30.1085317
  67.0363016  35.1594800  29.4319698  66.7775869  33.6825356  29.6407247
  64.4272349  27.1280860  27.0121889  63.5656828  27.4262114  27.3038627
  64.4534784  27.3451259  26.0802922  61.2433919  35.6723051  23.4195695
  61.7072264  35.9510754  22.6300317  60.9790717  34.7706496  23.2368785
  58.1358000  35.2194533  26.3575458  58.7059357  35.6481801  25.7192942
  58.7266112  34.9377117  27.0559644  60.1802805  31.7946203  20.2285260
  60.8826848  32.2467247  20.6959186  59.8483433  31.1530022  20.8565153
  58.6283166  30.3857960  34.6036469  57.9981827  31.0674241  34.8371866
  58.5219254  30.2741042  33.6589607  53.9228139  30.0529756  25.5302393
  53.1327193  30.3087285  25.0542504  54.4139386  30.8678094  25.6354434
  67.9391948  37.3934995  28.2807674  68.7609392  36.9915183  27.9990356
  67.9354351  37.2903229  29.2323790  55.8742884  30.4174335  22.4885870
  55.0774047  30.5293030  23.0069366  55.6468476  30.7560988  21.6226761
  61.7048552  36.9419039  30.4368385  61.7692984  37.4039446  31.2726557
  60.9959476  36.3116403  30.5650695  52.2065842  30.3060247  27.9617384
  52.4573880  31.1907256  28.2274960  52.7425390  30.1264848  27.1892476
  76.0297941  33.7373744  24.6292646  75.2761650  33.1681142  24.4736650
  76.1645482  33.7036408  25.5763280  61.4196569  38.6087146  20.3047365
  61.2842244  39.4538682  20.7332213  61.9606382  38.8106424  19.5413299
  57.9063909  24.6878726  36.9661720  57.5130855  24.1344924  37.6409364
  58.7230049  24.9989304  37.3568238  54.8725967  36.1262584  20.8775290
  55.3850487  36.9205834  21.0280855  55.5248680  35.4288875  20.8108892
  56.6820851  39.2428340  22.9598043  56.8587480  40.1646305  22.7719027
  57.4777685  38.9286760  23.3892423  60.8231870  26.1036605  34.5581977
  61.5641583  26.7043758  34.4786439  61.0549793  25.3614243  34.0000019
  55.9673208  31.2892972  32.8360206  55.8526723  30.3878229  33.1367305
  55.1117726  31.5356669  32.4845023  63.0465046  39.2310713  34.4347707
  62.6028900  38.4447091  34.1168612  63.7082259  39.4189863  33.7691598
  57.8052167  40.7606514  28.9608386  58.3559592  40.6323578  28.1885380
  56.9663643  41.0601403  28.6103278  65.1446284  39.5113512  32.4629108
  65.1264759  40.3322394  31.9709378  66.0666204  39.3867588  32.6879250
  61.6019338  37.0257642  33.3052617  62.1347675  36.2645930  33.0751925
  61.0733419  36.7331294  34.0476771  64.7689033  22.1317708  28.8346258
  64.4253302  23.0219350  28.7585369  65.1367996  21.9419366  27.9715843
  52.8374884  34.4551238  21.6534861  53.6750106  34.8648247  21.4368568
  53.0153151  33.5150681  21.6235054  64.7339316  32.1226319  17.3418694
  64.2185939  32.8930924  17.5807081  64.4616624  31.4491455  17.9651755
  62.3186427  26.9676020  22.4003932  61.4628023  26.5782870  22.2209571
  62.7313378  27.0467981  21.5403717  63.8485573  24.5022363  26.7995492
  63.3450369  24.4652498  25.9863297  64.1416180  25.4115106  26.8592148
  60.0928459  24.5861093  25.8061673  60.9581456  24.3903901  25.4467563
  60.1605968  24.3571445  26.7331030  69.7073590  34.8758674  19.2771867
  68.9303033  34.5369833  18.8327029  70.3865071  34.8811297  18.6026832
  64.5225619  29.9953411  19.1678475  64.2175754  30.3099560  20.0188618
  65.4756061  30.0734831  19.2105808  62.9672051  36.1543634  20.8171429
  62.4393412  35.4196394  20.5044666  62.4659553  36.9318311  20.5711397
  67.9464897  34.3492655  25.9338475  67.2888571  35.0391916  26.0218604
  68.7505296  34.7389087  26.2772461  57.6990778  26.8163301  23.1778040
  58.2734530  26.5938482  22.4451233  58.2861761  26.8851995  23.9306642
  66.7570355  32.7037028  23.9842417  67.2702237  33.3367019  24.4864127
  67.4071579  32.1038223  23.6185777  64.0192730  42.6821352  16.7403088
  63.3454428  42.9853049  17.3488046  64.4058552  43.4850432  16.3908545
  63.2351186  30.1786483  26.2300757  62.3173748  30.4001430  26.0722445
  63.6511330  30.2532794  25.3712465  64.0186234  31.5777899  21.3603438
  64.7658053  32.0899296  21.0510560  64.2877824  31.2561952  22.2207831
  62.2912884  34.0736440  18.3430392  61.3824104  33.7895472  18.4402862
  62.3207968  34.4935518  17.4833699  67.5232152  37.6843029  22.1121559
  67.0694479  36.8433939  22.1686750  66.8926118  38.3204427  22.4496340
  66.4665071  28.6135015  23.3422227  65.7287828  28.1012401  23.6732469
  66.7191845  28.1735397  22.5305504  65.9665091  39.5219526  23.0471378
  66.2588065  40.0824583  22.3283743  66.4763711  39.8148087  23.8024537
  66.5676699  21.3911267  23.9363996  66.8735575  20.5308631  23.6489911
  67.2929303  21.9828887  23.7362990  52.8601055  31.7941954  22.3245594
  52.6625454  31.2011314  21.5996661  52.3047719  31.4894164  23.0421533
  60.8397778  31.6865060  24.4440187  60.8946388  30.7338897  24.3682664
  60.0288980  31.8424499  24.9281486  61.9888972  35.6145183  15.6818470
  61.5508402  34.8981042  15.2224108  62.7299413  35.8421298  15.1203562
  58.7790138  30.3042120  22.2030566  57.9658004  30.6036290  22.6095758
  59.2749132  29.9097809  22.9205048  60.9298716  40.2999877  24.1364831
  60.8874895  40.5260723  23.2073363  61.8461415  40.0663251  24.2850632
  64.3764350  30.7683944  31.0345460  64.7313738  30.9955418  31.8939926
  65.0236481  31.1002321  30.4122715  70.1062087  33.8902380  21.7394789
  69.9679985  34.0803976  20.8115978  69.7498306  34.6521763  22.1962840
  58.2704213  27.8760475  27.8191801  58.9103592  27.7349235  27.1214764
  57.4381744  27.5894989  27.4430403  70.1331466  35.9578907  26.7506061
  70.5667973  35.8654196  27.5989115  70.8463047  35.9336408  26.1126077
  59.0464517  37.1762906  23.9326793  59.8405115  36.6813226  23.7309368
  58.3356209  36.6480769  23.5694499  63.8659361  39.5581001  28.2839161
  63.9196384  40.1271938  29.0516877  62.9974143  39.7282886  27.9193198
  55.2732829  27.8460800  22.5964788  55.5339647  28.7606134  22.4873948
  56.0950002  27.3785243  22.7461401  56.7457755  29.2598558  29.7663612
  57.4180808  29.0515920  29.1176261  55.9187541  29.0620644  29.3268845
  70.9947016  36.0002608  29.2838946  71.1882906  36.9048418  29.5298221
  70.8947634  35.5410027  30.1177531  62.6483327  25.8860499  31.7829273
  62.0011242  26.5850448  31.6893750  63.4184342  26.3196642  32.1505521
  66.0562125  36.1509351  34.8579827  65.9047631  35.9219902  33.9409910
  66.0466804  37.1079952  34.8711172  62.8247461  33.7241263  29.8426093
  63.7539521  33.8752423  29.6695060  62.4038491  33.8125284  28.9874739
  61.6235793  37.7491928  27.6124631  61.4846879  37.3810712  28.4850569
  60.8350389  38.2639567  27.4408588  62.2183945  42.8501024  18.9550167
  62.3935701  42.3789068  19.7695790  61.5316733  43.4766791  19.1831428
  63.1741008  37.1273531  25.0013468  62.8390841  37.0874301  25.8971118
  62.6744954  36.4618246  24.5283879  57.1485252  32.5341161  30.5266050
  57.0105050  31.8021399  31.1277589  58.0590175  32.4450061  30.2450237
  66.1100200  34.4729565  15.2750528  65.4929370  33.7476393  15.1783581
  65.6416688  35.2338925  14.9317602  59.7767553  32.2461120  30.0149729
  60.4867171  31.6054312  29.9736348  59.7336861  32.4974015  30.9375910
  67.7654331  39.1828473  32.9356308  67.7066877  38.4987693  32.2686891
  68.1673850  39.9247463  32.4836934  58.4896487  29.2326338  31.8345369
  57.9533844  28.7817076  32.4866965  57.9013195  29.3672247  31.0915833
  56.7845030  45.9990387  25.7290027  57.0241628  46.6308911  26.4069046
  55.9414227  45.6478427  26.0155387  67.7671739  37.1468057  31.1670288
  66.8798517  36.8093979  31.2896687  68.3370290  36.4151088  31.4039053
  49.4200886  33.4792149  24.4913339  50.1071926  33.1653879  23.9034355
  49.2649014  34.3833514  24.2180591  54.2235608  28.3682345  28.9198363
  54.1393797  27.7608015  28.1848773  53.4018314  28.8591364  28.9207859
  61.2972892  41.8069510  28.1331531  61.2243063  42.6124481  28.6450836
  60.8550285  42.0061475  27.3079553  61.0862672  41.0441280  21.6434353
  60.3030194  41.5862960  21.7372577  61.7855417  41.5615259  22.0428594
  64.3959322  26.8535909  24.2868558  64.8928021  26.1005871  23.9669628
  63.6246303  26.8900226  23.7211768  72.2489079  32.5576275  25.9286850
  72.2378955  33.4400990  25.5580783  71.3806459  32.2047825  25.7341387
  63.7571576  41.7056344  30.2889690  64.4699548  42.3403808  30.2165591
  63.2661604  41.8020210  29.4729692  65.4789102  35.6107596  21.8606982
  64.5445381  35.7309059  21.6911686  65.6565771  34.7080063  21.5966991
  60.9794290  28.9953292  24.0140243  60.6092078  28.4424332  24.7021148
  61.4753383  28.3911425  23.4615243  68.8661654  31.4524916  22.3957016
  69.3322106  32.2852907  22.3217318  69.3169154  30.9869897  23.1002274
  58.8083489  39.4550787  31.1095261  59.5092949  40.0887270  31.2624655
  58.3378604  39.7965519  30.3490900  66.9337885  37.7968737  19.3943168
  67.2097729  37.6825331  20.3037042  66.0642384  37.3986222  19.3555341
  66.8378317  23.8205503  26.4347917  65.9241396  24.0509729  26.6030124
  67.2671418  23.9043947  27.2861949  66.6084775  32.0095394  28.9347811
  65.9556225  32.2571302  28.2800264  66.9865155  31.1959533  28.6010288
  63.5691949  42.0455088  23.0375981  63.7514343  41.2276744  23.5003734
  64.3924935  42.2622780  22.6000871  63.9034114  40.9723273  20.2991030
  64.4321881  40.4615727  19.6861192  64.1662334  40.6565803  21.1636563
  62.6572348  32.7515206  35.4213848  61.9812985  32.6509335  36.0916223
  63.4799982  32.5954419  35.8849845  54.4051207  38.9887142  28.0426363
  54.9904644  38.2430830  28.1754268  54.2076046  39.2991099  28.9263027
  57.2589862  42.0238389  23.0588806  56.5900238  42.5084517  22.5752846
  57.1202732  42.2707610  23.9732184  48.9968862  31.5592742  26.7630807
  49.0352961  31.0256333  27.5567925  48.4909155  31.0327948  26.1441784
  61.3995131  44.0582133  29.6571464  61.9513439  44.2213754  30.4220549
  61.7401324  44.6486571  28.9851489  56.3759624  26.4057283  30.2593349
  56.4400951  27.2672114  29.8470747  56.3126744  25.7931284  29.5265707
  55.8511897  28.4780415  33.9066383  56.4783935  28.0957493  34.5203907
  54.9939816  28.2594617  34.2722076  66.2506005  38.8843391  35.5120119
  66.7945909  39.4973349  35.0175073  65.6692850  39.4422969  36.0287132
  64.5363518  42.0064109  26.6435146  64.4114658  41.2053848  26.1346092
  65.1942609  42.5010302  26.1549116  56.1571686  28.3612841  25.8212287
  55.4358272  28.9748809  25.6819760  56.9464942  28.8970606  25.7428933
  66.5998427  39.8073129  28.2714696  65.6528762  39.6878480  28.1993023
  66.9481200  38.9195627  28.3540958  58.9598000  25.6967268  32.0952938
  59.4832402  25.9429564  32.8579248  58.7410333  26.5287302  31.6756076
  63.6044860  39.6025845  24.4719049  63.4569822  38.6742552  24.6526619
  64.4298353  39.6245936  23.9876124  67.2078982  40.4254404  25.5583921
  68.1325529  40.2197265  25.4208373  67.0394285  40.1770805  26.4673263
  60.1650545  26.6380963  29.7802609  59.8247365  25.8388776  30.1823289
  59.4589551  26.9382673  29.2079442  60.8167017  23.7230275  28.2329932
  61.6393086  23.2490753  28.1108822  61.0605080  24.5020759  28.7328618
  58.3405596  30.4149396  26.0421910  58.1950176  30.7289699  26.9346192
  57.8630799  31.0334296  25.4892809  60.2001978  27.4051944  26.0902800
  60.1863547  26.5093037  25.7535098  60.9174407  27.4122607  26.7241086
  62.0528109  27.8389284  28.1355927  61.7945887  28.7606355  28.1340258
  61.5213150  27.4419718  28.8256392  66.9974298  40.9440071  20.9146013
  67.1711175  40.3786493  20.1619865  67.4903189  41.7440966  20.7325503
  52.8151258  32.9554740  28.9809572  52.2704726  33.7314548  29.1129846
  53.6930608  33.3025545  28.8228693  62.4730065  23.9721234  24.4957090
  62.4951762  24.0360567  23.5409070  62.8898124  23.1325743  24.6897596
  72.8513689  33.7076494  22.5336313  73.2944835  32.9583819  22.1355436
  71.9740199  33.6986630  22.1510045  67.9849470  40.2606835  18.0142911
  68.6800375  40.8813528  18.2330226  68.3272621  39.4102187  18.2895289
  53.6017280  32.0824636  31.8739729  52.8599016  32.2307272  32.4604359
  53.2810024  32.3432902  31.0106478  69.8840894  37.7106541  19.5430242
  70.4092218  38.0493814  18.8179562  69.7963246  36.7753556  19.3593377
  61.5460942  41.6240615  31.6720119  61.8548069  41.3789761  32.5442818
  62.3436424  41.8287253  31.1838989  61.5681554  43.7778524  23.9025495
  61.1286545  43.2854903  24.5958352  62.3189671  43.2351492  23.6617570
  54.0473893  39.9690065  23.9050123  54.8731913  39.6693837  23.5248767
  53.6967945  39.1997688  24.3539912  59.0155426  39.3216533  25.9747797
  58.3935436  38.6587238  25.6750025  59.6860293  39.3477665  25.2921445
  52.2482498  37.8876392  24.8639057  51.4114407  37.4598566  24.6823058
  52.2206144  38.0808835  25.8009848  59.0879954  27.7998321  35.5680303
  59.1368109  28.6760444  35.1858072  59.6302468  27.2575714  34.9951946
  69.5734800  38.3439445  34.8481440  68.7830343  38.3263583  34.3085939
  69.3368154  38.8827738  35.6030476  69.6932675  35.1931911  32.1614168
  69.7430680  35.0281918  33.1029691  69.5846598  34.3259170  31.7712049
  58.5768933  37.8720457  19.4506257  58.7257054  38.5555921  18.7972930
  59.3835377  37.8525547  19.9655713  66.9836437  31.1762839  33.4773475
  67.8846300  31.0369304  33.1857473  67.0584412  31.3417294  34.4171653
  61.3179242  28.5529694  32.3226661  60.4482552  28.8463260  32.0509250
  61.5538723  29.1370139  33.0433925  71.1950871  37.6128852  32.4056190
  70.9035680  37.9758833  33.2419651  70.5823003  36.8995861  32.2269522
  72.3946554  35.1781732  24.9258760  73.2293445  35.6171536  25.0896321
  72.5305683  34.7020385  24.1067006  69.4438060  32.7361467  30.8736248
  69.9192181  32.9289113  30.0655099  68.5203625  32.7920653  30.6279632
  56.3321566  33.8985634  20.4567326  56.0867608  32.9947964  20.6547536
  56.5017481  33.9002785  19.5146804  64.0218276  24.7709311  29.8392082
  64.5400220  25.5070338  29.5138570  63.6673409  25.0773304  30.6738841
  64.2730870  21.1909593  25.3592978  64.5532624  20.5232782  25.9853405
  65.0581477  21.3838689  24.8467642  62.0764339  40.3668587  16.9218005
  61.5038306  40.9858774  16.4688477  62.6497133  40.9167949  17.4557927
  68.1439729  29.6127227  29.1064554  69.0957152  29.7125325  29.1276778
  67.9743179  28.8205496  29.6162638  66.1654108  26.6982810  29.2923954
  65.5704040  26.9787823  28.5970443  65.8803805  27.1876711  30.0640696
  65.2961599  40.6505737  18.0526587  66.2292272  40.5851299  18.2559463
  65.2084811  41.4862004  17.5941120  67.9249615  39.9671608  15.0130535
  67.8463247  39.6331471  15.9066292  68.7459282  40.4593375  15.0122007
  70.6227807  32.8333347  28.2206853  70.5904127  31.8949348  28.4066537
  71.2328430  32.9117384  27.4872678  70.7722295  29.6244390  28.2665136
  70.2561344  28.8402847  28.0795065  71.6562244  29.2963107  28.4311656
  68.4333022  23.3685406  24.2260949  68.2357843  23.0600494  25.1104281
  69.0432728  24.0947045  24.3558879  76.4404356  33.8949354  27.3612890
  77.1707745  33.6334642  27.9220593  75.8311302  33.1578076  27.4014958
  74.5219653  32.0357216  27.9587341  73.7952817  31.9013181  27.3503833
  74.1066940  32.3434045  28.7644059  62.3449830  35.7547146  35.7234714
  63.2652839  35.9325745  35.9174761  62.3099413  34.8103191  35.5714413
  51.5631995  30.9485740  24.6487989  51.2434779  30.0951048  24.3562363
  51.0165423  31.1634318  25.4045956  55.3411902  33.6648181  28.3657495
  55.5597912  34.5965288  28.3845529  55.7537676  33.3056155  29.1512299
  64.1906669  23.2494313  21.9757480  64.7437707  23.6689766  22.6347503
  64.4276755  22.3230061  22.0180436  60.2139768  29.2381386  37.7560244
  60.1136495  30.1875743  37.6872335  59.9961310  28.9099625  36.8836314
  51.4320255  34.5688651  26.6181110  50.7383726  34.1542604  26.1051065
  52.1793246  34.6109188  26.0214529  67.5685476  25.3594838  21.4836145
  66.9884145  26.0179642  21.1014197  67.3021408  24.5372183  21.0723562
  66.0189042  24.7599896  23.6857465  66.5188820  24.8716430  22.8771784
  66.6624650  24.4560948  24.3258273  60.0771038  32.6678525  36.5725306
  59.5938120  33.4678885  36.7789195  60.1631977  32.6786470  35.6192750
  53.3456997  34.5006905  24.4947125  53.3227686  34.5994592  23.5429008
  53.6557634  35.3472056  24.8164291  56.0044375  36.5583060  28.6093740
  56.9587629  36.5267002  28.5423671  55.8056899  36.0973684  29.4243966
  56.5943757  35.1284176  31.1764537  57.4136646  35.6228255  31.1999375
  56.8680565  34.2116144  31.1482105  66.3510354  27.5194928  20.5392493
  65.4636209  27.8044579  20.3212688  66.7664343  27.3588692  19.6919770
  69.7024890  27.5441449  24.2546832  70.4785280  28.0337902  24.5271449
  68.9773024  27.9699503  24.7118702  72.1397448  28.2569068  25.3120773
  72.7341939  28.0164804  24.6014081  72.2124032  27.5376199  25.9394309
  54.3594604  42.1002679  25.6263938  54.2249072  41.3403080  25.0601936
  53.9426666  42.8243579  25.1592726  65.4953567  37.2839603  14.6340513
  66.1989417  37.4889605  15.2498168  64.7716216  37.8516365  14.8989596
  66.3251377  33.0349464  20.7542783  66.2686579  33.4918016  19.9150415
  66.8779720  32.2740149  20.5765626  70.1356183  28.8239196  21.5792903
  69.8793118  28.4235832  22.4101110  69.5109051  29.5382990  21.4543042
  74.4468521  31.5635269  24.0864194  73.8868079  31.6328459  24.8595756
  73.8412025  31.3876254  23.3663690  57.5163730  42.9971996  25.8382380
  57.3996114  43.9417429  25.7361070  56.6956176  42.6945558  26.2268179
  67.4040265  37.7222132  16.6838973  68.2385868  37.2903331  16.5016448
  67.2424607  37.5504146  17.6115867  67.0586157  34.2254245  18.0495312
  67.0034961  34.0598517  17.1083756  66.4332212  34.9330278  18.2057502
  51.8478672  29.4622310  31.8756734  52.4937535  28.9521264  32.3643960
  51.6395823  30.1990991  32.4500160  64.3732064  36.5303157  37.3748875
  65.2423224  36.7043810  37.0135510  63.8938815  37.3497574  37.2524604
  58.5418244  43.6500258  29.0538309  59.4445491  43.6823869  29.3704804
  58.3155614  42.7200709  29.0684644  60.2971846  42.4031245  25.7148387
  59.3467477  42.4033106  25.6012760  60.6004332  41.6563979  25.1984422
  56.1876163  26.6089927  35.9731749  57.0507624  26.2526732  36.1835073
  55.6141573  26.2703822  36.6607153  76.0324540  48.2391783  26.7794150
  76.6702950  48.1198531  26.0757490  75.9145383  49.1872627  26.8382102
  72.8414246  48.1919211  26.7155674  72.5032757  48.0760276  25.8276209
  73.7104014  47.7910376  26.6956681  68.7001062  50.0454688  22.7052565
  68.1365927  49.9544625  21.9368853  68.5853457  49.2254592  23.1855058
  73.3234029  49.3454063  32.6741880  73.3122670  48.9506861  31.8022384
  73.4854668  48.6120136  33.2675651  66.2465494  51.5405879  25.5436786
  67.0386785  51.1996704  25.1283085  66.4862144  51.6500854  26.4638939
  74.2800620  53.7125655  18.0167030  73.6288600  54.2979736  17.6301044
  75.0744983  54.2431850  18.0762068  68.2056247  50.8014793  18.4154165
  68.9787123  50.2543780  18.2767040  68.5581646  51.6659042  18.6268626
  70.0441290  52.1291175  31.6221064  69.7531156  53.0336806  31.5067730
  70.6798274  52.1707703  32.3365133  70.9697497  49.5068023  28.2122424
  71.5661069  49.2824046  27.4979386  71.0272468  48.7652769  28.8147871
  70.5422525  46.9607459  16.0472614  70.7948046  46.4388980  15.2856077
  69.6047084  46.7973604  16.1499298  75.5865808  45.9643237  23.8547358
  76.3728897  45.5462660  23.5037775  75.8504512  46.8689329  24.0229006
  75.7575885  51.4016087  18.5536015  75.1221718  51.4750714  19.2656919
  75.4273292  51.9909686  17.8755094  80.9874235  45.9018470  24.7580336
  81.7199407  45.3317687  24.9918166  80.2313591  45.5140071  25.1986842
  70.2618814  48.8635565  18.2496989  70.1455072  48.1880468  18.9178074
  70.3721074  48.3767939  17.4329143  72.6050355  48.3245712  21.9543679
  72.2408562  47.7976333  22.6656600  73.4617471  47.9344181  21.7810164
  78.5099656  39.6140044  29.2174945  78.1782980  40.4835455  28.9936160
  77.9145269  39.2976328  29.8968975  72.2455842  43.3535612  16.9505027
  72.4130244  44.2215848  17.3175498  72.0553011  43.5162893  16.0266316
  75.0031175  51.8152590  28.6170858  74.7031898  52.7177629  28.5086665
  74.6582235  51.5484774  29.4692010  68.4543657  48.2666387  24.6507562
  67.5294153  48.1342601  24.8585254  68.7028070  49.0460607  25.1477504
  78.4028319  44.3335131  26.2968295  77.4945196  44.2650539  26.0027056
  78.3515915  44.8107076  27.1250120  72.2245063  45.8093269  17.9351694
  72.1044688  46.2550320  18.7737174  71.5297651  46.1578587  17.3765232
  65.8152468  47.9099661  25.4851351  65.9444849  48.1634140  26.3990763
  65.1349919  48.5027369  25.1656006  69.9851955  58.5796911  21.5841825
  69.9075985  59.5304736  21.6630306  69.3813599  58.2342783  22.2416752
  72.4769185  45.7524776  34.2403192  71.7002519  46.3118696  34.2306057
  73.1159748  46.2381559  34.7618062  80.2689965  42.5351569  28.0746169
  79.6264346  42.8284102  27.4285963  79.7644894  42.4204489  28.8799365
  77.9230129  46.2814742  18.7632028  78.8347985  46.5142129  18.5879726
  77.4139776  46.8651786  18.2007107  70.7315557  48.5610230  33.8021159
  71.4730241  49.0995274  33.5255983  70.0252542  49.1876518  33.9592711
  76.2070897  50.7039370  32.3993321  76.6154253  50.2621781  31.6547953
  75.4848158  50.1291998  32.6527514  72.5601967  45.6411977  29.7726878
  73.4063162  46.0651390  29.9161527  72.5000604  44.9845601  30.4665441
  76.5299711  51.2640561  26.1545610  75.9008574  51.4286275  25.4521677
  76.1425373  51.6782170  26.9256574  80.4088943  52.1994999  23.5089973
  79.7239981  52.5793900  22.9587007  80.4932792  52.8090325  24.2421921
  75.7101412  43.3016345  31.4308051  75.4662344  44.0558406  30.8942327
  75.9861343  43.6801693  32.2655298  77.6639875  49.8454958  30.1085317
  77.8756770  50.4886717  29.4319698  77.6169623  49.0117274  29.6407247
  75.2666104  42.4572778  27.0121889  74.4050583  42.7554032  27.3038627
  75.2928538  42.6743177  26.0802922  72.0827673  51.0014969  23.4195695
  72.5466019  51.2802672  22.6300317  71.8184471  50.0998413  23.2368785
  68.9751754  50.5486450  26.3575458  69.5453111  50.9773719  25.7192942
  69.5659866  50.2669035  27.0559644  71.0196559  47.1238121  20.2285260
  71.7220603  47.5759165  20.6959186  70.6877188  46.4821940  20.8565153
  69.4676921  45.7149878  34.6036469  68.8375581  46.3966159  34.8371866
  69.3613009  45.6032959  33.6589607  64.7621893  45.3821674  25.5302393
  63.9720947  45.6379202  25.0542504  65.2533141  46.1970012  25.6354434
  78.7785703  52.7226913  28.2807674  79.6003146  52.3207100  27.9990356
  78.7748106  52.6195147  29.2323790  66.7136639  45.7466253  22.4885870
  65.9167802  45.8584947  23.0069366  66.4862231  46.0852905  21.6226761
  72.5442306  52.2710956  30.4368385  72.6086739  52.7331363  31.2726557
  71.8353230  51.6408321  30.5650695  63.0459596  45.6352164  27.9617384
  63.2967635  46.5199174  28.2274960  63.5819145  45.4556766  27.1892476
  86.8691696  49.0665661  24.6292646  86.1155404  48.4973060  24.4736650
  87.0039237  49.0328326  25.5763280  72.2590324  53.9379064  20.3047365
  72.1235999  54.7830599  20.7332213  72.8000136  54.1398341  19.5413299
  68.7457663  40.0170644  36.9661720  68.3524609  39.4636842  37.6409364
  69.5623804  40.3281222  37.3568238  65.7119721  51.4554502  20.8775290
  66.2244242  52.2497752  21.0280855  66.3642434  50.7580792  20.8108892
  67.5214606  54.5720258  22.9598043  67.6981234  55.4938223  22.7719027
  68.3171439  54.2578677  23.3892423  71.6625624  41.4328523  34.5581977
  72.4035338  42.0335676  34.4786439  71.8943547  40.6906160  34.0000019
  66.8066962  46.6184890  32.8360206  66.6920478  45.7170147  33.1367305
  65.9511480  46.8648587  32.4845023  73.8858800  54.5602630  34.4347707
  73.4422654  53.7739009  34.1168612  74.5476014  54.7481781  33.7691598
  68.6445921  56.0898432  28.9608386  69.1953347  55.9615495  28.1885380
  67.8057397  56.3893321  28.6103278  75.9840038  54.8405430  32.4629108
  75.9658514  55.6614311  31.9709378  76.9059958  54.7159505  32.6879250
  72.4413092  52.3549560  33.3052617  72.9741429  51.5937848  33.0751925
  71.9127174  52.0623211  34.0476771  75.6082787  37.4609626  28.8346258
  75.2647057  38.3511267  28.7585369  75.9761750  37.2711283  27.9715843
  63.6768638  49.7843156  21.6534861  64.5143860  50.1940164  21.4368568
  63.8546906  48.8442598  21.6235054  75.5733070  47.4518237  17.3418694
  75.0579694  48.2222841  17.5807081  75.3010379  46.7783373  17.9651755
  73.1580181  42.2967937  22.4003932  72.3021777  41.9074788  22.2209571
  73.5707133  42.3759898  21.5403717  74.6879328  39.8314281  26.7995492
  74.1844123  39.7944416  25.9863297  74.9809935  40.7407023  26.8592148
  70.9322214  39.9153010  25.8061673  71.7975210  39.7195819  25.4467563
  70.9999723  39.6863362  26.7331030  80.5467344  50.2050591  19.2771867
  79.7696787  49.8661751  18.8327029  81.2258825  50.2103215  18.6026832
  75.3619373  45.3245329  19.1678475  75.0569509  45.6391478  20.0188618
  76.3149815  45.4026749  19.2105808  73.8065805  51.4835552  20.8171429
  73.2787167  50.7488312  20.5044666  73.3053308  52.2610228  20.5711397
  78.7858651  49.6784573  25.9338475  78.1282326  50.3683834  26.0218604
  79.5899050  50.0681005  26.2772461  68.5384533  42.1455218  23.1778040
  69.1128285  41.9230400  22.4451233  69.1255515  42.2143913  23.9306642
  77.5964110  48.0328945  23.9842417  78.1095992  48.6658937  24.4864127
  78.2465334  47.4330141  23.6185777  68.8654120  44.1759679  17.1973926
  68.0291432  44.5134366  17.5183200  68.7258890  44.0408659  16.2601062
  70.8407200  39.0196467  21.9053110  70.1871613  38.7045484  21.2809724
  70.7987675  38.3972208  22.6312933  71.9518405  49.3015762  13.8206402
  71.0445467  49.0705016  14.0197551  72.4489437  48.5053382  14.0080383
  74.8586484  58.0113270  16.7403088  74.1848183  58.3144966  17.3488046
  75.2452306  58.8142350  16.3908545  74.0744941  45.5078401  26.2300757
  73.1567502  45.7293348  26.0722445  74.4905084  45.5824711  25.3712465
  74.8579989  46.9069817  21.3603438  75.6051808  47.4191214  21.0510560
  75.1271578  46.5853869  22.2207831  73.1306639  49.4028357  18.3430392
  72.2217858  49.1187390  18.4402862  73.1601723  49.8227436  17.4833699
  78.3625906  53.0134947  22.1121559  77.9088233  52.1725857  22.1686750
  77.7319873  53.6496345  22.4496340  77.3058826  43.9426933  23.3422227
  76.5681583  43.4304319  23.6732469  77.5585599  43.5027314  22.5305504
  76.8058845  54.8511443  23.0471378  77.0981820  55.4116501  22.3283743
  77.3157466  55.1440004  23.8024537  77.4070453  36.7203185  23.9363996
  77.7129330  35.8600548  23.6489911  78.1323058  37.3120805  23.7362990
  63.6994809  47.1233871  22.3245594  63.5019209  46.5303232  21.5996661
  63.1441473  46.8186082  23.0421533  71.6791533  47.0156978  24.4440187
  71.7340143  46.0630814  24.3682664  70.8682735  47.1716417  24.9281486
  72.8282727  50.9437101  15.6818470  72.3902156  50.2272960  15.2224108
  73.5693167  51.1713216  15.1203562  69.6183893  45.6334038  22.2030566
  68.8051758  45.9328208  22.6095758  70.1142887  45.2389726  22.9205048
  71.7692471  55.6291795  24.1364831  71.7268649  55.8552641  23.2073363
  72.6855169  55.3955169  24.2850632  75.2158104  46.0975862  31.0345460
  75.5707492  46.3247335  31.8939926  75.8630236  46.4294239  30.4122715
  80.9455841  49.2194298  21.7394789  80.8073740  49.4095894  20.8115978
  80.5892060  49.9813681  22.1962840  69.1097967  43.2052393  27.8191801
  69.7497347  43.0641152  27.1214764  68.2775498  42.9186907  27.4430403
  80.9725221  51.2870825  26.7506061  81.4061728  51.1946114  27.5989115
  81.6856802  51.2628325  26.1126077  69.8858271  52.5054824  23.9326793
  70.6798870  52.0105144  23.7309368  69.1749964  51.9772687  23.5694499
  74.7053116  54.8872919  28.2839161  74.7590138  55.4563855  29.0516877
  73.8367897  55.0574804  27.9193198  66.1941035  46.6497905  20.0086546
  65.2638623  46.5882361  20.2256508  66.2898507  46.1273858  19.2123187
  66.1126584  43.1752718  22.5964788  66.3733401  44.0898051  22.4873948
  66.9343756  42.7077161  22.7461401  67.5851509  44.5890475  29.7663612
  68.2574563  44.3807837  29.1176261  66.7581296  44.3912561  29.3268845
  81.8340771  51.3294526  29.2838946  82.0276661  52.2340336  29.5298221
  81.7341389  50.8701945  30.1177531  73.4877081  41.2152416  31.7829273
  72.8404996  41.9142366  31.6893750  74.2578097  41.6488560  32.1505521
  76.8955879  51.4801268  34.8579827  76.7441386  51.2511820  33.9409910
  76.8860559  52.4371870  34.8711172  73.6641216  49.0533181  29.8426093
  74.5933276  49.2044341  29.6695060  73.2432246  49.1417202  28.9874739
  72.4629547  53.0783846  27.6124631  72.3240633  52.7102630  28.4850569
  71.6744144  53.5931485  27.4408588  73.0577699  58.1792942  18.9550167
  73.2329455  57.7080985  19.7695790  72.3710487  58.8058708  19.1831428
  74.0134763  52.4565448  25.0013468  73.6784595  52.4166218  25.8971118
  73.5138708  51.7910164  24.5283879  67.9879006  47.8633078  30.5266050
  67.8498804  47.1313317  31.1277589  68.8983930  47.7741978  30.2450237
  76.9493954  49.8021483  15.2750528  76.3323125  49.0768311  15.1783581
  76.4810443  50.5630843  14.9317602  70.6161307  47.5753038  30.0149729
  71.3260926  46.9346230  29.9736348  70.5730615  47.8265932  30.9375910
  78.6048086  54.5120391  32.9356308  78.5460632  53.8279611  32.2686891
  79.0067604  55.2539381  32.4836934  69.3290241  44.5618255  31.8345369
  68.7927598  44.1108994  32.4866965  68.7406950  44.6964164  31.0915833
  67.6238785  61.3282305  25.7290027  67.8635383  61.9600829  26.4069046
  66.7807981  60.9770345  26.0155387  68.7392500  44.0206907  14.3971832
  67.8621966  43.8995708  14.0334079  69.2150253  43.2292985  14.1450721
  78.6065493  52.4759975  31.1670288  77.7192272  52.1385897  31.2896687
  79.1764044  51.7443006  31.4039053  60.2594640  48.8084067  24.4913339
  60.9465680  48.4945797  23.9034355  60.1042769  49.7125431  24.2180591
  65.0629362  43.6974263  28.9198363  64.9787551  43.0899933  28.1848773
  64.2412069  44.1883281  28.9207859  72.1366647  57.1361427  28.1331531
  72.0636818  57.9416399  28.6450836  71.6944040  57.3353393  27.3079553
  71.9256426  56.3733197  21.6434353  71.1423948  56.9154877  21.7372577
  72.6249171  56.8907177  22.0428594  75.2353076  42.1827827  24.2868558
  75.7321776  41.4297789  23.9669628  74.4640058  42.2192143  23.7211768
  83.0882834  47.8868192  25.9286850  83.0772710  48.7692908  25.5580783
  82.2200213  47.5339743  25.7341387  74.5965330  57.0348261  30.2889690
  75.3093302  57.6695726  30.2165591  74.1055359  57.1312127  29.4729692
  76.3182857  50.9399514  21.8606982  75.3839136  51.0600976  21.6911686
  76.4959525  50.0371981  21.5966991  71.8188045  44.3245210  24.0140243
  71.4485833  43.7716250  24.7021148  72.3147137  43.7203343  23.4615243
  79.7055408  46.7816833  22.3957016  80.1715860  47.6144825  22.3217318
  80.1562909  46.3161815  23.1002274  69.6477244  54.7842705  31.1095261
  70.3486703  55.4179188  31.2624655  69.1772359  55.1257436  30.3490900
  77.7731639  53.1260654  19.3943168  78.0491483  53.0117249  20.3037042
  76.9036138  52.7278139  19.3555341  77.6772071  39.1497420  26.4347917
  76.7635151  39.3801647  26.6030124  78.1065172  39.2335864  27.2861949
  77.4478530  47.3387312  28.9347811  76.7949980  47.5863220  28.2800264
  77.8258909  46.5251450  28.6010288  74.4085703  57.3747005  23.0375981
  74.5908098  56.5568661  23.5003734  75.2318689  57.5914698  22.6000871
  74.7427869  56.3015190  20.2991030  75.2715635  55.7907645  19.6861192
  75.0056088  55.9857721  21.1636563  73.4966103  48.0807123  35.4213848
  72.8206740  47.9801253  36.0916223  74.3193736  47.9246337  35.8849845
  65.2444962  54.3179060  28.0426363  65.8298398  53.5722748  28.1754268
  65.0469800  54.6283016  28.9263027  68.0983617  57.3530307  23.0588806
  67.4293992  57.8376435  22.5752846  67.9596487  57.5999528  23.9732184
  59.8362616  46.8884660  26.7630807  59.8746716  46.3548251  27.5567925
  59.3302909  46.3619865  26.1441784  72.2388885  59.3874051  29.6571464
  72.7907193  59.5505672  30.4220549  72.5795079  59.9778488  28.9851489
  67.2153379  41.7349200  30.2593349  67.2794705  42.5964031  29.8470747
  67.1520499  41.1223202  29.5265707  66.6905651  43.8072333  33.9066383
  67.3177690  43.4249410  34.5203907  65.8333570  43.5886535  34.2722076
  77.0899760  54.2135308  35.5120119  77.6339664  54.8265266  35.0175073
  76.5086605  54.7714887  36.0287132  63.4671194  45.6148762  19.8384738
  63.7624635  44.7059441  19.7851792  62.5659230  45.5936502  19.5165740
  75.3757273  57.3356026  26.6435146  75.2508412  56.5345766  26.1346092
  76.0336364  57.8302220  26.1549116  66.9965441  43.6904759  25.8212287
  66.2752027  44.3040726  25.6819760  67.7858697  44.2262524  25.7428933
  77.4392181  55.1365046  28.2714696  76.4922517  55.0170397  28.1993023
  77.7874954  54.2487544  28.3540958  69.7991754  41.0259185  32.0952938
  70.3226156  41.2721482  32.8579248  69.5804088  41.8579220  31.6756076
  65.1959036  43.2962860  19.9624063  64.8671742  42.4160239  19.7799169
  65.5498406  43.2410528  20.8500452  74.4438614  54.9317762  24.4719049
  74.2963577  54.0034470  24.6526619  75.2692108  54.9537853  23.9876124
  68.3100859  43.5835830  20.3299541  68.6496931  44.1121751  19.6078149
  68.7572979  43.9216236  21.1058107  78.0472736  55.7546321  25.5583921
  78.9719284  55.5489183  25.4208373  77.8788040  55.5062722  26.4673263
  71.0044299  41.9672880  29.7802609  70.6641120  41.1680693  30.1823289
  70.2983306  42.2674591  29.2079442  71.6560771  39.0522193  28.2329932
  72.4786841  38.5782671  28.1108822  71.8998835  39.8312676  28.7328618
  70.2969006  42.0810451  18.5292834  71.0177368  42.4591704  18.0256550
  69.6734310  42.7999328  18.6327812  74.4400129  42.7855600  19.4651166
  74.6563743  43.6680238  19.1639994  73.9594196  42.3941814  18.7356808
  69.1799350  45.7441313  26.0421910  69.0343931  46.0581616  26.9346192
  68.7024554  46.3626214  25.4892809  71.0395733  42.7343861  26.0902800
  71.0257302  41.8384955  25.7535098  71.7568161  42.7414525  26.7241086
  72.8921864  43.1681202  28.1355927  72.6339641  44.0898272  28.1340258
  72.3606904  42.7711636  28.8256392  77.8368052  56.2731989  20.9146013
  78.0104930  55.7078411  20.1619865  78.3296944  57.0732884  20.7325503
  63.6545012  48.2846658  28.9809572  63.1098480  49.0606466  29.1129846
  64.5324362  48.6317462  28.8228693  70.4432629  41.6158242  21.3590370
  70.5648540  40.6874888  21.5581258  70.1534671  41.6296928  20.4468686
  73.3123819  39.3013152  24.4957090  73.3345516  39.3652485  23.5409070
  73.7291878  38.4617661  24.6897596  83.6907444  49.0368412  22.5336313
  84.1338590  48.2875737  22.1355436  82.8133954  49.0278548  22.1510045
  78.8243225  55.5898753  18.0142911  79.5194130  56.2105446  18.2330226
  79.1666375  54.7394104  18.2895289  64.4411034  47.4116554  31.8739729
  63.6992770  47.5599189  32.4604359  64.1203778  47.6724820  31.0106478
  80.7234648  53.0398459  19.5430242  81.2485972  53.3785731  18.8179562
  80.6357001  52.1045474  19.3593377  72.3854697  56.9532532  31.6720119
  72.6941823  56.7081679  32.5442818  73.1830179  57.1579171  31.1838989
  72.4075309  59.1070442  23.9025495  71.9680299  58.6146821  24.5958352
  73.1583426  58.5643410  23.6617570  64.8867648  55.2981983  23.9050123
  65.7125668  54.9985755  23.5248767  64.5361700  54.5289605  24.3539912
  69.8549181  54.6508451  25.9747797  69.2329190  53.9879156  25.6750025
  70.5254048  54.6769583  25.2921445  63.0876253  53.2168309  24.8639057
  62.2508161  52.7890484  24.6823058  63.0599898  53.4100753  25.8009848
  69.9273708  43.1290239  35.5680303  69.9761864  44.0052362  35.1858072
  70.4696223  42.5867632  34.9951946  80.4128554  53.6731362  34.8481440
  79.6224098  53.6555501  34.3085939  80.1761909  54.2119656  35.6030476
  80.5326429  50.5223829  32.1614168  80.5824434  50.3573836  33.1029691
  80.4240353  49.6551088  31.7712049  69.4162688  53.2012374  19.4506257
  69.5650808  53.8847839  18.7972930  70.2229131  53.1817464  19.9655713
  77.8230192  46.5054757  33.4773475  78.7240054  46.3661222  33.1857473
  77.8978166  46.6709211  34.4171653  72.1572997  43.8821611  32.3226661
  71.2876306  44.1755177  32.0509250  72.3932477  44.4662056  33.0433925
  82.0344626  52.9420770  32.4056190  81.7429434  53.3050751  33.2419651
  81.4216757  52.2287778  32.2269522  83.2340308  50.5073650  24.9258760
  84.0687200  50.9463454  25.0896321  83.3699437  50.0312303  24.1067006
  80.2831814  48.0653385  30.8736248  80.7585936  48.2581031  30.0655099
  79.3597380  48.1212571  30.6279632  67.1715321  49.2277552  20.4567326
  66.9261363  48.3239882  20.6547536  67.3411235  49.2294702  19.5146804
  74.8612031  40.1001228  29.8392082  75.3793975  40.8362255  29.5138570
  74.5067163  40.4065222  30.6738841  66.4410968  44.9605910  17.9553488
  65.7480213  45.0350265  17.2993524  66.1962720  44.1966253  18.4775005
  75.1124625  36.5201511  25.3592978  75.3926379  35.8524700  25.9853405
  75.8975232  36.7130606  24.8467642  72.9158093  55.6960505  16.9218005
  72.3432060  56.3150692  16.4688477  73.4890887  56.2459866  17.4557927
  78.9833483  44.9419145  29.1064554  79.9350906  45.0417243  29.1276778
  78.8136934  44.1497413  29.6162638  77.0047863  42.0274728  29.2923954
  76.4097795  42.3079741  28.5970443  76.7197559  42.5168629  30.0640696
  76.1355353  55.9797655  18.0526587  77.0686026  55.9143217  18.2559463
  76.0478566  56.8153922  17.5941120  78.7643370  55.2963525  15.0130535
  78.6857001  54.9623389  15.9066292  79.5853037  55.7885293  15.0122007
  81.4621561  48.1625265  28.2206853  81.4297881  47.2241265  28.4066537
  82.0722185  48.2409301  27.4872678  73.3004892  47.0321318  14.2634057
  74.2463997  46.9027526  14.3322475  72.9219137  46.2935979  14.7403485
  81.6116049  44.9536308  28.2665136  81.0955098  44.1694765  28.0795065
  82.4955998  44.6255025  28.4311656  79.2726776  38.6977324  24.2260949
  79.0751598  38.3892412  25.1104281  79.8826482  39.4238962  24.3558879
  87.2798111  49.2241271  27.3612890  88.0101499  48.9626560  27.9220593
  86.6705056  48.4869993  27.4014958  85.3613408  47.3649134  27.9587341
  84.6346572  47.2305099  27.3503833  84.9460695  47.6725963  28.7644059
  73.1843584  51.0839064  35.7234714  74.1046594  51.2617663  35.9174761
  73.1493167  50.1395109  35.5714413  71.4847809  44.9571294  14.1988942
  70.5779264  44.6604407  14.2751656  71.7623790  44.6601112  13.3323229
  62.4025749  46.2777657  24.6487989  62.0828534  45.4242966  24.3562363
  61.8559178  46.4926235  25.4045956  66.1805657  48.9940098  28.3657495
  66.3991667  49.9257206  28.3845529  66.5931431  48.6348073  29.1512299
  73.1009875  39.5008184  20.3533184  72.2910603  39.1555269  20.7288430
  73.7894292  39.1915727  20.9420795  75.0300423  38.5786230  21.9757480
  75.5831462  38.9981684  22.6347503  75.2670509  37.6521979  22.0180436
  71.0533522  44.5673304  37.7560244  70.9530249  45.5167661  37.6872335
  70.8355064  44.2391543  36.8836314  70.2546594  41.8158229  14.3400922
  71.1165758  42.1413127  14.5996739  70.4396938  41.0289725  13.8273987
  62.2714009  49.8980569  26.6181110  61.5777481  49.4834522  26.1051065
  63.0187000  49.9401105  26.0214529  78.4079230  40.6886756  21.4836145
  77.8277899  41.3471560  21.1014197  78.1415163  39.8664100  21.0723562
  76.8582796  40.0891813  23.6857465  77.3582575  40.2008348  22.8771784
  77.5018404  39.7852866  24.3258273  70.9164792  47.9970443  36.5725306
  70.4331874  48.7970803  36.7789195  71.0025731  48.0078388  35.6192750
  64.1850752  49.8298823  24.4947125  64.1621440  49.9286510  23.5429008
  64.4951388  50.6763973  24.8164291  66.8438130  51.8874978  28.6093740
  67.7981383  51.8558920  28.5423671  66.6450653  51.4265601  29.4243966
  67.4337512  50.4576094  31.1764537  68.2530401  50.9520172  31.1999375
  67.7074320  49.5408062  31.1482105  77.1904108  42.8486846  20.5392493
  76.3029963  43.1336497  20.3212688  77.6058097  42.6880609  19.6919770
  80.5418644  42.8733367  24.2546832  81.3179034  43.3629819  24.5271449
  79.8166778  43.2991421  24.7118702  82.9791203  43.5860986  25.3120773
  83.5735694  43.3456722  24.6014081  83.0517787  42.8668117  25.9394309
  65.1988359  57.4294597  25.6263938  65.0642827  56.6694998  25.0601936
  64.7820421  58.1535497  25.1592726  76.3347322  52.6131521  14.6340513
  77.0383172  52.8181523  15.2498168  75.6109970  53.1808283  14.8989596
  77.1645132  48.3641382  20.7542783  77.1080333  48.8209933  19.9150415
  77.7173474  47.6032067  20.5765626  80.9749938  44.1531114  21.5792903
  80.7186872  43.7527749  22.4101110  80.3502806  44.8674908  21.4543042
  85.2862276  46.8927187  24.0864194  84.7261834  46.9620376  24.8595756
  84.6805779  46.7168172  23.3663690  68.3557484  58.3263914  25.8382380
  68.2389869  59.2709347  25.7361070  67.5349931  58.0237476  26.2268179
  78.2434019  53.0514050  16.6838973  79.0779623  52.6195248  16.5016448
  78.0818362  52.8796064  17.6115867  77.8979911  49.5546163  18.0495312
  77.8428715  49.3890435  17.1083756  77.2725966  50.2622196  18.2057502
  62.6872426  44.7914228  31.8756734  63.3331290  44.2813182  32.3643960
  62.4789577  45.5282909  32.4500160  75.2125818  51.8595075  37.3748875
  76.0816978  52.0335727  37.0135510  74.7332570  52.6789492  37.2524604
  71.2076037  39.0554272  17.6280631  71.1954706  39.9996112  17.7848901
  72.0999459  38.8724418  17.3340092  69.3811999  58.9792176  29.0538309
  70.2839245  59.0115786  29.3704804  69.1549369  58.0492627  29.0684644
  71.1365601  57.7323163  25.7148387  70.1861232  57.7325024  25.6012760
  71.4398087  56.9855897  25.1984422  75.0228156  35.6497049  21.8826567
  74.2560552  35.0955535  22.0283250  75.4338861  35.7218918  22.7440719
  67.0269917  41.9381845  35.9731749  67.8901379  41.5818649  36.1835073
  66.4535328  41.5995739  36.6607153  86.8718294  63.5683701  26.7794150
  87.5096704  63.4490448  26.0757490  86.7539137  64.5164545  26.8382102
  83.6808000  63.5211129  26.7155674  83.3426512  63.4052194  25.8276209
  84.5497769  63.1202294  26.6956681  79.5394816  65.3746605  22.7052565
  78.9759681  65.2836542  21.9368853  79.4247211  64.5546510  23.1855058
  84.1627783  64.6745981  32.6741880  84.1516424  64.2798779  31.8022384
  84.3248423  63.9412053  33.2675651  77.0859248  66.8697797  25.5436786
  77.8780540  66.5288622  25.1283085  77.3255898  66.9792772  26.4638939
  85.1194375  69.0417573  18.0167030  84.4682355  69.6271654  17.6301044
  85.9138738  69.5723768  18.0762068  79.0450002  66.1306710  18.4154165
  79.8180878  65.5835697  18.2767040  79.3975401  66.9950960  18.6268626
  80.8835045  67.4583093  31.6221064  80.5924910  68.3628723  31.5067730
  81.5192029  67.4999620  32.3365133  81.8091251  64.8359941  28.2122424
  82.4054824  64.6115964  27.4979386  81.8666223  64.0944687  28.8147871
  81.3816280  62.2899376  16.0472614  81.6341800  61.7680898  15.2856077
  80.4440839  62.1265522  16.1499298  86.4259563  61.2935155  23.8547358
  87.2122652  60.8754578  23.5037775  86.6898267  62.1981247  24.0229006
  86.5969640  66.7308005  18.5536015  85.9615473  66.8042632  19.2656919
  86.2667046  67.3201604  17.8755094  91.8267990  61.2310388  24.7580336
  92.5593162  60.6609605  24.9918166  91.0707345  60.8431988  25.1986842
  81.1012569  64.1927482  18.2496989  80.9848827  63.5172386  18.9178074
  81.2114828  63.7059856  17.4329143  83.4444109  63.6537630  21.9543679
  83.0802317  63.1268250  22.6656600  84.3011225  63.2636099  21.7810164
  89.3493410  54.9431962  29.2174945  89.0176735  55.8127373  28.9936160
  88.7539023  54.6268246  29.8968975  83.0849596  58.6827529  16.9505027
  83.2523999  59.5507766  17.3175498  82.8946765  58.8454811  16.0266316
  85.8424930  67.1444508  28.6170858  85.5425653  68.0469547  28.5086665
  85.4975989  66.8776691  29.4692010  79.2937411  63.5958305  24.6507562
  78.3687908  63.4634519  24.8585254  79.5421824  64.3752524  25.1477504
  89.2422073  59.6627048  26.2968295  88.3338951  59.5942457  26.0027056
  89.1909669  60.1398993  27.1250120  83.0638817  61.1385187  17.9351694
  82.9438442  61.5842237  18.7737174  82.3691406  61.4870504  17.3765232
  76.6546222  63.2391578  25.4851351  76.7838603  63.4926057  26.3990763
  75.9743673  63.8319286  25.1656006  80.8245709  73.9088828  21.5841825
  80.7469739  74.8596654  21.6630306  80.2207353  73.5634701  22.2416752
  83.3162939  61.0816694  34.2403192  82.5396273  61.6410614  34.2306057
  83.9553502  61.5673477  34.7618062  91.1083720  57.8643487  28.0746169
  90.4658100  58.1576020  27.4285963  90.6038648  57.7496407  28.8799365
  88.7623883  61.6106660  18.7632028  89.6741740  61.8434047  18.5879726
  88.2533531  62.1943704  18.2007107  81.5709311  63.8902147  33.8021159
  82.3123996  64.4287191  33.5255983  80.8646297  64.5168436  33.9592711
  87.0464651  66.0331288  32.3993321  87.4548007  65.5913698  31.6547953
  86.3241913  65.4583915  32.6527514  83.3995721  60.9703894  29.7726878
  84.2456916  61.3943308  29.9161527  83.3394359  60.3137519  30.4665441
  87.3693466  66.5932478  26.1545610  86.7402328  66.7578192  25.4521677
  86.9819128  67.0074088  26.9256574  91.2482698  67.5286916  23.5089973
  90.5633736  67.9085818  22.9587007  91.3326547  68.1382243  24.2421921
  86.5495167  58.6308263  31.4308051  86.3056098  59.3850323  30.8942327
  86.8255097  59.0093610  32.2655298  88.5033629  65.1746875  30.1085317
  88.7150525  65.8178635  29.4319698  88.4563378  64.3409192  29.6407247
  86.1059858  57.7864696  27.0121889  85.2444337  58.0845949  27.3038627
  86.1322293  58.0035095  26.0802922  82.9221428  66.3306886  23.4195695
  83.3859773  66.6094589  22.6300317  82.6578226  65.4290331  23.2368785
  79.8145509  65.8778368  26.3575458  80.3846866  66.3065636  25.7192942
  80.4053621  65.5960953  27.0559644  81.8590314  62.4530039  20.2285260
  82.5614357  62.9051082  20.6959186  81.5270942  61.8113858  20.8565153
  80.3070675  61.0441795  34.6036469  79.6769336  61.7258076  34.8371866
  80.2006763  60.9324877  33.6589607  75.6015648  60.7113591  25.5302393
  74.8114702  60.9671120  25.0542504  76.0926895  61.5261929  25.6354434
  89.6179457  68.0518831  28.2807674  90.4396901  67.6499018  27.9990356
  89.6141860  67.9487065  29.2323790  77.5530393  61.0758171  22.4885870
  76.7561556  61.1876865  23.0069366  77.3255985  61.4144823  21.6226761
  83.3836061  67.6002874  30.4368385  83.4480493  68.0623281  31.2726557
  82.6746985  66.9700239  30.5650695  73.8853351  60.9644082  27.9617384
  74.1361389  61.8491092  28.2274960  74.4212899  60.7848683  27.1892476
  97.7085450  64.3957579  24.6292646  96.9549159  63.8264977  24.4736650
  97.8432991  64.3620244  25.5763280  83.0984078  69.2670981  20.3047365
  82.9629753  70.1122517  20.7332213  83.6393891  69.4690259  19.5413299
  79.5851418  55.3462561  36.9661720  79.1918364  54.7928760  37.6409364
  80.4017558  55.6573140  37.3568238  76.5513476  66.7846419  20.8775290
  77.0637996  67.5789670  21.0280855  77.2036189  66.0872710  20.8108892
  78.3608360  69.9012176  22.9598043  78.5374989  70.8230140  22.7719027
  79.1565194  69.5870595  23.3892423  82.5019379  56.7620440  34.5581977
  83.2429092  57.3627593  34.4786439  82.7337302  56.0198078  34.0000019
  77.6460717  61.9476808  32.8360206  77.5314232  61.0462065  33.1367305
  76.7905235  62.1940504  32.4845023  84.7252555  69.8894548  34.4347707
  84.2816409  69.1030926  34.1168612  85.3869768  70.0773698  33.7691598
  79.4839676  71.4190350  28.9608386  80.0347101  71.2907413  28.1885380
  78.6451152  71.7185239  28.6103278  86.8233793  70.1697348  32.4629108
  86.8052268  70.9906229  31.9709378  87.7453713  70.0451423  32.6879250
  83.2806847  67.6841477  33.3052617  83.8135184  66.9229766  33.0751925
  82.7520928  67.3915129  34.0476771  86.4476542  52.7901543  28.8346258
  86.1040811  53.6803185  28.7585369  86.8155504  52.6003201  27.9715843
  74.5162392  65.1135074  21.6534861  75.3537614  65.5232082  21.4368568
  74.6940660  64.1734516  21.6235054  86.4126825  62.7810154  17.3418694
  85.8973448  63.5514759  17.5807081  86.1404133  62.1075291  17.9651755
  83.9973936  57.6259855  22.4003932  83.1415532  57.2366706  22.2209571
  84.4100887  57.7051816  21.5403717  85.5273082  55.1606198  26.7995492
  85.0237878  55.1236334  25.9863297  85.8203689  56.0698941  26.8592148
  81.7715968  55.2444928  25.8061673  82.6368965  55.0487737  25.4467563
  81.8393477  55.0155280  26.7331030  91.3861099  65.5342509  19.2771867
  90.6090542  65.1953669  18.8327029  92.0652580  65.5395132  18.6026832
  86.2013128  60.6537246  19.1678475  85.8963263  60.9683396  20.0188618
  87.1543570  60.7318666  19.2105808  84.6459560  66.8127470  20.8171429
  84.1180921  66.0780229  20.5044666  84.1447062  67.5902146  20.5711397
  89.6252406  65.0076490  25.9338475  88.9676080  65.6975752  26.0218604
  90.4292805  65.3972922  26.2772461  79.3778287  57.4747136  23.1778040
  79.9522039  57.2522318  22.4451233  79.9649270  57.5435831  23.9306642
  88.4357864  63.3620863  23.9842417  88.9489746  63.9950855  24.4864127
  89.0859088  62.7622058  23.6185777  79.7047874  59.5051597  17.1973926
  78.8685187  59.8426284  17.5183200  79.5652644  59.3700577  16.2601062
  81.6800955  54.3488385  21.9053110  81.0265367  54.0337402  21.2809724
  81.6381429  53.7264125  22.6312933  82.7912160  64.6307680  13.8206402
  81.8839222  64.3996934  14.0197551  83.2883192  63.8345299  14.0080383
  85.6980239  73.3405187  16.7403088  85.0241937  73.6436884  17.3488046
  86.0846061  74.1434268  16.3908545  84.9138695  60.8370319  26.2300757
  83.9961257  61.0585266  26.0722445  85.3298839  60.9116629  25.3712465
  85.6973743  62.2361734  21.3603438  86.4445562  62.7483131  21.0510560
  85.9665333  61.9145787  22.2207831  83.9700393  64.7320275  18.3430392
  83.0611613  64.4479308  18.4402862  83.9995477  65.1519354  17.4833699
  89.2019661  68.3426864  22.1121559  88.7481988  67.5017774  22.1686750
  88.5713627  68.9788263  22.4496340  88.1452580  59.2718850  23.3422227
  87.4075337  58.7596237  23.6732469  88.3979354  58.8319232  22.5305504
  87.6452600  70.1803361  23.0471378  87.9375574  70.7408418  22.3283743
  88.1551220  70.4731922  23.8024537  88.2464208  52.0495102  23.9363996
  88.5523084  51.1892466  23.6489911  88.9716812  52.6412723  23.7362990
  74.5388564  62.4525789  22.3245594  74.3412963  61.8595150  21.5996661
  73.9835228  62.1477999  23.0421533  82.5185287  62.3448896  24.4440187
  82.5733897  61.3922732  24.3682664  81.7076489  62.5008335  24.9281486
  83.6676481  66.2729019  15.6818470  83.2295911  65.5564878  15.2224108
  84.4086922  66.5005133  15.1203562  80.4577647  60.9625955  22.2030566
  79.6445513  61.2620126  22.6095758  80.9536641  60.5681644  22.9205048
  82.6086225  70.9583712  24.1364831  82.5662404  71.1844559  23.2073363
  83.5248924  70.7247087  24.2850632  86.0551859  61.4267780  31.0345460
  86.4101247  61.6539253  31.8939926  86.7023990  61.7586157  30.4122715
  91.7849596  64.5486216  21.7394789  91.6467494  64.7387812  20.8115978
  91.4285815  65.3105598  22.1962840  79.9491722  58.5344311  27.8191801
  80.5891101  58.3933070  27.1214764  79.1169253  58.2478824  27.4430403
  91.8118975  66.6162743  26.7506061  92.2455482  66.5238032  27.5989115
  92.5250556  66.5920243  26.1126077  80.7252026  67.8346741  23.9326793
  81.5192624  67.3397061  23.7309368  80.0143718  67.3064604  23.5694499
  85.5446870  70.2164837  28.2839161  85.5983893  70.7855773  29.0516877
  84.6761652  70.3866722  27.9193198  77.0334789  61.9789823  20.0086546
  76.1032377  61.9174278  20.2256508  77.1292261  61.4565776  19.2123187
  76.9520338  58.5044636  22.5964788  77.2127156  59.4189969  22.4873948
  77.7737511  58.0369078  22.7461401  78.4245264  59.9182393  29.7663612
  79.0968317  59.7099755  29.1176261  77.5975050  59.7204479  29.3268845
  92.6734525  66.6586443  29.2838946  92.8670415  67.5632254  29.5298221
  92.5735143  66.1993862  30.1177531  84.3270836  56.5444334  31.7829273
  83.6798751  57.2434284  31.6893750  85.0971851  56.9780478  32.1505521
  87.7349634  66.8093186  34.8579827  87.5835140  66.5803738  33.9409910
  87.7254313  67.7663787  34.8711172  84.5034970  64.3825099  29.8426093
  85.4327030  64.5336258  29.6695060  84.0826000  64.4709120  28.9874739
  83.3023302  68.4075763  27.6124631  83.1634388  68.0394548  28.4850569
  82.5137898  68.9223403  27.4408588  83.8971454  73.5084860  18.9550167
  84.0723210  73.0372903  19.7695790  83.2104242  74.1350626  19.1831428
  84.8528517  67.7857366  25.0013468  84.5178350  67.7458136  25.8971118
  84.3532463  67.1202082  24.5283879  78.8272761  63.1924996  30.5266050
  78.6892559  62.4605235  31.1277589  79.7377684  63.1033896  30.2450237
  87.7887709  65.1313400  15.2750528  87.1716879  64.4060228  15.1783581
  87.3204197  65.8922761  14.9317602  81.4555062  62.9044955  30.0149729
  82.1654680  62.2638147  29.9736348  81.4124370  63.1557850  30.9375910
  89.4441840  69.8412309  32.9356308  89.3854386  69.1571529  32.2686891
  89.8461359  70.5831299  32.4836934  80.1683996  59.8910173  31.8345369
  79.6321353  59.4400912  32.4866965  79.5800704  60.0256082  31.0915833
  78.4632539  76.6574222  25.7290027  78.7029137  77.2892747  26.4069046
  77.6201736  76.3062262  26.0155387  79.5786255  59.3498825  14.3971832
  78.7015721  59.2287625  14.0334079  80.0544008  58.5584903  14.1450721
  89.4459248  67.8051893  31.1670288  88.5586026  67.4677814  31.2896687
  90.0157799  67.0734924  31.4039053  71.0988395  64.1375984  24.4913339
  71.7859435  63.8237714  23.9034355  70.9436523  65.0417349  24.2180591
  75.9023117  59.0266181  28.9198363  75.8181306  58.4191850  28.1848773
  75.0805823  59.5175199  28.9207859  82.9760401  72.4653345  28.1331531
  82.9030572  73.2708316  28.6450836  82.5337794  72.6645311  27.3079553
  82.7650181  71.7025115  21.6434353  81.9817703  72.2446795  21.7372577
  83.4642926  72.2199095  22.0428594  86.0746831  57.5119744  24.2868558
  86.5715530  56.7589707  23.9669628  85.3033812  57.5484061  23.7211768
  93.9276588  63.2160110  25.9286850  93.9166464  64.0984825  25.5580783
  93.0593968  62.8631661  25.7341387  85.4359085  72.3640179  30.2889690
  86.1487057  72.9987644  30.2165591  84.9449113  72.4604045  29.4729692
  87.1576611  66.2691432  21.8606982  86.2232890  66.3892894  21.6911686
  87.3353280  65.3663898  21.5966991  82.6581799  59.6537127  24.0140243
  82.2879587  59.1008168  24.7021148  83.1540892  59.0495261  23.4615243
  90.5449163  62.1108751  22.3957016  91.0109615  62.9436742  22.3217318
  90.9956663  61.6453732  23.1002274  80.4870998  70.1134622  31.1095261
  81.1880458  70.7471105  31.2624655  80.0166113  70.4549354  30.3490900
  88.6125394  68.4552572  19.3943168  88.8885238  68.3409167  20.3037042
  87.7429893  68.0570057  19.3555341  88.5165826  54.4789338  26.4347917
  87.6028905  54.7093565  26.6030124  88.9458927  54.5627782  27.2861949
  88.2872284  62.6679230  28.9347811  87.6343734  62.9155137  28.2800264
  88.6652664  61.8543368  28.6010288  85.2479458  72.7038923  23.0375981
  85.4301852  71.8860579  23.5003734  86.0712444  72.9206615  22.6000871
  85.5821623  71.6307108  20.2991030  86.1109390  71.1199563  19.6861192
  85.8449843  71.3149638  21.1636563  84.3359857  63.4099041  35.4213848
  83.6600494  63.3093170  36.0916223  85.1587491  63.2538255  35.8849845
  76.0838716  69.6470977  28.0426363  76.6692153  68.9014665  28.1754268
  75.8863555  69.9574934  28.9263027  78.9377371  72.6822225  23.0588806
  78.2687747  73.1668352  22.5752846  78.7990241  72.9291445  23.9732184
  70.6756371  62.2176578  26.7630807  70.7140470  61.6840168  27.5567925
  70.1696664  61.6911783  26.1441784  83.0782640  74.7165968  29.6571464
  83.6300948  74.8797590  30.4220549  83.4188833  75.3070406  28.9851489
  78.0547133  57.0641118  30.2593349  78.1188460  57.9255949  29.8470747
  77.9914253  56.4515120  29.5265707  77.5299406  59.1364251  33.9066383
  78.1571444  58.7541328  34.5203907  76.6727325  58.9178453  34.2722076
  87.9293514  69.5427226  35.5120119  88.4733418  70.1557184  35.0175073
  87.3480359  70.1006804  36.0287132  74.3064948  60.9440680  19.8384738
  74.6018390  60.0351358  19.7851792  73.4052984  60.9228419  19.5165740
  86.2151027  72.6647944  26.6435146  86.0902167  71.8637684  26.1346092
  86.8730118  73.1594137  26.1549116  77.8359195  59.0196676  25.8212287
  77.1145781  59.6332644  25.6819760  78.6252451  59.5554441  25.7428933
  88.2785936  70.4656964  28.2714696  87.3316271  70.3462315  28.1993023
  88.6268709  69.5779462  28.3540958  80.6385509  56.3551103  32.0952938
  81.1619911  56.6013399  32.8579248  80.4197842  57.1871138  31.6756076
  76.0352790  58.6254777  19.9624063  75.7065496  57.7452156  19.7799169
  76.3892161  58.5702446  20.8500452  85.2832369  70.2609680  24.4719049
  85.1357331  69.3326388  24.6526619  86.1085862  70.2829771  23.9876124
  79.1494613  58.9127747  20.3299541  79.4890686  59.4413669  19.6078149
  79.5966734  59.2508153  21.1058107  88.8866491  71.0838239  25.5583921
  89.8113038  70.8781100  25.4208373  88.7181794  70.8354640  26.4673263
  81.8438054  57.2964798  29.7802609  81.5034874  56.4972611  30.1823289
  81.1377060  57.5966509  29.2079442  82.4954526  54.3814110  28.2329932
  83.3180595  53.9074589  28.1108822  82.7392589  55.1604594  28.7328618
  81.1362760  57.4102369  18.5292834  81.8571123  57.7883622  18.0256550
  80.5128064  58.1291246  18.6327812  85.2793883  58.1147518  19.4651166
  85.4957498  58.9972156  19.1639994  84.7987950  57.7233731  18.7356808
  80.0193105  61.0733231  26.0421910  79.8737685  61.3873534  26.9346192
  79.5418308  61.6918131  25.4892809  81.8789487  58.0635779  26.0902800
  81.8651056  57.1676872  25.7535098  82.5961916  58.0706443  26.7241086
  83.7315618  58.4973119  28.1355927  83.4733396  59.4190190  28.1340258
  83.2000659  58.1003554  28.8256392  88.6761807  71.6023906  20.9146013
  88.8498684  71.0370329  20.1619865  89.1690698  72.4024801  20.7325503
  74.4938767  63.6138575  28.9809572  73.9492235  64.3898383  29.1129846
  75.3718117  63.9609380  28.8228693  81.2826383  56.9450159  21.3590370
  81.4042295  56.0166805  21.5581258  80.9928426  56.9588845  20.4468686
  84.1517574  54.6305070  24.4957090  84.1739271  54.6944403  23.5409070
  84.5685633  53.7909578  24.6897596  94.5301198  64.3660329  22.5336313
  94.9732344  63.6167655  22.1355436  93.6527708  64.3570466  22.1510045
  89.6636979  70.9190671  18.0142911  90.3587884  71.5397363  18.2330226
  90.0060130  70.0686022  18.2895289  75.2804789  62.7408472  31.8739729
  74.5386525  62.8891107  32.4604359  74.9597533  63.0016737  31.0106478
  91.5628403  68.3690376  19.5430242  92.0879727  68.7077649  18.8179562
  91.4750755  67.4337392  19.3593377  83.2248451  72.2824450  31.6720119
  83.5335578  72.0373597  32.5442818  84.0223933  72.4871088  31.1838989
  83.2469063  74.4362360  23.9025495  82.8074054  73.9438738  24.5958352
  83.9977180  73.8935327  23.6617570  75.7261402  70.6273900  23.9050123
  76.5519422  70.3277672  23.5248767  75.3755454  69.8581523  24.3539912
  80.6942935  69.9800369  25.9747797  80.0722945  69.3171074  25.6750025
  81.3647802  70.0061501  25.2921445  73.9270007  68.5460227  24.8639057
  73.0901916  68.1182401  24.6823058  73.8993653  68.7392670  25.8009848
  80.7667463  58.4582157  35.5680303  80.8155618  59.3344279  35.1858072
  81.3089977  57.9159550  34.9951946  91.2522309  69.0023280  34.8481440
  90.4617852  68.9847419  34.3085939  91.0155663  69.5411574  35.6030476
  91.3720184  65.8515746  32.1614168  91.4218189  65.6865754  33.1029691
  91.2634107  64.9843005  31.7712049  80.2556442  68.5304292  19.4506257
  80.4044563  69.2139756  18.7972930  81.0622886  68.5109382  19.9655713
  88.6623946  61.8346674  33.4773475  89.5633809  61.6953139  33.1857473
  88.7371921  62.0001129  34.4171653  82.9966751  59.2113529  32.3226661
  82.1270061  59.5047095  32.0509250  83.2326232  59.7953974  33.0433925
  92.8738380  68.2712688  32.4056190  92.5823189  68.6342668  33.2419651
  92.2610512  67.5579696  32.2269522  94.0734063  65.8365568  24.9258760
  94.9080954  66.2755372  25.0896321  94.2093192  65.3604221  24.1067006
  91.1225569  63.3945302  30.8736248  91.5979690  63.5872949  30.0655099
  90.1991134  63.4504488  30.6279632  78.0109075  64.5569470  20.4567326
  77.7655117  63.6531800  20.6547536  78.1804990  64.5586620  19.5146804
  85.7005785  55.4293146  29.8392082  86.2187729  56.1654173  29.5138570
  85.3460918  55.7357139  30.6738841  77.2804723  60.2897827  17.9553488
  76.5873968  60.3642182  17.2993524  77.0356475  59.5258171  18.4775005
  85.9518379  51.8493429  25.3592978  86.2320133  51.1816618  25.9853405
  86.7368986  52.0422524  24.8467642  83.7551848  71.0252422  16.9218005
  83.1825815  71.6442610  16.4688477  84.3284642  71.5751784  17.4557927
  89.8227238  60.2711063  29.1064554  90.7744661  60.3709160  29.1276778
  89.6530688  59.4789331  29.6162638  87.8441617  57.3566646  29.2923954
  87.2491549  57.6371658  28.5970443  87.5591314  57.8460547  30.0640696
  86.9749108  71.3089573  18.0526587  87.9079781  71.2435134  18.2559463
  86.8872320  72.1445839  17.5941120  89.6037124  70.6255443  15.0130535
  89.5250756  70.2915307  15.9066292  90.4246791  71.1177211  15.0122007
  92.3015316  63.4917182  28.2206853  92.2691636  62.5533183  28.4066537
  92.9115939  63.5701219  27.4872678  84.1398646  62.3613235  14.2634057
  85.0857751  62.2319443  14.3322475  83.7612891  61.6227897  14.7403485
  92.4509804  60.2828226  28.2665136  91.9348853  59.4986682  28.0795065
  93.3349753  59.9546942  28.4311656  90.1120531  54.0269241  24.2260949
  89.9145352  53.7184329  25.1104281  90.7220236  54.7530880  24.3558879
  98.1191865  64.5533189  27.3612890  98.8495254  64.2918477  27.9220593
  97.5098811  63.8161911  27.4014958  96.2007162  62.6941052  27.9587341
  95.4740326  62.5597017  27.3503833  95.7854449  63.0017880  28.7644059
  84.0237339  66.4130981  35.7234714  84.9440348  66.5909580  35.9174761
  83.9886922  65.4687027  35.5714413  82.3241564  60.2863212  14.1988942
  81.4173019  59.9896324  14.2751656  82.6017545  59.9893030  13.3323229
  73.2419504  61.6069575  24.6487989  72.9222288  60.7534883  24.3562363
  72.6952932  61.8218153  25.4045956  77.0199411  64.3232016  28.3657495
  77.2385421  65.2549124  28.3845529  77.4325185  63.9639990  29.1512299
  83.9403629  54.8300101  20.3533184  83.1304358  54.4847186  20.7288430
  84.6288046  54.5207645  20.9420795  85.8694178  53.9078148  21.9757480
  86.4225216  54.3273602  22.6347503  86.1064264  52.9813896  22.0180436
  81.8927277  59.8965222  37.7560244  81.7924004  60.8459579  37.6872335
  81.6748819  59.5683461  36.8836314  81.0940348  57.1450147  14.3400922
  81.9559512  57.4705045  14.5996739  81.2790692  56.3581643  13.8273987
  73.1107764  65.2272486  26.6181110  72.4171235  64.8126439  26.1051065
  73.8580755  65.2693023  26.0214529  89.2472985  56.0178673  21.4836145
  88.6671654  56.6763477  21.1014197  88.9808917  55.1956018  21.0723562
  87.6976551  55.4183731  23.6857465  88.1976329  55.5300266  22.8771784
  88.3412159  55.1144784  24.3258273  81.7558547  63.3262361  36.5725306
  81.2725629  64.1262721  36.7789195  81.8419486  63.3370305  35.6192750
  75.0244506  65.1590740  24.4947125  75.0015195  65.2578428  23.5429008
  75.3345143  66.0055891  24.8164291  77.6831884  67.2166895  28.6093740
  78.6375138  67.1850838  28.5423671  77.4844408  66.7557519  29.4243966
  78.2731266  65.7868011  31.1764537  79.0924155  66.2812090  31.1999375
  78.5468074  64.8699979  31.1482105  88.0297863  58.1778764  20.5392493
  87.1423718  58.4628414  20.3212688  88.4451852  58.0172527  19.6919770
  91.3812399  58.2025285  24.2546832  92.1572789  58.6921737  24.5271449
  90.6560533  58.6283339  24.7118702  93.8184957  58.9152904  25.3120773
  94.4129448  58.6748640  24.6014081  93.8911541  58.1960034  25.9394309
  76.0382113  72.7586515  25.6263938  75.9036581  71.9986916  25.0601936
  75.6214175  73.4827415  25.1592726  87.1741076  67.9423438  14.6340513
  87.8776926  68.1473441  15.2498168  86.4503725  68.5100200  14.8989596
  88.0038886  63.6933300  20.7542783  87.9474088  64.1501851  19.9150415
  88.5567229  62.9323984  20.5765626  91.8143692  59.4823031  21.5792903
  91.5580627  59.0819667  22.4101110  91.1896560  60.1966825  21.4543042
  96.1256030  62.2219105  24.0864194  95.5655588  62.2912294  24.8595756
  95.5199534  62.0460089  23.3663690  79.1951239  73.6555832  25.8382380
  79.0783623  74.6001264  25.7361070  78.3743685  73.3529393  26.2268179
  89.0827774  68.3805968  16.6838973  89.9173377  67.9487166  16.5016448
  88.9212116  68.2087981  17.6115867  88.7373666  64.8838081  18.0495312
  88.6822469  64.7182352  17.1083756  88.1119721  65.5914114  18.2057502
  73.5266181  60.1206145  31.8756734  74.1725044  59.6105099  32.3643960
  73.3183332  60.8574827  32.4500160  86.0519573  67.1886993  37.3748875
  86.9210732  67.3627645  37.0135510  85.5726324  68.0081410  37.2524604
  82.0469791  54.3846190  17.6280631  82.0348461  55.3288030  17.7848901
  82.9393213  54.2016335  17.3340092  80.2205753  74.3084094  29.0538309
  81.1233000  74.3407704  29.3704804  79.9943123  73.3784545  29.0684644
  81.9759355  73.0615080  25.7148387  81.0254986  73.0616942  25.6012760
  82.2791841  72.3147815  25.1984422  85.8621911  50.9788966  21.8826567
  85.0954306  50.4247453  22.0283250  86.2732616  51.0510835  22.7440719
  77.8663672  57.2673762  35.9731749  78.7295133  56.9110567  36.1835073
  77.2929082  56.9287657  36.6607153  97.7112049  78.8975619  26.7794150
  98.3490459  78.7782366  26.0757490  97.5932891  79.8456463  26.8382102
  94.5201755  78.8503047  26.7155674  94.1820266  78.7344111  25.8276209
  95.3891523  78.4494212  26.6956681  90.3788571  80.7038523  22.7052565
  89.8153436  80.6128460  21.9368853  90.2640966  79.8838428  23.1855058
  95.0021538  80.0037898  32.6741880  94.9910179  79.6090697  31.8022384
  95.1642177  79.2703971  33.2675651  87.9253003  82.1989715  25.5436786
  88.7174294  81.8580539  25.1283085  88.1649653  82.3084690  26.4638939
  95.9588129  84.3709491  18.0167030  95.3076109  84.9563571  17.6301044
  96.7532492  84.9015686  18.0762068  89.8843756  81.4598628  18.4154165
  90.6574632  80.9127615  18.2767040  90.2369155  82.3242877  18.6268626
  91.7228799  82.7875010  31.6221064  91.4318665  83.6920641  31.5067730
  92.3585783  82.8291538  32.3365133  92.6485006  80.1651859  28.2122424
  93.2448578  79.9407881  27.4979386  92.7059977  79.4236604  28.8147871
  92.2210034  77.6191294  16.0472614  92.4735555  77.0972815  15.2856077
  91.2834593  77.4557440  16.1499298  97.2653317  76.6227072  23.8547358
  98.0516406  76.2046496  23.5037775  97.5292021  77.5273165  24.0229006
  97.4363394  82.0599923  18.5536015  96.8009227  82.1334549  19.2656919
  97.1060801  82.6493522  17.8755094 102.6661744  76.5602306  24.7580336
 103.3986916  75.9901522  24.9918166 101.9101100  76.1723906  25.1986842
  91.9406323  79.5219400  18.2496989  91.8242581  78.8464303  18.9178074
  92.0508583  79.0351774  17.4329143  94.2837864  78.9829547  21.9543679
  93.9196071  78.4560168  22.6656600  95.1404980  78.5928016  21.7810164
 100.1887165  70.2723880  29.2174945  99.8570489  71.1419291  28.9936160
  99.5932778  69.9560164  29.8968975  93.9243351  74.0119447  16.9505027
  94.0917753  74.8799683  17.3175498  93.7340520  74.1746729  16.0266316
  96.6818684  82.4736426  28.6170858  96.3819407  83.3761465  28.5086665
  96.3369744  82.2068609  29.4692010  90.1331166  78.9250223  24.6507562
  89.2081662  78.7926437  24.8585254  90.3815579  79.7044442  25.1477504
 100.0815828  74.9918966  26.2968295  99.1732705  74.9234374  26.0027056
 100.0303424  75.4690911  27.1250120  93.9032572  76.4677104  17.9351694
  93.7832197  76.9134155  18.7737174  93.2085160  76.8162422  17.3765232
  87.4939977  78.5683496  25.4851351  87.6232358  78.8217975  26.3990763
  86.8137428  79.1611204  25.1656006  91.6639464  89.2380746  21.5841825
  91.5863494  90.1888571  21.6630306  91.0601107  88.8926619  22.2416752
  94.1556694  76.4108612  34.2403192  93.3790028  76.9702532  34.2306057
  94.7947257  76.8965395  34.7618062 101.9477474  73.1935404  28.0746169
 101.3051855  73.4867938  27.4285963 101.4432403  73.0788325  28.8799365
  99.6017638  76.9398578  18.7632028 100.5135494  77.1725964  18.5879726
  99.0927285  77.5235622  18.2007107  92.4103066  79.2194065  33.8021159
  93.1517750  79.7579109  33.5255983  91.7040051  79.8460354  33.9592711
  97.8858406  81.3623205  32.3993321  98.2941762  80.9205616  31.6547953
  97.1635667  80.7875833  32.6527514  94.2389476  76.2995812  29.7726878
  95.0850671  76.7235226  29.9161527  94.1788113  75.6429436  30.4665441
  98.2087220  81.9224396  26.1545610  97.5796083  82.0870110  25.4521677
  97.8212882  82.3366006  26.9256574 102.0876452  82.8578834  23.5089973
 101.4027490  83.2377735  22.9587007 102.1720301  83.4674161  24.2421921
  97.3888921  73.9600181  31.4308051  97.1449853  74.7142241  30.8942327
  97.6648851  74.3385528  32.2655298  99.3427384  80.5038793  30.1085317
  99.5544279  81.1470553  29.4319698  99.2957132  79.6701109  29.6407247
  96.9453613  73.1156614  27.0121889  96.0838092  73.4137867  27.3038627
  96.9716047  73.3327012  26.0802922  93.7615182  81.6598804  23.4195695
  94.2253528  81.9386507  22.6300317  93.4971980  80.7582249  23.2368785
  90.6539263  81.2070286  26.3575458  91.2240620  81.6357554  25.7192942
  91.2447375  80.9252870  27.0559644  92.6984068  77.7821956  20.2285260
  93.4008112  78.2343000  20.6959186  92.3664697  77.1405775  20.8565153
  91.1464430  76.3733713  34.6036469  90.5163090  77.0549994  34.8371866
  91.0400518  76.2616795  33.6589607  86.4409402  76.0405509  25.5302393
  85.6508456  76.2963038  25.0542504  86.9320650  76.8553847  25.6354434
 100.4573212  83.3810748  28.2807674 101.2790655  82.9790936  27.9990356
 100.4535615  83.2778982  29.2323790  88.3924148  76.4050088  22.4885870
  87.5955311  76.5168783  23.0069366  88.1649740  76.7436741  21.6226761
  94.2229815  82.9294792  30.4368385  94.2874248  83.3915199  31.2726557
  93.5140739  82.2992157  30.5650695  84.7247105  76.2936000  27.9617384
  84.9755144  77.1783009  28.2274960  85.2606654  76.1140601  27.1892476
 108.5479205  79.7249497  24.6292646 107.7942913  79.1556895  24.4736650
 108.6826746  79.6912161  25.5763280  93.9377833  84.5962899  20.3047365
  93.8023508  85.4414435  20.7332213  94.4787645  84.7982177  19.5413299
  90.4245172  70.6754479  36.9661720  90.0312118  70.1220677  37.6409364
  91.2411313  70.9865057  37.3568238  87.3907230  82.1138337  20.8775290
  87.9031751  82.9081587  21.0280855  88.0429943  81.4164628  20.8108892
  89.2002115  85.2304093  22.9598043  89.3768743  86.1522058  22.7719027
  89.9958948  84.9162513  23.3892423  93.3413133  72.0912358  34.5581977
  94.0822847  72.6919511  34.4786439  93.5731056  71.3489996  34.0000019
  88.4854471  77.2768725  32.8360206  88.3707987  76.3753983  33.1367305
  87.6298989  77.5232422  32.4845023  95.5646309  85.2186466  34.4347707
  95.1210163  84.4322844  34.1168612  96.2263523  85.4065616  33.7691598
  90.3233430  86.7482267  28.9608386  90.8740855  86.6199331  28.1885380
  89.4844906  87.0477156  28.6103278  97.6627547  85.4989266  32.4629108
  97.6446023  86.3198147  31.9709378  98.5847467  85.3743341  32.6879250
  94.1200601  83.0133395  33.3052617  94.6528938  82.2521683  33.0751925
  93.5914683  82.7207047  34.0476771  97.2870296  68.1193461  28.8346258
  96.9434566  69.0095103  28.7585369  97.6549259  67.9295119  27.9715843
  85.3556147  80.4426991  21.6534861  86.1931369  80.8524000  21.4368568
  85.5334415  79.5026434  21.6235054  97.2520579  78.1102072  17.3418694
  96.7367203  78.8806677  17.5807081  96.9797888  77.4367208  17.9651755
  94.8367690  72.9551773  22.4003932  93.9809286  72.5658623  22.2209571
  95.2494642  73.0343734  21.5403717  96.3666837  70.4898116  26.7995492
  95.8631632  70.4528251  25.9863297  96.6597444  71.3990859  26.8592148
  92.6109723  70.5736846  25.8061673  93.4762719  70.3779655  25.4467563
  92.6787232  70.3447198  26.7331030 102.2254853  80.8634427  19.2771867
 101.4484296  80.5245586  18.8327029 102.9046334  80.8687050  18.6026832
  97.0406882  75.9829164  19.1678475  96.7357018  76.2975313  20.0188618
  97.9937324  76.0610584  19.2105808  95.4853314  82.1419387  20.8171429
  94.9574676  81.4072147  20.5044666  94.9840817  82.9194064  20.5711397
 100.4646160  80.3368408  25.9338475  99.8069835  81.0267669  26.0218604
 101.2686559  80.7264840  26.2772461  90.2172042  72.8039054  23.1778040
  90.7915794  72.5814235  22.4451233  90.8043024  72.8727748  23.9306642
  99.2751619  78.6912781  23.9842417  99.7883501  79.3242772  24.4864127
  99.9252843  78.0913976  23.6185777  90.5441629  74.8343515  17.1973926
  89.7078941  75.1718201  17.5183200  90.4046398  74.6992495  16.2601062
  92.5194709  69.6780303  21.9053110  91.8659122  69.3629320  21.2809724
  92.4775184  69.0556043  22.6312933  93.6305914  79.9599598  13.8206402
  92.7232976  79.7288851  14.0197551  94.1276946  79.1637217  14.0080383
  96.5373993  88.6697105  16.7403088  95.8635692  88.9728802  17.3488046
  96.9239815  89.4726185  16.3908545  95.7532450  76.1662236  26.2300757
  94.8355011  76.3877183  26.0722445  96.1692593  76.2408547  25.3712465
  96.5367498  77.5653652  21.3603438  97.2839317  78.0775049  21.0510560
  96.8059087  77.2437705  22.2207831  94.8094148  80.0612193  18.3430392
  93.9005367  79.7771225  18.4402862  94.8389232  80.4811271  17.4833699
 100.0413415  83.6718782  22.1121559  99.5875742  82.8309692  22.1686750
  99.4107382  84.3080180  22.4496340  98.9846335  74.6010768  23.3422227
  98.2469092  74.0888154  23.6732469  99.2373108  74.1611150  22.5305504
  98.4846354  85.5095279  23.0471378  98.7769329  86.0700336  22.3283743
  98.9944975  85.8023840  23.8024537  99.0857962  67.3787020  23.9363996
  99.3916839  66.5184384  23.6489911  99.8110567  67.9704640  23.7362990
  85.3782318  77.7817707  22.3245594  85.1806718  77.1887067  21.5996661
  84.8228982  77.4769917  23.0421533  93.3579042  77.6740813  24.4440187
  93.4127652  76.7214650  24.3682664  92.5470244  77.8300252  24.9281486
  94.5070236  81.6020936  15.6818470  94.0689665  80.8856795  15.2224108
  95.2480676  81.8297051  15.1203562  91.2971402  76.2917873  22.2030566
  90.4839267  76.5912044  22.6095758  91.7930396  75.8973562  22.9205048
  93.4479980  86.2875630  24.1364831  93.4056158  86.5136476  23.2073363
  94.3642678  86.0539004  24.2850632  96.8945613  76.7559697  31.0345460
  97.2495001  76.9831171  31.8939926  97.5417745  77.0878074  30.4122715
 102.6243350  79.8778133  21.7394789 102.4861249  80.0679729  20.8115978
 102.2679569  80.6397516  22.1962840  90.7885476  73.8636228  27.8191801
  91.4284856  73.7224988  27.1214764  89.9563007  73.5770742  27.4430403
 102.6512730  81.9454660  26.7506061 103.0849237  81.8529949  27.5989115
 103.3644311  81.9212161  26.1126077  91.5645780  83.1638659  23.9326793
  92.3586379  82.6688979  23.7309368  90.8537473  82.6356522  23.5694499
  96.3840625  85.5456754  28.2839161  96.4377647  86.1147691  29.0516877
  95.5155406  85.7158639  27.9193198  87.8728544  77.3081741  20.0086546
  86.9426132  77.2466196  20.2256508  87.9686016  76.7857693  19.2123187
  87.7914093  73.8336553  22.5964788  88.0520910  74.7481887  22.4873948
  88.6131265  73.3660996  22.7461401  89.2639018  75.2474311  29.7663612
  89.9362072  75.0391673  29.1176261  88.4368805  75.0496397  29.3268845
 103.5128279  81.9878361  29.2838946 103.7064170  82.8924171  29.5298221
 103.4128898  81.5285780  30.1177531  95.1664590  71.8736252  31.7829273
  94.5192505  72.5726201  31.6893750  95.9365606  72.3072395  32.1505521
  98.5743388  82.1385104  34.8579827  98.4228895  81.9095655  33.9409910
  98.5648068  83.0955705  34.8711172  95.3428725  79.7117016  29.8426093
  96.2720785  79.8628176  29.6695060  94.9219755  79.8001037  28.9874739
  94.1417056  83.7367681  27.6124631  94.0028142  83.3686465  28.4850569
  93.3531653  84.2515320  27.4408588  94.7365208  88.8376777  18.9550167
  94.9116964  88.3664821  19.7695790  94.0497996  89.4642544  19.1831428
  95.6922272  83.1149284  25.0013468  95.3572104  83.0750054  25.8971118
  95.1926217  82.4494000  24.5283879  89.6666515  78.5216914  30.5266050
  89.5286313  77.7897152  31.1277589  90.5771439  78.4325814  30.2450237
  98.6281463  80.4605318  15.2750528  98.0110634  79.7352146  15.1783581
  98.1597952  81.2214678  14.9317602  92.2948816  78.2336873  30.0149729
  93.0048435  77.5930065  29.9736348  92.2518124  78.4849768  30.9375910
 100.2835595  85.1704226  32.9356308 100.2248141  84.4863446  32.2686891
 100.6855113  85.9123216  32.4836934  91.0077750  75.2202091  31.8345369
  90.4715107  74.7692829  32.4866965  90.4194459  75.3548000  31.0915833
  89.3026294  91.9866140  25.7290027  89.5422892  92.6184664  26.4069046
  88.4595490  91.6354180  26.0155387  90.4180009  74.6790742  14.3971832
  89.5409475  74.5579543  14.0334079  90.8937762  73.8876821  14.1450721
 100.2853002  83.1343810  31.1670288  99.3979781  82.7969732  31.2896687
 100.8551553  82.4026841  31.4039053  81.9382149  79.4667902  24.4913339
  82.6253189  79.1529632  23.9034355  81.7830278  80.3709267  24.2180591
  86.7416871  74.3558099  28.9198363  86.6575060  73.7483768  28.1848773
  85.9199578  74.8467117  28.9207859  93.8154155  87.7945263  28.1331531
  93.7424327  88.6000234  28.6450836  93.3731549  87.9937228  27.3079553
  93.6043935  87.0317033  21.6434353  92.8211457  87.5738713  21.7372577
  94.3036680  87.5491012  22.0428594  96.9140585  72.8411662  24.2868558
  97.4109285  72.0881624  23.9669628  96.1427567  72.8775979  23.7211768
 104.7670343  78.5452028  25.9286850 104.7560219  79.4276743  25.5580783
 103.8987722  78.1923578  25.7341387  96.2752839  87.6932097  30.2889690
  96.9880811  88.3279561  30.2165591  95.7842868  87.7895963  29.4729692
  97.9970366  81.5983349  21.8606982  97.0626645  81.7184812  21.6911686
  98.1747034  80.6955816  21.5966991  93.4975554  74.9829045  24.0140243
  93.1273341  74.4300085  24.7021148  93.9934646  74.3787179  23.4615243
 101.3842917  77.4400669  22.3957016 101.8503369  78.2728660  22.3217318
 101.8350418  76.9745650  23.1002274  91.3264753  85.4426540  31.1095261
  92.0274212  86.0763023  31.2624655  90.8559868  85.7841272  30.3490900
  99.4519148  83.7844490  19.3943168  99.7278992  83.6701084  20.3037042
  98.5823647  83.3861975  19.3555341  99.3559580  69.8081256  26.4347917
  98.4422660  70.0385482  26.6030124  99.7852681  69.8919700  27.2861949
  99.1266038  77.9971148  28.9347811  98.4737489  78.2447055  28.2800264
  99.5046418  77.1835286  28.6010288  96.0873212  88.0330841  23.0375981
  96.2695607  87.2152497  23.5003734  96.9106198  88.2498533  22.6000871
  96.4215378  86.9599026  20.2991030  96.9503144  86.4491480  19.6861192
  96.6843597  86.6441556  21.1636563  95.1753612  78.7390959  35.4213848
  94.4994249  78.6385088  36.0916223  95.9981245  78.5830172  35.8849845
  86.9232471  84.9762895  28.0426363  87.5085907  84.2306583  28.1754268
  86.7257309  85.2866852  28.9263027  89.7771126  88.0114143  23.0588806
  89.1081501  88.4960270  22.5752846  89.6383996  88.2583363  23.9732184
  81.5150125  77.5468495  26.7630807  81.5534225  77.0132086  27.5567925
  81.0090418  77.0203701  26.1441784  93.9176394  90.0457886  29.6571464
  94.4694702  90.2089508  30.4220549  94.2582588  90.6362324  28.9851489
  88.8940888  72.3933036  30.2593349  88.9582214  73.2547867  29.8470747
  88.8308008  71.7807037  29.5265707  88.3693160  74.4656168  33.9066383
  88.9965199  74.0833246  34.5203907  87.5121079  74.2470370  34.2722076
  98.7687269  84.8719144  35.5120119  99.3127173  85.4849102  35.0175073
  98.1874114  85.4298722  36.0287132  85.1458703  76.2732597  19.8384738
  85.4412144  75.3643276  19.7851792  84.2446739  76.2520337  19.5165740
  97.0544782  87.9939862  26.6435146  96.9295921  87.1929601  26.1346092
  97.7123873  88.4886055  26.1549116  88.6752950  74.3488594  25.8212287
  87.9539536  74.9624562  25.6819760  89.4646206  74.8846359  25.7428933
  99.1179690  85.7948882  28.2714696  98.1710026  85.6754233  28.1993023
  99.4662463  84.9071380  28.3540958  91.4779263  71.6843021  32.0952938
  92.0013665  71.9305317  32.8579248  91.2591597  72.5163055  31.6756076
  86.8746544  73.9546695  19.9624063  86.5459251  73.0744074  19.7799169
  87.2285915  73.8994364  20.8500452  96.1226123  85.5901598  24.4719049
  95.9751086  84.6618305  24.6526619  96.9479617  85.6121689  23.9876124
  89.9888368  74.2419665  20.3299541  90.3284440  74.7705586  19.6078149
  90.4360488  74.5800071  21.1058107  99.7260245  86.4130157  25.5583921
 100.6506793  86.2073018  25.4208373  99.5575549  86.1646558  26.4673263
  92.6831808  72.6256716  29.7802609  92.3428629  71.8264529  30.1823289
  91.9770815  72.9258426  29.2079442  93.3348280  69.7106028  28.2329932
  94.1574350  69.2366506  28.1108822  93.5786344  70.4896512  28.7328618
  91.9756515  72.7394287  18.5292834  92.6964877  73.1175539  18.0256550
  91.3521819  73.4583163  18.6327812  96.1187638  73.4439435  19.4651166
  96.3351252  74.3264073  19.1639994  95.6381705  73.0525649  18.7356808
  90.8586859  76.4025149  26.0421910  90.7131440  76.7165452  26.9346192
  90.3812063  77.0210049  25.4892809  92.7183242  73.3927697  26.0902800
  92.7044811  72.4968790  25.7535098  93.4355670  73.3998360  26.7241086
  94.5709373  73.8265037  28.1355927  94.3127150  74.7482108  28.1340258
  94.0394413  73.4295471  28.8256392  99.5155561  86.9315824  20.9146013
  99.6892439  86.3662247  20.1619865 100.0084453  87.7316719  20.7325503
  85.3332521  78.9430493  28.9809572  84.7885989  79.7190301  29.1129846
  86.2111871  79.2901298  28.8228693  92.1220138  72.2742077  21.3590370
  92.2436049  71.3458723  21.5581258  91.8322180  72.2880763  20.4468686
  94.9911328  69.9596987  24.4957090  95.0133025  70.0236321  23.5409070
  95.4079387  69.1201496  24.6897596 105.3694953  79.6952247  22.5336313
 105.8126099  78.9459572  22.1355436 104.4921463  79.6862383  22.1510045
 100.5030734  86.2482588  18.0142911 101.1981639  86.8689281  18.2330226
 100.8453884  85.3977940  18.2895289  86.1198543  78.0700389  31.8739729
  85.3780279  78.2183025  32.4604359  85.7991287  78.3308655  31.0106478
 102.4022157  83.6982294  19.5430242 102.9273481  84.0369567  18.8179562
 102.3144510  82.7629309  19.3593377  94.0642206  87.6116368  31.6720119
  94.3729332  87.3665514  32.5442818  94.8617688  87.8163006  31.1838989
  94.0862818  89.7654277  23.9025495  93.6467808  89.2730656  24.5958352
  94.8370935  89.2227245  23.6617570  86.5655157  85.9565818  23.9050123
  87.3913177  85.6569590  23.5248767  86.2149209  85.1873441  24.3539912
  91.5336690  85.3092286  25.9747797  90.9116699  84.6462991  25.6750025
  92.2041557  85.3353418  25.2921445  84.7663762  83.8752145  24.8639057
  83.9295670  83.4474319  24.6823058  84.7387407  84.0684588  25.8009848
  91.6061217  73.7874074  35.5680303  91.6549373  74.6636197  35.1858072
  92.1483732  73.2451467  34.9951946 102.0916063  84.3315198  34.8481440
 101.3011607  84.3139336  34.3085939 101.8549418  84.8703491  35.6030476
 102.2113938  81.1807664  32.1614168 102.2611943  81.0157671  33.1029691
 102.1027861  80.3134923  31.7712049  91.0950197  83.8596210  19.4506257
  91.2438317  84.5431674  18.7972930  91.9016640  83.8401300  19.9655713
  99.5017701  77.1638592  33.4773475 100.4027563  77.0245057  33.1857473
  99.5765675  77.3293047  34.4171653  93.8360506  74.5405447  32.3226661
  92.9663815  74.8339013  32.0509250  94.0719986  75.1245892  33.0433925
 103.7132135  83.6004605  32.4056190 103.4216943  83.9634586  33.2419651
 103.1004266  82.8871614  32.2269522 104.9127817  81.1657485  24.9258760
 105.7474709  81.6047289  25.0896321 105.0486946  80.6896138  24.1067006
 101.9619323  78.7237220  30.8736248 102.4373445  78.9164866  30.0655099
 101.0384889  78.7796406  30.6279632  88.8502830  79.8861387  20.4567326
  88.6048872  78.9823717  20.6547536  89.0198744  79.8878538  19.5146804
  96.5399540  70.7585064  29.8392082  97.0581484  71.4946091  29.5138570
  96.1854672  71.0649057  30.6738841  88.1198477  75.6189745  17.9553488
  87.4267722  75.6934100  17.2993524  87.8750229  74.8550089  18.4775005
  96.7912134  67.1785346  25.3592978  97.0713888  66.5108535  25.9853405
  97.5762741  67.3714442  24.8467642  94.5945602  86.3544340  16.9218005
  94.0219569  86.9734527  16.4688477  95.1678396  86.9043702  17.4557927
 100.6620992  75.6002980  29.1064554 101.6138415  75.7001078  29.1276778
 100.4924443  74.8081249  29.6162638  98.6835372  72.6858563  29.2923954
  98.0885304  72.9663576  28.5970443  98.3985068  73.1752464  30.0640696
  97.8142862  86.6381490  18.0526587  98.7473535  86.5727052  18.2559463
  97.7266075  87.4737757  17.5941120 100.4430879  85.9547361  15.0130535
 100.3644510  85.6207224  15.9066292 101.2640546  86.4469129  15.0122007
 103.1409070  78.8209100  28.2206853 103.1085390  77.8825101  28.4066537
 103.7509694  78.8993137  27.4872678  94.9792401  77.6905153  14.2634057
  95.9251506  77.5611361  14.3322475  94.6006646  76.9519815  14.7403485
 103.2903558  75.6120143  28.2665136 102.7742607  74.8278600  28.0795065
 104.1743507  75.2838860  28.4311656 100.9514285  69.3561159  24.2260949
 100.7539107  69.0476247  25.1104281 101.5613991  70.0822798  24.3558879
 108.9585620  79.8825107  27.3612890 109.6889008  79.6210395  27.9220593
 108.3492565  79.1453829  27.4014958 107.0400917  78.0232969  27.9587341
 106.3134081  77.8888934  27.3503833 106.6248204  78.3309798  28.7644059
  94.8631093  81.7422899  35.7234714  95.7834103  81.9201498  35.9174761
  94.8280676  80.7978944  35.5714413  93.1635318  75.6155129  14.1988942
  92.2566773  75.3188242  14.2751656  93.4411299  75.3184947  13.3323229
  84.0813258  76.9361493  24.6487989  83.7616043  76.0826801  24.3562363
  83.5346687  77.1510071  25.4045956  87.8593166  79.6523934  28.3657495
  88.0779176  80.5841041  28.3845529  88.2718940  79.2931908  29.1512299
  94.7797384  70.1592019  20.3533184  93.9698112  69.8139104  20.7288430
  95.4681801  69.8499563  20.9420795  96.7087932  69.2370066  21.9757480
  97.2618971  69.6565519  22.6347503  96.9458018  68.3105814  22.0180436
  92.7321031  75.2257139  37.7560244  92.6317758  76.1751496  37.6872335
  92.5142573  74.8975378  36.8836314  91.9334103  72.4742064  14.3400922
  92.7953267  72.7996963  14.5996739  92.1184447  71.6873560  13.8273987
  83.9501518  80.5564404  26.6181110  83.2564990  80.1418357  26.1051065
  84.6974509  80.5984941  26.0214529 100.0866739  71.3470591  21.4836145
  99.5065408  72.0055395  21.1014197  99.8202672  70.5247936  21.0723562
  98.5370305  70.7475649  23.6857465  99.0370084  70.8592183  22.8771784
  99.1805913  70.4436701  24.3258273  92.5952301  78.6554278  36.5725306
  92.1119383  79.4554638  36.7789195  92.6813240  78.6662223  35.6192750
  85.8638261  80.4882658  24.4947125  85.8408949  80.5870345  23.5429008
  86.1738897  81.3347809  24.8164291  88.5225639  82.5458813  28.6093740
  89.4768892  82.5142755  28.5423671  88.3238162  82.0849437  29.4243966
  89.1125021  81.1159929  31.1764537  89.9317910  81.6104008  31.1999375
  89.3861829  80.1991897  31.1482105  98.8691617  73.5070681  20.5392493
  97.9817472  73.7920332  20.3212688  99.2845606  73.3464445  19.6919770
 102.2206153  73.5317202  24.2546832 102.9966543  74.0213655  24.5271449
 101.4954287  73.9575256  24.7118702 104.6578712  74.2444822  25.3120773
 105.2523203  74.0040557  24.6014081 104.7305296  73.5251952  25.9394309
  86.8775868  88.0878432  25.6263938  86.7430336  87.3278833  25.0601936
  86.4607930  88.8119332  25.1592726  98.0134831  83.2715356  14.6340513
  98.7170681  83.4765358  15.2498168  97.2897479  83.8392118  14.8989596
  98.8432641  79.0225217  20.7542783  98.7867842  79.4793769  19.9150415
  99.3960983  78.2615902  20.5765626 102.6537447  74.8114949  21.5792903
 102.3974381  74.4111585  22.4101110 102.0290315  75.5258743  21.4543042
 106.9649785  77.5511022  24.0864194 106.4049343  77.6204212  24.8595756
 106.3593288  77.3752007  23.3663690  90.0344993  88.9847749  25.8382380
  89.9177378  89.9293182  25.7361070  89.2137440  88.6821311  26.2268179
  99.9221528  83.7097885  16.6838973 100.7567132  83.2779084  16.5016448
  99.7605871  83.5379899  17.6115867  99.5767420  80.2129999  18.0495312
  99.5216224  80.0474270  17.1083756  98.9513475  80.9206031  18.2057502
  84.3659935  75.4498063  31.8756734  85.0118799  74.9397017  32.3643960
  84.1577086  76.1866745  32.4500160  96.8913327  82.5178910  37.3748875
  97.7604487  82.6919563  37.0135510  96.4120079  83.3373327  37.2524604
  92.8863546  69.7138108  17.6280631  92.8742215  70.6579947  17.7848901
  93.7786968  69.5308253  17.3340092  91.0599508  89.6376011  29.0538309
  91.9626754  89.6699622  29.3704804  90.8336878  88.7076462  29.0684644
  92.8153110  88.3906998  25.7148387  91.8648741  88.3908860  25.6012760
  93.1185596  87.6439732  25.1984422  96.7015665  66.3080884  21.8826567
  95.9348061  65.7539371  22.0283250  97.1126370  66.3802753  22.7440719
  88.7057426  72.5965680  35.9731749  89.5688888  72.2402485  36.1835073
  88.1322837  72.2579575  36.6607153 108.5505803  94.2267536  26.7794150
 109.1884213  94.1074284  26.0757490 108.4326646  95.1748380  26.8382102
 105.3595509  94.1794964  26.7155674 105.0214021  94.0636029  25.8276209
 106.2285278  93.7786130  26.6956681 101.2182325  96.0330441  22.7052565
 100.6547190  95.9420378  21.9368853 101.1034720  95.2130345  23.1855058
 105.8415292  95.3329816  32.6741880 105.8303933  94.9382614  31.8022384
 106.0035932  94.5995889  33.2675651  98.7646757  97.5281632  25.5436786
  99.5568049  97.1872457  25.1283085  99.0043407  97.6376607  26.4638939
 106.7981884  99.7001409  18.0167030 106.1469864 100.2855489  17.6301044
 107.5926247 100.2307603  18.0762068 100.7237511  96.7890546  18.4154165
 101.4968387  96.2419533  18.2767040 101.0762910  97.6534795  18.6268626
 102.5622554  98.1166928  31.6221064 102.2712419  99.0212559  31.5067730
 103.1979538  98.1583456  32.3365133 103.4878760  95.4943776  28.2122424
 104.0842333  95.2699799  27.4979386 103.5453732  94.7528522  28.8147871
 103.0603789  92.9483212  16.0472614 103.3129309  92.4264733  15.2856077
 102.1228348  92.7849357  16.1499298 108.1047072  91.9518990  23.8547358
 108.8910161  91.5338413  23.5037775 108.3685776  92.8565082  24.0229006
 108.2757149  97.3891840  18.5536015 107.6402982  97.4626467  19.2656919
 107.9454555  97.9785439  17.8755094 113.5055499  91.8894223  24.7580336
 114.2380671  91.3193440  24.9918166 112.7494854  91.5015824  25.1986842
 102.7800077  94.8511318  18.2496989 102.6636336  94.1756221  18.9178074
 102.8902337  94.3643692  17.4329143 105.1231618  94.3121465  21.9543679
 104.7589826  93.7852086  22.6656600 105.9798734  93.9219934  21.7810164
 111.0280919  85.6015797  29.2174945 110.6964244  86.4711208  28.9936160
 110.4326532  85.2852081  29.8968975 104.7637105  89.3411365  16.9505027
 104.9311508  90.2091601  17.3175498 104.5734274  89.5038646  16.0266316
 107.5212439  97.8028343  28.6170858 107.2213162  98.7053382  28.5086665
 107.1763498  97.5360527  29.4692010 100.9724920  94.2542140  24.6507562
 100.0475417  94.1218354  24.8585254 101.2209333  95.0336360  25.1477504
 110.9209582  90.3210884  26.2968295 110.0126460  90.2526292  26.0027056
 110.8697178  90.7982829  27.1250120 104.7426326  91.7969022  17.9351694
 104.6225951  92.2426073  18.7737174 104.0478915  92.1454340  17.3765232
  98.3333731  93.8975414  25.4851351  98.4626112  94.1509893  26.3990763
  97.6531182  94.4903122  25.1656006 102.5033218 104.5672664  21.5841825
 102.4257248 105.5180489  21.6630306 101.8994862 104.2218536  22.2416752
 104.9950448  91.7400529  34.2403192 104.2183782  92.2994449  34.2306057
 105.6341011  92.2257312  34.7618062 112.7871229  88.5227322  28.0746169
 112.1445609  88.8159855  27.4285963 112.2826157  88.4080242  28.8799365
 110.4411392  92.2690495  18.7632028 111.3529249  92.5017882  18.5879726
 109.9321040  92.8527539  18.2007107 103.2496820  94.5485983  33.8021159
 103.9911505  95.0871027  33.5255983 102.5433806  95.1752271  33.9592711
 108.7252160  96.6915123  32.3993321 109.1335516  96.2497534  31.6547953
 108.0029422  96.1167751  32.6527514 105.0783230  91.6287730  29.7726878
 105.9244425  92.0527143  29.9161527 105.0181868  90.9721354  30.4665441
 109.0480975  97.2516314  26.1545610 108.4189837  97.4162028  25.4521677
 108.6606637  97.6657923  26.9256574 112.9270207  98.1870752  23.5089973
 112.2421245  98.5669653  22.9587007 113.0114056  98.7966078  24.2421921
 108.2282675  89.2892098  31.4308051 107.9843607  90.0434159  30.8942327
 108.5042606  89.6677446  32.2655298 110.1821138  95.8330711  30.1085317
 110.3938033  96.4762470  29.4319698 110.1350886  94.9993027  29.6407247
 107.7847367  88.4448531  27.0121889 106.9231846  88.7429785  27.3038627
 107.8109802  88.6618930  26.0802922 104.6008937  96.9890722  23.4195695
 105.0647282  97.2678425  22.6300317 104.3365735  96.0874166  23.2368785
 101.4933018  96.5362203  26.3575458 102.0634375  96.9649472  25.7192942
 102.0841130  96.2544788  27.0559644 103.5377823  93.1113874  20.2285260
 104.2401866  93.5634918  20.6959186 103.2058451  92.4697693  20.8565153
 101.9858184  91.7025631  34.6036469 101.3556845  92.3841912  34.8371866
 101.8794272  91.5908712  33.6589607  97.2803157  91.3697427  25.5302393
  96.4902211  91.6254955  25.0542504  97.7714404  92.1845765  25.6354434
 111.2966966  98.7102666  28.2807674 112.1184410  98.3082853  27.9990356
 111.2929369  98.6070900  29.2323790  99.2317902  91.7342006  22.4885870
  98.4349065  91.8460700  23.0069366  99.0043494  92.0728658  21.6226761
 105.0623570  98.2586709  30.4368385 105.1268002  98.7207117  31.2726557
 104.3534494  97.6284074  30.5650695  95.5640860  91.6227917  27.9617384
  95.8148898  92.5074927  28.2274960  96.1000408  91.4432519  27.1892476
 119.3872959  95.0541414  24.6292646 118.6336668  94.4848813  24.4736650
 119.5220500  95.0204079  25.5763280 104.7771587  99.9254817  20.3047365
 104.6417262 100.7706352  20.7332213 105.3181400 100.1274094  19.5413299
 101.2638927  86.0046397  36.9661720 100.8705873  85.4512595  37.6409364
 102.0805067  86.3156975  37.3568238  98.2300985  97.4430255  20.8775290
  98.7425505  98.2373505  21.0280855  98.8823698  96.7456545  20.8108892
 100.0395869 100.5596011  22.9598043 100.2162498 101.4813976  22.7719027
 100.8352703 100.2454430  23.3892423 104.1806888  87.4204276  34.5581977
 104.9216601  88.0211429  34.4786439 104.4124811  86.6781913  34.0000019
  99.3248226  92.6060643  32.8360206  99.2101741  91.7045900  33.1367305
  98.4692744  92.8524340  32.4845023 106.4040064 100.5478383  34.4347707
 105.9603918  99.7614762  34.1168612 107.0657277 100.7357534  33.7691598
 101.1627185 102.0774185  28.9608386 101.7134610 101.9491248  28.1885380
 100.3238661 102.3769074  28.6103278 108.5021302 100.8281183  32.4629108
 108.4839777 101.6490064  31.9709378 109.4241222 100.7035258  32.6879250
 104.9594356  98.3425313  33.3052617 105.4922693  97.5813601  33.0751925
 104.4308437  98.0498964  34.0476771 108.1264051  83.4485379  28.8346258
 107.7828320  84.3387020  28.7585369 108.4943013  83.2587036  27.9715843
  96.1949901  95.7718909  21.6534861  97.0325123  96.1815917  21.4368568
  96.3728169  94.8318351  21.6235054 108.0914334  93.4393990  17.3418694
 107.5760957  94.2098594  17.5807081 107.8191642  92.7659126  17.9651755
 105.6761445  88.2843691  22.4003932 104.8203041  87.8950541  22.2209571
 106.0888396  88.3635651  21.5403717 107.2060591  85.8190034  26.7995492
 106.7025387  85.7820169  25.9863297 107.4991198  86.7282777  26.8592148
 103.4503477  85.9028764  25.8061673 104.3156474  85.7071572  25.4467563
 103.5180986  85.6739115  26.7331030 113.0648608  96.1926344  19.2771867
 112.2878050  95.8537504  18.8327029 113.7440089  96.1978968  18.6026832
 107.8800637  91.3121082  19.1678475 107.5750772  91.6267231  20.0188618
 108.8331079  91.3902502  19.2105808 106.3247069  97.4711305  20.8171429
 105.7968430  96.7364065  20.5044666 105.8234571  98.2485982  20.5711397
 111.3039915  95.6660326  25.9338475 110.6463589  96.3559587  26.0218604
 112.1080314  96.0556758  26.2772461 101.0565796  88.1330971  23.1778040
 101.6309548  87.9106153  22.4451233 101.6436779  88.2019666  23.9306642
 110.1145373  94.0204698  23.9842417 110.6277255  94.6534690  24.4864127
 110.7646597  93.4205894  23.6185777 101.3835383  90.1635432  17.1973926
 100.5472696  90.5010119  17.5183200 101.2440153  90.0284412  16.2601062
 103.3588464  85.0072220  21.9053110 102.7052876  84.6921238  21.2809724
 103.3168938  84.3847961  22.6312933 104.4699669  95.2891515  13.8206402
 103.5626731  95.0580769  14.0197551 104.9670701  94.4929135  14.0080383
 107.3767748 103.9989023  16.7403088 106.7029446 104.3020719  17.3488046
 107.7633570 104.8018103  16.3908545 106.5926204  91.4954154  26.2300757
 105.6748766  91.7169101  26.0722445 107.0086348  91.5700464  25.3712465
 107.3761252  92.8945570  21.3603438 108.1233071  93.4066967  21.0510560
 107.6452842  92.5729622  22.2207831 105.6487902  95.3904110  18.3430392
 104.7399121  95.1063143  18.4402862 105.6782986  95.8103189  17.4833699
 110.8807170  99.0010700  22.1121559 110.4269497  98.1601610  22.1686750
 110.2501136  99.6372098  22.4496340 109.8240089  89.9302686  23.3422227
 109.0862846  89.4180072  23.6732469 110.0766863  89.4903067  22.5305504
 109.3240109 100.8387196  23.0471378 109.6163083 101.3992254  22.3283743
 109.8338729 101.1315757  23.8024537 109.9251717  82.7078938  23.9363996
 110.2310593  81.8476301  23.6489911 110.6504321  83.2996558  23.7362990
  96.2176073  93.1109624  22.3245594  96.0200472  92.5178985  21.5996661
  95.6622737  92.8061835  23.0421533 104.1972796  93.0032731  24.4440187
 104.2521406  92.0506567  24.3682664 103.3863998  93.1592170  24.9281486
 105.3463990  96.9312854  15.6818470 104.9083420  96.2148713  15.2224108
 106.0874431  97.1588969  15.1203562 102.1365156  91.6209791  22.2030566
 101.3233022  91.9203961  22.6095758 102.6324150  91.2265479  22.9205048
 104.2873734 101.6167548  24.1364831 104.2449913 101.8428394  23.2073363
 105.2036433 101.3830922  24.2850632 107.7339368  92.0851615  31.0345460
 108.0888756  92.3123088  31.8939926 108.3811499  92.4169992  30.4122715
 113.4637105  95.2070051  21.7394789 113.3255003  95.3971647  20.8115978
 113.1073324  95.9689434  22.1962840 101.6279231  89.1928146  27.8191801
 102.2678610  89.0516905  27.1214764 100.7956761  88.9062660  27.4430403
 113.4906484  97.2746578  26.7506061 113.9242991  97.1821867  27.5989115
 114.2038065  97.2504078  26.1126077 102.4039535  98.4930577  23.9326793
 103.1980133  97.9980897  23.7309368 101.6931227  97.9648440  23.5694499
 107.2234379 100.8748672  28.2839161 107.2771402 101.4439608  29.0516877
 106.3549161 101.0450557  27.9193198  98.7122298  92.6373658  20.0086546
  97.7819886  92.5758114  20.2256508  98.8079770  92.1149611  19.2123187
  98.6307847  89.1628471  22.5964788  98.8914665  90.0773804  22.4873948
  99.4525020  88.6952914  22.7461401 100.1032773  90.5766228  29.7663612
 100.7755826  90.3683590  29.1176261  99.2762559  90.3788314  29.3268845
 114.3522034  97.3170279  29.2838946 114.5457924  98.2216089  29.5298221
 114.2522652  96.8577698  30.1177531 106.0058345  87.2028169  31.7829273
 105.3586260  87.9018119  31.6893750 106.7759360  87.6364313  32.1505521
 109.4137143  97.4677021  34.8579827 109.2622649  97.2387573  33.9409910
 109.4041822  98.4247623  34.8711172 106.1822479  95.0408934  29.8426093
 107.1114539  95.1920094  29.6695060 105.7613509  95.1292955  28.9874739
 104.9810811  99.0659599  27.6124631 104.8421897  98.6978383  28.4850569
 104.1925407  99.5807238  27.4408588 105.5758963 104.1668695  18.9550167
 105.7510719 103.6956738  19.7695790 104.8891751 104.7934461  19.1831428
 106.5316026  98.4441201  25.0013468 106.1965859  98.4041971  25.8971118
 106.0319972  97.7785917  24.5283879 100.5060270  93.8508831  30.5266050
 100.3680068  93.1189070  31.1277589 101.4165193  93.7617731  30.2450237
 109.4675218  95.7897236  15.2750528 108.8504388  95.0644064  15.1783581
 108.9991706  96.5506596  14.9317602 103.1342571  93.5628791  30.0149729
 103.8442189  92.9221983  29.9736348 103.0911879  93.8141685  30.9375910
 111.1229349 100.4996144  32.9356308 111.0641895  99.8155364  32.2686891
 111.5248868 101.2415134  32.4836934 101.8471505  90.5494009  31.8345369
 101.3108862  90.0984747  32.4866965 101.2588213  90.6839917  31.0915833
 100.1420048 107.3158058  25.7290027 100.3816646 107.9476582  26.4069046
  99.2989245 106.9646098  26.0155387 101.2573764  90.0082660  14.3971832
 100.3803230  89.8871461  14.0334079 101.7331517  89.2168738  14.1450721
 111.1246757  98.4635728  31.1670288 110.2373535  98.1261650  31.2896687
 111.6945308  97.7318759  31.4039053  92.7775904  94.7959820  24.4913339
  93.4646944  94.4821550  23.9034355  92.6224032  95.7001184  24.2180591
  97.5810626  89.6850016  28.9198363  97.4968815  89.0775686  28.1848773
  96.7593332  90.1759035  28.9207859 104.6547910 103.1237180  28.1331531
 104.5818081 103.9292152  28.6450836 104.2125303 103.3229146  27.3079553
 104.4437690 102.3608950  21.6434353 103.6605211 102.9030630  21.7372577
 105.1430435 102.8782930  22.0428594 107.7534340  88.1703580  24.2868558
 108.2503039  87.4173542  23.9669628 106.9821321  88.2067896  23.7211768
 115.6064097  93.8743945  25.9286850 115.5953973  94.7568661  25.5580783
 114.7381477  93.5215496  25.7341387 107.1146593 103.0224014  30.2889690
 107.8274566 103.6571479  30.2165591 106.6236622 103.1187880  29.4729692
 108.8364120  96.9275267  21.8606982 107.9020399  97.0476729  21.6911686
 109.0140789  96.0247734  21.5966991 104.3369308  90.3120963  24.0140243
 103.9667096  89.7592003  24.7021148 104.8328401  89.7079096  23.4615243
 112.2236672  92.7692586  22.3957016 112.6897124  93.6020578  22.3217318
 112.6744172  92.3037568  23.1002274 102.1658507 100.7718458  31.1095261
 102.8667967 101.4054941  31.2624655 101.6953622 101.1133189  30.3490900
 110.2912903  99.1136408  19.3943168 110.5672747  98.9993002  20.3037042
 109.4217402  98.7153892  19.3555341 110.1953334  85.1373173  26.4347917
 109.2816414  85.3677400  26.6030124 110.6246436  85.2211617  27.2861949
 109.9659793  93.3263065  28.9347811 109.3131243  93.5738973  28.2800264
 110.3440173  92.5127203  28.6010288 106.9266967 103.3622758  23.0375981
 107.1089361 102.5444414  23.5003734 107.7499953 103.5790451  22.6000871
 107.2609132 102.2890943  20.2991030 107.7896899 101.7783398  19.6861192
 107.5237352 101.9733474  21.1636563 106.0147366  94.0682876  35.4213848
 105.3388003  93.9677006  36.0916223 106.8375000  93.9122090  35.8849845
  97.7626225 100.3054813  28.0426363  98.3479662  99.5598501  28.1754268
  97.5651064 100.6158770  28.9263027 100.6164880 103.3406060  23.0588806
  99.9475256 103.8252188  22.5752846 100.4777750 103.5875281  23.9732184
  92.3543880  92.8760413  26.7630807  92.3927979  92.3424004  27.5567925
  91.8484173  92.3495619  26.1441784 104.7570149 105.3749804  29.6571464
 105.3088457 105.5381425  30.4220549 105.0976342 105.9654242  28.9851489
  99.7334642  87.7224954  30.2593349  99.7975969  88.5839784  29.8470747
  99.6701762  87.1098955  29.5265707  99.2086915  89.7948086  33.9066383
  99.8358953  89.4125163  34.5203907  98.3514833  89.5762288  34.2722076
 109.6081023 100.2011061  35.5120119 110.1520927 100.8141019  35.0175073
 109.0267868 100.7590640  36.0287132  95.9852457  91.6024515  19.8384738
  96.2805898  90.6935194  19.7851792  95.0840493  91.5812255  19.5165740
 107.8938536 103.3231779  26.6435146 107.7689676 102.5221519  26.1346092
 108.5517627 103.8177973  26.1549116  99.5146704  89.6780512  25.8212287
  98.7933290  90.2916479  25.6819760 100.3039960  90.2138277  25.7428933
 109.9573445 101.1240799  28.2714696 109.0103780 101.0046150  28.1993023
 110.3056218 100.2363297  28.3540958 102.3173018  87.0134938  32.0952938
 102.8407420  87.2597235  32.8579248 102.0985351  87.8454973  31.6756076
  97.7140299  89.2838613  19.9624063  97.3853005  88.4035992  19.7799169
  98.0679670  89.2286282  20.8500452 106.9619878 100.9193516  24.4719049
 106.8144840  99.9910223  24.6526619 107.7873371 100.9413606  23.9876124
 100.8282122  89.5711583  20.3299541 101.1678195  90.0997504  19.6078149
 101.2754243  89.9091989  21.1058107 110.5654000 101.7422074  25.5583921
 111.4900547 101.5364936  25.4208373 110.3969303 101.4938475  26.4673263
 103.5225563  87.9548633  29.7802609 103.1822383  87.1556446  30.1823289
 102.8164569  88.2550344  29.2079442 104.1742035  85.0397946  28.2329932
 104.9968104  84.5658424  28.1108822 104.4180098  85.8188430  28.7328618
 102.8150269  88.0686204  18.5292834 103.5358632  88.4467457  18.0256550
 102.1915573  88.7875081  18.6327812 106.9581392  88.7731353  19.4651166
 107.1745007  89.6555991  19.1639994 106.4775459  88.3817567  18.7356808
 101.6980614  91.7317066  26.0421910 101.5525194  92.0457369  26.9346192
 101.2205817  92.3501967  25.4892809 103.5576996  88.7219614  26.0902800
 103.5438565  87.8260708  25.7535098 104.2749425  88.7290278  26.7241086
 105.4103127  89.1556955  28.1355927 105.1520905  90.0774025  28.1340258
 104.8788168  88.7587389  28.8256392 110.3549316 102.2607742  20.9146013
 110.5286193 101.6954164  20.1619865 110.8478207 103.0608637  20.7325503
  96.1726276  94.2722411  28.9809572  95.6279744  95.0482219  29.1129846
  97.0505626  94.6193215  28.8228693 102.9613892  87.6033995  21.3590370
 103.0829804  86.6750641  21.5581258 102.6715935  87.6172681  20.4468686
 105.8305083  85.2888905  24.4957090 105.8526780  85.3528238  23.5409070
 106.2473142  84.4493414  24.6897596 116.2088707  95.0244165  22.5336313
 116.6519853  94.2751490  22.1355436 115.3315217  95.0154301  22.1510045
 111.3424488 101.5774506  18.0142911 112.0375393 102.1981199  18.2330226
 111.6847639 100.7269857  18.2895289  96.9592298  93.3992307  31.8739729
  96.2174034  93.5474942  32.4604359  96.6385042  93.6600573  31.0106478
 113.2415912  99.0274212  19.5430242 113.7667236  99.3661484  18.8179562
 113.1538264  98.0921227  19.3593377 104.9035960 102.9408285  31.6720119
 105.2123087 102.6957432  32.5442818 105.7011442 103.1454924  31.1838989
 104.9256572 105.0946195  23.9025495 104.4861563 104.6022574  24.5958352
 105.6764689 104.5519163  23.6617570  97.4048911 101.2857736  23.9050123
  98.2306931 100.9861508  23.5248767  97.0542963 100.5165358  24.3539912
 102.3730444 100.6384204  25.9747797 101.7510454  99.9754909  25.6750025
 103.0435311 100.6645336  25.2921445  95.6057516  99.2044062  24.8639057
  94.7689425  98.7766237  24.6823058  95.5781162  99.3976506  25.8009848
 102.4454972  89.1165992  35.5680303 102.4943127  89.9928115  35.1858072
 102.9877486  88.5743385  34.9951946 112.9309818  99.6607115  34.8481440
 112.1405361  99.6431254  34.3085939 112.6943172 100.1995409  35.6030476
 113.0507693  96.5099582  32.1614168 113.1005698  96.3449589  33.1029691
 112.9421616  95.6426841  31.7712049 101.9343951  99.1888127  19.4506257
 102.0832072  99.8723592  18.7972930 102.7410395  99.1693217  19.9655713
 110.3411455  92.4930510  33.4773475 111.2421318  92.3536975  33.1857473
 110.4159430  92.6584965  34.4171653 104.6754260  89.8697364  32.3226661
 103.8057570  90.1630930  32.0509250 104.9113741  90.4537809  33.0433925
 114.5525889  98.9296523  32.4056190 114.2610698  99.2926504  33.2419651
 113.9398021  98.2163531  32.2269522 115.7521572  96.4949403  24.9258760
 116.5868463  96.9339207  25.0896321 115.8880701  96.0188056  24.1067006
 112.8013078  94.0529138  30.8736248 113.2767199  94.2456784  30.0655099
 111.8778643  94.1088324  30.6279632  99.6896584  95.2153305  20.4567326
  99.4442626  94.3115635  20.6547536  99.8592499  95.2170455  19.5146804
 107.3793294  86.0876981  29.8392082 107.8975238  86.8238008  29.5138570
 107.0248427  86.3940975  30.6738841  98.9592232  90.9481663  17.9553488
  98.2661477  91.0226018  17.2993524  98.7143984  90.1842006  18.4775005
 107.6305888  82.5077264  25.3592978 107.9107642  81.8400453  25.9853405
 108.4156495  82.7006360  24.8467642 105.4339357 101.6836258  16.9218005
 104.8613324 102.3026445  16.4688477 106.0072151 102.2335619  17.4557927
 111.5014747  90.9294898  29.1064554 112.4532170  91.0292996  29.1276778
 111.3318197  90.1373166  29.6162638 109.5229126  88.0150481  29.2923954
 108.9279058  88.2955494  28.5970443 109.2378823  88.5044382  30.0640696
 108.6536617 101.9673408  18.0526587 109.5867290 101.9018970  18.2559463
 108.5659829 102.8029675  17.5941120 111.2824633 101.2839278  15.0130535
 111.2038265 100.9499142  15.9066292 112.1034300 101.7761046  15.0122007
 113.9802824  94.1501018  28.2206853 113.9479145  93.2117018  28.4066537
 114.5903448  94.2285054  27.4872678 105.8186155  93.0197071  14.2634057
 106.7645260  92.8903279  14.3322475 105.4400400  92.2811732  14.7403485
 114.1297313  90.9412061  28.2665136 113.6136362  90.1570518  28.0795065
 115.0137261  90.6130778  28.4311656 111.7908040  84.6853077  24.2260949
 111.5932861  84.3768165  25.1104281 112.4007745  85.4114715  24.3558879
 119.7979374  95.2117024  27.3612890 120.5282763  94.9502313  27.9220593
 119.1886320  94.4745746  27.4014958 117.8794671  93.3524887  27.9587341
 117.1527835  93.2180852  27.3503833 117.4641958  93.6601716  28.7644059
 105.7024848  97.0714817  35.7234714 106.6227857  97.2493416  35.9174761
 105.6674431  96.1270862  35.5714413 104.0029072  90.9447047  14.1988942
 103.0960528  90.6480160  14.2751656 104.2805054  90.6476865  13.3323229
  94.9207013  92.2653410  24.6487989  94.6009797  91.4118719  24.3562363
  94.3740441  92.4801988  25.4045956  98.6986920  94.9815851  28.3657495
  98.9172930  95.9132959  28.3845529  99.1112694  94.6223826  29.1512299
 105.6191138  85.4883937  20.3533184 104.8091867  85.1431022  20.7288430
 106.3075555  85.1791480  20.9420795 107.5481687  84.5661983  21.9757480
 108.1012725  84.9857437  22.6347503 107.7851773  83.6397732  22.0180436
 103.5714786  90.5549057  37.7560244 103.4711513  91.5043414  37.6872335
 103.3536328  90.2267296  36.8836314 102.7727857  87.8033982  14.3400922
 103.6347021  88.1288880  14.5996739 102.9578201  87.0165478  13.8273987
  94.7895273  95.8856322  26.6181110  94.0958744  95.4710275  26.1051065
  95.5368264  95.9276858  26.0214529 110.9260494  86.6762509  21.4836145
 110.3459163  87.3347313  21.1014197 110.6596426  85.8539853  21.0723562
 109.3764060  86.0767566  23.6857465 109.8763838  86.1884101  22.8771784
 110.0199668  85.7728619  24.3258273 103.4346056  93.9846196  36.5725306
 102.9513137  94.7846556  36.7789195 103.5206995  93.9954141  35.6192750
  96.7032015  95.8174576  24.4947125  96.6802704  95.9162263  23.5429008
  97.0132652  96.6639726  24.8164291  99.3619393  97.8750731  28.6093740
 100.3162647  97.8434673  28.5423671  99.1631917  97.4141354  29.4243966
  99.9518775  96.4451847  31.1764537 100.7711664  96.9395925  31.1999375
 100.2255583  95.5283815  31.1482105 109.7085372  88.8362599  20.5392493
 108.8211227  89.1212250  20.3212688 110.1239361  88.6756362  19.6919770
 113.0599908  88.8609120  24.2546832 113.8360298  89.3505572  24.5271449
 112.3348042  89.2867174  24.7118702 115.4972466  89.5736739  25.3120773
 116.0916957  89.3332475  24.6014081 115.5699050  88.8543870  25.9394309
  97.7169622 103.4170350  25.6263938  97.5824090 102.6570751  25.0601936
  97.3001684 104.1411250  25.1592726 108.8528585  98.6007274  14.6340513
 109.5564435  98.8057276  15.2498168 108.1291234  99.1684036  14.8989596
 109.6826395  94.3517135  20.7542783 109.6261597  94.8085686  19.9150415
 110.2354738  93.5907820  20.5765626 113.4931201  90.1406867  21.5792903
 113.2368136  89.7403502  22.4101110 112.8684069  90.8550661  21.4543042
 117.8043539  92.8802940  24.0864194 117.2443097  92.9496129  24.8595756
 117.1987042  92.7043925  23.3663690 100.8738748 104.3139667  25.8382380
 100.7571132 105.2585100  25.7361070 100.0531194 104.0113229  26.2268179
 110.7615282  99.0389803  16.6838973 111.5960886  98.6071001  16.5016448
 110.5999625  98.8671817  17.6115867 110.4161175  95.5421916  18.0495312
 110.3609978  95.3766188  17.1083756 109.7907230  96.2497949  18.2057502
  95.2053690  90.7789981  31.8756734  95.8512553  90.2688935  32.3643960
  94.9970841  91.5158662  32.4500160 107.7307082  97.8470828  37.3748875
 108.5998241  98.0211480  37.0135510 107.2513833  98.6665245  37.2524604
 103.7257300  85.0430025  17.6280631 103.7135970  85.9871865  17.7848901
 104.6180722  84.8600171  17.3340092 101.8993262 104.9667929  29.0538309
 102.8020509 104.9991539  29.3704804 101.6730632 104.0368380  29.0684644
 103.6546864 103.7198916  25.7148387 102.7042495 103.7200777  25.6012760
 103.9579350 102.9731650  25.1984422 107.5409420  81.6372802  21.8826567
 106.7741815  81.0831289  22.0283250 107.9520125  81.7094671  22.7440719
  99.5451181  87.9257598  35.9731749 100.4082642  87.5694402  36.1835073
  98.9716591  87.5871492  36.6607153 119.3899558 109.5559454  26.7794150
 120.0277968 109.4366201  26.0757490 119.2720400 110.5040298  26.8382102
 116.1989264 109.5086882  26.7155674 115.8607775 109.3927947  25.8276209
 117.0679032 109.1078047  26.6956681 112.0576080 111.3622359  22.7052565
 111.4940945 111.2712295  21.9368853 111.9428475 110.5422263  23.1855058
 116.6809047 110.6621734  32.6741880 116.6697688 110.2674532  31.8022384
 116.8429686 109.9287806  33.2675651 109.6040511 112.8573550  25.5436786
 110.3961803 112.5164375  25.1283085 109.8437162 112.9668525  26.4638939
 111.5631265 112.1182463  18.4154165 112.3362141 111.5711450  18.2767040
 111.9156664 112.9826713  18.6268626 113.4016308 113.4458846  31.6221064
 113.1106174 114.3504476  31.5067730 114.0373292 113.4875373  32.3365133
 114.3272515 110.8235694  28.2122424 114.9236087 110.5991717  27.4979386
 114.3847486 110.0820440  28.8147871 113.8997543 108.2775129  16.0472614
 114.1523064 107.7556651  15.2856077 112.9622102 108.1141275  16.1499298
 118.9440826 107.2810908  23.8547358 119.7303915 106.8630331  23.5037775
 119.2079530 108.1857000  24.0229006 124.3449253 107.2186141  24.7580336
 125.0774425 106.6485358  24.9918166 123.5888609 106.8307741  25.1986842
 113.6193832 110.1803235  18.2496989 113.5030090 109.5048139  18.9178074
 113.7296092 109.6935609  17.4329143 115.9625373 109.6413383  21.9543679
 115.5983580 109.1144004  22.6656600 116.8192489 109.2511852  21.7810164
 121.8674674 100.9307715  29.2174945 121.5357998 101.8003126  28.9936160
 121.2720287 100.6143999  29.8968975 115.6030860 104.6703282  16.9505027
 115.7705262 105.5383519  17.3175498 115.4128029 104.8330564  16.0266316
 118.3606193 113.1320261  28.6170858 118.0606916 114.0345300  28.5086665
 118.0157253 112.8652444  29.4692010 111.8118675 109.5834058  24.6507562
 110.8869171 109.4510272  24.8585254 112.0603088 110.3628277  25.1477504
 121.7603337 105.6502801  26.2968295 120.8520214 105.5818210  26.0027056
 121.7090933 106.1274746  27.1250120 115.5820081 107.1260940  17.9351694
 115.4619706 107.5717990  18.7737174 114.8872669 107.4746257  17.3765232
 109.1727486 109.2267332  25.4851351 109.3019867 109.4801810  26.3990763
 108.4924937 109.8195040  25.1656006 113.3426973 119.8964581  21.5841825
 113.2651003 120.8472407  21.6630306 112.7388616 119.5510454  22.2416752
 115.8344203 107.0692447  34.2403192 115.0577537 107.6286367  34.2306057
 116.4734766 107.5549230  34.7618062 123.6264983 103.8519240  28.0746169
 122.9839364 104.1451773  27.4285963 123.1219912 103.7372160  28.8799365
 121.2805147 107.5982413  18.7632028 122.1923003 107.8309800  18.5879726
 120.7714794 108.1819457  18.2007107 114.0890575 109.8777900  33.8021159
 114.8305259 110.4162944  33.5255983 113.3827560 110.5044189  33.9592711
 119.5645915 112.0207041  32.3993321 119.9729271 111.5789451  31.6547953
 118.8423176 111.4459668  32.6527514 115.9176985 106.9579648  29.7726878
 116.7638180 107.3819061  29.9161527 115.8575622 106.3013272  30.4665441
 119.8874729 112.5808231  26.1545610 119.2583592 112.7453945  25.4521677
 119.5000391 112.9949841  26.9256574 123.7663961 113.5162669  23.5089973
 123.0814999 113.8961571  22.9587007 123.8507810 114.1257996  24.2421921
 119.0676430 104.6184016  31.4308051 118.8237362 105.3726076  30.8942327
 119.3436360 104.9969363  32.2655298 121.0214893 111.1622628  30.1085317
 121.2331788 111.8054388  29.4319698 120.9744641 110.3284945  29.6407247
 118.6241122 103.7740449  27.0121889 117.7625601 104.0721702  27.3038627
 118.6503556 103.9910848  26.0802922 115.4402691 112.3182639  23.4195695
 115.9041037 112.5970342  22.6300317 115.1759489 111.4166084  23.2368785
 112.3326772 111.8654121  26.3575458 112.9028129 112.2941389  25.7192942
 112.9234884 111.5836706  27.0559644 114.3771577 108.4405792  20.2285260
 115.0795621 108.8926835  20.6959186 114.0452206 107.7989611  20.8565153
 112.8251939 107.0317548  34.6036469 112.1950599 107.7133829  34.8371866
 112.7188027 106.9200630  33.6589607 108.1196911 106.6989344  25.5302393
 107.3295965 106.9546873  25.0542504 108.6108158 107.5137682  25.6354434
 122.1360721 114.0394584  28.2807674 122.9578164 113.6374771  27.9990356
 122.1323124 113.9362818  29.2323790 110.0711657 107.0633924  22.4885870
 109.2742820 107.1752618  23.0069366 109.8437249 107.4020576  21.6226761
 115.9017324 113.5878627  30.4368385 115.9661757 114.0499034  31.2726557
 115.1928248 112.9575992  30.5650695 106.4034614 106.9519835  27.9617384
 106.6542653 107.8366845  28.2274960 106.9394163 106.7724436  27.1892476
 130.2266714 110.3833332  24.6292646 129.4730422 109.8140730  24.4736650
 130.3614255 110.3495997  25.5763280 115.6165342 115.2546734  20.3047365
 115.4811017 116.0998270  20.7332213 116.1575154 115.4566012  19.5413299
 112.1032681 101.3338314  36.9661720 111.7099627 100.7804513  37.6409364
 112.9198822 101.6448893  37.3568238 109.0694739 112.7722172  20.8775290
 109.5819260 113.5665423  21.0280855 109.7217452 112.0748463  20.8108892
 110.8789624 115.8887929  22.9598043 111.0556252 116.8105893  22.7719027
 111.6746457 115.5746348  23.3892423 115.0200642 102.7496193  34.5581977
 115.7610356 103.3503347  34.4786439 115.2518565 102.0073831  34.0000019
 110.1641980 107.9352561  32.8360206 110.0495496 107.0337818  33.1367305
 109.3086498 108.1816257  32.4845023 117.2433818 115.8770301  34.4347707
 116.7997672 115.0906680  34.1168612 117.9051032 116.0649451  33.7691598
 112.0020939 117.4066103  28.9608386 112.5528364 117.2783166  28.1885380
 111.1632415 117.7060992  28.6103278 119.3415056 116.1573101  32.4629108
 119.3233532 116.9781982  31.9709378 120.2634976 116.0327176  32.6879250
 115.7988110 113.6717230  33.3052617 116.3316447 112.9105519  33.0751925
 115.2702191 113.3790882  34.0476771 118.9657805  98.7777296  28.8346258
 118.6222075  99.6678938  28.7585369 119.3336768  98.5878954  27.9715843
 107.0343656 111.1010827  21.6534861 107.8718878 111.5107835  21.4368568
 107.2121924 110.1610269  21.6235054 118.9308088 108.7685907  17.3418694
 118.4154712 109.5390512  17.5807081 118.6585397 108.0951044  17.9651755
 116.5155199 103.6135608  22.4003932 115.6596795 103.2242459  22.2209571
 116.9282151 103.6927569  21.5403717 118.0454346 101.1481951  26.7995492
 117.5419141 101.1112087  25.9863297 118.3384953 102.0574694  26.8592148
 114.2897232 101.2320681  25.8061673 115.1550228 101.0363490  25.4467563
 114.3574741 101.0031033  26.7331030 118.7194391 106.6413000  19.1678475
 118.4144527 106.9559149  20.0188618 119.6724833 106.7194419  19.2105808
 117.1640823 112.8003223  20.8171429 116.6362185 112.0655982  20.5044666
 116.6628326 113.5777899  20.5711397 122.1433669 110.9952243  25.9338475
 121.4857344 111.6851505  26.0218604 122.9474068 111.3848675  26.2772461
 111.8959551 103.4622889  23.1778040 112.4703303 103.2398071  22.4451233
 112.4830533 103.5311584  23.9306642 120.9539128 109.3496616  23.9842417
 121.4671010 109.9826608  24.4864127 121.6040352 108.7497812  23.6185777
 112.2229138 105.4927350  17.1973926 111.3866450 105.8302037  17.5183200
 112.0833907 105.3576330  16.2601062 114.1982218 100.3364138  21.9053110
 113.5446631 100.0213155  21.2809724 114.1562693  99.7139878  22.6312933
 117.4319959 106.8246072  26.2300757 116.5142520 107.0461019  26.0722445
 117.8480102 106.8992382  25.3712465 118.2155007 108.2237487  21.3603438
 118.9626825 108.7358884  21.0510560 118.4846596 107.9021540  22.2207831
 116.4881657 110.7196028  18.3430392 115.5792876 110.4355061  18.4402862
 116.5176741 111.1395107  17.4833699 121.7200924 114.3302617  22.1121559
 121.2663251 113.4893527  22.1686750 121.0894891 114.9664016  22.4496340
 120.6633844 105.2594604  23.3422227 119.9256600 104.7471990  23.6732469
 120.9160617 104.8194985  22.5305504 120.1633863 116.1679114  23.0471378
 120.4556838 116.7284171  22.3283743 120.6732484 116.4607675  23.8024537
 120.7645471  98.0370856  23.9363996 121.0704348  97.1768219  23.6489911
 121.4898076  98.6288476  23.7362990 107.0569827 108.4401542  22.3245594
 106.8594227 107.8470903  21.5996661 106.5016491 108.1353752  23.0421533
 115.0366551 108.3324649  24.4440187 115.0915161 107.3798485  24.3682664
 114.2257753 108.4884088  24.9281486 112.9758911 106.9501708  22.2030566
 112.1626776 107.2495879  22.6095758 113.4717905 106.5557397  22.9205048
 115.1267489 116.9459465  24.1364831 115.0843667 117.1720312  23.2073363
 116.0430187 116.7122840  24.2850632 118.5733122 107.4143533  31.0345460
 118.9282510 107.6415006  31.8939926 119.2205254 107.7461910  30.4122715
 124.3030859 110.5361969  21.7394789 124.1648758 110.7263565  20.8115978
 123.9467078 111.2981351  22.1962840 112.4672985 104.5220064  27.8191801
 113.1072365 104.3808823  27.1214764 111.6350516 104.2354577  27.4430403
 124.3300239 112.6038496  26.7506061 124.7636746 112.5113785  27.5989115
 125.0431820 112.5795996  26.1126077 113.2433289 113.8222494  23.9326793
 114.0373888 113.3272814  23.7309368 112.5324982 113.2940357  23.5694499
 118.0628134 116.2040590  28.2839161 118.1165156 116.7731526  29.0516877
 117.1942915 116.3742475  27.9193198 109.5516053 107.9665576  20.0086546
 108.6213641 107.9050031  20.2256508 109.6473525 107.4441529  19.2123187
 109.4701602 104.4920389  22.5964788 109.7308419 105.4065722  22.4873948
 110.2918774 104.0244831  22.7461401 110.9426527 105.9058146  29.7663612
 111.6149581 105.6975508  29.1176261 110.1156314 105.7080232  29.3268845
 125.1915788 112.6462196  29.2838946 125.3851679 113.5508007  29.5298221
 125.0916407 112.1869615  30.1177531 116.8452099 102.5320087  31.7829273
 116.1980014 103.2310037  31.6893750 117.6153115 102.9656231  32.1505521
 120.2530897 112.7968939  34.8579827 120.1016404 112.5679491  33.9409910
 120.2435577 113.7539541  34.8711172 117.0216234 110.3700852  29.8426093
 117.9508294 110.5212011  29.6695060 116.6007264 110.4584873  28.9874739
 115.8204565 114.3951516  27.6124631 115.6815651 114.0270301  28.4850569
 115.0319162 114.9099156  27.4408588 117.3709780 113.7733119  25.0013468
 117.0359613 113.7333889  25.8971118 116.8713726 113.1077835  24.5283879
 111.3454024 109.1800749  30.5266050 111.2073822 108.4480988  31.1277589
 112.2558948 109.0909649  30.2450237 113.9736325 108.8920708  30.0149729
 114.6835944 108.2513900  29.9736348 113.9305633 109.1433603  30.9375910
 121.9623104 115.8288062  32.9356308 121.9035650 115.1447282  32.2686891
 122.3642622 116.5707052  32.4836934 112.6865259 105.8785926  31.8345369
 112.1502616 105.4276665  32.4866965 112.0981968 106.0131835  31.0915833
 110.9813803 122.6449975  25.7290027 111.2210401 123.2768500  26.4069046
 110.1382999 122.2938015  26.0155387 112.0967518 105.3374578  14.3971832
 111.2196984 105.2163378  14.0334079 112.5725271 104.5460656  14.1450721
 121.9640511 113.7927646  31.1670288 121.0767290 113.4553567  31.2896687
 122.5339062 113.0610677  31.4039053 103.6169658 110.1251737  24.4913339
 104.3040698 109.8113467  23.9034355 103.4617787 111.0293102  24.2180591
 108.4204380 105.0141934  28.9198363 108.3362569 104.4067603  28.1848773
 107.5987087 105.5050952  28.9207859 115.4941664 118.4529098  28.1331531
 115.4211836 119.2584069  28.6450836 115.0519058 118.6521064  27.3079553
 115.2831444 117.6900868  21.6434353 114.4998966 118.2322548  21.7372577
 115.9824189 118.2074848  22.0428594 118.5928094 103.4995497  24.2868558
 119.0896794 102.7465460  23.9669628 117.8215076 103.5359814  23.7211768
 126.4457852 109.2035863  25.9286850 126.4347728 110.0860578  25.5580783
 125.5775231 108.8507414  25.7341387 117.9540348 118.3515932  30.2889690
 118.6668320 118.9863397  30.2165591 117.4630377 118.4479798  29.4729692
 119.6757875 112.2567185  21.8606982 118.7414154 112.3768647  21.6911686
 119.8534543 111.3539651  21.5966991 115.1763063 105.6412880  24.0140243
 114.8060850 105.0883921  24.7021148 115.6722155 105.0371014  23.4615243
 123.0630426 108.0984504  22.3957016 123.5290878 108.9312496  22.3217318
 123.5137927 107.6329485  23.1002274 113.0052262 116.1010375  31.1095261
 113.7061721 116.7346858  31.2624655 112.5347376 116.4425107  30.3490900
 121.0347089 100.4665091  26.4347917 120.1210169 100.6969318  26.6030124
 121.4640190 100.5503535  27.2861949 120.8053547 108.6554983  28.9347811
 120.1524998 108.9030890  28.2800264 121.1833927 107.8419121  28.6010288
 117.7660721 118.6914676  23.0375981 117.9483116 117.8736332  23.5003734
 118.5893707 118.9082368  22.6000871 116.8541120 109.3974794  35.4213848
 116.1781758 109.2968923  36.0916223 117.6768754 109.2414008  35.8849845
 108.6019980 115.6346730  28.0426363 109.1873416 114.8890418  28.1754268
 108.4044818 115.9450687  28.9263027 111.4558635 118.6697978  23.0588806
 110.7869010 119.1544105  22.5752846 111.3171504 118.9167198  23.9732184
 103.1937634 108.2052331  26.7630807 103.2321734 107.6715921  27.5567925
 102.6877927 107.6787536  26.1441784 115.5963903 120.7041721  29.6571464
 116.1482211 120.8673343  30.4220549 115.9370097 121.2946159  28.9851489
 110.5728397 103.0516871  30.2593349 110.6369723 103.9131702  29.8470747
 110.5095517 102.4390873  29.5265707 110.0480669 105.1240004  33.9066383
 110.6752708 104.7417081  34.5203907 109.1908588 104.9054206  34.2722076
 120.4474778 115.5302979  35.5120119 120.9914682 116.1432937  35.0175073
 119.8661623 116.0882557  36.0287132 106.8246212 106.9316433  19.8384738
 107.1199653 106.0227111  19.7851792 105.9234248 106.9104172  19.5165740
 118.7332291 118.6523697  26.6435146 118.6083430 117.8513437  26.1346092
 119.3911382 119.1469890  26.1549116 110.3540459 105.0072429  25.8212287
 109.6327045 105.6208397  25.6819760 111.1433715 105.5430194  25.7428933
 120.7967199 116.4532717  28.2714696 119.8497535 116.3338068  28.1993023
 121.1449972 115.5655215  28.3540958 113.1566772 102.3426856  32.0952938
 113.6801174 102.5889152  32.8579248 112.9379106 103.1746891  31.6756076
 108.5534053 104.6130530  19.9624063 108.2246760 103.7327909  19.7799169
 108.9073424 104.5578199  20.8500452 117.8013632 116.2485433  24.4719049
 117.6538595 115.3202141  24.6526619 118.6267126 116.2705524  23.9876124
 111.6675877 104.9003500  20.3299541 112.0071949 105.4289422  19.6078149
 112.1147997 105.2383906  21.1058107 121.4047754 117.0713992  25.5583921
 122.3294302 116.8656853  25.4208373 121.2363058 116.8230393  26.4673263
 114.3619317 103.2840551  29.7802609 114.0216138 102.4848364  30.1823289
 113.6558324 103.5842262  29.2079442 115.0135789 100.3689863  28.2329932
 115.8361859  99.8950342  28.1108822 115.2573853 101.1480347  28.7328618
 113.6544024 103.3978122  18.5292834 114.3752386 103.7759375  18.0256550
 113.0309328 104.1166999  18.6327812 117.7975147 104.1023271  19.4651166
 118.0138761 104.9847909  19.1639994 117.3169214 103.7109484  18.7356808
 112.5374368 107.0608984  26.0421910 112.3918949 107.3749287  26.9346192
 112.0599572 107.6793884  25.4892809 114.3970751 104.0511532  26.0902800
 114.3832320 103.1552625  25.7535098 115.1143179 104.0582196  26.7241086
 116.2496882 104.4848872  28.1355927 115.9914659 105.4065943  28.1340258
 115.7181922 104.0879307  28.8256392 107.0120030 109.6014328  28.9809572
 106.4673498 110.3774136  29.1129846 107.8899380 109.9485133  28.8228693
 113.8007647 102.9325912  21.3590370 113.9223558 102.0042559  21.5581258
 113.5109689 102.9464598  20.4468686 116.6698837 100.6180823  24.4957090
 116.6920534 100.6820156  23.5409070 117.0866896  99.7785331  24.6897596
 127.0482462 110.3536082  22.5336313 127.4913608 109.6043408  22.1355436
 126.1708972 110.3446219  22.1510045 107.7986052 108.7284225  31.8739729
 107.0567788 108.8766860  32.4604359 107.4778796 108.9892490  31.0106478
 115.7429715 118.2700203  31.6720119 116.0516841 118.0249350  32.5442818
 116.5405197 118.4746841  31.1838989 115.7650327 120.4238113  23.9025495
 115.3255317 119.9314491  24.5958352 116.5158444 119.8811080  23.6617570
 108.2442666 116.6149653  23.9050123 109.0700686 116.3153425  23.5248767
 107.8936718 115.8457276  24.3539912 113.2124199 115.9676122  25.9747797
 112.5904208 115.3046827  25.6750025 113.8829066 115.9937254  25.2921445
 106.4451271 114.5335980  24.8639057 105.6083179 114.1058154  24.6823058
 106.4174916 114.7268423  25.8009848 113.2848726 104.4457910  35.5680303
 113.3336882 105.3220033  35.1858072 113.8271241 103.9035303  34.9951946
 123.7703572 114.9899033  34.8481440 122.9799116 114.9723172  34.3085939
 123.5336927 115.5287327  35.6030476 123.8901447 111.8391499  32.1614168
 123.9399452 111.6741507  33.1029691 123.7815370 110.9718758  31.7712049
 112.7737706 114.5180045  19.4506257 112.9225826 115.2015509  18.7972930
 113.5804149 114.4985135  19.9655713 121.1805210 107.8222427  33.4773475
 122.0815072 107.6828892  33.1857473 121.2553184 107.9876882  34.4171653
 115.5148015 105.1989282  32.3226661 114.6451324 105.4922848  32.0509250
 115.7507495 105.7829727  33.0433925 125.3919644 114.2588441  32.4056190
 125.1004452 114.6218421  33.2419651 124.7791775 113.5455449  32.2269522
 126.5915326 111.8241321  24.9258760 127.4262218 112.2631125  25.0896321
 126.7274455 111.3479974  24.1067006 123.6406832 109.3821055  30.8736248
 124.1160954 109.5748702  30.0655099 122.7172398 109.4380241  30.6279632
 110.5290339 110.5445223  20.4567326 110.2836381 109.6407553  20.6547536
 110.6986253 110.5462373  19.5146804 118.2187049 101.4168899  29.8392082
 118.7368993 102.1529926  29.5138570 117.8642181 101.7232892  30.6738841
 109.7985986 106.2773580  17.9553488 109.1055231 106.3517935  17.2993524
 109.5537738 105.5133924  18.4775005 118.4699643  97.8369182  25.3592978
 118.7501397  97.1692371  25.9853405 119.2550250  98.0298277  24.8467642
 122.3408501 106.2586816  29.1064554 123.2925924 106.3584913  29.1276778
 122.1711952 105.4665084  29.6162638 120.3622881 103.3442399  29.2923954
 119.7672813 103.6247411  28.5970443 120.0772577 103.8336300  30.0640696
 124.8196579 109.4792935  28.2206853 124.7872899 108.5408936  28.4066537
 125.4297203 109.5576972  27.4872678 124.9691067 106.2703979  28.2665136
 124.4530116 105.4862435  28.0795065 125.8531016 105.9422695  28.4311656
 122.6301794 100.0144994  24.2260949 122.4326616  99.7060082  25.1104281
 123.2401500 100.7406633  24.3558879 130.6373129 110.5408942  27.3612890
 131.3676517 110.2794230  27.9220593 130.0280074 109.8037664  27.4014958
 128.7188426 108.6816805  27.9587341 127.9921590 108.5472770  27.3503833
 128.3035713 108.9893633  28.7644059 116.5418602 112.4006734  35.7234714
 117.4621612 112.5785333  35.9174761 116.5068185 111.4562780  35.5714413
 114.8422827 106.2738965  14.1988942 113.9354282 105.9772077  14.2751656
 115.1198808 105.9768783  13.3323229 105.7600767 107.5945328  24.6487989
 105.4403552 106.7410636  24.3562363 105.2134196 107.8093906  25.4045956
 109.5380675 110.3107769  28.3657495 109.7566685 111.2424877  28.3845529
 109.9506449 109.9515743  29.1512299 116.4584893 100.8175854  20.3533184
 115.6485621 100.4722939  20.7288430 117.1469310 100.5083398  20.9420795
 118.3875441  99.8953901  21.9757480 118.9406480 100.3149355  22.6347503
 118.6245527  98.9689649  22.0180436 114.4108540 105.8840975  37.7560244
 114.3105267 106.8335332  37.6872335 114.1930082 105.5559214  36.8836314
 113.6121612 103.1325900  14.3400922 114.4740776 103.4580798  14.5996739
 113.7971956 102.3457396  13.8273987 105.6289027 111.2148240  26.6181110
 104.9352499 110.8002192  26.1051065 106.3762018 111.2568776  26.0214529
 121.7654248 102.0054426  21.4836145 121.1852917 102.6639230  21.1014197
 121.4990181 101.1831771  21.0723562 120.2157814 101.4059484  23.6857465
 120.7157593 101.5176019  22.8771784 120.8593422 101.1020537  24.3258273
 114.2739810 109.3138114  36.5725306 113.7906892 110.1138474  36.7789195
 114.3600749 109.3246058  35.6192750 107.5425770 111.1466493  24.4947125
 107.5196458 111.2454181  23.5429008 107.8526406 111.9931644  24.8164291
 110.2013148 113.2042648  28.6093740 111.1556401 113.1726591  28.5423671
 110.0025671 112.7433272  29.4243966 110.7912530 111.7743764  31.1764537
 111.6105419 112.2687843  31.1999375 111.0649338 110.8575733  31.1482105
 120.5479126 104.1654517  20.5392493 119.6604981 104.4504167  20.3212688
 120.9633115 104.0048280  19.6919770 123.8993662 104.1901038  24.2546832
 124.6754052 104.6797490  24.5271449 123.1741796 104.6159092  24.7118702
 126.3366221 104.9028657  25.3120773 126.9310712 104.6624393  24.6014081
 126.4092805 104.1835787  25.9394309 108.5563377 118.7462268  25.6263938
 108.4217844 117.9862669  25.0601936 108.1395439 119.4703168  25.1592726
 120.5220150 109.6809053  20.7542783 120.4655351 110.1377604  19.9150415
 121.0748492 108.9199737  20.5765626 124.3324956 105.4698784  21.5792903
 124.0761890 105.0695420  22.4101110 123.7077824 106.1842578  21.4543042
 128.6437294 108.2094858  24.0864194 128.0836852 108.2788047  24.8595756
 128.0380797 108.0335842  23.3663690 111.7132502 119.6431585  25.8382380
 111.5964887 120.5877017  25.7361070 110.8924949 119.3405146  26.2268179
 106.0447444 106.1081898  31.8756734 106.6906308 105.5980852  32.3643960
 105.8364595 106.8450580  32.4500160 118.5700836 113.1762746  37.3748875
 119.4391996 113.3503398  37.0135510 118.0907588 113.9957163  37.2524604
 114.5651055 100.3721943  17.6280631 114.5529724 101.3163783  17.7848901
 115.4574476 100.1892088  17.3340092 112.7387017 120.2959847  29.0538309
 113.6414263 120.3283457  29.3704804 112.5124387 119.3660298  29.0684644
 114.4940619 119.0490833  25.7148387 113.5436250 119.0492695  25.6012760
 114.7973105 118.3023568  25.1984422 118.3803174  96.9664719  21.8826567
 117.6135570  96.4123206  22.0283250 118.7913879  97.0386588  22.7440719
 110.3844935 103.2549515  35.9731749 111.2476397 102.8986320  36.1835073
 109.8110346 102.9163410  36.6607153 127.5202801 125.9913651  32.6741880
 127.5091442 125.5966450  31.8022384 127.6823441 125.2579724  33.2675651
 124.2410062 128.7750763  31.6221064 123.9499928 129.6796394  31.5067730
 124.8767047 128.8167291  32.3365133 132.7068428 116.2599633  29.2174945
 132.3751753 117.1295044  28.9936160 132.1114041 115.9435917  29.8968975
 126.6737957 122.3984365  34.2403192 125.8971291 122.9578285  34.2306057
 127.3128520 122.8841148  34.7618062 124.9284329 125.2069818  33.8021159
 125.6699014 125.7454862  33.5255983 124.2221315 125.8336107  33.9592711
 126.7570739 122.2871565  29.7726878 127.6031934 122.7110979  29.9161527
 126.6969377 121.6305189  30.4665441 129.9070184 119.9475934  31.4308051
 129.6631116 120.7017994  30.8942327 130.1830115 120.3261281  32.2655298
 123.6645693 122.3609466  34.6036469 123.0344354 123.0425747  34.8371866
 123.5581781 122.2492548  33.6589607 118.9590666 122.0281262  25.5302393
 118.1689720 122.2838791  25.0542504 119.4501913 122.8429600  25.6354434
 117.2428369 122.2811753  27.9617384 117.4936407 123.1658763  28.2274960
 117.7787917 122.1016354  27.1892476 122.9426436 116.6630232  36.9661720
 122.5493381 116.1096431  37.6409364 123.7592576 116.9740810  37.3568238
 125.8594397 118.0788111  34.5581977 126.6004110 118.6795264  34.4786439
 126.0912320 117.3365749  34.0000019 121.0035735 123.2644478  32.8360206
 120.8889250 122.3629736  33.1367305 120.1480253 123.5108175  32.4845023
 128.0827573 131.2062219  34.4347707 127.6391427 130.4198597  34.1168612
 128.7444786 131.3941369  33.7691598 126.6381865 129.0009148  33.3052617
 127.1710202 128.2397436  33.0751925 126.1095946 128.7082800  34.0476771
 129.8051560 114.1069214  28.8346258 129.4615829 114.9970856  28.7585369
 130.1730522 113.9170872  27.9715843 128.8848100 116.4773869  26.7995492
 128.3812896 116.4404004  25.9863297 129.1778707 117.3866612  26.8592148
 125.1290986 116.5612599  25.8061673 125.9943983 116.3655408  25.4467563
 125.1968495 116.3322951  26.7331030 129.4126877 122.7435450  31.0345460
 129.7676265 122.9706924  31.8939926 130.0599008 123.0753827  30.4122715
 123.3066740 119.8511982  27.8191801 123.9466119 119.7100741  27.1214764
 122.4744270 119.5646495  27.4430403 121.7820282 121.2350064  29.7663612
 122.4543335 121.0267426  29.1176261 120.9550068 121.0372150  29.3268845
 127.6845854 117.8612005  31.7829273 127.0373769 118.5601954  31.6893750
 128.4546869 118.2948149  32.1505521 131.0924652 128.1260857  34.8579827
 130.9410158 127.8971408  33.9409910 131.0829331 129.0831458  34.8711172
 122.1847779 124.5092667  30.5266050 122.0467577 123.7772905  31.1277589
 123.0952702 124.4201567  30.2450237 124.8130080 124.2212626  30.0149729
 125.5229698 123.5805818  29.9736348 124.7699388 124.4725521  30.9375910
 123.5259014 121.2077844  31.8345369 122.9896371 120.7568582  32.4866965
 122.9375722 121.3423753  31.0915833 119.2598135 120.3433852  28.9198363
 119.1756324 119.7359521  28.1848773 118.4380841 120.8342870  28.9207859
 131.8740843 115.7957009  26.4347917 130.9603923 116.0261235  26.6030124
 132.3033945 115.8795453  27.2861949 127.6934875 124.7266712  35.4213848
 127.0175512 124.6260841  36.0916223 128.5162509 124.5705925  35.8849845
 114.0331389 123.5344248  26.7630807 114.0715488 123.0007839  27.5567925
 113.5271682 123.0079454  26.1441784 121.4122151 118.3808789  30.2593349
 121.4763478 119.2423620  29.8470747 121.3489271 117.7682791  29.5265707
 120.8874424 120.4531921  33.9066383 121.5146462 120.0708999  34.5203907
 120.0302342 120.2346123  34.2722076 131.2868532 130.8594897  35.5120119
 131.8308436 131.4724855  35.0175073 130.7055377 131.4174475  36.0287132
 121.1934213 120.3364347  25.8212287 120.4720799 120.9500315  25.6819760
 121.9827469 120.8722112  25.7428933 123.9960527 117.6718774  32.0952938
 124.5194929 117.9181070  32.8579248 123.7772860 118.5038808  31.6756076
 125.2013072 118.6132469  29.7802609 124.8609892 117.8140282  30.1823289
 124.4952078 118.9134180  29.2079442 125.8529544 115.6981781  28.2329932
 126.6755613 115.2242259  28.1108822 126.0967607 116.4772265  28.7328618
 125.2364505 119.3803450  26.0902800 125.2226074 118.4844543  25.7535098
 125.9536934 119.3874113  26.7241086 127.0890636 119.8140790  28.1355927
 126.8308414 120.7357861  28.1340258 126.5575676 119.4171224  28.8256392
 117.8513785 124.9306246  28.9809572 117.3067253 125.7066054  29.1129846
 118.7293135 125.2777051  28.8228693 118.6379807 124.0576142  31.8739729
 117.8961543 124.2058778  32.4604359 118.3172551 124.3184408  31.0106478
 124.1242481 119.7749827  35.5680303 124.1730636 120.6511950  35.1858072
 124.6664995 119.2327220  34.9951946 132.0198964 123.1514345  33.4773475
 132.9208827 123.0120810  33.1857473 132.0946939 123.3168800  34.4171653
 126.3541769 120.5281200  32.3226661 125.4845079 120.8214766  32.0509250
 126.5901250 121.1121645  33.0433925 129.0580803 116.7460817  29.8392082
 129.5762747 117.4821844  29.5138570 128.7035936 117.0524810  30.6738841
 129.3093397 113.1661099  25.3592978 129.5895151 112.4984288  25.9853405
 130.0944004 113.3590195  24.8467642 131.2016635 118.6734316  29.2923954
 130.6066567 118.9539329  28.5970443 130.9166332 119.1628217  30.0640696
 127.3812357 127.7298652  35.7234714 128.3015366 127.9077251  35.9174761
 127.3461940 126.7854697  35.5714413 116.5994522 122.9237246  24.6487989
 116.2797306 122.0702554  24.3562363 116.0527950 123.1385824  25.4045956
 120.3774429 125.6399687  28.3657495 120.5960439 126.5716795  28.3845529
 120.7900203 125.2807661  29.1512299 125.2502295 121.2132892  37.7560244
 125.1499022 122.1627249  37.6872335 125.0323837 120.8851131  36.8836314
 116.4682782 126.5440157  26.6181110 115.7746253 126.1294110  26.1051065
 117.2155773 126.5860694  26.0214529 125.1133565 124.6430031  36.5725306
 124.6300646 125.4430391  36.7789195 125.1994504 124.6537976  35.6192750
 121.6306284 127.1035682  31.1764537 122.4499173 127.5979761  31.1999375
 121.9043092 126.1867650  31.1482105 116.8841199 121.4373816  31.8756734
 117.5300062 120.9272770  32.3643960 116.6758350 122.1742498  32.4500160
 129.4094591 128.5054663  37.3748875 130.2785750 128.6795316  37.0135510
 128.9301342 129.3249080  37.2524604 121.2238690 118.5841433  35.9731749
 122.0870151 118.2278238  36.1835073 120.6504100 118.2455328  36.6607153
 133.7820190 131.9922150  36.9661720 133.3887136 131.4388348  37.6409364
 134.5986331 132.3032728  37.3568238  73.3234030  26.3516186  19.3987187
  73.3122671  25.9568984  18.5267690  73.4854670  25.6182258  19.9920958
  70.0441291  29.1353298  18.3466371  69.7531157  30.0398928  18.2313037
  70.6798276  29.1769825  19.0610440  75.0031176  28.8214713  15.3416164
  74.7031899  29.7239752  15.2331971  74.6582236  28.5546896  16.1937317
  72.4769186  22.7586899  20.9648499  71.7002520  23.3180819  20.9551363
  73.1159749  23.2443682  21.4863369  70.7315558  25.5672352  20.5266466
  71.4730243  26.1057396  20.2501289  70.0252544  26.1938641  20.6838018
  76.2070898  27.7101493  19.1238627  76.6154254  27.2683903  18.3793260
  75.4848159  27.1354120  19.3772820  75.7101413  20.3078468  18.1553358
  75.4662345  21.0620528  17.6187634  75.9861344  20.6863815  18.9900605
  77.6639876  26.8517080  16.8330623  77.8756771  27.4948840  16.1565005
  77.6169624  26.0179397  16.3652554  69.4676922  22.7212000  21.3281776
  68.8375583  23.4028281  21.5617173  69.3613010  22.6095082  20.3834914
  78.7785704  29.7289036  15.0052981  79.6003148  29.3269223  14.7235662
  78.7748107  29.6257270  15.9569097  72.5442307  29.2773079  17.1613691
  72.6086740  29.7393486  17.9971863  71.8353231  28.6470444  17.2896001
  86.8691697  26.0727784  11.3537952  86.1155405  25.5035182  11.1981957
  87.0039238  26.0390449  12.3008587  68.7457665  17.0232766  23.6907027
  68.3524610  16.4698965  24.3654671  69.5623805  17.3343345  24.0813544
  73.8858801  31.5664753  21.1593014  73.4422656  30.7801131  20.8413918
  74.5476015  31.7543903  20.4936905  68.6445923  33.0960554  15.6853692
  69.1953348  32.9677618  14.9130686  67.8057399  33.3955443  15.3348585
  75.9840040  31.8467553  19.1874415  75.9658515  32.6676434  18.6954684
  76.9059960  31.7221628  19.4124556  72.4413094  29.3611682  20.0297923
  72.9741430  28.5999970  19.7997231  71.9127175  29.0685334  20.7722078
  75.2158106  23.1037985  17.7590767  75.5707493  23.3309458  18.6185232
  75.8630237  23.4356361  17.1368022  80.9725222  28.2932948  13.4751367
  81.4061729  28.2008237  14.3234421  81.6856803  28.2690448  12.8371383
  74.7053117  31.8935042  15.0084468  74.7590139  32.4625978  15.7762184
  73.8367898  32.0636927  14.6438505  81.8340772  28.3356648  16.0084253
  82.0276662  29.2402459  16.2543527  81.7341390  27.8764067  16.8422838
  76.8955880  28.4863391  21.5825133  76.7441387  28.2573943  20.6655217
  76.8860560  29.4433992  21.5956478  73.6641217  26.0595304  16.5671400
  74.5933277  26.2106463  16.3940367  73.2432247  26.1479325  15.7120046
  72.4629549  30.0845968  14.3369937  72.3240634  29.7164753  15.2095875
  71.6744145  30.5993608  14.1653895  78.6048087  31.5182514  19.6601615
  78.5460633  30.8341734  18.9932198  79.0067605  32.2601504  19.2082241
  67.6238786  38.3344427  12.4535334  67.8635384  38.9662952  13.1314352
  66.7807982  37.9832467  12.7400693  78.6065494  29.4822097  17.8915595
  77.7192273  29.1448019  18.0141994  79.1764045  28.7505129  18.1284360
  72.1366648  34.1423550  14.8576838  72.0636819  34.9478521  15.3696142
  71.6944041  34.3415516  14.0324859  74.5965331  34.0410384  17.0134997
  75.3093303  34.6757849  16.9410898  74.1055360  34.1374250  16.1974998
  69.6477245  31.7904827  17.8340567  70.3486704  32.4241310  17.9869962
  69.1772360  32.1319559  17.0736207  77.4478531  24.3449435  15.6593118
  76.7949981  24.5925342  15.0045570  77.8258911  23.5313573  15.3255595
  73.4966104  25.0869246  22.1459155  72.8206741  24.9863375  22.8161530
  74.3193738  24.9308460  22.6095152  72.2388887  36.3936173  16.3816771
  72.7907195  36.5567795  17.1465856  72.5795080  36.9840611  15.7096796
  77.0899761  31.2197431  22.2365425  77.6339665  31.8327389  21.7420380
  76.5086606  31.7777009  22.7532438  75.3757274  34.3418149  13.3680453
  75.2508413  33.5407889  12.8591398  76.0336365  34.8364342  12.8794423
  77.4392182  32.1427169  14.9960003  76.4922518  32.0232520  14.9238330
  77.7874955  31.2549667  15.0786264  78.0472737  32.7608444  12.2829228
  78.9719285  32.5551305  12.1453679  77.8788041  32.5124845  13.1918570
  72.3854698  33.9594655  18.3965425  72.6941824  33.7143802  19.2688125
  73.1830180  34.1641293  17.9084295  72.4075310  36.1132564  10.6270802
  71.9680300  35.6208943  11.3203658  73.1583427  35.5705532  10.3862877
  69.9273710  20.1352362  22.2925609  69.9761865  21.0114484  21.9103379
  70.4696224  19.5929755  21.7197253  80.4128555  30.6793485  21.5726746
  79.6224099  30.6617624  21.0331246  80.1761910  31.2181779  22.3275783
  80.5326430  27.5285951  18.8859475  80.5824435  27.3635959  19.8274998
  80.4240354  26.6613210  18.4957356  77.8230193  23.5116879  20.2018782
  78.7240056  23.3723344  19.9102780  77.8978167  23.6771334  21.1416959
  82.0344627  29.9482893  19.1301497  81.7429436  30.3112873  19.9664958
  81.4216759  29.2349901  18.9514829  83.2340310  27.5135773  11.6504067
  84.0687201  27.9525577  11.8141627  83.3699438  27.0374426  10.8312313
  80.2831815  25.0715507  17.5981555  80.7585937  25.2643154  16.7900406
  79.3597381  25.1274693  17.3524938  78.9833484  21.9481267  15.8309860
  79.9350907  22.0479365  15.8522084  78.8136935  21.1559536  16.3407945
  81.4621562  25.1687387  14.9452160  81.4297882  24.2303388  15.1311844
  82.0722186  25.2471424  14.2117985  87.2798112  26.2303394  14.0858197
  88.0101501  25.9688682  14.6465900  86.6705058  25.4932116  14.1260265
  85.3613409  24.3711257  14.6832648  84.6346573  24.2367222  14.0749139
  84.9460696  24.6788085  15.4889366  73.1843586  28.0901186  22.4480021
  74.1046595  28.2679785  22.6420067  73.1493169  27.1457232  22.2959720
  71.0533524  21.5735427  24.4805551  70.9530250  22.5229784  24.4117642
  70.8355066  21.2453666  23.6081621  70.9164794  25.0032566  23.2970613
  70.4331875  25.8032926  23.5034502  71.0025733  25.0140510  22.3438057
  67.4337513  27.4638216  17.9009844  68.2530402  27.9582295  17.9244681
  67.7074321  26.5470184  17.8727412  68.3557486  35.3326037  12.5627687
  68.2389870  36.2771469  12.4606377  67.5349932  35.0299598  12.9513486
  75.2125820  28.8657198  24.0994182  76.0816979  29.0397850  23.7380817
  74.7332571  29.6851614  23.9769911  69.3812000  35.9854299  15.7783615
  70.2839247  36.0177909  16.0950110  69.1549370  35.0554750  15.7929951
  71.1365602  34.7385285  12.4393694  70.1861233  34.7387147  12.3258066
  71.4398088  33.9918020  11.9229729  67.0269918  18.9443967  22.6977055
  67.8901380  18.5880772  22.9080380  66.4535329  18.6057862  23.3852460
  86.8718295  40.5745824  13.5039456  87.5096705  40.4552571  12.8002796
  86.7539138  41.5226668  13.5627408  83.6808002  40.5273252  13.4400981
  83.3426513  40.4114316  12.5521516  84.5497770  40.1264417  13.4201987
  79.5394817  42.3808728   9.4297872  78.9759682  42.2898665   8.6614160
  79.4247212  41.5608633   9.9100364  84.1627785  41.6808103  19.3987187
  84.1516425  41.2860902  18.5267690  84.3248424  40.9474176  19.9920958
  77.0859249  43.8759920  12.2682092  77.8780541  43.5350744  11.8528392
  77.3255899  43.9854895  13.1884246  85.1194376  46.0479696   4.7412337
  84.4682356  46.6333776   4.3546351  85.9138739  46.5785891   4.8007374
  79.0450003  43.1368833   5.1399471  79.8180879  42.5897820   5.0012347
  79.3975402  44.0013082   5.3513933  80.8835046  44.4645215  18.3466371
  80.5924912  45.3690846  18.2313037  81.5192030  44.5061743  19.0610440
  81.8091253  41.8422064  14.9367730  82.4054825  41.6178086  14.2224693
  81.8666224  41.1006809  15.5393178  86.4259564  38.2997277  10.5792664
  87.2122653  37.8816701  10.2283081  86.6898268  39.2043370  10.7474313
  86.5969641  43.7370128   5.2781321  85.9615474  43.8104754   5.9902226
  86.2667048  44.3263727   4.6000400  91.8267991  38.2372511  11.4825643
  92.5593163  37.6671727  11.7163472  91.0707347  37.8494111  11.9232148
  81.1012570  41.1989605   4.9742296  80.9848828  40.5234508   5.6423380
  81.2114830  40.7121979   4.1574449  83.4444111  40.6599752   8.6788985
  83.0802318  40.1330373   9.3901907  84.3011227  40.2698221   8.5055471
  89.3493411  31.9494085  15.9420251  89.0176736  32.8189496  15.7181466
  88.7539025  31.6330369  16.6214282  85.8424931  44.1506631  15.3416164
  85.5425654  45.0531670  15.2331971  85.4975990  43.8838814  16.1937317
  79.2937412  40.6020428  11.3752869  78.3687909  40.4696642  11.5830560
  79.5421826  41.3814647  11.8722811  89.2422075  36.6689171  13.0213602
  88.3338952  36.6004579  12.7272363  89.1909670  37.1461116  13.8495427
  76.6546223  40.2453701  12.2096658  76.7838605  40.4988180  13.1236069
  75.9743675  40.8381409  11.8901313  80.8245711  50.9150951   8.3087132
  80.7469740  51.8658776   8.3875612  80.2207354  50.5696824   8.9662058
  83.3162940  38.0878816  20.9648499  82.5396274  38.6472737  20.9551363
  83.9553503  38.5735599  21.4863369  91.1083721  34.8705609  14.7991475
  90.4658101  35.1638142  14.1531270  90.6038650  34.7558530  15.6044672
  88.7623885  38.6168782   5.4877335  89.6741741  38.8496169   5.3125032
  88.2533532  39.2005827   4.9252413  81.5709313  40.8964270  20.5266466
  82.3123997  41.4349314  20.2501289  80.8646298  41.5230559  20.6838018
  87.0464652  43.0393410  19.1238627  87.4548008  42.5975821  18.3793260
  86.3241914  42.4646038  19.3772820  83.3995722  37.9766017  16.4972184
  84.2456918  38.4005431  16.6406833  83.3394360  37.3199641  17.1910747
  87.3693467  43.5994601  12.8790916  86.7402329  43.7640315  12.1766984
  86.9819129  44.0136210  13.6501880  91.2482699  44.5349039  10.2335280
  90.5633737  44.9147940   9.6832313  91.3326548  45.1444365  10.9667228
  86.5495168  35.6370385  18.1553358  86.3056100  36.3912446  17.6187634
  86.8255098  36.0155733  18.9900605  88.5033631  42.1808998  16.8330623
  88.7150526  42.8240758  16.1565005  88.4563379  41.3471314  16.3652554
  86.1059859  34.7926818  13.7367196  85.2444339  35.0908072  14.0283933
  86.1322294  35.0097217  12.8048228  82.9221429  43.3369009  10.1441001
  83.3859774  43.6156712   9.3545624  82.6578227  42.4352454   9.9614092
  79.8145510  42.8840491  13.0820765  80.3846867  43.3127759  12.4438249
  80.4053622  42.6023075  13.7804950  81.8590315  39.4592161   6.9530566
  82.5614358  39.9113205   7.4204493  81.5270943  38.8175980   7.5810460
  80.3070676  38.0503918  21.3281776  79.6769337  38.7320199  21.5617173
  80.2006764  37.9387000  20.3834914  75.6015649  37.7175714  12.2547700
  74.8114703  37.9733243  11.7787811  76.0926896  38.5324052  12.3599741
  89.6179458  45.0580953  15.0052981  90.4396902  44.6561140  14.7235662
  89.6141861  44.9549187  15.9569097  77.5530394  38.0820293   9.2131177
  76.7561558  38.1938988   9.7314672  77.3255986  38.4206946   8.3472067
  83.3836062  44.6064997  17.1613691  83.4480494  45.0685404  17.9971863
  82.6746986  43.9762361  17.2896001  73.8853352  37.9706204  14.6862691
  74.1361390  38.8553214  14.9520267  74.4212900  37.7910806  13.9137783
  97.7085452  41.4019702  11.3537952  96.9549160  40.8327100  11.1981957
  97.8432993  41.3682366  12.3008587  83.0984080  46.2733104   7.0292672
  82.9629754  47.1184640   7.4577519  83.6393892  46.4752382   6.2658605
  79.5851419  32.3524684  23.6907027  79.1918365  31.7990882  24.3654671
  80.4017560  32.6635262  24.0813544  76.5513477  43.7908542   7.6020597
  77.0637998  44.5851792   7.7526161  77.2036190  43.0934832   7.5354198
  78.3608362  46.9074298   9.6843350  78.5374990  47.8292263   9.4964334
  79.1565195  46.5932718  10.1137730  82.5019380  33.7682563  21.2827283
  83.2429094  34.3689716  21.2031746  82.7337303  33.0260201  20.7245326
  77.6460718  38.9538930  19.5605513  77.5314233  38.0524187  19.8612612
  76.7905236  39.2002627  19.2090330  84.7252556  46.8956671  21.1593014
  84.2816410  46.1093049  20.8413918  85.3869770  47.0835821  20.4936905
  79.4839677  48.4252472  15.6853692  80.0347102  48.2969535  14.9130686
  78.6451153  48.7247361  15.3348585  86.8233794  47.1759470  19.1874415
  86.8052269  47.9968351  18.6954684  87.7453714  47.0513546  19.4124556
  83.2806848  44.6903600  20.0297923  83.8135185  43.9291888  19.7997231
  82.7520929  44.3977252  20.7722078  86.4476543  29.7963666  15.5591565
  86.1040813  30.6865308  15.4830676  86.8155506  29.6065324  14.6961150
  74.5162394  42.1197196   8.3780167  75.3537616  42.5294205   8.1613875
  74.6940661  41.1796639   8.3480361  86.4126826  39.7872277   4.0664000
  85.8973449  40.5576882   4.3052388  86.1404134  39.1137413   4.6897062
  83.9973937  34.6321978   9.1249239  83.1415533  34.2428828   8.9454877
  84.4100889  34.7113939   8.2649024  85.5273084  32.1668321  13.5240798
  85.0237879  32.1298456  12.7108604  85.8203690  33.0761064  13.5837455
  81.7715969  32.2507051  12.5306980  82.6368966  32.0549859  12.1712870
  81.8393478  32.0217403  13.4576337  91.3861100  42.5404632   6.0017174
  90.6090543  42.2015791   5.5572336  92.0652581  42.5457255   5.3272139
  86.2013129  37.6599369   5.8923781  85.8963265  37.9745518   6.7433925
  87.1543571  37.7380789   5.9351114  84.6459561  43.8189592   7.5416735
  84.1180922  43.0842352   7.2289973  84.1447064  44.5964269   7.2956704
  89.6252407  42.0138613  12.6583782  88.9676081  42.7037874  12.7463910
  90.4292806  42.4035045  13.0017768  79.3778288  34.4809259   9.9023347
  79.9522040  34.2584440   9.1696540  79.9649271  34.5497953  10.6551948
  88.4357866  40.3682986  10.7087723  88.9489747  41.0012977  11.2109433
  89.0859090  39.7684181  10.3431083  85.6980240  50.3467310   3.4648395
  85.0241939  50.6499007   4.0733352  86.0846062  51.1496390   3.1153852
  84.9138697  37.8432441  12.9546064  83.9961258  38.0647388  12.7967752
  85.3298840  37.9178752  12.0957771  85.6973744  39.2423857   8.0848744
  86.4445563  39.7545254   7.7755866  85.9665334  38.9207910   8.9453138
  83.9700395  41.7382398   5.0675698  83.0611614  41.4541430   5.1648168
  83.9995478  42.1581476   4.2079005  89.2019662  45.3488987   8.8366866
  88.7481989  44.5079897   8.8932057  88.5713629  45.9850385   9.1741646
  88.1452581  36.2780973  10.0667534  87.4075338  35.7658359  10.3977776
  88.3979355  35.8381355   9.2550810  87.6452601  47.1865484   9.7716684
  87.9375576  47.7470541   9.0529050  88.1551222  47.4794045  10.5269843
  88.2464209  29.0557225  10.6609303  88.5523086  28.1954588  10.3735218
  88.9716814  29.6474845  10.4608297  74.5388565  39.4587912   9.0490901
  74.3412965  38.8657272   8.3241967  73.9835229  39.1540122   9.7666839
  82.5185289  39.3511018  11.1685494  82.5733898  38.3984855  11.0927970
  81.7076491  39.5070457  11.6526792  83.6676482  43.2791141   2.4063777
  83.2295912  42.5627000   1.9469414  84.4086923  43.5067256   1.8448868
  80.4577648  37.9688078   8.9275873  79.6445514  38.2682248   9.3341065
  80.9536643  37.5743767   9.6450355  82.6086226  47.9645835  10.8610137
  82.5662405  48.1906681   9.9318669  83.5248925  47.7309209  11.0095939
  86.0551860  38.4329902  17.7590767  86.4101248  38.6601375  18.6185232
  86.7023991  38.7648279  17.1368022  91.7849597  41.5548338   8.4640096
  91.6467496  41.7449934   7.5361285  91.4285816  42.3167721   8.9208147
  79.9491723  35.5406433  14.5437108  80.5891103  35.3995193  13.8460071
  79.1169254  35.2540947  14.1675710  91.8118977  43.6224865  13.4751367
  92.2455483  43.5300154  14.3234421  92.5250557  43.5982366  12.8371383
  80.7252027  44.8408864  10.6572100  81.5192626  44.3459184  10.4554675
  80.0143720  44.3126727  10.2939806  85.5446872  47.2226959  15.0084468
  85.5983894  47.7917896  15.7762184  84.6761653  47.3928844  14.6438505
  76.9520340  35.5106758   9.3210094  77.2127157  36.4252092   9.2119255
  77.7737512  35.0431201   9.4706707  78.4245265  36.9244516  16.4908919
  79.0968318  36.7161878  15.8421568  77.5975052  36.7266602  16.0514151
  92.6734526  43.6648566  16.0084253  92.8670416  44.5694376  16.2543527
  92.5735144  43.2055985  16.8422838  84.3270837  33.5506456  18.5074580
  83.6798752  34.2496406  18.4139056  85.0971852  33.9842600  18.8750828
  87.7349635  43.8155309  21.5825133  87.5835141  43.5865860  20.6655217
  87.7254314  44.7725910  21.5956478  84.5034971  41.3887221  16.5671400
  85.4327031  41.5398381  16.3940367  84.0826001  41.4771242  15.7120046
  83.3023303  45.4137886  14.3369937  83.1634389  45.0456670  15.2095875
  82.5137899  45.9285525  14.1653895  83.8971455  50.5146982   5.6795474
  84.0723211  50.0435025   6.4941096  83.2104243  51.1412748   5.9076734
  84.8528518  44.7919489  11.7258775  84.5178351  44.7520258  12.6216425
  84.3532464  44.1264204  11.2529185  78.8272762  40.1987119  17.2511356
  78.6892560  39.4667357  17.8522895  79.7377686  40.1096019  16.9695544
  87.7887710  42.1375523   1.9995835  87.1716881  41.4122351   1.9028887
  87.3204198  42.8984883   1.6562909  81.4555063  39.9107078  16.7395036
  82.1654681  39.2700270  16.6981654  81.4124371  40.1619973  17.6621217
  89.4441842  46.8474431  19.6601615  89.3854388  46.1633651  18.9932198
  89.8461360  47.5893421  19.2082241  80.1683997  36.8972296  18.5590675
  79.6321354  36.4463034  19.2112272  79.5800705  37.0318205  17.8161140
  78.4632540  53.6636345  12.4535334  78.7029139  54.2954869  13.1314352
  77.6201737  53.3124385  12.7400693  89.4459249  44.8114015  17.8915595
  88.5586028  44.4739937  18.0141994  90.0157800  44.0797046  18.1284360
  71.0988396  41.1438107  11.2158646  71.7859436  40.8299837  10.6279661
  70.9436525  42.0479472  10.9425898  75.9023118  36.0328303  15.6443670
  75.8181307  35.4253973  14.9094080  75.0805825  36.5237322  15.6453166
  82.9760402  49.4715467  14.8576838  82.9030574  50.2770439  15.3696142
  82.5337795  49.6707433  14.0324859  82.7650182  48.7087238   8.3679659
  81.9817704  49.2508918   8.4617884  83.4642927  49.2261217   8.7673901
  86.0746832  34.5181867  11.0113865  86.5715532  33.7651829  10.6914935
  85.3033813  34.5546184  10.4457074  93.9276589  40.2222233  12.6532156
  93.9166466  41.1046948  12.2826089  93.0593969  39.8693783  12.4586693
  85.4359086  49.3702302  17.0134997  86.1487058  50.0049766  16.9410898
  84.9449114  49.4666168  16.1974998  87.1576613  43.2753554   8.5852288
  86.2232891  43.3955017   8.4156993  87.3353281  42.3726021   8.3212298
  82.6581801  36.6599250  10.7385549  82.2879588  36.1070290  11.4266455
  83.1540893  36.0557383  10.1860549  90.5449164  39.1170873   9.1202322
  91.0109616  39.9498865   9.0462625  90.9956665  38.6515855   9.8247581
  80.4870999  47.1196745  17.8340567  81.1880459  47.7533228  17.9869962
  80.0166114  47.4611477  17.0736207  88.6125395  45.4614695   6.1188474
  88.8885239  45.3471289   7.0282348  87.7429894  45.0632180   6.0800647
  88.5165827  31.4851460  13.1593224  87.6028907  31.7155687  13.3275431
  88.9458928  31.5689905  14.0107256  88.2872285  39.6741352  15.6593118
  87.6343735  39.9217260  15.0045570  88.6652665  38.8605491  15.3255595
  85.2479459  49.7101046   9.7621288  85.4301854  48.8922702  10.2249040
  86.0712445  49.9268738   9.3246178  85.5821625  48.6369231   7.0236337
  86.1109391  48.1261685   6.4106499  85.8449844  48.3211761   7.8881870
  84.3359858  40.4161163  22.1459155  83.6600495  40.3155293  22.8161530
  85.1587492  40.2600377  22.6095152  76.0838717  46.6533100  14.7671670
  76.6692154  45.9076788  14.8999574  75.8863556  46.9637057  15.6508334
  78.9377373  49.6884347   9.7834112  78.2687748  50.1730475   9.2998152
  78.7990242  49.9353568  10.6977491  70.6756372  39.2238700  13.4876113
  70.7140472  38.6902291  14.2813231  70.1696665  38.6973906  12.8687090
  83.0782641  51.7228091  16.3816771  83.6300949  51.8859712  17.1465856
  83.4188835  52.3132529  15.7096796  78.0547134  34.0703241  16.9838656
  78.1188461  34.9318072  16.5716053  77.9914255  33.4577242  16.2511014
  77.5299407  36.1426373  20.6311690  78.1571446  35.7603451  21.2449214
  76.6727326  35.9240575  20.9967382  87.9293515  46.5489348  22.2365425
  88.4733419  47.1619307  21.7420380  87.3480360  47.1068927  22.7532438
  86.2151028  49.6710066  13.3680453  86.0902168  48.8699806  12.8591398
  86.8730120  50.1656260  12.8794423  77.8359197  36.0258799  12.5457593
  77.1145782  36.6394767  12.4065066  78.6252452  36.5616564  12.4674239
  88.2785937  47.4719087  14.9960003  87.3316272  47.3524438  14.9238330
  88.6268710  46.5841585  15.0786264  80.6385510  33.3613225  18.8198245
  81.1619912  33.6075522  19.5824554  80.4197843  34.1933260  18.4001382
  85.2832370  47.2671803  11.1964355  85.1357333  46.3388510  11.3771925
  86.1085864  47.2891893  10.7121431  88.8866492  48.0900361  12.2829228
  89.8113039  47.8843223  12.1453679  88.7181795  47.8416763  13.1918570
  81.8438055  34.3026921  16.5047915  81.5034876  33.5034734  16.9068595
  81.1377062  34.6028631  15.9324749  82.4954527  31.3876233  14.9575238
  83.3180596  30.9136711  14.8354129  82.7392591  32.1666717  15.4573925
  80.0193106  38.0795354  12.7667217  79.8737687  38.3935657  13.6591499
  79.5418309  38.6980254  12.2138116  81.8789489  35.0697902  12.8148107
  81.8651057  34.1738995  12.4780405  82.5961917  35.0768565  13.4486393
  83.7315619  35.5035242  14.8601234  83.4733397  36.4252312  14.8585565
  83.2000660  35.1065676  15.5501698  88.6761808  48.6086029   7.6391319
  88.8498686  48.0432451   6.8865172  89.1690699  49.4086924   7.4570809
  74.4938768  40.6200698  15.7054878  73.9492236  41.3960506  15.8375153
  75.3718118  40.9671503  15.5474000  84.1517575  31.6367192  11.2202397
  84.1739272  31.7006525  10.2654376  84.5685634  30.7971701  11.4142903
  94.5301199  41.3722452   9.2581619  94.9732345  40.6229777   8.8600742
  93.6527710  41.3632588   8.8755351  89.6636981  47.9252793   4.7388218
  90.3587885  48.5459486   4.9575532  90.0060131  47.0748145   5.0140596
  75.2804790  39.7470594  18.5985035  74.5386526  39.8953230  19.1849666
  74.9597534  40.0078860  17.7351785  91.5628404  45.3752499   6.2675549
  92.0879728  45.7139772   5.5424869  91.4750756  44.4399514   6.0838683
  83.2248452  49.2886573  18.3965425  83.5335579  49.0435719  19.2688125
  84.0223935  49.4933211  17.9084295  83.2469065  51.4424482  10.6270802
  82.8074055  50.9500861  11.3203658  83.9977181  50.8997450  10.3862877
  75.7261404  47.6336023  10.6295430  76.5519423  47.3339795  10.2494073
  75.3755456  46.8643645  11.0785218  80.6942937  46.9862491  12.6993103
  80.0722946  46.3233196  12.3995331  81.3647804  47.0123623  12.0166751
  73.9270009  45.5522349  11.5884363  73.0901917  45.1244524  11.4068365
  73.8993654  45.7454793  12.5255155  80.7667464  35.4644279  22.2925609
  80.8155620  36.3406402  21.9103379  81.3089978  34.9221672  21.7197253
  91.2522310  46.0085403  21.5726746  90.4617854  45.9909541  21.0331246
  91.0155664  46.5473696  22.3275783  91.3720185  42.8577869  18.8859475
  91.4218190  42.6927876  19.8274998  91.2634108  41.9905128  18.4957356
  80.2556444  45.5366415   6.1751564  80.4044564  46.2201879   5.5218237
  81.0622887  45.5171505   6.6901020  88.6623947  38.8408797  20.2018782
  89.5633810  38.7015262  19.9102780  88.7371922  39.0063252  21.1416959
  82.9966753  36.2175652  19.0471968  82.1270062  36.5109218  18.7754557
  83.2326233  36.8016097  19.7679232  92.8738382  45.2774810  19.1301497
  92.5823190  45.6404791  19.9664958  92.2610513  44.5641819  18.9514829
  94.0734064  42.8427690  11.6504067  94.9080955  43.2817494  11.8141627
  94.2093193  42.3666343  10.8312313  91.1225570  40.4007425  17.5981555
  91.5979692  40.5935071  16.7900406  90.1991135  40.4566611  17.3524938
  78.0109077  41.5631592   7.1812633  77.7655119  40.6593922   7.3792843
  78.1804991  41.5648743   6.2392111  85.7005786  32.4355269  16.5637388
  86.2187730  33.1716296  16.2383877  85.3460919  32.7419262  17.3984148
  85.9518381  28.8555551  12.0838285  86.2320134  28.1878740  12.7098712
  86.7368988  29.0484647  11.5712949  83.7551849  48.0314545   3.6463311
  83.1825816  48.6504732   3.1933783  84.3284643  48.5813907   4.1803233
  89.8227239  37.2773185  15.8309860  90.7744662  37.3771283  15.8522084
  89.6530689  36.4851454  16.3407945  87.8441618  34.3628768  16.0169261
  87.2491551  34.6433781  15.3215750  87.5591315  34.8522669  16.7886002
  86.9749109  48.3151695   4.7771894  87.9079782  48.2497257   4.9804769
  86.8872322  49.1507962   4.3186426  89.6037126  47.6317566   1.7375841
  89.5250757  47.2977429   2.6311599  90.4246792  48.1239333   1.7367314
  92.3015317  40.4979305  14.9452160  92.2691637  39.5595306  15.1311844
  92.9115940  40.5763342  14.2117985  92.4509805  37.2890348  14.9910443
  91.9348854  36.5048805  14.8040372  93.3349754  36.9609065  15.1556962
  90.1120532  31.0331364  10.9506256  89.9145353  30.7246452  11.8349588
  90.7220238  31.7593003  11.0804186  98.1191867  41.5595312  14.0858197
  98.8495255  41.2980600  14.6465900  97.5098812  40.8224034  14.1260265
  96.2007164  39.7003174  14.6832648  95.4740327  39.5659139  14.0749139
  95.7854451  40.0080003  15.4889366  84.0237340  43.4193104  22.4480021
  84.9440350  43.5971703  22.6420067  83.9886923  42.4749149  22.2959720
  73.2419505  38.6131698  11.3733295  72.9222289  37.7597006  11.0807669
  72.6952933  38.8280276  12.1291263  77.0199413  41.3294139  15.0902802
  77.2385422  42.2611246  15.1090836  77.4325187  40.9702113  15.8757606
  85.8694179  30.9140271   8.7002787  86.4225217  31.3335724   9.3592810
  86.1064265  29.9876019   8.7425743  81.8927278  36.9027344  24.4805551
  81.7924005  37.8521701  24.4117642  81.6748820  36.5745583  23.6081621
  73.1107765  42.2334609  13.3426417  72.4171237  41.8188562  12.8296371
  73.8580756  42.2755146  12.7459836  89.2472986  33.0240796   8.2081451
  88.6671655  33.6825600   7.8259504  88.9808919  32.2018140   7.7968869
  87.6976552  32.4245854  10.4102772  88.1976331  32.5362388   9.6017090
  88.3412160  32.1206906  11.0503580  81.7558548  40.3324483  23.2970613
  81.2725630  41.1324843  23.5034502  81.8419487  40.3432428  22.3438057
  75.0244508  42.1652863  11.2192432  75.0015196  42.2640550  10.2674315
  75.3345144  43.0118014  11.5409598  77.6831886  44.2229018  15.3339046
  78.6375139  44.1912960  15.2668978  77.4844409  43.7619642  16.1489272
  78.2731268  42.7930134  17.9009844  79.0924157  43.2874213  17.9244681
  78.5468075  41.8762102  17.8727412  88.0297864  35.1840886   7.2637800
  87.1423719  35.4690537   7.0457994  88.4451853  35.0234650   6.4165076
  91.3812400  35.2087407  10.9792139  92.1572790  35.6983860  11.2516756
  90.6560534  35.6345461  11.4364008  93.8184959  35.9215026  12.0366079
  94.4129449  35.6810762  11.3259388  93.8911542  35.2022157  12.6639616
  76.0382114  49.7648637  12.3509244  75.9036582  49.0049038  11.7847242
  75.6214177  50.4889537  11.8838033  87.1741077  44.9485561   1.3585820
  87.8776927  45.1535563   1.9743475  86.4503726  45.5162323   1.6234903
  88.0038888  40.6995422   7.4788090  87.9474089  41.1563974   6.6395722
  88.5567230  39.9386107   7.3010932  91.8143694  36.4885154   8.3038209
  91.5580628  36.0881790   9.1346417  91.1896562  37.2028948   8.1788348
  96.1256031  39.2281227  10.8109501  95.5655589  39.2974417  11.5841063
  95.5199535  39.0522212  10.0908997  79.1951240  50.6617954  12.5627687
  79.0783624  51.6063387  12.4606377  78.3743686  50.3591516  12.9513486
  89.0827775  45.3868090   3.4084280  89.9173379  44.9549289   3.2261754
  88.9212118  45.2150104   4.3361174  88.7373667  41.8900203   4.7740619
  88.6822471  41.7244475   3.8329063  88.1119722  42.5976236   4.9302809
  73.5266182  37.1268268  18.6002041  74.1725046  36.6167222  19.0889266
  73.3183333  37.8636949  19.1745466  86.0519574  44.1949115  24.0994182
  86.9210734  44.3689768  23.7380817  85.5726326  45.0143532  23.9769911
  80.2205754  51.3146216  15.7783615  81.1233001  51.3469827  16.0950110
  79.9943124  50.3846667  15.7929951  81.9759356  50.0677203  12.4393694
  81.0254987  50.0679064  12.3258066  82.2791843  49.3209937  11.9229729
  77.8663673  34.2735885  22.6977055  78.7295134  33.9172690  22.9080380
  77.2929084  33.9349780  23.3852460  97.7112050  55.9037741  13.5039456
  98.3490460  55.7844489  12.8002796  97.5932893  56.8518585  13.5627408
  94.5201756  55.8565169  13.4400981  94.1820268  55.7406234  12.5521516
  95.3891524  55.4556334  13.4201987  90.3788572  57.7100646   9.4297872
  89.8153437  57.6190583   8.6614160  90.2640967  56.8900550   9.9100364
  95.0021539  57.0100021  19.3987187  94.9910180  56.6152819  18.5267690
  95.1642179  56.2766094  19.9920958  87.9253004  59.2051837  12.2682092
  88.7174296  58.8642662  11.8528392  88.1649654  59.3146812  13.1884246
  95.9588131  61.3771613   4.7412337  95.3076110  61.9625694   4.3546351
  96.7532493  61.9077808   4.8007374  89.8843758  58.4660751   5.1399471
  90.6574634  57.9189738   5.0012347  90.2369157  59.3305000   5.3513933
  91.7228800  59.7937133  18.3466371  91.4318666  60.6982764  18.2313037
  92.3585785  59.8353660  19.0610440  92.6485007  57.1713981  14.9367730
  93.2448579  56.9470004  14.2224693  92.7059979  56.4298727  15.5393178
  92.2210036  54.6253417   2.7717921  92.4735556  54.1034938   2.0101384
  91.2834595  54.4619562   2.8744605  97.2653318  53.6289195  10.5792664
  98.0516408  53.2108618  10.2283081  97.5292023  54.5335287  10.7474313
  97.4363396  59.0662045   5.2781321  96.8009229  59.1396672   5.9902226
  97.1060802  59.6555644   4.6000400 102.6661745  53.5664428  11.4825643
 103.3986917  52.9963645  11.7163472 101.9101101  53.1786029  11.9232148
  91.9406324  56.5281523   4.9742296  91.8242582  55.8526426   5.6423380
  92.0508584  56.0413897   4.1574449  94.2837865  55.9891670   8.6788985
  93.9196072  55.4622291   9.3901907  95.1404981  55.5990139   8.5055471
 100.1887166  47.2786002  15.9420251  99.8570491  48.1481413  15.7181466
  99.5932779  46.9622286  16.6214282  93.9243352  51.0181569   3.6750334
  94.0917755  51.8861806   4.0420805  93.7340521  51.1808851   2.7511623
  96.6818685  59.4798548  15.3416164  96.3819408  60.3823587  15.2331971
  96.3369745  59.2130732  16.1937317  90.1331167  55.9312345  11.3752869
  89.2081663  55.7988559  11.5830560  90.3815580  56.7106564  11.8722811
 100.0815829  51.9981089  13.0213602  99.1732706  51.9296497  12.7272363
 100.0303425  52.4753033  13.8495427  93.9032573  53.4739227   4.6597001
  93.7832198  53.9196278   5.4982481  93.2085161  53.8224545   4.1010539
  87.4939978  55.5745619  12.2096658  87.6232359  55.8280098  13.1236069
  86.8137429  56.1673327  11.8901313  91.6639465  66.2442869   8.3087132
  91.5863495  67.1950694   8.3875612  91.0601109  65.8988741   8.9662058
  94.1556695  53.4170734  20.9648499  93.3790029  53.9764654  20.9551363
  94.7947258  53.9027517  21.4863369 101.9477476  50.1997527  14.7991475
 101.3051856  50.4930060  14.1531270 101.4432404  50.0850447  15.6044672
  99.6017639  53.9460700   5.4877335 100.5135495  54.1788087   5.3125032
  99.0927286  54.5297744   4.9252413  92.4103067  56.2256188  20.5266466
  93.1517752  56.7641231  20.2501289  91.7040053  56.8522476  20.6838018
  97.8858407  58.3685328  19.1238627  98.2941763  57.9267738  18.3793260
  97.1635668  57.7937955  19.3772820  94.2389477  53.3057935  16.4972184
  95.0850672  53.7297348  16.6406833  94.1788115  52.6491559  17.1910747
  98.2087222  58.9286519  12.8790916  97.5796084  59.0932233  12.1766984
  97.8212884  59.3428128  13.6501880 102.0876453  59.8640956  10.2335280
 101.4027492  60.2439858   9.6832313 102.1720303  60.4736283  10.9667228
  97.3888922  50.9662303  18.1553358  97.1449854  51.7204364  17.6187634
  97.6648853  51.3447651  18.9900605  99.3427385  57.5100915  16.8330623
  99.5544280  58.1532675  16.1565005  99.2957133  56.6763232  16.3652554
  96.9453614  50.1218736  13.7367196  96.0838093  50.4199990  14.0283933
  96.9716049  50.3389135  12.8048228  93.7615183  58.6660927  10.1441001
  94.2253529  58.9448630   9.3545624  93.4971981  57.7644371   9.9614092
  90.6539264  58.2132408  13.0820765  91.2240622  58.6419677  12.4438249
  91.2447376  57.9314993  13.7804950  92.6984069  54.7884079   6.9530566
  93.4008113  55.2405123   7.4204493  92.3664698  54.1467898   7.5810460
  91.1464431  53.3795836  21.3281776  90.5163092  54.0612117  21.5617173
  91.0400519  53.2678917  20.3834914  86.4409403  53.0467632  12.2547700
  85.6508457  53.3025160  11.7787811  86.9320651  53.8615970  12.3599741
 100.4573213  60.3872871  15.0052981 101.2790657  59.9853058  14.7235662
 100.4535616  60.2841105  15.9569097  88.3924149  53.4112211   9.2131177
  87.5955312  53.5230905   9.7314672  88.1649741  53.7498863   8.3472067
  94.2229816  59.9356914  17.1613691  94.2874249  60.3977321  17.9971863
  93.5140740  59.3054279  17.2896001  84.7247106  53.2998122  14.6862691
  84.9755145  54.1845132  14.9520267  85.2606655  53.1202724  13.9137783
 108.5479206  56.7311619  11.3537952 107.7942914  56.1619017  11.1981957
 108.6826747  56.6974284  12.3008587  93.9377834  61.6025022   7.0292672
  93.8023509  62.4476557   7.4577519  94.4787647  61.8044299   6.2658605
  90.4245174  47.6816602  23.6907027  90.0312119  47.1282800  24.3654671
  91.2411314  47.9927180  24.0813544  87.3907231  59.1200460   7.6020597
  87.9031752  59.9143710   7.7526161  88.0429944  58.4226750   7.5354198
  89.2002116  62.2366216   9.6843350  89.3768744  63.1584181   9.4964334
  89.9958950  61.9224635  10.1137730  93.3413135  49.0974481  21.2827283
  94.0822848  49.6981634  21.2031746  93.5731058  48.3552118  20.7245326
  88.4854473  54.2830848  19.5605513  88.3707988  53.3816105  19.8612612
  87.6298990  54.5294545  19.2090330  95.5646310  62.2248588  21.1593014
  95.1210165  61.4384967  20.8413918  96.2263524  62.4127739  20.4936905
  90.3233432  63.7544390  15.6853692  90.8740857  63.6261453  14.9130686
  89.4844908  64.0539279  15.3348585  97.6627549  62.5051388  19.1874415
  97.6446024  63.3260269  18.6954684  98.5847469  62.3805463  19.4124556
  94.1200603  60.0195518  20.0297923  94.6528939  59.2583806  19.7997231
  93.5914684  59.7269169  20.7722078  97.2870298  45.1255584  15.5591565
  96.9434567  46.0157225  15.4830676  97.6549260  44.9357241  14.6961150
  85.3556148  57.4489114   8.3780167  86.1931370  57.8586122   8.1613875
  85.5334416  56.5088556   8.3480361  97.2520580  55.1164195   4.0664000
  96.7367204  55.8868799   4.3052388  96.9797889  54.4429331   4.6897062
  94.8367691  49.9613895   9.1249239  93.9809288  49.5720746   8.9454877
  95.2494643  50.0405856   8.2649024  96.3666838  47.4960239  13.5240798
  95.8631634  47.4590374  12.7108604  96.6597445  48.4052981  13.5837455
  92.6109724  47.5798968  12.5306980  93.4762721  47.3841777  12.1712870
  92.6787233  47.3509320  13.4576337 102.2254854  57.8696549   6.0017174
 101.4484297  57.5307709   5.5572336 102.9046335  57.8749172   5.3272139
  97.0406884  52.9891287   5.8923781  96.7357019  53.3037436   6.7433925
  97.9937326  53.0672707   5.9351114  95.4853315  59.1481510   7.5416735
  94.9574677  58.4134270   7.2289973  94.9840818  59.9256186   7.2956704
 100.4646161  57.3430531  12.6583782  99.8069836  58.0329792  12.7463910
 101.2686561  57.7326963  13.0017768  90.2172043  49.8101176   9.9023347
  90.7915795  49.5876358   9.1696540  90.8043025  49.8789871  10.6551948
  99.2751620  55.6974903  10.7087723  99.7883502  56.3304895  11.2109433
  99.9252844  55.0976099  10.3431083  90.5441630  51.8405637   3.9219232
  89.7078942  52.1780324   4.2428507  90.4046400  51.7054617   2.9846369
  92.5194711  46.6842425   8.6298416  91.8659123  46.3691442   8.0055031
  92.4775185  46.0618166   9.3558239  93.6305916  56.9661720   0.5451708
  92.7232977  56.7350974   0.7442857  94.1276948  56.1699340   0.7325690
  96.5373994  65.6759228   3.4648395  95.8635693  65.9790924   4.0733352
  96.9239816  66.4788308   3.1153852  95.7532451  53.1724359  12.9546064
  94.8355012  53.3939306  12.7967752  96.1692595  53.2470669  12.0957771
  96.5367499  54.5715774   8.0848744  97.2839318  55.0837172   7.7755866
  96.8059088  54.2499827   8.9453138  94.8094149  57.0674315   5.0675698
  93.9005368  56.7833348   5.1648168  94.8389233  57.4873394   4.2079005
 100.0413416  60.6780905   8.8366866  99.5875744  59.8371815   8.8932057
  99.4107383  61.3142303   9.1741646  98.9846336  51.6072891  10.0667534
  98.2469093  51.0950277  10.3977776  99.2373110  51.1673272   9.2550810
  98.4846356  62.5157401   9.7716684  98.7769330  63.0762459   9.0529050
  98.9944976  62.8085962  10.5269843  99.0857963  44.3849143  10.6609303
  99.3916840  43.5246506  10.3735218  99.8110568  44.9766763  10.4608297
  85.3782319  54.7879829   9.0490901  85.1806719  54.1949190   8.3241967
  84.8228983  54.4832040   9.7666839  93.3579043  54.6802936  11.1685494
  93.4127653  53.7276772  11.0927970  92.5470245  54.8362375  11.6526792
  94.5070237  58.6083059   2.4063777  94.0689667  57.8918918   1.9469414
  95.2480678  58.8359174   1.8448868  91.2971403  53.2979996   8.9275873
  90.4839268  53.5974166   9.3341065  91.7930397  52.9035684   9.6450355
  93.4479981  63.2937752  10.8610137  93.4056160  63.5198599   9.9318669
  94.3642680  63.0601127  11.0095939  96.8945615  53.7621820  17.7590767
  97.2495002  53.9893293  18.6185232  97.5417746  54.0940197  17.1368022
 102.6243352  56.8840256   8.4640096 102.4861250  57.0741852   7.5361285
 102.2679570  57.6459639   8.9208147  90.7885478  50.8698351  14.5437108
  91.4284857  50.7287110  13.8460071  89.9563008  50.5832864  14.1675710
 102.6512731  58.9516783  13.4751367 103.0849238  58.8592072  14.3234421
 103.3644312  58.9274283  12.8371383  91.5645782  60.1700781  10.6572100
  92.3586380  59.6751102  10.4554675  90.8537474  59.6418645  10.2939806
  96.3840626  62.5518877  15.0084468  96.4377648  63.1209813  15.7762184
  95.5155407  62.7220762  14.6438505  87.8728545  54.3143863   6.7331853
  86.9426133  54.2528319   6.9501815  87.9686017  53.7919816   5.9368494
  87.7914094  50.8398676   9.3210094  88.0520911  51.7544009   9.2119255
  88.6131266  50.3723119   9.4706707  89.2639019  52.2536433  16.4908919
  89.9362073  52.0453795  15.8421568  88.4368806  52.0558519  16.0514151
 103.5128281  58.9940484  16.0084253 103.7064171  59.8986294  16.2543527
 103.4128899  58.5347903  16.8422838  95.1664591  48.8798374  18.5074580
  94.5192507  49.5788324  18.4139056  95.9365607  49.3134518  18.8750828
  98.5743389  59.1447226  21.5825133  98.4228896  58.9157778  20.6655217
  98.5648069  60.1017828  21.5956478  95.3428726  56.7179139  16.5671400
  96.2720786  56.8690299  16.3940367  94.9219756  56.8063160  15.7120046
  94.1417058  60.7429803  14.3369937  94.0028143  60.3748588  15.2095875
  93.3531654  61.2577443  14.1653895  94.7365210  65.8438900   5.6795474
  94.9116965  65.3726943   6.4941096  94.0497998  66.4704666   5.9076734
  95.6922273  60.1211406  11.7258775  95.3572105  60.0812176  12.6216425
  95.1926218  59.4556122  11.2529185  89.6666517  55.5279036  17.2511356
  89.5286315  54.7959275  17.8522895  90.5771440  55.4387936  16.9695544
  98.6281464  57.4667441   1.9995835  98.0110635  56.7414269   1.9028887
  98.1597953  58.2276801   1.6562909  92.2948817  55.2398996  16.7395036
  93.0048436  54.5992188  16.6981654  92.2518126  55.4911890  17.6621217
 100.2835596  62.1766349  19.6601615 100.2248142  61.4925569  18.9932198
 100.6855114  62.9185339  19.2082241  91.0077751  52.2264213  18.5590675
  90.4715108  51.7754952  19.2112272  90.4194460  52.3610122  17.8161140
  89.3026295  68.9928263  12.4535334  89.5422893  69.6246787  13.1314352
  88.4595491  68.6416303  12.7400693  90.4180010  51.6852865   1.1217139
  89.5409477  51.5641666   0.7579386  90.8937763  50.8938943   0.8696028
 100.2853003  60.1405933  17.8915595  99.3979782  59.8031855  18.0141994
 100.8551554  59.4088964  18.1284360  81.9382150  56.4730025  11.2158646
  82.6253190  56.1591755  10.6279661  81.7830279  57.3771389  10.9425898
  86.7416873  51.3620221  15.6443670  86.6575061  50.7545891  14.9094080
  85.9199579  51.8529239  15.6453166  93.8154157  64.8007385  14.8576838
  93.7424328  65.6062357  15.3696142  93.3731550  64.9999351  14.0324859
  93.6043936  64.0379155   8.3679659  92.8211458  64.5800835   8.4617884
  94.3036682  64.5553135   8.7673901  96.9140586  49.8473785  11.0113865
  97.4109286  49.0943747  10.6914935  96.1427568  49.8838101  10.4457074
 104.7670344  55.5514150  12.6532156 104.7560220  56.4338866  12.2826089
 103.8987723  55.1985701  12.4586693  96.2752840  64.6994219  17.0134997
  96.9880812  65.3341684  16.9410898  95.7842869  64.7958085  16.1974998
  97.9970367  58.6045472   8.5852288  97.0626646  58.7246934   8.4156993
  98.1747036  57.7017939   8.3212298  93.4975555  51.9891168  10.7385549
  93.1273343  51.4362208  11.4266455  93.9934648  51.3849301  10.1860549
 101.3842919  54.4462791   9.1202322 101.8503371  55.2790783   9.0462625
 101.8350419  53.9807773   9.8247581  91.3264754  62.4488663  17.8340567
  92.0274213  63.0825146  17.9869962  90.8559869  62.7903394  17.0736207
  99.4519150  60.7906612   6.1188474  99.7278994  60.6763207   7.0282348
  98.5823648  60.3924097   6.0800647  99.3559581  46.8143378  13.1593224
  98.4422661  47.0447605  13.3275431  99.7852683  46.8981822  14.0107256
  99.1266040  55.0033270  15.6593118  98.4737490  55.2509178  15.0045570
  99.5046420  54.1897408  15.3255595  96.0873214  65.0392963   9.7621288
  96.2695608  64.2214619  10.2249040  96.9106200  65.2560656   9.3246178
  96.4215379  63.9661148   7.0236337  96.9503146  63.4553603   6.4106499
  96.6843599  63.6503679   7.8881870  95.1753613  55.7453081  22.1459155
  94.4994250  55.6447210  22.8161530  95.9981247  55.5892295  22.6095152
  86.9232472  61.9825018  14.7671670  87.5085909  61.2368706  14.8999574
  86.7257310  62.2928974  15.6508334  89.7771127  65.0176265   9.7834112
  89.1081502  65.5022393   9.2998152  89.6383997  65.2645486  10.6977491
  81.5150127  54.5530618  13.4876113  81.5534226  54.0194209  14.2813231
  81.0090419  54.0265823  12.8687090  93.9176396  67.0520009  16.3816771
  94.4694704  67.2151630  17.1465856  94.2582589  67.6424446  15.7096796
  88.8940889  49.3995158  16.9838656  88.9582215  50.2609989  16.5716053
  88.8308009  48.7869160  16.2511014  88.3693161  51.4718291  20.6311690
  88.9965200  51.0895368  21.2449214  87.5121080  51.2532493  20.9967382
  98.7687270  61.8781266  22.2365425  99.3127174  62.4911224  21.7420380
  98.1874115  62.4360845  22.7532438  85.1458704  53.2794720   6.5630045
  85.4412145  52.3705398   6.5097098  84.2446740  53.2582460   6.2411047
  97.0544783  65.0001984  13.3680453  96.9295922  64.1991724  12.8591398
  97.7123874  65.4948178  12.8794423  88.6752951  51.3550717  12.5457593
  87.9539537  51.9686684  12.4065066  89.4646207  51.8908481  12.4674239
  99.1179691  62.8011004  14.9960003  98.1710027  62.6816355  14.9238330
  99.4662464  61.9133502  15.0786264  91.4779265  48.6905143  18.8198245
  92.0013666  48.9367440  19.5824554  91.2591598  49.5225178  18.4001382
  86.8746546  50.9608818   6.6869370  86.5459252  50.0806197   6.5044476
  87.2285916  50.9056486   7.5745759  96.1226125  62.5963720  11.1964355
  95.9751087  61.6680428  11.3771925  96.9479618  62.6183811  10.7121431
  89.9888369  51.2481788   7.0544847  90.3284441  51.7767709   6.3323456
  90.4360489  51.5862194   7.8303414  99.7260246  63.4192279  12.2829228
 100.6506794  63.2135141  12.1453679  99.5575550  63.1708680  13.1918570
  92.6831810  49.6318838  16.5047915  92.3428630  48.8326651  16.9068595
  91.9770816  49.9320549  15.9324749  93.3348282  46.7168151  14.9575238
  94.1574351  46.2428629  14.8354129  93.5786345  47.4958634  15.4573925
  91.9756516  49.7456409   5.2538140  92.6964879  50.1237662   4.7501857
  91.3521820  50.4645286   5.3573118  96.1187639  50.4501558   6.1896473
  96.3351253  51.3326196   5.8885301  95.6381706  50.0587772   5.4602115
  90.8586860  53.4087271  12.7667217  90.7131441  53.7227574  13.6591499
  90.3812064  54.0272172  12.2138116  92.7183243  50.3989819  12.8148107
  92.7044812  49.5030913  12.4780405  93.4355671  50.4060483  13.4486393
  94.5709374  50.8327160  14.8601234  94.3127152  51.7544230  14.8585565
  94.0394414  50.4357594  15.5501698  99.5155563  63.9377947   7.6391319
  99.6892440  63.3724369   6.8865172 100.0084454  64.7378842   7.4570809
  85.3332522  55.9492616  15.7054878  84.7885991  56.7252424  15.8375153
  86.2111872  56.2963420  15.5474000  92.1220139  49.2804200   8.0835677
  92.2436050  48.3520846   8.2826564  91.8322181  49.2942886   7.1713992
  94.9911330  46.9659110  11.2202397  95.0133026  47.0298443  10.2654376
  95.4079389  46.1263619  11.4142903 105.3694954  56.7014370   9.2581619
 105.8126100  55.9521695   8.8600742 104.4921464  56.6924506   8.8755351
 100.5030735  63.2544711   4.7388218 101.1981640  63.8751404   4.9575532
 100.8453885  62.4040062   5.0140596  86.1198544  55.0762512  18.5985035
  85.3780280  55.2245147  19.1849666  85.7991289  55.3370778  17.7351785
 102.4022158  60.7044417   6.2675549 102.9273482  61.0431689   5.5424869
 102.3144511  59.7691432   6.0838683  94.0642207  64.6178490  18.3965425
  94.3729333  64.3727637  19.2688125  94.8617689  64.8225129  17.9084295
  94.0862819  66.7716400  10.6270802  93.6467809  66.2792779  11.3203658
  94.8370936  66.2289368  10.3862877  86.5655158  62.9627941  10.6295430
  87.3913178  62.6631713  10.2494073  86.2149210  62.1935563  11.0785218
  91.5336691  62.3154409  12.6993103  90.9116700  61.6525114  12.3995331
  92.2041558  62.3415541  12.0166751  84.7663763  60.8814267  11.5884363
  83.9295671  60.4536442  11.4068365  84.7387408  61.0746711  12.5255155
  91.6061219  50.7936197  22.2925609  91.6549374  51.6698320  21.9103379
  92.1483733  50.2513590  21.7197253 102.0916064  61.3377320  21.5726746
 101.3011608  61.3201459  21.0331246 101.8549419  61.8765614  22.3275783
 102.2113939  58.1869787  18.8859475 102.2611944  58.0219794  19.8274998
 102.1027863  57.3197046  18.4957356  91.0950198  60.8658332   6.1751564
  91.2438318  61.5493797   5.5218237  91.9016642  60.8463422   6.6901020
  99.5017702  54.1700715  20.2018782 100.4027565  54.0307179  19.9102780
  99.5765676  54.3355169  21.1416959  93.8360507  51.5467569  19.0471968
  92.9663817  51.8401135  18.7754557  94.0719987  52.1308014  19.7679232
 103.7132136  60.6066728  19.1301497 103.4216945  60.9696709  19.9664958
 103.1004268  59.8933736  18.9514829 104.9127819  58.1719608  11.6504067
 105.7474710  58.6109412  11.8141627 105.0486947  57.6958261  10.8312313
 101.9619324  55.7299343  17.5981555 102.4373446  55.9226989  16.7900406
 101.0384890  55.7858529  17.3524938  88.8502831  56.8923510   7.1812633
  88.6048873  55.9885840   7.3792843  89.0198746  56.8940660   6.2392111
  96.5399541  47.7647186  16.5637388  97.0581485  48.5008213  16.2383877
  96.1854674  48.0711180  17.3984148  88.1198479  52.6251867   4.6798794
  87.4267724  52.6996222   4.0238830  87.8750230  51.8612211   5.2020311
  96.7912135  44.1847469  12.0838285  97.0713889  43.5170658  12.7098712
  97.5762742  44.3776564  11.5712949  94.5945604  63.3606463   3.6463311
  94.0219571  63.9796650   3.1933783  95.1678397  63.9105824   4.1803233
 100.6620993  52.6065103  15.8309860 101.6138416  52.7063200  15.8522084
 100.4924444  51.8143371  16.3407945  98.6835373  49.6920686  16.0169261
  98.0885305  49.9725699  15.3215750  98.3985070  50.1814587  16.7886002
  97.8142863  63.6443613   4.7771894  98.7473537  63.5789175   4.9804769
  97.7266076  64.4799880   4.3186426 100.4430880  62.9609483   1.7375841
 100.3644512  62.6269347   2.6311599 101.2640547  63.4531251   1.7367314
 103.1409071  55.8271223  14.9452160 103.1085391  54.8887223  15.1311844
 103.7509695  55.9055259  14.2117985  94.9792402  54.6967275   0.9879364
  95.9251507  54.5673484   1.0567782  94.6006647  53.9581937   1.4648792
 103.2903560  52.6182266  14.9910443 102.7742608  51.8340723  14.8040372
 104.1743508  52.2900983  15.1556962 100.9514287  46.3623282  10.9506256
 100.7539108  46.0538370  11.8349588 101.5613992  47.0884920  11.0804186
 108.9585621  56.8887229  14.0858197 109.6889010  56.6272517  14.6465900
 108.3492567  56.1515951  14.1260265 107.0400918  55.0295092  14.6832648
 106.3134082  54.8951057  14.0749139 106.6248205  55.3371921  15.4889366
  94.8631095  58.7485022  22.4480021  95.7834104  58.9263621  22.6420067
  94.8280678  57.8041067  22.2959720  93.1635319  52.6217252   0.9234249
  92.2566775  52.3250365   0.9996963  93.4411300  52.3247070   0.0568535
  84.0813260  53.9423615  11.3733295  83.7616044  53.0888923  11.0807669
  83.5346688  54.1572193  12.1291263  87.8593167  56.6586056  15.0902802
  88.0779177  57.5903164  15.1090836  88.2718941  56.2994031  15.8757606
  94.7797385  47.1654142   7.0778490  93.9698113  46.8201227   7.4533736
  95.4681802  46.8561685   7.6666102  96.7087933  46.2432188   8.7002787
  97.2618972  46.6627642   9.3592810  96.9458020  45.3167936   8.7425743
  92.7321033  52.2319262  24.4805551  92.6317759  53.1813619  24.4117642
  92.5142575  51.9037501  23.6081621  91.9334104  49.4804187   1.0646228
  92.7953268  49.8059085   1.3242046  92.1184448  48.6935683   0.5519294
  83.9501520  57.5626527  13.3426417  83.2564991  57.1480480  12.8296371
  84.6974511  57.6047063  12.7459836 100.0866740  48.3532714   8.2081451
  99.5065409  49.0117518   7.8259504  99.8202673  47.5310058   7.7968869
  98.5370307  47.7537771  10.4102772  99.0370085  47.8654306   9.6017090
  99.1805915  47.4498824  11.0503580  92.5952303  55.6616401  23.2970613
  92.1119384  56.4616761  23.5034502  92.6813242  55.6724346  22.3438057
  85.8638262  57.4944781  11.2192432  85.8408950  57.5932468  10.2674315
  86.1738899  58.3409931  11.5409598  88.5225640  59.5520936  15.3339046
  89.4768894  59.5204878  15.2668978  88.3238164  59.0911559  16.1489272
  89.1125022  58.1222052  17.9009844  89.9317911  58.6166130  17.9244681
  89.3861830  57.2054020  17.8727412  98.8691618  50.5132804   7.2637800
  97.9817473  50.7982455   7.0457994  99.2845607  50.3526567   6.4165076
 102.2206155  50.5379325  10.9792139 102.9966545  51.0275777  11.2516756
 101.4954289  50.9637379  11.4364008 104.6578713  51.2506944  12.0366079
 105.2523204  51.0102680  11.3259388 104.7305297  50.5314075  12.6639616
  86.8775869  65.0940555  12.3509244  86.7430337  64.3340956  11.7847242
  86.4607931  65.8181455  11.8838033  98.0134832  60.2777479   1.3585820
  98.7170682  60.4827481   1.9743475  97.2897481  60.8454240   1.6234903
  98.8432642  56.0287340   7.4788090  98.7867844  56.4855891   6.6395722
  99.3960985  55.2678024   7.3010932 102.6537448  51.8177072   8.3038209
 102.3974382  51.4173707   9.1346417 102.0290316  52.5320866   8.1788348
 106.9649786  54.5573145  10.8109501 106.4049344  54.6266334  11.5841063
 106.3593289  54.3814130  10.0908997  90.0344995  65.9909872  12.5627687
  89.9177379  66.9355305  12.4606377  89.2137441  65.6883434  12.9513486
  99.9221529  60.7160008   3.4084280 100.7567133  60.2841206   3.2261754
  99.7605872  60.5442021   4.3361174  99.5767421  57.2192121   4.7740619
  99.5216225  57.0536393   3.8329063  98.9513477  57.9268154   4.9302809
  84.3659936  52.4560185  18.6002041  85.0118800  51.9459139  19.0889266
  84.1577088  53.1928867  19.1745466  96.8913329  59.5241033  24.0994182
  97.7604488  59.6981685  23.7380817  96.4120080  60.3435450  23.9769911
  92.8863547  46.7200230   4.3525937  92.8742217  47.6642070   4.5094208
  93.7786969  46.5370376   4.0585398  91.0599509  66.6438134  15.7783615
  91.9626756  66.6761744  16.0950110  90.8336879  65.7138585  15.7929951
  92.8153111  65.3969121  12.4393694  91.8648742  65.3970982  12.3258066
  93.1185597  64.6501855  11.9229729  96.7015666  43.3143007   8.6071874
  95.9348062  42.7601493   8.7528556  97.1126371  43.3864876   9.4686026
  88.7057427  49.6027803  22.6977055  89.5688889  49.2464607  22.9080380
  88.1322838  49.2641697  23.3852460 108.5505804  71.2329659  13.5039456
 109.1884214  71.1136406  12.8002796 108.4326647  72.1810503  13.5627408
 105.3595511  71.1857087  13.4400981 105.0214022  71.0698152  12.5521516
 106.2285279  70.7848252  13.4201987 101.2182326  73.0392563   9.4297872
 100.6547191  72.9482500   8.6614160 101.1034721  72.2192468   9.9100364
 105.8415294  72.3391939  19.3987187 105.8303934  71.9444737  18.5267690
 106.0035933  71.6058011  19.9920958  98.7646758  74.5343755  12.2682092
  99.5568050  74.1934580  11.8528392  99.0043408  74.6438730  13.1884246
 106.7981885  76.7063531   4.7412337 106.1469865  77.2917612   4.3546351
 107.5926248  77.2369726   4.8007374 100.7237512  73.7952668   5.1399471
 101.4968388  73.2481655   5.0012347 101.0762911  74.6596918   5.3513933
 102.5622555  75.1229051  18.3466371 102.2712421  76.0274681  18.2313037
 103.1979539  75.1645578  19.0610440 103.4878762  72.5005899  14.9367730
 104.0842334  72.2761921  14.2224693 103.5453733  71.7590645  15.5393178
 103.0603790  69.9545334   2.7717921 103.3129311  69.4326856   2.0101384
 102.1228349  69.7911480   2.8744605 108.1047073  68.9581113  10.5792664
 108.8910162  68.5400536  10.2283081 108.3685777  69.8627205  10.7474313
 108.2757150  74.3953963   5.2781321 107.6402983  74.4688590   5.9902226
 107.9454557  74.9847562   4.6000400 113.5055500  68.8956346  11.4825643
 114.2380672  68.3255563  11.7163472 112.7494856  68.5077946  11.9232148
 102.7800079  71.8573440   4.9742296 102.6636337  71.1818344   5.6423380
 102.8902339  71.3705814   4.1574449 105.1231620  71.3183587   8.6788985
 104.7589827  70.7914208   9.3901907 105.9798736  70.9282057   8.5055471
 111.0280920  62.6077920  15.9420251 110.6964245  63.4773331  15.7181466
 110.4326534  62.2914204  16.6214282 104.7637107  66.3473487   3.6750334
 104.9311509  67.2153724   4.0420805 104.5734276  66.5100769   2.7511623
 107.5212440  74.8090466  15.3416164 107.2213163  75.7115505  15.2331971
 107.1763499  74.5422649  16.1937317 100.9724921  71.2604263  11.3752869
 100.0475418  71.1280477  11.5830560 101.2209335  72.0398482  11.8722811
 110.9209584  67.3273006  13.0213602 110.0126461  67.2588415  12.7272363
 110.8697179  67.8044951  13.8495427 104.7426328  68.8031145   4.6597001
 104.6225953  69.2488195   5.4982481 104.0478916  69.1516462   4.1010539
  98.3333732  70.9037536  12.2096658  98.4626114  71.1572015  13.1236069
  97.6531184  71.4965244  11.8901313 102.5033220  81.5734786   8.3087132
 102.4257249  82.5242611   8.3875612 101.8994863  81.2280659   8.9662058
 104.9950449  68.7462652  20.9648499 104.2183783  69.3056572  20.9551363
 105.6341012  69.2319435  21.4863369 112.7871230  65.5289445  14.7991475
 112.1445610  65.8221978  14.1531270 112.2826159  65.4142365  15.6044672
 110.4411394  69.2752618   5.4877335 111.3529250  69.5080005   5.3125032
 109.9321041  69.8589662   4.9252413 103.2496822  71.5548105  20.5266466
 103.9911506  72.0933149  20.2501289 102.5433807  72.1814394  20.6838018
 108.7252161  73.6977246  19.1238627 109.1335517  73.2559656  18.3793260
 108.0029423  73.1229873  19.3772820 105.0783231  68.6349852  16.4972184
 105.9244427  69.0589266  16.6406833 105.0181869  67.9783477  17.1910747
 109.0480976  74.2578436  12.8790916 108.4189838  74.4224150  12.1766984
 108.6606638  74.6720046  13.6501880 112.9270208  75.1932874  10.2335280
 112.2421246  75.5731775   9.6832313 113.0114057  75.8028201  10.9667228
 108.2282677  66.2954221  18.1553358 107.9843609  67.0496281  17.6187634
 108.5042607  66.6739568  18.9900605 110.1821140  72.8392833  16.8330623
 110.3938035  73.4824593  16.1565005 110.1350888  72.0055150  16.3652554
 107.7847368  65.4510654  13.7367196 106.9231847  65.7491907  14.0283933
 107.8109803  65.6681053  12.8048228 104.6008938  73.9952844  10.1441001
 105.0647283  74.2740547   9.3545624 104.3365736  73.0936289   9.9614092
 101.4933019  73.5424326  13.0820765 102.0634376  73.9711594  12.4438249
 102.0841131  73.2606911  13.7804950 103.5377824  70.1175997   6.9530566
 104.2401867  70.5697040   7.4204493 103.2058452  69.4759816   7.5810460
 101.9858185  68.7087753  21.3281776 101.3556846  69.3904034  21.5617173
 101.8794273  68.5970835  20.3834914  97.2803158  68.3759549  12.2547700
  96.4902212  68.6317078  11.7787811  97.7714405  69.1907887  12.3599741
 111.2966967  75.7164789  15.0052981 112.1184411  75.3144976  14.7235662
 111.2929370  75.6133023  15.9569097  99.2317903  68.7404129   9.2131177
  98.4349067  68.8522823   9.7314672  99.0043495  69.0790781   8.3472067
 105.0623571  75.2648832  17.1613691 105.1268003  75.7269239  17.9971863
 104.3534495  74.6346197  17.2896001  95.5640861  68.6290040  14.6862691
  95.8148899  69.5137050  14.9520267  96.1000409  68.4494641  13.9137783
 119.3872961  72.0603537  11.3537952 118.6336669  71.4910935  11.1981957
 119.5220502  72.0266202  12.3008587 104.7771589  76.9316939   7.0292672
 104.6417263  77.7768475   7.4577519 105.3181401  77.1336217   6.2658605
 101.2638928  63.0108519  23.6907027 100.8705874  62.4574718  24.3654671
 102.0805069  63.3219098  24.0813544  98.2300986  74.4492377   7.6020597
  98.7425507  75.2435628   7.7526161  98.8823699  73.7518668   7.5354198
 100.0395871  77.5658134   9.6843350 100.2162499  78.4876098   9.4964334
 100.8352704  77.2516553  10.1137730 104.1806889  64.4266398  21.2827283
 104.9216603  65.0273551  21.2031746 104.4124812  63.6844036  20.7245326
  99.3248227  69.6122766  19.5605513  99.2101742  68.7108023  19.8612612
  98.4692745  69.8586462  19.2090330 106.4040065  77.5540506  21.1593014
 105.9603919  76.7676884  20.8413918 107.0657279  77.7419656  20.4936905
 101.1627186  79.0836307  15.6853692 101.7134611  78.9553371  14.9130686
 100.3238662  79.3831196  15.3348585 108.5021303  77.8343306  19.1874415
 108.4839778  78.6552187  18.6954684 109.4241223  77.7097381  19.4124556
 104.9594357  75.3487435  20.0297923 105.4922694  74.5875723  19.7997231
 104.4308438  75.0561087  20.7722078 108.1264052  60.4547501  15.5591565
 107.7828322  61.3449143  15.4830676 108.4943015  60.2649159  14.6961150
  96.1949903  72.7781032   8.3780167  97.0325125  73.1878040   8.1613875
  96.3728170  71.8380474   8.3480361 108.0914335  70.4456112   4.0664000
 107.5760958  71.2160717   4.3052388 107.8191643  69.7721249   4.6897062
 105.6761446  65.2905813   9.1249239 104.8203042  64.9012664   8.9454877
 106.0888398  65.3697774   8.2649024 107.2060593  62.8252156  13.5240798
 106.7025388  62.7882292  12.7108604 107.4991199  63.7344899  13.5837455
 103.4503478  62.9090886  12.5306980 104.3156475  62.7133695  12.1712870
 103.5180987  62.6801238  13.4576337 113.0648609  73.1988467   6.0017174
 112.2878052  72.8599626   5.5572336 113.7440090  73.2041090   5.3272139
 107.8800638  68.3183204   5.8923781 107.5750774  68.6329354   6.7433925
 108.8331080  68.3964624   5.9351114 106.3247070  74.4773428   7.5416735
 105.7968431  73.7426187   7.2289973 105.8234573  75.2548104   7.2956704
 111.3039916  72.6722448  12.6583782 110.6463590  73.3621710  12.7463910
 112.1080315  73.0618880  13.0017768 101.0565797  65.1393094   9.9023347
 101.6309549  64.9168276   9.1696540 101.6436780  65.2081789  10.6551948
 110.1145375  71.0266821  10.7087723 110.6277256  71.6596813  11.2109433
 110.7646599  70.4268016  10.3431083 101.3835385  67.1697555   3.9219232
 100.5472697  67.5072242   4.2428507 101.2440154  67.0346535   2.9846369
 103.3588465  62.0134343   8.6298416 102.7052878  61.6983360   8.0055031
 103.3168939  61.3910083   9.3558239 104.4699670  72.2953638   0.5451708
 103.5626732  72.0642891   0.7442857 104.9670702  71.4991257   0.7325690
 107.3767749  81.0051145   3.4648395 106.7029448  81.3082842   4.0733352
 107.7633571  81.8080226   3.1153852 106.5926206  68.5016276  12.9546064
 105.6748767  68.7231223  12.7967752 107.0086349  68.5762587  12.0957771
 107.3761253  69.9007692   8.0848744 108.1233072  70.4129089   7.7755866
 107.6452843  69.5791745   8.9453138 105.6487903  72.3966233   5.0675698
 104.7399123  72.1125266   5.1648168 105.6782987  72.8165311   4.2079005
 110.8807171  76.0072822   8.8366866 110.4269498  75.1663732   8.8932057
 110.2501138  76.6434221   9.1741646 109.8240090  66.9364808  10.0667534
 109.0862847  66.4242195  10.3977776 110.0766864  66.4965190   9.2550810
 109.3240110  77.8449319   9.7716684 109.6163085  78.4054376   9.0529050
 109.8338731  78.1377880  10.5269843 109.9251718  59.7141060  10.6609303
 110.2310595  58.8538424  10.3735218 110.6504323  60.3058681  10.4608297
  96.2176074  70.1171747   9.0490901  96.0200474  69.5241108   8.3241967
  95.6622738  69.8123957   9.7666839 104.1972798  70.0094853  11.1685494
 104.2521407  69.0568690  11.0927970 103.3864000  70.1654293  11.6526792
 105.3463991  73.9374977   2.4063777 104.9083421  73.2210835   1.9469414
 106.0874432  74.1651091   1.8448868 102.1365157  68.6271913   8.9275873
 101.3233023  68.9266084   9.3341065 102.6324152  68.2327602   9.6450355
 104.2873735  78.6229670  10.8610137 104.2449914  78.8490516   9.9318669
 105.2036434  78.3893045  11.0095939 107.7339369  69.0913738  17.7590767
 108.0888757  69.3185211  18.6185232 108.3811500  69.4232114  17.1368022
 113.4637106  72.2132174   8.4640096 113.3255005  72.4033770   7.5361285
 113.1073325  72.9751556   8.9208147 101.6279232  66.1990269  14.5437108
 102.2678612  66.0579028  13.8460071 100.7956763  65.9124782  14.1675710
 113.4906486  74.2808701  13.4751367 113.9242992  74.1883990  14.3234421
 114.2038066  74.2566201  12.8371383 102.4039536  75.4992699  10.6572100
 103.1980135  75.0043019  10.4554675 101.6931228  74.9710562  10.2939806
 107.2234381  77.8810795  15.0084468 107.2771403  78.4501731  15.7762184
 106.3549162  78.0512680  14.6438505  98.7122300  69.6435781   6.7331853
  97.7819888  69.5820236   6.9501815  98.8079772  69.1211734   5.9368494
  98.6307849  66.1690594   9.3210094  98.8914666  67.0835927   9.2119255
  99.4525021  65.7015036   9.4706707 100.1032774  67.5828351  16.4908919
 100.7755827  67.3745713  15.8421568  99.2762560  67.3850437  16.0514151
 114.3522035  74.3232401  16.0084253 114.5457925  75.2278212  16.2543527
 114.2522653  73.8639820  16.8422838 106.0058346  64.2090292  18.5074580
 105.3586261  64.9080241  18.4139056 106.7759361  64.6426436  18.8750828
 109.4137144  74.4739144  21.5825133 109.2622650  74.2449696  20.6655217
 109.4041823  75.4309745  21.5956478 106.1822480  72.0471057  16.5671400
 107.1114540  72.1982216  16.3940367 105.7613510  72.1355078  15.7120046
 104.9810812  76.0721721  14.3369937 104.8421898  75.7040506  15.2095875
 104.1925408  76.5869361  14.1653895 105.5758964  81.1730818   5.6795474
 105.7510720  80.7018861   6.4941096 104.8891752  81.7996584   5.9076734
 106.5316027  75.4503324  11.7258775 106.1965860  75.4104094  12.6216425
 106.0319973  74.7848040  11.2529185 100.5060271  70.8570954  17.2511356
 100.3680069  70.1251193  17.8522895 101.4165195  70.7679854  16.9695544
 109.4675219  72.7959358   1.9995835 108.8504390  72.0706186   1.9028887
 108.9991707  73.5568718   1.6562909 103.1342572  70.5690913  16.7395036
 103.8442190  69.9284105  16.6981654 103.0911880  70.8203808  17.6621217
 111.1229351  77.5058267  19.6601615 111.0641897  76.8217487  18.9932198
 111.5248869  78.2477257  19.2082241 101.8471506  67.5556131  18.5590675
 101.3108863  67.1046870  19.2112272 101.2588214  67.6902040  17.8161140
 100.1420049  84.3220180  12.4535334 100.3816648  84.9538705  13.1314352
  99.2989246  83.9708220  12.7400693 101.2573765  67.0144783   1.1217139
 100.3803231  66.8933583   0.7579386 101.7331518  66.2230861   0.8696028
 111.1246758  75.4697850  17.8915595 110.2373537  75.1323772  18.0141994
 111.6945309  74.7380882  18.1284360  92.7775905  71.8021942  11.2158646
  93.4646945  71.4883672  10.6279661  92.6224034  72.7063307  10.9425898
  97.5810627  66.6912139  15.6443670  97.4968816  66.0837808  14.9094080
  96.7593333  67.1821157  15.6453166 104.6547911  80.1299303  14.8576838
 104.5818083  80.9354274  15.3696142 104.2125304  80.3291269  14.0324859
 104.4437691  79.3671073   8.3679659 103.6605213  79.9092753   8.4617884
 105.1430436  79.8845053   8.7673901 107.7534341  65.1765702  11.0113865
 108.2503040  64.4235665  10.6914935 106.9821322  65.2130019  10.4457074
 115.6064098  70.8806068  12.6532156 115.5953975  71.7630783  12.2826089
 114.7381478  70.5277619  12.4586693 107.1146595  80.0286137  17.0134997
 107.8274567  80.6633602  16.9410898 106.6236623  80.1250003  16.1974998
 108.8364122  73.9337390   8.5852288 107.9020400  74.0538852   8.4156993
 109.0140790  73.0309856   8.3212298 104.3369310  67.3183085  10.7385549
 103.9667097  66.7654126  11.4266455 104.8328402  66.7141219  10.1860549
 112.2236673  69.7754709   9.1202322 112.6897125  70.6082700   9.0462625
 112.6744173  69.3099690   9.8247581 102.1658508  77.7780580  17.8340567
 102.8667968  78.4117063  17.9869962 101.6953623  78.1195312  17.0736207
 110.2912904  76.1198530   6.1188474 110.5672748  76.0055125   7.0282348
 109.4217403  75.7216015   6.0800647 110.1953336  62.1435296  13.1593224
 109.2816416  62.3739523  13.3275431 110.6246437  62.2273740  14.0107256
 109.9659794  70.3325188  15.6593118 109.3131244  70.5801095  15.0045570
 110.3440174  69.5189326  15.3255595 106.9266968  80.3684881   9.7621288
 107.1089363  79.5506537  10.2249040 107.7499954  80.5852573   9.3246178
 107.2609134  79.2953066   7.0236337 107.7896900  78.7845521   6.4106499
 107.5237353  78.9795596   7.8881870 106.0147367  71.0744999  22.1459155
 105.3388004  70.9739128  22.8161530 106.8375001  70.9184213  22.6095152
  97.7626226  77.3116935  14.7671670  98.3479663  76.5660623  14.8999574
  97.5651065  77.6220892  15.6508334 100.6164882  80.3468183   9.7834112
  99.9475257  80.8314310   9.2998152 100.4777751  80.5937403  10.6977491
  92.3543881  69.8822536  13.4876113  92.3927981  69.3486126  14.2813231
  91.8484174  69.3557741  12.8687090 104.7570150  82.3811926  16.3816771
 105.3088458  82.5443548  17.1465856 105.0976344  82.9716364  15.7096796
  99.7334643  64.7287076  16.9838656  99.7975970  65.5901907  16.5716053
  99.6701764  64.1161078  16.2511014  99.2086916  66.8010209  20.6311690
  99.8358955  66.4187286  21.2449214  98.3514835  66.5824411  20.9967382
 109.6081024  77.2073184  22.2365425 110.1520928  77.8203142  21.7420380
 109.0267869  77.7652762  22.7532438  95.9852459  68.6086638   6.5630045
  96.2805900  67.6997316   6.5097098  95.0840494  68.5874377   6.2411047
 107.8938537  80.3293902  13.3680453 107.7689677  79.5283642  12.8591398
 108.5517629  80.8240095  12.8794423  99.5146706  66.6842634  12.5457593
  98.7933291  67.2978602  12.4065066 100.3039961  67.2200399  12.4674239
 109.9573446  78.1302922  14.9960003 109.0103781  78.0108273  14.9238330
 110.3056219  77.2425420  15.0786264 102.3173019  64.0197061  18.8198245
 102.8407421  64.2659357  19.5824554 102.0985352  64.8517096  18.4001382
  97.7140300  66.2900735   6.6869370  97.3853006  65.4098114   6.5044476
  98.0679671  66.2348404   7.5745759 106.9619879  77.9255638  11.1964355
 106.8144842  76.9972346  11.3771925 107.7873373  77.9475729  10.7121431
 100.8282123  66.5773705   7.0544847 101.1678196  67.1059626   6.3323456
 101.2754244  66.9154111   7.8303414 110.5654001  78.7484197  12.2829228
 111.4900548  78.5427058  12.1453679 110.3969304  78.5000598  13.1918570
 103.5225564  64.9610756  16.5047915 103.1822385  64.1618569  16.9068595
 102.8164570  65.2612467  15.9324749 104.1742036  62.0460068  14.9575238
 104.9968105  61.5720547  14.8354129 104.4180100  62.8250552  15.4573925
 102.8150271  65.0748327   5.2538140 103.5358633  65.4529580   4.7501857
 102.1915575  65.7937204   5.3573118 106.9581393  65.7793476   6.1896473
 107.1745008  66.6618114   5.8885301 106.4775461  65.3879689   5.4602115
 101.6980615  68.7379189  12.7667217 101.5525196  69.0519492  13.6591499
 101.2205818  69.3564089  12.2138116 103.5576998  65.7281737  12.8148107
 103.5438566  64.8322830  12.4780405 104.2749426  65.7352401  13.4486393
 105.4103128  66.1619077  14.8601234 105.1520906  67.0836148  14.8585565
 104.8788169  65.7649512  15.5501698 110.3549317  79.2669864   7.6391319
 110.5286195  78.7016287   6.8865172 110.8478208  80.0670759   7.4570809
  96.1726277  71.2784533  15.7054878  95.6279745  72.0544341  15.8375153
  97.0505627  71.6255338  15.5474000 102.9613894  64.6096117   8.0835677
 103.0829805  63.6812763   8.2826564 102.6715936  64.6234803   7.1713992
 105.8305084  62.2951028  11.2202397 105.8526781  62.3590361  10.2654376
 106.2473143  61.4555536  11.4142903 116.2088708  72.0306287   9.2581619
 116.6519854  71.2813612   8.8600742 115.3315219  72.0216424   8.8755351
 111.3424490  78.5836629   4.7388218 112.0375394  79.2043321   4.9575532
 111.6847640  77.7331980   5.0140596  96.9592299  70.4054430  18.5985035
  96.2174035  70.5537065  19.1849666  96.6385043  70.6662695  17.7351785
 113.2415913  76.0336334   6.2675549 113.7667237  76.3723607   5.5424869
 113.1538265  75.0983350   6.0838683 104.9035961  79.9470408  18.3965425
 105.2123088  79.7019555  19.2688125 105.7011443  80.1517046  17.9084295
 104.9256574  82.1008318  10.6270802 104.4861564  81.6084696  11.3203658
 105.6764690  81.5581285  10.3862877  97.4048912  78.2919858  10.6295430
  98.2306932  77.9923630  10.2494073  97.0542964  77.5227481  11.0785218
 102.3730446  77.6446327  12.6993103 101.7510455  76.9817032  12.3995331
 103.0435313  77.6707458  12.0166751  95.6057518  76.2106185  11.5884363
  94.7689426  75.7828359  11.4068365  95.5781163  76.4038628  12.5255155
 102.4454973  66.1228115  22.2925609 102.4943129  66.9990237  21.9103379
 102.9877487  65.5805508  21.7197253 112.9309819  76.6669238  21.5726746
 112.1405363  76.6493377  21.0331246 112.6943173  77.2057532  22.3275783
 113.0507694  73.5161704  18.8859475 113.1005699  73.3511712  19.8274998
 112.9421617  72.6488963  18.4957356 101.9343953  76.1950250   6.1751564
 102.0832073  76.8785714   5.5218237 102.7410396  76.1755340   6.6901020
 110.3411456  69.4992632  20.2018782 111.2421319  69.3599097  19.9102780
 110.4159431  69.6647087  21.1416959 104.6754262  66.8759487  19.0471968
 103.8057571  67.1693053  18.7754557 104.9113742  67.4599932  19.7679232
 114.5525891  75.9358646  19.1301497 114.2610699  76.2988626  19.9664958
 113.9398022  75.2225654  18.9514829 115.7521573  73.5011526  11.6504067
 116.5868464  73.9401330  11.8141627 115.8880702  73.0250179  10.8312313
 112.8013079  71.0591260  17.5981555 113.2767201  71.2518907  16.7900406
 111.8778644  71.1150446  17.3524938  99.6896586  72.2215428   7.1812633
  99.4442627  71.3177758   7.3792843  99.8592500  72.2232578   6.2392111
 107.3793295  63.0939104  16.5637388 107.8975239  63.8300131  16.2383877
 107.0248428  63.4003097  17.3984148  98.9592233  67.9543785   4.6798794
  98.2661478  68.0288140   4.0238830  98.7143985  67.1904129   5.2020311
 107.6305890  59.5139386  12.0838285 107.9107643  58.8462576  12.7098712
 108.4156497  59.7068482  11.5712949 105.4339358  78.6898380   3.6463311
 104.8613325  79.3088568   3.1933783 106.0072152  79.2397742   4.1803233
 111.5014748  67.9357020  15.8309860 112.4532171  68.0355118  15.8522084
 111.3318198  67.1435289  16.3407945 109.5229127  65.0212604  16.0169261
 108.9279060  65.3017616  15.3215750 109.2378824  65.5106505  16.7886002
 108.6536618  78.9735531   4.7771894 109.5867291  78.9081092   4.9804769
 108.5659831  79.8091797   4.3186426 111.2824635  78.2901401   1.7375841
 111.2038266  77.9561264   2.6311599 112.1034301  78.7823169   1.7367314
 113.9802826  71.1563140  14.9452160 113.9479146  70.2179141  15.1311844
 114.5903449  71.2347177  14.2117985 105.8186157  70.0259193   0.9879364
 106.7645261  69.8965401   1.0567782 105.4400402  69.2873855   1.4648792
 114.1297314  67.9474184  14.9910443 113.6136363  67.1632640  14.8040372
 115.0137263  67.6192900  15.1556962 111.7908041  61.6915199  10.9506256
 111.5932862  61.3830287  11.8349588 112.4007747  62.4176838  11.0804186
 119.7979376  72.2179147  14.0858197 120.5282764  71.9564435  14.6465900
 119.1886321  71.4807869  14.1260265 117.8794673  70.3587010  14.6832648
 117.1527836  70.2242975  14.0749139 117.4641960  70.6663838  15.4889366
 105.7024849  74.0776939  22.4480021 106.6227859  74.2555538  22.6420067
 105.6674432  73.1332985  22.2959720 104.0029074  67.9509170   0.9234249
 103.0960529  67.6542282   0.9996963 104.2805055  67.6538988   0.0568535
  94.9207014  69.2715533  11.3733295  94.6009798  68.4180841  11.0807669
  94.3740442  69.4864111  12.1291263  98.6986922  71.9877974  15.0902802
  98.9172931  72.9195082  15.1090836  99.1112696  71.6285948  15.8757606
 105.6191139  62.4946059   7.0778490 104.8091868  62.1493144   7.4533736
 106.3075556  62.1853603   7.6666102 107.5481688  61.5724106   8.7002787
 108.1012726  61.9919559   9.3592810 107.7851774  60.6459854   8.7425743
 103.5714787  67.5611180  24.4805551 103.4711514  68.5105537  24.4117642
 103.3536329  67.2329419  23.6081621 102.7727858  64.8096105   1.0646228
 103.6347022  65.1351003   1.3242046 102.9578203  64.0227601   0.5519294
  94.7895274  72.8918444  13.3426417  94.0958746  72.4772397  12.8296371
  95.5368265  72.9338981  12.7459836 110.9260495  63.6824631   8.2081451
 110.3459164  64.3409435   7.8259504 110.6596428  62.8601976   7.7968869
 109.3764061  63.0829689  10.4102772 109.8763840  63.1946223   9.6017090
 110.0199669  62.7790742  11.0503580 103.4346057  70.9908319  23.2970613
 102.9513139  71.7908679  23.5034502 103.5206996  71.0016263  22.3438057
  96.7032017  72.8236698  11.2192432  96.6802705  72.9224385  10.2674315
  97.0132653  73.6701849  11.5409598  99.3619395  74.8812853  15.3339046
 100.3162648  74.8496796  15.2668978  99.1631918  74.4203477  16.1489272
  99.9518777  73.4513969  17.9009844 100.7711666  73.9458048  17.9244681
 100.2255584  72.5345937  17.8727412 109.7085373  65.8424722   7.2637800
 108.8211228  66.1274372   7.0457994 110.1239362  65.6818485   6.4165076
 113.0599909  65.8671243  10.9792139 113.8360299  66.3567695  11.2516756
 112.3348043  66.2929297  11.4364008 115.4972468  66.5798862  12.0366079
 116.0916958  66.3394598  11.3259388 115.5699051  65.8605992  12.6639616
  97.7169623  80.4232473  12.3509244  97.5824091  79.6632874  11.7847242
  97.3001686  81.1473373  11.8838033 108.8528586  75.6069396   1.3585820
 109.5564436  75.8119399   1.9743475 108.1291235  76.1746158   1.6234903
 109.6826397  71.3579258   7.4788090 109.6261598  71.8147809   6.6395722
 110.2354739  70.5969942   7.3010932 113.4931203  67.1468989   8.3038209
 113.2368137  66.7465625   9.1346417 112.8684071  67.8612783   8.1788348
 117.8043540  69.8865063  10.8109501 117.2443098  69.9558252  11.5841063
 117.1987044  69.7106047  10.0908997 100.8738749  81.3201790  12.5627687
 100.7571133  82.2647222  12.4606377 100.0531195  81.0175351  12.9513486
 110.7615284  76.0451925   3.4084280 111.5960888  75.6133124   3.2261754
 110.5999627  75.8733939   4.3361174 110.4161176  72.5484039   4.7740619
 110.3609980  72.3828310   3.8329063 109.7907231  73.2560072   4.9302809
  95.2053691  67.7852103  18.6002041  95.8512555  67.2751057  19.0889266
  94.9970842  68.5220785  19.1745466 107.7307083  74.8532951  24.0994182
 108.5998243  75.0273603  23.7380817 107.2513835  75.6727367  23.9769911
 103.7257301  62.0492148   4.3525937 103.7135971  62.9933988   4.5094208
 104.6180723  61.8662293   4.0585398 101.8993263  81.9730052  15.7783615
 102.8020510  82.0053662  16.0950110 101.6730633  81.0430503  15.7929951
 103.6546865  80.7261038  12.4393694 102.7042496  80.7262900  12.3258066
 103.9579351  79.9793773  11.9229729 107.5409421  58.6434924   8.6071874
 106.7741817  58.0893411   8.7528556 107.9520126  58.7156793   9.4686026
  99.5451182  64.9319720  22.6977055 100.4082643  64.5756525  22.9080380
  98.9716593  64.5933615  23.3852460 119.3899559  86.5621577  13.5039456
 120.0277969  86.4428324  12.8002796 119.2720402  87.5102421  13.5627408
 116.1989265  86.5149005  13.4400981 115.8607777  86.3990069  12.5521516
 117.0679033  86.1140170  13.4201987 112.0576081  88.3684481   9.4297872
 111.4940946  88.2774418   8.6614160 111.9428476  87.5484386   9.9100364
 116.6809048  87.6683856  19.3987187 116.6697689  87.2736655  18.5267690
 116.8429688  86.9349929  19.9920958 109.6040513  89.8635673  12.2682092
 110.3961805  89.5226497  11.8528392 109.8437163  89.9730648  13.1884246
 111.5631267  89.1244586   5.1399471 112.3362143  88.5773573   5.0012347
 111.9156666  89.9888835   5.3513933 113.4016309  90.4520968  18.3466371
 113.1106175  91.3566599  18.2313037 114.0373294  90.4937496  19.0610440
 114.3272516  87.8297817  14.9367730 114.9236088  87.6053839  14.2224693
 114.3847488  87.0882562  15.5393178 113.8997545  85.2837252   2.7717921
 114.1523065  84.7618773   2.0101384 112.9622104  85.1203398   2.8744605
 118.9440827  84.2873030  10.5792664 119.7303917  83.8692454  10.2283081
 119.2079532  85.1919123  10.7474313 124.3449254  84.2248264  11.4825643
 125.0774426  83.6547480  11.7163472 123.5888610  83.8369864  11.9232148
 113.6193833  87.1865358   4.9742296 113.5030091  86.5110261   5.6423380
 113.7296093  86.6997732   4.1574449 115.9625374  86.6475505   8.6788985
 115.5983581  86.1206126   9.3901907 116.8192490  86.2573974   8.5055471
 121.8674675  77.9369838  15.9420251 121.5358000  78.8065249  15.7181466
 121.2720288  77.6206122  16.6214282 115.6030861  81.6765405   3.6750334
 115.7705264  82.5445641   4.0420805 115.4128030  81.8392687   2.7511623
 118.3606194  90.1382384  15.3416164 118.0606917  91.0407423  15.2331971
 118.0157254  89.8714567  16.1937317 111.8118676  86.5896181  11.3752869
 110.8869172  86.4572395  11.5830560 112.0603089  87.3690400  11.8722811
 121.7603338  82.6564924  13.0213602 120.8520215  82.5880332  12.7272363
 121.7090934  83.1336869  13.8495427 115.5820082  84.1323062   4.6597001
 115.4619707  84.5780113   5.4982481 114.8872670  84.4808380   4.1010539
 109.1727487  86.2329454  12.2096658 109.3019868  86.4863933  13.1236069
 108.4924938  86.8257162  11.8901313 113.3426974  96.9026704   8.3087132
 113.2651004  97.8534529   8.3875612 112.7388618  96.5572577   8.9662058
 115.8344204  84.0754570  20.9648499 115.0577538  84.6348490  20.9551363
 116.4734767  84.5611352  21.4863369 123.6264985  80.8581362  14.7991475
 122.9839365  81.1513895  14.1531270 123.1219913  80.7434283  15.6044672
 121.2805148  84.6044536   5.4877335 122.1923004  84.8371922   5.3125032
 120.7714795  85.1881580   4.9252413 114.0890576  86.8840023  20.5266466
 114.8305261  87.4225067  20.2501289 113.3827562  87.5106312  20.6838018
 119.5645916  89.0269163  19.1238627 119.9729272  88.5851574  18.3793260
 118.8423177  88.4521791  19.3772820 115.9176986  83.9641770  16.4972184
 116.7638181  84.3881184  16.6406833 115.8575624  83.3075394  17.1910747
 119.8874730  89.5870354  12.8790916 119.2583593  89.7516068  12.1766984
 119.5000393  90.0011964  13.6501880 123.7663962  90.5224792  10.2335280
 123.0815001  90.9023693   9.6832313 123.8507812  91.1320118  10.9667228
 119.0676431  81.6246138  18.1553358 118.8237363  82.3788199  17.6187634
 119.3436362  82.0031486  18.9900605 121.0214894  88.1684751  16.8330623
 121.2331789  88.8116511  16.1565005 120.9744642  87.3347067  16.3652554
 118.6241123  80.7802571  13.7367196 117.7625602  81.0783825  14.0283933
 118.6503558  80.9972970  12.8048228 115.4402692  89.3244762  10.1441001
 115.9041038  89.6032465   9.3545624 115.1759490  88.4228207   9.9614092
 112.3326773  88.8716244  13.0820765 112.9028130  89.3003512  12.4438249
 112.9234885  88.5898828  13.7804950 114.3771578  85.4467914   6.9530566
 115.0795622  85.8988958   7.4204493 114.0452207  84.8051733   7.5810460
 112.8251940  84.0379671  21.3281776 112.1950601  84.7195952  21.5617173
 112.7188028  83.9262753  20.3834914 108.1196912  83.7051467  12.2547700
 107.3295966  83.9608996  11.7787811 108.6108160  84.5199805  12.3599741
 122.1360722  91.0456706  15.0052981 122.9578166  90.6436894  14.7235662
 122.1323125  90.9424940  15.9569097 110.0711658  84.0696046   9.2131177
 109.2742821  84.1814741   9.7314672 109.8437250  84.4082699   8.3472067
 115.9017325  90.5940750  17.1613691 115.9661758  91.0561157  17.9971863
 115.1928249  89.9638114  17.2896001 106.4034615  83.9581958  14.6862691
 106.6542654  84.8428967  14.9520267 106.9394164  83.7786559  13.9137783
 130.2266715  87.3895455  11.3537952 129.4730423  86.8202853  11.1981957
 130.3614256  87.3558119  12.3008587 115.6165343  92.2608857   7.0292672
 115.4811018  93.1060393   7.4577519 116.1575156  92.4628135   6.2658605
 112.1032683  78.3400437  23.6907027 111.7099628  77.7866635  24.3654671
 112.9198823  78.6511015  24.0813544 109.0694740  89.7784295   7.6020597
 109.5819261  90.5727545   7.7526161 109.7217453  89.0810586   7.5354198
 110.8789625  92.8950051   9.6843350 111.0556253  93.8168016   9.4964334
 111.6746459  92.5808471  10.1137730 115.0200644  79.7558316  21.2827283
 115.7610357  80.3565469  21.2031746 115.2518566  79.0135954  20.7245326
 110.1641982  84.9414683  19.5605513 110.0495497  84.0399940  19.8612612
 109.3086499  85.1878380  19.2090330 117.2433819  92.8832424  21.1593014
 116.7997674  92.0968802  20.8413918 117.9051033  93.0711574  20.4936905
 112.0020941  94.4128225  15.6853692 112.5528366  94.2845288  14.9130686
 111.1632417  94.7123114  15.3348585 119.3415057  93.1635223  19.1874415
 119.3233533  93.9844105  18.6954684 120.2634978  93.0389299  19.4124556
 115.7988112  90.6779353  20.0297923 116.3316448  89.9167641  19.7997231
 115.2702193  90.3853005  20.7722078 118.9657807  75.7839419  15.5591565
 118.6222076  76.6741061  15.4830676 119.3336769  75.5941077  14.6961150
 107.0343657  88.1072949   8.3780167 107.8718879  88.5169958   8.1613875
 107.2121925  87.1672392   8.3480361 118.9308089  85.7748030   4.0664000
 118.4154713  86.5452635   4.3052388 118.6585398  85.1013166   4.6897062
 116.5155200  80.6197731   9.1249239 115.6596797  80.2304581   8.9454877
 116.9282152  80.6989692   8.2649024 118.0454347  78.1544074  13.5240798
 117.5419143  78.1174209  12.7108604 118.3384954  79.0636817  13.5837455
 114.2897233  78.2382804  12.5306980 115.1550230  78.0425612  12.1712870
 114.3574742  78.0093156  13.4576337 118.7194393  83.6475122   5.8923781
 118.4144528  83.9621271   6.7433925 119.6724835  83.7256542   5.9351114
 117.1640824  89.8065345   7.5416735 116.6362186  89.0718105   7.2289973
 116.6628327  90.5840022   7.2956704 122.1433670  88.0014366  12.6583782
 121.4857345  88.6913627  12.7463910 122.9474070  88.3910798  13.0017768
 111.8959552  80.4685012   9.9023347 112.4703304  80.2460193   9.1696540
 112.4830534  80.5373706  10.6551948 120.9539129  86.3558739  10.7087723
 121.4671011  86.9888730  11.2109433 121.6040353  85.7559934  10.3431083
 112.2229139  82.4989473   3.9219232 111.3866451  82.8364159   4.2428507
 112.0833909  82.3638453   2.9846369 114.1982220  77.3426261   8.6298416
 113.5446632  77.0275278   8.0055031 114.1562694  76.7202001   9.3558239
 117.4319960  83.8308194  12.9546064 116.5142521  84.0523141  12.7967752
 117.8480104  83.9054505  12.0957771 118.2155008  85.2299610   8.0848744
 118.9626827  85.7421007   7.7755866 118.4846597  84.9083663   8.9453138
 116.4881658  87.7258151   5.0675698 115.5792877  87.4417183   5.1648168
 116.5176742  88.1457229   4.2079005 121.7200925  91.3364740   8.8366866
 121.2663252  90.4955650   8.8932057 121.0894892  91.9726138   9.1741646
 120.6633845  82.2656726  10.0667534 119.9256602  81.7534112  10.3977776
 120.9160618  81.8257108   9.2550810 120.1633865  93.1741237   9.7716684
 120.4556839  93.7346294   9.0529050 120.6732485  93.4669798  10.5269843
 120.7645472  75.0432978  10.6609303 121.0704349  74.1830342  10.3735218
 121.4898077  75.6350598  10.4608297 107.0569828  85.4463665   9.0490901
 106.8594228  84.8533025   8.3241967 106.5016492  85.1415875   9.7666839
 115.0366552  85.3386771  11.1685494 115.0915162  84.3860608  11.0927970
 114.2257754  85.4946210  11.6526792 112.9758912  83.9563831   8.9275873
 112.1626777  84.2558001   9.3341065 113.4717906  83.5619520   9.6450355
 115.1267490  93.9521588  10.8610137 115.0843669  94.1782434   9.9318669
 116.0430189  93.7184962  11.0095939 118.5733124  84.4205655  17.7590767
 118.9282511  84.6477129  18.6185232 119.2205255  84.7524032  17.1368022
 124.3030861  87.5424091   8.4640096 124.1648759  87.7325687   7.5361285
 123.9467079  88.3043474   8.9208147 112.4672987  81.5282186  14.5437108
 113.1072366  81.3870946  13.8460071 111.6350517  81.2416700  14.1675710
 124.3300240  89.6100618  13.4751367 124.7636747  89.5175907  14.3234421
 125.0431821  89.5858119  12.8371383 113.2433291  90.8284617  10.6572100
 114.0373889  90.3334937  10.4554675 112.5324983  90.3002480  10.2939806
 118.0628135  93.2102712  15.0084468 118.1165157  93.7793649  15.7762184
 117.1942916  93.3804597  14.6438505 109.5516054  84.9727699   6.7331853
 108.6213642  84.9112154   6.9501815 109.6473526  84.4503651   5.9368494
 109.4701603  81.4982511   9.3210094 109.7308420  82.4127845   9.2119255
 110.2918775  81.0306954   9.4706707 110.9426528  82.9120269  16.4908919
 111.6149582  82.7037631  15.8421568 110.1156315  82.7142355  16.0514151
 125.1915790  89.6524319  16.0084253 125.3851680  90.5570129  16.2543527
 125.0916408  89.1931738  16.8422838 116.8452100  79.5382210  18.5074580
 116.1980015  80.2372159  18.4139056 117.6153116  79.9718353  18.8750828
 120.2530898  89.8031062  21.5825133 120.1016405  89.5741613  20.6655217
 120.2435578  90.7601663  21.5956478 117.0216235  87.3762974  16.5671400
 117.9508295  87.5274134  16.3940367 116.6007265  87.4646995  15.7120046
 115.8204567  91.4013639  14.3369937 115.6815652  91.0332423  15.2095875
 115.0319163  91.9161278  14.1653895 117.3709782  90.7795242  11.7258775
 117.0359614  90.7396012  12.6216425 116.8713727  90.1139957  11.2529185
 111.3454026  86.1862872  17.2511356 111.2073824  85.4543110  17.8522895
 112.2558949  86.0971772  16.9695544 113.9736326  85.8982831  16.7395036
 114.6835945  85.2576023  16.6981654 113.9305635  86.1495726  17.6621217
 121.9623105  92.8350184  19.6601615 121.9035651  92.1509404  18.9932198
 122.3642623  93.5769174  19.2082241 112.6865260  82.8848049  18.5590675
 112.1502617  82.4338787  19.2112272 112.0981969  83.0193958  17.8161140
 110.9813804  99.6512098  12.4535334 111.2210402 100.2830622  13.1314352
 110.1383000  99.3000138  12.7400693 112.0967519  82.3436700   1.1217139
 111.2196986  82.2225501   0.7579386 112.5725272  81.5522778   0.8696028
 121.9640512  90.7989768  17.8915595 121.0767291  90.4615690  18.0141994
 122.5339063  90.0672799  18.1284360 103.6169659  87.1313860  11.2158646
 104.3040699  86.8175590  10.6279661 103.4617788  88.0355225  10.9425898
 108.4204382  82.0204056  15.6443670 108.3362570  81.4129726  14.9094080
 107.5987088  82.5113075  15.6453166 115.4941666  95.4591221  14.8576838
 115.4211837  96.2646192  15.3696142 115.0519059  95.6583186  14.0324859
 115.2831445  94.6962991   8.3679659 114.4998967  95.2384671   8.4617884
 115.9824191  95.2136970   8.7673901 118.5928095  80.5057620  11.0113865
 119.0896795  79.7527582  10.6914935 117.8215077  80.5421937  10.4457074
 126.4457853  86.2097986  12.6532156 126.4347729  87.0922701  12.2826089
 125.5775232  85.8569536  12.4586693 117.9540349  95.3578055  17.0134997
 118.6668321  95.9925519  16.9410898 117.4630378  95.4541921  16.1974998
 119.6757876  89.2629307   8.5852288 118.7414155  89.3830770   8.4156993
 119.8534545  88.3601774   8.3212298 115.1763064  82.6475003  10.7385549
 114.8060852  82.0946043  11.4266455 115.6722157  82.0433136  10.1860549
 123.0630427  85.1046627   9.1202322 123.5290880  85.9374618   9.0462625
 123.5137928  84.6391608   9.8247581 113.0052263  93.1072498  17.8340567
 113.7061722  93.7408981  17.9869962 112.5347378  93.4487230  17.0736207
 121.0347090  77.4727213  13.1593224 120.1210170  77.7031440  13.3275431
 121.4640192  77.5565658  14.0107256 120.8053549  85.6617105  15.6593118
 120.1524999  85.9093013  15.0045570 121.1833929  84.8481244  15.3255595
 117.7660723  95.6976799   9.7621288 117.9483117  94.8798455  10.2249040
 118.5893709  95.9144491   9.3246178 116.8541122  86.4036917  22.1459155
 116.1781759  86.3031046  22.8161530 117.6768756  86.2476130  22.6095152
 108.6019981  92.6408853  14.7671670 109.1873418  91.8952541  14.8999574
 108.4044819  92.9512810  15.6508334 111.4558636  95.6760100   9.7834112
 110.7869011  96.1606228   9.2998152 111.3171506  95.9229321  10.6977491
 103.1937636  85.2114453  13.4876113 103.2321735  84.6778044  14.2813231
 102.6877928  84.6849659  12.8687090 115.5963905  97.7103844  16.3816771
 116.1482213  97.8735465  17.1465856 115.9370098  98.3008282  15.7096796
 110.5728398  80.0578994  16.9838656 110.6369724  80.9193825  16.5716053
 110.5095518  79.4452995  16.2511014 110.0480670  82.1302126  20.6311690
 110.6752709  81.7479204  21.2449214 109.1908589  81.9116328  20.9967382
 120.4474779  92.5365101  22.2365425 120.9914683  93.1495060  21.7420380
 119.8661624  93.0944680  22.7532438 106.8246213  83.9378555   6.5630045
 107.1199654  83.0289234   6.5097098 105.9234249  83.9166295   6.2411047
 118.7332292  95.6585819  13.3680453 118.6083431  94.8575559  12.8591398
 119.3911383  96.1532013  12.8794423 110.3540460  82.0134552  12.5457593
 109.6327046  82.6270520  12.4065066 111.1433716  82.5492317  12.4674239
 120.7967200  93.4594840  14.9960003 119.8497536  93.3400191  14.9238330
 121.1449973  92.5717338  15.0786264 113.1566774  79.3488978  18.8198245
 113.6801175  79.5951275  19.5824554 112.9379107  80.1809013  18.4001382
 108.5534055  81.6192653   6.6869370 108.2246761  80.7390032   6.5044476
 108.9073425  81.5640322   7.5745759 117.8013634  93.2547556  11.1964355
 117.6538596  92.3264263  11.3771925 118.6267127  93.2767647  10.7121431
 111.6675878  81.9065623   7.0544847 112.0071950  82.4351544   6.3323456
 112.1147998  82.2446029   7.8303414 121.4047755  94.0776115  12.2829228
 122.3294303  93.8718976  12.1453679 121.2363059  93.8292516  13.1918570
 114.3619319  80.2902674  16.5047915 114.0216139  79.4910487  16.9068595
 113.6558325  80.5904384  15.9324749 115.0135791  77.3751986  14.9575238
 115.8361860  76.9012464  14.8354129 115.2573854  78.1542470  15.4573925
 113.6544025  80.4040244   5.2538140 114.3752388  80.7821497   4.7501857
 113.0309329  81.1229121   5.3573118 117.7975148  81.1085393   6.1896473
 118.0138762  81.9910031   5.8885301 117.3169215  80.7171607   5.4602115
 112.5374369  84.0671107  12.7667217 112.3918950  84.3811410  13.6591499
 112.0599573  84.6856007  12.2138116 114.3970752  81.0573655  12.8148107
 114.3832321  80.1614748  12.4780405 115.1143180  81.0644318  13.4486393
 116.2496883  81.4910995  14.8601234 115.9914661  82.4128066  14.8585565
 115.7181923  81.0941429  15.5501698 107.0120031  86.6076451  15.7054878
 106.4673500  87.3836259  15.8375153 107.8899381  86.9547256  15.5474000
 113.8007648  79.9388035   8.0835677 113.9223559  79.0104681   8.2826564
 113.5109690  79.9526721   7.1713992 116.6698838  77.6242945  11.2202397
 116.6920535  77.6882278  10.2654376 117.0866897  76.7847454  11.4142903
 127.0482463  87.3598205   9.2581619 127.4913609  86.6105530   8.8600742
 126.1708973  87.3508341   8.8755351 107.7986053  85.7346347  18.5985035
 107.0567789  85.8828983  19.1849666 107.4778798  85.9954613  17.7351785
 115.7429716  95.2762326  18.3965425 116.0516842  95.0311472  19.2688125
 116.5405198  95.4808964  17.9084295 115.7650328  97.4300235  10.6270802
 115.3255318  96.9376614  11.3203658 116.5158445  96.8873203  10.3862877
 108.2442667  93.6211776  10.6295430 109.0700687  93.3215548  10.2494073
 107.8936719  92.8519398  11.0785218 113.2124200  92.9738244  12.6993103
 112.5904209  92.3108949  12.3995331 113.8829067  92.9999376  12.0166751
 106.4451272  91.5398103  11.5884363 105.6083180  91.1120277  11.4068365
 106.4174917  91.7330546  12.5255155 113.2848728  81.4520032  22.2925609
 113.3336883  82.3282155  21.9103379 113.8271242  80.9097425  21.7197253
 123.7703573  91.9961156  21.5726746 122.9799117  91.9785294  21.0331246
 123.5336928  92.5349449  22.3275783 123.8901448  88.8453622  18.8859475
 123.9399453  88.6803629  19.8274998 123.7815372  87.9780881  18.4957356
 112.7737707  91.5242168   6.1751564 112.9225827  92.2077632   5.5218237
 113.5804151  91.5047258   6.6901020 121.1805211  84.8284550  20.2018782
 122.0815074  84.6891015  19.9102780 121.2553185  84.9939005  21.1416959
 115.5148016  82.2051405  19.0471968 114.6451325  82.4984971  18.7754557
 115.7507496  82.7891850  19.7679232 125.3919645  91.2650563  19.1301497
 125.1004454  91.6280544  19.9664958 124.7791776  90.5517572  18.9514829
 126.5915328  88.8303443  11.6504067 127.4262219  89.2693247  11.8141627
 126.7274456  88.3542096  10.8312313 123.6406833  86.3883178  17.5981555
 124.1160955  86.5810824  16.7900406 122.7172399  86.4442364  17.3524938
 110.5290340  87.5507345   7.1812633 110.2836382  86.6469675   7.3792843
 110.6986255  87.5524496   6.2392111 118.2187050  78.4231022  16.5637388
 118.7368994  79.1592049  16.2383877 117.8642183  78.7295015  17.3984148
 109.7985988  83.2835703   4.6798794 109.1055233  83.3580058   4.0238830
 109.5537739  82.5196046   5.2020311 118.4699644  74.8431304  12.0838285
 118.7501398  74.1754493  12.7098712 119.2550251  75.0360400  11.5712949
 122.3408502  83.2648938  15.8309860 123.2925925  83.3647036  15.8522084
 122.1711953  82.4727207  16.3407945 120.3622882  80.3504521  16.0169261
 119.7672814  80.6309534  15.3215750 120.0772579  80.8398422  16.7886002
 124.8196580  86.4855058  14.9452160 124.7872900  85.5471059  15.1311844
 125.4297204  86.5639095  14.2117985 124.9691069  83.2766101  14.9910443
 124.4530117  82.4924558  14.8040372 125.8531017  82.9484818  15.1556962
 122.6301796  77.0207117  10.9506256 122.4326617  76.7122205  11.8349588
 123.2401501  77.7468756  11.0804186 130.6373130  87.5471065  14.0858197
 131.3676519  87.2856353  14.6465900 130.0280076  86.8099787  14.1260265
 128.7188427  85.6878927  14.6832648 127.9921591  85.5534892  14.0749139
 128.3035714  85.9955756  15.4889366 116.5418604  89.4068857  22.4480021
 117.4621613  89.5847456  22.6420067 116.5068187  88.4624902  22.2959720
 114.8422828  83.2801087   0.9234249 113.9354284  82.9834200   0.9996963
 115.1198809  82.9830905   0.0568535 105.7600769  84.6007451  11.3733295
 105.4403553  83.7472759  11.0807669 105.2134197  84.8156029  12.1291263
 109.5380676  87.3169892  15.0902802 109.7566686  88.2486999  15.1090836
 109.9506450  86.9577866  15.8757606 116.4584894  77.8237977   7.0778490
 115.6485622  77.4785062   7.4533736 117.1469311  77.5145521   7.6666102
 118.3875442  76.9016024   8.7002787 118.9406481  77.3211477   9.3592810
 118.6245529  75.9751772   8.7425743 114.4108541  82.8903097  24.4805551
 114.3105268  83.8397454  24.4117642 114.1930084  82.5621336  23.6081621
 113.6121613  80.1388022   1.0646228 114.4740777  80.4642921   1.3242046
 113.7971957  79.3519518   0.5519294 105.6289029  88.2210362  13.3426417
 104.9352500  87.8064315  12.8296371 106.3762020  88.2630899  12.7459836
 121.7654249  79.0116549   8.2081451 121.1852918  79.6701353   7.8259504
 121.4990182  78.1893893   7.7968869 120.2157816  78.4121607  10.4102772
 120.7157594  78.5238141   9.6017090 120.8593424  78.1082659  11.0503580
 114.2739812  86.3200236  23.2970613 113.7906893  87.1200596  23.5034502
 114.3600751  86.3308181  22.3438057 107.5425771  88.1528616  11.2192432
 107.5196459  88.2516303  10.2674315 107.8526408  88.9993767  11.5409598
 110.2013149  90.2104771  15.3339046 111.1556403  90.1788713  15.2668978
 110.0025673  89.7495395  16.1489272 110.7912531  88.7805887  17.9009844
 111.6105420  89.2749966  17.9244681 111.0649339  87.8637855  17.8727412
 120.5479127  81.1716639   7.2637800 119.6604982  81.4566290   7.0457994
 120.9633116  81.0110403   6.4165076 123.8993664  81.1963160  10.9792139
 124.6754054  81.6859613  11.2516756 123.1741798  81.6221214  11.4364008
 126.3366222  81.9090779  12.0366079 126.9310713  81.6686515  11.3259388
 126.4092806  81.1897910  12.6639616 108.5563378  95.7524390  12.3509244
 108.4217846  94.9924791  11.7847242 108.1395440  96.4765290  11.8838033
 120.5220151  86.6871175   7.4788090 120.4655353  87.1439727   6.6395722
 121.0748494  85.9261860   7.3010932 124.3324957  82.4760907   8.3038209
 124.0761891  82.0757543   9.1346417 123.7077825  83.1904701   8.1788348
 128.6437295  85.2156980  10.8109501 128.0836853  85.2850170  11.5841063
 128.0380798  85.0397965  10.0908997 111.7132504  96.6493707  12.5627687
 111.5964888  97.5939140  12.4606377 110.8924950  96.3467269  12.9513486
 106.0447445  83.1144021  18.6002041 106.6906309  82.6042975  19.0889266
 105.8364597  83.8512702  19.1745466 118.5700838  90.1824868  24.0994182
 119.4391997  90.3565521  23.7380817 118.0907589  91.0019285  23.9769911
 114.5651056  77.3784065   4.3525937 114.5529726  78.3225905   4.5094208
 115.4574478  77.1954211   4.0585398 112.7387018  97.3021969  15.7783615
 113.6414265  97.3345580  16.0950110 112.5124388  96.3722420  15.7929951
 114.4940620  96.0552956  12.4393694 113.5436251  96.0554817  12.3258066
 114.7973106  95.3085690  11.9229729 118.3803175  73.9726842   8.6071874
 117.6135571  73.4185329   8.7528556 118.7913880  74.0448711   9.4686026
 110.3844936  80.2611638  22.6977055 111.2476398  79.9048443  22.9080380
 109.8110347  79.9225533  23.3852460 127.5202803 102.9975774  19.3987187
 127.5091443 102.6028572  18.5267690 127.6823442 102.2641847  19.9920958
 124.2410064 105.7812886  18.3466371 123.9499930 106.6858517  18.2313037
 124.8767048 105.8229414  19.0610440 132.7068429  93.2661755  15.9420251
 132.3751754  94.1357166  15.7181466 132.1114043  92.9498039  16.6214282
 126.6737958  99.4046487  20.9648499 125.8971292  99.9640407  20.9551363
 127.3128521  99.8903270  21.4863369 124.9284331 102.2131941  20.5266466
 125.6699015 102.7516985  20.2501289 124.2221316 102.8398229  20.6838018
 126.7570740  99.2933688  16.4972184 127.6031936  99.7173101  16.6406833
 126.6969378  98.6367312  17.1910747 129.9070186  96.9538056  18.1553358
 129.6631118  97.7080117  17.6187634 130.1830116  97.3323404  18.9900605
 123.6645694  99.3671589  21.3281776 123.0344355 100.0487870  21.5617173
 123.5581782  99.2554670  20.3834914 118.9590667  99.0343385  12.2547700
 118.1689721  99.2900913  11.7787811 119.4501914  99.8491723  12.3599741
 117.2428370  99.2873875  14.6862691 117.4936408 100.1720885  14.9520267
 117.7787918  99.1078477  13.9137783 122.9426437  93.6692355  23.6907027
 122.5493383  93.1158553  24.3654671 123.7592577  93.9802933  24.0813544
 125.8594398  95.0850234  21.2827283 126.6004112  95.6857387  21.2031746
 126.0912321  94.3427871  20.7245326 121.0035736 100.2706601  19.5605513
 120.8889251  99.3691858  19.8612612 120.1480254 100.5170298  19.2090330
 128.0827574 108.2124341  21.1593014 127.6391428 107.4260720  20.8413918
 128.7444787 108.4003492  20.4936905 126.6381866 106.0071271  20.0297923
 127.1710203 105.2459559  19.7997231 126.1095947 105.7144922  20.7722078
 129.8051561  91.1131337  15.5591565 129.4615830  92.0032978  15.4830676
 130.1730524  90.9232994  14.6961150 128.8848101  93.4835992  13.5240798
 128.3812897  93.4466127  12.7108604 129.1778708  94.3928734  13.5837455
 125.1290987  93.5674721  12.5306980 125.9943984  93.3717530  12.1712870
 125.1968496  93.3385073  13.4576337 129.4126878  99.7497573  17.7590767
 129.7676266  99.9769046  18.6185232 130.0599009 100.0815950  17.1368022
 123.3066741  96.8574104  14.5437108 123.9466121  96.7162863  13.8460071
 122.4744272  96.5708617  14.1675710 121.7820283  98.2412186  16.4908919
 122.4543336  98.0329548  15.8421568 120.9550069  98.0434272  16.0514151
 127.6845855  94.8674127  18.5074580 127.0373770  95.5664077  18.4139056
 128.4546870  95.3010271  18.8750828 131.0924653 105.1322979  21.5825133
 130.9410159 104.9033531  20.6655217 131.0829332 106.0893581  21.5956478
 122.1847780 101.5154789  17.2511356 122.0467578 100.7835028  17.8522895
 123.0952704 101.4263689  16.9695544 124.8130081 101.2274749  16.7395036
 125.5229699 100.5867941  16.6981654 124.7699389 101.4787643  17.6621217
 123.5259015  98.2139966  18.5590675 122.9896372  97.7630705  19.2112272
 122.9375723  98.3485875  17.8161140 119.2598136  97.3495974  15.6443670
 119.1756325  96.7421644  14.9094080 118.4380842  97.8404992  15.6453166
 131.8740845  92.8019131  13.1593224 130.9603925  93.0323358  13.3275431
 132.3033946  92.8857575  14.0107256 127.6934876 101.7328834  22.1459155
 127.0175513 101.6322964  22.8161530 128.5162510 101.5768048  22.6095152
 114.0331390 100.5406371  13.4876113 114.0715490 100.0069962  14.2813231
 113.5271683 100.0141576  12.8687090 121.4122152  95.3870911  16.9838656
 121.4763479  96.2485742  16.5716053 121.3489273  94.7744913  16.2511014
 120.8874425  97.4594044  20.6311690 121.5146464  97.0771121  21.2449214
 120.0302344  97.2408246  20.9967382 131.2868533 107.8657019  22.2365425
 131.8308437 108.4786977  21.7420380 130.7055378 108.4236598  22.7532438
 121.1934215  97.3426470  12.5457593 120.4720800  97.9562437  12.4065066
 121.9827470  97.8784234  12.4674239 123.9960528  94.6780896  18.8198245
 124.5194930  94.9243193  19.5824554 123.7772861  95.5100931  18.4001382
 125.2013073  95.6194591  16.5047915 124.8609894  94.8202404  16.9068595
 124.4952079  95.9196302  15.9324749 125.8529545  92.7043904  14.9575238
 126.6755614  92.2304382  14.8354129 126.0967609  93.4834387  15.4573925
 125.2364507  96.3865572  12.8148107 125.2226075  95.4906666  12.4780405
 125.9536935  96.3936236  13.4486393 127.0890637  96.8202913  14.8601234
 126.8308415  97.7419983  14.8585565 126.5575678  96.4233347  15.5501698
 117.8513786 101.9368369  15.7054878 117.3067254 102.7128177  15.8375153
 118.7293136 102.2839173  15.5474000 118.6379808 101.0638265  18.5985035
 117.8961544 101.2120900  19.1849666 118.3172552 101.3246531  17.7351785
 124.1242482  96.7811950  22.2925609 124.1730638  97.6574073  21.9103379
 124.6664996  96.2389343  21.7197253 132.0198965 100.1576468  20.2018782
 132.9208828 100.0182932  19.9102780 132.0946940 100.3230922  21.1416959
 126.3541771  97.5343322  19.0471968 125.4845080  97.8276888  18.7754557
 126.5901251  98.1183767  19.7679232 129.0580804  93.7522939  16.5637388
 129.5762748  94.4883966  16.2383877 128.7035937  94.0586933  17.3984148
 129.3093399  90.1723222  12.0838285 129.5895152  89.5046411  12.7098712
 130.0944006  90.3652317  11.5712949 131.2016636  95.6796439  16.0169261
 130.6066569  95.9601452  15.3215750 130.9166333  96.1690340  16.7886002
 127.3812358 104.7360775  22.4480021 128.3015368 104.9139374  22.6420067
 127.3461941 103.7916820  22.2959720 116.5994523  99.9299368  11.3733295
 116.2797307  99.0764676  11.0807669 116.0527951 100.1447946  12.1291263
 120.3774431 102.6461809  15.0902802 120.5960440 103.5778917  15.1090836
 120.7900204 102.2869784  15.8757606 125.2502296  98.2195015  24.4805551
 125.1499023  99.1689372  24.4117642 125.0323838  97.8913254  23.6081621
 116.4682783 103.5502280  13.3426417 115.7746255 103.1356233  12.8296371
 117.2155774 103.5922816  12.7459836 125.1133566 101.6492154  23.2970613
 124.6300648 102.4492514  23.5034502 125.1994505 101.6600099  22.3438057
 121.6306286 104.1097805  17.9009844 122.4499175 104.6041883  17.9244681
 121.9043093 103.1929773  17.8727412 116.8841200  98.4435939  18.6002041
 117.5300063  97.9334892  19.0889266 116.6758351  99.1804620  19.1745466
 129.4094592 105.5116786  24.0994182 130.2785752 105.6857438  23.7380817
 128.9301344 106.3311203  23.9769911 121.2238691  95.5903556  22.6977055
 122.0870152  95.2340360  22.9080380 120.6504102  95.2517450  23.3852460
 133.7820192 108.9984272  23.6907027 133.3887137 108.4450471  24.3654671
 134.5986332 109.3094851  24.0813544  95.0021540  34.0162144   6.1232493
  94.9910181  33.6214942   5.2512997  95.1642180  33.2828216   6.7166265
  91.7228802  36.7999255   5.0711677  91.4318668  37.7044886   4.9558343
  92.3585786  36.8415783   5.7855747  96.6818687  36.4860671   2.0661471
  96.3819410  37.3885710   1.9577278  96.3369746  36.2192854   2.9182624
  94.1556696  30.4232857   7.6893805  93.3790030  30.9826777   7.6796670
  94.7947259  30.9089640   8.2108676  92.4103068  33.2318310   7.2511772
  93.1517753  33.7703354   6.9746596  91.7040054  33.8584599   7.4083324
  97.8858408  35.3747451   5.8483934  98.2941764  34.9329861   5.1038566
  97.1635670  34.8000078   6.1018127  97.3888924  27.9724426   4.8798665
  97.1449855  28.7266486   4.3432940  97.6648854  28.3509773   5.7145912
  99.3427386  34.5163038   3.5575930  99.5544282  35.1594798   2.8810311
  99.2957135  33.6825355   3.0897860  91.1464432  30.3857958   8.0527082
  90.5163093  31.0674239   8.2862479  91.0400520  30.2741040   7.1080221
 100.4573214  37.3934993   1.7298287 101.2790658  36.9915181   1.4480969
 100.4535617  37.2903228   2.6814403  94.2229818  36.9419037   3.8858998
  94.2874250  37.4039444   4.7217170  93.5140742  36.3116402   4.0141308
  90.4245175  24.6878724  10.4152333  90.0312121  24.1344923  11.0899978
  91.2411315  24.9989303  10.8058851  95.5646312  39.2310711   7.8838320
  95.1210166  38.4447089   7.5659225  96.2263525  39.4189861   7.2182211
  90.3233433  40.7606512   2.4098999  90.8740858  40.6323576   1.6375993
  89.4844909  41.0601401   2.0593892  97.6627550  39.5113511   5.9119722
  97.6446025  40.3322392   5.4199991  98.5847470  39.3867586   6.1369863
  94.1200604  37.0257640   6.7543230  94.6528941  36.2645928   6.5242538
  93.5914685  36.7331292   7.4967384  96.8945616  30.7683943   4.4836073
  97.2495004  30.9955416   5.3430539  97.5417747  31.1002319   3.8613329
 102.6512732  35.9578906   0.1996674 103.0849239  35.8654195   1.0479728
 103.3644313  35.9336406  -0.4383310  96.3840627  39.5581000   1.7329774
  96.4377650  40.1271936   2.5007490  95.5155409  39.7282885   1.3683812
 103.5128282  36.0002606   2.7329559 103.7064172  36.9048417   2.9788834
 103.4128900  35.5410025   3.5668144  98.5743391  36.1509349   8.3070440
  98.4228897  35.9219901   7.3900523  98.5648070  37.1079950   8.3201785
  95.3428727  33.7241262   3.2916706  96.2720787  33.8752421   3.1185674
  94.9219757  33.8125282   2.4365353  94.1417059  37.7491926   1.0615244
  94.0028145  37.3810710   1.9341182  93.3531655  38.2639566   0.8899202
 100.2835597  39.1828471   6.3846922 100.2248143  38.4987692   5.7177505
 100.6855116  39.9247461   5.9327548  89.3026296  45.9990385  -0.8219359
  89.5422894  46.6308909  -0.1440341  88.4595493  45.6478425  -0.5354000
 100.2853005  37.1468055   4.6160901  99.3979783  36.8093977   4.7387300
 100.8551556  36.4151087   4.8529667  93.8154158  41.8069508   1.5822145
  93.7424329  42.6124479   2.0941449  93.3731551  42.0061474   0.7570166
  96.2752842  41.7056342   3.7380303  96.9880814  42.3403807   3.6656205
  95.7842870  41.8020208   2.9220305  91.3264755  39.4550785   4.5585874
  92.0274215  40.0887268   4.7115268  90.8559870  39.7965517   3.7981513
  99.1266041  32.0095393   2.3838424  98.4737491  32.2571300   1.7290877
  99.5046421  31.1959531   2.0500902  95.1753614  32.7515204   8.8704461
  94.4994251  32.6509333   9.5406837  95.9981248  32.5954418   9.3340459
  93.9176397  44.0582131   3.1062077  94.4694705  44.2213753   3.8711163
  94.2582590  44.6486569   2.4342102  98.7687271  38.8843389   8.9610732
  99.3127175  39.4973347   8.4665687  98.1874116  39.4422967   9.4777745
  97.0544784  42.0064107   0.0925760  96.9295924  41.2053847  -0.4163295
  97.7123875  42.5010300  -0.3960270  99.1179693  39.8073127   1.7205310
  98.1710028  39.6878478   1.6483636  99.4662466  38.9195625   1.8031571
  99.7260248  40.4254402  -0.9925465 100.6506795  40.2197263  -1.1301014
  99.5575551  40.1770803  -0.0836124  94.0642208  41.6240613   5.1210732
  94.3729335  41.3789760   5.9933431  94.8617690  41.8287251   4.6329602
  94.0862820  43.7778522  -2.6483892  93.6467811  43.2854901  -1.9551035
  94.8370937  43.2351490  -2.8891816  91.6061220  27.7998320   9.0170916
  91.6549375  28.6760442   8.6348686  92.1483734  27.2575713   8.4442559
 102.0916066  38.3439443   8.2972053 101.3011609  38.3263582   7.7576553
 101.8549420  38.8827736   9.0521090 102.2113941  35.1931909   5.6104782
 102.2611946  35.0281917   6.5520304 102.1027864  34.3259168   5.2202662
  99.5017703  31.1762837   6.9264088 100.4027566  31.0369302   6.6348086
  99.5765678  31.3417292   7.8662266 103.7132137  37.6128851   5.8546803
 103.4216946  37.9758831   6.6910264 103.1004269  36.8995859   5.6760135
 101.9619326  32.7361465   4.3226861 102.4373447  32.9289112   3.5145713
 101.0384891  32.7920651   4.0770245 100.6620995  29.6127225   2.5555167
 101.6138418  29.7125323   2.5767391 100.4924445  28.8205494   3.0653251
 103.1409073  32.8333345   1.6697466 103.1085393  31.8949346   1.8557150
 103.7509696  32.9117382   0.9363291 107.0400919  32.0357215   1.4077954
 106.3134083  31.9013179   0.7994446 106.6248206  32.3434043   2.2134672
  94.8631096  35.7547144   9.1725327  95.7834105  35.9325743   9.3665374
  94.8280679  34.8103190   9.0205027  92.7321034  29.2381385  11.2050858
  92.6317761  30.1875742  11.1362949  92.5142576  28.9099624  10.3326928
  92.5952304  32.6678523  10.0215919  92.1119386  33.4678884  10.2279808
  92.6813243  32.6786468   9.0683363  89.1125023  35.1284174   4.6255151
  89.9317912  35.6228253   4.6489988  89.3861831  34.2116142   4.5972718
  90.0344996  42.9971995  -0.7127006  89.9177380  43.9417427  -0.8148316
  89.2137442  42.6945556  -0.3241207  96.8913330  36.5303156  10.8239488
  97.7604490  36.7043808  10.4626123  96.4120081  37.3497572  10.7015218
  91.0599510  43.6500257   2.5028922  91.9626757  43.6823867   2.8195417
  90.8336880  42.7200708   2.5175258  92.8153112  42.4031243  -0.8360999
  91.8648743  42.4033105  -0.9496627  93.1185598  41.6563978  -1.3524965
  88.7057429  26.6089925   9.4222362  89.5688890  26.2526730   9.6325687
  88.1322839  26.2703820  10.1097766 108.5505806  48.2391782   0.2284763
 109.1884216  48.1198529  -0.4751897 108.4326648  49.1872625   0.2872715
 105.3595512  48.1919210   0.1646288 105.0214023  48.0760274  -0.7233177
 106.2285280  47.7910375   0.1447294 101.2182328  50.0454686  -3.8456821
 100.6547193  49.9544623  -4.6140534 101.1034723  49.2254590  -3.3654329
 105.8415295  49.3454061   6.1232493 105.8303936  48.9506860   5.2512997
 106.0035934  48.6120134   6.7166265  98.7646760  51.5405878  -1.0072601
  99.5568051  51.1996702  -1.4226302  99.0043410  51.6500853  -0.0870448
 106.7981886  53.7125654  -8.5342356 106.1469866  54.2979734  -8.9208343
 107.5926249  54.2431849  -8.4747319 100.7237513  50.8014791  -8.1355222
 101.4968389  50.2543778  -8.2742346 101.0762912  51.6659040  -7.9240761
 102.5622556  52.1291173   5.0711677 102.2712422  53.0336804   4.9558343
 103.1979540  52.1707701   5.7855747 103.4878763  49.5068022   1.6613037
 104.0842335  49.2824044   0.9470000 103.5453734  48.7652767   2.2638485
 108.1047074  45.9643235  -2.6962029 108.8910163  45.5462659  -3.0471612
 108.3685778  46.8689328  -2.5280381 108.2757151  51.4016086  -7.9973372
 107.6402984  51.4750712  -7.2852468 107.9454558  51.9909684  -8.6754293
 102.7800080  48.8635563  -8.3012397 102.6636338  48.1880466  -7.6331313
 102.8902340  48.3767937  -9.1180244 105.1231621  48.3245710  -4.5965708
 104.7589828  47.7976331  -3.8852787 105.9798737  47.9344179  -4.7699223
 111.0280922  39.6140043   2.6665558 110.6964246  40.4835454   2.4426773
 110.4326535  39.2976327   3.3459589 107.5212441  51.8152589   2.0661471
 107.2213164  52.7177627   1.9577278 107.1763501  51.5484772   2.9182624
 100.9724923  48.2666385  -1.9001825 100.0475419  48.1342600  -1.6924133
 101.2209336  49.0460605  -1.4031882 110.9209585  44.3335129  -0.2541092
 110.0126462  44.2650537  -0.5482331 110.8697181  44.8107074   0.5740734
  98.3333734  47.9099659  -1.0658036  98.4626115  48.1634138  -0.1518624
  97.6531185  48.5027367  -1.3853381 102.5033221  58.5796909  -4.9667561
 102.4257251  59.5304734  -4.8879081 101.8994864  58.2342781  -4.3092635
 104.9950451  45.7524774   7.6893805 104.2183785  46.3118695   7.6796670
 105.6341014  46.2381557   8.2108676 112.7871231  42.5351567   1.5236782
 112.1445612  42.8284100   0.8776577 112.2826160  42.4204488   2.3289979
 103.2496823  48.5610228   7.2511772 103.9911507  49.0995272   6.9746596
 102.5433808  49.1876517   7.4083324 108.7252163  50.7039368   5.8483934
 109.1335519  50.2621779   5.1038566 108.0029424  50.1291996   6.1018127
 105.0783233  45.6411975   3.2217491 105.9244428  46.0651389   3.3652140
 105.0181870  44.9845599   3.9156054 109.0480977  51.2640559  -0.3963777
 108.4189840  51.4286273  -1.0987709 108.6606639  51.6782168   0.3747187
 112.9270209  52.1994997  -3.0419413 112.2421247  52.5793898  -3.5922380
 113.0114058  52.8090323  -2.3087466 108.2282678  43.3016343   4.8798665
 107.9843610  44.0558404   4.3432940 108.5042609  43.6801691   5.7145912
 110.1821141  49.8454956   3.5575930 110.3938036  50.4886716   2.8810311
 110.1350889  49.0117272   3.0897860 107.7847370  42.4572776   0.4612502
 106.9231849  42.7554030   0.7529240 107.8109804  42.6743175  -0.4706465
 104.6008939  51.0014967  -3.1313692 105.0647285  51.2802670  -3.9209070
 104.3365737  50.0998412  -3.3140601 101.4933020  50.5486449  -0.1933929
 102.0634377  50.9773717  -0.8316444 102.0841132  50.2669033   0.5050257
 103.5377825  47.1238119  -6.3224127 104.2401869  47.5759163  -5.8550201
 103.2058454  46.4821938  -5.6944234 101.9858187  45.7149876   8.0527082
 101.3556847  46.3966157   8.2862479 101.8794275  45.6032958   7.1080221
  97.2803159  45.3821672  -1.0206993  96.4902213  45.6379201  -1.4966883
  97.7714407  46.1970010  -0.9154953 111.2966969  52.7226911   1.7298287
 112.1184412  52.3207098   1.4480969 111.2929372  52.6195145   2.6814403
  99.2317905  45.7466251  -4.0623517  98.4349068  45.8584945  -3.5440021
  99.0043497  46.0852903  -4.9282626 105.0623572  52.2710954   3.8858998
 105.1268005  52.7331362   4.7217170 104.3534496  51.6408319   4.0141308
  95.5640862  45.6352162   1.4107997  95.8148901  46.5199172   1.6765573
  96.1000411  45.4556764   0.6383089 104.7771590  53.9379062  -6.2462022
 104.6417265  54.7830598  -5.8177174 105.3181402  54.1398340  -7.0096088
 101.2638929  40.0170642  10.4152333 100.8705875  39.4636840  11.0899978
 102.0805070  40.3281220  10.8058851  98.2300987  51.4554500  -5.6734097
  98.7425508  52.2497750  -5.5228532  98.8823700  50.7580790  -5.7400495
 100.0395872  54.5720256  -3.5911343 100.2162500  55.4938221  -3.7790360
 100.8352705  54.2578675  -3.1616964 104.1806890  41.4328521   8.0072590
 104.9216604  42.0335674   7.9277053 104.4124813  40.6906159   7.4490633
  99.3248228  46.6184888   6.2850820  99.2101744  45.7170145   6.5857919
  98.4692746  46.8648585   5.9335636 106.4040066  54.5602628   7.8838320
 105.9603920  53.7739007   7.5659225 107.0657280  54.7481779   7.2182211
 101.1627187  56.0898430   2.4098999 101.7134612  55.9615493   1.6375993
 100.3238663  56.3893319   2.0593892 108.5021304  54.8405428   5.9119722
 108.4839780  55.6614309   5.4199991 109.4241224  54.7159504   6.1369863
 104.9594358  52.3549558   6.7543230 105.4922695  51.5937846   6.5242538
 104.4308440  52.0623210   7.4967384 108.1264053  37.4609624   2.2836872
 107.7828323  38.3511266   2.2075982 108.4943016  37.2711281   1.4206457
  96.1949904  49.7843154  -4.8974526  97.0325126  50.1940163  -5.1140818
  96.3728172  48.8442596  -4.9274332 105.6761447  42.2967936  -4.1505455
 104.8203043  41.9074786  -4.3299816 106.0888399  42.3759897  -5.0105669
 107.2060594  39.8314279   0.2486105 106.7025389  39.7944414  -0.5646090
 107.4991201  40.7407022   0.3082762 103.4503480  39.9153009  -0.7447713
 104.3156476  39.7195817  -1.1041824 103.5180989  39.6863360   0.1821643
 106.3247071  51.4835550  -5.7337958 105.7968433  50.7488310  -6.0464721
 105.8234574  52.2610227  -5.9797990 111.3039917  49.6784571  -0.6170912
 110.6463592  50.3683832  -0.5290783 112.1080316  50.0681003  -0.2736925
 101.0565799  42.1455217  -3.3731346 101.6309551  41.9230398  -4.1058154
 101.6436781  42.2143911  -2.6202745 110.1145376  48.0328944  -2.5666970
 110.6277258  48.6658935  -2.0645260 110.7646600  47.4330139  -2.9323610
 107.3767750  58.0113268  -9.8106299 106.7029449  58.3144965  -9.2021341
 107.7633572  58.8142348 -10.1600842 106.5926207  45.5078399  -0.3208629
 105.6748768  45.7293346  -0.4786941 107.0086350  45.5824710  -1.1796922
 107.3761255  46.9069815  -5.1905949 108.1233074  47.4191212  -5.4998827
 107.6452844  46.5853867  -4.3301556 105.6487905  49.4028355  -8.2078995
 104.7399124  49.1187388  -8.1106525 105.6782989  49.8227434  -9.0675688
 110.8807172  53.0134945  -4.4387827 110.4269499  52.1725855  -4.3822637
 110.2501139  53.6496343  -4.1013047 109.3240111  54.8511442  -3.5038009
 109.6163086  55.4116499  -4.2225644 109.8338732  55.1440003  -2.7484850
  96.2176075  47.1233870  -4.2263793  96.0200475  46.5303230  -4.9512726
  95.6622739  46.8186080  -3.5087854 104.1972799  47.0156976  -2.1069200
 104.2521409  46.0630812  -2.1826723 103.3864001  47.1716415  -1.6227901
 102.1365159  45.6334036  -4.3478821 101.3233024  45.9328206  -3.9413629
 102.6324153  45.2389725  -3.6304338 104.2873737  55.6291793  -2.4144556
 104.2449915  55.8552639  -3.3436024 105.2036435  55.3955167  -2.2658755
 107.7339370  46.0975860   4.4836073 108.0888758  46.3247333   5.3430539
 108.3811502  46.4294237   3.8613329 101.6279233  43.2052391   1.2682414
 102.2678613  43.0641150   0.5705378 100.7956764  42.9186905   0.8921016
 113.4906487  51.2870823   0.1996674 113.9242994  51.1946112   1.0479728
 114.2038068  51.2628324  -0.4383310 102.4039537  52.5054822  -2.6182593
 103.1980136  52.0105142  -2.8200018 101.6931230  51.9772685  -2.9814888
 107.2234382  54.8872917   1.7329774 107.2771404  55.4563854   2.5007490
 106.3549163  55.0574802   1.3683812  98.6307850  43.1752716  -3.9544599
  98.8914667  44.0898050  -4.0635438  99.4525022  42.7077159  -3.8047986
 100.1032775  44.5890474   3.2154226 100.7755829  44.3807836   2.5666875
  99.2762562  44.3912560   2.7759458 114.3522037  51.3294524   2.7329559
 114.5457927  52.2340334   2.9788834 114.2522655  50.8701943   3.5668144
 106.0058347  41.2152414   5.2319887 105.3586262  41.9142364   5.1384363
 106.7759363  41.6488558   5.5996135 109.4137145  51.4801267   8.3070440
 109.2622652  51.2511818   7.3900523 109.4041825  52.4371868   8.3201785
 106.1822482  49.0533179   3.2916706 107.1114542  49.2044339   3.1185674
 105.7613512  49.1417200   2.4365353 104.9810813  53.0783844   1.0615244
 104.8421899  52.7102628   1.9341182 104.1925410  53.5931483   0.8899202
 105.5758965  58.1792940  -7.5959220 105.7510721  57.7080983  -6.7813597
 104.8891753  58.8058706  -7.3677959 106.5316029  52.4565446  -1.5495918
 106.1965861  52.4166216  -0.6538268 106.0319974  51.7910162  -2.0225508
 100.5060272  47.8633076   3.9756663 100.3680070  47.1313315   4.5768202
 101.4165196  47.7741977   3.6940851 103.1342573  47.5753036   3.4640342
 103.8442192  46.9346228   3.4226961 103.0911881  47.8265931   4.3866523
 111.1229352  54.5120389   6.3846922 111.0641898  53.8279609   5.7177505
 111.5248870  55.2539379   5.9327548 101.8471507  44.5618254   5.2835982
 101.3108864  44.1108992   5.9357578 101.2588216  44.6964163   4.5406446
 100.1420051  61.3282303  -0.8219359 100.3816649  61.9600827  -0.1440341
  99.2989247  60.9770343  -0.5354000 111.1246759  52.4759973   4.6160901
 110.2373538  52.1385895   4.7387300 111.6945310  51.7443004   4.8529667
  92.7775906  48.8084065  -2.0596047  93.4646946  48.4945795  -2.6475032
  92.6224035  49.7125429  -2.3328796  97.5810628  43.6974261   2.3688976
  97.4968817  43.0899931   1.6339386  96.7593335  44.1883280   2.3698473
 104.6547912  57.1361425   1.5822145 104.5818084  57.9416397   2.0941449
 104.2125306  57.3353391   0.7570166 104.4437692  56.3733195  -4.9075034
 103.6605214  56.9154876  -4.8136809 105.1430437  56.8907175  -4.5080793
 107.7534342  42.1827825  -2.2640829 108.2503042  41.4297787  -2.5839758
 106.9821324  42.2192142  -2.8297619 115.6064100  47.8868190  -0.6222537
 115.5953976  48.7692906  -0.9928604 114.7381479  47.5339741  -0.8168000
 107.1146596  57.0348259   3.7380303 107.8274568  57.6695724   3.6656205
 106.6236625  57.1312125   2.9220305 108.8364123  50.9399512  -4.6902405
 107.9020402  51.0600975  -4.8597701 109.0140791  50.0371979  -4.9542395
 104.3369311  44.3245208  -2.5369144 103.9667098  43.7716248  -1.8488238
 104.8328403  43.7203341  -3.0894144 102.1658510  54.7842703   4.5585874
 102.8667969  55.4179186   4.7115268 101.6953625  55.1257434   3.7981513
 110.2912905  53.1260653  -7.1566219 110.5672749  53.0117247  -6.2472345
 109.4217404  52.7278138  -7.1954046 110.1953337  39.1497418  -0.1161470
 109.2816417  39.3801645   0.0520737 110.6246438  39.2335862   0.7352563
 109.9659796  47.3387310   2.3838424 109.3131246  47.5863218   1.7290877
 110.3440175  46.5251449   2.0500902 106.9266969  57.3747004  -3.5133405
 107.1089364  56.5568659  -3.0505653 107.7499955  57.5914696  -3.9508515
 107.2609135  56.3015189  -6.2518357 107.7896901  55.7907643  -6.8648195
 107.5237354  55.9857719  -5.3872824 106.0147369  48.0807121   8.8704461
 105.3388006  47.9801251   9.5406837 106.8375002  47.9246335   9.3340459
  97.7626228  54.3179058   1.4916977  98.3479664  53.5722746   1.6244881
  97.5651066  54.6283015   2.3753641 100.6164883  57.3530305  -3.4920581
  99.9475258  57.8376433  -3.9756541 100.4777753  57.5999526  -2.5777202
  92.3543882  46.8884658   0.2121420  92.3927982  46.3548249   1.0058538
  91.8484175  46.3619864  -0.4067603 104.7570151  59.3874049   3.1062077
 105.3088459  59.5505670   3.8711163 105.0976345  59.9778487   2.4342102
  99.7334645  41.7349199   3.7083962  99.7975971  42.5964030   3.2961360
  99.6701765  41.1223200   2.9756321  99.2086917  43.8072331   7.3556996
  99.8358956  43.4249409   7.9694521  98.3514836  43.5886533   7.7212689
 109.6081026  54.2135306   8.9610732 110.1520930  54.8265265   8.4665687
 109.0267871  54.7714885   9.4777745 107.8938539  57.3356024   0.0925760
 107.7689678  56.5345764  -0.4163295 108.5517630  57.8302218  -0.3960270
  99.5146707  43.6904757  -0.7297100  98.7933293  44.3040725  -0.8689627
 100.3039963  44.2262522  -0.8080454 109.9573447  55.1365045   1.7205310
 109.0103783  55.0170396   1.6483636 110.3056220  54.2487543   1.8031571
 102.3173020  41.0259183   5.5443552 102.8407422  41.2721480   6.3069861
 102.0985354  41.8579218   5.1246689 106.9619880  54.9317761  -2.0790338
 106.8144843  54.0034468  -1.8982768 107.7873374  54.9537851  -2.5633263
 110.5654002  55.7546319  -0.9925465 111.4900550  55.5489181  -1.1301014
 110.3969306  55.5062721  -0.0836124 103.5225565  41.9672879   3.2293222
 103.1822386  41.1680692   3.6313902 102.8164572  42.2674589   2.6570055
 104.1742037  39.0522191   1.6820545 104.9968107  38.5782669   1.5599435
 104.4180101  39.8312675   2.1819231 101.6980616  45.7441312  -0.5087476
 101.5525197  46.0581615   0.3836805 101.2205820  46.3626212  -1.0616578
 103.5576999  42.7343860  -0.4606587 103.5438568  41.8384953  -0.7974289
 104.2749427  42.7414523   0.1731699 105.4103130  43.1681200   1.5846541
 105.1520907  44.0898270   1.5830871 104.8788170  42.7711634   2.2747005
 110.3549318  56.2731987  -5.6363374 110.5286196  55.7078409  -6.3889521
 110.8478210  57.0732882  -5.8183884  96.1726278  48.2846656   2.4300185
  95.6279746  49.0606464   2.5620459  97.0505628  48.6317460   2.2719306
 105.8305085  39.3013150  -2.0552297 105.8526782  39.3652483  -3.0100317
 106.2473144  38.4617659  -1.8611791  96.9592300  47.4116552   5.3230342
  96.2174036  47.5599188   5.9094972  96.6385044  47.6724818   4.4597091
 104.9035963  56.9532530   5.1210732 105.2123089  56.7081677   5.9933431
 105.7011445  57.1579169   4.6329602 104.9256575  59.1070440  -2.6483892
 104.4861565  58.6146819  -1.9551035 105.6764692  58.5643408  -2.8891816
  97.4048914  55.2981981  -2.6459264  98.2306934  54.9985753  -3.0260620
  97.0542966  54.5289603  -2.1969475 102.3730447  54.6508449  -0.5761590
 101.7510456  53.9879154  -0.8759362 103.0435314  54.6769581  -1.2587942
  95.6057519  53.2168307  -1.6870330  94.7689427  52.7890482  -1.8686329
  95.5781164  53.4100751  -0.7499539 102.4454974  43.1290237   9.0170916
 102.4943130  44.0052360   8.6348686 102.9877489  42.5867630   8.4442559
 112.9309820  53.6731360   8.2972053 112.1405364  53.6555499   7.7576553
 112.6943175  54.2119654   9.0521090 113.0507695  50.5223827   5.6104782
 113.1005700  50.3573834   6.5520304 112.9421618  49.6551086   5.2202662
 101.9343954  53.2012373  -7.1003129 102.0832074  53.8847837  -7.7536457
 102.7410397  53.1817463  -6.5853674 110.3411458  46.5054755   6.9264088
 111.2421320  46.3661220   6.6348086 110.4159432  46.6709210   7.8662266
 104.6754263  43.8821610   5.7717275 103.8057572  44.1755176   5.4999863
 104.9113743  44.4662055   6.4924538 114.5525892  52.9420768   5.8546803
 114.2610700  53.3050749   6.6910264 113.9398023  52.2287777   5.6760135
 112.8013080  48.0653383   4.3226861 113.2767202  48.2581029   3.5145713
 111.8778646  48.1212569   4.0770245  99.6896587  49.2277550  -6.0942061
  99.4442629  48.3239880  -5.8961850  99.8592501  49.2294701  -7.0362583
 107.3793297  40.1001227   3.2882695 107.8975241  40.8362253   2.9629184
 107.0248429  40.4065220   4.1229454 105.4339359  55.6960503  -9.6291382
 104.8613326  56.3150690 -10.0820910 106.0072153  56.2459865  -9.0951460
 111.5014749  44.9419143   2.5555167 112.4532172  45.0417241   2.5767391
 111.3318200  44.1497412   3.0653251 109.5229129  42.0274726   2.7414568
 108.9279061  42.3079739   2.0461056 109.2378825  42.5168627   3.5131309
 108.6536619  55.9797653  -8.4982800 109.5867292  55.9143215  -8.2949924
 108.5659832  56.8153920  -8.9568267 113.9802827  48.1625263   1.6697466
 113.9479147  47.2241263   1.8557150 114.5903451  48.2409299   0.9363291
 114.1297315  44.9536306   1.7155750 113.6136364  44.1694763   1.5285678
 115.0137264  44.6255023   1.8802269 117.8794674  47.3649132   1.4077954
 117.1527838  47.2305097   0.7994446 117.4641961  47.6725961   2.2134672
 105.7024850  51.0839062   9.1725327 106.6227860  51.2617661   9.3665374
 105.6674433  50.1395107   9.0205027  94.9207015  46.2777656  -1.9021398
  94.6009800  45.4242964  -2.1947024  94.3740444  46.4926234  -1.1463431
  98.6986923  48.9940097   1.8148109  98.9172933  49.9257204   1.8336142
  99.1112697  48.6348071   2.6002912 103.5714788  44.5673302  11.2050858
 103.4711515  45.5167659  11.1362949 103.3536330  44.2391541  10.3326928
  94.7895275  49.8980567   0.0671724  94.0958747  49.4834520  -0.4458322
  95.5368266  49.9401104  -0.5294857 103.4346058  47.9970441  10.0215919
 102.9513140  48.7970801  10.2279808 103.5206997  48.0078386   9.0683363
  96.7032018  49.8298821  -2.0562261  96.6802706  49.9286508  -3.0080378
  97.0132654  50.6763972  -1.7345095  99.3619396  51.8874976   2.0584353
 100.3162649  51.8558918   1.9914285  99.1631919  51.4265600   2.8734579
  99.9518778  50.4576092   4.6255151 100.7711667  50.9520171   4.6489988
 100.2255586  49.5408060   4.5972718  97.7169625  57.4294595  -0.9245449
  97.5824093  56.6694996  -1.4907451  97.3001687  58.1535495  -1.3916660
 100.8738750  58.3263912  -0.7127006 100.7571135  59.2709345  -0.8148316
 100.0531197  58.0237474  -0.3241207  95.2053692  44.7914226   5.3247348
  95.8512556  44.2813180   5.8134573  94.9970843  45.5282907   5.8990773
 107.7307084  51.8595073  10.8239488 108.5998244  52.0335726  10.4626123
 107.2513836  52.6789490  10.7015218 101.8993265  58.9792174   2.5028922
 102.8020511  59.0115785   2.8195417 101.6730635  58.0492625   2.5175258
 103.6546867  57.7323161  -0.8360999 102.7042498  57.7325022  -0.9496627
 103.9579353  56.9855895  -1.3524965  99.5451183  41.9381843   9.4222362
 100.4082645  41.5818648   9.6325687  98.9716594  41.5995738  10.1097766
 119.3899560  63.5683699   0.2284763 120.0277970  63.4490447  -0.4751897
 119.2720403  64.5164543   0.2872715 116.1989266  63.5211127   0.1646288
 115.8607778  63.4052192  -0.7233177 117.0679035  63.1202292   0.1447294
 112.0576082  65.3746604  -3.8456821 111.4940947  65.2836541  -4.6140534
 111.9428477  64.5546508  -3.3654329 116.6809049  64.6745979   6.1232493
 116.6697690  64.2798777   5.2512997 116.8429689  63.9412052   6.7166265
 109.6040514  66.8697795  -1.0072601 110.3961806  66.5288620  -1.4226302
 109.8437164  66.9792770  -0.0870448 111.5631268  66.1306709  -8.1355222
 112.3362144  65.5835696  -8.2742346 111.9156667  66.9950958  -7.9240761
 113.4016311  67.4583091   5.0711677 113.1106176  68.3628722   4.9558343
 114.0373295  67.4999618   5.7855747 114.3272517  64.8359939   1.6613037
 114.9236090  64.6115962   0.9470000 114.3847489  64.0944685   2.2638485
 118.9440829  61.2935153  -2.6962029 119.7303918  60.8754576  -3.0471612
 119.2079533  62.1981245  -2.5280381 113.6193835  64.1927481  -8.3012397
 113.5030093  63.5172384  -7.6331313 113.7296094  63.7059855  -9.1180244
 115.9625375  63.6537628  -4.5965708 115.5983583  63.1268249  -3.8852787
 116.8192491  63.2636097  -4.7699223 121.8674676  54.9431960   2.6665558
 121.5358001  55.8127371   2.4426773 121.2720289  54.6268244   3.3459589
 118.3606196  67.1444506   2.0661471 118.0606919  68.0469545   1.9577278
 118.0157255  66.8776690   2.9182624 111.8118677  63.5958303  -1.9001825
 110.8869174  63.4634517  -1.6924133 112.0603090  64.3752522  -1.4031882
 121.7603339  59.6627047  -0.2541092 120.8520217  59.5942455  -0.5482331
 121.7090935  60.1398991   0.5740734 109.1727488  63.2391577  -1.0658036
 109.3019869  63.4926056  -0.1518624 108.4924939  63.8319285  -1.3853381
 113.3426975  73.9088827  -4.9667561 113.2651005  74.8596652  -4.8879081
 112.7388619  73.5634699  -4.3092635 115.8344205  61.0816692   7.6893805
 115.0577539  61.6410612   7.6796670 116.4734768  61.5673475   8.2108676
 123.6264986  57.8643485   1.5236782 122.9839366  58.1576018   0.8776577
 123.1219914  57.7496405   2.3289979 114.0890577  63.8902145   7.2511772
 114.8305262  64.4287189   6.9746596 113.3827563  64.5168434   7.4083324
 119.5645917  66.0331286   5.8483934 119.9729273  65.5913696   5.1038566
 118.8423179  65.4583913   6.1018127 115.9176987  60.9703893   3.2217491
 116.7638182  61.3943306   3.3652140 115.8575625  60.3137517   3.9156054
 119.8874732  66.5932477  -0.3963777 119.2583594  66.7578191  -1.0987709
 119.5000394  67.0074086   0.3747187 123.7663964  67.5286914  -3.0419413
 123.0815002  67.9085816  -3.5922380 123.8507813  68.1382241  -2.3087466
 119.0676432  58.6308261   4.8798665 118.8237364  59.3850322   4.3432940
 119.3436363  59.0093609   5.7145912 121.0214895  65.1746873   3.5575930
 121.2331790  65.8178633   2.8810311 120.9744644  64.3409190   3.0897860
 118.6241124  57.7864694   0.4612502 117.7625603  58.0845948   0.7529240
 118.6503559  58.0035093  -0.4706465 115.4402694  66.3306885  -3.1313692
 115.9041039  66.6094588  -3.9209070 115.1759492  65.4290329  -3.3140601
 112.3326775  65.8778366  -0.1933929 112.9028132  66.3065635  -0.8316444
 112.9234887  65.5960951   0.5050257 114.3771580  62.4530037  -6.3224127
 115.0795623  62.9051081  -5.8550201 114.0452208  61.8113856  -5.6944234
 112.8251941  61.0441794   8.0527082 112.1950602  61.7258074   8.2862479
 112.7188029  60.9324875   7.1080221 108.1196914  60.7113590  -1.0206993
 107.3295968  60.9671118  -1.4966883 108.6108161  61.5261928  -0.9154953
 122.1360723  68.0518829   1.7298287 122.9578167  67.6499016   1.4480969
 122.1323126  67.9487063   2.6814403 110.0711659  61.0758169  -4.0623517
 109.2742822  61.1876863  -3.5440021 109.8437251  61.4144821  -4.9282626
 115.9017327  67.6002872   3.8858998 115.9661759  68.0623279   4.7217170
 115.1928251  66.9700237   4.0141308 106.4034617  60.9644080   1.4107997
 106.6542655  61.8491090   1.6765573 106.9394165  60.7848682   0.6383089
 115.6165344  69.2670980  -6.2462022 115.4811019  70.1122515  -5.8177174
 116.1575157  69.4690257  -7.0096088 112.1032684  55.3462559  10.4152333
 111.7099630  54.7928758  11.0899978 112.9198824  55.6573138  10.8058851
 109.0694742  66.7846418  -5.6734097 109.5819262  67.5789668  -5.5228532
 109.7217455  66.0872708  -5.7400495 110.8789626  69.9012174  -3.5911343
 111.0556255  70.8230139  -3.7790360 111.6746460  69.5870593  -3.1616964
 115.0200645  56.7620439   8.0072590 115.7610358  57.3627592   7.9277053
 115.2518568  56.0198076   7.4490633 110.1641983  61.9476806   6.2850820
 110.0495498  61.0462063   6.5857919 109.3086501  62.1940503   5.9335636
 117.2433821  69.8894546   7.8838320 116.7997675  69.1030925   7.5659225
 117.9051034  70.0773697   7.2182211 112.0020942  71.4190348   2.4098999
 112.5528367  71.2907411   1.6375993 111.1632418  71.7185237   2.0593892
 119.3415059  70.1697346   5.9119722 119.3233534  70.9906227   5.4199991
 120.2634979  70.0451421   6.1369863 115.7988113  67.6841476   6.7543230
 116.3316450  66.9229764   6.5242538 115.2702194  67.3915127   7.4967384
 118.9657808  52.7901542   2.2836872 118.6222077  53.6803183   2.2075982
 119.3336770  52.6003199   1.4206457 107.0343658  65.1135072  -4.8974526
 107.8718880  65.5232080  -5.1140818 107.2121926  64.1734514  -4.9274332
 116.5155202  57.6259853  -4.1505455 115.6596798  57.2366704  -4.3299816
 116.9282153  57.7051814  -5.0105669 118.0454348  55.1606197   0.2486105
 117.5419144  55.1236332  -0.5646090 118.3384955  56.0698939   0.3082762
 114.2897234  55.2444926  -0.7447713 115.1550231  55.0487735  -1.1041824
 114.3574743  55.0155278   0.1821643 117.1640826  66.8127468  -5.7337958
 116.6362187  66.0780228  -6.0464721 116.6628328  67.5902144  -5.9797990
 122.1433672  65.0076489  -0.6170912 121.4857346  65.6975750  -0.5290783
 122.9474071  65.3972920  -0.2736925 111.8959553  57.4747134  -3.3731346
 112.4703305  57.2522316  -4.1058154 112.4830536  57.5435829  -2.6202745
 120.9539130  63.3620861  -2.5666970 121.4671012  63.9950853  -2.0645260
 121.6040354  62.7622057  -2.9323610 112.2229140  59.5051595  -9.3535461
 111.3866453  59.8426282  -9.0326186 112.0833910  59.3700575 -10.2908324
 114.1982221  54.3488383  -4.6456277 113.5446633  54.0337400  -5.2699662
 114.1562695  53.7264124  -3.9196454 117.4319961  60.8370317  -0.3208629
 116.5142523  61.0585264  -0.4786941 117.8480105  60.9116627  -1.1796922
 118.2155009  62.2361732  -5.1905949 118.9626828  62.7483130  -5.4998827
 118.4846599  61.9145785  -4.3301556 116.4881659  64.7320273  -8.2078995
 115.5792878  64.4479306  -8.1106525 116.5176743  65.1519352  -9.0675688
 121.7200927  68.3426863  -4.4387827 121.2663254  67.5017773  -4.3822637
 121.0894893  68.9788261  -4.1013047 120.1633866  70.1803359  -3.5038009
 120.4556840  70.7408416  -4.2225644 120.6732486  70.4731920  -2.7484850
 107.0569830  62.4525787  -4.2263793 106.8594229  61.8595148  -4.9512726
 106.5016494  62.1477997  -3.5087854 115.0366553  62.3448894  -2.1069200
 115.0915163  61.3922730  -2.1826723 114.2257755  62.5008333  -1.6227901
 112.9758913  60.9625954  -4.3478821 112.1626779  61.2620124  -3.9413629
 113.4717907  60.5681642  -3.6304338 115.1267491  70.9583710  -2.4144556
 115.0843670  71.1844557  -3.3436024 116.0430190  70.7247085  -2.2658755
 118.5733125  61.4267778   4.4836073 118.9282513  61.6539251   5.3430539
 119.2205256  61.7586155   3.8613329 112.4672988  58.5344309   1.2682414
 113.1072367  58.3933068   0.5705378 111.6350518  58.2478822   0.8921016
 124.3300241  66.6162741   0.1996674 124.7636748  66.5238030   1.0479728
 125.0431822  66.5920241  -0.4383310 113.2433292  67.8346739  -2.6182593
 114.0373890  67.3397060  -2.8200018 112.5324984  67.3064603  -2.9814888
 118.0628136  70.2164835   1.7329774 118.1165159  70.7855771   2.5007490
 117.1942918  70.3866720   1.3683812 109.5516055  61.9789821  -6.5422841
 108.6213643  61.9174277  -6.3252878 109.6473527  61.4565774  -7.3386199
 109.4701604  58.5044634  -3.9544599 109.7308422  59.4189967  -4.0635438
 110.2918777  58.0369077  -3.8047986 110.9426530  59.9182391   3.2154226
 111.6149583  59.7099753   2.5666875 110.1156316  59.7204477   2.7759458
 125.1915791  66.6586442   2.7329559 125.3851681  67.5632252   2.9788834
 125.0916409  66.1993861   3.5668144 116.8452102  56.5444332   5.2319887
 116.1980017  57.2434282   5.1384363 117.6153117  56.9780476   5.5996135
 120.2530900  66.8093184   8.3070440 120.1016406  66.5803736   7.3900523
 120.2435579  67.7663786   8.3201785 117.0216236  64.3825097   3.2916706
 117.9508296  64.5336257   3.1185674 116.6007266  64.4709118   2.4365353
 115.8204568  68.4075761   1.0615244 115.6815654  68.0394546   1.9341182
 115.0319164  68.9223401   0.8899202 117.3709783  67.7857364  -1.5495918
 117.0359616  67.7458134  -0.6538268 116.8713729  67.1202080  -2.0225508
 111.3454027  63.1924994   3.9756663 111.2073825  62.4605233   4.5768202
 112.2558950  63.1033894   3.6940851 113.9736328  62.9044953   3.4640342
 114.6835946  62.2638146   3.4226961 113.9305636  63.1557848   4.3866523
 121.9623106  69.8412307   6.3846922 121.9035652  69.1571527   5.7177505
 122.3642625  70.5831297   5.9327548 112.6865262  59.8910171   5.2835982
 112.1502619  59.4400910   5.9357578 112.0981970  60.0256080   4.5406446
 110.9813805  76.6574221  -0.8219359 111.2210403  77.2892745  -0.1440341
 110.1383002  76.3062261  -0.5354000 121.9640514  67.8051891   4.6160901
 121.0767292  67.4677813   4.7387300 122.5339065  67.0734922   4.8529667
 103.6169661  64.1375983  -2.0596047 104.3040701  63.8237713  -2.6475032
 103.4617789  65.0417347  -2.3328796 108.4204383  59.0266179   2.3688976
 108.3362572  58.4191849   1.6339386 107.5987089  59.5175197   2.3698473
 115.4941667  72.4653343   1.5822145 115.4211838  73.2708315   2.0941449
 115.0519060  72.6645309   0.7570166 115.2831447  71.7025113  -4.9075034
 114.4998968  72.2446793  -4.8136809 115.9824192  72.2199093  -4.5080793
 118.5928097  57.5119743  -2.2640829 119.0896796  56.7589705  -2.5839758
 117.8215078  57.5484059  -2.8297619 126.4457854  63.2160108  -0.6222537
 126.4347730  64.0984824  -0.9928604 125.5775234  62.8631659  -0.8168000
 117.9540350  72.3640177   3.7380303 118.6668323  72.9987642   3.6656205
 117.4630379  72.4604043   2.9220305 119.6757877  66.2691430  -4.6902405
 118.7414156  66.3892892  -4.8597701 119.8534546  65.3663897  -4.9542395
 115.1763065  59.6537126  -2.5369144 114.8060853  59.1008166  -1.8488238
 115.6722158  59.0495259  -3.0894144 113.0052264  70.1134621   4.5585874
 113.7061724  70.7471104   4.7115268 112.5347379  70.4549352   3.7981513
 121.0347091  54.4789336  -0.1161470 120.1210171  54.7093563   0.0520737
 121.4640193  54.5627780   0.7352563 120.8053550  62.6679228   2.3838424
 120.1525000  62.9155136   1.7290877 121.1833930  61.8543366   2.0500902
 117.7660724  72.7038921  -3.5133405 117.9483118  71.8860577  -3.0505653
 118.5893710  72.9206613  -3.9508515 116.8541123  63.4099039   8.8704461
 116.1781760  63.3093168   9.5406837 117.6768757  63.2538253   9.3340459
 108.6019982  69.6470976   1.4916977 109.1873419  68.9014664   1.6244881
 108.4044821  69.9574932   2.3753641 111.4558637  72.6822223  -3.4920581
 110.7869013  73.1668351  -3.9756541 111.3171507  72.9291443  -2.5777202
 103.1937637  62.2176576   0.2121420 103.2321736  61.6840167   1.0058538
 102.6877930  61.6911781  -0.4067603 115.5963906  74.7165967   3.1062077
 116.1482214  74.8797588   3.8711163 115.9370099  75.3070404   2.4342102
 110.5728399  57.0641116   3.7083962 110.6369726  57.9255947   3.2961360
 110.5095519  56.4515118   2.9756321 110.0480672  59.1364249   7.3556996
 110.6752710  58.7541326   7.9694521 109.1908591  58.9178451   7.7212689
 120.4474780  69.5427224   8.9610732 120.9914684  70.1557182   8.4665687
 119.8661625  70.1006802   9.4777745 106.8246214  60.9440678  -6.7124649
 107.1199655  60.0351356  -6.7657595 105.9234250  60.9228417  -7.0343646
 118.7332293  72.6647942   0.0925760 118.6083433  71.8637682  -0.4163295
 119.3911384  73.1594135  -0.3960270 110.3540461  59.0196675  -0.7297100
 109.6327047  59.6332642  -0.8689627 111.1433717  59.5554439  -0.8080454
 120.7967202  70.4656962   1.7205310 119.8497537  70.3462313   1.6483636
 121.1449975  69.5779460   1.8031571 113.1566775  56.3551101   5.5443552
 113.6801177  56.6013398   6.3069861 112.9379108  57.1871136   5.1246689
 108.5534056  58.6254776  -6.5885324 108.2246762  57.7452155  -6.7710218
 108.9073427  58.5702444  -5.7008934 117.8013635  70.2609678  -2.0790338
 117.6538597  69.3326386  -1.8982768 118.6267128  70.2829769  -2.5633263
 111.6675879  58.9127745  -6.2209846 112.0071952  59.4413667  -6.9431238
 112.1148000  59.2508152  -5.4451279 121.4047757  71.0838237  -0.9925465
 122.3294304  70.8781098  -1.1301014 121.2363060  70.8354638  -0.0836124
 114.3619320  57.2964796   3.2293222 114.0216140  56.4972609   3.6313902
 113.6558326  57.5966507   2.6570055 115.0135792  54.3814109   1.6820545
 115.8361861  53.9074587   1.5599435 115.2573855  55.1604592   2.1819231
 112.5374371  61.0733229  -0.5087476 112.3918951  61.3873532   0.3836805
 112.0599574  61.6918130  -1.0616578 114.3970753  58.0635777  -0.4606587
 114.3832322  57.1676871  -0.7974289 115.1143182  58.0706441   0.1731699
 116.2496884  58.4973117   1.5846541 115.9914662  59.4190188   1.5830871
 115.7181925  58.1003552   2.2747005 107.0120033  63.6138574   2.4300185
 106.4673501  64.3898382   2.5620459 107.8899383  63.9609378   2.2719306
 113.8007649  56.9450158  -5.1919017 113.9223561  56.0166804  -4.9928129
 113.5109692  56.9588843  -6.1040701 116.6698840  54.6305068  -2.0552297
 116.6920537  54.6944401  -3.0100317 117.0866899  53.7909577  -1.8611791
 107.7986055  62.7408470   5.3230342 107.0567791  62.8891105   5.9094972
 107.4778799  63.0016736   4.4597091 115.7429717  72.2824448   5.1210732
 116.0516844  72.0373595   5.9933431 116.5405199  72.4871087   4.6329602
 115.7650329  74.4362358  -2.6483892 115.3255320  73.9438736  -1.9551035
 116.5158446  73.8935325  -2.8891816 108.2442668  70.6273899  -2.6459264
 109.0700688  70.3277671  -3.0260620 107.8936720  69.8581521  -2.1969475
 113.2124201  69.9800367  -0.5761590 112.5904211  69.3171072  -0.8759362
 113.8829068  70.0061499  -1.2587942 106.4451273  68.5460225  -1.6870330
 105.6083182  68.1182399  -1.8686329 106.4174919  68.7392668  -0.7499539
 113.2848729  58.4582155   9.0170916 113.3336884  59.3344278   8.6348686
 113.8271243  57.9159548   8.4442559 123.7703575  69.0023278   8.2972053
 122.9799118  68.9847417   7.7576553 123.5336929  69.5411572   9.0521090
 123.8901450  65.8515745   5.6104782 123.9399455  65.6865752   6.5520304
 123.7815373  64.9843004   5.2202662 112.7737708  68.5304290  -7.1003129
 112.9225829  69.2139755  -7.7536457 113.5804152  68.5109380  -6.5853674
 121.1805212  61.8346673   6.9264088 122.0815075  61.6953137   6.6348086
 121.2553187  62.0001127   7.8662266 115.5148017  59.2113527   5.7717275
 114.6451327  59.5047093   5.4999863 115.7507498  59.7953972   6.4924538
 125.3919646  68.2712686   5.8546803 125.1004455  68.6342667   6.6910264
 124.7791778  67.5579694   5.6760135 123.6406835  63.3945301   4.3226861
 124.1160956  63.5872947   3.5145713 122.7172400  63.4504486   4.0770245
 110.5290341  64.5569468  -6.0942061 110.2836383  63.6531798  -5.8961850
 110.6986256  64.5586618  -7.0362583 118.2187051  55.4293144   3.2882695
 118.7368995  56.1654171   2.9629184 117.8642184  55.7357138   4.1229454
 109.7985989  60.2897825  -8.5955899 109.1055234  60.3642180  -9.2515863
 109.5537741  59.5258169  -8.0734382 122.3408504  60.2711061   2.5555167
 123.2925927  60.3709158   2.5767391 122.1711954  59.4789329   3.0653251
 120.3622883  57.3566644   2.7414568 119.7672815  57.6371657   2.0461056
 120.0772580  57.8460545   3.5131309 124.8196581  63.4917180   1.6697466
 124.7872902  62.5533181   1.8557150 125.4297205  63.5701217   0.9363291
 124.9691070  60.2828224   1.7155750 124.4530119  59.4986681   1.5285678
 125.8531018  59.9546940   1.8802269 128.7188428  62.6941050   1.4077954
 127.9921592  62.5597015   0.7994446 128.3035715  63.0017878   2.2134672
 116.5418605  66.4130980   9.1725327 117.4621614  66.5909579   9.3665374
 116.5068188  65.4687025   9.0205027 105.7600770  61.6069573  -1.9021398
 105.4403554  60.7534881  -2.1947024 105.2134198  61.8218151  -1.1463431
 109.5380677  64.3232014   1.8148109 109.7566687  65.2549122   1.8336142
 109.9506451  63.9639989   2.6002912 114.4108543  59.8965220  11.2050858
 114.3105270  60.8459577  11.1362949 114.1930085  59.5683459  10.3326928
 105.6289030  65.2272485   0.0671724 104.9352501  64.8126438  -0.4458322
 106.3762021  65.2693021  -0.5294857 114.2739813  63.3262359  10.0215919
 113.7906895  64.1262719  10.2279808 114.3600752  63.3370304   9.0683363
 107.5425772  65.1590738  -2.0562261 107.5196461  65.2578426  -3.0080378
 107.8526409  66.0055889  -1.7345095 110.2013150  67.2166894   2.0584353
 111.1556404  67.1850836   1.9914285 110.0025674  66.7557517   2.8734579
 110.7912532  65.7868010   4.6255151 111.6105421  66.2812088   4.6489988
 111.0649340  64.8699978   4.5972718 108.5563379  72.7586513  -0.9245449
 108.4217847  71.9986914  -1.4907451 108.1395441  73.4827413  -1.3916660
 111.7132505  73.6555830  -0.7127006 111.5964889  74.6001263  -0.8148316
 110.8924951  73.3529392  -0.3241207 106.0447447  60.1206143   5.3247348
 106.6906310  59.6105097   5.8134573 105.8364598  60.8574825   5.8990773
 118.5700839  67.1886991  10.8239488 119.4391998  67.3627643  10.4626123
 118.0907590  68.0081408  10.7015218 112.7387019  74.3084092   2.5028922
 113.6414266  74.3407702   2.8195417 112.5124389  73.3784543   2.5175258
 114.4940621  73.0615078  -0.8360999 113.5436252  73.0616940  -0.9496627
 114.7973107  72.3147813  -1.3524965 110.3844938  57.2673760   9.4222362
 111.2476399  56.9110565   9.6325687 109.8110348  56.9287655  10.1097766
 127.5202804  80.0037897   6.1232493 127.5091445  79.6090695   5.2512997
 127.6823443  79.2703969   6.7166265 124.2410065  82.7875008   5.0711677
 123.9499931  83.6920639   4.9558343 124.8767049  82.8291536   5.7855747
 132.7068431  70.2723878   2.6665558 132.3751755  71.1419289   2.4426773
 132.1114044  69.9560162   3.3459589 126.6737960  76.4108610   7.6893805
 125.8971294  76.9702530   7.6796670 127.3128523  76.8965393   8.2108676
 124.9284332  79.2194063   7.2511772 125.6699016  79.7579107   6.9746596
 124.2221317  79.8460352   7.4083324 126.7570742  76.2995810   3.2217491
 127.6031937  76.7235224   3.3652140 126.6969379  75.6429435   3.9156054
 129.9070187  73.9600179   4.8798665 129.6631119  74.7142239   4.3432940
 130.1830117  74.3385526   5.7145912 123.6645696  76.3733711   8.0527082
 123.0344356  77.0549992   8.2862479 123.5581784  76.2616793   7.1080221
 118.9590668  76.0405507  -1.0206993 118.1689722  76.2963036  -1.4966883
 119.4501916  76.8553845  -0.9154953 117.2428371  76.2935998   1.4107997
 117.4936410  77.1783008   1.6765573 117.7787920  76.1140599   0.6383089
 122.9426438  70.6754477  10.4152333 122.5493384  70.1220676  11.0899978
 123.7592579  70.9865056  10.8058851 125.8594399  72.0912356   8.0072590
 126.6004113  72.6919509   7.9277053 126.0912322  71.3489994   7.4490633
 121.0035737  77.2768724   6.2850820 120.8889253  76.3753981   6.5857919
 120.1480255  77.5232420   5.9335636 128.0827575  85.2186464   7.8838320
 127.6391429  84.4322842   7.5659225 128.7444789  85.4065614   7.2182211
 126.6381867  83.0133393   6.7543230 127.1710204  82.2521681   6.5242538
 126.1095948  82.7207045   7.4967384 129.8051562  68.1193459   2.2836872
 129.4615832  69.0095101   2.2075982 130.1730525  67.9295117   1.4206457
 128.8848103  70.4898114   0.2486105 128.3812898  70.4528250  -0.5646090
 129.1778710  71.3990857   0.3082762 125.1290989  70.5736844  -0.7447713
 125.9943985  70.3779653  -1.1041824 125.1968498  70.3447196   0.1821643
 129.4126879  76.7559696   4.4836073 129.7676267  76.9831169   5.3430539
 130.0599011  77.0878072   3.8613329 123.3066742  73.8636227   1.2682414
 123.9466122  73.7224986   0.5705378 122.4744273  73.5770740   0.8921016
 121.7820284  75.2474309   3.2154226 122.4543338  75.0391671   2.5666875
 120.9550071  75.0496395   2.7759458 127.6845856  71.8736250   5.2319887
 127.0373771  72.5726199   5.1384363 128.4546872  72.3072394   5.5996135
 131.0924654  82.1385102   8.3070440 130.9410161  81.9095654   7.3900523
 131.0829334  83.0955703   8.3201785 122.1847781  78.5216912   3.9756663
 122.0467579  77.7897151   4.5768202 123.0952705  78.4325812   3.6940851
 124.8130082  78.2336871   3.4640342 125.5229701  77.5930063   3.4226961
 124.7699390  78.4849766   4.3866523 123.5259016  75.2202089   5.2835982
 122.9896373  74.7692828   5.9357578 122.9375725  75.3547998   4.5406446
 119.2598137  74.3558097   2.3688976 119.1756326  73.7483766   1.6339386
 118.4380844  74.8467115   2.3698473 131.8740846  69.8081254  -0.1161470
 130.9603926  70.0385481   0.0520737 132.3033947  69.8919698   0.7352563
 127.6934877  78.7390957   8.8704461 127.0175515  78.6385086   9.5406837
 128.5162511  78.5830171   9.3340459 114.0331391  77.5468494   0.2121420
 114.0715491  77.0132084   1.0058538 113.5271684  77.0203699  -0.4067603
 121.4122154  72.3933034   3.7083962 121.4763480  73.2547865   3.2961360
 121.3489274  71.7807036   2.9756321 120.8874426  74.4656167   7.3556996
 121.5146465  74.0833244   7.9694521 120.0302345  74.2470369   7.7212689
 131.2868535  84.8719142   8.9610732 131.8308439  85.4849100   8.4665687
 130.7055380  85.4298720   9.4777745 121.1934216  74.3488592  -0.7297100
 120.4720802  74.9624560  -0.8689627 121.9827472  74.8846357  -0.8080454
 123.9960529  71.6843019   5.5443552 124.5194931  71.9305315   6.3069861
 123.7772863  72.5163054   5.1246689 125.2013074  72.6256714   3.2293222
 124.8609895  71.8264527   3.6313902 124.4952081  72.9258425   2.6570055
 125.8529546  69.7106026   1.6820545 126.6755616  69.2366504   1.5599435
 126.0967610  70.4896510   2.1819231 125.2364508  73.3927695  -0.4606587
 125.2226077  72.4968788  -0.7974289 125.9536936  73.3998359   0.1731699
 127.0890639  73.8265035   1.5846541 126.8308416  74.7482106   1.5830871
 126.5575679  73.4295470   2.2747005 117.8513787  78.9430491   2.4300185
 117.3067255  79.7190299   2.5620459 118.7293137  79.2901296   2.2719306
 118.6379809  78.0700388   5.3230342 117.8961545  78.2183023   5.9094972
 118.3172553  78.3308653   4.4597091 124.1242483  73.7874073   9.0170916
 124.1730639  74.6636195   8.6348686 124.6664998  73.2451466   8.4442559
 132.0198967  77.1638590   6.9264088 132.9208829  77.0245055   6.6348086
 132.0946941  77.3293045   7.8662266 126.3541772  74.5405445   5.7717275
 125.4845081  74.8339011   5.4999863 126.5901252  75.1245890   6.4924538
 129.0580806  70.7585062   3.2882695 129.5762750  71.4946089   2.9629184
 128.7035938  71.0649055   4.1229454 131.2016638  72.6858562   2.7414568
 130.6066570  72.9663574   2.0461056 130.9166334  73.1752463   3.5131309
 127.3812359  81.7422897   9.1725327 128.3015369  81.9201496   9.3665374
 127.3461942  80.7978943   9.0205027 116.5994524  76.9361491  -1.9021398
 116.2797309  76.0826799  -2.1947024 116.0527953  77.1510069  -1.1463431
 120.3774432  79.6523932   1.8148109 120.5960442  80.5841040   1.8336142
 120.7900206  79.2931906   2.6002912 125.2502297  75.2257138  11.2050858
 125.1499024  76.1751495  11.1362949 125.0323839  74.8975377  10.3326928
 116.4682784  80.5564402   0.0671724 115.7746256  80.1418355  -0.4458322
 117.2155775  80.5984939  -0.5294857 125.1133567  78.6554276  10.0215919
 124.6300649  79.4554637  10.2279808 125.1994506  78.6662221   9.0683363
 121.6306287  81.1159927   4.6255151 122.4499176  81.6104006   4.6489988
 121.9043095  80.1991895   4.5972718 116.8841201  75.4498061   5.3247348
 117.5300065  74.9397015   5.8134573 116.6758352  76.1866743   5.8990773
 129.4094593  82.5178909  10.8239488 130.2785753  82.6919561  10.4626123
 128.9301345  83.3373325  10.7015218 121.2238692  72.5965678   9.4222362
 122.0870154  72.2402483   9.6325687 120.6504103  72.2579573  10.1097766
 133.7820193  86.0046395  10.4152333 133.3887138  85.4512593  11.0899978
 134.5986333  86.3156973  10.8058851   5.1117946 122.5478064 104.4108493
   5.8443118 121.9777281 104.6446323   4.3557302 122.1599664 104.8514999
   2.6343367 116.2599638 108.8703102   2.3026691 117.1295049 108.6464317
   2.0388980 115.9435922 109.5497132   2.5272030 120.9794724 105.9496452
   1.6188907 120.9110133 105.6555213   2.4759626 121.4566669 106.7778277
   4.3933676 119.1811163 107.7274326   3.7508057 119.4743696 107.0814120
   3.8888605 119.0664083 108.5327523   2.0473840 122.9274336  98.4160185
   2.9591696 123.1601723  98.2407883   1.5383487 123.5111380  97.8535264
   4.5332654 128.8454592 103.1618130   3.8483692 129.2253494 102.6115164
   4.6176504 129.4549919 103.8950078   1.7883586 126.4914551 109.7613474
   2.0000481 127.1346311 109.0847855   1.7413334 125.6576868 109.2935404
   2.9029414 129.3686507 107.9335831   3.7246857 128.9666694 107.6518513
   2.8991817 129.2654741 108.8851947  10.9935407 125.7125255 104.2820803
  10.2399115 125.1432653 104.1264807  11.1282948 125.6787920 105.2291437
   4.6711055 126.8510185  98.9300024   3.8940498 126.5121345  98.4855186
   5.3502536 126.8562808  98.2554989   2.9102362 126.3244166 105.5866632
   2.2526037 127.0143428 105.6746761   3.7142761 126.7140598 105.9300618
   1.7207821 124.6788539 103.6370574   2.2339703 125.3118531 104.1392284
   2.3709045 124.0789735 103.2713934   2.4869617 129.6594540 101.7649717
   2.0331944 128.8185450 101.8214907   1.8563584 130.2955939 102.1024497
   1.4302537 120.5886527 102.9950384   0.6925294 120.0763913 103.3260627
   1.6829310 120.1486908 102.1833661   0.9302556 131.4971037 102.6999535
   1.2225531 132.0576094 101.9811900   1.4401177 131.7899598 103.4552694
   1.5314164 113.3662779 103.5892153   1.8373041 112.5060142 103.3018068
   2.2566769 113.9580399 103.3891147   5.0699552 125.8653892 101.3922946
   4.9317451 126.0555488 100.4644135   4.7135771 126.6273275 101.8490997
   5.0968932 127.9330419 106.4034218   5.5305439 127.8405708 107.2517272
   5.8100513 127.9087919 105.7654234   5.9584482 127.9754119 108.9367103
   6.1520372 128.8799930 109.1826378   5.8585100 127.5161538 109.7705688
   1.0737665 126.4481076  94.9278685   0.4566836 125.7227904  94.8311738
   0.6054154 127.2090437  94.5845759   2.7291797 131.1579985 112.5884465
   2.6704343 130.4739205 111.9215048   3.1311315 131.8998975 112.1365091
   2.7309204 129.1219569 110.8198445   1.8435983 128.7845490 110.9424844
   3.3007755 128.3902600 111.0567211   7.2126545 124.5327786 105.5815007
   7.2016421 125.4152501 105.2108940   6.3443924 124.1799337 105.3869544
   3.8299119 123.4276427 102.0485173   4.2959571 124.2604419 101.9745475
   4.2806620 122.9621408 102.7530431   1.8975350 129.7720248  99.0471325
   2.1735194 129.6576843  99.9565199   1.0279849 129.3737733  99.0083498
   1.8015782 115.7957014 106.0876074   0.8878862 116.0261241 106.2558281
   2.2308884 115.8795458 106.9390107   1.5722241 123.9846906 108.5875968
   0.9193691 124.2322813 107.9328421   1.9502620 123.1711044 108.2538445
   1.5635892 131.7824640 107.9242854   0.6166228 131.6629991 107.8521180
   1.9118665 130.8947138 108.0069115   2.1716447 132.4005915 105.2112078
   3.0962995 132.1948776 105.0736530   2.0031751 132.1522316 106.1201420
   1.9611763 132.9191582 100.5674170   2.1348641 132.3538005  99.8148022
   2.4540655 133.7192477 100.3853660   7.8151155 125.6828005 102.1864470
   8.2582301 124.9335331 101.7883593   6.9377665 125.6738142 101.8038202
   2.9486936 132.2358347  97.6671068   3.6437841 132.8565039  97.8858383
   3.2910086 131.3853698  97.9423446   4.8478359 129.6858052  99.1958399
   5.3729683 130.0245325  98.4707719   4.7600712 128.7505068  99.0121534
   4.5372265 130.3190956 114.5009597   3.7467809 130.3015095 113.9614096
   4.3005620 130.8579250 115.2558634   4.6570140 127.1683422 111.8142325
   4.7068145 127.0033430 112.7557848   4.5484064 126.3010681 111.4240206
   1.9473903 123.1514350 113.1301632   2.8483765 123.0120815 112.8385630
   2.0221877 123.3168805 114.0699810   6.1588337 129.5880364 112.0584347
   5.8673145 129.9510344 112.8947808   5.5460468 128.8747372 111.8797679
   7.3584019 127.1533244 104.5786917   8.1930911 127.5923048 104.7424478
   7.4943148 126.6771897 103.7595163   4.4075525 124.7112978 110.5264405
   4.8829647 124.9040625 109.7183256   3.4841091 124.7672164 110.2807789
   3.1077194 121.5878739 108.7592711   4.0594617 121.6876836 108.7804935
   2.9380645 120.7957007 109.2690795   1.1291574 118.6734322 108.9452112
   0.5341506 118.9539335 108.2498600   0.8441270 119.1628223 109.7168853
   2.8887081 131.9423119  94.6658692   2.8100712 131.6082983  95.5594450
   3.7096748 132.4344887  94.6650164   5.5865272 124.8084858 107.8735010
   5.5541592 123.8700859 108.0594694   6.1965896 124.8868895 107.1400835
   5.7359761 121.5995902 107.9193293   5.2198809 120.8154358 107.7323222
   6.6199709 121.2714618 108.0839813   3.3970487 115.3436917 103.8789106
   3.1995309 115.0352005 104.7632438   4.0070193 116.0698556 104.0087036
  11.4041822 125.8700865 107.0141047  12.1345210 125.6086153 107.5748750
  10.7948767 125.1329587 107.0543115   9.4857119 124.0108728 107.6115498
   8.7590283 123.8764693 107.0031990   9.0704406 124.3185556 108.4172216
   2.5322941 117.3346349 101.1364302   1.9521610 117.9931153 100.7542354
   2.2658874 116.5123694 100.7251719   0.9826508 116.7351407 103.3385622
   1.4826286 116.8467942 102.5299941   1.6262115 116.4312460 103.9786431
   1.3147819 119.4946440 100.1920650   0.4273674 119.7796090  99.9740845
   1.7301808 119.3340203  99.3447927   4.6662355 119.5192961 103.9074989
   5.4422745 120.0089413 104.1799606   3.9410489 119.9451015 104.3646859
   7.1034914 120.2320580 104.9648930   7.6979405 119.9916316 104.2542238
   7.1761498 119.5127710 105.5922466   1.2888843 125.0100976 100.4070940
   1.2324044 125.4669527  99.5678573   1.8417185 124.2491660 100.2293783
   5.0993649 120.7990707 101.2321060   4.8430583 120.3987343 102.0629267
   4.4746517 121.5134501 101.1071199   9.4105987 123.5386781 103.7392351
   8.8505545 123.6079970 104.5123913   8.8049490 123.3627765 103.0191847
   2.3677730 129.6973644  96.3367130   3.2023334 129.2654842  96.1544605
   2.2062073 129.5255657  97.2644025   2.0223622 126.2005757  97.7023469
   1.9672426 126.0350028  96.7611913   1.3969677 126.9081790  97.8585659
  15.9511701 137.8769982 104.4108493  16.6836873 137.3069199 104.6446323
  15.1951056 137.4891582 104.8514999  13.4737121 131.5891556 108.8703102
  13.1420446 132.4586967 108.6464317  12.8782734 131.2727840 109.5497132
   7.2093307 135.3287123  96.6033184   7.3767710 136.1967359  96.9703655
   7.0190477 135.4914405  95.6794474  13.3665784 136.3086642 105.9496452
  12.4582662 136.2402050 105.6555213  13.3153380 136.7858587 106.7778277
  15.2327431 134.5103080 107.7274326  14.5901811 134.8035614 107.0814120
  14.7282359 134.3956001 108.5327523  10.6738878 135.2767857 111.0836208
  10.4299809 136.0309917 110.5470484  10.9498808 135.6553204 111.9183455
  10.2303569 134.4324290 106.6650046   9.3688048 134.7305543 106.9566784
  10.2566004 134.6494688 105.7331079  21.8329161 141.0417173 104.2820803
  21.0792870 140.4724571 104.1264807  21.9676703 141.0079837 105.2291437
   6.6263090 133.4080034 114.2110134   7.3672803 134.0087187 114.1314596
   6.8581013 132.6657672 113.6528176  10.5720253 129.4361137 108.4874416
  10.2284522 130.3262779 108.4113526  10.9399216 129.2462795 107.6244001
   8.1217647 134.2719449 102.0532089   7.2659243 133.8826299 101.8737728
   8.5344598 134.3511410 101.1931875   9.6516793 131.8065792 106.4523649
   9.1481589 131.7695927 105.6391454   9.9447400 132.7158535 106.5120305
   5.8959679 131.8904522 105.4589831   6.7612676 131.6947331 105.0995720
   5.9637188 131.6614874 106.3859187  10.3256839 137.2996840  98.8206632
  10.0206974 137.6142989  99.6716775  11.2787281 137.3778260  98.8633965
   3.5021998 134.1206730 102.8306197   4.0765750 133.8981911 102.0979390
   4.0892981 134.1895424 103.5834799   5.8044666 130.9947979 101.5581267
   5.1509078 130.6796996 100.9337882   5.7625140 130.3723719 102.2841090
  12.2696291 135.9178444 102.9950384  11.5319048 135.4055830 103.3260627
  12.5223065 135.4778826 102.1833661  12.3707919 128.6954696 103.5892153
  12.6766795 127.8352060 103.3018068  13.0960523 129.2872316 103.3891147
   4.0735433 135.1803905 107.4719958   4.7134812 135.0392664 106.7742921
   3.2412964 134.8938418 107.0958560   8.4514547 133.1903928 111.4357430
   7.8042462 133.8893877 111.3421907   9.2215562 133.6240072 111.8033679
  10.1990542 134.1579338 103.9396715  10.6959241 133.4049300 103.6197786
   9.4277523 134.1943655 103.3739925   6.7825510 136.2996721 103.6668400
   6.4123298 135.7467761 104.3549305   7.2784603 135.6954855 103.1143400
  12.6409537 131.1248932 106.0876074  11.7272616 131.3553158 106.2558281
  13.0702638 131.2087376 106.9390107   2.1790844 133.7100712 109.9121506
   2.2432171 134.5715543 109.4998904   2.1157964 133.0974714 109.1793864
   4.7629220 133.0010697 111.7481095   5.2863622 133.2472993 112.5107405
   4.5441553 133.8330731 111.3284233   5.9681765 133.9424392 109.4330766
   5.6278585 133.1432205 109.8351446   5.2620771 134.2426103 108.8607599
   6.6198237 131.0273704 107.8858089   7.4424306 130.5534182 107.7636979
   6.8636300 131.8064188 108.3856775   5.2606471 134.0561963  98.1820991
   5.9814834 134.4343215  97.6784707   4.6371775 134.7750839  98.2855969
   9.4037594 134.7607112  99.1179323   9.6201209 135.6431749  98.8168151
   8.9231661 134.3693325  98.3884965   6.0033198 134.7095373 105.7430957
   5.9894767 133.8136466 105.4063255   6.7205627 134.7166036 106.3769243
   7.8559329 135.1432713 107.7884085   7.5977107 136.0649784 107.7868415
   7.3244370 134.7463147 108.4784549   5.4070094 133.5909753 101.0118527
   5.5286006 132.6626399 101.2109415   5.1172137 133.6048439 100.0996843
   8.2761285 131.2764663 104.1485247   8.2982982 131.3403997 103.1937227
   8.6929344 130.4369172 104.3425753  12.7867657 138.4806268 113.1301632
  13.6877520 138.3412733 112.8385630  12.8615632 138.6460723 114.0699810
   7.1210462 135.8573123 111.9754819   6.2513772 136.1506689 111.7037407
   7.3569943 136.4413568 112.6962082   9.8249496 132.0752740 109.4920239
  10.3431440 132.8113767 109.1666727   9.4704629 132.3816733 110.3266998
  10.0762090 128.4953022 105.0121136  10.3563844 127.8276211 105.6381562
  10.8612697 128.6882118 104.4995799  13.9470949 136.9170656 108.7592711
  14.8988372 137.0168754 108.7804935  13.7774399 136.1248925 109.2690795
  11.9685328 134.0026239 108.9452112  11.3735260 134.2831252 108.2498600
  11.6835025 134.4920140 109.7168853  16.5753515 136.9287819 107.9193293
  16.0592564 136.1446276 107.7323222  17.4593464 136.6006536 108.0839813
  14.2364242 130.6728835 103.8789106  14.0389063 130.3643923 104.7632438
  14.8463948 131.3990474 104.0087036  22.2435576 141.1992783 107.0141047
  22.9738965 140.9378071 107.5748750  21.6342522 140.4621505 107.0543115
  20.3250873 139.3400645 107.6115498  19.5984037 139.2056610 107.0031990
  19.9098160 139.6477474 108.4172216   8.0647340 131.4759695 100.0061341
   7.2548069 131.1306780 100.3816587   8.7531757 131.1667239 100.5948952
   9.9937889 130.5537742 101.6285637  10.5468927 130.9733195 102.2875661
  10.2307975 129.6273490 101.6708593   5.2184059 133.7909741  93.9929079
   6.0803223 134.1164639  94.2524896   5.4034403 133.0041236  93.4802145
  13.3716696 132.6638267 101.1364302  12.7915365 133.3223071 100.7542354
  13.1052628 131.8415612 100.7251719  11.8220262 132.0643325 103.3385622
  12.3220040 132.1759859 102.5299941  12.4655870 131.7604378 103.9786431
  12.1541574 134.8238357 100.1920650  11.2667429 135.1088008  99.9740845
  12.5695563 134.6632121  99.3447927  15.5056110 134.8484878 103.9074989
  16.2816500 135.3381331 104.1799606  14.7804244 135.2742933 104.3646859
  17.9428668 135.5612498 104.9648930  18.5373159 135.3208234 104.2542238
  18.0155252 134.8419628 105.5922466  15.9387403 136.1282625 101.2321060
  15.6824338 135.7279261 102.0629267  15.3140271 136.8426419 101.1071199
  20.2499741 138.8678698 103.7392351  19.6899299 138.9371888 104.5123913
  19.6443245 138.6919683 103.0191847   6.1713502 131.0305784  97.2808788
   6.1592172 131.9747623  97.4377059   7.0636924 130.8475929  96.9868249
   9.9865622 127.6248560 101.5354725   9.2198017 127.0707047 101.6811407
  10.3976327 127.6970429 102.3968876   5.1117948  99.5540187  91.1353800
   5.8443119  98.9839403  91.3691629   4.3557303  99.1661787  91.5760306
   2.6343368  93.2661761  95.5948409   2.3026693  94.1357172  95.3709624
   2.0388981  92.9498045  96.2742439   2.5272031  97.9856847  92.6741759
   1.6188909  97.9172255  92.3800520   2.4759627  98.4628792  93.5023584
   4.3933678  96.1873285  94.4519633   3.7508058  96.4805818  93.8059427
   3.8888606  96.0726206  95.2572829   2.0473841  99.9336459  85.1405492
   2.9591697 100.1663845  84.9653189   1.5383488 100.5173503  84.5780570
   4.5332655 105.8516715  89.8863437   3.8483694 106.2315616  89.3360470
   4.6176505 106.4612041  90.6195385   1.7883587 103.4976674  96.4858781
   2.0000482 104.1408434  95.8093162   1.7413335 102.6638990  96.0180711
   2.9029415 106.3748629  94.6581138   3.7246859 105.9728817  94.3763820
   2.8991818 106.2716863  95.6097254  10.9935408 102.7187378  91.0066109
  10.2399116 102.1494776  90.8510114  11.1282949 102.6850042  91.9536744
   4.6711057 103.8572308  85.6545331   3.8940499 103.5183467  85.2100493
   5.3502538 103.8624931  84.9800296   2.9102363 103.3306289  92.3111939
   2.2526038 104.0205550  92.3992067   3.7142763 103.7202721  92.6545925
   1.7207822 101.6850662  90.3615881   2.2339704 102.3180653  90.8637590
   2.3709046 101.0851857  89.9959241   2.4869618 106.6656663  88.4895023
   2.0331946 105.8247573  88.5460214   1.8563585 107.3018061  88.8269803
   1.4302538  97.5948649  89.7195691   0.6925295  97.0826035  90.0505933
   1.6829312  97.1549031  88.9078967   0.9302558 108.5033160  89.4244841
   1.2225532 109.0638217  88.7057207   1.4401178 108.7961721  90.1798000
   1.5314165  90.3724901  90.3137460   1.8373042  89.5122265  90.0263375
   2.2566770  90.9642521  90.1136454   5.0699554 102.8716014  88.1168253
   4.9317452 103.0617610  87.1889442   4.7135772 103.6335397  88.5736304
   5.0968933 104.9392541  93.1279524   5.5305440 104.8467830  93.9762578
   5.8100514 104.9150042  92.4899540   5.9584483 104.9816242  95.6612410
   6.1520373 105.8862052  95.9071685   5.8585101 104.5223661  96.4950995
   1.0199591 105.1322985 101.2353290   0.8685098 104.9033536 100.3183374
   1.0104271 106.0893586 101.2484635   1.0737666 103.4543199  81.6523992
   0.4566837 102.7290027  81.5557044   0.6054155 104.2152559  81.3091066
   2.7291798 108.1642107  99.3129772   2.6704344 107.4801327  98.6460355
   3.1311316 108.9061097  98.8610398   2.7309205 106.1281691  97.5443752
   1.8435984 105.7907613  97.6670151   3.3007756 105.3964722  97.7812517
   7.2126546 101.5389909  92.3060313   7.2016422 102.4214624  91.9354247
   6.3443925 101.1861459  92.1114850   3.8299121 100.4338550  88.7730479
   4.2959573 101.2666541  88.6990782   4.2806621  99.9683531  89.4775738
   1.8975352 106.7782371  85.7716631   2.1735196 106.6638965  86.6810506
   1.0279850 106.3799856  85.7328805   1.8015783  92.8019137  92.8121381
   0.8878863  93.0323363  92.9803588   2.2308885  92.8857581  93.6635413
   1.5722242 100.9909028  95.3121275   0.9193692 101.2384936  94.6573728
   1.9502622 100.1773167  94.9783752   1.2143472 107.8657024 101.8893582
   1.7583376 108.4786983 101.3948537   0.6330317 108.4236603 102.4060595
   1.5635893 108.7886763  94.6488160   0.6166229 108.6692114  94.5766487
   1.9118666 107.9009261  94.7314422   2.1716448 109.4068038  91.9357385
   3.0962996 109.2010899  91.7981836   2.0031752 109.1584439  92.8446727
   1.9611765 109.9253705  87.2919477   2.1348642 109.3600127  86.5393329
   2.4540656 110.7254600  87.1098967   7.8151156 102.6890128  88.9109776
   8.2582302 101.9397453  88.5128900   6.9377666 102.6800264  88.5283508
   2.9486937 109.2420469  84.3916375   3.6437842 109.8627162  84.6103690
   3.2910087 108.3915821  84.6668753   4.8478360 106.6920175  85.9203706
   5.3729684 107.0307448  85.1953026   4.7600713 105.7567190  85.7366840
   4.5372266 107.3253079 101.2254904   3.7467810 107.3077217 100.6859403
   4.3005621 107.8641372 101.9803940   4.6570141 104.1745545  98.5387632
   4.7068146 104.0095552  99.4803155   4.5484065 103.3072804  98.1485513
   1.9473904 100.1576473  99.8546939   2.8483767 100.0182938  99.5630937
   2.0221878 100.3230928 100.7945116   6.1588338 106.5942486  98.7829654
   5.8673147 106.9572467  99.6193115   5.5460470 105.8809495  98.6042986
   7.3584021 104.1595366  91.3032224   8.1930912 104.5985170  91.4669784
   7.4943149 103.6834019  90.4840470   4.4075527 101.7175101  97.2509712
   4.8829648 101.9102747  96.4428563   3.4841092 101.7734287  97.0053095
   3.1077196  98.5940861  95.4838017   4.0594618  98.6938959  95.5050241
   2.9380646  97.8019130  95.9936102   1.1291575  95.6796444  95.6697418
   0.5341507  95.9601457  94.9743907   0.8441272  96.1690345  96.4414159
   2.8887082 108.9485242  81.3903998   2.8100714 108.6145105  82.2839756
   3.7096749 109.4407009  81.3895471   5.5865273 101.8146981  94.5980317
   5.5541593 100.8762982  94.7840001   6.1965897 101.8931018  93.8646142
   5.7359762  98.6058024  94.6438600   5.2198810  97.8216481  94.4568529
   6.6199710  98.2776741  94.8085120   3.3970489  92.3499040  90.6034413
   3.1995310  92.0414128  91.4877745   4.0070194  93.0760679  90.7332343
  11.4041823 102.8762988  93.7386354  12.1345212 102.6148276  94.2994057
  10.7948769 102.1391710  93.7788422   9.4857120 101.0170850  94.3360805
   8.7590284 100.8826815  93.7277297   9.0704407 101.3247679  95.1417523
   2.5322942  94.3408472  87.8609608   1.9521611  94.9993276  87.4787661
   2.2658875  93.5185816  87.4497026   0.9826509  93.7413530  90.0630929
   1.4826287  93.8530064  89.2545248   1.6262117  93.4374582  90.7031737
   1.3147820  96.5008562  86.9165957   0.4273675  96.7858213  86.6986151
   1.7301810  96.3402326  86.0693234   4.6662357  96.5255083  90.6320296
   5.4422747  97.0151536  90.9044913   3.9410491  96.9513137  91.0892165
   7.1034915  97.2382702  91.6894237   7.6979406  96.9978438  90.9787545
   7.1761499  96.5189833  92.3167773   1.2888844 102.0163098  87.1316247
   1.2324046 102.4731650  86.2923879   1.8417187 101.2553783  86.9539090
   5.0993650  97.8052830  87.9566366   4.8430584  97.4049466  88.7874574
   4.4746518  98.5196624  87.8316505   9.4105988 100.5448903  90.4637658
   8.8505546 100.6142093  91.2369220   8.8049491 100.3689888  89.7437154
   2.3677731 106.7035766  83.0612437   3.2023335 106.2716965  82.8789911
   2.2062074 106.5317780  83.9889331   2.0223623 103.2067879  84.4268776
   1.9672427 103.0412151  83.4857220   1.3969679 103.9143912  84.5830966
  10.9962006 117.2205417  93.1567613  11.6340416 117.1012165  92.4530953
  10.8782849 118.1686261  93.2155566   7.8051713 117.1732845  93.0929138
   7.4670224 117.0573910  92.2049673   8.6741481 116.7724010  93.0730144
   3.6638528 119.0268322  89.0826029   3.1003394 118.9358259  88.3142317
   3.5490923 118.2068226  89.5628522   8.2871496 118.3267697  99.0515344
   8.2760136 117.9320495  98.1795847   8.4492135 117.5933770  99.6449115
   1.2102960 120.5219513  91.9210250   2.0024252 120.1810338  91.5056549
   1.4499610 120.6314488  92.8412403   9.2438087 122.6939289  84.3940494
   8.5926067 123.2793370  84.0074508  10.0382450 123.2245484  84.4535531
   3.1693714 119.7828427  84.7927628   3.9424590 119.2357414  84.6540504
   3.5219113 120.6472676  85.0042090   5.0078757 121.1104809  97.9994528
   4.7168623 122.0150440  97.8841194   5.6435741 121.1521337  98.7138597
   5.9334964 118.4881657  94.5895887   6.5298536 118.2637680  93.8752850
   5.9909935 117.7466403  95.1921335   5.5059992 115.9421093  82.4246078
   5.7585513 115.4202614  81.6629541   4.5684551 115.7787238  82.5272762
  10.5503275 114.9456871  90.2320821  11.3366364 114.5276294  89.8811238
  10.8141979 115.8502963  90.4002470  10.7213352 120.3829721  84.9309478
  10.0859185 120.4564348  85.6430383  10.3910759 120.9723320  84.2528558
  15.9511702 114.8832104  91.1353800  16.6836874 114.3131321  91.3691629
  15.1951058 114.4953705  91.5760306   5.2256281 117.8449199  84.6270453
   5.1092539 117.1694102  85.2951538   5.3358541 117.3581573  83.8102606
   7.5687822 117.3059346  88.3317142   7.2046029 116.7789967  89.0430064
   8.4254938 116.9157815  88.1583628  13.4737122 108.5953678  95.5948409
  13.1420447 109.4649089  95.3709624  12.8782736 108.2789962  96.2742439
   7.2093309 112.3349246  83.3278491   7.3767711 113.2029482  83.6948962
   7.0190478 112.4976527  82.4039780   9.9668642 120.7966224  94.9944321
   9.6669365 121.6991263  94.8860129   9.6219701 120.5298408  95.8465474
   3.4181123 117.2480021  91.0281026   2.4931620 117.1156235  91.2358718
   3.6665537 118.0274240  91.5250968  13.3665786 113.3148765  92.6741759
  12.4582663 113.2464173  92.3800520  13.3153381 113.7920710  93.5023584
   7.1882530 114.7906903  84.3125158   7.0682155 115.2363954  85.1510638
   6.4935118 115.1392221  83.7538696   4.9489422 127.5610545  87.9615289
   4.8713451 128.5118370  88.0403770   4.3451065 127.2156417  88.6190215
   7.4406651 114.7338410 100.6176656   6.6639986 115.2932330 100.6079521
   8.0797215 115.2195193 101.1391526  15.2327432 111.5165203  94.4519633
  14.5901812 111.8097736  93.8059427  14.7282361 111.4018123  95.2572829
  12.8867596 115.2628376  85.1405492  13.7985452 115.4955763  84.9653189
  12.3777243 115.8465420  84.5780570   5.6953024 117.5423864 100.1794623
   6.4367708 118.0808908  99.9029447   4.9890009 118.1690152 100.3366175
  11.1708363 119.6853004  98.7766784  11.5791719 119.2435415  98.0321417
  10.4485625 119.1105632  99.0300977   7.5239433 114.6225611  96.1500341
   8.3700629 115.0465024  96.2934990   7.4638071 113.9659235  96.8438904
  11.4937178 120.2454195  92.5319073  10.8646040 120.4099909  91.8295141
  11.1062840 120.6595804  93.3030037  15.3726410 121.1808632  89.8863437
  14.6877448 121.5607534  89.3360470  15.4570259 121.7903959  90.6195385
  10.6738879 112.2829979  97.8081515  10.4299811 113.0372040  97.2715791
  10.9498809 112.6615327  98.6428762  12.6277342 118.8268592  96.4858781
  12.8394237 119.4700351  95.8093162  12.5807090 117.9930908  96.0180711
  10.2303571 111.4386412  93.3895353   9.3688050 111.7367666  93.6812090
  10.2566005 111.6556811  92.4576385   7.0465140 119.9828603  89.7969158
   7.5103485 120.2616306  89.0073781   6.7821938 119.0812047  89.6142249
   3.9389221 119.5300084  92.7348922   4.5090578 119.9587353  92.0966406
   4.5297333 119.2482669  93.4333107   5.9834026 116.1051755  86.6058724
   6.6858069 116.5572799  87.0732650   5.6514654 115.4635574  87.2338617
   4.4314388 114.6963512 100.9809933   3.8013048 115.3779793 101.2145330
   4.3250475 114.5846593 100.0363071  13.7423169 121.7040547  94.6581138
  14.5640613 121.3020734  94.3763820  13.7385572 121.6008781  95.6097254
   1.6774105 114.7279887  88.8659334   0.8805269 114.8398581  89.3842829
   1.4499698 115.0666539  88.0000224   7.5079773 121.2524590  96.8141848
   7.5724205 121.7144997  97.6500020   6.7990697 120.6221955  96.9424158
  21.8329163 118.0479295  91.0066109  21.0792871 117.4786693  90.8510114
  21.9676704 118.0141960  91.9536744   7.2227791 122.9192698  86.6820829
   7.0873465 123.7644233  87.1105677   7.7637603 123.1211975  85.9186763
   3.7095130 108.9984278 103.3435184   3.3162076 108.4450476 104.0182828
   4.5261271 109.3094856 103.7341701   0.6757188 120.4368136  87.2548754
   1.1881709 121.2311386  87.4054318   1.3279901 119.7394426  87.1882355
   2.4852073 123.5533892  89.3371507   2.6618701 124.4751857  89.1492491
   3.2808906 123.2392311  89.7665887   6.6263091 110.4142157 100.9355441
   7.3672805 111.0149310 100.8559903   6.8581014 109.6719794 100.3773483
   1.7704429 115.5998524  99.2133670   1.6557944 114.6983781  99.5140769
   0.9148947 115.8462221  98.8618487   8.8496267 123.5416264 100.8121171
   8.4060121 122.7552643 100.4942075   9.5113481 123.7295415 100.1465062
   3.6083388 125.0712066  95.3381849   4.1590813 124.9429129  94.5658843
   2.7694864 125.3706955  94.9876742  10.9477505 123.8219064  98.8402572
  10.9295980 124.6427945  98.3482841  11.8697425 123.6973139  99.0652713
   7.4050559 121.3363194  99.6826080   7.9378896 120.5751482  99.4525388
   6.8764640 121.0436845 100.4250235  10.5720254 106.4423260  95.2119722
  10.2284524 107.3324901  95.1358833  10.9399217 106.2524917  94.3489307
  10.5370537 116.4331871  83.7192157  10.0217160 117.2036475  83.9580545
  10.2647845 115.7597007  84.3425219   8.1217648 111.2781571  88.7777396
   7.2659244 110.8888422  88.5983034   8.5344600 111.3573532  87.9177181
   9.6516795 108.8127915  93.1768955   9.1481590 108.7758050  92.3636761
   9.9447401 109.7220657  93.2365612   5.8959680 108.8966644  92.1835137
   6.7612677 108.7009453  91.8241027   5.9637189 108.6676996  93.1104494
  15.5104811 119.1864225  85.6545331  14.7334254 118.8475385  85.2100493
  16.1896292 119.1916849  84.9800296  10.3256840 114.3058963  85.5451938
  10.0206976 114.6205112  86.3962082  11.2787282 114.3840383  85.5879271
   8.7703272 120.4649186  87.1944892   8.2424633 119.7301946  86.8818130
   8.2690775 121.2423862  86.9484861  13.7496118 118.6598207  92.3111939
  13.0919792 119.3497468  92.3992067  14.5536517 119.0494639  92.6545925
   3.5022000 111.1268852  89.5551504   4.0765751 110.9044034  88.8224697
   4.0892982 111.1957547  90.3080105  12.5601577 117.0142579  90.3615881
  13.0733458 117.6472571  90.8637590  13.2102801 116.4143775  89.9959241
   3.8291587 113.1573313  83.5747389   2.9928899 113.4948000  83.8956664
   3.6896356 113.0222293  82.6374526   5.8044667 108.0010101  88.2826573
   5.1509080 107.6859118  87.6583188   5.7625141 107.3785842  89.0086396
   6.9155872 118.2829396  80.1979865   6.0082934 118.0518650  80.3971014
   7.4126904 117.4867016  80.3853847   9.8223951 126.9926904  83.1176552
   9.1485650 127.2958600  83.7261509  10.2089773 127.7955984  82.7682009
   9.0382408 114.4892035  92.6074221   8.1204969 114.7106982  92.4495909
   9.4542551 114.5638345  91.7485928   9.8217455 115.8883451  87.7376901
  10.5689274 116.4004848  87.4284023  10.0909045 115.5667503  88.5981295
   8.0944106 118.3841991  84.7203856   7.1855325 118.1001024  84.8176325
   8.1239189 118.8041070  83.8607162  13.3263373 121.9948581  88.4895023
  12.8725700 121.1539491  88.5460214  12.6957340 122.6309979  88.8269803
  12.2696293 112.9240567  89.7195691  11.5319049 112.4117953  90.0505933
  12.5223066 112.4840948  88.9078967  11.7696312 123.8325077  89.4244841
  12.0619287 124.3930135  88.7057207  12.2794933 124.1253638  90.1798000
  12.3707920 105.7016819  90.3137460  12.6766797 104.8414182  90.0263375
  13.0960525 106.2934439  90.1136454   6.6429000 115.9970612  90.8213651
   6.6977609 115.0444448  90.7456128   5.8320202 116.1530051  91.3054949
   7.7920193 119.9250735  82.0591934   7.3539623 119.2086594  81.5997572
   8.5330634 120.1526850  81.4977026   4.5821359 114.6147672  88.5804030
   3.7689225 114.9141842  88.9869222   5.0780354 114.2203360  89.2978512
   6.7329937 124.6105429  90.5138294   6.6906116 124.8366275  89.5846827
   7.6492636 124.3768803  90.6624096  10.1795571 115.0789496  97.4118924
  10.5344959 115.3060969  98.2713389  10.8267702 115.4107873  96.7896179
  15.9093308 118.2007932  88.1168253  15.7711207 118.3909528  87.1889442
  15.5529527 118.9627315  88.5736304   4.0735434 112.1866027  94.1965265
   4.7134814 112.0454786  93.4988228   3.2412965 111.9000541  93.8203867
  15.9362688 120.2684459  93.1279524  16.3699194 120.1759748  93.9762578
  16.6494268 120.2441959  92.4899540   4.8495738 121.4868458  90.3100257
   5.6436337 120.9918778  90.1082832   4.1387431 120.9586321  89.9467963
   9.6690583 123.8686553  94.6612625   9.7227605 124.4377489  95.4290341
   8.8005364 124.0388438  94.2966662   1.0764051 112.1566352  88.9738252
   1.3370868 113.0711685  88.8647412   1.8981223 111.6890795  89.1234864
   2.5488976 113.5704109  96.1437076   3.2212029 113.3621471  95.4949725
   1.7218763 113.3726195  95.7042308  16.7978237 120.3108160  95.6612410
  16.9914127 121.2153970  95.9071685  16.6978855 119.8515579  96.4950995
   8.4514548 110.1966050  98.1602737   7.8042463 110.8956000  98.0667213
   9.2215563 110.6302194  98.5278985  11.8593346 120.4614902 101.2353290
  11.7078852 120.2325454 100.3183374  11.8498025 121.4185504 101.2484635
   8.6278682 118.0346815  96.2199557   9.5570742 118.1857975  96.0468524
   8.2069712 118.1230836  95.3648203   7.4267014 122.0597480  93.9898094
   7.2878100 121.6916264  94.8624032   6.6381610 122.5745119  93.8182052
   8.0215166 127.1606576  85.3323631   8.1966922 126.6894619  86.1469254
   7.3347954 127.7872342  85.5604892   8.9772229 121.4379082  91.3786932
   8.6422062 121.3979852  92.2744582   8.4776175 120.7723798  90.9057342
   2.9516473 116.8446712  96.9039513   2.8136271 116.1126951  97.5051052
   3.8621397 116.7555612  96.6223701  11.9131421 118.7835117  81.6523992
  11.2960592 118.0581945  81.5557044  11.4447909 119.5444477  81.3091066
   5.5798774 116.5566672  96.3923193   6.2898392 115.9159864  96.3509811
   5.5368082 116.8079566  97.3149374  13.5685553 123.4934025  99.3129772
  13.5098099 122.8093245  98.6460355  13.9705071 124.2353015  98.8610398
   4.2927708 113.5431889  98.2118832   3.7565065 113.0922628  98.8640429
   3.7044416 113.6777798  97.4689297   2.5876251 130.3095939  92.1063491
   2.8272850 130.9414463  92.7842510   1.7445448 129.9583979  92.3928850
   3.7029967 113.0020541  80.7745296   2.8259433 112.8809342  80.4107543
   4.1787720 112.2106619  80.5224185  13.5702960 121.4573609  97.5443752
  12.6829739 121.1199531  97.6670151  14.1401511 120.7256640  97.7812517
   7.1004113 126.1175061  94.5104995   7.0274285 126.9230033  95.0224300
   6.6581506 126.3167027  93.6853016   6.8893893 125.3546831  88.0207817
   6.1061415 125.8968511  88.1146041   7.5886638 125.8720811  88.4202058
  10.1990543 111.1641461  90.6642022  10.6959243 110.4111423  90.3443092
   9.4277525 111.2005777  90.0985231  18.0520300 116.8681826  92.3060313
  18.0410177 117.7506542  91.9354247  17.1837680 116.5153377  92.1114850
   9.5602797 126.0161895  96.6663154  10.2730769 126.6509360  96.5939055
   9.0692825 126.1125761  95.8503155  11.2820324 119.9213148  88.2380445
  10.3476602 120.0414610  88.0685150  11.4596992 119.0185615  87.9740455
   6.7825512 113.3058844  90.3913707   6.4123299 112.7529884  91.0794612
   7.2784604 112.7016977  89.8388707  14.6692875 115.7630467  88.7730479
  15.1353327 116.5958459  88.6990782  15.1200376 115.2975449  89.4775738
   4.6114710 123.7656339  97.4868724   5.3124170 124.3992822  97.6398119
   4.1409825 124.1071070  96.7264364  12.7369106 122.1074288  85.7716631
  13.0128950 121.9930883  86.6810506  11.8673605 121.7091773  85.7328805
  12.6409538 108.1311054  92.8121381  11.7272618 108.3615281  92.9803588
  13.0702639 108.2149498  93.6635413  12.4115996 116.3200946  95.3121275
  11.7587447 116.5676854  94.6573728  12.7896376 115.5065084  94.9783752
   9.3723170 126.3560639  89.4149445   9.5545565 125.5382295  89.8777197
  10.1956156 126.5728332  88.9774335   9.7065336 125.2828824  86.6764494
  10.2353102 124.7721279  86.0634656   9.9693555 124.9671355  87.5410027
   8.4603569 117.0620757 101.7987312   7.7844206 116.9614887 102.4689687
   9.2831203 116.9059971 102.2623309   3.0621084 126.3343941  89.4362270
   2.3931459 126.8190069  88.9526310   2.9233953 126.5813162  90.3505648
   7.2026352 128.3687685  96.0344928   7.7544660 128.5319306  96.7994013
   7.5432546 128.9592122  95.3624953   2.1790845 110.7162834  96.6366813
   2.2432172 111.5777665  96.2244210   2.1157966 110.1036836  95.9039171
   1.6543118 112.7885967 100.2839847   2.2815157 112.4063044 100.8977371
   0.7971037 112.5700169 100.6495539  12.0537227 123.1948942 101.8893582
  12.5977130 123.8078900 101.3948537  11.4724071 123.7528521 102.4060595
  10.3394739 126.3169660  93.0208610  10.2145879 125.5159400  92.5119556
  10.9973831 126.8115854  92.5322580   1.9602908 112.6718393  92.1985750
   1.2389493 113.2854360  92.0593224   2.7496163 113.2076158  92.1202396
  12.4029648 124.1178680  94.6488160  11.4559983 123.9984031  94.5766487
  12.7512421 123.2301178  94.7314422   4.7629221 110.0072819  98.4726402
   5.2863623 110.2535116  99.2352711   4.5441554 110.8392854  98.0529539
   9.4076081 123.9131396  90.8492512   9.2601044 122.9848104  91.0300082
  10.2329575 123.9351487  90.3649588   3.2738325 112.5649464  86.7073005
   3.6134398 113.0935385  85.9851613   3.7210446 112.9029870  87.4831571
  13.0110203 124.7359955  91.9357385  13.9356750 124.5302817  91.7981836
  12.8425506 124.4876356  92.8446727   5.9681766 110.9486514  96.1576073
   5.6278587 110.1494327  96.5596752   5.2620773 111.2488225  95.5852906
   6.6198238 108.0335827  94.6103396   7.4424307 107.5596305  94.4882286
   6.8636302 108.8126310  95.1102082   5.2606473 111.0624085  84.9066297
   5.9814835 111.4405338  84.4030014   4.6371777 111.7812962  85.0101275
   9.4037595 111.7669234  85.8424630   9.6201210 112.6493872  85.5413458
   8.9231663 111.3755448  85.1130272   4.1436817 114.7254947  92.4195374
   3.9981398 115.0395250  93.3119656   3.6662020 115.3439848  91.8666273
   6.0033200 111.7157495  92.4676264   5.9894768 110.8198589  92.1308562
   6.7205628 111.7228159  93.1014550   7.8559330 112.1494836  94.5129391
   7.5977108 113.0711906  94.5113722   7.3244371 111.7525270  95.2029855
  12.8005519 125.2545623  87.2919477  12.9742397 124.6892045  86.5393329
  13.2934410 126.0546518  87.1098967   5.4070096 110.5971876  87.7363834
   5.5286007 109.6688522  87.9354721   5.1172138 110.6110562  86.8242149
   8.2761286 108.2826786  90.8730554   8.2982983 108.3466119  89.9182533
   8.6929345 107.4431295  91.0671060  18.6544910 118.0182046  88.9109776
  19.0976056 117.2689371  88.5128900  17.7771421 118.0092182  88.5283508
  13.7880692 124.5712387  84.3916375  14.4831596 125.1919080  84.6103690
  14.1303842 123.7207738  84.6668753  15.6872115 122.0212093  85.9203706
  16.2123439 122.3599365  85.1953026  15.5994467 121.0859108  85.7366840
   7.3492164 125.9346166  98.0493582   7.6579290 125.6895313  98.9216282
   8.1467646 126.1392805  97.5612452   7.3712776 128.0884076  90.2798959
   6.9317766 127.5960455  90.9731816   8.1220893 127.5457044  90.0391034
   4.8186648 123.6322085  92.3521260   4.1966657 122.9692790  92.0523488
   5.4891515 123.6583217  91.6694908   4.8911175 112.1103873 101.9453767
   4.9399331 112.9865996 101.5631536   5.4333689 111.5681266 101.3725410
  15.3766021 122.6544996 101.2254904  14.5861565 122.6369135 100.6859403
  15.1399375 123.1933290 101.9803940  15.4963896 119.5037463  98.5387632
  15.5461901 119.3387470  99.4803155  15.3877819 118.6364722  98.1485513
   4.3800155 122.1826008  85.8279721   4.5288275 122.8661473  85.1746394
   5.1866598 122.1631098  86.3429177  12.7867658 115.4868391  99.8546939
  13.6877521 115.3474855  99.5630937  12.8615633 115.6522845 100.7945116
   7.1210464 112.8635245  98.7000125   6.2513773 113.1568811  98.4282714
   7.3569944 113.4475690  99.4207389  16.9982093 121.9234404  98.7829654
  16.7066901 122.2864385  99.6193115  16.3854224 121.2101412  98.6042986
  18.1977775 119.4887284  91.3032224  19.0324666 119.9277088  91.4669784
  18.3336904 119.0125937  90.4840470  15.2469281 117.0467019  97.2509712
  15.7223403 117.2394665  96.4428563  14.3234846 117.1026205  97.0053095
   2.1352788 118.2091186  86.8340790   1.8898830 117.3053516  87.0321000
   2.3048702 118.2108336  85.8920268   9.8249497 109.0814862  96.2165546
  10.3431441 109.8175889  95.8912034   9.4704630 109.3878856  97.0512305
   1.4048435 113.9419544  84.3326951   0.7117680 114.0163899  83.6766987
   1.1600187 113.1779887  84.8548468  10.0762092 105.5015145  91.7366442
  10.3563845 104.8338334  92.3626869  10.8612699 105.6944240  91.2241106
   7.8795560 124.6774139  83.2991468   7.3069527 125.2964326  82.8461940
   8.4528354 125.2273500  83.8331390  13.9470950 113.9232779  95.4838017
  14.8988373 114.0230877  95.5050241  13.7774400 113.1311047  95.9936102
  11.9685329 111.0088362  95.6697418  11.3735262 111.2893375  94.9743907
  11.6835026 111.4982263  96.4414159  11.0992820 124.9611289  84.4300051
  12.0323493 124.8956851  84.6332926  11.0116033 125.7967556  83.9714583
  13.7280837 124.2777159  81.3903998  13.6494468 123.9437023  82.2839756
  14.5490503 124.7698927  81.3895471  16.4259028 117.1438899  94.5980317
  16.3935348 116.2054899  94.7840001  17.0359651 117.2222935  93.8646142
   8.2642359 116.0134952  80.6407521   9.2101463 115.8841160  80.7095939
   7.8856604 115.2749613  81.1176949  16.5753516 113.9349942  94.6438600
  16.0592565 113.1508399  94.4568529  17.4593465 113.6068659  94.8085120
  14.2364243 107.6790958  90.6034413  14.0389064 107.3706046  91.4877745
  14.8463949 108.4052596  90.7332343  22.2435578 118.2054905  93.7386354
  22.9738966 117.9440194  94.2994057  21.6342523 117.4683627  93.7788422
  20.3250875 116.3462768  94.3360805  19.5984038 116.2118733  93.7277297
  19.9098162 116.6539597  95.1417523   8.1481051 120.0652698 102.1008178
   9.0684061 120.2431297 102.2948224   8.1130634 119.1208743 101.9487877
   6.4485276 113.9384928  80.5762406   5.5416731 113.6418041  80.6525120
   6.7261257 113.6414746  79.7096692   1.1443124 117.9753732  94.7430959
   1.3629134 118.9070840  94.7618993   1.5568898 117.6161707  95.5285763
   8.0647342 108.4821818  86.7306647   7.2548070 108.1368903  87.1061894
   8.7531758 108.1729361  87.3194259   9.9937890 107.5599864  88.3530944
  10.5468928 107.9795318  89.0120967  10.2307976 106.6335613  88.3953900
   6.0170989 113.5486938 104.1333708   5.9167716 114.4981295 104.0645799
   5.7992531 113.2205177 103.2609778   5.2184060 110.7971863  80.7174385
   6.0803224 111.1226761  80.9770203   5.4034405 110.0103359  80.2047451
  13.3716697 109.6700390  87.8609608  12.7915366 110.3285194  87.4787661
  13.1052630 108.8477734  87.4497026  11.8220263 109.0705447  90.0630929
  12.3220042 109.1821982  89.2545248  12.4655871 108.7666500  90.7031737
   5.8802259 116.9784077 102.9498770   5.3969341 117.7784437 103.1562659
   5.9663198 116.9892022 101.9966214   1.8075597 120.8688612  94.9867203
   2.7618850 120.8372554  94.9197135   1.6088120 120.4079235  95.8017429
   2.3974979 119.4389728  97.5538001   3.2167868 119.9333806  97.5772838
   2.6711786 118.5221696  97.5255569  12.1541575 111.8300480  86.9165957
  11.2667430 112.1150131  86.6986151  12.5695564 111.6694243  86.0693234
  15.5056111 111.8547001  90.6320296  16.2816501 112.3443453  90.9044913
  14.7804245 112.2805055  91.0892165  17.9428670 112.5674620  91.6894237
  18.5373160 112.3270356  90.9787545  18.0155253 111.8481751  92.3167773
  11.2984788 121.5945155  81.0113977  12.0020639 121.7995157  81.6271632
  10.5747437 122.1621917  81.2763060  12.1282599 117.3455016  87.1316247
  12.0717800 117.8023567  86.2923879  12.6810941 116.5845700  86.9539090
  15.9387405 113.1344748  87.9566366  15.6824339 112.7341383  88.7874574
  15.3140273 113.8488542  87.8316505  20.2499742 115.8740821  90.4637658
  19.6899300 115.9434010  91.2369220  19.6443246 115.6981806  89.7437154
   3.3194951 127.3077548  92.2155844   3.2027335 128.2522981  92.1134534
   2.4987398 127.0051110  92.6041643  13.2071486 122.0327684  83.0612437
  14.0417090 121.6008882  82.8789911  13.0455829 121.8609698  83.9889331
  12.8617378 118.5359797  84.4268776  12.8066182 118.3704069  83.4857220
  12.2363433 119.2435830  84.5830966  10.1763285 120.8408709 103.7522339
  11.0454445 121.0149361 103.3908974   9.6970037 121.6603126 103.6298068
   6.1713503 108.0367906  84.0054094   6.1592173 108.9809746  84.1622365
   7.0636925 107.8538052  83.7113556   4.3449465 127.9605810  95.4311772
   5.2476712 127.9929420  95.7478267   4.1186835 127.0306261  95.4458108
   6.1003067 126.7136797  92.0921851   5.1498698 126.7138658  91.9786223
   6.4035554 125.9669531  91.5757886   9.9865623 104.6310683  88.2600031
   9.2198019 104.0769169  88.4056714  10.3976328 104.7032552  89.1214183
   1.9907384 110.9195479 102.3505212   2.8538846 110.5632283 102.5608537
   1.4172795 110.5809373 103.0380617  21.8355761 132.5497335  93.1567613
  22.4734171 132.4304082  92.4530953  21.7176604 133.4978179  93.2155566
  18.6445467 132.5024763  93.0929138  18.3063979 132.3865828  92.2049673
  19.5135235 132.1015928  93.0730144  14.5032283 134.3560239  89.0826029
  13.9397148 134.2650176  88.3142317  14.3884678 133.5360144  89.5628522
  19.1265250 133.6559615  99.0515344  19.1153891 133.2612413  98.1795847
  19.2885890 132.9225687  99.6449115  12.0496715 135.8511431  91.9210250
  12.8418007 135.5102256  91.5056549  12.2893365 135.9606406  92.8412403
  20.0831842 138.0231207  84.3940494  19.4319821 138.6085288  84.0074508
  20.8776204 138.5537402  84.4535531  14.0087469 135.1120344  84.7927628
  14.7818345 134.5649331  84.6540504  14.3612868 135.9764594  85.0042090
  15.8472511 136.4396727  97.9994528  15.5562377 137.3442357  97.8841194
  16.4829496 136.4813254  98.7138597  16.7728718 133.8173575  94.5895887
  17.3692290 133.5929598  93.8752850  16.8303690 133.0758321  95.1921335
  16.3453747 131.2713010  82.4246078  16.5979267 130.7494532  81.6629541
  15.4078306 131.1079156  82.5272762  21.3897029 130.2748789  90.2320821
  22.1760119 129.8568212  89.8811238  21.6535734 131.1794881  90.4002470
  21.5607107 135.7121639  84.9309478  20.9252940 135.7856266  85.6430383
  21.2304513 136.3015238  84.2528558  26.7905457 130.2124022  91.1353800
  27.5230628 129.6423239  91.3691629  26.0344812 129.8245622  91.5760306
  16.0650035 133.1741116  84.6270453  15.9486293 132.4986020  85.2951538
  16.1752295 132.6873490  83.8102606  18.4081576 132.6351263  88.3317142
  18.0439783 132.1081884  89.0430064  19.2648692 132.2449733  88.1583628
  24.3130877 123.9245596  95.5948409  23.9814202 124.7941007  95.3709624
  23.7176490 123.6081880  96.2742439  18.0487063 127.6641163  83.3278491
  18.2161466 128.5321400  83.6948962  17.8584232 127.8268445  82.4039780
  20.8062396 136.1258142  94.9944321  20.5063119 137.0283181  94.8860129
  20.4613456 135.8590325  95.8465474  14.2574878 132.5771939  91.0281026
  13.3325374 132.4448153  91.2358718  14.5059291 133.3566158  91.5250968
  24.2059540 128.6440682  92.6741759  23.2976418 128.5756091  92.3800520
  24.1547136 129.1212627  93.5023584  18.0276284 130.1198821  84.3125158
  17.9075909 130.5655871  85.1510638  17.3328872 130.4684138  83.7538696
  11.6183689 132.2205212  91.8624815  11.7476070 132.4739691  92.7764227
  10.9381140 132.8132920  91.5429470  18.2800406 130.0630328 100.6176656
  17.5033740 130.6224248 100.6079521  18.9190969 130.5487111 101.1391526
  26.0721187 126.8457121  94.4519633  25.4295567 127.1389654  93.8059427
  25.5676115 126.7310041  95.2572829  23.7261350 130.5920294  85.1405492
  24.6379206 130.8247681  84.9653189  23.2170997 131.1757338  84.5780570
  16.5346778 132.8715781 100.1794623  17.2761463 133.4100825  99.9029447
  15.8283764 133.4982070 100.3366175  22.0102118 135.0144922  98.7766784
  22.4185474 134.5727332  98.0321417  21.2879379 134.4397549  99.0300977
  18.3633188 129.9517528  96.1500341  19.2094383 130.3756942  96.2934990
  18.3031826 129.2951153  96.8438904  22.3330933 135.5746112  92.5319073
  21.7039795 135.7391826  91.8295141  21.9456595 135.9887722  93.3030037
  26.2120164 136.5100550  89.8863437  25.5271203 136.8899452  89.3360470
  26.2964014 137.1195877  90.6195385  21.5132633 127.6121897  97.8081515
  21.2693565 128.3663957  97.2715791  21.7892564 127.9907244  98.6428762
  23.4671096 134.1560509  96.4858781  23.6787991 134.7992269  95.8093162
  23.4200844 133.3222826  96.0180711  21.0697325 126.7678330  93.3895353
  20.2081804 127.0659583  93.6812090  21.0959760 126.9848729  92.4576385
  17.8858894 135.3120520  89.7969158  18.3497240 135.5908223  89.0073781
  17.6215693 134.4103965  89.6142249  14.7782975 134.8592002  92.7348922
  15.3484333 135.2879270  92.0966406  15.3691087 134.5774587  93.4333107
  16.8227780 131.4343673  86.6058724  17.5251824 131.8864716  87.0732650
  16.4908409 130.7927492  87.2338617  15.2708142 130.0255429 100.9809933
  14.6406803 130.7071710 101.2145330  15.1644230 129.9138511 100.0363071
  10.5653114 129.6927225  91.9075857   9.7752168 129.9484754  91.4315968
  11.0564362 130.5075563  92.0127898  24.5816924 137.0332465  94.6581138
  25.4034368 136.6312652  94.3763820  24.5779327 136.9300699  95.6097254
  12.5167860 130.0571805  88.8659334  11.7199023 130.1690499  89.3842829
  12.2893452 130.3958457  88.0000224  18.3473527 136.5816508  96.8141848
  18.4117960 137.0436915  97.6500020  17.6384451 135.9513873  96.9424158
   8.8490817 129.9457716  94.3390848   9.0998856 130.8304726  94.6048424
   9.3850366 129.7662317  93.5665940  32.6722917 133.3771213  91.0066109
  31.9186625 132.8078611  90.8510114  32.8070458 133.3433878  91.9536744
  18.0621545 138.2484615  86.6820829  17.9267220 139.0936151  87.1105677
  18.6031358 138.4503893  85.9186763  14.5488885 124.3276195 103.3435184
  14.1555830 123.7742394 104.0182828  15.3655025 124.6386774 103.7341701
  11.5150942 135.7660053  87.2548754  12.0275463 136.5603304  87.4054318
  12.1673655 135.0686344  87.1882355  17.4656846 125.7434074 100.9355441
  18.2066559 126.3441227 100.8559903  17.6974769 125.0011712 100.3773483
  12.6098184 130.9290442  99.2133670  12.4951699 130.0275699  99.5140769
  11.7542701 131.1754138  98.8618487  19.6890021 138.8708182 100.8121171
  19.2453876 138.0844560 100.4942075  20.3507235 139.0587332 100.1465062
  21.7871260 139.1510982  98.8402572  21.7689735 139.9719863  98.3482841
  22.7091180 139.0265057  99.0652713  18.2444314 136.6655111  99.6826080
  18.7772650 135.9043400  99.4525388  17.7158395 136.3728763 100.4250235
  21.4114009 121.7715177  95.2119722  21.0678278 122.6616819  95.1358833
  21.7792971 121.5816835  94.3489307   9.4799859 134.0948708  88.0308324
  10.3175081 134.5045716  87.8142032   9.6578127 133.1548150  88.0008518
  21.3764291 131.7623788  83.7192157  20.8610915 132.5328393  83.9580545
  21.1041600 131.0888925  84.3425219  18.9611402 126.6073489  88.7777396
  18.1052999 126.2180340  88.5983034  19.3738354 126.6865450  87.9177181
  20.4910549 124.1419832  93.1768955  19.9875345 124.1049968  92.3636761
  20.7841156 125.0512575  93.2365612  16.7353435 124.2258562  92.1835137
  17.6006432 124.0301371  91.8241027  16.8030944 123.9968914  93.1104494
  26.3498566 134.5156143  85.6545331  25.5728008 134.1767303  85.2100493
  27.0290046 134.5208766  84.9800296  21.1650595 129.6350880  85.5451938
  20.8600730 129.9497030  86.3962082  22.1181037 129.7132300  85.5879271
  19.6097026 135.7941104  87.1944892  19.0818388 135.0593863  86.8818130
  19.1084529 136.5715780  86.9484861  24.5889872 133.9890124  92.3111939
  23.9313547 134.6789386  92.3992067  25.3930272 134.3786556  92.6545925
  14.3415754 126.4560770  89.5551504  14.9159506 126.2335952  88.8224697
  14.9286736 126.5249465  90.3080105  23.3995331 132.3434497  90.3615881
  23.9127213 132.9764489  90.8637590  24.0496555 131.7435692  89.9959241
  14.6685341 128.4865231  83.5747389  13.8322653 128.8239918  83.8956664
  14.5290111 128.3514211  82.6374526  16.6438422 123.3302019  88.2826573
  15.9902834 123.0151036  87.6583188  16.6018896 122.7077759  89.0086396
  17.7549627 133.6121314  80.1979865  16.8476688 133.3810568  80.3971014
  18.2520659 132.8158933  80.3853847  19.8776162 129.8183953  92.6074221
  18.9598723 130.0398900  92.4495909  20.2936306 129.8930263  91.7485928
  20.6611210 131.2175368  87.7376901  21.4083029 131.7296765  87.4284023
  20.9302799 130.8959421  88.5981295  18.9337860 133.7133909  84.7203856
  18.0249079 133.4292942  84.8176325  18.9632944 134.1332987  83.8607162
  24.1657127 137.3240498  88.4895023  23.7119455 136.4831408  88.5460214
  23.5351094 137.9601897  88.8269803  23.1090047 128.2532484  89.7195691
  22.3712804 127.7409871  90.0505933  23.3616821 127.8132866  88.9078967
  22.6090067 139.1616995  89.4244841  22.9013041 139.7222052  88.7057207
  23.1188687 139.4545556  90.1798000  23.2101674 121.0308736  90.3137460
  23.5160551 120.1706100  90.0263375  23.9354279 121.6226357  90.1136454
   9.5026030 131.4339423  88.7019058   9.3050430 130.8408784  87.9770124
   8.9472694 131.1291633  89.4194997  17.4822754 131.3262530  90.8213651
  17.5371364 130.3736366  90.7456128  16.6713956 131.4821969  91.3054949
  18.6313948 135.2542653  82.0591934  18.1933378 134.5378512  81.5997572
  19.3724389 135.4818767  81.4977026  15.4215114 129.9439589  88.5804030
  14.6082980 130.2433760  88.9869222  15.9174108 129.5495278  89.2978512
  17.5723692 139.9397346  90.5138294  17.5299871 140.1658193  89.5846827
  18.4886391 139.7060721  90.6624096  21.0189326 130.4081414  97.4118924
  21.3738713 130.6352887  98.2713389  21.6661457 130.7399791  96.7896179
  26.7487063 133.5299850  88.1168253  26.6104961 133.7201446  87.1889442
  26.3923281 134.2919232  88.5736304  14.9129189 127.5157945  94.1965265
  15.5528568 127.3746704  93.4988228  14.0806719 127.2292458  93.8203867
  26.7756442 135.5976377  93.1279524  27.2092949 135.5051666  93.9762578
  27.4888023 135.5733877  92.4899540  15.6889493 136.8160375  90.3100257
  16.4830091 136.3210695  90.1082832  14.9781185 136.2878238  89.9467963
  20.5084337 139.1978471  94.6612625  20.5621359 139.7669407  95.4290341
  19.6399118 139.3680356  94.2966662  11.9972256 130.9603457  86.3860010
  11.0669844 130.8987912  86.6029972  12.0929728 130.4379410  85.5896651
  11.9157805 127.4858270  88.9738252  12.1764622 128.4003603  88.8647412
  12.7374977 127.0182712  89.1234864  13.3882730 128.8996027  96.1437076
  14.0605784 128.6913389  95.4949725  12.5612517 128.7018113  95.7042308
  27.6371992 135.6400077  95.6612410  27.8307882 136.5445888  95.9071685
  27.5372610 135.1807496  96.4950995  19.2908303 125.5257968  98.1602737
  18.6436218 126.2247918  98.0667213  20.0609318 125.9594112  98.5278985
  22.6987100 135.7906820 101.2353290  22.5472607 135.5617372 100.3183374
  22.6891780 136.7477421 101.2484635  19.4672437 133.3638733  96.2199557
  20.3964497 133.5149892  96.0468524  19.0463467 133.4522754  95.3648203
  18.2660769 137.3889397  93.9898094  18.1271854 137.0208182  94.8624032
  17.4775365 137.9037037  93.8182052  19.8165984 136.7671000  91.3786932
  19.4815816 136.7271770  92.2744582  19.3169929 136.1015716  90.9057342
  13.7910228 132.1738630  96.9039513  13.6530026 131.4418869  97.5051052
  14.7015151 132.0847530  96.6223701  22.7525175 134.1127034  81.6523992
  22.1354346 133.3873862  81.5557044  22.2841664 134.8736395  81.3091066
  16.4192528 131.8858589  96.3923193  17.1292147 131.2451781  96.3509811
  16.3761837 132.1371484  97.3149374  24.4079307 138.8225943  99.3129772
  24.3491853 138.1385163  98.6460355  24.8098825 139.5644933  98.8610398
  15.1321462 128.8723807  98.2118832  14.5958819 128.4214546  98.8640429
  14.5438171 129.0069716  97.4689297  14.5423721 128.3312459  80.7745296
  13.6653188 128.2101259  80.4107543  15.0181474 127.5398537  80.5224185
  24.4096714 136.7865527  97.5443752  23.5223493 136.4491448  97.6670151
  24.9795265 136.0548558  97.7812517   6.0625861 133.1189618  90.8686803
   6.7496901 132.8051348  90.2807818   5.9073990 134.0230983  90.5954055
  10.8660584 128.0079815  95.2971827  10.7818772 127.4005484  94.5622237
  10.0443290 128.4988833  95.2981323  21.0384297 126.4933378  90.6642022
  21.5352997 125.7403341  90.3443092  20.2671279 126.5297695  90.0985231
  28.8914055 132.1973744  92.3060313  28.8803931 133.0798459  91.9354247
  28.0231434 131.8445295  92.1114850  22.1214078 135.2505066  88.2380445
  21.1870357 135.3706528  88.0685150  22.2990747 134.3477532  87.9740455
  17.6219266 128.6350761  90.3913707  17.2517054 128.0821802  91.0794612
  18.1178359 128.0308895  89.8388707  25.5086630 131.0922385  88.7730479
  25.9747082 131.9250376  88.6990782  25.9594130 130.6267366  89.4775738
  15.4508465 139.0948256  97.4868724  16.1517924 139.7284739  97.6398119
  14.9803580 139.4362988  96.7264364  23.5762861 137.4366206  85.7716631
  23.8522705 137.3222801  86.6810506  22.7067359 137.0383691  85.7328805
  23.4803292 123.4602972  92.8121381  22.5666372 123.6907199  92.9803588
  23.9096394 123.5441416  93.6635413  23.2509751 131.6492864  95.3121275
  22.5981201 131.8968771  94.6573728  23.6290131 130.8357002  94.9783752
  20.5459090 140.6120742  86.6764494  21.0746857 140.1013197  86.0634656
  20.8087310 140.2963272  87.5410027  19.2997324 132.3912675 101.7987312
  18.6237961 132.2906804 102.4689687  20.1224958 132.2351889 102.2623309
   5.6393838 131.1990212  93.1404270   5.6777937 130.6653802  93.9341388
   5.1334130 130.6725417  92.5215247  13.0184600 126.0454752  96.6366813
  13.0825926 126.9069583  96.2244210  12.9551720 125.4328754  95.9039171
  12.4936872 128.1177885 100.2839847  13.1208911 127.7354962 100.8977371
  11.6364791 127.8992087 100.6495539  22.8930981 138.5240860 101.8893582
  23.4370885 139.1370818 101.3948537  22.3117826 139.0820438 102.4060595
   9.2702415 129.9254314  86.2158202   9.5655856 129.0164992  86.1625255
   8.3690451 129.9042053  85.8939204  12.7996662 128.0010310  92.1985750
  12.0783248 128.6146278  92.0593224  13.5889918 128.5368075  92.1202396
  23.2423402 139.4470598  94.6488160  22.2953738 139.3275949  94.5766487
  23.5906175 138.5593096  94.7314422  15.6022976 125.3364737  98.4726402
  16.1257378 125.5827033  99.2352711  15.3835309 126.1684772  98.0529539
  10.9990257 127.6068411  86.3397527  10.6702963 126.7265790  86.1572633
  11.3529627 127.5516080  87.2273916  20.2469836 139.2423314  90.8492512
  20.0994798 138.3140022  91.0300082  21.0723329 139.2643405  90.3649588
  14.1132080 127.8941381  86.7073005  14.4528152 128.4227302  85.9851613
  14.5604200 128.2321787  87.4831571  23.8503957 140.0651873  91.9357385
  24.7750505 139.8594734  91.7981836  23.6819261 139.8168274  92.8446727
  16.8075521 126.2778432  96.1576073  16.4672341 125.4786245  96.5596752
  16.1014527 126.5780143  95.5852906  17.4591993 123.3627744  94.6103396
  18.2818062 122.8888223  94.4882286  17.7030056 124.1418228  95.1102082
  16.1000227 126.3916003  84.9066297  16.8208590 126.7697256  84.4030014
  15.4765531 127.1104880  85.0101275  20.2431350 127.0961152  85.8424630
  20.4594964 127.9785790  85.5413458  19.7625417 126.7047365  85.1130272
  14.9830571 130.0546865  92.4195374  14.8375152 130.3687168  93.3119656
  14.5055775 130.6731765  91.8666273  16.8426954 127.0449413  92.4676264
  16.8288523 126.1490506  92.1308562  17.5599382 127.0520077  93.1014550
  18.6953085 127.4786753  94.5129391  18.4370863 128.4003824  94.5113722
  18.1638125 127.0817188  95.2029855  23.6399274 140.5837540  87.2919477
  23.8136151 140.0183963  86.5393329  24.1328165 141.3838435  87.1098967
   9.4576233 132.5952209  95.3583035   8.9129702 133.3712017  95.4903310
  10.3355583 132.9423014  95.2002157  16.2463850 125.9263793  87.7363834
  16.3679761 124.9980439  87.9354721  15.9565893 125.9402479  86.8242149
  19.1155041 123.6118704  90.8730554  19.1376737 123.6758037  89.9182533
  19.5323100 122.7723212  91.0671060  29.4938665 133.3473963  88.9109776
  29.9369811 132.5981288  88.5128900  28.6165175 133.3384100  88.5283508
  24.6274446 139.9004305  84.3916375  25.3225351 140.5210997  84.6103690
  24.9697596 139.0499656  84.6668753  10.2442255 131.7222106  98.2513192
   9.5023991 131.8704741  98.8377823   9.9235000 131.9830371  97.3879942
  26.5265869 137.3504010  85.9203706  27.0517193 137.6891283  85.1953026
  26.4388222 136.4151026  85.7366840  15.6580402 138.9614003  92.3521260
  15.0360411 138.2984708  92.0523488  16.3285269 138.9875135  91.6694908
  15.7304930 127.4395791 101.9453767  15.7793085 128.3157913 101.5631536
  16.2727444 126.8973184 101.3725410  26.2159775 137.9836914 101.2254904
  25.4255319 137.9661053 100.6859403  25.9793130 138.5225208 101.9803940
  26.3357650 134.8329380  98.5387632  26.3855655 134.6679388  99.4803155
  26.2271574 133.9656639  98.1485513  15.2193909 137.5117926  85.8279721
  15.3682029 138.1953390  85.1746394  16.0260353 137.4923016  86.3429177
  23.6261413 130.8160308  99.8546939  24.5271276 130.6766773  99.5630937
  23.7009387 130.9814763 100.7945116  17.9604218 128.1927163  98.7000125
  17.0907528 128.4860729  98.4282714  18.1963698 128.7767608  99.4207389
  27.8375847 137.2526322  98.7829654  27.5460656 137.6156302  99.6193115
  27.2247979 136.5393330  98.6042986  29.0371530 134.8179202  91.3032224
  29.8718421 135.2569006  91.4669784  29.1730658 134.3417855  90.4840470
  26.0863035 132.3758936  97.2509712  26.5617157 132.5686583  96.4428563
  25.1628601 132.4318122  97.0053095  12.9746542 133.5383104  86.8340790
  12.7292584 132.6345434  87.0321000  13.1442457 133.5400254  85.8920268
  20.6643252 124.4106780  96.2165546  21.1825196 125.1467807  95.8912034
  20.3098385 124.7170773  97.0512305  12.2442190 129.2711461  84.3326951
  11.5511435 129.3455816  83.6766987  11.9993942 128.5071805  84.8548468
  20.9155846 120.8307063  91.7366442  21.1957600 120.1630252  92.3626869
  21.7006453 121.0236158  91.2241106  18.7189315 140.0066056  83.2991468
  18.1463282 140.6256244  82.8461940  19.2922108 140.5565418  83.8331390
  24.7864704 129.2524697  95.4838017  25.7382127 129.3522794  95.5050241
  24.6168155 128.4602965  95.9936102  22.8079084 126.3380280  95.6697418
  22.2129016 126.6185292  94.9743907  22.5228781 126.8274181  96.4414159
  21.9386574 140.2903207  84.4300051  22.8717248 140.2248768  84.6332926
  21.8509787 141.1259473  83.9714583  24.5674591 139.6069077  81.3903998
  24.4888223 139.2728941  82.2839756  25.3884258 140.0990845  81.3895471
  27.2652782 132.4730816  94.5980317  27.2329102 131.5346817  94.7840001
  27.8753406 132.5514853  93.8646142  19.1036113 131.3426869  80.6407521
  20.0495218 131.2133077  80.7095939  18.7250358 130.6041531  81.1176949
  27.4147271 129.2641860  94.6438600  26.8986319 128.4800316  94.4568529
  28.2987219 128.9360576  94.8085120  25.0757998 123.0082875  90.6034413
  24.8782819 122.6997963  91.4877745  25.6857703 123.7344514  90.7332343
  33.0829332 133.5346823  93.7386354  33.8132721 133.2732111  94.2994057
  32.4736278 132.7975545  93.7788422  31.1644629 131.6754686  94.3360805
  30.4377793 131.5410651  93.7277297  30.7491916 131.9831514  95.1417523
  18.9874806 135.3944615 102.1008178  19.9077815 135.5723214 102.2948224
  18.9524389 134.4500661 101.9487877  17.2879030 129.2676846  80.5762406
  16.3810486 128.9709958  80.6525120  17.5655011 128.9706664  79.7096692
   8.2056971 130.5883209  91.0261453   7.8859755 129.7348517  90.7335827
   7.6590399 130.8031787  91.7819420  11.9836878 133.3045650  94.7430959
  12.2022888 134.2362758  94.7618993  12.3962652 132.9453624  95.5285763
  18.9041096 123.8113735  86.7306647  18.0941824 123.4660820  87.1061894
  19.5925513 123.5021279  87.3194259  20.8331644 122.8891782  88.3530944
  21.3862683 123.3087236  89.0120967  21.0701731 121.9627530  88.3953900
  16.8564744 128.8778856 104.1333708  16.7561470 129.8273213 104.0645799
  16.6386286 128.5497095 103.2609778  16.0577815 126.1263781  80.7174385
  16.9196979 126.4518679  80.9770203  16.2428159 125.3395277  80.2047451
   8.0745231 134.2086120  92.9954574   7.3808702 133.7940073  92.4824529
   8.8218222 134.2506657  92.3987993  24.2110451 124.9992307  87.8609608
  23.6309120 125.6577111  87.4787661  23.9446384 124.1769652  87.4497026
  22.6614018 124.3997365  90.0630929  23.1613796 124.5113899  89.2545248
  23.3049626 124.0958418  90.7031737  16.7196014 132.3075995 102.9498770
  16.2363095 133.1076355 103.1562659  16.8056953 132.3183939 101.9966214
   9.9881973 134.1404374  90.8720589   9.9652661 134.2392062  89.9202472
  10.2982610 134.9869525  91.1937755  12.6469351 136.1980529  94.9867203
  13.6012605 136.1664472  94.9197135  12.4481875 135.7371153  95.8017429
  13.2368733 134.7681645  97.5538001  14.0561622 135.2625724  97.5772838
  13.5105541 133.8513613  97.5255569  22.9935329 127.1592398  86.9165957
  22.1061184 127.4442048  86.6986151  23.4089318 126.9986161  86.0693234
  26.3449866 127.1838919  90.6320296  27.1210256 127.6735371  90.9044913
  25.6198000 127.6096973  91.0892165  28.7822424 127.8966538  91.6894237
  29.3766915 127.6562274  90.9787545  28.8549008 127.1773668  92.3167773
  22.1378543 136.9237072  81.0113977  22.8414393 137.1287075  81.6271632
  21.4141192 137.4913834  81.2763060  22.9676353 132.6746934  87.1316247
  22.9111555 133.1315485  86.2923879  23.5204696 131.9137618  86.9539090
  26.7781159 128.4636665  87.9566366  26.5218093 128.0633301  88.7874574
  26.1534027 129.1780459  87.8316505  31.0893497 131.2032739  90.4637658
  30.5293055 131.2725928  91.2369220  30.4837000 131.0273723  89.7437154
  24.0465240 137.3619602  83.0612437  24.8810844 136.9300800  82.8789911
  23.8849583 137.1901615  83.9889331  23.7011132 133.8651715  84.4268776
  23.6459936 133.6995986  83.4857220  23.0757188 134.5727748  84.5830966
   8.4903647 129.1019779  98.2530198   9.1362511 128.5918733  98.7417423
   8.2820799 129.8388461  98.8273623  21.0157040 136.1700627 103.7522339
  21.8848199 136.3441279 103.3908974  20.5363791 136.9895044 103.6298068
  17.0107258 123.3659824  84.0054094  16.9985928 124.3101664  84.1622365
  17.9030680 123.1829969  83.7113556  20.8259377 119.9602600  88.2600031
  20.0591773 119.4061087  88.4056714  21.2370082 120.0324469  89.1214183
  12.8301138 126.2487396 102.3505212  13.6932600 125.8924201 102.5608537
  12.2566549 125.9101291 103.0380617  37.6299211 145.5415940  91.1353800
  38.3624383 144.9715156  91.3691629  36.8738567 145.1537540  91.5760306
  35.1524631 139.2537514  95.5948409  34.8207956 140.1232925  95.3709624
  34.5570245 138.9373798  96.2742439  28.8880818 142.9933081  83.3278491
  29.0555220 143.8613317  83.6948962  28.6977987 143.1560363  82.4039780
  35.0453295 143.9732600  92.6741759  34.1370172 143.9048008  92.3800520
  34.9940890 144.4504545  93.5023584  36.9114941 142.1749038  94.4519633
  36.2689321 142.4681572  93.8059427  36.4069870 142.0601959  95.2572829
  32.3526388 142.9413814  97.8081515  32.1087320 143.6955875  97.2715791
  32.6286318 143.3199162  98.6428762  31.9091079 142.0970248  93.3895353
  31.0475559 142.3951501  93.6812090  31.9353514 142.3140646  92.4576385
  43.5116672 148.7063131  91.0066109  42.7580380 148.1370529  90.8510114
  43.6464213 148.6725795  91.9536744  25.3882639 139.6568113 103.3435184
  24.9949585 139.1034311 104.0182828  26.2048780 139.9678691 103.7341701
  28.3050600 141.0725992 100.9355441  29.0460314 141.6733145 100.8559903
  28.5368523 140.3303630 100.3773483  32.2507763 137.1007095  95.2119722
  31.9072033 137.9908737  95.1358833  32.6186726 136.9108753  94.3489307
  29.8005157 141.9365407  88.7777396  28.9446753 141.5472257  88.5983034
  30.2132109 142.0157368  87.9177181  31.3304304 139.4711750  93.1768955
  30.8269099 139.4341885  92.3636761  31.6234910 140.3804493  93.2365612
  27.5747189 139.5550480  92.1835137  28.4400186 139.3593289  91.8241027
  27.6424698 139.3260832  93.1104494  32.0044349 144.9642798  85.5451938
  31.6994485 145.2788947  86.3962082  32.9574791 145.0424218  85.5879271
  25.1809508 141.7852688  89.5551504  25.7553260 141.5627869  88.8224697
  25.7680491 141.8541382  90.3080105  27.4832176 138.6593937  88.2826573
  26.8296589 138.3442954  87.6583188  27.4412650 138.0369677  89.0086396
  33.9483801 143.5824402  89.7195691  33.2106558 143.0701788  90.0505933
  34.2010575 143.1424784  88.9078967  34.0495429 136.3600654  90.3137460
  34.3554306 135.4998018  90.0263375  34.7748034 136.9518274  90.1136454
  25.7522943 142.8449862  94.1965265  26.3922323 142.7038622  93.4988228
  24.9200474 142.5584376  93.8203867  30.1302057 140.8549886  98.1602737
  29.4829972 141.5539835  98.0667213  30.9003072 141.2886029  98.5278985
  31.8778052 141.8225296  90.6642022  32.3746752 141.0695258  90.3443092
  31.1065033 141.8589613  90.0985231  28.4613021 143.9642679  90.3913707
  28.0910808 143.4113719  91.0794612  28.9572113 143.3600813  89.8388707
  34.3197047 138.7894890  92.8121381  33.4060127 139.0199116  92.9803588
  34.7490148 138.8733334  93.6635413  23.8578354 141.3746670  96.6366813
  23.9219681 142.2361501  96.2244210  23.7945475 140.7620671  95.9039171
  26.4416730 140.6656655  98.4726402  26.9651132 140.9118951  99.2352711
  26.2229063 141.4976689  98.0529539  27.6469275 141.6070350  96.1576073
  27.3066096 140.8078163  96.5596752  26.9408282 141.9072060  95.5852906
  28.2985747 138.6919662  94.6103396  29.1211816 138.2180140  94.4882286
  28.5423811 139.4710146  95.1102082  26.9393982 141.7207921  84.9066297
  27.6602344 142.0989173  84.4030014  26.3159286 142.4396797  85.0101275
  31.0825104 142.4253069  85.8424630  31.2988719 143.3077707  85.5413458
  30.6019172 142.0339283  85.1130272  27.6820709 142.3741331  92.4676264
  27.6682277 141.4782424  92.1308562  28.3993137 142.3811994  93.1014550
  29.5346839 142.8078671  94.5129391  29.2764617 143.7295742  94.5113722
  29.0031880 142.4109105  95.2029855  27.0857605 141.2555711  87.7363834
  27.2073516 140.3272357  87.9354721  26.7959647 141.2694397  86.8242149
  29.9548795 138.9410621  90.8730554  29.9770492 139.0049955  89.9182533
  30.3716854 138.1015130  91.0671060  34.4655167 146.1452226  99.8546939
  35.3665030 146.0058691  99.5630937  34.5403142 146.3106681 100.7945116
  28.7997973 143.5219081  98.7000125  27.9301282 143.8152647  98.4282714
  29.0357453 144.1059526  99.4207389  31.5037006 139.7398698  96.2165546
  32.0218950 140.4759725  95.8912034  31.1492139 140.0462691  97.0512305
  31.7549601 136.1598980  91.7366442  32.0351354 135.4922169  92.3626869
  32.5400208 136.3528076  91.2241106  35.6258459 144.5816614  95.4838017
  36.5775882 144.6814712  95.5050241  35.4561909 143.7894883  95.9936102
  33.6472838 141.6672197  95.6697418  33.0522771 141.9477210  94.9743907
  33.3622535 142.1566098  96.4414159  38.2541025 144.5933777  94.6438600
  37.7380074 143.8092234  94.4568529  39.1380974 144.2652494  94.8085120
  35.9151752 138.3374793  90.6034413  35.7176573 138.0289881  91.4877745
  36.5251458 139.0636432  90.7332343  43.9223087 148.8638741  93.7386354
  44.6526475 148.6024029  94.2994057  43.3130032 148.1267463  93.7788422
  42.0038384 147.0046603  94.3360805  41.2771547 146.8702568  93.7277297
  41.5885671 147.3123432  95.1417523  29.7434851 139.1405653  86.7306647
  28.9335579 138.7952738  87.1061894  30.4319267 138.8313197  87.3194259
  31.6725399 138.2183700  88.3530944  32.2256437 138.6379153  89.0120967
  31.9095485 137.2919448  88.3953900  26.8971569 141.4555698  80.7174385
  27.7590733 141.7810597  80.9770203  27.0821914 140.6687194  80.2047451
  35.0504206 140.3284225  87.8609608  34.4702875 140.9869029  87.4787661
  34.7840139 139.5061570  87.4497026  33.5007772 139.7289283  90.0630929
  34.0007551 139.8405817  89.2545248  34.1443380 139.4250335  90.7031737
  33.8329084 142.4884315  86.9165957  32.9454939 142.7733966  86.6986151
  34.2483073 142.3278079  86.0693234  37.1843620 142.5130836  90.6320296
  37.9604010 143.0027289  90.9044913  36.4591754 142.9388890  91.0892165
  39.6216179 143.2258456  91.6894237  40.2160669 142.9854191  90.9787545
  39.6942762 142.5065586  92.3167773  37.6174914 143.7928583  87.9566366
  37.3611848 143.3925219  88.7874574  36.9927782 144.5072377  87.8316505
  41.9287251 146.5324656  90.4637658  41.3686809 146.6017846  91.2369220
  41.3230755 146.3565641  89.7437154  27.8501012 138.6951742  84.0054094
  27.8379682 139.6393581  84.1622365  28.7424434 138.5121887  83.7113556
  31.6653132 135.2894518  88.2600031  30.8985528 134.7353005  88.4056714
  32.0763837 135.3616387  89.1214183  23.6694893 141.5779314 102.3505212
  24.5326354 141.2216119 102.5608537  23.0960304 141.2393209 103.0380617
   5.1117949  76.5602309  77.8599107   5.8443121  75.9901526  78.0936936
   4.3557304  76.1723910  78.3005612   2.6343369  70.2723883  82.3193715
   2.3026694  71.1419294  82.0954930   2.0388983  69.9560167  82.9987746
   2.5272032  74.9918970  79.3987065   1.6188910  74.9234378  79.1045826
   2.4759628  75.4690914  80.2268891   4.3933679  73.1935408  81.1764939
   3.7508059  73.4867941  80.5304734   3.8888607  73.0788328  81.9818136
   2.0473843  76.9398581  71.8650798   2.9591699  77.1725968  71.6898496
   1.5383490  77.5235625  71.3025877   4.5332657  82.8578837  76.6108744
   3.8483695  83.2377739  76.0605777   4.6176506  83.4674164  77.3440691
   1.7883588  80.5038796  83.2104087   2.0000484  81.1470556  82.5338468
   1.7413337  79.6701113  82.7426017   2.9029416  83.3810752  81.3826445
   3.7246860  82.9790939  81.1009126   2.8991819  83.2778986  82.3342560
  10.9935409  79.7249500  77.7311416  10.2399118  79.1556898  77.5755420
  11.1282951  79.6912165  78.6782051   4.6711058  80.8634430  72.3790637
   3.8940501  80.5245590  71.9345800   5.3502539  80.8687053  71.7045602
   2.9102365  80.3368412  79.0357245   2.2526039  81.0267673  79.1237374
   3.7142764  80.7264843  79.3791232   1.7207824  78.6912784  77.0861187
   2.2339705  79.3242776  77.5882897   2.3709047  78.0913980  76.7204547
   2.4869620  83.6718786  75.2140330   2.0331947  82.8309696  75.2705520
   1.8563586  84.3080184  75.5515110   1.4302539  74.6010772  76.4440997
   0.6925296  74.0888158  76.7751240   1.6829313  74.1611153  75.6324274
   0.9302559  85.5095282  76.1490148   1.2225533  86.0700339  75.4302514
   1.4401180  85.8023843  76.9043307   1.5314167  67.3787024  77.0382767
   1.8373043  66.5184387  76.7508682   2.2566771  67.9704644  76.8381760
   5.0699555  79.8778137  74.8413559   4.9317453  80.0679733  73.9134749
   4.7135774  80.6397520  75.2981611   5.0968934  81.9454664  79.8524831
   5.5305441  81.8529953  80.7007885   5.8100515  81.9212164  79.2144847
   5.9584484  81.9878365  82.3857716   6.1520374  82.8924175  82.6316991
   5.8585102  81.5285784  83.2196301   1.0199593  82.1385107  87.9598597
   0.8685099  81.9095659  87.0428681   1.0104272  83.0955709  87.9729942
   1.0737668  80.4605321  68.3769298   0.4566838  79.7352150  68.2802351
   0.6054156  81.2214682  68.0336373   2.7291799  85.1704230  86.0375079
   2.6704346  84.4863450  85.3705662   3.1311318  85.9123220  85.5855705
   2.7309207  83.1343814  84.2689058   1.8435985  82.7969736  84.3915457
   3.3007758  82.4026845  84.5057824   7.2126547  78.5452031  79.0305620
   7.2016423  79.4276747  78.6599553   6.3443927  78.1923582  78.8360157
   3.8299122  77.4400672  75.4975786   4.2959574  78.2728664  75.4236089
   4.2806622  76.9745654  76.2021045   1.8975353  83.7844493  72.4961938
   2.1735197  83.6701088  73.4055812   1.0279852  83.3861978  72.4574111
   1.8015785  69.8081259  79.5366687   0.8878864  70.0385486  79.7048894
   2.2308886  69.8919703  80.3880720   1.5722243  77.9971151  82.0366581
   0.9193693  78.2447059  81.3819034   1.9502623  77.1835289  81.7029059
   1.2143473  84.8719147  88.6138889   1.7583377  85.4849105  88.1193844
   0.6330318  85.4298725  89.1305902   1.5635895  85.7948885  81.3733467
   0.6166230  85.6754236  81.3011794   1.9118668  84.9071383  81.4559728
   2.1716450  86.4130160  78.6602692   3.0962997  86.2073021  78.5227143
   2.0031753  86.1646561  79.5692033   1.9611766  86.9315828  74.0164783
   2.1348644  86.3662250  73.2638636   2.4540657  87.7316722  73.8344273
   7.8151157  79.6952251  75.6355083   8.2582303  78.9459576  75.2374206
   6.9377667  79.6862387  75.2528815   2.9486938  86.2482592  71.1161682
   3.6437843  86.8689285  71.3348996   3.2910089  85.3977943  71.3914059
   4.8478362  83.6982298  72.6449012   5.3729686  84.0369570  71.9198332
   4.7600714  82.7629313  72.4612147   4.5372268  84.3315201  87.9500210
   3.7467811  84.3139340  87.4104710   4.3005622  84.8703495  88.7049247
   4.6570143  81.1807668  85.2632939   4.7068148  81.0157675  86.2048462
   4.5484066  80.3134927  84.8730820   1.9473905  77.1638596  86.5792245
   2.8483768  77.0245060  86.2876243   2.0221880  77.3293050  87.5190423
   6.1588340  83.6004609  85.5074960   5.8673148  83.9634590  86.3438421
   5.5460471  82.8871617  85.3288292   7.3584022  81.1657489  78.0277531
   8.1930913  81.6047293  78.1915091   7.4943151  80.6896142  77.2085776
   4.4075528  78.7237224  83.9755018   4.8829649  78.9164870  83.1673870
   3.4841093  78.7796410  83.7298402   3.1077197  75.6002984  82.2083324
   4.0594620  75.7001081  82.2295548   2.9380647  74.8081252  82.7181408
   1.1291576  72.6858567  82.3942725   0.5341508  72.9663580  81.6989213
   0.8441273  73.1752468  83.1659466   2.8887083  85.9547364  68.1149305
   2.8100715  85.6207228  69.0085063   3.7096750  86.4469132  68.1140777
   5.5865275  78.8209103  81.3225624   5.5541595  77.8825104  81.5085307
   6.1965898  78.8993140  80.5891448   5.7359763  75.6120147  81.3683907
   5.2198812  74.8278604  81.1813836   6.6199712  75.2838864  81.5330426
   3.3970490  69.3561162  77.3279719   3.1995311  69.0476251  78.2123051
   4.0070196  70.0822801  77.4577649  11.4041824  79.8825110  80.4631660
  12.1345213  79.6210398  81.0239364  10.7948770  79.1453832  80.5033728
   9.4857122  78.0232973  81.0606112   8.7590285  77.8888938  80.4522603
   9.0704408  78.3309801  81.8662830   2.5322944  71.3470594  74.5854915
   1.9521613  72.0055399  74.2032967   2.2658876  70.5247939  74.1742333
   0.9826510  70.7475652  76.7876235   1.4826288  70.8592187  75.9790554
   1.6262118  70.4436705  77.4277044   1.3147822  73.5070685  73.6411263
   0.4273677  73.7920336  73.4231458   1.7301811  73.3464448  72.7938540
   4.6662358  73.5317206  77.3565603   5.4422748  74.0213658  77.6290219
   3.9410492  73.9575260  77.8137472   7.1034916  74.2444825  78.4139543
   7.6979407  74.0040561  77.7032851   7.1761500  73.5251956  79.0413079
   1.2888845  79.0225221  73.8561553   1.2324047  79.4793772  73.0169186
   1.8417188  78.2615905  73.6784396   5.0993651  74.8114953  74.6811673
   4.8430586  74.4111588  75.5119881   4.4746519  75.5258747  74.5561812
   9.4105989  77.5511026  77.1882964   8.8505547  77.6204215  77.9614526
   8.8049493  77.3752011  76.4682461   2.3677733  83.7097889  69.7857743
   3.2023336  83.2779087  69.6035218   2.2062075  83.5379902  70.7134638
   2.0223625  80.2130002  71.1514083   1.9672429  80.0474273  70.2102527
   1.3969680  80.9206035  71.3076272  10.9962008  94.2267540  79.8812920
  11.6340418  94.1074287  79.1776260  10.8782851  95.1748384  79.9400872
   7.8051714  94.1794968  79.8174445   7.4670225  94.0636033  78.9294980
   8.6741482  93.7786133  79.7975451   3.6638530  96.0330444  75.8071336
   3.1003395  95.9420381  75.0387623   3.5490925  95.2130349  76.2873828
   8.2871497  95.3329820  85.7760650   8.2760138  94.9382618  84.9041154
   8.4492136  94.5995892  86.3694422   1.2102962  97.5281636  78.6455556
   2.0024253  97.1872461  78.2301855   1.4499612  97.6376611  79.5657709
   9.2438088  99.7001412  71.1185801   8.5926068 100.2855492  70.7319814
  10.0382451 100.2307607  71.1780838   3.1693715  96.7890549  71.5172935
   3.9424591  96.2419536  71.3785811   3.5219114  97.6534799  71.7287396
   5.0078758  98.1166931  84.7239834   4.7168624  99.0212562  84.6086501
   5.6435742  98.1583459  85.4383904   5.9334965  95.4943780  81.3141194
   6.5298537  95.2699802  80.5998157   5.9909936  94.7528525  81.9166642
   5.5059993  92.9483215  69.1491385   5.7585514  92.4264737  68.3874848
   4.5684552  92.7849361  69.2518068  10.5503276  91.9518994  76.9566128
  11.3366365  91.5338417  76.6056545  10.8141980  92.8565086  77.1247776
  10.7213353  97.3891844  71.6554785  10.0859186  97.4626471  72.3675690
  10.3910760  97.9785443  70.9773864  15.9511703  91.8894227  77.8599107
  16.6836875  91.3193444  78.0936936  15.1951059  91.5015827  78.3005612
   5.2256282  94.8511321  71.3515760   5.1092540  94.1756225  72.0196844
   5.3358542  94.3643695  70.5347913   7.5687823  94.3121468  75.0562449
   7.2046030  93.7852089  75.7675371   8.4254939  93.9219937  74.8828934
  13.4737124  85.6015801  82.3193715  13.1420448  86.4711212  82.0954930
  12.8782737  85.2852085  82.9987746   7.2093310  89.3411368  70.0523798
   7.3767712  90.2091605  70.4194269   7.0190479  89.5038650  69.1285087
   9.9668643  97.8028347  81.7189628   9.6669366  98.7053386  81.6105435
   9.6219703  97.5360530  82.5710781   3.4181125  94.2542144  77.7526332
   2.4931621  94.1218358  77.9604024   3.6665538  95.0336363  78.2496275
  13.3665787  90.3210887  79.3987065  12.4582664  90.2526296  79.1045826
  13.3153383  90.7982832  80.2268891   7.1882531  91.7969026  71.0370464
   7.0682156  92.2426076  71.8755945   6.4935119  92.1454343  70.4784003
   4.9489423 104.5672667  74.6860596   4.8713453 105.5180492  74.7649076
   4.3451067 104.2218540  75.3435522   7.4406653  91.7400533  87.3421963
   6.6639987  92.2994453  87.3324827   8.0797216  92.2257316  87.8636833
  15.2327433  88.5227326  81.1764939  14.5901814  88.8159859  80.5304734
  14.7282362  88.4080246  81.9818136  12.8867597  92.2690499  71.8650798
  13.7985453  92.5017886  71.6898496  12.3777244  92.8527543  71.3025877
   5.6953025  94.5485986  86.9039930   6.4367709  95.0871030  86.6274753
   4.9890010  95.1752275  87.0611481  11.1708365  96.6915127  85.5012091
  11.5791721  96.2497537  84.7566723  10.4485626  96.1167754  85.7546284
   7.5239435  91.6287733  82.8745648   8.3700630  92.0527147  83.0180297
   7.4638072  90.9721358  83.5684211  11.4937179  97.2516317  79.2564380
  10.8646042  97.4162031  78.5540448  11.1062841  97.6657927  80.0275344
  15.3726411  98.1870755  76.6108744  14.6877449  98.5669656  76.0605777
  15.4570261  98.7966082  77.3440691  10.6738880  89.2892102  84.5326822
  10.4299812  90.0434162  83.9961097  10.9498811  89.6677449  85.3674069
  12.6277343  95.8330714  83.2104087  12.8394238  96.4762474  82.5338468
  12.5807091  94.9993031  82.7426017  10.2303572  88.4448535  80.1140659
   9.3688051  88.7429788  80.4057397  10.2566006  88.6618934  79.1821692
   7.0465141  96.9890725  76.5214465   7.5103487  97.2678428  75.7319088
   6.7821939  96.0874170  76.3387556   3.9389222  96.5362207  79.4594228
   4.5090579  96.9649475  78.8211713   4.5297334  96.2544792  80.1578414
   5.9834027  93.1113878  73.3304030   6.6858071  93.5634921  73.7977957
   5.6514656  92.4697697  73.9583923   4.4314389  91.7025634  87.7055240
   3.8013049  92.3841915  87.9390636   4.3250477  91.5908716  86.7608378
  13.7423171  98.7102670  81.3826445  14.5640614  98.3082857  81.1009126
  13.7385574  98.6070904  82.3342560   1.6774107  91.7342010  75.5904640
   0.8805270  91.8460704  76.1088136   1.4499699  92.0728662  74.7245531
   7.5079774  98.2586713  83.5387155   7.5724207  98.7207120  84.3745327
   6.7990698  97.6284078  83.6669465  21.8329164  95.0541418  77.7311416
  21.0792872  94.4848816  77.5755420  21.9676705  95.0204083  78.6782051
   7.2227792  99.9254820  73.4066135   7.0873467 100.7706356  73.8350983
   7.7637604 100.1274098  72.6432069   3.7095131  86.0046400  90.0680491
   3.3162077  85.4512599  90.7428135   4.5261272  86.3156979  90.4587008
   0.6757189  97.4430258  73.9794060   1.1881710  98.2373509  74.1299625
   1.3279902  96.7456549  73.9127662   2.4852074 100.5596015  76.0616814
   2.6618702 101.4813979  75.8737798   3.2808907 100.2454434  76.4911193
   6.6263092  87.4204279  87.6600747   7.3672806  88.0211432  87.5805210
   6.8581015  86.6781917  87.1018790   1.7704430  92.6060647  85.9378977
   1.6557946  91.7045904  86.2386076   0.9148948  92.8524343  85.5863793
   8.8496268 100.5478387  87.5366477   8.4060122  99.7614765  87.2187382
   9.5113482 100.7357537  86.8710368   3.6083389 102.0774188  82.0627156
   4.1590815 101.9491252  81.2904150   2.7694865 102.3769077  81.7122049
  10.9477506 100.8281187  85.5647879  10.9295982 101.6490068  85.0728148
  11.8697426 100.7035262  85.7898020   7.4050560  98.3425316  86.4071387
   7.9378897  97.5813604  86.1770695   6.8764642  98.0498968  87.1495542
  10.5720255  83.4485382  81.9365029  10.2284525  84.3387024  81.8604139
  10.9399218  83.2587040  81.0734614  10.5370538  93.4393993  70.4437464
  10.0217162  94.2098598  70.6825851  10.2647847  92.7659129  71.0670525
   8.1217649  88.2843694  75.5022702   7.2659246  87.8950544  75.3228341
   8.5344601  88.3635655  74.6422488   9.6516796  85.8190037  79.9014262
   9.1481591  85.7820173  79.0882067   9.9447403  86.7282780  79.9610919
   5.8959682  85.9028767  78.9080444   6.7612678  85.7071576  78.5486333
   5.9637191  85.6739119  79.8349801  15.5104812  96.1926348  72.3790637
  14.7334255  95.8537507  71.9345800  16.1896293  96.1978971  71.7045602
  10.3256841  91.3121085  72.2697245  10.0206977  91.6267235  73.1207388
  11.2787283  91.3902505  72.3124578   8.7703273  97.4711309  73.9190199
   8.2424635  96.7364068  73.6063437   8.2690776  98.2485985  73.6730167
  13.7496119  95.6660329  79.0357245  13.0919794  96.3559591  79.1237374
  14.5536518  96.0556761  79.3791232   3.5022001  88.1330975  76.2796811
   4.0765753  87.9106156  75.5470004   4.0892983  88.2019670  77.0325412
  12.5601578  94.0204702  77.0861187  13.0733460  94.6534694  77.5882897
  13.2102802  93.4205897  76.7204547   3.8291588  90.1635436  70.2992696
   2.9928900  90.5010123  70.6201971   3.6896358  90.0284416  69.3619833
   5.8044668  85.0072224  75.0071880   5.1509081  84.6921241  74.3828495
   5.7625143  84.3847964  75.7331703   6.9155873  95.2891519  66.9225172
   6.0082935  95.0580772  67.1216321   7.4126905  94.4929138  67.1099154
   9.8223952 103.9989026  69.8421858   9.1485651 104.3020723  70.4506816
  10.2089774 104.8018107  69.4927315   9.0382409  91.4954157  79.3319528
   8.1204970  91.7169104  79.1741216   9.4542552  91.5700468  78.4731235
   9.8217457  92.8945573  74.4622208  10.5689276  93.4066970  74.1529330
  10.0909046  92.5729626  75.3226601   8.0944107  95.3904114  71.4449162
   7.1855326  95.1063147  71.5421632   8.1239191  95.8103192  70.5852469
  13.3263374  99.0010703  75.2140330  12.8725701  98.1601613  75.2705520
  12.6957341  99.6372102  75.5515110  12.2696294  89.9302689  76.4440997
  11.5319051  89.4180076  76.7751240  12.5223067  89.4903071  75.6324274
  11.7696313 100.8387200  76.1490148  12.0619288 101.3992257  75.4302514
  12.2794934 101.1315761  76.9043307  12.3707921  82.7078941  77.0382767
  12.6766798  81.8476305  76.7508682  13.0960526  83.2996562  76.8381760
   6.6429001  93.0032734  77.5458958   6.6977611  92.0506571  77.4701434
   5.8320203  93.1592174  78.0300256   7.7920195  96.9312858  68.7837241
   7.3539625  96.2148716  68.3242878   8.5330635  97.1588972  68.2222332
   4.5821361  91.6209794  75.3049336   3.7689226  91.9203965  75.7114529
   5.0780355  91.2265483  76.0223819   6.7329939 101.6167551  77.2383601
   6.6906117 101.8428397  76.3092133   7.6492637 101.3830926  77.3869402
  10.1795572  92.0851619  84.1364230  10.5344960  92.3123092  84.9958696
  10.8267704  92.4169995  83.5141486  15.9093309  95.2070055  74.8413559
  15.7711208  95.3971651  73.9134749  15.5529528  95.9689437  75.2981611
   4.0735436  89.1928150  80.9210571   4.7134815  89.0516909  80.2233535
   3.2412966  88.9062663  80.5449173  15.9362689  97.2746582  79.8524831
  16.3699196  97.1821871  80.7007885  16.6494270  97.2504082  79.2144847
   4.8495739  98.4930580  77.0345564   5.6436338  97.9980900  76.8328139
   4.1387432  97.9648443  76.6713269   9.6690584 100.8748676  81.3857931
   9.7227606 101.4439612  82.1535647   8.8005365 101.0450561  81.0211969
   1.0764052  89.1628475  75.6983558   1.3370869  90.0773808  75.5892719
   1.8981224  88.6952917  75.8480171   2.5488977  90.5766232  82.8682383
   3.2212031  90.3683594  82.2195032   1.7218764  90.3788318  82.4287615
  16.7978239  97.3170282  82.3857716  16.9914129  98.2216093  82.6316991
  16.6978857  96.8577701  83.2196301   8.4514549  87.2028173  84.8848044
   7.8042464  87.9018122  84.7912520   9.2215565  87.6364317  85.2524292
  11.8593347  97.4677025  87.9598597  11.7078854  97.2387577  87.0428681
  11.8498027  98.4247626  87.9729942   8.6278684  95.0408938  82.9444863
   9.5570744  95.1920097  82.7713831   8.2069714  95.1292958  82.0893510
   7.4267015  99.0659602  80.7143401   7.2878101  98.6978387  81.5869339
   6.6381612  99.5807242  80.5427359   8.0215167 104.1668699  72.0568937
   8.1966923 103.6956742  72.8714560   7.3347955 104.7934465  72.2850198
   8.9772231  98.4441205  78.1032239   8.6422063  98.4041975  78.9989889
   8.4776176  97.7785921  77.6302649   2.9516475  93.8508835  83.6284820
   2.8136272  93.1189074  84.2296359   3.8621398  93.7617735  83.3469008
  11.9131422  95.7897239  68.3769298  11.2960593  95.0644067  68.2802351
  11.4447911  96.5506599  68.0336373   5.5798775  93.5628794  83.1168500
   6.2898394  92.9221986  83.0755118   5.5368083  93.8141689  84.0394680
  13.5685554 100.4996148  86.0375079  13.5098100  99.8155368  85.3705662
  13.9705072 101.2415138  85.5855705   4.2927709  90.5494012  84.9364139
   3.7565066  90.0984751  85.5885735   3.7044418  90.6839921  84.1934603
   2.5876253 107.3158061  78.8308798   2.8272851 107.9476586  79.5087816
   1.7445449 106.9646101  79.1174157   3.7029968  90.0082663  67.4990603
   2.8259434  89.8871464  67.1352849   4.1787721  89.2168742  67.2469491
  13.5702961  98.4635731  84.2689058  12.6829740  98.1261653  84.3915457
  14.1401512  97.7318763  84.5057824   7.1004115 103.1237184  81.2350302
   7.0274286 103.9292155  81.7469606   6.6581508 103.3229150  80.4098323
   6.8893894 102.3608954  74.7453123   6.1061416 102.9030634  74.8391348
   7.5886639 102.8782933  75.1447364  10.1990544  88.1703583  77.3887329
  10.6959244  87.4173546  77.0688399   9.4277526  88.2067900  76.8230538
  18.0520302  93.8743949  79.0305620  18.0410178  94.7568664  78.6599553
  17.1837681  93.5215500  78.8360157   9.5602798 103.0224018  83.3908460
  10.2730770 103.6571483  83.3184362   9.0692827 103.1187884  82.5748462
  11.2820325  96.9275271  74.9625752  10.3476604  97.0476733  74.7930456
  11.4596993  96.0247737  74.6985762   6.7825513  90.3120966  77.1159013
   6.4123301  89.7592007  77.8039919   7.2784605  89.7079100  76.5634013
  14.6692876  92.7692590  75.4975786  15.1353329  93.6020581  75.4236089
  15.1200377  92.3037571  76.2021045   4.6114712 100.7718461  84.2114031
   5.3124171 101.4054944  84.3643425   4.1409827 101.1133193  83.4509670
  12.7369107  99.1136411  72.4961938  13.0128951  98.9993006  73.4055812
  11.8673606  98.7153896  72.4574111  12.6409539  85.1373177  79.5366687
  11.7272619  85.3677404  79.7048894  13.0702641  85.2211621  80.3880720
  12.4115998  93.3263069  82.0366581  11.7587448  93.5738976  81.3819034
  12.7896377  92.5127207  81.7029059   9.3723171 103.3622762  76.1394752
   9.5545566 102.5444418  76.6022504  10.1956157 103.5790454  75.7019642
   9.7065337 102.2890947  73.4009800  10.2353103 101.7783402  72.7879962
   9.9693557 101.9733477  74.2655333   8.4603571  94.0682880  88.5232619
   7.7844208  93.9677009  89.1934994   9.2831204  93.9122094  88.9868616
   3.0621085 103.3406064  76.1607576   2.3931460 103.8252191  75.6771616
   2.9233955 103.5875284  77.0750955   7.2026353 105.3749807  82.7590235
   7.7544661 105.5381429  83.5239320   7.5432547 105.9654245  82.0870259
   2.1790847  87.7224957  83.3612119   2.2432173  88.5839788  82.9489517
   2.1157967  87.1098959  82.6284478   1.6543119  89.7948090  87.0085154
   2.2815158  89.4125167  87.6222678   0.7971038  89.5762292  87.3740846
  12.0537228 100.2011065  88.6138889  12.5977132 100.8141023  88.1193844
  11.4724073 100.7590643  89.1305902  10.3394741 103.3231783  79.7453917
  10.2145880 102.5221523  79.2364862  10.9973832 103.8177976  79.2567887
   1.9602909  89.6780515  78.9231057   1.2389495  90.2916483  78.7838530
   2.7496165  90.2138280  78.8447703  12.4029649 101.1240803  81.3733467
  11.4559985 101.0046154  81.3011794  12.7512422 100.2363301  81.4559728
   4.7629222  87.0134942  85.1971709   5.2863624  87.2597238  85.9598018
   4.5441556  87.8454977  84.7774846   9.4076082 100.9193519  77.5737819
   9.2601045  99.9910226  77.7545389  10.2329576 100.9413610  77.0894894
   3.2738327  89.5711586  73.4318311   3.6134399  90.0997507  72.7096920
   3.7210447  89.9091992  74.2076878  13.0110204 101.7422078  78.6602692
  13.9356752 101.5364939  78.5227143  12.8425508 101.4938479  79.5692033
   5.9681768  87.9548637  82.8821379   5.6278588  87.1556450  83.2842059
   5.2620774  88.2550348  82.3098212   6.6198239  85.0397949  81.3348702
   7.4424309  84.5658428  81.2127593   6.8636303  85.8188433  81.8347389
   5.2606474  88.0686208  71.6311604   5.9814836  88.4467461  71.1275321
   4.6371778  88.7875085  71.7346582   9.4037597  88.7731357  72.5669936
   9.6201211  89.6555995  72.2658764   8.9231664  88.3817570  71.8375578
   4.1436818  91.7317070  79.1440681   3.9981399  92.0457373  80.0364962
   3.6662022  92.3501970  78.5911579   6.0033201  88.7219618  79.1921570
   5.9894770  87.8260711  78.8553868   6.7205629  88.7290282  79.8259856
   7.8559332  89.1556958  81.2374698   7.5977110  90.0774029  81.2359028
   7.3244372  88.7587393  81.9275162  12.8005520 102.2607745  74.0164783
  12.9742398 101.6954168  73.2638636  13.2934412 103.0608640  73.8344273
   5.4070097  87.6033998  74.4609141   5.5286008  86.6750644  74.6600028
   5.1172139  87.6172684  73.5487456   8.2761287  85.2888909  77.5975860
   8.2982984  85.3528242  76.6427840   8.6929346  84.4493417  77.7916367
  18.6544912  95.0244168  75.6355083  19.0976058  94.2751493  75.2374206
  17.7771422  95.0154305  75.2528815  13.7880693 101.5774510  71.1161682
  14.4831598 102.1981202  71.3348996  14.1303843 100.7269861  71.3914059
  15.6872116  99.0274215  72.6449012  16.2123440  99.3661488  71.9198332
  15.5994469  98.0921231  72.4612147   7.3492165 102.9408289  84.7738889
   7.6579291 102.6957436  85.6461588   8.1467647 103.1454927  84.2857759
   7.3712777 105.0946198  77.0044265   6.9317767 104.6022577  77.6977122
   8.1220894 104.5519166  76.7636341   4.8186649 100.6384208  79.0766567
   4.1966658  99.9754913  78.7768795   5.4891516 100.6645339  78.3940215
   4.8911176  89.1165996  88.6699073   4.9399332  89.9928118  88.2876843
   5.4333691  88.5743389  88.0970716  15.3766022  99.6607119  87.9500210
  14.5861566  99.6431258  87.4104710  15.1399377 100.1995413  88.7049247
  15.4963897  96.5099585  85.2632939  15.5461902  96.3449593  86.2048462
  15.3877821  95.6426844  84.8730820   4.3800156  99.1888131  72.5525028
   4.5288276  99.8723595  71.8991700   5.1866599  99.1693221  73.0674483
  12.7867660  92.4930513  86.5792245  13.6877522  92.3536978  86.2876243
  12.8615634  92.6584968  87.5190423   7.1210465  89.8697368  85.4245432
   6.2513774  90.1630934  85.1528020   7.3569945  90.4537813  86.1452695
  16.9982094  98.9296527  85.5074960  16.7066902  99.2926507  86.3438421
  16.3854225  98.2163535  85.3288292  18.1977776  96.4949407  78.0277531
  19.0324668  96.9339211  78.1915091  18.3336905  96.0188060  77.2085776
  15.2469282  94.0529141  83.9755018  15.7223404  94.2456788  83.1673870
  14.3234848  94.1088327  83.7298402   2.1352789  95.2153309  73.5586097
   1.8898831  94.3115639  73.7566307   2.3048703  95.2170459  72.6165575
   9.8249499  86.0876985  82.9410852  10.3431443  86.8238012  82.6157341
   9.4704632  86.3940978  83.7757611   1.4048436  90.9481666  71.0572258
   0.7117681  91.0226021  70.4012294   1.1600188  90.1842010  71.5793775
  10.0762093  82.5077267  78.4611749  10.3563847  81.8400457  79.0872175
  10.8612700  82.7006363  77.9486413   7.8795561 101.6836261  70.0236775
   7.3069528 102.3026448  69.5707247   8.4528355 102.2335623  70.5576697
  13.9470951  90.9294901  82.2083324  14.8988374  91.0292999  82.2295548
  13.7774402  90.1373170  82.7181408  11.9685331  88.0150485  82.3942725
  11.3735263  88.2955497  81.6989213  11.6835027  88.5044386  83.1659466
  11.0992821 101.9673411  71.1545357  12.0323494 101.9018973  71.3578233
  11.0116034 102.8029678  70.6959890  13.7280838 101.2839282  68.1149305
  13.6494469 100.9499145  69.0085063  14.5490505 101.7761050  68.1140777
  16.4259029  94.1501021  81.3225624  16.3935349  93.2117022  81.5085307
  17.0359653  94.2285058  80.5891448   8.2642360  93.0197074  67.3652828
   9.2101465  92.8903282  67.4341246   7.8856605  92.2811736  67.8422256
  16.5753518  90.9412065  81.3683907  16.0592566  90.1570521  81.1813836
  17.4593466  90.6130781  81.5330426  14.2364244  84.6853080  77.3279719
  14.0389066  84.3768168  78.2123051  14.8463950  85.4114719  77.4577649
  22.2435579  95.2117028  80.4631660  22.9738967  94.9502316  81.0239364
  21.6342524  94.4745750  80.5033728  20.3250876  93.3524891  81.0606112
  19.5984040  93.2180855  80.4522603  19.9098163  93.6601719  81.8662830
   8.1481052  97.0714820  88.8253485   9.0684062  97.2493419  89.0193531
   8.1130635  96.1270866  88.6733184   6.4485277  90.9447050  67.3007713
   5.5416732  90.6480163  67.3770426   6.7261258  90.6476869  66.4341999
   1.1443125  94.9815855  81.4676266   1.3629135  95.9132963  81.4864300
   1.5568899  94.6223829  82.2531070   8.0647343  85.4883940  73.4551954
   7.2548071  85.1431025  73.8307200   8.7531760  85.1791484  74.0439566
   9.9937891  84.5661987  75.0776251  10.5468930  84.9857440  75.7366274
  10.2307977  83.6397735  75.1199207   6.0170990  90.5549061  90.8579015
   5.9167717  91.5043418  90.7891106   5.7992532  90.2267300  89.9855085
   5.2184062  87.8033986  67.4419692   6.0803226  88.1288884  67.7015509
   5.4034406  87.0165482  66.9292758  13.3716698  86.6762512  74.5854915
  12.7915367  87.3347316  74.2032967  13.1052631  85.8539857  74.1742333
  11.8220265  86.0767570  76.7876235  12.3220043  86.1884104  75.9790554
  12.4655872  85.7728623  77.4277044   5.8802260  93.9846200  89.6744076
   5.3969342  94.7846560  89.8807965   5.9663199  93.9954144  88.7211520
   1.8075598  97.8750734  81.7112510   2.7618851  97.8434677  81.6442442
   1.6088121  97.4141358  82.5262736   2.3974980  96.4451850  84.2783308
   3.2167869  96.9395929  84.3018145   2.6711788  95.5283818  84.2500875
  12.1541576  88.8362603  73.6411263  11.2667431  89.1212253  73.4231458
  12.5695565  88.6756366  72.7938540  15.5056112  88.8609124  77.3565603
  16.2816502  89.3505576  77.6290219  14.7804246  89.2867178  77.8137472
  17.9428671  89.5736743  78.4139543  18.5373162  89.3332479  77.7032851
  18.0155255  88.8543873  79.0413079  11.2984790  98.6007277  67.7359283
  12.0020640  98.8057280  68.3516939  10.5747438  99.1684039  68.0008367
  12.1282600  94.3517138  73.8561553  12.0717801  94.8085690  73.0169186
  12.6810942  93.5907823  73.6784396  15.9387406  90.1406870  74.6811673
  15.6824340  89.7403506  75.5119881  15.3140274  90.8550664  74.5561812
  20.2499744  92.8802944  77.1882964  19.6899302  92.9496133  77.9614526
  19.6443247  92.7043928  76.4682461   3.3194953 104.3139671  78.9401151
   3.2027337 105.2585103  78.8379841   2.4987399 104.0113232  79.3286950
  13.2071487  99.0389806  69.7857743  14.0417091  98.6071005  69.6035218
  13.0455830  98.8671820  70.7134638  12.8617379  95.5421920  71.1514083
  12.8066183  95.3766191  70.2102527  12.2363434  96.2497953  71.3076272
  10.1763286  97.8470832  90.4767645  11.0454446  98.0211484  90.1154280
   9.6970038  98.6665248  90.3543375   6.1713505  85.0430029  70.7299401
   6.1592175  85.9871869  70.8867672   7.0636927  84.8600174  70.4358862
   4.3449467 104.9667933  82.1557079   5.2476713 104.9991543  82.4723574
   4.1186837 104.0368384  82.1703415   6.1003069 103.7198919  78.8167158
   5.1498700 103.7200781  78.7031530   6.4035555 102.9731654  78.3003192
   9.9865624  81.6372805  74.9845338   9.2198020  81.0831292  75.1302020
  10.3976329  81.7094674  75.8459489   1.9907385  87.9257601  89.0750519
   2.8538847  87.5694406  89.2853844   1.4172796  87.5871496  89.7625923
  21.8355762 109.5559458  79.8812920  22.4734172 109.4366205  79.1776260
  21.7176605 110.5040301  79.9400872  18.6445468 109.5086886  79.8174445
  18.3063980 109.3927950  78.9294980  19.5135237 109.1078051  79.7975451
  14.5032284 111.3622362  75.8071336  13.9397149 111.2712299  75.0387623
  14.3884679 110.5422267  76.2873828  19.1265251 110.6621737  85.7760650
  19.1153892 110.2674536  84.9041154  19.2885891 109.9287810  86.3694422
  12.0496716 112.8573554  78.6455556  12.8418008 112.5164378  78.2301855
  12.2893366 112.9668529  79.5657709  20.0831843 115.0293330  71.1185801
  19.4319823 115.6147410  70.7319814  20.8776206 115.5599525  71.1780838
  14.0087470 112.1182467  71.5172935  14.7818346 111.5711454  71.3785811
  14.3612869 112.9826716  71.7287396  15.8472513 113.4458849  84.7239834
  15.5562379 114.3504480  84.6086501  16.4829497 113.4875377  85.4383904
  16.7728719 110.8235698  81.3141194  17.3692292 110.5991720  80.5998157
  16.8303691 110.0820443  81.9166642  16.3453748 108.2775133  69.1491385
  16.5979268 107.7556654  68.3874848  15.4078307 108.1141278  69.2518068
  21.3897031 107.2810911  76.9566128  22.1760120 106.8630335  76.6056545
  21.6535735 108.1857004  77.1247776  21.5607108 112.7183762  71.6554785
  20.9252941 112.7918388  72.3675690  21.2304514 113.3077361  70.9773864
  26.7905458 107.2186145  77.8599107  27.5230630 106.6485361  78.0936936
  26.0344813 106.8307745  78.3005612  16.0650037 110.1803239  71.3515760
  15.9486295 109.5048142  72.0196844  16.1752296 109.6935613  70.5347913
  18.4081577 109.6413386  75.0562449  18.0439785 109.1144007  75.7675371
  19.2648693 109.2511855  74.8828934  24.3130878 100.9307719  82.3193715
  23.9814203 101.8003130  82.0954930  23.7176491 100.6144003  82.9987746
  18.0487064 104.6703286  70.0523798  18.2161467 105.5383522  70.4194269
  17.8584234 104.8330567  69.1285087  20.8062398 113.1320265  81.7189628
  20.5063121 114.0345303  81.6105435  20.4613457 112.8652448  82.5710781
  14.2574879 109.5834062  77.7526332  13.3325376 109.4510276  77.9604024
  14.5059292 110.3628281  78.2496275  24.2059541 105.6502805  79.3987065
  23.2976419 105.5818213  79.1045826  24.1547137 106.1274750  80.2268891
  18.0276285 107.1260943  71.0370464  17.9075911 107.5717994  71.8755945
  17.3328874 107.4746261  70.4784003  11.6183690 109.2267335  78.5870121
  11.7476071 109.4801814  79.5009533  10.9381141 109.8195043  78.2674777
  15.7883177 119.8964585  74.6860596  15.7107207 120.8472410  74.7649076
  15.1844821 119.5510458  75.3435522  18.2800407 107.0692450  87.3421963
  17.5033741 107.6286371  87.3324827  18.9190970 107.5549233  87.8636833
  26.0721188 103.8519243  81.1764939  25.4295568 104.1451776  80.5304734
  25.5676116 103.7372164  81.9818136  23.7261351 107.5982416  71.8650798
  24.6379208 107.8309803  71.6898496  23.2170999 108.1819461  71.3025877
  16.5346780 109.8777904  86.9039930  17.2761464 110.4162948  86.6274753
  15.8283765 110.5044193  87.0611481  22.0102119 112.0207044  85.5012091
  22.4185475 111.5789455  84.7566723  21.2879381 111.4459672  85.7546284
  18.3633189 106.9579651  82.8745648  19.2094384 107.3819065  83.0180297
  18.3031827 106.3013275  83.5684211  22.3330934 112.5808235  79.2564380
  21.7039796 112.7453949  78.5540448  21.9456596 112.9949844  80.0275344
  26.2120166 113.5162673  76.6108744  25.5271204 113.8961574  76.0605777
  26.2964015 114.1257999  77.3440691  21.5132635 104.6184019  84.5326822
  21.2693566 105.3726080  83.9961097  21.7892565 104.9969367  85.3674069
  23.4671097 111.1622632  83.2104087  23.6787993 111.8054392  82.5338468
  23.4200846 110.3284948  82.7426017  21.0697326 103.7740452  80.1140659
  20.2081805 104.0721706  80.4057397  21.0959761 103.9910851  79.1821692
  17.8858896 112.3182643  76.5214465  18.3497241 112.5970346  75.7319088
  17.6215694 111.4166088  76.3387556  14.7782977 111.8654125  79.4594228
  15.3484334 112.2941393  78.8211713  15.3691089 111.5836709  80.1578414
  16.8227782 108.4405795  73.3304030  17.5251825 108.8926839  73.7977957
  16.4908410 107.7989614  73.9583923  15.2708143 107.0317552  87.7055240
  14.6406804 107.7133833  87.9390636  15.1644231 106.9200634  86.7608378
  10.5653116 106.6989348  78.6321164   9.7752170 106.9546877  78.1561274
  11.0564363 107.5137686  78.7373204  24.5816925 114.0394587  81.3826445
  25.4034369 113.6374774  81.1009126  24.5779328 113.9362821  82.3342560
  12.5167861 107.0633927  75.5904640  11.7199024 107.1752622  76.1088136
  12.2893453 107.4020579  74.7245531  18.3473529 113.5878631  83.5387155
  18.4117961 114.0499038  84.3745327  17.6384453 112.9575995  83.6669465
   8.8490819 106.9519838  81.0636155   9.0998857 107.8366848  81.3293730
   9.3850367 106.7724440  80.2911246  32.6722918 110.3833336  77.7311416
  31.9186627 109.8140734  77.5755420  32.8070460 110.3496000  78.6782051
  18.0621546 115.2546738  73.4066135  17.9267221 116.0998274  73.8350983
  18.6031359 115.4566016  72.6432069  14.5488886 101.3338318  90.0680491
  14.1555832 100.7804516  90.7428135  15.3655026 101.6448896  90.4587008
  11.5150944 112.7722176  73.9794060  12.0275464 113.5665426  74.1299625
  12.1673657 112.0748466  73.9127662  13.3245828 115.8887932  76.0616814
  13.5012457 116.8105897  75.8737798  14.1202662 115.5746352  76.4911193
  17.4656847 102.7496197  87.6600747  18.2066560 103.3503350  87.5805210
  17.6974770 102.0073835  87.1018790  12.6098185 107.9352564  85.9378977
  12.4951700 107.0337821  86.2386076  11.7542703 108.1816261  85.5863793
  19.6890023 115.8770305  87.5366477  19.2453877 115.0906683  87.2187382
  20.3507236 116.0649455  86.8710368  14.4477144 117.4066106  82.0627156
  14.9984569 117.2783169  81.2904150  13.6088620 117.7060995  81.7122049
  21.7871261 116.1573104  85.5647879  21.7689736 116.9781985  85.0728148
  22.7091181 116.0327180  85.7898020  18.2444315 113.6717234  86.4071387
  18.7772652 112.9105522  86.1770695  17.7158396 113.3790886  87.1495542
  21.4114010  98.7777300  81.9365029  21.0678279  99.6678942  81.8604139
  21.7792973  98.5878958  81.0734614   9.4799861 111.1010830  74.7553631
  10.3175083 111.5107839  74.5387339   9.6578128 110.1610272  74.7253825
  21.3764293 108.7685911  70.4437464  20.8610916 109.5390516  70.6825851
  21.1041601 108.0951047  71.0670525  18.9611404 103.6135612  75.5022702
  18.1053000 103.2242462  75.3228341  19.3738355 103.6927573  74.6422488
  20.4910550 101.1481955  79.9014262  19.9875346 101.1112090  79.0882067
  20.7841157 102.0574698  79.9610919  16.7353436 101.2320685  78.9080444
  17.6006433 101.0363493  78.5486333  16.8030945 101.0031037  79.8349801
  26.3498567 111.5218266  72.3790637  25.5728010 111.1829425  71.9345800
  27.0290048 111.5270889  71.7045602  21.1650596 106.6413003  72.2697245
  20.8600731 106.9559152  73.1207388  22.1181038 106.7194423  72.3124578
  19.6097028 112.8003226  73.9190199  19.0818389 112.0655986  73.6063437
  19.1084530 113.5777903  73.6730167  24.5889874 110.9952247  79.0357245
  23.9313548 111.6851508  79.1237374  25.3930273 111.3848679  79.3791232
  14.3415755 103.4622893  76.2796811  14.9159507 103.2398074  75.5470004
  14.9286738 103.5311587  77.0325412  23.3995332 109.3496620  77.0861187
  23.9127214 109.9826611  77.5882897  24.0496556 108.7497815  76.7204547
  14.6685342 105.4927354  70.2992696  13.8322655 105.8302040  70.6201971
  14.5290112 105.3576333  69.3619833  16.6438423 100.3364142  75.0071880
  15.9902835 100.0213159  74.3828495  16.6018897  99.7139882  75.7331703
  17.7549628 110.6183437  66.9225172  16.8476690 110.3872690  67.1216321
  18.2520660 109.8221056  67.1099154  20.6617707 119.3280944  69.8421858
  19.9879405 119.6312641  70.4506816  21.0483529 120.1310024  69.4927315
  19.8776163 106.8246075  79.3319528  18.9598725 107.0461022  79.1741216
  20.2936307 106.8992386  78.4731235  20.6611211 108.2237491  74.4622208
  21.4083030 108.7358888  74.1529330  20.9302801 107.9021544  75.3226601
  18.9337861 110.7196032  71.4449162  18.0249081 110.4355064  71.5421632
  18.9632945 111.1395110  70.5852469  24.1657129 114.3302621  75.2140330
  23.7119456 113.4893531  75.2705520  23.5351095 114.9664019  75.5515110
  23.1090048 105.2594607  76.4440997  22.3712805 104.7471993  76.7751240
  23.3616822 104.8194989  75.6324274  22.6090068 116.1679118  76.1490148
  22.9013042 116.7284175  75.4302514  23.1188689 116.4607679  76.9043307
  23.2101676  98.0370859  77.0382767  23.5160552  97.1768222  76.7508682
  23.9354280  98.6288479  76.8381760   9.5026032 108.4401546  75.4264364
   9.3050431 107.8470906  74.7015431   8.9472696 108.1353756  76.1440303
  17.4822755 108.3324652  77.5458958  17.5371365 107.3798489  77.4701434
  16.6713957 108.4884091  78.0300256  18.6313949 112.2604775  68.7837241
  18.1933379 111.5440634  68.3242878  19.3724390 112.4880890  68.2222332
  15.4215115 106.9501712  75.3049336  14.6082981 107.2495882  75.7114529
  15.9174109 106.5557401  76.0223819  17.5723693 116.9459469  77.2383601
  17.5299872 117.1720315  76.3092133  18.4886392 116.7122843  77.3869402
  21.0189327 107.4143536  84.1364230  21.3738715 107.6415009  84.9958696
  21.6661458 107.7461913  83.5141486  26.7487064 110.5361972  74.8413559
  26.6104962 110.7263568  73.9134749  26.3923283 111.2981355  75.2981611
  14.9129190 104.5220067  80.9210571  15.5528569 104.3808826  80.2233535
  14.0806721 104.2354581  80.5449173  26.7756443 112.6038499  79.8524831
  27.2092950 112.5113788  80.7007885  27.4888024 112.5796000  79.2144847
  15.6889494 113.8222498  77.0345564  16.4830092 113.3272818  76.8328139
  14.9781186 113.2940361  76.6713269  20.5084338 116.2040593  81.3857931
  20.5621361 116.7731530  82.1535647  19.6399120 116.3742478  81.0211969
  11.9972257 107.9665580  73.1105317  11.0669845 107.9050035  73.3275279
  12.0929729 107.4441532  72.3141958  11.9157806 104.4920392  75.6983558
  12.1764624 105.4065726  75.5892719  12.7374979 104.0244835  75.8480171
  13.3882732 105.9058150  82.8682383  14.0605785 105.6975512  82.2195032
  12.5612518 105.7080236  82.4287615  27.6371993 112.6462200  82.3857716
  27.8307883 113.5508010  82.6316991  27.5372611 112.1869619  83.2196301
  19.2908304 102.5320090  84.8848044  18.6436219 103.2310040  84.7912520
  20.0609319 102.9656234  85.2524292  22.6987102 112.7968943  87.9598597
  22.5472608 112.5679494  87.0428681  22.6891781 113.7539544  87.9729942
  19.4672438 110.3700855  82.9444863  20.3964498 110.5212015  82.7713831
  19.0463468 110.4584876  82.0893510  18.2660770 114.3951520  80.7143401
  18.1271856 114.0270304  81.5869339  17.4775366 114.9099159  80.5427359
  18.8608922 119.4960616  72.0568937  19.0360678 119.0248659  72.8714560
  18.1741710 120.1226382  72.2850198  19.8165985 113.7733122  78.1032239
  19.4815818 113.7333892  78.9989889  19.3169931 113.1077838  77.6302649
  13.7910229 109.1800753  83.6284820  13.6530027 108.4480991  84.2296359
  14.7015152 109.0909653  83.3469008  22.7525177 111.1189157  68.3769298
  22.1354347 110.3935985  68.2802351  22.2841665 111.8798517  68.0336373
  16.4192530 108.8920712  83.1168500  17.1292148 108.2513904  83.0755118
  16.3761838 109.1433607  84.0394680  24.4079308 115.8288065  86.0375079
  24.3491855 115.1447285  85.3705662  24.8098827 116.5707055  85.5855705
  15.1321464 105.8785930  84.9364139  14.5958821 105.4276668  85.5885735
  14.5438172 106.0131839  84.1934603  13.4270007 122.6449979  78.8308798
  13.6666605 123.2768503  79.5087816  12.5839204 122.2938019  79.1174157
  14.5423723 105.3374581  67.4990603  13.6653189 105.2163382  67.1352849
  15.0181476 104.5460659  67.2469491  24.4096716 113.7927649  84.2689058
  23.5223494 113.4553571  84.3915457  24.9795267 113.0610680  84.5057824
   6.0625863 110.1251741  77.5932110   6.7496903 109.8113471  77.0053125
   5.9073991 111.0293106  77.3199361  10.8660585 105.0141937  82.0217134
  10.7818774 104.4067607  81.2867543  10.0443291 105.5050956  82.0226630
  17.9397869 118.4529101  81.2350302  17.8668040 119.2584073  81.7469606
  17.4975262 118.6521067  80.4098323  17.7287649 117.6900872  74.7453123
  16.9455171 118.2322552  74.8391348  18.4280394 118.2074851  75.1447364
  21.0384299 103.4995501  77.3887329  21.5352998 102.7465463  77.0688399
  20.2671280 103.5359818  76.8230538  28.8914056 109.2035866  79.0305620
  28.8803932 110.0860582  78.6599553  28.0231436 108.8507417  78.8360157
  20.3996553 118.3515936  83.3908460  21.1124525 118.9863400  83.3184362
  19.9086581 118.4479801  82.5748462  22.1214079 112.2567188  74.9625752
  21.1870358 112.3768651  74.7930456  22.2990748 111.3539655  74.6985762
  17.6219268 105.6412884  77.1159013  17.2517055 105.0883924  77.8039919
  18.1178360 105.0371017  76.5634013  25.5086631 108.0984507  75.4975786
  25.9747083 108.9312499  75.4236089  25.9594131 107.6329489  76.2021045
  15.4508466 116.1010379  84.2114031  16.1517926 116.7346862  84.3643425
  14.9803581 116.4425111  83.4509670  23.5762862 114.4428329  72.4961938
  23.8522706 114.3284923  73.4055812  22.7067361 114.0445814  72.4574111
  23.4803294 100.4665094  79.5366687  22.5666373 100.6969321  79.7048894
  23.9096395 100.5503539  80.3880720  23.2509752 108.6554986  82.0366581
  22.5981202 108.9030894  81.3819034  23.6290132 107.8419125  81.7029059
  20.2116926 118.6914680  76.1394752  20.3939320 117.8736336  76.6022504
  21.0349912 118.9082372  75.7019642  20.5459091 117.6182865  73.4009800
  21.0746858 117.1075319  72.7879962  20.8087311 117.3025395  74.2655333
  19.2997325 109.3974797  88.5232619  18.6237962 109.2968927  89.1934994
  20.1224959 109.2414011  88.9868616  11.0476184 115.6346734  81.1445134
  11.6329621 114.8890422  81.2773038  10.8501023 115.9450691  82.0281798
  13.9014839 118.6697981  76.1607576  13.2325215 119.1544109  75.6771616
  13.7627709 118.9167202  77.0750955   5.6393839 108.2052334  79.8649577
   5.6777938 107.6715925  80.6586695   5.1334132 107.6787540  79.2460554
  18.0420108 120.7041725  82.7590235  18.5938416 120.8673346  83.5239320
  18.3826301 121.2946163  82.0870259  13.0184601 103.0516875  83.3612119
  13.0825928 103.9131706  82.9489517  12.9551721 102.4390876  82.6284478
  12.4936874 105.1240007  87.0085154  13.1208913 104.7417085  87.6222678
  11.6364793 104.9054209  87.3740846  22.8930982 115.5302982  88.6138889
  23.4370886 116.1432941  88.1193844  22.3117827 116.0882561  89.1305902
   9.2702416 106.9316436  72.9403508   9.5655858 106.0227115  72.8870562
   8.3690452 106.9104176  72.6184511  21.1788495 118.6523700  79.7453917
  21.0539635 117.8513440  79.2364862  21.8367586 119.1469894  79.2567887
  12.7996663 105.0072433  78.9231057  12.0783249 105.6208401  78.7838530
  13.5889919 105.5430198  78.8447703  23.2423404 116.4532721  81.3733467
  22.2953739 116.3338072  81.3011794  23.5906177 115.5655219  81.4559728
  15.6022977 102.3426859  85.1971709  16.1257379 102.5889156  85.9598018
  15.3835310 103.1746894  84.7774846  10.9990258 104.6130534  73.0642833
  10.6702964 103.7327913  72.8817939  11.3529629 104.5578203  73.9519223
  20.2469837 116.2485437  77.5737819  20.0994799 115.3202144  77.7545389
  21.0723330 116.2705527  77.0894894  14.1132081 104.9003504  73.4318311
  14.4528154 105.4289425  72.7096920  14.5604202 105.2383910  74.2076878
  23.8503959 117.0713995  78.6602692  24.7750506 116.8656857  78.5227143
  23.6819262 116.8230397  79.5692033  16.8075522 103.2840555  82.8821379
  16.4672342 102.4848368  83.2842059  16.1014528 103.5842265  82.3098212
  17.4591994 100.3689867  81.3348702  18.2818063  99.8950345  81.2127593
  17.7030057 101.1480351  81.8347389  16.1000228 103.3978125  71.6311604
  16.8208591 103.7759378  71.1275321  15.4765532 104.1167002  71.7346582
  20.2431351 104.1023274  72.5669936  20.4594966 104.9847912  72.2658764
  19.7625418 103.7109488  71.8375578  14.9830573 107.0608988  79.1440681
  14.8375153 107.3749291  80.0364962  14.5055776 107.6793888  78.5911579
  16.8426955 104.0511536  79.1921570  16.8288524 103.1552629  78.8553868
  17.5599384 104.0582199  79.8259856  18.6953086 104.4848876  81.2374698
  18.4370864 105.4065946  81.2359028  18.1638127 104.0879310  81.9275162
  23.6399275 117.5899663  74.0164783  23.8136152 117.0246085  73.2638636
  24.1328166 118.3900558  73.8344273   9.4576235 109.6014332  82.0828342
   8.9129703 110.3774140  82.2148616  10.3355585 109.9485136  81.9247463
  16.2463851 102.9325916  74.4609141  16.3679763 102.0042562  74.6600028
  15.9565894 102.9464602  73.5487456  19.1155042 100.6180826  77.5975860
  19.1376739 100.6820159  76.6427840  19.5323101  99.7785335  77.7916367
  29.4938666 110.3536086  75.6355083  29.9369812 109.6043411  75.2374206
  28.6165176 110.3446222  75.2528815  24.6274447 116.9066427  71.1161682
  25.3225352 117.5273120  71.3348996  24.9697598 116.0561779  71.3914059
  10.2442257 108.7284228  84.9758499   9.5023993 108.8766864  85.5623129
   9.9235001 108.9892494  84.1125248  26.5265871 114.3566133  72.6449012
  27.0517195 114.6953406  71.9198332  26.4388223 113.4213148  72.4612147
  18.1885919 118.2700207  84.7738889  18.4973046 118.0249353  85.6461588
  18.9861401 118.4746845  84.2857759  18.2106531 120.4238116  77.0044265
  17.7711522 119.9314495  77.6977122  18.9614648 119.8811084  76.7636341
  10.6898870 116.6149657  77.0068894  11.5156890 116.3153429  76.6267537
  10.3392922 115.8457279  77.4558682  15.6580403 115.9676125  79.0766567
  15.0360413 115.3046830  78.7768795  16.3285270 115.9937257  78.3940215
   8.8907475 114.5335983  77.9657827   8.0539384 114.1058158  77.7841828
   8.8631121 114.7268427  78.9028618  15.7304931 104.4457913  88.6699073
  15.7793086 105.3220036  88.2876843  16.2727445 103.9035306  88.0970716
  26.2159777 114.9899037  87.9500210  25.4255320 114.9723175  87.4104710
  25.9793131 115.5287330  88.7049247  26.3357652 111.8391503  85.2632939
  26.3855657 111.6741510  86.2048462  26.2271575 110.9718762  84.8730820
  15.2193910 114.5180049  72.5525028  15.3682031 115.2015513  71.8991700
  16.0260354 114.4985139  73.0674483  23.6261414 107.8222431  86.5792245
  24.5271277 107.6828896  86.2876243  23.7009389 107.9876886  87.5190423
  17.9604219 105.1989286  85.4245432  17.0907529 105.4922852  85.1528020
  18.1963700 105.7829731  86.1452695  27.8375849 114.2588444  85.5074960
  27.5460657 114.6218425  86.3438421  27.2247980 113.5455453  85.3288292
  29.0371531 111.8241324  78.0277531  29.8718422 112.2631128  78.1915091
  29.1730660 111.3479977  77.2085776  26.0863037 109.3821059  83.9755018
  26.5617158 109.5748705  83.1673870  25.1628602 109.4380245  83.7298402
  12.9746543 110.5445226  73.5586097  12.7292585 109.6407556  73.7566307
  13.1442458 110.5462377  72.6165575  20.6643253 101.4168903  82.9410852
  21.1825197 102.1529930  82.6157341  20.3098386 101.7232896  83.7757611
  12.2442191 106.2773584  71.0572258  11.5511436 106.3517939  70.4012294
  11.9993943 105.5133927  71.5793775  20.9155847  97.8369185  78.4611749
  21.1957601  97.1692374  79.0872175  21.7006454  98.0298281  77.9486413
  18.7189316 117.0128179  70.0236775  18.1463283 117.6318366  69.5707247
  19.2922110 117.5627541  70.5576697  24.7864706 106.2586819  82.2083324
  25.7382129 106.3584917  82.2295548  24.6168156 105.4665088  82.7181408
  22.8079085 103.3442402  82.3942725  22.2129017 103.6247415  81.6989213
  22.5228782 103.8336303  83.1659466  21.9386576 117.2965329  71.1545357
  22.8717249 117.2310891  71.3578233  21.8509789 118.1321596  70.6959890
  24.5674592 116.6131200  68.1149305  24.4888224 116.2791063  69.0085063
  25.3884259 117.1052967  68.1140777  27.2652784 109.4792939  81.3225624
  27.2329104 108.5408940  81.5085307  27.8753407 109.5576976  80.5891448
  19.1036114 108.3488992  67.3652828  20.0495219 108.2195200  67.4341246
  18.7250359 107.6103654  67.8422256  27.4147272 106.2703982  81.3683907
  26.8986321 105.4862439  81.1813836  28.2987221 105.9422699  81.5330426
  25.0757999 100.0144998  77.3279719  24.8782820  99.7060086  78.2123051
  25.6857705 100.7406637  77.4577649  33.0829333 110.5408946  80.4631660
  33.8132722 110.2794234  81.0239364  32.4736279 109.8037668  80.5033728
  31.1644631 108.6816808  81.0606112  30.4377794 108.5472773  80.4522603
  30.7491917 108.9893637  81.8662830  18.9874807 112.4006738  88.8253485
  19.9077816 112.5785337  89.0193531  18.9524390 111.4562783  88.6733184
  17.2879032 106.2738968  67.3007713  16.3810487 105.9772081  67.3770426
  17.5655013 105.9768786  66.4341999   8.2056972 107.5945332  77.7506759
   7.8859756 106.7410640  77.4581133   7.6590400 107.8093910  78.5064727
  11.9836879 110.3107773  81.4676266  12.2022889 111.2424880  81.4864300
  12.3962653 109.9515747  82.2531070  18.9041097 100.8175858  73.4551954
  18.0941826 100.4722943  73.8307200  19.5925514 100.5083402  74.0439566
  20.8331646  99.8953905  75.0776251  21.3862684 100.3149358  75.7366274
  21.0701732  98.9689653  75.1199207  16.8564745 105.8840978  90.8579015
  16.7561472 106.8335335  90.7891106  16.6386287 105.5559217  89.9855085
  16.0577816 103.1325903  67.4419692  16.9196980 103.4580802  67.7015509
  16.2428160 102.3457399  66.9292758   8.0745232 111.2148243  79.7199881
   7.3808703 110.8002196  79.2069835   8.8218223 111.2568780  79.1233300
  24.2110453 102.0054430  74.5854915  23.6309122 102.6639234  74.2032967
  23.9446385 101.1831774  74.1742333  22.6614019 101.4059488  76.7876235
  23.1613797 101.5176022  75.9790554  23.3049627 101.1020540  77.4277044
  16.7196015 109.3138117  89.6744076  16.2363097 110.1138477  89.8807965
  16.8056954 109.3246062  88.7211520   9.9881974 111.1466497  77.5965896
   9.9652663 111.2454184  76.6447779  10.2982611 111.9931648  77.9183062
  12.6469352 113.2042652  81.7112510  13.6012606 113.1726594  81.6442442
  12.4481876 112.7433276  82.5262736  13.2368734 111.7743768  84.2783308
  14.0561623 112.2687847  84.3018145  13.5105542 110.8575736  84.2500875
  22.9935331 104.1654520  73.6411263  22.1061186 104.4504171  73.4231458
  23.4089320 104.0048284  72.7938540  26.3449867 104.1901041  77.3565603
  27.1210257 104.6797494  77.6290219  25.6198001 104.6159095  77.8137472
  28.7822425 104.9028660  78.4139543  29.3766916 104.6624396  77.7032851
  28.8549009 104.1835791  79.0413079  11.0019581 118.7462271  78.7282708
  10.8674049 117.9862672  78.1620706  10.5851643 119.4703171  78.2611497
  22.1378544 113.9299195  67.7359283  22.8414394 114.1349197  68.3516939
  21.4141193 114.4975957  68.0008367  22.9676354 109.6809056  73.8561553
  22.9111556 110.1377608  73.0169186  23.5204697 108.9199741  73.6784396
  26.7781160 105.4698788  74.6811673  26.5218095 105.0695424  75.5119881
  26.1534028 106.1842582  74.5561812  31.0893498 108.2094861  77.1882964
  30.5293056 108.2788051  77.9614526  30.4837002 108.0335846  76.4682461
  14.1588707 119.6431588  78.9401151  14.0421091 120.5877021  78.8379841
  13.3381153 119.3405150  79.3286950  24.0465242 114.3681724  69.7857743
  24.8810845 113.9362923  69.6035218  23.8849584 114.1963738  70.7134638
  23.7011134 110.8713837  71.1514083  23.6459938 110.7058109  70.2102527
  23.0757189 111.5789870  71.3076272   8.4903649 106.1081902  84.9775505
   9.1362512 105.5980856  85.4662730   8.2820800 106.8450583  85.5518930
  21.0157041 113.1762749  90.4767645  21.8848201 113.3503402  90.1154280
  20.5363792 113.9957166  90.3543375  17.0107259 100.3721946  70.7299401
  16.9985929 101.3163786  70.8867672  17.9030681 100.1892092  70.4358862
  15.1843221 120.2959850  82.1557079  16.0870468 120.3283461  82.4723574
  14.9580591 119.3660301  82.1703415  16.9396823 119.0490837  78.8167158
  15.9892454 119.0492698  78.7031530  17.2429309 118.3023571  78.3003192
  20.8259379  96.9664723  74.9845338  20.0591774  96.4123210  75.1302020
  21.2370084  97.0386592  75.8459489  12.8301140 103.2549519  89.0750519
  13.6932601 102.8986324  89.2853844  12.2566550 102.9163414  89.7625923
  32.6749517 124.8851375  79.8812920  33.3127927 124.7658123  79.1776260
  32.5570360 125.8332219  79.9400872  29.4839223 124.8378803  79.8174445
  29.1457734 124.7219868  78.9294980  30.3528991 124.4369968  79.7975451
  25.3426039 126.6914280  75.8071336  24.7790904 126.6004217  75.0387623
  25.2278434 125.8714184  76.2873828  29.9659006 125.9913655  85.7760650
  29.9547647 125.5966453  84.9041154  30.1279645 125.2579728  86.3694422
  22.8890471 128.1865471  78.6455556  23.6811762 127.8456296  78.2301855
  23.1287121 128.2960446  79.5657709  30.9225597 130.3585247  71.1185801
  30.2713577 130.9439328  70.7319814  31.7169960 130.8891442  71.1780838
  24.8481224 127.4474385  71.5172935  25.6212100 126.9003372  71.3785811
  25.2006623 128.3118634  71.7287396  26.6866267 128.7750767  84.7239834
  26.3956133 129.6796398  84.6086501  27.3223251 128.8167294  85.4383904
  27.6122474 126.1527615  81.3141194  28.2086046 125.9283638  80.5998157
  27.6697445 125.4112361  81.9166642  27.1847502 123.6067051  69.1491385
  27.4373023 123.0848572  68.3874848  26.2472061 123.4433196  69.2518068
  32.2290785 122.6102829  76.9566128  33.0153874 122.1922252  76.6056545
  32.4929489 123.5148921  77.1247776  32.4000862 128.0475679  71.6554785
  31.7646695 128.1210306  72.3675690  32.0698269 128.6369278  70.9773864
  37.6299212 122.5478062  77.8599107  38.3624384 121.9777279  78.0936936
  36.8738568 122.1599663  78.3005612  26.9043791 125.5095157  71.3515760
  26.7880049 124.8340060  72.0196844  27.0146051 125.0227531  70.5347913
  29.2475332 124.9705304  75.0562449  28.8833539 124.4435925  75.7675371
  30.1042448 124.5803773  74.8828934  35.1524633 116.2599636  82.3193715
  34.8207957 117.1295047  82.0954930  34.5570246 115.9435920  82.9987746
  28.8880819 119.9995203  70.0523798  29.0555221 120.8675440  70.4194269
  28.6977988 120.1622485  69.1285087  31.6456152 128.4612182  81.7189628
  31.3456875 129.3637221  81.6105435  31.3007212 128.1944366  82.5710781
  25.0968634 124.9125979  77.7526332  24.1719130 124.7802193  77.9604024
  25.3453047 125.6920198  78.2496275  35.0453296 120.9794723  79.3987065
  34.1370173 120.9110131  79.1045826  34.9940892 121.4566667  80.2268891
  28.8670040 122.4552861  71.0370464  28.7469665 122.9009912  71.8755945
  28.1722628 122.8038179  70.4784003  22.4577445 124.5559253  78.5870121
  22.5869826 124.8093732  79.5009533  21.7774896 125.1486961  78.2674777
  26.6276932 135.2256503  74.6860596  26.5500962 136.1764328  74.7649076
  26.0238576 134.8802375  75.3435522  29.1194162 122.3984368  87.3421963
  28.3427496 122.9578288  87.3324827  29.7584725 122.8841151  87.8636833
  36.9114942 119.1811161  81.1764939  36.2689323 119.4743694  80.5304734
  36.4069871 119.0664081  81.9818136  34.5655106 122.9274334  71.8650798
  35.4772962 123.1601721  71.6898496  34.0564753 123.5111378  71.3025877
  27.3740534 125.2069822  86.9039930  28.1155218 125.7454865  86.6274753
  26.6677519 125.8336110  87.0611481  32.8495874 127.3498962  85.5012091
  33.2579230 126.9081372  84.7566723  32.1273135 126.7751589  85.7546284
  29.2026944 122.2871569  82.8745648  30.0488139 122.7110982  83.0180297
  29.1425581 121.6305193  83.5684211  33.1724688 127.9100153  79.2564380
  32.5433551 128.0745867  78.5540448  32.7850350 128.3241762  80.0275344
  37.0513920 128.8454590  76.6108744  36.3664958 129.2253492  76.0605777
  37.1357769 129.4549917  77.3440691  32.3526389 119.9475937  84.5326822
  32.1087321 120.7017998  83.9961097  32.6286320 120.3261285  85.3674069
  34.3064852 126.4914549  83.2104087  34.5181747 127.1346309  82.5338468
  34.2594600 125.6576866  82.7426017  31.9091081 119.1032370  80.1140659
  31.0475560 119.4013624  80.4057397  31.9353515 119.3202769  79.1821692
  28.7252650 127.6474561  76.5214465  29.1890996 127.9262264  75.7319088
  28.4609448 126.7458005  76.3387556  25.6176731 127.1946042  79.4594228
  26.1878088 127.6233311  78.8211713  26.2084843 126.9128627  80.1578414
  27.6621536 123.7697713  73.3304030  28.3645580 124.2218757  73.7977957
  27.3302165 123.1281532  73.9583923  26.1101898 122.3609470  87.7055240
  25.4800558 123.0425751  87.9390636  26.0037986 122.2492551  86.7608378
  21.4046870 122.0281266  78.6321164  20.6145924 122.2838794  78.1561274
  21.8958118 122.8429604  78.7373204  35.4210680 129.3686505  81.3826445
  36.2428123 128.9666692  81.1009126  35.4173083 129.2654739  82.3342560
  23.3561616 122.3925845  75.5904640  22.5592779 122.5044539  76.1088136
  23.1287208 122.7312497  74.7245531  29.1867283 128.9170548  83.5387155
  29.2511716 129.3790955  84.3745327  28.4778207 128.2867913  83.6669465
  19.6884573 122.2811756  81.0636155  19.9392612 123.1658766  81.3293730
  20.2244122 122.1016358  80.2911246  43.5116673 125.7125253  77.7311416
  42.7580381 125.1432651  77.5755420  43.6464214 125.6787918  78.6782051
  28.9015301 130.5838656  73.4066135  28.7660976 131.4290191  73.8350983
  29.4425113 130.7857933  72.6432069  25.3882640 116.6630236  90.0680491
  24.9949586 116.1096434  90.7428135  26.2048781 116.9740814  90.4587008
  22.3544698 128.1014094  73.9794060  22.8669219 128.8957344  74.1299625
  23.0067411 127.4040384  73.9127662  24.1639583 131.2179850  76.0616814
  24.3406211 132.1397815  75.8737798  24.9596416 130.9038269  76.4911193
  28.3050601 118.0788115  87.6600747  29.0460315 118.6795268  87.5805210
  28.5368524 117.3365752  87.1018790  23.4491939 123.2644482  85.9378977
  23.3345455 122.3629739  86.2386076  22.5936457 123.5108179  85.5863793
  30.5283777 131.2062222  87.5366477  30.0847631 130.4198601  87.2187382
  31.1900991 131.3941373  86.8710368  25.2870898 132.7358024  82.0627156
  25.8378324 132.6075087  81.2904150  24.4482374 133.0352913  81.7122049
  32.6265015 131.4865022  85.5647879  32.6083491 132.3073903  85.0728148
  33.5484935 131.3619097  85.7898020  29.0838069 129.0009152  86.4071387
  29.6166406 128.2397440  86.1770695  28.5552151 128.7082803  87.1495542
  32.2507764 114.1069218  81.9365029  31.9072034 114.9970859  81.8604139
  32.6186727 113.9170875  81.0734614  20.3193615 126.4302748  74.7553631
  21.1568837 126.8399756  74.5387339  20.4971883 125.4902190  74.7253825
  32.2158047 124.0977829  70.4437464  31.7004671 124.8682433  70.6825851
  31.9435356 123.4242965  71.0670525  29.8005158 118.9427529  75.5022702
  28.9446755 118.5534380  75.3228341  30.2132110 119.0219490  74.6422488
  31.3304305 116.4773873  79.9014262  30.8269100 116.4404008  79.0882067
  31.6234912 117.3866615  79.9610919  27.5747191 116.5612602  78.9080444
  28.4400187 116.3655411  78.5486333  27.6424700 116.3322954  79.8349801
  37.1892321 126.8510183  72.3790637  36.4121764 126.5121343  71.9345800
  37.8683802 126.8562806  71.7045602  32.0044350 121.9704921  72.2697245
  31.6994486 122.2851070  73.1207388  32.9574792 122.0486341  72.3124578
  30.4490782 128.1295144  73.9190199  29.9212144 127.3947904  73.6063437
  29.9478285 128.9069820  73.6730167  35.4283628 126.3244165  79.0357245
  34.7707303 127.0143426  79.1237374  36.2324027 126.7140596  79.3791232
  25.1809510 118.7914810  76.2796811  25.7553262 118.5689992  75.5470004
  25.7680492 118.8603505  77.0325412  34.2389087 124.6788537  77.0861187
  34.7520969 125.3118529  77.5882897  34.8890311 124.0789733  76.7204547
  25.5079097 120.8219271  70.2992696  24.6716409 121.1593958  70.6201971
  25.3683867 120.6868251  69.3619833  27.4832177 115.6656059  75.0071880
  26.8296590 115.3505076  74.3828495  27.4412652 115.0431800  75.7331703
  28.5943382 125.9475354  66.9225172  27.6870444 125.7164608  67.1216321
  29.0914414 125.1512974  67.1099154  31.5011461 134.6572862  69.8421858
  30.8273160 134.9604558  70.4506816  31.8877283 135.4601942  69.4927315
  30.7169918 122.1537993  79.3319528  29.7992479 122.3752940  79.1741216
  31.1330061 122.2284303  78.4731235  31.5004966 123.5529408  74.4622208
  32.2476785 124.0650806  74.1529330  31.7696555 123.2313461  75.3226601
  29.7731616 126.0487949  71.4449162  28.8642835 125.7646982  71.5421632
  29.8026700 126.4687028  70.5852469  35.0050883 129.6594539  75.2140330
  34.5513210 128.8185449  75.2705520  34.3744850 130.2955937  75.5515110
  33.9483803 120.5886525  76.4440997  33.2106560 120.0763911  76.7751240
  34.2010576 120.1486906  75.6324274  33.4483822 131.4971035  76.1490148
  33.7406797 132.0576092  75.4302514  33.9582443 131.7899596  76.9043307
  34.0495430 113.3662777  77.0382767  34.3554307 112.5060140  76.7508682
  34.7748035 113.9580397  76.8381760  20.3419786 123.7693463  75.4264364
  20.1444186 123.1762824  74.7015431  19.7866450 123.4645674  76.1440303
  28.3216510 123.6616570  77.5458958  28.3765120 122.7090406  77.4701434
  27.5107712 123.8176009  78.0300256  29.4707704 127.5896693  68.7837241
  29.0327133 126.8732552  68.3242878  30.2118144 127.8172808  68.2222332
  26.2608870 122.2793630  75.3049336  25.4476735 122.5787800  75.7114529
  26.7567864 121.8849318  76.0223819  28.4117448 132.2751386  77.2383601
  28.3693626 132.5012233  76.3092133  29.3280146 132.0414761  77.3869402
  31.8583081 122.7435454  84.1364230  32.2132469 122.9706927  84.9958696
  32.5055213 123.0753831  83.5141486  37.5880818 125.8653890  74.8413559
  37.4498717 126.0555486  73.9134749  37.2317037 126.6273273  75.2981611
  25.7522944 119.8511985  80.9210571  26.3922324 119.7100744  80.2233535
  24.9200475 119.5646498  80.5449173  37.6150198 127.9330417  79.8524831
  38.0486705 127.8405706  80.7007885  38.3281779 127.9087917  79.2144847
  26.5283248 129.1514415  77.0345564  27.3223847 128.6564736  76.8328139
  25.8174941 128.6232279  76.6713269  31.3478093 131.5332511  81.3857931
  31.4015115 132.1023447  82.1535647  30.4792874 131.7034396  81.0211969
  22.8366012 123.2957497  73.1105317  21.9063600 123.2341953  73.3275279
  22.9323484 122.7733450  72.3141958  22.7551561 119.8212310  75.6983558
  23.0158378 120.7357643  75.5892719  23.5768733 119.3536753  75.8480171
  24.2276486 121.2350067  82.8682383  24.8999540 121.0267429  82.2195032
  23.4006273 121.0372153  82.4287615  38.4765748 127.9754118  82.3857716
  38.6701638 128.8799928  82.6316991  38.3766366 127.5161537  83.2196301
  30.1302058 117.8612008  84.8848044  29.4829973 118.5601958  84.7912520
  30.9003074 118.2948152  85.2524292  33.5380856 128.1260860  87.9598597
  33.3866363 127.8971412  87.0428681  33.5285536 129.0831462  87.9729942
  30.3066193 125.6992773  82.9444863  31.2358253 125.8503933  82.7713831
  29.8857223 125.7876794  82.0893510  29.1054524 129.7243437  80.7143401
  28.9665610 129.3562222  81.5869339  28.3169121 130.2391077  80.5427359
  29.7002676 134.8252534  72.0568937  29.8754432 134.3540577  72.8714560
  29.0135464 135.4518300  72.2850198  30.6559740 129.1025040  78.1032239
  30.3209572 129.0625810  78.9989889  30.1563685 128.4369756  77.6302649
  24.6303983 124.5092670  83.6284820  24.4923781 123.7772909  84.2296359
  25.5408907 124.4201570  83.3469008  33.5918931 126.4481075  68.3769298
  32.9748102 125.7227903  68.2802351  33.1235420 127.2090435  68.0336373
  27.2586284 124.2212630  83.1168500  27.9685903 123.5805822  83.0755118
  27.2155592 124.4725524  84.0394680  35.2473063 131.1579983  86.0375079
  35.1885609 130.4739203  85.3705662  35.6492581 131.8998973  85.5855705
  25.9715218 121.2077847  84.9364139  25.4352575 120.7568586  85.5885735
  25.3831927 121.3423756  84.1934603  24.2663762 137.9741897  78.8308798
  24.5060360 138.6060421  79.5087816  23.4232958 137.6229937  79.1174157
  25.3817477 120.6666499  67.4990603  24.5046943 120.5455300  67.1352849
  25.8575230 119.8752577  67.2469491  35.2490470 129.1219567  84.2689058
  34.3617249 128.7845489  84.3915457  35.8189021 128.3902598  84.5057824
  16.9019617 125.4543659  77.5932110  17.5890657 125.1405389  77.0053125
  16.7467746 126.3585023  77.3199361  21.7054339 120.3433855  82.0217134
  21.6212528 119.7359525  81.2867543  20.8837046 120.8342873  82.0226630
  28.7791624 133.7821019  81.2350302  28.7061795 134.5875991  81.7469606
  28.3369017 133.9812985  80.4098323  28.5681403 133.0192789  74.7453123
  27.7848925 133.5614469  74.8391348  29.2674148 133.5366769  75.1447364
  31.8778053 118.8287419  77.3887329  32.3746753 118.0757381  77.0688399
  31.1065035 118.8651735  76.8230538  39.7307811 124.5327784  79.0305620
  39.7197687 125.4152500  78.6599553  38.8625190 124.1799335  78.8360157
  31.2390307 133.6807853  83.3908460  31.9518279 134.3155318  83.3184362
  30.7480336 133.7771719  82.5748462  32.9607834 127.5859106  74.9625752
  32.0264113 127.7060568  74.7930456  33.1384502 126.6831573  74.6985762
  28.4613022 120.9704802  77.1159013  28.0910810 120.4175842  77.8039919
  28.9572114 120.3662935  76.5634013  36.3480385 123.4276425  75.4975786
  36.8140837 124.2604417  75.4236089  36.7987886 122.9621407  76.2021045
  26.2902221 131.4302297  84.2114031  26.9911680 132.0638780  84.3643425
  25.8197336 131.7717028  83.4509670  34.4156616 129.7720246  72.4961938
  34.6916460 129.6576841  73.4055812  33.5461115 129.3737731  72.4574111
  34.3197048 115.7957012  79.5366687  33.4060128 116.0261239  79.7048894
  34.7490149 115.8795456  80.3880720  34.0903507 123.9846904  82.0366581
  33.4374957 124.2322812  81.3819034  34.4683886 123.1711042  81.7029059
  31.0510680 134.0206597  76.1394752  31.2333075 133.2028253  76.6022504
  31.8743666 134.2374290  75.7019642  31.3852846 132.9474782  73.4009800
  31.9140612 132.4367237  72.7879962  31.6481065 132.6317313  74.2655333
  30.1391080 124.7266715  88.5232619  29.4631717 124.6260844  89.1934994
  30.9618713 124.5705929  88.9868616  21.8869939 130.9638652  81.1445134
  22.4723375 130.2182340  81.2773038  21.6894777 131.2742608  82.0281798
  24.7408594 133.9989899  76.1607576  24.0718969 134.4836027  75.6771616
  24.6021464 134.2459120  77.0750955  16.4787593 123.5344252  79.8649577
  16.5171693 123.0007843  80.6586695  15.9727886 123.0079457  79.2460554
  28.8813862 136.0333643  82.7590235  29.4332170 136.1965264  83.5239320
  29.2220056 136.6238080  82.0870259  23.8578356 118.3808792  83.3612119
  23.9219682 119.2423623  82.9489517  23.7945476 117.7682794  82.6284478
  23.3330628 120.4531925  87.0085154  23.9602667 120.0709002  87.6222678
  22.4758547 120.2346127  87.3740846  33.7324737 130.8594900  88.6138889
  34.2764641 131.4724858  88.1193844  33.1511582 131.4174479  89.1305902
  20.1096171 122.2608354  72.9403508  20.4049612 121.3519032  72.8870562
  19.2084207 122.2396094  72.6184511  32.0182250 133.9815618  79.7453917
  31.8933389 133.1805358  79.2364862  32.6761341 134.4761812  79.2567887
  23.6390418 120.3364351  78.9231057  22.9177004 120.9500318  78.7838530
  24.4283674 120.8722115  78.8447703  34.0817158 131.7824638  81.3733467
  33.1347494 131.6629989  81.3011794  34.4299931 130.8947136  81.4559728
  26.4416731 117.6718777  85.1971709  26.9651133 117.9181074  85.9598018
  26.2229065 118.5038812  84.7774846  21.8384013 119.9422452  73.0642833
  21.5096719 119.0619831  72.8817939  22.1923383 119.8870120  73.9519223
  31.0863591 131.5777354  77.5737819  30.9388554 130.6494062  77.7545389
  31.9117085 131.5997445  77.0894894  24.9525836 120.2295422  73.4318311
  25.2921908 120.7581343  72.7096920  25.3997956 120.5675828  74.2076878
  34.6897713 132.4005913  78.6602692  35.6144261 132.1948775  78.5227143
  34.5213017 132.1522314  79.5692033  27.6469277 118.6132472  82.8821379
  27.3066097 117.8140285  83.2842059  26.9408283 118.9134183  82.3098212
  28.2985748 115.6981785  81.3348702  29.1211818 115.2242263  81.2127593
  28.5423812 116.4772268  81.8347389  26.9393983 118.7270043  71.6311604
  27.6602345 119.1051296  71.1275321  26.3159287 119.4458920  71.7346582
  31.0825106 119.4315192  72.5669936  31.2988720 120.3139830  72.2658764
  30.6019173 119.0401405  71.8375578  25.8224327 122.3900905  79.1440681
  25.6768908 122.7041208  80.0364962  25.3449531 123.0085806  78.5911579
  27.6820710 119.3803453  79.1921570  27.6682279 118.4844547  78.8553868
  28.3993138 119.3874117  79.8259856  29.5346841 119.8140793  81.2374698
  29.2764619 120.7357864  81.2359028  29.0031881 119.4171228  81.9275162
  34.4793029 132.9191581  74.0164783  34.6529907 132.3538003  73.2638636
  34.9721921 133.7192476  73.8344273  20.2969989 124.9306250  82.0828342
  19.7523457 125.7066058  82.2148616  21.1749339 125.2777054  81.9247463
  27.0857606 118.2617834  74.4609141  27.2073517 117.3334480  74.6600028
  26.7959648 118.2756520  73.5487456  29.9548796 115.9472744  77.5975860
  29.9770493 116.0112077  76.6427840  30.3716855 115.1077253  77.7916367
  40.3332421 125.6828004  75.6355083  40.7763567 124.9335329  75.2374206
  39.4558931 125.6738140  75.2528815  35.4668202 132.2358345  71.1161682
  36.1619107 132.8565038  71.3348996  35.8091352 131.3853696  71.3914059
  21.0836011 124.0576146  84.9758499  20.3417747 124.2058781  85.5623129
  20.7628755 124.3184412  84.1125248  37.3659625 129.6858051  72.6449012
  37.8910949 130.0245323  71.9198332  37.2781978 128.7505066  72.4612147
  29.0279674 133.5992124  84.7738889  29.3366800 133.3541271  85.6461588
  29.8255156 133.8038763  84.2857759  29.0500286 135.7530034  77.0044265
  28.6105276 135.2606413  77.6977122  29.8008403 135.2103001  76.7636341
  21.5292625 131.9441575  77.0068894  22.3550645 131.6445347  76.6267537
  21.1786677 131.1749197  77.4558682  26.4974158 131.2968043  79.0766567
  25.8754167 130.6338748  78.7768795  27.1679025 131.3229175  78.3940215
  19.7301230 129.8627901  77.9657827  18.8933138 129.4350076  77.7841828
  19.7024875 130.0560344  78.9028618  26.5698685 119.7749831  88.6699073
  26.6186841 120.6511954  88.2876843  27.1121200 119.2327224  88.0970716
  37.0553531 130.3190954  87.9500210  36.2649075 130.3015093  87.4104710
  36.8186886 130.8579248  88.7049247  37.1751406 127.1683421  85.2632939
  37.2249411 127.0033428  86.2048462  37.0665330 126.3010680  84.8730820
  26.0587665 129.8471966  72.5525028  26.2075785 130.5307431  71.8991700
  26.8654108 129.8277056  73.0674483  34.4655169 123.1514349  86.5792245
  35.3665031 123.0120813  86.2876243  34.5403143 123.3168803  87.5190423
  28.7997974 120.5281203  85.4245432  27.9301283 120.8214769  85.1528020
  29.0357454 121.1121648  86.1452695  38.6769603 129.5880362  85.5074960
  38.3854411 129.9510343  86.3438421  38.0641734 128.8747370  85.3288292
  39.8765285 127.1533242  78.0277531  40.7112177 127.5923046  78.1915091
  40.0124414 126.6771895  77.2085776  36.9256791 124.7112977  83.9755018
  37.4010913 124.9040623  83.1673870  36.0022357 124.7672163  83.7298402
  23.8140298 125.8737144  73.5586097  23.5686340 124.9699474  73.7566307
  23.9836212 125.8754294  72.6165575  31.5037008 116.7460820  82.9410852
  32.0218952 117.4821847  82.6157341  31.1492140 117.0524814  83.7757611
  23.0835945 121.6065501  71.0572258  22.3905190 121.6809856  70.4012294
  22.8387697 120.8425845  71.5793775  31.7549602 113.1661103  78.4611749
  32.0351356 112.4984292  79.0872175  32.5400209 113.3590198  77.9486413
  29.5583070 132.3420097  70.0236775  28.9857037 132.9610284  69.5707247
  30.1315864 132.8919458  70.5576697  35.6258460 121.5878737  82.2083324
  36.5775883 121.6876834  82.2295548  35.4561911 120.7957005  82.7181408
  33.6472840 118.6734320  82.3942725  33.0522772 118.9539333  81.6989213
  33.3622536 119.1628221  83.1659466  32.7780330 132.6257247  71.1545357
  33.7111003 132.5602809  71.3578233  32.6903543 133.4613514  70.6959890
  35.4068347 131.9423117  68.1149305  35.3281978 131.6082981  69.0085063
  36.2278014 132.4344885  68.1140777  38.1046538 124.8084856  81.3225624
  38.0722858 123.8700857  81.5085307  38.7147162 124.8868893  80.5891448
  29.9429869 123.6780909  67.3652828  30.8888974 123.5487118  67.4341246
  29.5644114 122.9395571  67.8422256  38.2541027 121.5995900  81.3683907
  37.7380075 120.8154357  81.1813836  39.1380975 121.2714617  81.5330426
  35.9151753 115.3436915  77.3279719  35.7176575 115.0352004  78.2123051
  36.5251459 116.0698554  77.4577649  43.9223088 125.8700863  80.4631660
  44.6526476 125.6086151  81.0239364  43.3130033 125.1329585  80.5033728
  42.0038385 124.0108726  81.0606112  41.2771549 123.8764691  80.4522603
  41.5885672 124.3185555  81.8662830  29.8268561 127.7298656  88.8253485
  30.7471571 127.9077255  89.0193531  29.7918144 126.7854701  88.6733184
  28.1272786 121.6030886  67.3007713  27.2204241 121.3063999  67.3770426
  28.4048767 121.3060704  66.4341999  19.0450726 122.9237249  77.7506759
  18.7253511 122.0702557  77.4581133  18.4984155 123.1385827  78.5064727
  22.8230634 125.6399690  81.4676266  23.0416644 126.5716798  81.4864300
  23.2356408 125.2807665  82.2531070  29.7434852 116.1467776  73.4551954
  28.9335580 115.8014861  73.8307200  30.4319269 115.8375319  74.0439566
  31.6725400 115.2245822  75.0776251  32.2256439 115.6441276  75.7366274
  31.9095486 114.2981570  75.1199207  27.6958499 121.2132896  90.8579015
  27.5955226 122.1627253  90.7891106  27.4780041 120.8851135  89.9855085
  26.8971571 118.4617821  67.4419692  27.7590735 118.7872719  67.7015509
  27.0821915 117.6749317  66.9292758  18.9138986 126.5440161  79.7199881
  18.2202458 126.1294114  79.2069835  19.6611977 126.5860697  79.1233300
  35.0504207 117.3346348  74.5854915  34.4702876 117.9931152  74.2032967
  34.7840140 116.5123692  74.1742333  33.5007774 116.7351405  76.7876235
  34.0007552 116.8467940  75.9790554  34.1443381 116.4312458  77.4277044
  27.5589769 124.6430035  89.6744076  27.0756851 125.4430395  89.8807965
  27.6450708 124.6537980  88.7211520  20.8275729 126.4758415  77.5965896
  20.8046417 126.5746102  76.6447779  21.1376365 127.3223565  77.9183062
  23.4863107 128.5334570  81.7112510  24.4406360 128.5018512  81.6442442
  23.2875630 128.0725193  82.5262736  24.0762489 127.1035686  84.2783308
  24.8955378 127.5979764  84.3018145  24.3499297 126.1867654  84.2500875
  33.8329085 119.4946438  73.6411263  32.9454940 119.7796089  73.4231458
  34.2483074 119.3340201  72.7938540  37.1843621 119.5192959  77.3565603
  37.9604011 120.0089411  77.6290219  36.4591755 119.9451013  77.8137472
  39.6216180 120.2320578  78.4139543  40.2160671 119.9916314  77.7032851
  39.6942764 119.5127709  79.0413079  21.8413336 134.0754189  78.7282708
  21.7067804 133.3154590  78.1620706  21.4245398 134.7995089  78.2611497
  32.9772299 129.2591113  67.7359283  33.6808149 129.4641115  68.3516939
  32.2534947 129.8267874  68.0008367  33.8070109 125.0100974  73.8561553
  33.7505310 125.4669525  73.0169186  34.3598451 124.2491658  73.6784396
  37.6174915 120.7990706  74.6811673  37.3611849 120.3987341  75.5119881
  36.9927783 121.5134500  74.5561812  41.9287253 123.5386779  77.1882964
  41.3686811 123.6079968  77.9614526  41.3230756 123.3627764  76.4682461
  24.9982461 134.9723506  78.9401151  24.8814846 135.9168939  78.8379841
  24.1774908 134.6697068  79.3286950  34.8858996 129.6973642  69.7857743
  35.7204600 129.2654840  69.6035218  34.7243339 129.5255655  70.7134638
  34.5404888 126.2005755  71.1514083  34.4853692 126.0350027  70.2102527
  33.9150943 126.9081788  71.3076272  19.3297403 121.4373819  84.9775505
  19.9756267 120.9272773  85.4662730  19.1214554 122.1742501  85.5518930
  31.8550795 128.5054667  90.4767645  32.7241955 128.6795319  90.1154280
  31.3757547 129.3249084  90.3543375  27.8501014 115.7013864  70.7299401
  27.8379683 116.6455704  70.8867672  28.7424436 115.5184010  70.4358862
  26.0236976 135.6251768  82.1557079  26.9264222 135.6575378  82.4723574
  25.7974346 134.6952219  82.1703415  27.7790578 134.3782755  78.8167158
  26.8286209 134.3784616  78.7031530  28.0823064 133.6315489  78.3003192
  31.6653133 112.2956641  74.9845338  30.8985529 111.7415127  75.1302020
  32.0763838 112.3678509  75.8459489  23.6694894 118.5841437  89.0750519
  24.5326356 118.2278241  89.2853844  23.0960305 118.2455331  89.7625923
  43.5143271 140.2143293  79.8812920  44.1521681 140.0950040  79.1776260
  43.3964114 141.1624137  79.9400872  40.3232977 140.1670721  79.8174445
  39.9851489 140.0511786  78.9294980  41.1922746 139.7661886  79.7975451
  36.1819793 142.0206197  75.8071336  35.6184658 141.9296134  75.0387623
  36.0672188 141.2006102  76.2873828  40.8052760 141.3205573  85.7760650
  40.7941401 140.9258371  84.9041154  40.9673400 140.5871645  86.3694422
  33.7284225 143.5157389  78.6455556  34.5205517 143.1748214  78.2301855
  33.9680875 143.6252364  79.5657709  41.7619352 145.6877165  71.1185801
  41.1107332 146.2731246  70.7319814  42.5563715 146.2183360  71.1780838
  35.6874979 142.7766302  71.5172935  36.4605855 142.2295289  71.3785811
  36.0400378 143.6410552  71.7287396  37.5260022 144.1042685  84.7239834
  37.2349888 145.0088315  84.6086501  38.1617006 144.1459212  85.4383904
  38.4516228 141.4819533  81.3141194  39.0479801 141.2575555  80.5998157
  38.5091200 140.7404279  81.9166642  38.0241257 138.9358968  69.1491385
  38.2766777 138.4140490  68.3874848  37.0865816 138.7725114  69.2518068
  43.0684540 137.9394747  76.9566128  43.8547629 137.5214170  76.6056545
  43.3323244 138.8440839  77.1247776  43.2394617 143.3767597  71.6554785
  42.6040450 143.4502224  72.3675690  42.9092023 143.9661196  70.9773864
  48.4692967 137.8769980  77.8599107  49.2018139 137.3069197  78.0936936
  47.7132322 137.4891580  78.3005612  37.7437546 140.8387074  71.3515760
  37.6273804 140.1631978  72.0196844  37.8539805 140.3519448  70.5347913
  40.0869086 140.2997221  75.0562449  39.7227294 139.7727842  75.7675371
  40.9436202 139.9095690  74.8828934  45.9918387 131.5891554  82.3193715
  45.6601712 132.4586965  82.0954930  45.3964000 131.2727838  82.9987746
  39.7274573 135.3287121  70.0523798  39.8948976 136.1967358  70.4194269
  39.5371743 135.4914403  69.1285087  42.4849907 143.7904100  81.7189628
  42.1850630 144.6929139  81.6105435  42.1400966 143.5236283  82.5710781
  35.9362388 140.2417897  77.7526332  35.0112885 140.1094111  77.9604024
  36.1846801 141.0212116  78.2496275  45.8847050 136.3086640  79.3987065
  44.9763928 136.2402049  79.1045826  45.8334646 136.7858585  80.2268891
  39.7063794 137.7844779  71.0370464  39.5863420 138.2301829  71.8755945
  39.0116383 138.1330096  70.4784003  33.2971199 139.8851170  78.5870121
  33.4263580 140.1385649  79.5009533  32.6168650 140.4778878  78.2674777
  39.9587916 137.7276286  87.3421963  39.1821250 138.2870206  87.3324827
  40.5978479 138.2133069  87.8636833  47.7508697 134.5103079  81.1764939
  47.1083077 134.8035612  80.5304734  47.2463625 134.3955999  81.9818136
  45.4048860 138.2566252  71.8650798  46.3166717 138.4893639  71.6898496
  44.8958508 138.8403296  71.3025877  38.2134288 140.5361739  86.9039930
  38.9548973 141.0746783  86.6274753  37.5071274 141.1628028  87.0611481
  43.6889628 142.6790880  85.5012091  44.0972984 142.2373290  84.7566723
  42.9666890 142.1043507  85.7546284  40.0420698 137.6163486  82.8745648
  40.8881893 138.0402900  83.0180297  39.9819336 136.9597111  83.5684211
  44.0118443 143.2392070  79.2564380  43.3827305 143.4037784  78.5540448
  43.6244105 143.6533680  80.0275344  47.8907675 144.1746508  76.6108744
  47.2058713 144.5545409  76.0605777  47.9751524 144.7841835  77.3440691
  43.1920144 135.2767855  84.5326822  42.9481075 136.0309915  83.9961097
  43.4680074 135.6553202  85.3674069  45.1458606 141.8206467  83.2104087
  45.3575502 142.4638227  82.5338468  45.0988355 140.9868784  82.7426017
  42.7484835 134.4324288  80.1140659  41.8869314 134.7305541  80.4057397
  42.7747270 134.6494687  79.1821692  39.5646405 142.9766478  76.5214465
  40.0284750 143.2554181  75.7319088  39.3003203 142.0749923  76.3387556
  36.4570486 142.5237960  79.4594228  37.0271843 142.9525228  78.8211713
  37.0478598 142.2420545  80.1578414  38.5015291 139.0989631  73.3304030
  39.2039334 139.5510674  73.7977957  38.1695919 138.4573450  73.9583923
  36.9495652 137.6901387  87.7055240  36.3194313 138.3717668  87.9390636
  36.8431740 137.5784469  86.7608378  32.2440625 137.3573183  78.6321164
  31.4539679 137.6130712  78.1561274  32.7351872 138.1721521  78.7373204
  46.2604434 144.6978423  81.3826445  47.0821878 144.2958610  81.1009126
  46.2566837 144.5946657  82.3342560  34.1955370 137.7217763  75.5904640
  33.3986533 137.8336457  76.1088136  33.9680962 138.0604415  74.7245531
  40.0261038 144.2462466  83.5387155  40.0905470 144.7082873  84.3745327
  39.3171962 143.6159831  83.6669465  30.5278328 137.6103674  81.0636155
  30.7786366 138.4950684  81.3293730  31.0637876 137.4308275  80.2911246
  54.3510427 141.0417171  77.7311416  53.5974136 140.4724569  77.5755420
  54.4857968 141.0079836  78.6782051  39.7409055 145.9130573  73.4066135
  39.6054730 146.7582109  73.8350983  40.2818868 146.1149851  72.6432069
  36.2276395 131.9922153  90.0680491  35.8343341 131.4388352  90.7428135
  37.0442535 132.3032732  90.4587008  33.1938453 143.4306011  73.9794060
  33.7062973 144.2249262  74.1299625  33.8461166 142.7332302  73.9127662
  39.1444356 133.4080032  87.6600747  39.8854069 134.0087185  87.5805210
  39.3762279 132.6657670  87.1018790  34.2885694 138.5936400  85.9378977
  34.1739209 137.6921657  86.2386076  33.4330212 138.8400096  85.5863793
  41.3677532 146.5354140  87.5366477  40.9241386 145.7490518  87.2187382
  42.0294745 146.7233290  86.8710368  43.4658770 146.8156940  85.5647879
  43.4477245 147.6365821  85.0728148  44.3878690 146.6911015  85.7898020
  39.9231824 144.3301069  86.4071387  40.4560161 143.5689357  86.1770695
  39.3945905 144.0374721  87.1495542  43.0901519 129.4361135  81.9365029
  42.7465788 130.3262777  81.8604139  43.4580482 129.2462793  81.0734614
  31.1587370 141.7594666  74.7553631  31.9962592 142.1691674  74.5387339
  31.3365637 140.8194108  74.7253825  43.0551802 139.4269746  70.4437464
  42.5398425 140.1974351  70.6825851  42.7829110 138.7534882  71.0670525
  40.6398913 134.2719447  75.5022702  39.7840509 133.8826298  75.3228341
  41.0525864 134.3511408  74.6422488  42.1698059 131.8065790  79.9014262
  41.6662855 131.7695926  79.0882067  42.4628666 132.7158533  79.9610919
  38.4140945 131.8904520  78.9080444  39.2793942 131.6947329  78.5486333
  38.4818454 131.6614872  79.8349801  48.0286076 142.1802101  72.3790637
  47.2515519 141.8413260  71.9345800  48.7077557 142.1854724  71.7045602
  42.8438105 137.2996838  72.2697245  42.5388240 137.6142988  73.1207388
  43.7968547 137.3778258  72.3124578  41.2884537 143.4587062  73.9190199
  40.7605898 142.7239821  73.6063437  40.7872039 144.2361738  73.6730167
  46.2677383 141.6536082  79.0357245  45.6101057 142.3435344  79.1237374
  47.0717782 142.0432514  79.3791232  36.0203264 134.1206728  76.2796811
  36.5947016 133.8981910  75.5470004  36.6074247 134.1895423  77.0325412
  45.0782841 140.0080455  77.0861187  45.5914723 140.6410447  77.5882897
  45.7284065 139.4081650  76.7204547  36.3472851 136.1511189  70.2992696
  35.5110164 136.4885876  70.6201971  36.2077621 136.0160169  69.3619833
  38.3225932 130.9947977  75.0071880  37.6690344 130.6796994  74.3828495
  38.2806406 130.3723717  75.7331703  39.4337137 141.2767272  66.9225172
  38.5264199 141.0456525  67.1216321  39.9308169 140.4804891  67.1099154
  41.5563672 137.4829910  79.3319528  40.6386234 137.7044857  79.1741216
  41.9723816 137.5576221  78.4731235  42.3398720 138.8821326  74.4622208
  43.0870539 139.3942723  74.1529330  42.6090310 138.5605379  75.3226601
  40.6125370 141.3779867  71.4449162  39.7036590 141.0938900  71.5421632
  40.6420454 141.7978945  70.5852469  45.8444638 144.9886456  75.2140330
  45.3906965 144.1477366  75.2705520  45.2138604 145.6247855  75.5515110
  44.7877557 135.9178442  76.4440997  44.0500314 135.4055829  76.7751240
  45.0404331 135.4778824  75.6324274  44.2877577 146.8262953  76.1490148
  44.5800551 147.3868010  75.4302514  44.7976197 147.1191514  76.9043307
  44.8889185 128.6954694  77.0382767  45.1948061 127.8352058  76.7508682
  45.6141789 129.2872315  76.8381760  31.1813541 139.0985381  75.4264364
  30.9837940 138.5054742  74.7015431  30.6260205 138.7937591  76.1440303
  39.1610264 138.9908487  77.5458958  39.2158874 138.0382324  77.4701434
  38.3501466 139.1467927  78.0300256  40.3101458 142.9188611  68.7837241
  39.8720888 142.2024469  68.3242878  41.0511899 143.1464725  68.2222332
  37.1002624 137.6085547  75.3049336  36.2870490 137.9079718  75.7114529
  37.5961618 137.2141236  76.0223819  39.2511202 147.6043304  77.2383601
  39.2087381 147.8304150  76.3092133  40.1673901 147.3706679  77.3869402
  42.6976836 138.0727372  84.1364230  43.0526224 138.2998845  84.9958696
  43.3448967 138.4045748  83.5141486  48.4274573 141.1945808  74.8413559
  48.2892471 141.3847404  73.9134749  48.0710792 141.9565190  75.2981611
  36.5916699 135.1803903  80.9210571  37.2316078 135.0392662  80.2233535
  35.7594230 134.8938416  80.5449173  48.4543952 143.2622335  79.8524831
  48.8880459 143.1697624  80.7007885  49.1675533 143.2379835  79.2144847
  37.3677003 144.4806333  77.0345564  38.1617601 143.9856653  76.8328139
  36.6568695 143.9524196  76.6713269  42.1871847 146.8624429  81.3857931
  42.2408870 147.4315365  82.1535647  41.3186629 147.0326314  81.0211969
  33.6759766 138.6249415  73.1105317  32.7457354 138.5633870  73.3275279
  33.7717238 138.1025368  72.3141958  33.5945315 135.1504228  75.6983558
  33.8552133 136.0649561  75.5892719  34.4162488 134.6828670  75.8480171
  35.0670241 136.5641985  82.8682383  35.7393294 136.3559347  82.2195032
  34.2400027 136.3664071  82.4287615  49.3159502 143.3046035  82.3857716
  49.5095392 144.2091846  82.6316991  49.2160120 142.8453454  83.2196301
  40.9695813 133.1903926  84.8848044  40.3223728 133.8893875  84.7912520
  41.7396828 133.6240070  85.2524292  44.3774611 143.4552778  87.9598597
  44.2260117 143.2263330  87.0428681  44.3679290 144.4123379  87.9729942
  41.1459947 141.0284691  82.9444863  42.0752007 141.1795850  82.7713831
  40.7250977 141.1168712  82.0893510  39.9448279 145.0535355  80.7143401
  39.8059365 144.6854140  81.5869339  39.1562875 145.5682995  80.5427359
  41.4953494 144.4316958  78.1032239  41.1603327 144.3917728  78.9989889
  40.9957440 143.7661674  77.6302649  35.4697738 139.8384588  83.6284820
  35.3317536 139.1064827  84.2296359  36.3802661 139.7493488  83.3469008
  44.4312686 141.7772992  68.3769298  43.8141856 141.0519820  68.2802351
  43.9629174 142.5382352  68.0336373  38.0980039 139.5504547  83.1168500
  38.8079657 138.9097739  83.0755118  38.0549347 139.8017442  84.0394680
  46.0866817 146.4871901  86.0375079  46.0279363 145.8031121  85.3705662
  46.4886336 147.2290891  85.5855705  36.8108973 136.5369765  84.9364139
  36.2746330 136.0860504  85.5885735  36.2225681 136.6715674  84.1934603
  36.2211232 135.9958417  67.4990603  35.3440698 135.8747217  67.1352849
  36.6968985 135.2044495  67.2469491  46.0884225 144.4511484  84.2689058
  45.2011003 144.1137406  84.3915457  46.6582776 143.7194516  84.5057824
  27.7413372 140.7835576  77.5932110  28.4284412 140.4697306  77.0053125
  27.5861500 141.6876941  77.3199361  32.5448094 135.6725773  82.0217134
  32.4606283 135.0651442  81.2867543  31.7230800 136.1634791  82.0226630
  42.7171808 134.1579336  77.3887329  43.2140507 133.4049299  77.0688399
  41.9458789 134.1943653  76.8230538  50.5701565 139.8619702  79.0305620
  50.5591441 140.7444417  78.6599553  49.7018945 139.5091253  78.8360157
  43.8001588 142.9151024  74.9625752  42.8657867 143.0352486  74.7930456
  43.9778257 142.0123490  74.6985762  39.3006776 136.2996719  77.1159013
  38.9304564 135.7467760  77.8039919  39.7965869 135.6954853  76.5634013
  47.1874140 138.7568343  75.4975786  47.6534592 139.5896334  75.4236089
  47.6381640 138.2913324  76.2021045  37.1295975 146.7594214  84.2114031
  37.8305435 147.3930697  84.3643425  36.6591090 147.1008946  83.4509670
  45.2550371 145.1012164  72.4961938  45.5310215 144.9868759  73.4055812
  44.3854870 144.7029649  72.4574111  45.1590803 131.1248930  79.5366687
  44.2453882 131.3553157  79.7048894  45.5883904 131.2087374  80.3880720
  44.9297261 139.3138822  82.0366581  44.2768711 139.5614729  81.3819034
  45.3077641 138.5002960  81.7029059  42.2246600 148.2766700  73.4009800
  42.7534367 147.7659155  72.7879962  42.4874820 147.9609230  74.2655333
  40.9784834 140.0558633  88.5232619  40.3025471 139.9552762  89.1934994
  41.8012468 139.8997847  88.9868616  27.3181348 138.8636170  79.8649577
  27.3565447 138.3299760  80.6586695  26.8121641 138.3371375  79.2460554
  34.6972110 133.7100710  83.3612119  34.7613437 134.5715541  82.9489517
  34.6339230 133.0974712  82.6284478  34.1724383 135.7823843  87.0085154
  34.7996421 135.4000920  87.6222678  33.3152302 135.5638045  87.3740846
  44.5718491 146.1886818  88.6138889  45.1158395 146.8016776  88.1193844
  43.9905336 146.7466396  89.1305902  30.9489925 137.5900272  72.9403508
  31.2443367 136.6810950  72.8870562  30.0477961 137.5688011  72.6184511
  34.4784172 135.6656268  78.9231057  33.7570758 136.2792236  78.7838530
  35.2677428 136.2014033  78.8447703  44.9210913 147.1116556  81.3733467
  43.9741248 146.9921907  81.3011794  45.2693686 146.2239054  81.4559728
  37.2810486 133.0010695  85.1971709  37.8044888 133.2472991  85.9598018
  37.0622819 133.8330730  84.7774846  32.6777767 135.2714369  73.0642833
  32.3490473 134.3911748  72.8817939  33.0317138 135.2162038  73.9519223
  41.9257346 146.9069272  77.5737819  41.7782308 145.9785980  77.7545389
  42.7510839 146.9289363  77.0894894  35.7919590 135.5587339  73.4318311
  36.1315663 136.0873260  72.7096920  36.2391711 135.8967745  74.2076878
  45.5291468 147.7297831  78.6602692  46.4538015 147.5240692  78.5227143
  45.3606771 147.4814232  79.5692033  38.4863031 133.9424390  82.8821379
  38.1459851 133.1432203  83.2842059  37.7802037 134.2426101  82.3098212
  39.1379503 131.0273702  81.3348702  39.9605572 130.5534181  81.2127593
  39.3817566 131.8064186  81.8347389  37.7787737 134.0561961  71.6311604
  38.4996100 134.4343214  71.1275321  37.1553041 134.7750838  71.7346582
  41.9218860 134.7607110  72.5669936  42.1382475 135.6431748  72.2658764
  41.4412927 134.3693323  71.8375578  36.6618082 137.7192823  79.1440681
  36.5162662 138.0333126  80.0364962  36.1843285 138.3377723  78.5911579
  38.5214464 134.7095371  79.1921570  38.5076033 133.8136464  78.8553868
  39.2386893 134.7166035  79.8259856  40.3740595 135.1432711  81.2374698
  40.1158373 136.0649782  81.2359028  39.8425636 134.7463146  81.9275162
  45.3186784 148.2483498  74.0164783  45.4923661 147.6829921  73.2638636
  45.8115675 149.0484393  73.8344273  31.1363744 140.2598167  82.0828342
  30.5917212 141.0357975  82.2148616  32.0143094 140.6068972  81.9247463
  37.9251360 133.5909751  74.4609141  38.0467272 132.6626397  74.6600028
  37.6353403 133.6048437  73.5487456  40.7942551 131.2764662  77.5975860
  40.8164248 131.3403995  76.6427840  41.2110610 130.4369170  77.7916367
  51.1726175 141.0119921  75.6355083  51.6157321 140.2627246  75.2374206
  50.2952685 141.0030058  75.2528815  46.3061956 147.5650263  71.1161682
  47.0012861 148.1856955  71.3348996  46.6485107 146.7145614  71.3914059
  31.9229766 139.3868064  84.9758499  31.1811502 139.5350699  85.5623129
  31.6022510 139.6476329  84.1125248  48.2053380 145.0149968  72.6449012
  48.7304704 145.3537241  71.9198332  48.1175732 144.0796984  72.4612147
  37.3367912 146.6259961  79.0766567  36.7147922 145.9630666  78.7768795
  38.0072779 146.6521092  78.3940215  37.4092440 135.1041749  88.6699073
  37.4580595 135.9803871  88.2876843  37.9514954 134.5619142  88.0970716
  47.8947286 145.6482872  87.9500210  47.1042829 145.6307011  87.4104710
  47.6580640 146.1871166  88.7049247  48.0145161 142.4975338  85.2632939
  48.0643166 142.3325346  86.2048462  47.9059084 141.6302597  84.8730820
  36.8981419 145.1763884  72.5525028  37.0469540 145.8599348  71.8991700
  37.7047863 145.1568974  73.0674483  45.3048923 138.4806266  86.5792245
  46.2058786 138.3412731  86.2876243  45.3796898 138.6460721  87.5190423
  39.6391728 135.8573121  85.4245432  38.7695038 136.1506687  85.1528020
  39.8751209 136.4413566  86.1452695  49.5163357 144.9172280  85.5074960
  49.2248166 145.2802260  86.3438421  48.9035489 144.2039288  85.3288292
  50.7159040 142.4825160  78.0277531  51.5505931 142.9214964  78.1915091
  50.8518169 142.0063813  77.2085776  47.7650546 140.0404894  83.9755018
  48.2404667 140.2332541  83.1673870  46.8416111 140.0964080  83.7298402
  34.6534052 141.2029062  73.5586097  34.4080094 140.2991392  73.7566307
  34.8229967 141.2046212  72.6165575  42.3430762 132.0752738  82.9410852
  42.8612706 132.8113765  82.6157341  41.9885895 132.3816731  83.7757611
  33.9229700 136.9357419  71.0572258  33.2298945 137.0101774  70.4012294
  33.6781452 136.1717763  71.5793775  42.5943356 128.4953020  78.4611749
  42.8745110 127.8276210  79.0872175  43.3793963 128.6882116  77.9486413
  40.3976825 147.6712014  70.0236775  39.8250792 148.2902202  69.5707247
  40.9709619 148.2211376  70.5576697  46.4652215 136.9170654  82.2083324
  47.4169638 137.0168752  82.2295548  46.2955665 136.1248923  82.7181408
  44.4866594 134.0026238  82.3942725  43.8916526 134.2831250  81.6989213
  44.2016291 134.4920139  83.1659466  43.6174085 147.9549165  71.1545357
  44.5504758 147.8894726  71.3578233  43.5297297 148.7905431  70.6959890
  46.2462101 147.2715035  68.1149305  46.1675733 146.9374898  69.0085063
  47.0671768 147.7636803  68.1140777  48.9440293 140.1376774  81.3225624
  48.9116613 139.1992775  81.5085307  49.5540916 140.2160811  80.5891448
  40.7823623 139.0072827  67.3652828  41.7282728 138.8779035  67.4341246
  40.4037868 138.2687489  67.8422256  49.0934781 136.9287818  81.3683907
  48.5773830 136.1446274  81.1813836  49.9774730 136.6006534  81.5330426
  46.7545508 130.6728833  77.3279719  46.5570329 130.3643921  78.2123051
  47.3645213 131.3990472  77.4577649  54.7616842 141.1992781  80.4631660
  55.4920231 140.9378069  81.0239364  54.1523788 140.4621503  80.5033728
  52.8432139 139.3400644  81.0606112  52.1165303 139.2056609  80.4522603
  52.4279426 139.6477472  81.8662830  40.6662316 143.0590573  88.8253485
  41.5865325 143.2369172  89.0193531  40.6311899 142.1146619  88.6733184
  38.9666541 136.9322804  67.3007713  38.0597996 136.6355916  67.3770426
  39.2442522 136.6352622  66.4341999  29.8844481 138.2529167  77.7506759
  29.5647265 137.3994475  77.4581133  29.3377909 138.4677745  78.5064727
  33.6624388 140.9691608  81.4676266  33.8810398 141.9008716  81.4864300
  34.0750162 140.6099582  82.2531070  40.5828606 131.4759693  73.4551954
  39.7729335 131.1306778  73.8307200  41.2713023 131.1667237  74.0439566
  42.5119155 130.5537740  75.0776251  43.0650193 130.9733193  75.7366274
  42.7489241 129.6273488  75.1199207  38.5352254 136.5424814  90.8579015
  38.4348981 137.4919171  90.7891106  38.3173796 136.2143053  89.9855085
  37.7365325 133.7909739  67.4419692  38.5984489 134.1164637  67.7015509
  37.9215669 133.0041235  66.9292758  29.7532741 141.8732078  79.7199881
  29.0596212 141.4586031  79.2069835  30.5005732 141.9152615  79.1233300
  45.8897962 132.6638265  74.5854915  45.3096631 133.3223069  74.2032967
  45.6233894 131.8415610  74.1742333  44.3401528 132.0643323  76.7876235
  44.8401306 132.1759857  75.9790554  44.9837136 131.7604376  77.4277044
  38.3983524 139.9721953  89.6744076  37.9150606 140.7722313  89.8807965
  38.4844463 139.9829897  88.7211520  31.6669483 141.8050332  77.5965896
  31.6440172 141.9038019  76.6447779  31.9770120 142.6515483  77.9183062
  34.3256861 143.8626487  81.7112510  35.2800115 143.8310430  81.6442442
  34.1269385 143.4017111  82.5262736  34.9156243 142.4327603  84.2783308
  35.7349132 142.9271682  84.3018145  35.1893051 141.5159571  84.2500875
  44.6722840 134.8238356  73.6411263  43.7848695 135.1088006  73.4231458
  45.0876829 134.6632119  72.7938540  48.0237376 134.8484877  77.3565603
  48.7997766 135.3381329  77.6290219  47.2985510 135.2742931  77.8137472
  50.4609934 135.5612496  78.4139543  51.0554425 135.3208232  77.7032851
  50.5336518 134.8419626  79.0413079  43.8166053 144.5883030  67.7359283
  44.5201903 144.7933033  68.3516939  43.0928702 145.1559792  68.0008367
  44.6463863 140.3392892  73.8561553  44.5899065 140.7961443  73.0169186
  45.1992206 139.5783576  73.6784396  48.4568669 136.1282623  74.6811673
  48.2005604 135.7279259  75.5119881  47.8321537 136.8426417  74.5561812
  52.7681007 138.8678697  77.1882964  52.2080565 138.9371886  77.9614526
  52.1624511 138.6919681  76.4682461  45.7252751 145.0265559  69.7857743
  46.5598354 144.5946758  69.6035218  45.5637093 144.8547573  70.7134638
  45.3798643 141.5297673  71.1514083  45.3247446 141.3641944  70.2102527
  44.7544698 142.2373706  71.3076272  30.1691158 136.7665737  84.9775505
  30.8150021 136.2564691  85.4662730  29.9608309 137.5034419  85.5518930
  42.6944550 143.8346585  90.4767645  43.5635710 144.0087237  90.1154280
  42.2151301 144.6541001  90.3543375  38.6894768 131.0305782  70.7299401
  38.6773438 131.9747622  70.8867672  39.5818190 130.8475927  70.4358862
  42.5046888 127.6248558  74.9845338  41.7379283 127.0707045  75.1302020
  42.9157593 127.6970427  75.8459489  34.5088649 133.9133354  89.0750519
  35.3720110 133.5570159  89.2853844  33.9354059 133.5747249  89.7625923
  59.3086721 153.2061898  77.8599107  60.0411893 152.6361114  78.0936936
  58.5526077 152.8183498  78.3005612  56.8312142 146.9183472  82.3193715
  56.4995466 147.7878883  82.0954930  56.2357755 146.6019756  82.9987746
  50.5668328 150.6579039  70.0523798  50.7342730 151.5259275  70.4194269
  50.3765497 150.8206321  69.1285087  56.7240805 151.6378558  79.3987065
  55.8157682 151.5693966  79.1045826  56.6728401 152.1150503  80.2268891
  58.5902451 149.8394996  81.1764939  57.9476832 150.1327529  80.5304734
  58.0857380 149.7247917  81.9818136  54.0313898 150.6059772  84.5326822
  53.7874830 151.3601833  83.9961097  54.3073829 150.9845120  85.3674069
  53.5878590 149.7616205  80.1140659  52.7263069 150.0597459  80.4057397
  53.6141024 149.9786604  79.1821692  65.1904182 156.3709089  77.7311416
  64.4367890 155.8016487  77.5755420  65.3251723 156.3371753  78.6782051
  47.0670149 147.3214071  90.0680491  46.6737095 146.7680269  90.7428135
  47.8836290 147.6324649  90.4587008  49.9838110 148.7371950  87.6600747
  50.7247824 149.3379103  87.5805210  50.2156033 147.9949588  87.1018790
  53.9295273 144.7653053  81.9365029  53.5859543 145.6554695  81.8604139
  54.2974236 144.5754711  81.0734614  51.4792667 149.6011365  75.5022702
  50.6234263 149.2118215  75.3228341  51.8919619 149.6803326  74.6422488
  53.0091814 147.1357708  79.9014262  52.5056609 147.0987843  79.0882067
  53.3022421 148.0450451  79.9610919  49.2534700 147.2196438  78.9080444
  50.1187696 147.0239246  78.5486333  49.3212209 146.9906790  79.8349801
  53.6831859 152.6288756  72.2697245  53.3781995 152.9434905  73.1207388
  54.6362301 152.7070176  72.3124578  46.8597019 149.4498646  76.2796811
  47.4340771 149.2273827  75.5470004  47.4468001 149.5187340  77.0325412
  49.1619686 146.3239895  75.0071880  48.5084099 146.0088912  74.3828495
  49.1200161 145.7015635  75.7331703  55.6271312 151.2470360  76.4440997
  54.8894069 150.7347746  76.7751240  55.8798085 150.8070742  75.6324274
  55.7282939 144.0246612  77.0382767  56.0341816 143.1643976  76.7508682
  56.4535544 144.6164232  76.8381760  47.4310453 150.5095820  80.9210571
  48.0709833 150.3684580  80.2233535  46.5987984 150.2230334  80.5449173
  51.8089567 148.5195844  84.8848044  51.1617482 149.2185793  84.7912520
  52.5790583 148.9531987  85.2524292  53.5565562 149.4871254  77.3887329
  54.0534262 148.7341216  77.0688399  52.7852544 149.5235571  76.8230538
  50.1400531 151.6288637  77.1159013  49.7698318 151.0759677  77.8039919
  50.6359623 151.0246770  76.5634013  55.9984557 146.4540847  79.5366687
  55.0847637 146.6845074  79.7048894  56.4277658 146.5379292  80.3880720
  45.5365865 149.0392628  83.3612119  45.6007191 149.9007459  82.9489517
  45.4732985 148.4266629  82.6284478  48.1204240 148.3302612  85.1971709
  48.6438642 148.5764909  85.9598018  47.9016574 149.1622647  84.7774846
  49.3256785 149.2716308  82.8821379  48.9853606 148.4724121  83.2842059
  48.6195792 149.5718018  82.3098212  49.9773257 146.3565620  81.3348702
  50.7999327 145.8826098  81.2127593  50.2211321 147.1356104  81.8347389
  48.6181492 149.3853878  71.6311604  49.3389854 149.7635131  71.1275321
  47.9946796 150.1042755  71.7346582  52.7612615 150.0899027  72.5669936
  52.9776229 150.9723665  72.2658764  52.2806682 149.6985241  71.8375578
  49.3608219 150.0387289  79.1921570  49.3469788 149.1428382  78.8553868
  50.0780647 150.0457952  79.8259856  51.2134350 150.4724629  81.2374698
  50.9552127 151.3941699  81.2359028  50.6819390 150.0755063  81.9275162
  48.7645115 148.9201669  74.4609141  48.8861026 147.9918315  74.6600028
  48.4747157 148.9340355  73.5487456  51.6336305 146.6056579  77.5975860
  51.6558002 146.6695912  76.6427840  52.0504364 145.7661088  77.7916367
  56.1442678 153.8098184  86.5792245  57.0452540 153.6704649  86.2876243
  56.2190652 153.9752639  87.5190423  50.4785483 151.1865039  85.4245432
  49.6088792 151.4798605  85.1528020  50.7144963 151.7705484  86.1452695
  53.1824517 147.4044656  82.9410852  53.7006461 148.1405683  82.6157341
  52.8279649 147.7108649  83.7757611  53.4337111 143.8244938  78.4611749
  53.7138865 143.1568127  79.0872175  54.2187718 144.0174034  77.9486413
  57.3045969 152.2462572  82.2083324  58.2563392 152.3460670  82.2295548
  57.1349420 151.4540841  82.7181408  55.3260349 149.3318155  82.3942725
  54.7310281 149.6123168  81.6989213  55.0410045 149.8212056  83.1659466
  59.9328535 152.2579735  81.3683907  59.4167584 151.4738192  81.1813836
  60.8168484 151.9298452  81.5330426  57.5939262 146.0020751  77.3279719
  57.3964084 145.6935839  78.2123051  58.2038968 146.7282390  77.4577649
  65.6010597 156.5284699  80.4631660  66.3313985 156.2669987  81.0239364
  64.9917542 155.7913421  80.5033728  63.6825894 154.6692561  81.0606112
  62.9559058 154.5348526  80.4522603  63.2673181 154.9769390  81.8662830
  51.4222361 146.8051611  73.4551954  50.6123089 146.4598696  73.8307200
  52.1106778 146.4959155  74.0439566  53.3512909 145.8829658  75.0776251
  53.9043948 146.3025111  75.7366274  53.5882995 144.9565406  75.1199207
  48.5759080 149.1201656  67.4419692  49.4378244 149.4456555  67.7015509
  48.7609424 148.3333152  66.9292758  56.7291716 147.9930183  74.5854915
  56.1490385 148.6514987  74.2032967  56.4627649 147.1707527  74.1742333
  55.1795282 147.3935241  76.7876235  55.6795061 147.5051775  75.9790554
  55.8230890 147.0896293  77.4277044  55.5116594 150.1530273  73.6411263
  54.6242449 150.4379924  73.4231458  55.9270583 149.9924037  72.7938540
  58.8631130 150.1776794  77.3565603  59.6391520 150.6673247  77.6290219
  58.1379264 150.6034848  77.8137472  61.3003689 150.8904413  78.4139543
  61.8948180 150.6500149  77.7032851  61.3730273 150.1711544  79.0413079
  59.2962424 151.4574541  74.6811673  59.0399358 151.0571177  75.5119881
  58.6715292 152.1718335  74.5561812  63.6074762 154.1970614  77.1882964
  63.0474320 154.2663804  77.9614526  63.0018265 154.0211599  76.4682461
  49.5288523 146.3597699  70.7299401  49.5167192 147.3039539  70.8867672
  50.4211945 146.1767845  70.4358862  53.3440642 142.9540476  74.9845338
  52.5773038 142.3998963  75.1302020  53.7551347 143.0262345  75.8459489
  45.3482403 149.2425272  89.0750519  46.2113865 148.8862077  89.2853844
  44.7747814 148.9039167  89.7625923   5.1117950  53.5664432  64.5844413
   5.8443122  52.9963649  64.8182243   4.3557306  53.1786032  65.0250919
   2.6343370  47.2786006  69.0439022   2.3026695  48.1481417  68.8200237
   2.0388984  46.9622290  69.7233052   2.5272034  51.9981092  66.1232372
   1.6188911  51.9296501  65.8291133   2.4759629  52.4753037  66.9514197
   4.3933680  50.1997531  67.9010246   3.7508060  50.4930064  67.2550040
   3.8888609  50.0850451  68.7063442   2.0473844  53.9460704  58.5896105
   2.9591700  54.1788090  58.4143803   1.5383491  54.5297748  58.0271184
   4.5332658  59.8640960  63.3354050   3.8483696  60.2439861  62.7851084
   4.6176507  60.4736287  64.0685998   1.7883590  57.5100919  69.9349394
   2.0000485  58.1532679  69.2583775   1.7413338  56.6763236  69.4671324
   2.9029418  60.3872874  68.1071751   3.7246861  59.9853062  67.8254433
   2.8991820  60.2841109  69.0587867  10.9935411  56.7311623  64.4556723
  10.2399119  56.1619021  64.3000727  11.1282952  56.6974287  65.4027357
   4.6711059  57.8696553  59.1035944   3.8940502  57.5307712  58.6591106
   5.3502540  57.8749176  58.4290909   2.9102366  57.3430534  65.7602552
   2.2526040  58.0329796  65.8482681   3.7142765  57.7326966  66.1036538
   1.7207825  55.6974907  63.8106494   2.2339707  56.3304899  64.3128204
   2.3709049  55.0976102  63.4449854   2.4869621  60.6780908  61.9385636
   2.0331948  59.8371818  61.9950827   1.8563588  61.3142307  62.2760417
   1.4302541  51.6072894  63.1686304   0.6925297  51.0950281  63.4996546
   1.6829314  51.1673276  62.3569581   0.9302560  62.5157405  62.8735455
   1.2225535  63.0762462  62.1547820   1.4401181  62.8085966  63.6288614
   1.5314168  44.3849146  63.7628073   1.8373045  43.5246510  63.4753988
   2.2566773  44.9766766  63.5627067   5.0699556  56.8840259  61.5658866
   4.9317455  57.0741855  60.6380055   4.7135775  57.6459642  62.0226917
   5.0968936  58.9516786  66.5770138   5.5305442  58.8592076  67.4253192
   5.8100516  58.9274287  65.9390154   5.9584485  58.9940487  69.1103023
   6.1520375  59.8986298  69.3562298   5.8585103  58.5347906  69.9441608
   1.0199594  59.1447230  74.6843904   0.8685100  58.9157782  73.7673987
   1.0104273  60.1017831  74.6975249   1.0737669  57.4667444  55.1014605
   0.4566840  56.7414272  55.0047658   0.6054157  58.2276804  54.7581679
   2.7291801  62.1766352  72.7620385   2.6704347  61.4925573  72.0950968
   3.1311319  62.9185342  72.3101011   2.7309208  60.1405936  70.9934365
   1.8435987  59.8031858  71.1160764   3.3007759  59.4088968  71.2303130
   7.2126548  55.5514154  65.7550927   7.2016425  56.4338869  65.3844860
   6.3443928  55.1985705  65.5605464   3.8299123  54.4462795  62.2221093
   4.2959575  55.2790786  62.1481395   4.2806624  53.9807776  62.9266351
   1.8975354  60.7906616  59.2207245   2.1735198  60.6763211  60.1301119
   1.0279853  60.3924101  59.1819418   1.8015786  46.8143382  66.2611994
   0.8878866  47.0447609  66.4294201   2.2308887  46.8981826  67.1126026
   1.5722244  55.0033274  68.7611888   0.9193695  55.2509181  68.1064341
   1.9502624  54.1897412  68.4274365   1.2143475  61.8781270  75.3384196
   1.7583379  62.4911228  74.8439150   0.6330319  62.4360848  75.8551209
   1.5635896  62.8011008  68.0978773   0.6166231  62.6816359  68.0257100
   1.9118669  61.9133506  68.1805035   2.1716451  63.4192283  65.3847998
   3.0962998  63.2135144  65.2472450   2.0031754  63.1708684  66.2937340
   1.9611767  63.9377950  60.7410090   2.1348645  63.3724373  59.9883942
   2.4540658  64.7378845  60.5589580   7.8151158  56.7014373  62.3600390
   8.2582304  55.9521698  61.9619513   6.9377669  56.6924509  61.9774122
   2.9486940  63.2544715  57.8406988   3.6437844  63.8751407  58.0594303
   3.2910090  62.4040066  58.1159366   4.8478363  60.7044420  59.3694319
   5.3729687  61.0431693  58.6443639   4.7600715  59.7691435  59.1857454
   4.5372269  61.3377324  74.6745517   3.7467813  61.3201463  74.1350016
   4.3005623  61.8765617  75.4294553   4.6570144  58.1869790  71.9878245
   4.7068149  58.0219798  72.9293768   4.5484067  57.3197049  71.5976126
   1.9473906  54.1700718  73.3037552   2.8483769  54.0307183  73.0121550
   2.0221881  54.3355173  74.2435730   6.1588341  60.6066732  72.2320267
   5.8673149  60.9696712  73.0683728   5.5460472  59.8933740  72.0533599
   7.3584023  58.1719611  64.7522837   8.1930914  58.6109415  64.9160398
   7.4943152  57.6958265  63.9331083   4.4075529  55.7299346  70.7000325
   4.8829651  55.9226993  69.8919176   3.4841094  55.7858532  70.4543709
   3.1077198  52.6065106  68.9328631   4.0594621  52.7063204  68.9540855
   2.9380648  51.8143375  69.4426715   1.1291577  49.6920690  69.1188031
   0.5341510  49.9725702  68.4234520   0.8441274  50.1814591  69.8904773
   2.8887085  62.9609487  54.8394612   2.8100716  62.6269350  55.7330369
   3.7096751  63.4531255  54.8386084   5.5865276  55.8271226  68.0470930
   5.5541596  54.8887227  68.2330614   6.1965899  55.9055263  67.3136755
   5.7359764  52.6182269  68.0929213   5.2198813  51.8340726  67.9059142
   6.6199713  52.2900986  68.2575733   3.3970491  46.3623285  64.0525026
   3.1995312  46.0538373  64.9368358   4.0070197  47.0884924  64.1822956
  11.4041826  56.8887233  67.1876967  12.1345214  56.6272521  67.7484670
  10.7948771  56.1515955  67.2279035   9.4857123  55.0295095  67.7851418
   8.7590286  54.8951060  67.1767910   9.0704410  55.3371924  68.5908136
   2.5322945  48.3532717  61.3100222   1.9521614  49.0117521  60.9278274
   2.2658878  47.5310062  60.8987639   0.9826511  47.7537775  63.5121542
   1.4826290  47.8654309  62.7035861   1.6262119  47.4498828  64.1522350
   1.3147823  50.5132807  60.3656570   0.4273678  50.7982458  60.1476765
   1.7301812  50.3526571  59.5183847   4.6662359  50.5379328  64.0810909
   5.4422749  51.0275781  64.3535526   3.9410493  50.9637383  64.5382779
   7.1034918  51.2506948  65.1384850   7.6979409  51.0102684  64.4278158
   7.1761501  50.5314078  65.7658386   1.2888847  56.0287343  60.5806860
   1.2324048  56.4855895  59.7414492   1.8417189  55.2678028  60.4029703
   5.0993653  51.8177075  61.4056980   4.8430587  51.4173711  62.2365187
   4.4746521  52.5320869  61.2807119   9.4105990  54.5573149  63.9128271
   8.8505548  54.6266338  64.6859833   8.8049494  54.3814133  63.1927767
   2.3677734  60.7160011  56.5103050   3.2023338  60.2841210  56.3280525
   2.2062077  60.5442025  57.4379944   2.0223626  57.2192125  57.8759389
   1.9672430  57.0536396  56.9347833   1.3969681  57.9268158  58.0321579
  10.9962009  71.2329662  66.6058227  11.6340419  71.1136410  65.9021567
  10.8782852  72.1810506  66.6646179   7.8051715  71.1857091  66.5419751
   7.4670227  71.0698155  65.6540286   8.6741483  70.7848256  66.5220758
   3.6638531  73.0392567  62.5316642   3.1003396  72.9482504  61.7632930
   3.5490926  72.2192471  63.0119135   8.2871498  72.3391942  72.5005957
   8.2760139  71.9444741  71.6286461   8.4492138  71.6058015  73.0939728
   1.2102963  74.5343759  65.3700863   2.0024255  74.1934583  64.9547162
   1.4499613  74.6438734  66.2903016   9.2438090  76.7063535  57.8431107
   8.5926069  77.2917615  57.4565121  10.0382452  77.2369730  57.9026145
   3.1693717  73.7952672  58.2418242   3.9424593  73.2481659  58.1031117
   3.5219116  74.6596921  58.4532703   5.0078759  75.1229054  71.4485141
   4.7168625  76.0274685  71.3331807   5.6435744  75.1645582  72.1629210
   5.9334966  72.5005903  68.0386501   6.5298538  72.2761925  67.3243463
   5.9909938  71.7590648  68.6411948   5.5059995  69.9545338  55.8736691
   5.7585515  69.4326859  55.1120155   4.5684554  69.7911483  55.9763375
  10.5503277  68.9581116  63.6811435  11.3366367  68.5400539  63.3301852
  10.8141982  69.8627208  63.8493083  10.7213355  74.3953967  58.3800092
  10.0859188  74.4688593  59.0920996  10.3910761  74.9847565  57.7019171
  15.9511705  68.8956350  64.5844413  16.6836876  68.3255566  64.8182243
  15.1951060  68.5077950  65.0250919   5.2256283  71.8573444  58.0761066
   5.1092541  71.1818347  58.7442151   5.3358543  71.3705818  57.2593220
   7.5687824  71.3183591  61.7807756   7.2046031  70.7914212  62.4920677
   8.4254940  70.9282060  61.6074241  13.4737125  62.6077924  69.0439022
  13.1420450  63.4773335  68.8200237  12.8782738  62.2914208  69.7233052
   7.2093311  66.3473491  56.7769104   7.3767714  67.2153727  57.1439575
   7.0190480  66.5100772  55.8530393   9.9668644  74.8090470  68.4434935
   9.6669367  75.7115508  68.3350742   9.6219704  74.5422653  69.2956087
   3.4181126  71.2604266  64.4771639   2.4931622  71.1280481  64.6849331
   3.6665539  72.0398486  64.9741581  13.3665788  67.3273010  66.1232372
  12.4582666  67.2588418  65.8291133  13.3153384  67.8044955  66.9514197
   7.1882532  68.8031148  57.7615771   7.0682157  69.2488199  58.6001251
   6.4935120  69.1516466  57.2029309   4.9489424  81.5734790  61.4105902
   4.8713454  82.5242615  61.4894383   4.3451068  81.2280662  62.0680829
   7.4406654  68.7462655  74.0667269   6.6639988  69.3056576  74.0570134
   8.0797217  69.2319438  74.5882139  15.2327435  65.5289448  67.9010246
  14.5901815  65.8221981  67.2550040  14.7282363  65.4142369  68.7063442
  12.8867598  69.2752621  58.5896105  13.7985454  69.5080008  58.4143803
  12.3777245  69.8589666  58.0271184   5.6953026  71.5548109  73.6285236
   6.4367711  72.0933153  73.3520060   4.9890012  72.1814397  73.7856788
  11.1708366  73.6977249  72.2257398  11.5791722  73.2559660  71.4812030
  10.4485627  73.1229877  72.4791591   7.5239436  68.6349856  69.5990955
   8.3700631  69.0589270  69.7425604   7.4638074  67.9783480  70.2929518
  11.4937181  74.2578440  65.9809687  10.8646043  74.4224154  65.2785754
  11.1062843  74.6720049  66.7520651  15.3726412  75.1932878  63.3354050
  14.6877451  75.5731779  62.7851084  15.4570262  75.8028204  64.0685998
  10.6738881  66.2954224  71.2572128  10.4299813  67.0496285  70.7206404
  10.9498812  66.6739572  72.0919375  12.6277344  72.8392837  69.9349394
  12.8394239  73.4824597  69.2583775  12.5807092  72.0055153  69.4671324
  10.2303573  65.4510657  66.8385966   9.3688052  65.7491911  67.1302704
  10.2566008  65.6681056  65.9066999   7.0465142  73.9952848  63.2459772
   7.5103488  74.2740551  62.4564394   6.7821941  73.0936292  63.0632862
   3.9389224  73.5424329  66.1839535   4.5090581  73.9711598  65.5457019
   4.5297335  73.2606914  66.8823721   5.9834029  70.1176000  60.0549337
   6.6858072  70.5697044  60.5223263   5.6514657  69.4759819  60.6829230
   4.4314390  68.7087757  74.4300546   3.8013051  69.3904038  74.6635943
   4.3250478  68.5970839  73.4853684  13.7423172  75.7164792  68.1071751
  14.5640616  75.3144979  67.8254433  13.7385575  75.6133026  69.0587867
   1.6774108  68.7404132  62.3149947   0.8805271  68.8522826  62.8333443
   1.4499700  69.0790784  61.4490838   7.5079775  75.2648835  70.2632462
   7.5724208  75.7269243  71.0990634   6.7990699  74.6346200  70.3914772
  21.8329165  72.0603541  64.4556723  21.0792873  71.4910939  64.3000727
  21.9676706  72.0266205  65.4027357   7.2227793  76.9316943  60.1311442
   7.0873468  77.7768479  60.5596290   7.7637606  77.1336221  59.3677376
   3.7095133  63.0108523  76.7925797   3.3162078  62.4574721  77.4673441
   4.5261273  63.3219101  77.1832315   0.6757191  74.4492381  60.7039367
   1.1881711  75.2435631  60.8544932   1.3279903  73.7518671  60.6372969
   2.4852075  77.5658137  62.7862120   2.6618704  78.4876102  62.5983104
   3.2808909  77.2516556  63.2156500   6.6263094  64.4266402  74.3846054
   7.3672807  65.0273555  74.3050516   6.8581017  63.6844040  73.8264096
   1.7704432  69.6122769  72.6624283   1.6557947  68.7108026  72.9631382
   0.9148950  69.8586466  72.3109100   8.8496270  77.5540509  74.2611784
   8.4060124  76.7676888  73.9432689   9.5113483  77.7419660  73.5955675
   3.6083391  79.0836311  68.7872463   4.1590816  78.9553374  68.0149457
   2.7694867  79.3831200  68.4367355  10.9477508  77.8343309  72.2893185
  10.9295983  78.6552190  71.7973455  11.8697428  77.7097385  72.5143327
   7.4050562  75.3487439  73.1316694   7.9378899  74.5875727  72.9016002
   6.8764643  75.0561091  73.8740848  10.5720257  60.4547505  68.6610335
  10.2284526  61.3449146  68.5849446  10.9399219  60.2649162  67.7979920
  10.5370539  70.4456116  57.1682771  10.0217163  71.2160721  57.4071158
  10.2647848  69.7721252  57.7915832   8.1217650  65.2905817  62.2268009
   7.2659247  64.9012667  62.0473648   8.5344602  65.3697777  61.3667794
   9.6516797  62.8252160  66.6259569   9.1481593  62.7882295  65.8127374
   9.9447404  63.7344903  66.6856225   5.8959683  62.9090890  65.6325750
   6.7612680  62.7133698  65.2731640   5.9637192  62.6801241  66.5595107
  15.5104814  73.1988471  59.1035944  14.7334256  72.8599630  58.6591106
  16.1896295  73.2041094  58.4290909  10.3256843  68.3183208  58.9942552
  10.0206978  68.6329357  59.8452695  11.2787285  68.3964628  59.0369885
   8.7703274  74.4773431  60.6435506   8.2424636  73.7426191  60.3308743
   8.2690777  75.2548108  60.3975474  13.7496120  72.6722452  65.7602552
  13.0919795  73.3621713  65.8482681  14.5536520  73.0618884  66.1036538
   3.5022002  65.1393098  63.0042117   4.0765754  64.9168279  62.2715310
   4.0892984  65.2081792  63.7570719  12.5601579  71.0266824  63.8106494
  13.0733461  71.6596816  64.3128204  13.2102803  70.4268020  63.4449854
   3.8291589  67.1697559  57.0238003   2.9928901  67.5072245  57.3447277
   3.6896359  67.0346538  56.0865139   5.8044670  62.0134346  61.7317187
   5.1509082  61.6983364  61.1073801   5.7625144  61.3910087  62.4577010
   6.9155875  72.2953642  53.6470479   6.0082936  72.0642895  53.8461628
   7.4126907  71.4991261  53.8344460   9.8223953  81.0051149  56.5667165
   9.1485652  81.3082846  57.1752123  10.2089775  81.8080229  56.2172622
   9.0382410  68.5016280  66.0564834   8.1204971  68.7231227  65.8986522
   9.4542554  68.5762591  65.1976542   9.8217458  69.9007696  61.1867515
  10.5689277  70.4129093  60.8774637  10.0909047  69.5791748  62.0471908
   8.0944108  72.3966236  58.1694469   7.1855327  72.1125269  58.2666939
   8.1239192  72.8165315  57.3097776  13.3263375  76.0072826  61.9385636
  12.8725703  75.1663736  61.9950827  12.6957342  76.6434224  62.2760417
  12.2696295  66.9364812  63.1686304  11.5319052  66.4242198  63.4996546
  12.5223069  66.4965194  62.3569581  11.7696315  77.8449323  62.8735455
  12.0619289  78.4054380  62.1547820  12.2794935  78.1377884  63.6288614
  12.3707922  59.7141064  63.7628073  12.6766799  58.8538427  63.4753988
  13.0960527  60.3058684  63.5627067   6.6429002  70.0094857  64.2704264
   6.6977612  69.0568693  64.1946741   5.8320204  70.1654296  64.7545563
   7.7920196  73.9374980  55.5082547   7.3539626  73.2210839  55.0488185
   8.5330637  74.1651095  54.9467639   4.5821362  68.6271917  62.0294643
   3.7689228  68.9266087  62.4359835   5.0780356  68.2327606  62.7469125
   6.7329940  78.6229674  63.9628908   6.6906119  78.8490520  63.0337440
   7.6492639  78.3893048  64.1114709  10.1795574  69.0913741  70.8609537
  10.5344961  69.3185214  71.7204003  10.8267705  69.4232118  70.2386792
  15.9093311  72.2132177  61.5658866  15.7711209  72.4033773  60.6380055
  15.5529529  72.9751560  62.0226917   4.0735437  66.1990272  67.6455878
   4.7134816  66.0579031  66.9478841   3.2412967  65.9124786  67.2694480
  15.9362690  74.2808704  66.5770138  16.3699197  74.1883993  67.4253192
  16.6494271  74.2566205  65.9390154   4.8495741  75.4992703  63.7590870
   5.6436339  75.0043023  63.5573445   4.1387433  74.9710566  63.3958576
   9.6690585  77.8810798  68.1103238   9.7227607  78.4501735  68.8780954
   8.8005367  78.0512683  67.7457275   1.0764053  66.1690597  62.4228865
   1.3370870  67.0835931  62.3138025   1.8981226  65.7015040  62.5725478
   2.5488979  67.5828354  69.5927689   3.2212032  67.3745717  68.9440338
   1.7218765  67.3850440  69.1532922  16.7978240  74.3232405  69.1103023
  16.9914130  75.2278215  69.3562298  16.6978858  73.8639824  69.9441608
   8.4514551  64.2090295  71.6093350   7.8042466  64.9080245  71.5157827
   9.2215566  64.6426439  71.9769598  11.8593348  74.4739148  74.6843904
  11.7078855  74.2449699  73.7673987  11.8498028  75.4309749  74.6975249
   8.6278685  72.0471060  69.6690170   9.5570745  72.1982220  69.4959137
   8.2069715  72.1355081  68.8138816   7.4267017  76.0721725  67.4388708
   7.2878102  75.7040509  68.3114646   6.6381613  76.5869364  67.2672665
   8.0215169  81.1730821  58.7814244   8.1966924  80.7018864  59.5959867
   7.3347957  81.7996587  59.0095505   8.9772232  75.4503327  64.8277545
   8.6422064  75.4104097  65.7235195   8.4776177  74.7848043  64.3547956
   2.9516476  70.8570957  70.3530127   2.8136274  70.1251196  70.9541666
   3.8621399  70.7679858  70.0714314  11.9131423  72.7959362  55.1014605
  11.2960594  72.0706190  55.0047658  11.4447912  73.5568722  54.7581679
   5.5798776  70.5690917  69.8413806   6.2898395  69.9284109  69.8000425
   5.5368085  70.8203812  70.7639987  13.5685555  77.5058270  72.7620385
  13.5098101  76.8217490  72.0950968  13.9705073  78.2477260  72.3101011
   4.2927710  67.5556135  71.6609446   3.7565067  67.1046873  72.3131042
   3.7044419  67.6902043  70.9179910   2.5876254  84.3220184  65.5554104
   2.8272852  84.9538708  66.2333123   1.7445450  83.9708224  65.8419464
   3.7029969  67.0144786  54.2235909   2.8259436  66.8933587  53.8598156
   4.1787722  66.2230864  53.9714798  13.5702962  75.4697854  70.9934365
  12.6829741  75.1323776  71.1160764  14.1401513  74.7380885  71.2303130
   7.1004116  80.1299306  67.9595608   7.0274287  80.9354278  68.4714913
   6.6581509  80.3291272  67.1343630   6.8893895  79.3671076  61.4698430
   6.1061417  79.9092757  61.5636654   7.5886641  79.8845056  61.8692671
  10.1990546  65.1765706  64.1132635  10.6959245  64.4235668  63.7933705
   9.4277527  65.2130023  63.5475845  18.0520303  70.8806071  65.7550927
  18.0410179  71.7630787  65.3844860  17.1837682  70.5277622  65.5605464
   9.5602799  80.0286140  70.1153767  10.2730772  80.6633605  70.0429668
   9.0692828  80.1250006  69.2993769  11.2820326  73.9337393  61.6871059
  10.3476605  74.0538856  61.5175763  11.4596995  73.0309860  61.4231068
   6.7825514  67.3183089  63.8404320   6.4123302  66.7654129  64.5285225
   7.2784607  66.7141222  63.2879320  14.6692878  69.7754712  62.2221093
  15.1353330  70.6082704  62.1481395  15.1200378  69.3099694  62.9266351
   4.6114713  77.7780584  70.9359338   5.3124172  78.4117067  71.0888732
   4.1409828  78.1195315  70.1754977  12.7369109  76.1198534  59.2207245
  13.0128953  76.0055128  60.1301119  11.8673607  75.7216019  59.1819418
  12.6409540  62.1435299  66.2611994  11.7272620  62.3739526  66.4294201
  13.0702642  62.2273743  67.1126026  12.4115999  70.3325191  68.7611888
  11.7587449  70.5801099  68.1064341  12.7896379  69.5189330  68.4274365
   9.3723173  80.3684885  62.8640058   9.5545567  79.5506540  63.3267811
  10.1956159  80.5852577  62.4264948   9.7065338  79.2953070  60.1255107
  10.2353105  78.7845524  59.5125269   9.9693558  78.9795600  60.9900640
   8.4603572  71.0745002  75.2477925   7.7844209  70.9739132  75.9180300
   9.2831206  70.9184216  75.7113922   3.0621086  80.3468186  62.8852883
   2.3931461  80.8314314  62.4016923   2.9233956  80.5937407  63.7996261
   7.2026355  82.3811930  69.4835541   7.7544663  82.5443551  70.2484626
   7.5432548  82.9716368  68.8115566   2.1790848  64.7287080  70.0857426
   2.2432174  65.5901911  69.6734824   2.1157968  64.1161081  69.3529784
   1.6543120  66.8010212  73.7330460   2.2815159  66.4187290  74.3467984
   0.7971039  66.5824414  74.0986153  12.0537229  77.2073187  75.3384196
  12.5977133  77.8203146  74.8439150  11.4724074  77.7652766  75.8551209
  10.3394742  80.3293905  66.4699223  10.2145881  79.5283645  65.9610169
  10.9973833  80.8240099  65.9813193   1.9602910  66.6842638  65.6476364
   1.2389496  67.2978606  65.5083837   2.7496166  67.2200403  65.5693010
  12.4029650  78.1302925  68.0978773  11.4559986  78.0108277  68.0257100
  12.7512423  77.2425424  68.1805035   4.7629224  64.0197064  71.9217015
   5.2863626  64.2659361  72.6843325   4.5441557  64.8517099  71.5020153
   9.4076084  77.9255642  64.2983126   9.2601046  76.9972349  64.4790696
  10.2329577  77.9475732  63.8140201   3.2738328  66.5773709  60.1563618
   3.6134400  67.1059630  59.4342226   3.7210448  66.9154115  60.9322184
  13.0110206  78.7484200  65.3847998  13.9356753  78.5427062  65.2472450
  12.8425509  78.5000602  66.2937340   5.9681769  64.9610759  69.6066686
   5.6278589  64.1618573  70.0087366   5.2620775  65.2612470  69.0343519
   6.6198241  62.0460072  68.0594009   7.4424310  61.5720550  67.9372899
   6.8636304  62.8250556  68.5592695   5.2606475  65.0748330  58.3556911
   5.9814838  65.4529583  57.8520627   4.6371779  65.7937207  58.4591889
   9.4037598  65.7793479  59.2915243   9.6201212  66.6618117  58.9904071
   8.9231665  65.3879693  58.5620885   4.1436819  68.7379193  65.8685987
   3.9981400  69.0519496  66.7610269   3.6662023  69.3564093  65.3156886
   6.0033202  65.7281741  65.9166877   5.9894771  64.8322834  65.5799175
   6.7205630  65.7352404  66.5505163   7.8559333  66.1619081  67.9620004
   7.5977111  67.0836151  67.9604335   7.3244373  65.7649515  68.6520469
  12.8005522  79.2669868  60.7410090  12.9742399  78.7016290  59.9883942
  13.2934413  80.0670763  60.5589580   5.4070098  64.6096121  61.1854447
   5.5286009  63.6812767  61.3845335   5.1172141  64.6234807  60.2732763
   8.2761289  62.2951031  64.3221167   8.2982985  62.3590364  63.3673147
   8.6929348  61.4555540  64.5161673  18.6544913  72.0306291  62.3600390
  19.0976059  71.2813616  61.9619513  17.7771423  72.0216427  61.9774122
  13.7880694  78.5836632  57.8406988  14.4831599  79.2043325  58.0594303
  14.1303844  77.7331983  58.1159366  15.6872117  76.0336338  59.3694319
  16.2123441  76.3723611  58.6443639  15.5994470  75.0983353  59.1857454
   7.3492166  79.9470411  71.4984196   7.6579292  79.7019558  72.3706895
   8.1467648  80.1517050  71.0103066   7.3712778  82.1008321  63.7289572
   6.9317768  81.6084700  64.4222429   8.1220895  81.5581289  63.4881647
   4.8186650  77.6446330  65.8011874   4.1966660  76.9817035  65.5014102
   5.4891517  77.6707462  65.1185522   4.8911178  66.1228118  75.3944380
   4.9399333  66.9990241  75.0122149   5.4333692  65.5805511  74.8216023
  15.3766023  76.6669241  74.6745517  14.5861567  76.6493380  74.1350016
  15.1399378  77.2057535  75.4294553  15.4963898  73.5161708  71.9878245
  15.5461903  73.3511715  72.9293768  15.3877822  72.6488967  71.5976126
   4.3800157  76.1950254  59.2770334   4.5288278  76.8785718  58.6237007
   5.1866601  76.1755344  59.7919790  12.7867661  69.4992636  73.3037552
  13.6877524  69.3599101  73.0121550  12.8615635  69.6647091  74.2435730
   7.1210466  66.8759491  72.1490738   6.2513776  67.1693057  71.8773327
   7.3569947  67.4599936  72.8698002  16.9982095  75.9358649  72.2320267
  16.7066904  76.2988630  73.0683728  16.3854227  75.2225658  72.0533599
  18.1977778  73.5011529  64.7522837  19.0324669  73.9401333  64.9160398
  18.3336906  73.0250182  63.9331083  15.2469284  71.0591264  70.7000325
  15.7223405  71.2518910  69.8919176  14.3234849  71.1150450  70.4543709
   2.1352790  72.2215431  60.2831403   1.8898832  71.3177761  60.4811613
   2.3048705  72.2232582  59.3410881   9.8249500  63.0939108  69.6656159
  10.3431444  63.8300134  69.3402647   9.4704633  63.4003101  70.5002918
   1.4048438  67.9543789  57.7817565   0.7117683  68.0288144  57.1257601
   1.1600190  67.1904132  58.3039082  10.0762094  59.5139390  65.1857055
  10.3563848  58.8462579  65.8117482  10.8612701  59.7068486  64.6731719
   7.8795563  78.6898384  56.7482082   7.3069530  79.3088571  56.2952554
   8.4528356  79.2397746  57.2822004  13.9470953  67.9357024  68.9328631
  14.8988375  68.0355122  68.9540855  13.7774403  67.1435293  69.4426715
  11.9685332  65.0212607  69.1188031  11.3735264  65.3017620  68.4234520
  11.6835029  65.5106508  69.8904773  11.0992822  78.9735534  57.8790664
  12.0323496  78.9081096  58.0823540  11.0116035  79.8091801  57.4205197
  13.7280839  78.2901404  54.8394612  13.6494471  77.9561268  55.7330369
  14.5490506  78.7823172  54.8386084  16.4259030  71.1563144  68.0470930
  16.3935350  70.2179144  68.2330614  17.0359654  71.2347180  67.3136755
   8.2642361  70.0259197  54.0898134   9.2101466  69.8965405  54.1586552
   7.8856606  69.2873859  54.5667562  16.5753519  67.9474187  68.0929213
  16.0592567  67.1632644  67.9059142  17.4593467  67.6192904  68.2575733
  14.2364246  61.6915203  64.0525026  14.0389067  61.3830291  64.9368358
  14.8463951  62.4176842  64.1822956  22.2435580  72.2179151  67.1876967
  22.9738969  71.9564439  67.7484670  21.6342526  71.4807873  67.2279035
  20.3250877  70.3587013  67.7851418  19.5984041  70.2242978  67.1767910
  19.9098164  70.6663842  68.5908136   8.1481054  74.0776943  75.5498791
   9.0684063  74.2555542  75.7438838   8.1130637  73.1332988  75.3978490
   6.4485278  67.9509173  54.0253019   5.5416734  67.6542286  54.1015733
   6.7261259  67.6538991  53.1587306   1.1443126  71.9877978  68.1921572
   1.3629136  72.9195085  68.2109606   1.5568900  71.6285952  68.9776376
   8.0647344  62.4946063  60.1797261   7.2548072  62.1493148  60.5552507
   8.7531761  62.1853607  60.7684872   9.9937892  61.5724110  61.8021557
  10.5468931  61.9919563  62.4611580  10.2307979  60.6459858  61.8444513
   6.0170992  67.5611183  77.5824321   5.9167718  68.5105540  77.5136412
   5.7992534  67.2329422  76.7100391   5.2184063  64.8096108  54.1664999
   6.0803227  65.1351007  54.4260816   5.4034407  64.0227604  53.6538064
  13.3716699  63.6824635  61.3100222  12.7915368  64.3409439  60.9278274
  13.1052632  62.8601979  60.8987639  11.8220266  63.0829692  63.5121542
  12.3220044  63.1946227  62.7035861  12.4655874  62.7790745  64.1522350
   5.8802262  70.9908322  76.3989383   5.3969343  71.7908682  76.6053272
   5.9663201  71.0016267  75.4456827   1.8075599  74.8812857  68.4357817
   2.7618853  74.8496799  68.3687748   1.6088123  74.4203481  69.2508043
   2.3974981  73.4513973  71.0028614   3.2167870  73.9458052  71.0263452
   2.6711789  72.5345941  70.9746182  12.1541577  65.8424725  60.3656570
  11.2667432  66.1274376  60.1476765  12.5695567  65.6818489  59.5183847
  15.5056114  65.8671246  64.0810909  16.2816504  66.3567699  64.3535526
  14.7804248  66.2929300  64.5382779  17.9428672  66.5798865  65.1384850
  18.5373163  66.3394601  64.4278158  18.0155256  65.8605996  65.7658386
  11.2984791  75.6069400  54.4604590  12.0020641  75.8119402  55.0762245
  10.5747440  76.1746162  54.7253673  12.1282601  71.3579261  60.5806860
  12.0717803  71.8147813  59.7414492  12.6810944  70.5969946  60.4029703
  15.9387407  67.1468993  61.4056980  15.6824341  66.7465629  62.2365187
  15.3140275  67.8612787  61.2807119  20.2499745  69.8865066  63.9128271
  19.6899303  69.9558256  64.6859833  19.6443248  69.7106051  63.1927767
   3.3194954  81.3201793  65.6646457   3.2027338  82.2647226  65.5625148
   2.4987400  81.0175355  66.0532256  13.2071488  76.0451929  56.5103050
  14.0417092  75.6133128  56.3280525  13.0455831  75.8733943  57.4379944
  12.8617380  72.5484042  57.8759389  12.8066184  72.3828314  56.9347833
  12.2363436  73.2560075  58.0321579  10.1763288  74.8532954  77.2012952
  11.0454447  75.0273606  76.8399587   9.6970039  75.6727371  77.0788681
   6.1713506  62.0492151  57.4544708   6.1592176  62.9933991  57.6112979
   7.0636928  61.8662297  57.1604169   4.3449468  81.9730055  68.8802386
   5.2476715  82.0053665  69.1968881   4.1186838  81.0430506  68.8948721
   6.1003070  80.7261042  65.5412464   5.1498701  80.7262903  65.4276837
   6.4035556  79.9793776  65.0248499   9.9865625  58.6434928  61.7090644
   9.2198021  58.0893415  61.8547327  10.3976330  58.7156797  62.5704796
   1.9907386  64.9319724  75.7995826   2.8538848  64.5756529  76.0099150
   1.4172797  64.5933619  76.4871230  21.8355763  86.5621580  66.6058227
  22.4734173  86.4428327  65.9021567  21.7176606  87.5102424  66.6646179
  18.6445470  86.5149008  66.5419751  18.3063981  86.3990073  65.6540286
  19.5135238  86.1140173  66.5220758  14.5032285  88.3684485  62.5316642
  13.9397151  88.2774422  61.7632930  14.3884680  87.5484389  63.0119135
  19.1265253  87.6683860  72.5005957  19.1153893  87.2736658  71.6286461
  19.2885892  86.9349933  73.0939728  12.0496717  89.8635676  65.3700863
  12.8418009  89.5226501  64.9547162  12.2893367  89.9730651  66.2903016
  20.0831844  92.0355452  57.8431107  19.4319824  92.6209533  57.4565121
  20.8776207  92.5661647  57.9026145  14.0087471  89.1244590  58.2418242
  14.7818347  88.5773577  58.1031117  14.3612870  89.9888839  58.4532703
  15.8472514  90.4520972  71.4485141  15.5562380  91.3566603  71.3331807
  16.4829498  90.4937499  72.1629210  16.7728721  87.8297820  68.0386501
  17.3692293  87.6053843  67.3243463  16.8303692  87.0882566  68.6411948
  16.3453749  85.2837256  55.8736691  16.5979270  84.7618777  55.1120155
  15.4078308  85.1203401  55.9763375  21.3897032  84.2873034  63.6811435
  22.1760121  83.8692457  63.3301852  21.6535736  85.1919126  63.8493083
  21.5607109  89.7245884  58.3800092  20.9252942  89.7980511  59.0920996
  21.2304516  90.3139483  57.7019171  26.7905459  84.2248267  64.5844413
  27.5230631  83.6547484  64.8182243  26.0344815  83.8369868  65.0250919
  16.0650038  87.1865362  58.0761066  15.9486296  86.5110265  58.7442151
  16.1752298  86.6997736  57.2593220  18.4081579  86.6475509  61.7807756
  18.0439786  86.1206130  62.4920677  19.2648695  86.2573978  61.6074241
  24.3130879  77.9369841  69.0439022  23.9814204  78.8065252  68.8200237
  23.7176493  77.6206125  69.7233052  18.0487066  81.6765408  56.7769104
  18.2161468  82.5445645  57.1439575  17.8584235  81.8392690  55.8530393
  20.8062399  90.1382387  68.4434935  20.5063122  91.0407426  68.3350742
  20.4613458  89.8714570  69.2956087  14.2574880  86.5896184  64.4771639
  13.3325377  86.4572398  64.6849331  14.5059294  87.3690403  64.9741581
  24.2059543  82.6564927  66.1232372  23.2976420  82.5880336  65.8291133
  24.1547138  83.1336872  66.9514197  18.0276287  84.1323066  57.7615771
  17.9075912  84.5780117  58.6001251  17.3328875  84.4808384  57.2029309
  11.6183691  86.2329458  65.3115428  11.7476073  86.4863937  66.2254840
  10.9381143  86.8257166  64.9920083  15.7883179  96.9026708  61.4105902
  15.7107208  97.8534533  61.4894383  15.1844822  96.5572580  62.0680829
  18.2800408  84.0754573  74.0667269  17.5033743  84.6348493  74.0570134
  18.9190972  84.5611356  74.5882139  26.0721189  80.8581366  67.9010246
  25.4295569  81.1513899  67.2550040  25.5676118  80.7434286  68.7063442
  23.7261353  84.6044539  58.5896105  24.6379209  84.8371926  58.4143803
  23.2171000  85.1881583  58.0271184  16.5346781  86.8840026  73.6285236
  17.2761465  87.4225070  73.3520060  15.8283766  87.5106315  73.7856788
  22.0102120  89.0269167  72.2257398  22.4185476  88.5851577  71.4812030
  21.2879382  88.4521794  72.4791591  18.3633190  83.9641774  69.5990955
  19.2094386  84.3881187  69.7425604  18.3031828  83.3075398  70.2929518
  22.3330935  89.5870358  65.9809687  21.7039797  89.7516072  65.2785754
  21.9456597  90.0011967  66.7520651  26.2120167  90.5224795  63.3354050
  25.5271205  90.9023697  62.7851084  26.2964016  91.1320122  64.0685998
  21.5132636  81.6246142  71.2572128  21.2693568  82.3788203  70.7206404
  21.7892566  82.0031490  72.0919375  23.4671099  88.1684754  69.9349394
  23.6787994  88.8116514  69.2583775  23.4200847  87.3347071  69.4671324
  21.0697328  80.7802575  66.8385966  20.2081807  81.0783829  67.1302704
  21.0959762  80.9972974  65.9066999  17.8858897  89.3244766  63.2459772
  18.3497242  89.6032469  62.4564394  17.6215695  88.4228210  63.0632862
  14.7782978  88.8716247  66.1839535  15.3484335  89.3003516  65.5457019
  15.3691090  88.5898832  66.8823721  16.8227783  85.4467918  60.0549337
  17.5251826  85.8988962  60.5223263  16.4908411  84.8051737  60.6829230
  15.2708145  84.0379675  74.4300546  14.6406805  84.7195955  74.6635943
  15.1644232  83.9262756  73.4853684  10.5653117  83.7051471  65.3566470
   9.7752171  83.9608999  64.8806581  11.0564364  84.5199808  65.4618511
  24.5816927  91.0456710  68.1071751  25.4034370  90.6436897  67.8254433
  24.5779329  90.9424944  69.0587867  12.5167862  84.0696050  62.3149947
  11.7199026  84.1814744  62.8333443  12.2893455  84.4082702  61.4490838
  18.3473530  90.5940753  70.2632462  18.4117962  91.0561160  71.0990634
  17.6384454  89.9638118  70.3914772   8.8490820  83.9581961  67.7881461
   9.0998858  84.8428971  68.0539037   9.3850368  83.7786563  67.0156553
  32.6722920  87.3895458  64.4556723  31.9186628  86.8202856  64.3000727
  32.8070461  87.3558123  65.4027357  18.0621548  92.2608861  60.1311442
  17.9267222  93.1060396  60.5596290  18.6031360  92.4628138  59.3677376
  14.5488887  78.3400440  76.7925797  14.1555833  77.7866639  77.4673441
  15.3655028  78.6511019  77.1832315  11.5150945  89.7784299  60.7039367
  12.0275466  90.5727549  60.8544932  12.1673658  89.0810589  60.6372969
  13.3245830  92.8950055  62.7862120  13.5012458  93.8168020  62.5983104
  14.1202663  92.5808474  63.2156500  17.4656848  79.7558320  74.3846054
  18.2066562  80.3565473  74.3050516  17.6974771  79.0135957  73.8264096
  12.6098186  84.9414687  72.6624283  12.4951701  84.0399944  72.9631382
  11.7542704  85.1878384  72.3109100  19.6890024  92.8832427  74.2611784
  19.2453878  92.0968806  73.9432689  20.3507238  93.0711578  73.5955675
  14.4477145  94.4128229  68.7872463  14.9984570  94.2845292  68.0149457
  13.6088621  94.7123118  68.4367355  21.7871262  93.1635227  72.2893185
  21.7689737  93.9844108  71.7973455  22.7091182  93.0389302  72.5143327
  18.2444316  90.6779357  73.1316694  18.7772653  89.9167645  72.9016002
  17.7158397  90.3853008  73.8740848  21.4114011  75.7839422  68.6610335
  21.0678281  76.6741064  68.5849446  21.7792974  75.5941080  67.7979920
   9.4799862  88.1072953  61.4798938  10.3175084  88.5169961  61.2632645
   9.6578129  87.1672395  61.4499132  21.3764294  85.7748034  57.1682771
  20.8610917  86.5452638  57.4071158  21.1041602  85.1013170  57.7915832
  18.9611405  80.6197734  62.2268009  18.1053001  80.2304585  62.0473648
  19.3738357  80.6989695  61.3667794  20.4910552  78.1544078  66.6259569
  19.9875347  78.1174213  65.8127374  20.7841158  79.0636820  66.6856225
  16.7353437  78.2382807  65.6325750  17.6006434  78.0425616  65.2731640
  16.8030946  78.0093159  66.5595107  26.3498568  88.5280388  59.1035944
  25.5728011  88.1891548  58.6591106  27.0290049  88.5333011  58.4290909
  21.1650597  83.6475126  58.9942552  20.8600733  83.9621275  59.8452695
  22.1181039  83.7256546  59.0369885  19.6097029  89.8065349  60.6435506
  19.0818390  89.0718109  60.3308743  19.1084532  90.5840025  60.3975474
  24.5889875  88.0014369  65.7602552  23.9313549  88.6913631  65.8482681
  25.3930274  88.3910801  66.1036538  14.3415757  80.4685015  63.0042117
  14.9159508  80.2460197  62.2715310  14.9286739  80.5373710  63.7570719
  23.3995334  86.3558742  63.8106494  23.9127215  86.9888734  64.3128204
  24.0496558  85.7559938  63.4449854  14.6685344  82.4989476  57.0238003
  13.8322656  82.8364163  57.3447277  14.5290113  82.3638456  56.0865139
  16.6438424  77.3426264  61.7317187  15.9902837  77.0275281  61.1073801
  16.6018898  76.7202005  62.4577010  17.7549629  87.6245559  53.6470479
  16.8476691  87.3934813  53.8461628  18.2520661  86.8283179  53.8344460
  20.6617708  96.3343066  56.5667165  19.9879407  96.6374763  57.1752123
  21.0483530  97.1372147  56.2172622  19.8776165  83.8308198  66.0564834
  18.9598726  84.0523145  65.8986522  20.2936308  83.9054508  65.1976542
  20.6611212  85.2299613  61.1867515  21.4083031  85.7421011  60.8774637
  20.9302802  84.9083666  62.0471908  18.9337863  87.7258154  58.1694469
  18.0249082  87.4417187  58.2666939  18.9632946  88.1457233  57.3097776
  24.1657130  91.3364744  61.9385636  23.7119457  90.4955654  61.9950827
  23.5351097  91.9726142  62.2760417  23.1090050  82.2656730  63.1686304
  22.3712806  81.7534116  63.4996546  23.3616823  81.8257111  62.3569581
  22.6090069  93.1741240  62.8735455  22.9013044  93.7346297  62.1547820
  23.1188690  93.4669801  63.6288614  23.2101677  75.0432982  63.7628073
  23.5160554  74.1830345  63.4753988  23.9354282  75.6350602  63.5627067
   9.5026033  85.4463668  62.1509671   9.3050433  84.8533029  61.4260738
   8.9472697  85.1415878  62.8685610  17.4822757  85.3386775  64.2704264
  17.5371366  84.3860611  64.1946741  16.6713959  85.4946214  64.7545563
  18.6313950  89.2666898  55.5082547  18.1933380  88.5502757  55.0488185
  19.3724391  89.4943013  54.9467639  15.4215116  83.9563834  62.0294643
  14.6082982  84.2558005  62.4359835  15.9174111  83.5619523  62.7469125
  17.5723694  93.9521591  63.9628908  17.5299873  94.1782438  63.0337440
  18.4886393  93.7184966  64.1114709  21.0189328  84.4205659  70.8609537
  21.3738716  84.6477132  71.7204003  21.6661459  84.7524036  70.2386792
  26.7487065  87.5424095  61.5658866  26.6104964  87.7325691  60.6380055
  26.3923284  88.3043478  62.0226917  14.9129191  81.5282190  67.6455878
  15.5528571  81.3870949  66.9478841  14.0806722  81.2416703  67.2694480
  26.7756445  89.6100622  66.5770138  27.2092951  89.5175911  67.4253192
  27.4888025  89.5858122  65.9390154  15.6889495  90.8284620  63.7590870
  16.4830094  90.3334941  63.5573445  14.9781188  90.3002484  63.3958576
  20.5084340  93.2102716  68.1103238  20.5621362  93.7793652  68.8780954
  19.6399121  93.3804601  67.7457275  11.9972259  84.9727702  59.8350623
  11.0669847  84.9112158  60.0520585  12.0929731  84.4503655  59.0387264
  11.9157808  81.4982515  62.4228865  12.1764625  82.4127848  62.3138025
  12.7374980  81.0306958  62.5725478  13.3882733  82.9120272  69.5927689
  14.0605786  82.7037634  68.9440338  12.5612520  82.7142358  69.1532922
  27.6371994  89.6524322  69.1103023  27.8307884  90.5570133  69.3562298
  27.5372612  89.1931742  69.9441608  19.2908305  79.5382213  71.6093350
  18.6436220  80.2372163  71.5157827  20.0609320  79.9718357  71.9769598
  22.6987103  89.8031065  74.6843904  22.5472609  89.5741617  73.7673987
  22.6891782  90.7601667  74.6975249  19.4672439  87.3762978  69.6690170
  20.3964499  87.5274138  69.4959137  19.0463469  87.4646999  68.8138816
  18.2660771  91.4013642  67.4388708  18.1271857  91.0332427  68.3114646
  17.4775367  91.9161282  67.2672665  18.8608923  96.5022739  58.7814244
  19.0360679  96.0310782  59.5959867  18.1741711  97.1288505  59.0095505
  19.8165986  90.7795245  64.8277545  19.4815819  90.7396015  65.7235195
  19.3169932  90.1139961  64.3547956  13.7910230  86.1862875  70.3530127
  13.6530028  85.4543114  70.9541666  14.7015154  86.0971775  70.0714314
  22.7525178  88.1251279  55.1014605  22.1354349  87.3998108  55.0047658
  22.2841666  88.8860640  54.7581679  16.4192531  85.8982834  69.8413806
  17.1292149  85.2576027  69.8000425  16.3761839  86.1495729  70.7639987
  24.4079310  92.8350188  72.7620385  24.3491856  92.1509408  72.0950968
  24.8098828  93.5769178  72.3101011  15.1321465  82.8848052  71.6609446
  14.5958822  82.4338791  72.3131042  14.5438173  83.0193961  70.9179910
  13.4270008  99.6512102  65.5554104  13.6666607 100.2830626  66.2333123
  12.5839205  99.3000142  65.8419464  14.5423724  82.3436704  54.2235909
  13.6653190  82.2225505  53.8598156  15.0181477  81.5522782  53.9714798
  24.4096717  90.7989772  70.9934365  23.5223496  90.4615694  71.1160764
  24.9795268  90.0672803  71.2303130   6.0625864  87.1313863  64.3177416
   6.7496904  86.8175594  63.7298432   5.9073993  88.0355228  64.0444668
  10.8660586  82.0204060  68.7462440  10.7818775  81.4129730  68.0112850
  10.0443293  82.5113078  68.7471936  17.9397870  95.4591224  67.9595608
  17.8668042  96.2646196  68.4714913  17.4975263  95.6583190  67.1343630
  17.7287650  94.6962994  61.4698430  16.9455172  95.2384674  61.5636654
  18.4280395  95.2136974  61.8692671  21.0384300  80.5057624  64.1132635
  21.5353000  79.7527586  63.7933705  20.2671282  80.5421940  63.5475845
  28.8914057  86.2097989  65.7550927  28.8803934  87.0922705  65.3844860
  28.0231437  85.8569540  65.5605464  20.3996554  95.3578058  70.1153767
  21.1124526  95.9925523  70.0429668  19.9086582  95.4541924  69.2993769
  22.1214081  89.2629311  61.6871059  21.1870359  89.3830773  61.5175763
  22.2990749  88.3601778  61.4231068  17.6219269  82.6475007  63.8404320
  17.2517056  82.0946047  64.5285225  18.1178361  82.0433140  63.2879320
  25.5086632  85.1046630  62.2221093  25.9747084  85.9374622  62.1481395
  25.9594133  84.6391612  62.9266351  15.4508467  93.1072502  70.9359338
  16.1517927  93.7408985  71.0888732  14.9803582  93.4487233  70.1754977
  23.5762863  91.4490451  59.2207245  23.8522707  91.3347046  60.1301119
  22.7067362  91.0507936  59.1819418  23.4803295  77.4727217  66.2611994
  22.5666375  77.7031444  66.4294201  23.9096396  77.5565661  67.1126026
  23.2509753  85.6617109  68.7611888  22.5981204  85.9093016  68.1064341
  23.6290133  84.8481247  68.4274365  20.2116927  95.6976802  62.8640058
  20.3939322  94.8798458  63.3267811  21.0349913  95.9144494  62.4264948
  20.5459093  94.6244987  60.1255107  21.0746859  94.1137442  59.5125269
  20.8087312  94.3087518  60.9900640  19.2997326  86.4036920  75.2477925
  18.6237963  86.3031049  75.9180300  20.1224960  86.2476134  75.7113922
  11.0476185  92.6408857  67.8690440  11.6329622  91.8952545  68.0018345
  10.8501024  92.9512813  68.7527104  13.9014841  95.6760104  62.8852883
  13.2325216  96.1606232  62.4016923  13.7627710  95.9229324  63.7996261
   5.6393840  85.2114457  66.5894884   5.6777940  84.6778048  67.3832002
   5.1334133  84.6849662  65.9705861  18.0420109  97.7103848  69.4835541
  18.5938417  97.8735469  70.2484626  18.3826303  98.3008285  68.8115566
  13.0184602  80.0578997  70.0857426  13.0825929  80.9193828  69.6734824
  12.9551723  79.4452999  69.3529784  12.4936875  82.1302130  73.7330460
  13.1208914  81.7479207  74.3467984  11.6364794  81.9116332  74.0986153
  22.8930984  92.5365105  75.3384196  23.4370887  93.1495063  74.8439150
  22.3117828  93.0944683  75.8551209   9.2702418  83.9378559  59.6648815
   9.5655859  83.0289237  59.6115869   8.3690453  83.9166298  59.3429817
  21.1788496  95.6585823  66.4699223  21.0539636  94.8575563  65.9610169
  21.8367588  96.1532016  65.9813193  12.7996665  82.0134556  65.6476364
  12.0783250  82.6270523  65.5083837  13.5889920  82.5492320  65.5693010
  23.2423405  93.4594843  68.0978773  22.2953740  93.3400194  68.0257100
  23.5906178  92.5717341  68.1805035  15.6022978  79.3488982  71.9217015
  16.1257380  79.5951279  72.6843325  15.3835311  80.1809017  71.5020153
  10.9990259  81.6192657  59.7888140  10.6702965  80.7390036  59.6063246
  11.3529630  81.5640325  60.6764529  20.2469838  93.2547559  64.2983126
  20.0994801  92.3264267  64.4790696  21.0723332  93.2767650  63.8140201
  14.1132082  81.9065626  60.1563618  14.4528155  82.4351548  59.4342226
  14.5604203  82.2446033  60.9322184  23.8503960  94.0776118  65.3847998
  24.7750507  93.8718979  65.2472450  23.6819263  93.8292519  66.2937340
  16.8075523  80.2902677  69.6066686  16.4672344  79.4910490  70.0087366
  16.1014530  80.5904388  69.0343519  17.4591995  77.3751990  68.0594009
  18.2818064  76.9012468  67.9372899  17.7030059  78.1542473  68.5592695
  16.1000230  80.4040248  58.3556911  16.8208592  80.7821501  57.8520627
  15.4765534  81.1229125  58.4591889  20.2431352  81.1085397  59.2915243
  20.4594967  81.9910035  58.9904071  19.7625420  80.7171610  58.5620885
  14.9830574  84.0671110  65.8685987  14.8375155  84.3811413  66.7610269
  14.5055777  84.6856011  65.3156886  16.8426957  81.0573658  65.9166877
  16.8288525  80.1614752  65.5799175  17.5599385  81.0644322  66.5505163
  18.6953087  81.4910998  67.9620004  18.4370865  82.4128069  67.9604335
  18.1638128  81.0941433  68.6520469  23.6399276  94.5961786  60.7410090
  23.8136154  94.0308208  59.9883942  24.1328167  95.3962680  60.5589580
   9.4576236  86.6076455  68.8073649   8.9129704  87.3836263  68.9393923
  10.3355586  86.9547259  68.6492770  16.2463853  79.9388038  61.1854447
  16.3679764  79.0104685  61.3845335  15.9565895  79.9526724  60.2732763
  19.1155043  77.6242949  64.3221167  19.1376740  77.6882282  63.3673147
  19.5323102  76.7847458  64.5161673  29.4938667  87.3598208  62.3600390
  29.9369813  86.6105534  61.9619513  28.6165178  87.3508345  61.9774122
  24.6274449  93.9128550  57.8406988  25.3225353  94.5335243  58.0594303
  24.9697599  93.0623901  58.1159366  10.2442258  85.7346351  71.7003806
   9.5023994  85.8828986  72.2868436   9.9235002  85.9954617  70.8370555
  26.5265872  91.3628255  59.3694319  27.0517196  91.7015528  58.6443639
  26.4388224  90.4275271  59.1857454  18.1885921  95.2762329  71.4984196
  18.4973047  95.0311476  72.3706895  18.9861403  95.4808968  71.0103066
  18.2106533  97.4300239  63.7289572  17.7711523  96.9376617  64.4222429
  18.9614650  96.8873206  63.4881647  10.6898872  93.6211780  63.7314200
  11.5156891  93.3215551  63.3512844  10.3392924  92.8519402  64.1803989
  15.6580405  92.9738248  65.8011874  15.0360414  92.3108953  65.5014102
  16.3285272  92.9999380  65.1185522   8.8907477  91.5398106  64.6903134
   8.0539385  91.1120280  64.5087135   8.8631122  91.7330549  65.6273925
  15.7304932  81.4520036  75.3944380  15.7793088  82.3282159  75.0122149
  16.2727446  80.9097429  74.8216023  26.2159778  91.9961159  74.6745517
  25.4255322  91.9785298  74.1350016  25.9793132  92.5349453  75.4294553
  26.3357653  88.8453625  71.9878245  26.3855658  88.6803633  72.9293768
  26.2271576  87.9780885  71.5976126  15.2193912  91.5242171  59.2770334
  15.3682032  92.2077636  58.6237007  16.0260355  91.5047261  59.7919790
  23.6261415  84.8284554  73.3037552  24.5271278  84.6891018  73.0121550
  23.7009390  84.9939008  74.2435730  17.9604221  82.2051408  72.1490738
  17.0907530  82.4984974  71.8773327  18.1963701  82.7891853  72.8698002
  27.8375850  91.2650567  72.2320267  27.5460658  91.6280548  73.0683728
  27.2247981  90.5517575  72.0533599  29.0371532  88.8303447  64.7522837
  29.8718423  89.2693251  64.9160398  29.1730661  88.3542100  63.9331083
  26.0863038  86.3883182  70.7000325  26.5617160  86.5810828  69.8919176
  25.1628603  86.4442367  70.4543709  12.9746545  87.5507349  60.2831403
  12.7292587  86.6469679  60.4811613  13.1442459  87.5524499  59.3410881
  20.6643254  78.4231025  69.6656159  21.1825198  79.1592052  69.3402647
  20.3098387  78.7295018  70.5002918  12.2442192  83.2835706  57.7817565
  11.5511437  83.3580061  57.1257601  11.9993944  82.5196050  58.3039082
  20.9155849  74.8431308  65.1857055  21.1957602  74.1754497  65.8117482
  21.7006456  75.0360403  64.6731719  18.7189317  94.0190302  56.7482082
  18.1463284  94.6380489  56.2952554  19.2922111  94.5689663  57.2822004
  24.7864707  83.2648942  68.9328631  25.7382130  83.3647039  68.9540855
  24.6168157  82.4727210  69.4426715  22.8079086  80.3504525  69.1188031
  22.2129019  80.6309538  68.4234520  22.5228783  80.8398426  69.8904773
  21.9386577  94.3027452  57.8790664  22.8717250  94.2373013  58.0823540
  21.8509790  95.1383719  57.4205197  24.5674594  93.6193322  54.8394612
  24.4888225  93.2853186  55.7330369  25.3884260  94.1115090  54.8386084
  27.2652785  86.4855061  68.0470930  27.2329105  85.5471062  68.2330614
  27.8753408  86.5639098  67.3136755  19.1036116  85.3551114  54.0898134
  20.0495220  85.2257322  54.1586552  18.7250361  84.6165776  54.5667562
  27.4147273  83.2766105  68.0929213  26.8986322  82.4924561  67.9059142
  28.2987222  82.9484821  68.2575733  25.0758000  77.0207120  64.0525026
  24.8782821  76.7122209  64.9368358  25.6857706  77.7468759  64.1822956
  33.0829335  87.5471068  67.1876967  33.8132723  87.2856356  67.7484670
  32.4736280  86.8099790  67.2279035  31.1644632  85.6878931  67.7851418
  30.4377795  85.5534896  67.1767910  30.7491919  85.9955759  68.5908136
  18.9874808  89.4068861  75.5498791  19.9077818  89.5847460  75.7438838
  18.9524391  88.4624906  75.3978490  17.2879033  83.2801091  54.0253019
  16.3810488  82.9834203  54.1015733  17.5655014  82.9830909  53.1587306
   8.2056973  84.6007454  64.4752066   7.8859758  83.7472762  64.1826440
   7.6590401  84.8156032  65.2310033  11.9836881  87.3169895  68.1921572
  12.2022891  88.2487003  68.2109606  12.3962655  86.9577870  68.9776376
  18.9041099  77.8237980  60.1797261  18.0941827  77.4785065  60.5552507
  19.5925515  77.5145524  60.7684872  20.8331647  76.9016027  61.8021557
  21.3862685  77.3211481  62.4611580  21.0701733  75.9751775  61.8444513
  16.8564746  82.8903101  77.5824321  16.7561473  83.8397458  77.5136412
  16.6386288  82.5621340  76.7100391  16.0577817  80.1388026  54.1664999
  16.9196981  80.4642924  54.4260816  16.2428162  79.3519522  53.6538064
   8.0745233  88.2210366  66.4445187   7.3808705  87.8064318  65.9315142
   8.8218224  88.2630902  65.8478606  24.2110454  79.0116552  61.3100222
  23.6309123  79.6701356  60.9278274  23.9446387  78.1893897  60.8987639
  22.6614020  78.4121610  63.5121542  23.1613799  78.5238145  62.7035861
  23.3049628  78.1082663  64.1522350  16.7196016  86.3200240  76.3989383
  16.2363098  87.1200600  76.6053272  16.8056955  86.3308185  75.4456827
   9.9881976  88.1528619  64.3211202   9.9652664  88.2516307  63.3693085
  10.2982612  88.9993770  64.6428368  12.6469354  90.2104774  68.4357817
  13.6012607  90.1788717  68.3687748  12.4481877  89.7495398  69.2508043
  13.2368736  88.7805891  71.0028614  14.0561625  89.2749969  71.0263452
  13.5105543  87.8637859  70.9746182  22.9935332  81.1716643  60.3656570
  22.1061187  81.4566293  60.1476765  23.4089321  81.0110406  59.5183847
  26.3449868  81.1963164  64.0810909  27.1210258  81.6859616  64.3535526
  25.6198002  81.6221218  64.5382779  28.7822427  81.9090783  65.1384850
  29.3766917  81.6686519  64.4278158  28.8549010  81.1897914  65.7658386
  11.0019582  95.7524394  65.4528015  10.8674050  94.9924795  64.8866013
  10.5851645  96.4765294  64.9856803  22.1378545  90.9361317  54.4604590
  22.8414396  91.1411320  55.0762245  21.4141194  91.5038079  54.7253673
  22.9676356  86.6871179  60.5806860  22.9111557  87.1439730  59.7414492
  23.5204698  85.9261863  60.4029703  26.7781162  82.4760911  61.4056980
  26.5218096  82.0757546  62.2365187  26.1534030  83.1904705  61.2807119
  31.0893499  85.2156984  63.9128271  30.5293057  85.2850173  64.6859833
  30.4837003  85.0397969  63.1927767  14.1588708  96.6493711  65.6646457
  14.0421092  97.5939143  65.5625148  13.3381155  96.3467273  66.0532256
  24.0465243  91.3743847  56.5103050  24.8810847  90.9425045  56.3280525
  23.8849586  91.2025860  57.4379944  23.7011135  87.8775960  57.8759389
  23.6459939  87.7120231  56.9347833  23.0757190  88.5851993  58.0321579
   8.4903650  83.1144024  71.7020811   9.1362514  82.6042978  72.1908037
   8.2820801  83.8512706  72.2764237  21.0157042  90.1824872  77.2012952
  21.8848202  90.3565524  76.8399587  20.5363794  91.0019289  77.0788681
  17.0107260  77.3784069  57.4544708  16.9985930  78.3225909  57.6112979
  17.9030682  77.1954214  57.1604169  15.1843222  97.3021973  68.8802386
  16.0870469  97.3345583  69.1968881  14.9580592  96.3722424  68.8948721
  16.9396824  96.0552959  65.5412464  15.9892455  96.0554821  65.4276837
  17.2429311  95.3085694  65.0248499  20.8259380  73.9726846  61.7090644
  20.0591776  73.4185332  61.8547327  21.2370085  74.0448714  62.5704796
  12.8301141  80.2611641  75.7995826  13.6932603  79.9048446  76.0099150
  12.2566552  79.9225536  76.4871230  32.6749518 101.8913498  66.6058227
  33.3127928 101.7720245  65.9021567  32.5570361 102.8394342  66.6646179
  29.4839224 101.8440926  66.5419751  29.1457736 101.7281991  65.6540286
  30.3528992 101.4432091  66.5220758  25.3426040 103.6976402  62.5316642
  24.7790905 103.6066339  61.7632930  25.2278435 102.8776307  63.0119135
  29.9659007 102.9975778  72.5005957  29.9547648 102.6028576  71.6286461
  30.1279647 102.2641850  73.0939728  22.8890472 105.1927594  65.3700863
  23.6811764 104.8518419  64.9547162  23.1287122 105.3022569  66.2903016
  30.9225599 107.3647370  57.8431107  30.2713578 107.9501450  57.4565121
  31.7169961 107.8953565  57.9026145  24.8481226 104.4536507  58.2418242
  25.6212102 103.9065494  58.1031117  25.2006625 105.3180757  58.4532703
  26.6866268 105.7812889  71.4485141  26.3956134 106.6858520  71.3331807
  27.3223253 105.8229417  72.1629210  27.6122475 103.1589738  68.0386501
  28.2086047 102.9345760  67.3243463  27.6697447 102.4174483  68.6411948
  27.1847504 100.6129173  55.8736691  27.4373024 100.0910695  55.1120155
  26.2472063 100.4495319  55.9763375  32.2290786  99.6164952  63.6811435
  33.0153876  99.1984375  63.3301852  32.4929491 100.5211044  63.8493083
  32.4000864 105.0537802  58.3800092  31.7646697 105.1272428  59.0920996
  32.0698270 105.6431401  57.7019171  37.6299214  99.5540185  64.5844413
  38.3624385  98.9839402  64.8182243  36.8738569  99.1661785  65.0250919
  26.9043792 102.5157279  58.0761066  26.7880050 101.8402183  58.7442151
  27.0146052 102.0289653  57.2593220  29.2475333 101.9767426  61.7807756
  28.8833540 101.4498047  62.4920677  30.1042449 101.5865895  61.6074241
  35.1524634  93.2661759  69.0439022  34.8207959  94.1357170  68.8200237
  34.5570247  92.9498043  69.7233052  28.8880820  97.0057326  56.7769104
  29.0555223  97.8737562  57.1439575  28.6977989  97.1684608  55.8530393
  31.6456153 105.4674305  68.4434935  31.3456876 106.3699344  68.3350742
  31.3007213 105.2006488  69.2956087  25.0968635 101.9188102  64.4771639
  24.1719131 101.7864316  64.6849331  25.3453048 102.6982321  64.9741581
  35.0453297  97.9856845  66.1232372  34.1370175  97.9172254  65.8291133
  34.9940893  98.4628790  66.9514197  28.8670041  99.4614984  57.7615771
  28.7469666  99.9072034  58.6001251  28.1722629  99.8100301  57.2029309
  22.4577446 101.5621375  65.3115428  22.5869827 101.8155854  66.2254840
  21.7774897 102.1549083  64.9920083  26.6276933 112.2318625  61.4105902
  26.5500963 113.1826450  61.4894383  26.0238577 111.8864498  62.0680829
  29.1194163  99.4046491  74.0667269  28.3427497  99.9640411  74.0570134
  29.7584726  99.8903274  74.5882139  36.9114944  96.1873284  67.9010246
  36.2689324  96.4805817  67.2550040  36.4069872  96.0726204  68.7063442
  34.5655107  99.9336457  58.5896105  35.4772963 100.1663843  58.4143803
  34.0564754 100.5173501  58.0271184  27.3740535 102.2131944  73.6285236
  28.1155220 102.7516988  73.3520060  26.6677521 102.8398233  73.7856788
  32.8495875 104.3561085  72.2257398  33.2579231 103.9143495  71.4812030
  32.1273136 103.7813712  72.4791591  29.2026945  99.2933691  69.5990955
  30.0488140  99.7173105  69.7425604  29.1425583  98.6367316  70.2929518
  33.1724690 104.9162275  65.9809687  32.5433552 105.0807989  65.2785754
  32.7850352 105.3303885  66.7520651  37.0513921 105.8516713  63.3354050
  36.3664960 106.2315614  62.7851084  37.1357771 106.4612040  64.0685998
  32.3526390  96.9538060  71.2572128  32.1087322  97.7080120  70.7206404
  32.6286321  97.3323407  72.0919375  34.3064853 103.4976672  69.9349394
  34.5181748 104.1408432  69.2583775  34.2594601 102.6638989  69.4671324
  31.9091082  96.1094493  66.8385966  31.0475561  96.4075746  67.1302704
  31.9353517  96.3264892  65.9066999  28.7252651 104.6536683  63.2459772
  29.1890997 104.9324386  62.4564394  28.4609450 103.7520128  63.0632862
  25.6176732 104.2008165  66.1839535  26.1878090 104.6295433  65.5457019
  26.2084844 103.9190750  66.8823721  27.6621537 100.7759836  60.0549337
  28.3645581 101.2280879  60.5223263  27.3302166 100.1343655  60.6829230
  26.1101899  99.3671592  74.4300546  25.4800560 100.0487873  74.6635943
  26.0037987  99.2554674  73.4853684  21.4046871  99.0343388  65.3566470
  20.6145925  99.2900917  64.8806581  21.8958119  99.8491726  65.4618511
  35.4210681 106.3748627  68.1071751  36.2428125 105.9728815  67.8254433
  35.4173084 106.2716862  69.0587867  23.3561617  99.3987968  62.3149947
  22.5592780  99.5106662  62.8333443  23.1287209  99.7374620  61.4490838
  29.1867284 105.9232671  70.2632462  29.2511717 106.3853078  71.0990634
  28.4778208 105.2930036  70.3914772  19.6884574  99.2873879  67.7881461
  19.9392613 100.1720889  68.0539037  20.2244123  99.1078480  67.0156553
  43.5116674 102.7187376  64.4556723  42.7580382 102.1494774  64.3000727
  43.6464215 102.6850040  65.4027357  28.9015302 107.5900778  60.1311442
  28.7660977 108.4352314  60.5596290  29.4425115 107.7920056  59.3677376
  25.3882642  93.6692358  76.7925797  24.9949587  93.1158557  77.4673441
  26.2048782  93.9802937  77.1832315  22.3544699 105.1076216  60.7039367
  22.8669220 105.9019467  60.8544932  23.0067412 104.4102507  60.6372969
  24.1639584 108.2241973  62.7862120  24.3406213 109.1459937  62.5983104
  24.9596418 107.9100392  63.2156500  28.3050603  95.0850237  74.3846054
  29.0460316  95.6857390  74.3050516  28.5368526  94.3427875  73.8264096
  23.4491941 100.2706604  72.6624283  23.3345456  99.3691862  72.9631382
  22.5936458 100.5170301  72.3109100  30.5283778 108.2124345  74.2611784
  30.0847633 107.4260723  73.9432689  31.1900992 108.4003495  73.5955675
  25.2870900 109.7420146  68.7872463  25.8378325 109.6137210  68.0149457
  24.4482376 110.0415035  68.4367355  32.6265017 108.4927145  72.2893185
  32.6083492 109.3136026  71.7973455  33.5484937 108.3681220  72.5143327
  29.0838071 106.0071274  73.1316694  29.6166407 105.2459562  72.9016002
  28.5552152 105.7144926  73.8740848  32.2507766  91.1131340  68.6610335
  31.9072035  92.0032982  68.5849446  32.6186728  90.9232998  67.7979920
  20.3193616 103.4364871  61.4798938  21.1568838 103.8461879  61.2632645
  20.4971884 102.4964313  61.4499132  32.2158048 101.1039951  57.1682771
  31.7004672 101.8744556  57.4071158  31.9435357 100.4305087  57.7915832
  29.8005159  95.9489652  62.2268009  28.9446756  95.5596502  62.0473648
  30.2132111  96.0281613  61.3667794  31.3304306  93.4835995  66.6259569
  30.8269102  93.4466130  65.8127374  31.6234913  94.3928738  66.6856225
  27.5747192  93.5674725  65.6325750  28.4400189  93.3717534  65.2731640
  27.6424701  93.3385077  66.5595107  37.1892323 103.8572306  59.1035944
  36.4121765 103.5183465  58.6591106  37.8683803 103.8624929  58.4290909
  32.0044352  98.9767043  58.9942552  31.6994487  99.2913193  59.8452695
  32.9574794  99.0548463  59.0369885  30.4490783 105.1357267  60.6435506
  29.9212145 104.4010026  60.3308743  29.9478286 105.9131943  60.3975474
  35.4283629 103.3306287  65.7602552  34.7707304 104.0205549  65.8482681
  36.2324029 103.7202719  66.1036538  25.1809511  95.7976933  63.0042117
  25.7553263  95.5752114  62.2715310  25.7680493  95.8665627  63.7570719
  34.2389088 101.6850660  63.8106494  34.7520970 102.3180652  64.3128204
  34.8890312 101.0851855  63.4449854  25.5079098  97.8281394  57.0238003
  24.6716410  98.1656081  57.3447277  25.3683868  97.6930374  56.0865139
  27.4832179  92.6718182  61.7317187  26.8296591  92.3567199  61.1073801
  27.4412653  92.0493922  62.4577010  28.5943384 102.9537477  53.6470479
  27.6870445 102.7226730  53.8461628  29.0914416 102.1575096  53.8344460
  31.5011462 111.6634984  56.5667165  30.8273161 111.9666681  57.1752123
  31.8877284 112.4664064  56.2172622  30.7169919  99.1600115  66.0564834
  29.7992480  99.3815062  65.8986522  31.1330063  99.2346426  65.1976542
  31.5004967 100.5591531  61.1867515  32.2476786 101.0712928  60.8774637
  31.7696556 100.2375584  62.0471908  29.7731617 103.0550072  58.1694469
  28.8642836 102.7709105  58.2666939  29.8026701 103.4749150  57.3097776
  35.0050884 106.6656661  61.9385636  34.5513212 105.8247571  61.9950827
  34.3744851 107.3018060  62.2760417  33.9483804  97.5948647  63.1686304
  33.2106561  97.0826034  63.4996546  34.2010578  97.1549029  62.3569581
  33.4483824 108.5033158  62.8735455  33.7406798 109.0638215  62.1547820
  33.9582444 108.7961719  63.6288614  34.0495431  90.3724899  63.7628073
  34.3554308  89.5122263  63.4753988  34.7748036  90.9642520  63.5627067
  20.3419787 100.7755586  62.1509671  20.1444187 100.1824947  61.4260738
  19.7866451 100.4707796  62.8685610  28.3216511 100.6678692  64.2704264
  28.3765121  99.7152529  64.1946741  27.5107713 100.8238131  64.7545563
  29.4707705 104.5958815  55.5082547  29.0327135 103.8794674  55.0488185
  30.2118146 104.8234930  54.9467639  26.2608871  99.2855752  62.0294643
  25.4476737  99.5849923  62.4359835  26.7567865  98.8911441  62.7469125
  28.4117449 109.2813509  63.9628908  28.3693628 109.5074355  63.0337440
  29.3280148 109.0476884  64.1114709  31.8583083  99.7497577  70.8609537
  32.2132470  99.9769050  71.7204003  32.5055214 100.0815953  70.2386792
  37.5880820 102.8716013  61.5658866  37.4498718 103.0617608  60.6380055
  37.2317038 103.6335395  62.0226917  25.7522946  96.8574108  67.6455878
  26.3922325  96.7162867  66.9478841  24.9200476  96.5708621  67.2694480
  37.6150199 104.9392540  66.5770138  38.0486706 104.8467829  67.4253192
  38.3281780 104.9150040  65.9390154  26.5283250 106.1576538  63.7590870
  27.3223848 105.6626858  63.5573445  25.8174942 105.6294401  63.3958576
  31.3478094 108.5394634  68.1103238  31.4015116 109.1085570  68.8780954
  30.4792875 108.7096519  67.7457275  22.8366013 100.3019620  59.8350623
  21.9063601 100.2404075  60.0520585  22.9323485  99.7795573  59.0387264
  22.7551562  96.8274433  62.4228865  23.0158379  97.7419766  62.3138025
  23.5768734  96.3598875  62.5725478  24.2276487  98.2412190  69.5927689
  24.8999541  98.0329552  68.9440338  23.4006274  98.0434276  69.1532922
  38.4765749 104.9816240  69.1103023  38.6701639 105.8862051  69.3562298
  38.3766367 104.5223659  69.9441608  30.1302060  94.8674131  71.6093350
  29.4829975  95.5664080  71.5157827  30.9003075  95.3010275  71.9769598
  33.5380857 105.1322983  74.6843904  33.3866364 104.9033535  73.7673987
  33.5285537 106.0893584  74.6975249  30.3066194 102.7054896  69.6690170
  31.2358254 102.8566055  69.4959137  29.8857224 102.7938916  68.8138816
  29.1054526 106.7305560  67.4388708  28.9665611 106.3624344  68.3114646
  28.3169122 107.2453200  67.2672665  29.7002678 111.8314657  58.7814244
  29.8754433 111.3602700  59.5959867  29.0135466 112.4580423  59.0095505
  30.6559741 106.1087163  64.8277545  30.3209573 106.0687933  65.7235195
  30.1563686 105.4431879  64.3547956  24.6303985 101.5154793  70.3530127
  24.4923783 100.7835032  70.9541666  25.5408908 101.4263693  70.0714314
  33.5918932 103.4543197  55.1014605  32.9748103 102.7290025  55.0047658
  33.1235421 104.2152557  54.7581679  27.2586285 101.2274752  69.8413806
  27.9685904 100.5867944  69.8000425  27.2155594 101.4787647  70.7639987
  35.2473064 108.1642105  72.7620385  35.1885610 107.4801326  72.0950968
  35.6492582 108.9061095  72.3101011  25.9715219  98.2139970  71.6609446
  25.4352576  97.7630708  72.3131042  25.3831928  98.3485879  70.9179910
  24.2663763 114.9804019  65.5554104  24.5060361 115.6122543  66.2333123
  23.4232959 114.6292059  65.8419464  25.3817478  97.6728621  54.2235909
  24.5046945  97.5517422  53.8598156  25.8575231  96.8814700  53.9714798
  35.2490471 106.1281689  70.9934365  34.3617250 105.7907611  71.1160764
  35.8189022 105.3964721  71.2303130  16.9019618 102.4605781  64.3177416
  17.5890658 102.1467511  63.7298432  16.7467747 103.3647146  64.0444668
  21.7054341  97.3495978  68.7462440  21.6212529  96.7421647  68.0112850
  20.8837047  97.8404996  68.7471936  28.7791625 110.7883142  67.9595608
  28.7061796 111.5938113  68.4714913  28.3369018 110.9875108  67.1343630
  28.5681404 110.0254912  61.4698430  27.7848926 110.5676592  61.5636654
  29.2674150 110.5428891  61.8692671  31.8778054  95.8349541  64.1132635
  32.3746754  95.0819504  63.7933705  31.1065036  95.8713858  63.5475845
  39.7307812 101.5389907  65.7550927  39.7197688 102.4214622  65.3844860
  38.8625191 101.1861458  65.5605464  31.2390308 110.6869976  70.1153767
  31.9518280 111.3217441  70.0429668  30.7480337 110.7833842  69.2993769
  32.9607835 104.5921228  61.6871059  32.0264114 104.7122691  61.5175763
  33.1384504 103.6893695  61.4231068  28.4613023  97.9766924  63.8404320
  28.0910811  97.4237965  64.5285225  28.9572116  97.3725058  63.2879320
  36.3480387 100.4338548  62.2221093  36.8140839 101.2666539  62.1481395
  36.7987887  99.9683529  62.9266351  26.2902222 108.4364419  70.9359338
  26.9911681 109.0700902  71.0888732  25.8197337 108.7779151  70.1754977
  34.4156618 106.7782369  59.2207245  34.6916462 106.6638964  60.1301119
  33.5461116 106.3799854  59.1819418  34.3197049  92.8019135  66.2611994
  33.4060129  93.0323362  66.4294201  34.7490151  92.8857579  67.1126026
  34.0903508 100.9909027  68.7611888  33.4374958 101.2384934  68.1064341
  34.4683888 100.1773165  68.4274365  31.0510682 111.0268720  62.8640058
  31.2333076 110.2090376  63.3267811  31.8743668 111.2436412  62.4264948
  31.3852847 109.9536905  60.1255107  31.9140614 109.4429360  59.5125269
  31.6481067 109.6379435  60.9900640  30.1391081 101.7328838  75.2477925
  29.4631718 101.6322967  75.9180300  30.9618715 101.5768051  75.7113922
  21.8869940 107.9700774  67.8690440  22.4723377 107.2244462  68.0018345
  21.6894778 108.2804731  68.7527104  24.7408595 111.0052022  62.8852883
  24.0718970 111.4898149  62.4016923  24.6021465 111.2521242  63.7996261
  16.4787595 100.5406375  66.5894884  16.5171694 100.0069965  67.3832002
  15.9727887 100.0141580  65.9705861  28.8813864 113.0395765  69.4835541
  29.4332172 113.2027387  70.2484626  29.2220057 113.6300203  68.8115566
  23.8578357  95.3870915  70.0857426  23.9219683  96.2485746  69.6734824
  23.7945477  94.7744917  69.3529784  23.3330629  97.4594048  73.7330460
  23.9602668  97.0771125  74.3467984  22.4758548  97.2408249  74.0986153
  33.7324738 107.8657023  75.3384196  34.2764642 108.4786981  74.8439150
  33.1511583 108.4236601  75.8551209  20.1096172  99.2670477  59.6648815
  20.4049613  98.3581155  59.6115869  19.2084208  99.2458216  59.3429817
  32.0182251 110.9877741  66.4699223  31.8933390 110.1867481  65.9610169
  32.6761342 111.4823934  65.9813193  23.6390419  97.3426473  65.6476364
  22.9177005  97.9562441  65.5083837  24.4283675  97.8784238  65.5693010
  34.0817159 108.7886761  68.0978773  33.1347495 108.6692112  68.0257100
  34.4299932 107.9009259  68.1805035  26.4416733  94.6780900  71.9217015
  26.9651135  94.9243196  72.6843325  26.2229066  95.5100935  71.5020153
  21.8384014  96.9484574  59.7888140  21.5096720  96.0681953  59.6063246
  22.1923384  96.8932243  60.6764529  31.0863593 108.5839477  64.2983126
  30.9388555 107.6556184  64.4790696  31.9117086 108.6059568  63.8140201
  24.9525837  97.2357544  60.1563618  25.2921909  97.7643465  59.4342226
  25.3997957  97.5737950  60.9322184  34.6897714 109.4068036  65.3847998
  35.6144262 109.2010897  65.2472450  34.5213018 109.1584437  66.2937340
  27.6469278  95.6194595  69.6066686  27.3066098  94.8202408  70.0087366
  26.9408284  95.9196306  69.0343519  28.2985750  92.7043907  68.0594009
  29.1211819  92.2304385  67.9372899  28.5423813  93.4834391  68.5592695
  26.9393984  95.7332166  58.3556911  27.6602347  96.1113418  57.8520627
  26.3159288  96.4521043  58.4591889  31.0825107  96.4377315  59.2915243
  31.2988721  97.3201953  58.9904071  30.6019174  96.0463528  58.5620885
  25.8224328  99.3963028  65.8685987  25.6768909  99.7103331  66.7610269
  25.3449532 100.0147928  65.3156886  27.6820711  96.3865576  65.9166877
  27.6682280  95.4906669  65.5799175  28.3993139  96.3936240  66.5505163
  29.5346842  96.8202916  67.9620004  29.2764620  97.7419987  67.9604335
  29.0031882  96.4233351  68.6520469  34.4793031 109.9253703  60.7410090
  34.6529908 109.3600126  59.9883942  34.9721922 110.7254598  60.5589580
  20.2969990 101.9368372  68.8073649  19.7523459 102.7128180  68.9393923
  21.1749340 102.2839177  68.6492770  27.0857607  95.2679956  61.1854447
  27.2073518  94.3396602  61.3845335  26.7959650  95.2818642  60.2732763
  29.9548798  92.9534867  64.3221167  29.9770494  93.0174200  63.3673147
  30.3716857  92.1139375  64.5161673  40.3332422 102.6890126  62.3600390
  40.7763568 101.9397451  61.9619513  39.4558932 102.6800263  61.9774122
  35.4668203 109.2420468  57.8406988  36.1619108 109.8627160  58.0594303
  35.8091353 108.3915819  58.1159366  21.0836012 101.0638269  71.7003806
  20.3417748 101.2120904  72.2868436  20.7628757 101.3246534  70.8370555
  37.3659626 106.6920173  59.3694319  37.8910950 107.0307446  58.6443639
  37.2781979 105.7567188  59.1857454  29.0279675 110.6054247  71.4984196
  29.3366801 110.3603394  72.3706895  29.8255157 110.8100885  71.0103066
  29.0500287 112.7592156  63.7289572  28.6105277 112.2668535  64.4222429
  29.8008404 112.2165124  63.4881647  21.5292626 108.9503697  63.7314200
  22.3550646 108.6507469  63.3512844  21.1786678 108.1811320  64.1803989
  26.4974159 108.3030166  65.8011874  25.8754168 107.6400871  65.5014102
  27.1679026 108.3291297  65.1185522  19.7301231 106.8690024  64.6903134
  18.8933139 106.4412198  64.5087135  19.7024877 107.0622467  65.6273925
  26.5698687  96.7811954  75.3944380  26.6186842  97.6574076  75.0122149
  27.1121201  96.2389347  74.8216023  37.0553532 107.3253077  74.6745517
  36.2649076 107.3077216  74.1350016  36.8186887 107.8641370  75.4294553
  37.1751407 104.1745543  71.9878245  37.2249412 104.0095551  72.9293768
  37.0665331 103.3072802  71.5976126  26.0587666 106.8534089  59.2770334
  26.2075786 107.5369553  58.6237007  26.8654110 106.8339179  59.7919790
  34.4655170 100.1576471  73.3037552  35.3665033 100.0182936  73.0121550
  34.5403144 100.3230926  74.2435730  28.7997975  97.5343326  72.1490738
  27.9301285  97.8276892  71.8773327  29.0357456  98.1183771  72.8698002
  38.6769604 106.5942485  72.2320267  38.3854413 106.9572465  73.0683728
  38.0641736 105.8809493  72.0533599  39.8765287 104.1595364  64.7522837
  40.7112178 104.5985169  64.9160398  40.0124415 103.6834018  63.9331083
  36.9256792 101.7175099  70.7000325  37.4010914 101.9102746  69.8919176
  36.0022358 101.7734285  70.4543709  23.8140299 102.8799266  60.2831403
  23.5686341 101.9761596  60.4811613  23.9836214 102.8816417  59.3410881
  31.5037009  93.7522943  69.6656159  32.0218953  94.4883970  69.3402647
  31.1492142  94.0586936  70.5002918  23.0835947  98.6127624  57.7817565
  22.3905192  98.6871979  57.1257601  22.8387699  97.8487968  58.3039082
  31.7549603  90.1723225  65.1857055  32.0351357  89.5046414  65.8117482
  32.5400210  90.3652321  64.6731719  29.5583072 109.3482219  56.7482082
  28.9857039 109.9672406  56.2952554  30.1315865 109.8981581  57.2822004
  35.6258461  98.5940859  68.9328631  36.5775884  98.6938957  68.9540855
  35.4561912  97.8019128  69.4426715  33.6472841  95.6796443  69.1188031
  33.0522773  95.9601455  68.4234520  33.3622538  96.1690344  69.8904773
  32.7780331 109.6319369  57.8790664  33.7111005 109.5664931  58.0823540
  32.6903544 110.4675636  57.4205197  35.4068348 108.9485240  54.8394612
  35.3281980 108.6145103  55.7330369  36.2278015 109.4407008  54.8386084
  38.1046539 101.8146979  68.0470930  38.0722859 100.8762980  68.2330614
  38.7147163 101.8931016  67.3136755  29.9429870 100.6843032  54.0898134
  30.8888975 100.5549240  54.1586552  29.5644115  99.9457694  54.5667562
  38.2541028  98.6058023  68.0929213  37.7380076  97.8216479  67.9059142
  39.1380976  98.2776739  68.2575733  35.9151755  92.3499038  64.0525026
  35.7176576  92.0414126  64.9368358  36.5251460  93.0760677  64.1822956
  43.9223089 102.8762986  67.1876967  44.6526478 102.6148274  67.7484670
  43.3130035 102.1391708  67.2279035  42.0038386 101.0170849  67.7851418
  41.2771550 100.8826813  67.1767910  41.5885673 101.3247677  68.5908136
  29.8268563 104.7360778  75.5498791  30.7471572 104.9139377  75.7438838
  29.7918146 103.7916824  75.3978490  28.1272787  98.6093008  54.0253019
  27.2204243  98.3126121  54.1015733  28.4048768  98.3122827  53.1587306
  19.0450728  99.9299372  64.4752066  18.7253512  99.0764680  64.1826440
  18.4984156 100.1447950  65.2310033  22.8230635 102.6461813  68.1921572
  23.0416645 103.5778921  68.2109606  23.2356409 102.2869787  68.9776376
  29.7434853  93.1529898  60.1797261  28.9335581  92.8076983  60.5552507
  30.4319270  92.8437442  60.7684872  31.6725401  92.2307945  61.8021557
  32.2256440  92.6503398  62.4611580  31.9095488  91.3043693  61.8444513
  27.6958501  98.2195019  77.5824321  27.5955227  99.1689376  77.5136412
  27.4780043  97.8913258  76.7100391  26.8971572  95.4679944  54.1664999
  27.7590736  95.7934842  54.4260816  27.0821916  94.6811440  53.6538064
  18.9138988 103.5502283  66.4445187  18.2202459 103.1356236  65.9315142
  19.6611979 103.5922820  65.8478606  35.0504208  94.3408470  61.3100222
  34.4702877  94.9993274  60.9278274  34.7840141  93.5185815  60.8987639
  33.5007775  93.7413528  63.5121542  34.0007553  93.8530062  62.7035861
  34.1443383  93.4374581  64.1522350  27.5589771 101.6492157  76.3989383
  27.0756852 102.4492518  76.6053272  27.6450710 101.6600102  75.4456827
  20.8275730 103.4820537  64.3211202  20.8046418 103.5808224  63.3693085
  21.1376367 104.3285688  64.6428368  23.4863108 105.5396692  68.4357817
  24.4406362 105.5080634  68.3687748  23.2875632 105.0787316  69.2508043
  24.0762490 104.1097808  71.0028614  24.8955379 104.6041887  71.0263452
  24.3499298 103.1929776  70.9746182  33.8329086  96.5008561  60.3656570
  32.9454941  96.7858211  60.1476765  34.2483075  96.3402324  59.5183847
  37.1843623  96.5255081  64.0810909  37.9604013  97.0151534  64.3535526
  36.4591757  96.9513136  64.5382779  39.6216181  97.2382701  65.1384850
  40.2160672  96.9978437  64.4278158  39.6942765  96.5189831  65.7658386
  21.8413337 111.0816312  65.4528015  21.7067805 110.3216713  64.8866013
  21.4245399 111.8057212  64.9856803  32.9772300 106.2653235  54.4604590
  33.6808150 106.4703238  55.0762245  32.2534949 106.8329997  54.7253673
  33.8070110 102.0163096  60.5806860  33.7505312 102.4731648  59.7414492
  34.3598453 101.2553781  60.4029703  37.6174916  97.8052828  61.4056980
  37.3611850  97.4049464  62.2365187  36.9927784  98.5196622  61.2807119
  41.9287254 100.5448902  63.9128271  41.3686812 100.6142091  64.6859833
  41.3230757 100.3689886  63.1927767  24.9982463 111.9785629  65.6646457
  24.8814847 112.9231061  65.5625148  24.1774909 111.6759190  66.0532256
  34.8858997 106.7035764  56.5103050  35.7204601 106.2716963  56.3280525
  34.7243340 106.5317778  57.4379944  34.5404889 103.2067878  57.8759389
  34.4853693 103.0412149  56.9347833  33.9150945 103.9143911  58.0321579
  19.3297404  98.4435942  71.7020811  19.9756268  97.9334896  72.1908037
  19.1214556  99.1804624  72.2764237  31.8550797 105.5116790  77.2012952
  32.7241956 105.6857442  76.8399587  31.3757548 106.3311206  77.0788681
  27.8501015  92.7075987  57.4544708  27.8379685  93.6517827  57.6112979
  28.7424437  92.5246132  57.1604169  26.0236977 112.6313891  68.8802386
  26.9264224 112.6637501  69.1968881  25.7974347 111.7014342  68.8948721
  27.7790579 111.3844877  65.5412464  26.8286210 111.3846739  65.4276837
  28.0823065 110.6377612  65.0248499  31.6653134  89.3018763  61.7090644
  30.8985530  88.7477250  61.8547327  32.0763839  89.3740632  62.5704796
  23.6694895  95.5903559  75.7995826  24.5326357  95.2340364  76.0099150
  23.0960306  95.2517454  76.4871230  43.5143272 117.2205415  66.6058227
  44.1521682 117.1012163  65.9021567  43.3964115 118.1686259  66.6646179
  40.3232979 117.1732844  66.5419751  39.9851490 117.0573908  65.6540286
  41.1922747 116.7724009  66.5220758  36.1819794 119.0268320  62.5316642
  35.6184659 118.9358257  61.7632930  36.0672189 118.2068224  63.0119135
  40.8052762 118.3267695  72.5005957  40.7941402 117.9320494  71.6286461
  40.9673401 117.5933768  73.0939728  33.7284226 120.5219512  65.3700863
  34.5205518 120.1810336  64.9547162  33.9680876 120.6314487  66.2903016
  41.7619353 122.6939288  57.8431107  41.1107333 123.2793368  57.4565121
  42.5563716 123.2245483  57.9026145  35.6874980 119.7828425  58.2418242
  36.4605856 119.2357412  58.1031117  36.0400379 120.6472674  58.4532703
  37.5260023 121.1104807  71.4485141  37.2349889 122.0150438  71.3331807
  38.1617007 121.1521335  72.1629210  38.4516230 118.4881656  68.0386501
  39.0479802 118.2637678  67.3243463  38.5091201 117.7466401  68.6411948
  38.0241258 115.9421091  55.8736691  38.2766779 115.4202612  55.1120155
  37.0865817 115.7787236  55.9763375  43.0684541 114.9456869  63.6811435
  43.8547630 114.5276293  63.3301852  43.3323245 115.8502962  63.8493083
  43.2394618 120.3829720  58.3800092  42.6040451 120.4564346  59.0920996
  42.9092025 120.9723318  57.7019171  48.4692968 114.8832103  64.5844413
  49.2018140 114.3131319  64.8182243  47.7132324 114.4953703  65.0250919
  37.7437547 117.8449197  58.0761066  37.6273805 117.1694100  58.7442151
  37.8539807 117.3581571  57.2593220  40.0869088 117.3059344  61.7807756
  39.7227295 116.7789965  62.4920677  40.9436204 116.9157813  61.6074241
  45.9918388 108.5953677  69.0439022  45.6601713 109.4649088  68.8200237
  45.3964002 108.2789961  69.7233052  39.7274575 112.3349244  56.7769104
  39.8948977 113.2029480  57.1439575  39.5371744 112.4976525  55.8530393
  42.4849908 120.7966223  68.4434935  42.1850631 121.6991261  68.3350742
  42.1400967 120.5298406  69.2956087  35.9362389 117.2480019  64.4771639
  35.0112886 117.1156234  64.6849331  36.1846803 118.0274239  64.9741581
  45.8847052 113.3148763  66.1232372  44.9763929 113.2464171  65.8291133
  45.8334647 113.7920708  66.9514197  39.7063796 114.7906901  57.7615771
  39.5863421 115.2363952  58.6001251  39.0116384 115.1392219  57.2029309
  33.2971200 116.8913293  65.3115428  33.4263582 117.1447772  66.2254840
  32.6168652 117.4841001  64.9920083  37.4670688 127.5610543  61.4105902
  37.3894717 128.5118368  61.4894383  36.8632331 127.2156415  62.0680829
  39.9587917 114.7338408  74.0667269  39.1821252 115.2932329  74.0570134
  40.5978480 115.2195191  74.5882139  47.7508698 111.5165201  67.9010246
  47.1083078 111.8097734  67.2550040  47.2463627 111.4018122  68.7063442
  45.4048862 115.2628374  58.5896105  46.3166718 115.4955761  58.4143803
  44.8958509 115.8465419  58.0271184  38.2134290 117.5423862  73.6285236
  38.9548974 118.0808906  73.3520060  37.5071275 118.1690151  73.7856788
  43.6889629 119.6853002  72.2257398  44.0972985 119.2435413  71.4812030
  42.9666891 119.1105630  72.4791591  40.0420699 114.6225609  69.5990955
  40.8881895 115.0465023  69.7425604  39.9819337 113.9659233  70.2929518
  44.0118444 120.2454193  65.9809687  43.3827306 120.4099907  65.2785754
  43.6244106 120.6595802  66.7520651  47.8907676 121.1808631  63.3354050
  47.2058714 121.5607532  62.7851084  47.9751525 121.7903957  64.0685998
  43.1920145 112.2829977  71.2572128  42.9481077 113.0372038  70.7206404
  43.4680075 112.6615325  72.0919375  45.1458608 118.8268590  69.9349394
  45.3575503 119.4700350  69.2583775  45.0988356 117.9930906  69.4671324
  42.7484836 111.4386410  66.8385966  41.8869316 111.7367664  67.1302704
  42.7747271 111.6556809  65.9066999  39.5646406 119.9828601  63.2459772
  40.0284751 120.2616304  62.4564394  39.3003204 119.0812046  63.0632862
  36.4570487 119.5300082  66.1839535  37.0271844 119.9587351  65.5457019
  37.0478599 119.2482667  66.8823721  38.5015292 116.1051753  60.0549337
  39.2039335 116.5572797  60.5223263  38.1695920 115.4635572  60.6829230
  36.9495653 114.6963510  74.4300546  36.3194314 115.3779791  74.6635943
  36.8431741 114.5846592  73.4853684  32.2440626 114.3635306  65.3566470
  31.4539680 114.6192835  64.8806581  32.7351873 115.1783644  65.4618511
  46.2604435 121.7040545  68.1071751  47.0821879 121.3020732  67.8254433
  46.2566838 121.6008779  69.0587867  34.1955371 114.7279885  62.3149947
  33.3986535 114.8398579  62.8333443  33.9680964 115.0666537  61.4490838
  40.0261039 121.2524588  70.2632462  40.0905471 121.7144996  71.0990634
  39.3171963 120.6221953  70.3914772  30.5278329 114.6165796  67.7881461
  30.7786367 115.5012806  68.0539037  31.0637877 114.4370398  67.0156553
  54.3510429 118.0479294  64.4556723  53.5974137 117.4786692  64.3000727
  54.4857970 118.0141958  65.4027357  39.7409057 122.9192696  60.1311442
  39.6054731 123.7644232  60.5596290  40.2818869 123.1211974  59.3677376
  36.2276396 108.9984276  76.7925797  35.8343342 108.4450474  77.4673441
  37.0442537 109.3094854  77.1832315  33.1938454 120.4368134  60.7039367
  33.7062975 121.2311384  60.8544932  33.8461167 119.7394424  60.6372969
  35.0033339 123.5533890  62.7862120  35.1799967 124.4751855  62.5983104
  35.7990172 123.2392309  63.2156500  39.1444357 110.4142155  74.3846054
  39.8854071 111.0149308  74.3050516  39.3762280 109.6719793  73.8264096
  34.2885695 115.5998522  72.6624283  34.1739210 114.6983779  72.9631382
  33.4330213 115.8462219  72.3109100  41.3677533 123.5416262  74.2611784
  40.9241387 122.7552641  73.9432689  42.0294747 123.7295413  73.5955675
  36.1264654 125.0712064  68.7872463  36.6772079 124.9429127  68.0149457
  35.2876130 125.3706953  68.4367355  43.4658771 123.8219062  72.2893185
  43.4477246 124.6427943  71.7973455  44.3878691 123.6973138  72.5143327
  39.9231825 121.3363192  73.1316694  40.4560162 120.5751480  72.9016002
  39.3945906 121.0436844  73.8740848  43.0901520 106.4423258  68.6610335
  42.7465790 107.3324900  68.5849446  43.4580483 106.2524915  67.7979920
  31.1587371 118.7656788  61.4798938  31.9962593 119.1753797  61.2632645
  31.3365638 117.8256230  61.4499132  43.0551803 116.4331869  57.1682771
  42.5398426 117.2036474  57.4071158  42.7829111 115.7597005  57.7915832
  40.6398914 111.2781570  62.2268009  39.7840510 110.8888420  62.0473648
  41.0525866 111.3573531  61.3667794  42.1698061 108.8127913  66.6259569
  41.6662856 108.7758048  65.8127374  42.4628667 109.7220656  66.6856225
  38.4140946 108.8966643  65.6325750  39.2793943 108.7009451  65.2731640
  38.4818455 108.6676994  66.5595107  48.0286077 119.1864224  59.1035944
  47.2515520 118.8475383  58.6591106  48.7077558 119.1916847  58.4290909
  42.8438106 114.3058961  58.9942552  42.5388242 114.6205110  59.8452695
  43.7968548 114.3840381  59.0369885  41.2884538 120.4649184  60.6435506
  40.7605899 119.7301944  60.3308743  40.7872041 121.2423861  60.3975474
  46.2677384 118.6598205  65.7602552  45.6101058 119.3497466  65.8482681
  47.0717783 119.0494637  66.1036538  36.0203266 111.1268851  63.0042117
  36.5947017 110.9044032  62.2715310  36.6074248 111.1957545  63.7570719
  45.0782843 117.0142578  63.8106494  45.5914724 117.6472569  64.3128204
  45.7284067 116.4143773  63.4449854  36.3472853 113.1573312  57.0238003
  35.5110165 113.4947998  57.3447277  36.2077622 113.0222291  56.0865139
  38.3225933 108.0010100  61.7317187  37.6690346 107.6859117  61.1073801
  38.2806407 107.3785840  62.4577010  39.4337138 118.2829395  53.6470479
  38.5264200 118.0518648  53.8461628  39.9308170 117.4867014  53.8344460
  42.3405217 126.9926902  56.5667165  41.6666916 127.2958599  57.1752123
  42.7271039 127.7955982  56.2172622  41.5563674 114.4892033  66.0564834
  40.6386235 114.7106980  65.8986522  41.9723817 114.5638344  65.1976542
  42.3398721 115.8883449  61.1867515  43.0870540 116.4004846  60.8774637
  42.6090311 115.5667501  62.0471908  40.6125372 118.3841989  58.1694469
  39.7036591 118.1001022  58.2666939  40.6420455 118.8041068  57.3097776
  45.8444639 121.9948579  61.9385636  45.3906966 121.1539489  61.9950827
  45.2138606 122.6309977  62.2760417  44.7877558 112.9240565  63.1686304
  44.0500315 112.4117951  63.4996546  45.0404332 112.4840947  62.3569581
  44.2877578 123.8325076  62.8735455  44.5800553 124.3930133  62.1547820
  44.7976199 124.1253637  63.6288614  44.8889186 105.7016817  63.7628073
  45.1948063 104.8414180  63.4753988  45.6141791 106.2934437  63.5627067
  31.1813542 116.1047504  62.1509671  30.9837942 115.5116864  61.4260738
  30.6260206 115.7999714  62.8685610  39.1610266 115.9970610  64.2704264
  39.2158875 115.0444446  64.1946741  38.3501468 116.1530049  64.7545563
  40.3101459 119.9250733  55.5082547  39.8720889 119.2086592  55.0488185
  41.0511900 120.1526848  54.9467639  37.1002625 114.6147670  62.0294643
  36.2870491 114.9141840  62.4359835  37.5961620 114.2203359  62.7469125
  39.2511203 124.6105427  63.9628908  39.2087382 124.8366273  63.0337440
  40.1673902 124.3768801  64.1114709  42.6976837 115.0789494  70.8609537
  43.0526225 115.3060967  71.7204003  43.3448968 115.4107871  70.2386792
  48.4274574 118.2007930  61.5658866  48.2892473 118.3909526  60.6380055
  48.0710793 118.9627313  62.0226917  36.5916700 112.1866025  67.6455878
  37.2316080 112.0454784  66.9478841  35.7594231 111.9000539  67.2694480
  48.4543954 120.2684457  66.5770138  48.8880460 120.1759746  67.4253192
  49.1675534 120.2441958  65.9390154  37.3677004 121.4868456  63.7590870
  38.1617603 120.9918776  63.5573445  36.6568697 120.9586319  63.3958576
  42.1871849 123.8686551  68.1103238  42.2408871 124.4377488  68.8780954
  41.3186630 124.0388436  67.7457275  33.6759768 115.6311538  59.8350623
  32.7457356 115.5695993  60.0520585  33.7717240 115.1087490  59.0387264
  33.5945317 112.1566350  62.4228865  33.8552134 113.0711684  62.3138025
  34.4162489 111.6890793  62.5725478  35.0670242 113.5704108  69.5927689
  35.7393295 113.3621470  68.9440338  34.2400029 113.3726194  69.1532922
  49.3159503 120.3108158  69.1103023  49.5095393 121.2153968  69.3562298
  49.2160121 119.8515577  69.9441608  40.9695814 110.1966048  71.6093350
  40.3223729 110.8955998  71.5157827  41.7396829 110.6302192  71.9769598
  44.3774612 120.4614901  74.6843904  44.2260118 120.2325452  73.7673987
  44.3679291 121.4185502  74.6975249  41.1459948 118.0346813  69.6690170
  42.0752008 118.1857973  69.4959137  40.7250978 118.1230834  68.8138816
  39.9448280 122.0597478  67.4388708  39.8059366 121.6916262  68.3114646
  39.1562876 122.5745117  67.2672665  40.5396432 127.1606574  58.7814244
  40.7148188 126.6894617  59.5959867  39.8529220 127.7872340  59.0095505
  41.4953495 121.4379080  64.8277545  41.1603328 121.3979850  65.7235195
  40.9957441 120.7723796  64.3547956  35.4697739 116.8446710  70.3530127
  35.3317537 116.1126949  70.9541666  36.3802663 116.7555611  70.0714314
  44.4312687 118.7835115  55.1014605  43.8141858 118.0581943  55.0047658
  43.9629175 119.5444475  54.7581679  38.0980040 116.5566670  69.8413806
  38.8079658 115.9159862  69.8000425  38.0549348 116.8079565  70.7639987
  46.0866819 123.4934023  72.7620385  46.0279365 122.8093243  72.0950968
  46.4886337 124.2353013  72.3101011  36.8108974 113.5431888  71.6609446
  36.2746331 113.0922626  72.3131042  36.2225682 113.6777797  70.9179910
  35.1057517 130.3095937  65.5554104  35.3454116 130.9414461  66.2333123
  34.2626714 129.9583977  65.8419464  36.2211233 113.0020539  54.2235909
  35.3440699 112.8809340  53.8598156  36.6968986 112.2106617  53.9714798
  46.0884226 121.4573607  70.9934365  45.2011005 121.1199529  71.1160764
  46.6582777 120.7256638  71.2303130  27.7413373 117.7897699  64.3177416
  28.4284413 117.4759429  63.7298432  27.5861502 118.6939063  64.0444668
  32.5448095 112.6787895  68.7462440  32.4606284 112.0713565  68.0112850
  31.7230802 113.1696914  68.7471936  39.6185379 126.1175059  67.9595608
  39.5455551 126.9230031  68.4714913  39.1762772 126.3167025  67.1343630
  39.4075159 125.3546829  61.4698430  38.6242681 125.8968510  61.5636654
  40.1067904 125.8720809  61.8692671  42.7171809 111.1641459  64.1132635
  43.2140509 110.4111421  63.7933705  41.9458790 111.2005776  63.5475845
  50.5701566 116.8681824  65.7550927  50.5591443 117.7506540  65.3844860
  49.7018946 116.5153375  65.5605464  42.0784063 126.0161893  70.1153767
  42.7912035 126.6509358  70.0429668  41.5874091 126.1125759  69.2993769
  43.8001590 119.9213146  61.6871059  42.8657868 120.0414609  61.5175763
  43.9778258 119.0185613  61.4231068  39.3006778 113.3058842  63.8404320
  38.9304565 112.7529882  64.5285225  39.7965870 112.7016975  63.2879320
  47.1874141 115.7630465  62.2221093  47.6534593 116.5958457  62.1481395
  47.6381642 115.2975447  62.9266351  37.1295976 123.7656337  70.9359338
  37.8305436 124.3992820  71.0888732  36.6591091 124.1071068  70.1754977
  45.2550372 122.1074287  59.2207245  45.5310216 121.9930881  60.1301119
  44.3854871 121.7091772  59.1819418  45.1590804 108.1311052  66.2611994
  44.2453884 108.3615279  66.4294201  45.5883905 108.2149496  67.1126026
  44.9297262 116.3200944  68.7611888  44.2768713 116.5676852  68.1064341
  45.3077642 115.5065083  68.4274365  41.8904436 126.3560638  62.8640058
  42.0726831 125.5382293  63.3267811  42.7137422 126.5728330  62.4264948
  42.2246602 125.2828823  60.1255107  42.7534368 124.7721277  59.5125269
  42.4874821 124.9671353  60.9900640  40.9784835 117.0620755  75.2477925
  40.3025472 116.9614885  75.9180300  41.8012469 116.9059969  75.7113922
  32.7263694 123.2992692  67.8690440  33.3117131 122.5536380  68.0018345
  32.5288533 123.6096649  68.7527104  35.5802350 126.3343939  62.8852883
  34.9112725 126.8190067  62.4016923  35.4415219 126.5813160  63.7996261
  27.3181349 115.8698292  66.5894884  27.3565449 115.3361883  67.3832002
  26.8121642 115.3433498  65.9705861  39.7207618 128.3687683  69.4835541
  40.2725926 128.5319304  70.2484626  40.0613812 128.9592121  68.8115566
  34.6972111 110.7162833  70.0857426  34.7613438 111.5777664  69.6734824
  34.6339232 110.1036834  69.3529784  34.1724384 112.7885965  73.7330460
  34.7996423 112.4063043  74.3467984  33.3152303 112.5700167  74.0986153
  44.5718492 123.1948940  75.3384196  45.1158396 123.8078899  74.8439150
  43.9905337 123.7528519  75.8551209  30.9489927 114.5962394  59.6648815
  31.2443368 113.6873073  59.6115869  30.0477962 114.5750134  59.3429817
  42.8576005 126.3169658  66.4699223  42.7327145 125.5159398  65.9610169
  43.5155097 126.8115852  65.9813193  34.4784174 112.6718391  65.6476364
  33.7570759 113.2854359  65.5083837  35.2677429 113.2076156  65.5693010
  44.9210914 124.1178678  68.0978773  43.9741249 123.9984030  68.0257100
  45.2693687 123.2301177  68.1805035  37.2810487 110.0072817  71.9217015
  37.8044889 110.2535114  72.6843325  37.0622820 110.8392852  71.5020153
  32.6777768 112.2776492  59.7888140  32.3490474 111.3973871  59.6063246
  33.0317139 112.2224161  60.6764529  41.9257347 123.9131395  64.2983126
  41.7782310 122.9848102  64.4790696  42.7510841 123.9351485  63.8140201
  35.7919591 112.5649462  60.1563618  36.1315664 113.0935383  59.4342226
  36.2391712 112.9029868  60.9322184  45.5291469 124.7359953  65.3847998
  46.4538016 124.5302815  65.2472450  45.3606772 124.4876355  66.2937340
  38.4863032 110.9486513  69.6066686  38.1459853 110.1494326  70.0087366
  37.7802039 111.2488223  69.0343519  39.1379504 108.0335825  68.0594009
  39.9605573 107.5596303  67.9372899  39.3817568 108.8126309  68.5592695
  37.7787739 111.0624083  58.3556911  38.4996101 111.4405336  57.8520627
  37.1553043 111.7812960  58.4591889  41.9218861 111.7669232  59.2915243
  42.1382476 112.6493870  58.9904071  41.4412929 111.3755446  58.5620885
  36.6618083 114.7254946  65.8685987  36.5162664 115.0395249  66.7610269
  36.1843286 115.3439846  65.3156886  38.5214466 111.7157494  65.9166877
  38.5076034 110.8198587  65.5799175  39.2386894 111.7228157  66.5505163
  40.3740596 112.1494834  67.9620004  40.1158374 113.0711904  67.9604335
  39.8425637 111.7525268  68.6520469  45.3186785 125.2545621  60.7410090
  45.4923663 124.6892043  59.9883942  45.8115676 126.0546516  60.5589580
  31.1363745 117.2660290  68.8073649  30.5917213 118.0420098  68.9393923
  32.0143095 117.6131094  68.6492770  37.9251362 110.5971874  61.1854447
  38.0467273 109.6688520  61.3845335  37.6353404 110.6110560  60.2732763
  40.7942552 108.2826784  64.3221167  40.8164249 108.3466117  63.3673147
  41.2110611 107.4431293  64.5161673  51.1726176 118.0182044  62.3600390
  51.6157322 117.2689369  61.9619513  50.2952687 118.0092180  61.9774122
  46.3061958 124.5712385  57.8406988  47.0012862 125.1919078  58.0594303
  46.6485108 123.7207737  58.1159366  31.9229767 116.3930186  71.7003806
  31.1811503 116.5412822  72.2868436  31.6022511 116.6538452  70.8370555
  48.2053381 122.0212091  59.3694319  48.7304705 122.3599364  58.6443639
  48.1175733 121.0859106  59.1857454  39.8673429 125.9346164  71.4984196
  40.1760556 125.6895311  72.3706895  40.6648912 126.1392803  71.0103066
  39.8894042 128.0884074  63.7289572  39.4499032 127.5960453  64.4222429
  40.6402158 127.5457042  63.4881647  32.3686381 124.2795615  63.7314200
  33.1944400 123.9799387  63.3512844  32.0180433 123.5103237  64.1803989
  37.3367914 123.6322083  65.8011874  36.7147923 122.9692788  65.5014102
  38.0072781 123.6583215  65.1185522  30.5694986 122.1981941  64.6903134
  29.7326894 121.7704116  64.5087135  30.5418631 122.3914385  65.6273925
  37.4092441 112.1103871  75.3944380  37.4580597 112.9865994  75.0122149
  37.9514955 111.5681264  74.8216023  47.8947287 122.6544994  74.6745517
  47.1042831 122.6369133  74.1350016  47.6580641 123.1933288  75.4294553
  48.0145162 119.5037461  71.9878245  48.0643167 119.3387468  72.9293768
  47.9059085 118.6364720  71.5976126  36.8981421 122.1826007  59.2770334
  37.0469541 122.8661471  58.6237007  37.7047864 122.1631097  59.7919790
  45.3048924 115.4868389  73.3037552  46.2058787 115.3474854  73.0121550
  45.3796899 115.6522844  74.2435730  39.6391730 112.8635244  72.1490738
  38.7695039 113.1568810  71.8773327  39.8751210 113.4475689  72.8698002
  49.5163359 121.9234402  72.2320267  49.2248167 122.2864383  73.0683728
  48.9035490 121.2101411  72.0533599  50.7159041 119.4887282  64.7522837
  51.5505932 119.9277086  64.9160398  50.8518170 119.0125935  63.9331083
  47.7650547 117.0467017  70.7000325  48.2404669 117.2394663  69.8919176
  46.8416112 117.1026203  70.4543709  34.6534054 118.2091184  60.2831403
  34.4080096 117.3053514  60.4811613  34.8229968 118.2108335  59.3410881
  42.3430763 109.0814861  69.6656159  42.8612707 109.8175887  69.3402647
  41.9885896 109.3878854  70.5002918  33.9229701 113.9419542  57.7817565
  33.2298946 114.0163897  57.1257601  33.6781453 113.1779885  58.3039082
  42.5943358 105.5015143  65.1857055  42.8745111 104.8338332  65.8117482
  43.3793965 105.6944239  64.6731719  40.3976826 124.6774137  56.7482082
  39.8250793 125.2964324  56.2952554  40.9709620 125.2273499  57.2822004
  46.4652216 113.9232777  68.9328631  47.4169639 114.0230875  68.9540855
  46.2955666 113.1311046  69.4426715  44.4866595 111.0088360  69.1188031
  43.8916528 111.2893373  68.4234520  44.2016292 111.4982261  69.8904773
  43.6174086 124.9611287  57.8790664  44.5504759 124.8956849  58.0823540
  43.5297299 125.7967554  57.4205197  46.2462103 124.2777157  54.8394612
  46.1675734 123.9437021  55.7330369  47.0671769 124.7698925  54.8386084
  48.9440294 117.1438897  68.0470930  48.9116614 116.2054897  68.2330614
  49.5540917 117.2222933  67.3136755  40.7823625 116.0134950  54.0898134
  41.7282729 115.8841158  54.1586552  40.4037870 115.2749612  54.5667562
  49.0934782 113.9349940  68.0929213  48.5773831 113.1508397  67.9059142
  49.9774731 113.6068657  68.2575733  46.7545509 107.6790956  64.0525026
  46.5570330 107.3706044  64.9368358  47.3645215 108.4052595  64.1822956
  54.7616844 118.2054904  67.1876967  55.4920232 117.9440192  67.7484670
  54.1523789 117.4683626  67.2279035  52.8432141 116.3462766  67.7851418
  52.1165304 116.2118731  67.1767910  52.4279428 116.6539595  68.5908136
  40.6662317 120.0652696  75.5498791  41.5865327 120.2431295  75.7438838
  40.6311900 119.1208741  75.3978490  38.9666542 113.9384926  54.0253019
  38.0597997 113.6418039  54.1015733  39.2442523 113.6414744  53.1587306
  29.8844482 115.2591290  64.4752066  29.5647267 114.4056598  64.1826440
  29.3377910 115.4739868  65.2310033  33.6624390 117.9753731  68.1921572
  33.8810399 118.9070838  68.2109606  34.0750164 117.6161705  68.9776376
  40.5828608 108.4821816  60.1797261  39.7729336 108.1368901  60.5552507
  41.2713024 108.1729360  60.7684872  42.5119156 107.5599863  61.8021557
  43.0650194 107.9795316  62.4611580  42.7489242 106.6335611  61.8444513
  38.5352255 113.5486936  77.5824321  38.4348982 114.4981293  77.5136412
  38.3173797 113.2205175  76.7100391  37.7365326 110.7971861  54.1664999
  38.5984490 111.1226760  54.4260816  37.9215671 110.0103357  53.6538064
  29.7532742 118.8794201  66.4445187  29.0596214 118.4648154  65.9315142
  30.5005733 118.9214738  65.8478606  45.8897963 109.6700388  61.3100222
  45.3096632 110.3285192  60.9278274  45.6233896 108.8477732  60.8987639
  44.3401529 109.0705446  63.5121542  44.8401308 109.1821980  62.7035861
  44.9837137 108.7666498  64.1522350  38.3983525 116.9784075  76.3989383
  37.9150607 117.7784435  76.6053272  38.4844464 116.9892020  75.4456827
  31.6669485 118.8112455  64.3211202  31.6440173 118.9100142  63.3693085
  31.9770121 119.6577606  64.6428368  34.3256863 120.8688610  68.4357817
  35.2800116 120.8372552  68.3687748  34.1269386 120.4079234  69.2508043
  34.9156245 119.4389726  71.0028614  35.7349134 119.9333805  71.0263452
  35.1893052 118.5221694  70.9746182  44.6722841 111.8300478  60.3656570
  43.7848696 112.1150129  60.1476765  45.0876830 111.6694242  59.5183847
  48.0237377 111.8546999  64.0810909  48.7997767 112.3443452  64.3535526
  47.2985511 112.2805053  64.5382779  50.4609936 112.5674618  65.1384850
  51.0554426 112.3270354  64.4278158  50.5336519 111.8481749  65.7658386
  32.6807091 126.4108229  65.4528015  32.5461559 125.6508630  64.8866013
  32.2639154 127.1349129  64.9856803  43.8166054 121.5945153  54.4604590
  44.5201904 121.7995155  55.0762245  43.0928703 122.1621915  54.7253673
  44.6463865 117.3455014  60.5806860  44.5899066 117.8023566  59.7414492
  45.1992207 116.5845699  60.4029703  48.4568671 113.1344746  61.4056980
  48.2005605 112.7341382  62.2365187  47.8321539 113.8488540  61.2807119
  52.7681008 115.8740819  63.9128271  52.2080566 115.9434009  64.6859833
  52.1624512 115.6981804  63.1927767  35.8376217 127.3077546  65.6646457
  35.7208601 128.2522979  65.5625148  35.0168664 127.0051108  66.0532256
  45.7252752 122.0327682  56.5103050  46.5598356 121.6008881  56.3280525
  45.5637095 121.8609696  57.4379944  45.3798644 118.5359795  57.8759389
  45.3247448 118.3704067  56.9347833  44.7544699 119.2435828  58.0321579
  30.1691159 113.7727860  71.7020811  30.8150023 113.2626814  72.1908037
  29.9608310 114.5096541  72.2764237  42.6944551 120.8408707  77.2012952
  43.5635711 121.0149360  76.8399587  42.2151303 121.6603124  77.0788681
  38.6894769 108.0367904  57.4544708  38.6773439 108.9809744  57.6112979
  39.5818191 107.8538050  57.1604169  36.8630731 127.9605808  68.8802386
  37.7657978 127.9929419  69.1968881  36.6368101 127.0306259  68.8948721
  38.6184333 126.7136795  65.5412464  37.6679964 126.7138656  65.4276837
  38.9216820 125.9669529  65.0248499  42.5046889 104.6310681  61.7090644
  41.7379285 104.0769168  61.8547327  42.9157594 104.7032550  62.5704796
  34.5088650 110.9195477  75.7995826  35.3720111 110.5632282  76.0099150
  33.9354061 110.5809372  76.4871230  54.3537027 132.5497333  66.6058227
  54.9915437 132.4304081  65.9021567  54.2357870 133.4978177  66.6646179
  51.1626733 132.5024761  66.5419751  50.8245245 132.3865826  65.6540286
  52.0316501 132.1015926  66.5220758  47.0213549 134.3560238  62.5316642
  46.4578414 134.2650175  61.7632930  46.9065944 133.5360142  63.0119135
  51.6446516 133.6559613  72.5005957  51.6335157 133.2612411  71.6286461
  51.8067156 132.9225686  73.0939728  44.5677981 135.8511429  65.3700863
  45.3599273 135.5102254  64.9547162  44.8074631 135.9606404  66.2903016
  52.6013108 138.0231205  57.8431107  51.9501087 138.6085286  57.4565121
  53.3957470 138.5537400  57.9026145  46.5268735 135.1120343  58.2418242
  47.2999611 134.5649330  58.1031117  46.8794134 135.9764592  58.4532703
  48.3653777 136.4396725  71.4485141  48.0743643 137.3442356  71.3331807
  49.0010762 136.4813252  72.1629210  49.2909984 133.8173573  68.0386501
  49.8873556 133.5929596  67.3243463  49.3484956 133.0758319  68.6411948
  48.8635013 131.2713009  55.8736691  49.1160533 130.7494530  55.1120155
  47.9259572 131.1079154  55.9763375  53.9078295 130.2748787  63.6811435
  54.6941385 129.8568210  63.3301852  54.1717000 131.1794879  63.8493083
  54.0788373 135.7121637  58.3800092  53.4434206 135.7856264  59.0920996
  53.7485779 136.3015236  57.7019171  59.3086722 130.2124020  64.5844413
  60.0411894 129.6423237  64.8182243  58.5526078 129.8245621  65.0250919
  48.5831301 133.1741115  58.0761066  48.4667559 132.4986018  58.7442151
  48.6933561 132.6873489  57.2593220  50.9262842 132.6351262  61.7807756
  50.5621049 132.1081883  62.4920677  51.7829958 132.2449731  61.6074241
  56.8312143 123.9245594  69.0439022  56.4995468 124.7941005  68.8200237
  56.2357756 123.6081878  69.7233052  50.5668329 127.6641161  56.7769104
  50.7342732 128.5321398  57.1439575  50.3765498 127.8268443  55.8530393
  53.3243662 136.1258140  68.4434935  53.0244385 137.0283179  68.3350742
  52.9794722 135.8590324  69.2956087  46.7756144 132.5771937  64.4771639
  45.8506640 132.4448151  64.6849331  47.0240557 133.3566156  64.9741581
  56.7240806 128.6440681  66.1232372  55.8157683 128.5756089  65.8291133
  56.6728402 129.1212625  66.9514197  50.5457550 130.1198819  57.7615771
  50.4257175 130.5655870  58.6001251  49.8510138 130.4684137  57.2029309
  44.1364955 132.2205211  65.3115428  44.2657336 132.4739690  66.2254840
  43.4562406 132.8132919  64.9920083  48.3064442 142.8902461  61.4105902
  48.2288472 143.8410286  61.4894383  47.7026086 142.5448333  62.0680829
  50.7981672 130.0630326  74.0667269  50.0215006 130.6224246  74.0570134
  51.4372235 130.5487109  74.5882139  58.5902453 126.8457119  67.9010246
  57.9476833 127.1389652  67.2550040  58.0857381 126.7310039  68.7063442
  56.2442616 130.5920292  58.5896105  57.1560472 130.8247679  58.4143803
  55.7352263 131.1757336  58.0271184  49.0528044 132.8715779  73.6285236
  49.7942729 133.4100823  73.3520060  48.3465030 133.4982068  73.7856788
  54.5283384 135.0144920  72.2257398  54.9366740 134.5727330  71.4812030
  53.8060645 134.4397547  72.4791591  50.8814454 129.9517527  69.5990955
  51.7275649 130.3756940  69.7425604  50.8213092 129.2951151  70.2929518
  54.8512199 135.5746111  65.9809687  54.2221061 135.7391825  65.2785754
  54.4637861 135.9887720  66.7520651  58.7301430 136.5100548  63.3354050
  58.0452469 136.8899450  62.7851084  58.8145280 137.1195875  64.0685998
  54.0313899 127.6121895  71.2572128  53.7874831 128.3663956  70.7206404
  54.3073830 127.9907243  72.0919375  55.9852362 134.1560507  69.9349394
  56.1969257 134.7992267  69.2583775  55.9382110 133.3222824  69.4671324
  53.5878591 126.7678328  66.8385966  52.7263070 127.0659582  67.1302704
  53.6141026 126.9848727  65.9066999  50.4040160 135.3120519  63.2459772
  50.8678506 135.5908222  62.4564394  50.1396959 134.4103963  63.0632862
  47.2964241 134.8592000  66.1839535  47.8665599 135.2879269  65.5457019
  47.8872353 134.5774585  66.8823721  49.3409046 131.4343671  60.0549337
  50.0433090 131.8864715  60.5223263  49.0089675 130.7927490  60.6829230
  47.7889408 130.0255428  74.4300546  47.1588069 130.7071708  74.6635943
  47.6825496 129.9138509  73.4853684  43.0834380 129.6927224  65.3566470
  42.2933434 129.9484752  64.8806581  43.5745628 130.5075562  65.4618511
  57.0998190 137.0332463  68.1071751  57.9215634 136.6312650  67.8254433
  57.0960593 136.9300697  69.0587867  45.0349126 130.0571803  62.3149947
  44.2380289 130.1690497  62.8333443  44.8074718 130.3958455  61.4490838
  50.8654793 136.5816506  70.2632462  50.9299226 137.0436913  71.0990634
  50.1565717 135.9513871  70.3914772  41.3672083 129.9457714  67.7881461
  41.6180122 130.8304724  68.0539037  41.9031632 129.7662316  67.0156553
  65.1904183 133.3771211  64.4556723  64.4367891 132.8078609  64.3000727
  65.3251724 133.3433876  65.4027357  50.5802811 138.2484614  60.1311442
  50.4448486 139.0936149  60.5596290  51.1212624 138.4503891  59.3677376
  47.0670151 124.3276193  76.7925797  46.6737096 123.7742392  77.4673441
  47.8836291 124.6386772  77.1832315  44.0332208 135.7660052  60.7039367
  44.5456729 136.5603302  60.8544932  44.6854921 135.0686342  60.6372969
  45.8427093 138.8825808  62.7862120  46.0193722 139.8043773  62.5983104
  46.6383927 138.5684227  63.2156500  49.9838112 125.7434073  74.3846054
  50.7247825 126.3441226  74.3050516  50.2156035 125.0011710  73.8264096
  45.1279450 130.9290440  72.6624283  45.0132965 130.0275697  72.9631382
  44.2723967 131.1754137  72.3109100  52.2071287 138.8708180  74.2611784
  51.7635142 138.0844559  73.9432689  52.8688501 139.0587331  73.5955675
  46.9658409 140.4003982  68.7872463  47.5165834 140.2721045  68.0149457
  46.1269885 140.6998871  68.4367355  54.3052526 139.1510980  72.2893185
  54.2871001 139.9719861  71.7973455  55.2272446 139.0265055  72.5143327
  50.7625580 136.6655110  73.1316694  51.2953916 135.9043398  72.9016002
  50.2339661 136.3728761  73.8740848  53.9295275 121.7715176  68.6610335
  53.5859544 122.6616817  68.5849446  54.2974237 121.5816833  67.7979920
  41.9981125 134.0948706  61.4798938  42.8356347 134.5045714  61.2632645
  42.1759393 133.1548148  61.4499132  53.8945557 131.7623787  57.1682771
  53.3792181 132.5328391  57.4071158  53.6222866 131.0888923  57.7915832
  51.4792668 126.6073487  62.2268009  50.6234265 126.2180338  62.0473648
  51.8919620 126.6865448  61.3667794  53.0091815 124.1419831  66.6259569
  52.5056611 124.1049966  65.8127374  53.3022422 125.0512573  66.6856225
  49.2534701 124.2258560  65.6325750  50.1187698 124.0301369  65.2731640
  49.3212210 123.9968912  66.5595107  58.8679831 134.5156141  59.1035944
  58.0909274 134.1767301  58.6591106  59.5471312 134.5208764  58.4290909
  53.6831861 129.6350879  58.9942552  53.3781996 129.9497028  59.8452695
  54.6362303 129.7132299  59.0369885  52.1278292 135.7941102  60.6435506
  51.5999654 135.0593862  60.3308743  51.6265795 136.5715778  60.3975474
  57.1071138 133.9890123  65.7602552  56.4494813 134.6789384  65.8482681
  57.9111538 134.3786554  66.1036538  46.8597020 126.4560768  63.0042117
  47.4340772 126.2335950  62.2715310  47.4468002 126.5249463  63.7570719
  55.9176597 132.3434495  63.8106494  56.4308479 132.9764487  64.3128204
  56.5677821 131.7435691  63.4449854  47.1866607 128.4865229  57.0238003
  46.3503919 128.8239916  57.3447277  47.0471377 128.3514209  56.0865139
  49.1619688 123.3302017  61.7317187  48.5084100 123.0151034  61.1073801
  49.1200162 122.7077758  62.4577010  50.2730893 133.6121312  53.6470479
  49.3657954 133.3810566  53.8461628  50.7701925 132.8158932  53.8344460
  53.1798971 142.3218819  56.5667165  52.5060670 142.6250516  57.1752123
  53.5664793 143.1247900  56.2172622  52.3957428 129.8183951  66.0564834
  51.4779989 130.0398898  65.8986522  52.8117572 129.8930261  65.1976542
  53.1792476 131.2175366  61.1867515  53.9264295 131.7296764  60.8774637
  53.4484065 130.8959419  62.0471908  51.4519126 133.7133907  58.1694469
  50.5430345 133.4292940  58.2666939  51.4814210 134.1332986  57.3097776
  56.6838393 137.3240497  61.9385636  56.2300721 136.4831407  61.9950827
  56.0532360 137.9601895  62.2760417  55.6271313 128.2532483  63.1686304
  54.8894070 127.7409869  63.4996546  55.8798087 127.8132864  62.3569581
  55.1271333 139.1616993  62.8735455  55.4194307 139.7222050  62.1547820
  55.6369953 139.4545554  63.6288614  55.7282940 121.0308735  63.7628073
  56.0341817 120.1706098  63.4753988  56.4535545 121.6226355  63.5627067
  42.0207296 131.4339421  62.1509671  41.8231696 130.8408782  61.4260738
  41.4653960 131.1291631  62.8685610  50.0004020 131.3262528  64.2704264
  50.0552630 130.3736364  64.1946741  49.1895222 131.4821967  64.7545563
  51.1495214 135.2542651  55.5082547  50.7114644 134.5378510  55.0488185
  51.8905655 135.4818766  54.9467639  47.9396380 129.9439587  62.0294643
  47.1264245 130.2433758  62.4359835  48.4355374 129.5495276  62.7469125
  50.0904958 139.9397344  63.9628908  50.0481137 140.1658191  63.0337440
  51.0067657 139.7060719  64.1114709  53.5370592 130.4081412  70.8609537
  53.8919979 130.6352885  71.7204003  54.1842723 130.7399789  70.2386792
  59.2668329 133.5299848  61.5658866  59.1286227 133.7201444  60.6380055
  58.9104547 134.2919231  62.0226917  47.4310455 127.5157943  67.6455878
  48.0709834 127.3746702  66.9478841  46.5987985 127.2292456  67.2694480
  59.2937708 135.5976375  66.5770138  59.7274215 135.5051664  67.4253192
  60.0069289 135.5733875  65.9390154  48.2070759 136.8160373  63.7590870
  49.0011357 136.3210694  63.5573445  47.4962451 136.2878237  63.3958576
  53.0265603 139.1978469  68.1103238  53.0802625 139.7669405  68.8780954
  52.1580384 139.3680354  67.7457275  44.5153522 130.9603455  59.8350623
  43.5851110 130.8987911  60.0520585  44.6110994 130.4379408  59.0387264
  44.4339071 127.4858268  62.4228865  44.6945888 128.4003601  62.3138025
  45.2556243 127.0182711  62.5725478  45.9063996 128.8996025  69.5927689
  46.5787050 128.6913387  68.9440338  45.0793783 128.7018111  69.1532922
  60.1553258 135.6400076  69.1103023  60.3489148 136.5445886  69.3562298
  60.0553876 135.1807495  69.9441608  51.8089568 125.5257966  71.6093350
  51.1617484 126.2247916  71.5157827  52.5790584 125.9594110  71.9769598
  55.2168366 135.7906818  74.6843904  55.0653873 135.5617370  73.7673987
  55.2073046 136.7477420  74.6975249  51.9853703 133.3638731  69.6690170
  52.9145763 133.5149891  69.4959137  51.5644733 133.4522752  68.8138816
  50.7842035 137.3889395  67.4388708  50.6453120 137.0208180  68.3114646
  49.9956631 137.9037035  67.2672665  51.3790187 142.4898492  58.7814244
  51.5541942 142.0186535  59.5959867  50.6922975 143.1164258  59.0095505
  52.3347250 136.7670998  64.8277545  51.9997082 136.7271768  65.7235195
  51.8351195 136.1015714  64.3547956  46.3091494 132.1738628  70.3530127
  46.1711292 131.4418867  70.9541666  47.2196417 132.0847528  70.0714314
  55.2706441 134.1127032  55.1014605  54.6535612 133.3873861  55.0047658
  54.8022930 134.8736393  54.7581679  48.9373794 131.8858587  69.8413806
  49.6473413 131.2451780  69.8000425  48.8943103 132.1371482  70.7639987
  56.9260573 138.8225941  72.7620385  56.8673119 138.1385161  72.0950968
  57.3280091 139.5644931  72.3101011  47.6502728 128.8723805  71.6609446
  47.1140085 128.4214544  72.3131042  47.0619437 129.0069714  70.9179910
  45.9451272 145.6387855  65.5554104  46.1847870 146.2706379  66.2333123
  45.1020468 145.2875895  65.8419464  47.0604987 128.3312457  54.2235909
  46.1834454 128.2101258  53.8598156  47.5362740 127.5398535  53.9714798
  56.9277980 136.7865525  70.9934365  56.0404759 136.4491447  71.1160764
  57.4976531 136.0548556  71.2303130  38.5807127 133.1189616  64.3177416
  39.2678167 132.8051347  63.7298432  38.4255256 134.0230981  64.0444668
  43.3841850 128.0079813  68.7462440  43.3000038 127.4005483  68.0112850
  42.5624556 128.4988831  68.7471936  50.4579134 141.4466977  67.9595608
  50.3849305 142.2521949  68.4714913  50.0156527 141.6458943  67.1343630
  50.2468913 140.6838747  61.4698430  49.4636435 141.2260427  61.5636654
  50.9461659 141.2012727  61.8692671  53.5565563 126.4933377  64.1132635
  54.0534263 125.7403339  63.7933705  52.7852545 126.5297693  63.5475845
  61.4095321 132.1973742  65.7550927  61.3985197 133.0798458  65.3844860
  60.5412700 131.8445293  65.5605464  52.9177817 141.3453811  70.1153767
  53.6305789 141.9801276  70.0429668  52.4267846 141.4417677  69.2993769
  54.6395344 135.2505064  61.6871059  53.7051623 135.3706526  61.5175763
  54.8172013 134.3477531  61.4231068  50.1400532 128.6350760  63.8404320
  49.7698320 128.0821800  64.5285225  50.6359625 128.0308893  63.2879320
  58.0267896 131.0922383  62.2221093  58.4928348 131.9250375  62.1481395
  58.4775396 130.6267365  62.9266351  47.9689731 139.0948255  70.9359338
  48.6699190 139.7284738  71.0888732  47.4984846 139.4362986  70.1754977
  56.0944127 137.4366204  59.2207245  56.3703971 137.3222799  60.1301119
  55.2248625 137.0383689  59.1819418  55.9984558 123.4602970  66.2611994
  55.0847638 123.6907197  66.4294201  56.4277660 123.5441414  67.1126026
  55.7691017 131.6492862  68.7611888  55.1162467 131.8968769  68.1064341
  56.1471397 130.8357000  68.4274365  52.7298191 141.6852555  62.8640058
  52.9120585 140.8674211  63.3267811  53.5531177 141.9020247  62.4264948
  53.0640356 140.6120740  60.1255107  53.5928123 140.1013195  59.5125269
  53.3268576 140.2963271  60.9900640  51.8178590 132.3912673  75.2477925
  51.1419227 132.2906802  75.9180300  52.6406224 132.2351887  75.7113922
  43.5657449 138.6284610  67.8690440  44.1510886 137.8828298  68.0018345
  43.3682287 138.9388566  68.7527104  46.4196104 141.6635857  62.8852883
  45.7506479 142.1481985  62.4016923  46.2808974 141.9105077  63.7996261
  38.1575104 131.1990210  66.5894884  38.1959203 130.6653801  67.3832002
  37.6515396 130.6725415  65.9705861  50.5601373 143.6979601  69.4835541
  51.1119681 143.8611222  70.2484626  50.9007566 144.2884038  68.8115566
  45.5365866 126.0454750  70.0857426  45.6007192 126.9069581  69.6734824
  45.4732986 125.4328752  69.3529784  45.0118138 128.1177883  73.7330460
  45.6390177 127.7354960  74.3467984  44.1546057 127.8992085  74.0986153
  55.4112247 138.5240858  75.3384196  55.9552151 139.1370816  74.8439150
  54.8299092 139.0820436  75.8551209  41.7883681 129.9254312  59.6648815
  42.0837122 129.0164990  59.6115869  40.8871717 129.9042051  59.3429817
  53.6969760 141.6461576  66.4699223  53.5720899 140.8451316  65.9610169
  54.3548851 142.1407769  65.9813193  45.3177928 128.0010309  65.6476364
  44.5964514 128.6146276  65.5083837  46.1071184 128.5368073  65.5693010
  55.7604668 139.4470596  68.0978773  54.8135004 139.3275947  68.0257100
  56.1087441 138.5593094  68.1805035  48.1204242 125.3364735  71.9217015
  48.6438644 125.5827032  72.6843325  47.9016575 126.1684770  71.5020153
  43.5171523 127.6068410  59.7888140  43.1884229 126.7265789  59.6063246
  43.8710893 127.5516078  60.6764529  52.7651102 139.2423312  64.2983126
  52.6176064 138.3140020  64.4790696  53.5904595 139.2643403  63.8140201
  46.6313346 127.8941379  60.1563618  46.9709418 128.4227301  59.4342226
  47.0785466 128.2321786  60.9322184  56.3685223 140.0651871  65.3847998
  57.2931771 139.8594732  65.2472450  56.2000527 139.8168272  66.2937340
  49.3256787 126.2778430  69.6066686  48.9853607 125.4786243  70.0087366
  48.6195793 126.5780141  69.0343519  49.9773259 123.3627743  68.0594009
  50.7999328 122.8888221  67.9372899  50.2211322 124.1418226  68.5592695
  48.6181493 126.3916001  58.3556911  49.3389856 126.7697254  57.8520627
  47.9946797 127.1104878  58.4591889  52.7612616 127.0961150  59.2915243
  52.9776230 127.9785788  58.9904071  52.2806683 126.7047363  58.5620885
  47.5011837 130.0546863  65.8685987  47.3556418 130.3687166  66.7610269
  47.0237041 130.6731764  65.3156886  49.3608220 127.0449411  65.9166877
  49.3469789 126.1490505  65.5799175  50.0780648 127.0520075  66.5505163
  51.2134351 127.4786751  67.9620004  50.9552129 128.4003822  67.9604335
  50.6819391 127.0817186  68.6520469  56.1580540 140.5837539  60.7410090
  56.3317417 140.0183961  59.9883942  56.6509431 141.3838433  60.5589580
  41.9757499 132.5952208  68.8073649  41.4310968 133.3712016  68.9393923
  42.8536849 132.9423012  68.6492770  48.7645116 125.9263792  61.1854447
  48.8861027 124.9980438  61.3845335  48.4747159 125.9402477  60.2732763
  51.6336307 123.6118702  64.3221167  51.6558003 123.6758035  63.3673147
  52.0504366 122.7723211  64.5161673  62.0119931 133.3473962  62.3600390
  62.4551077 132.5981287  61.9619513  61.1346441 133.3384098  61.9774122
  57.1455712 139.9004303  57.8406988  57.8406617 140.5210996  58.0594303
  57.4878862 139.0499654  58.1159366  42.7623521 131.7222104  71.7003806
  42.0205257 131.8704739  72.2868436  42.4416266 131.9830370  70.8370555
  59.0447135 137.3504009  59.3694319  59.5698459 137.6891281  58.6443639
  58.9569488 136.4151024  59.1857454  50.7067184 141.2638082  71.4984196
  51.0154310 141.0187229  72.3706895  51.5042666 141.4684721  71.0103066
  50.7287796 143.4175992  63.7289572  50.2892786 142.9252370  64.4222429
  51.4795913 142.8748959  63.4881647  43.2080135 139.6087533  63.7314200
  44.0338155 139.3091305  63.3512844  42.8574187 138.8395155  64.1803989
  48.1761668 138.9614001  65.8011874  47.5541677 138.2984706  65.5014102
  48.8466535 138.9875133  65.1185522  41.4088740 137.5273859  64.6903134
  40.5720648 137.0996033  64.5087135  41.3812385 137.7206302  65.6273925
  48.2486196 127.4395789  75.3944380  48.2974351 128.3157912  75.0122149
  48.7908710 126.8973182  74.8216023  58.7341041 137.9836912  74.6745517
  57.9436585 137.9661051  74.1350016  58.4974396 138.5225206  75.4294553
  58.8538916 134.8329379  71.9878245  58.9036921 134.6679386  72.9293768
  58.7452840 133.9656638  71.5976126  47.7375175 137.5117924  59.2770334
  47.8863295 138.1953389  58.6237007  48.5441619 137.4923014  59.7919790
  56.1442679 130.8160307  73.3037552  57.0452542 130.6766771  73.0121550
  56.2190653 130.9814761  74.2435730  50.4785484 128.1927161  72.1490738
  49.6088794 128.4860727  71.8773327  50.7144964 128.7767606  72.8698002
  60.3557113 137.2526320  72.2320267  60.0641922 137.6156301  73.0683728
  59.7429245 136.5393328  72.0533599  61.5552796 134.8179200  64.7522837
  62.3899687 135.2569004  64.9160398  61.6911924 134.3417853  63.9331083
  58.6044301 132.3758935  70.7000325  59.0798423 132.5686581  69.8919176
  57.6809867 132.4318120  70.4543709  45.4927808 133.5383102  60.2831403
  45.2473850 132.6345432  60.4811613  45.6623723 133.5400252  59.3410881
  53.1824518 124.4106778  69.6656159  53.7006462 125.1467805  69.3402647
  52.8279651 124.7170772  70.5002918  44.7623456 129.2711459  57.7817565
  44.0692701 129.3455814  57.1257601  44.5175208 128.5071803  58.3039082
  53.4337112 120.8307061  65.1857055  53.7138866 120.1630250  65.8117482
  54.2187719 121.0236156  64.6731719  51.2370581 140.0066055  56.7482082
  50.6644548 140.6256242  56.2952554  51.8103374 140.5565416  57.2822004
  57.3045970 129.2524695  68.9328631  58.2563393 129.3522792  68.9540855
  57.1349421 128.4602963  69.4426715  55.3260350 126.3380278  69.1188031
  54.7310282 126.6185291  68.4234520  55.0410047 126.8274179  69.8904773
  54.4567840 140.2903205  57.8790664  55.3898514 140.2248766  58.0823540
  54.3691053 141.1259472  57.4205197  57.0855857 139.6069075  54.8394612
  57.0069489 139.2728939  55.7330369  57.9065524 140.0990843  54.8386084
  59.7834048 132.4730814  68.0470930  59.7510368 131.5346815  68.2330614
  60.3934672 132.5514851  67.3136755  51.6217379 131.3426867  54.0898134
  52.5676484 131.2133076  54.1586552  51.2431624 130.6041529  54.5667562
  59.9328537 129.2641858  68.0929213  59.4167585 128.4800315  67.9059142
  60.8168485 128.9360574  68.2575733  57.5939264 123.0082873  64.0525026
  57.3964085 122.6997962  64.9368358  58.2038969 123.7344512  64.1822956
  65.6010598 133.5346821  67.1876967  66.3313987 133.2732109  67.7484670
  64.9917544 132.7975543  67.2279035  63.6825895 131.6754684  67.7851418
  62.9559059 131.5410649  67.1767910  63.2673182 131.9831512  68.5908136
  51.5056072 135.3944614  75.5498791  52.4259081 135.5723213  75.7438838
  51.4705655 134.4500659  75.3978490  49.8060296 129.2676844  54.0253019
  48.8991752 128.9709957  54.1015733  50.0836277 128.9706662  53.1587306
  40.7238237 130.5883207  64.4752066  40.4041021 129.7348515  64.1826440
  40.1771665 130.8031785  65.2310033  44.5018144 133.3045648  68.1921572
  44.7204154 134.2362756  68.2109606  44.9143918 132.9453623  68.9776376
  51.4222362 123.8113734  60.1797261  50.6123090 123.4660818  60.5552507
  52.1106779 123.5021277  60.7684872  53.3512910 122.8891780  61.8021557
  53.9043949 123.3087234  62.4611580  53.5882997 121.9627528  61.8444513
  49.3746010 128.8778854  77.5824321  49.2742736 129.8273211  77.5136412
  49.1567552 128.5497093  76.7100391  48.5759081 126.1263779  54.1664999
  49.4378245 126.4518677  54.4260816  48.7609425 125.3395275  53.6538064
  40.5926497 134.2086119  66.4445187  39.8989968 133.7940071  65.9315142
  41.3399488 134.2506655  65.8478606  56.7291717 124.9992305  61.3100222
  56.1490386 125.6577110  60.9278274  56.4627650 124.1769650  60.8987639
  55.1795284 124.3997363  63.5121542  55.6795062 124.5113898  62.7035861
  55.8230892 124.0958416  64.1522350  49.2377280 132.3075993  76.3989383
  48.7544361 133.1076353  76.6053272  49.3238219 132.3183938  75.4456827
  42.5063239 134.1404372  64.3211202  42.4833927 134.2392060  63.3693085
  42.8163876 134.9869523  64.6428368  45.1650617 136.1980528  68.4357817
  46.1193871 136.1664470  68.3687748  44.9663141 135.7371151  69.2508043
  45.7549999 134.7681644  71.0028614  46.5742888 135.2625722  71.0263452
  46.0286807 133.8513612  70.9746182  55.5116595 127.1592396  60.3656570
  54.6242450 127.4442046  60.1476765  55.9270584 126.9986159  59.5183847
  58.8631132 127.1838917  64.0810909  59.6391522 127.6735369  64.3535526
  58.1379266 127.6096971  64.5382779  61.3003690 127.8966536  65.1384850
  61.8948181 127.6562272  64.4278158  61.3730274 127.1773667  65.7658386
  43.5200846 141.7400147  65.4528015  43.3855314 140.9800548  64.8866013
  43.1032908 142.4641047  64.9856803  54.6559809 136.9237071  54.4604590
  55.3595659 137.1287073  55.0762245  53.9322458 137.4913832  54.7253673
  55.4857619 132.6746932  60.5806860  55.4292821 133.1315483  59.7414492
  56.0385962 131.9137616  60.4029703  59.2962425 128.4636664  61.4056980
  59.0399359 128.0633299  62.2365187  58.6715293 129.1780458  61.2807119
  63.6074763 131.2032737  63.9128271  63.0474321 131.2725926  64.6859833
  63.0018266 131.0273722  63.1927767  46.6769972 142.6369464  65.6646457
  46.5602356 143.5814897  65.5625148  45.8562418 142.3343026  66.0532256
  56.5646506 137.3619600  56.5103050  57.3992110 136.9300798  56.3280525
  56.4030849 137.1901613  57.4379944  56.2192398 133.8651713  57.8759389
  56.1641202 133.6995984  56.9347833  55.5938454 134.5727746  58.0321579
  41.0084913 129.1019777  71.7020811  41.6543777 128.5918731  72.1908037
  40.8002065 129.8388459  72.2764237  53.5338306 136.1700625  77.2012952
  54.4029465 136.3441277  76.8399587  53.0545057 136.9895042  77.0788681
  49.5288524 123.3659822  57.4544708  49.5167194 124.3101662  57.6112979
  50.4211946 123.1829967  57.1604169  47.7024486 143.2897726  68.8802386
  48.6051733 143.3221336  69.1968881  47.4761856 142.3598177  68.8948721
  49.4578088 142.0428712  65.5412464  48.5073719 142.0430574  65.4276837
  49.7610574 141.2961447  65.0248499  53.3440643 119.9602599  61.7090644
  52.5773039 119.4061085  61.8547327  53.7551348 120.0324467  62.5704796
  45.3482404 126.2487394  75.7995826  46.2113866 125.8924199  76.0099150
  44.7747815 125.9101289  76.4871230  65.1930781 147.8789251  66.6058227
  65.8309191 147.7595998  65.9021567  65.0751624 148.8270095  66.6646179
  62.0020488 147.8316679  66.5419751  61.6638999 147.7157744  65.6540286
  62.8710256 147.4307844  66.5220758  57.8607303 149.6852155  62.5316642
  57.2972168 149.5942092  61.7632930  57.7459698 148.8652060  63.0119135
  62.4840271 148.9851531  72.5005957  62.4728911 148.5904329  71.6286461
  62.6460910 148.2517603  73.0939728  55.4071735 151.1803347  65.3700863
  56.1993027 150.8394172  64.9547162  55.6468385 151.2898322  66.2903016
  63.4406862 153.3523123  57.8431107  62.7894842 153.9377203  57.4565121
  64.2351225 153.8829318  57.9026145  57.3662489 150.4412260  58.2418242
  58.1393365 149.8941247  58.1031117  57.7187888 151.3056510  58.4532703
  59.2047532 151.7688642  71.4485141  58.9137398 152.6734273  71.3331807
  59.8404516 151.8105170  72.1629210  60.1303739 149.1465491  68.0386501
  60.7267311 148.9221513  67.3243463  60.1878710 148.4050236  68.6411948
  59.7028767 146.6004926  55.8736691  59.9554288 146.0786448  55.1120155
  58.7653326 146.4371072  55.9763375  64.7472050 145.6040705  63.6811435
  65.5335139 145.1860128  63.3301852  65.0110754 146.5086797  63.8493083
  64.9182127 151.0413555  58.3800092  64.2827960 151.1148182  59.0920996
  64.5879534 151.6307154  57.7019171  70.1480477 145.5415938  64.5844413
  70.8805649 144.9715155  64.8182243  69.3919833 145.1537538  65.0250919
  59.4225056 148.5033032  58.0761066  59.3061314 147.8277936  58.7442151
  59.5327316 148.0165406  57.2593220  61.7656597 147.9643179  61.7807756
  61.4014804 147.4373800  62.4920677  62.6223713 147.5741648  61.6074241
  67.6705897 139.2537512  69.0439022  67.3389222 140.1232923  68.8200237
  67.0751511 138.9373796  69.7233052  61.4062084 142.9933079  56.7769104
  61.5736486 143.8613315  57.1439575  61.2159253 143.1560361  55.8530393
  64.1637417 151.4550058  68.4434935  63.8638140 152.3575097  68.3350742
  63.8188476 151.1882241  69.2956087  57.6149898 147.9063855  64.4771639
  56.6900395 147.7740069  64.6849331  57.8634312 148.6858074  64.9741581
  67.5634561 143.9732598  66.1232372  66.6551438 143.9048007  65.8291133
  67.5122156 144.4504543  66.9514197  61.3851305 145.4490737  57.7615771
  61.2650930 145.8947787  58.6001251  60.6903893 145.7976054  57.2029309
  54.9758709 147.5497128  65.3115428  55.1051091 147.8031607  66.2254840
  54.2956161 148.1424836  64.9920083  61.6375426 145.3922244  74.0667269
  60.8608760 145.9516164  74.0570134  62.2765989 145.8779027  74.5882139
  69.4296207 142.1749037  67.9010246  68.7870587 142.4681570  67.2550040
  68.9251136 142.0601957  68.7063442  67.0836371 145.9212210  58.5896105
  67.9954227 146.1539597  58.4143803  66.5746018 146.5049254  58.0271184
  59.8921799 148.2007697  73.6285236  60.6336483 148.7392741  73.3520060
  59.1858784 148.8273986  73.7856788  65.3677138 150.3436838  72.2257398
  65.7760494 149.9019248  71.4812030  64.6454400 149.7689465  72.4791591
  61.7208208 145.2809444  69.5990955  62.5669404 145.7048858  69.7425604
  61.6606846 144.6243069  70.2929518  65.6905953 150.9038028  65.9809687
  65.0614815 151.0683742  65.2785754  65.3031615 151.3179638  66.7520651
  69.5695185 151.8392466  63.3354050  68.8846223 152.2191367  62.7851084
  69.6539034 152.4487793  64.0685998  64.8707654 142.9413813  71.2572128
  64.6268586 143.6955873  70.7206404  65.1467584 143.3199160  72.0919375
  66.8246117 149.4852425  69.9349394  67.0363012 150.1284185  69.2583775
  66.7775865 148.6514742  69.4671324  64.4272345 142.0970246  66.8385966
  63.5656825 142.3951499  67.1302704  64.4534780 142.3140645  65.9066999
  61.2433915 150.6412436  63.2459772  61.7072260 150.9200139  62.4564394
  60.9790713 149.7395881  63.0632862  58.1357996 150.1883918  66.1839535
  58.7059353 150.6171186  65.5457019  58.7266108 149.9066503  66.8823721
  60.1802801 146.7635589  60.0549337  60.8826844 147.2156632  60.5223263
  59.8483429 146.1219408  60.6829230  58.6283162 145.3547345  74.4300546
  57.9981823 146.0363626  74.6635943  58.5219250 145.2430427  73.4853684
  53.9228135 145.0219141  65.3566470  53.1327189 145.2776670  64.8806581
  54.4139382 145.8367479  65.4618511  67.9391944 152.3624381  68.1071751
  68.7609388 151.9604568  67.8254433  67.9354347 152.2592615  69.0587867
  55.8742880 145.3863721  62.3149947  55.0774044 145.4982415  62.8333443
  55.6468472 145.7250373  61.4490838  61.7048548 151.9108424  70.2632462
  61.7692980 152.3728831  71.0990634  60.9959472 151.2805789  70.3914772
  52.2065838 145.2749632  67.7881461  52.4573876 146.1596642  68.0539037
  52.7425386 145.0954233  67.0156553  76.0297938 148.7063129  64.4556723
  75.2761646 148.1370527  64.3000727  76.1645479 148.6725793  65.4027357
  61.4196566 153.5776531  60.1311442  61.2842240 154.4228067  60.5596290
  61.9606378 153.7795809  59.3677376  57.9063905 139.6568111  76.7925797
  57.5130851 139.1034310  77.4673441  58.7230046 139.9678690  77.1832315
  54.8725963 151.0951969  60.7039367  55.3850484 151.8895220  60.8544932
  55.5248676 150.3978260  60.6372969  60.8231866 141.0725990  74.3846054
  61.5641580 141.6733143  74.3050516  61.0549789 140.3303628  73.8264096
  55.9673204 146.2582358  72.6624283  55.8526719 145.3567615  72.9631382
  55.1117722 146.5046054  72.3109100  63.0465042 154.2000098  74.2611784
  62.6028896 153.4136476  73.9432689  63.7082256 154.3879248  73.5955675
  65.1446280 154.4802898  72.2893185  65.1264755 155.3011779  71.7973455
  66.0666200 154.3556973  72.5143327  61.6019334 151.9947027  73.1316694
  62.1347671 151.2335315  72.9016002  61.0733415 151.7020679  73.8740848
  64.7689029 137.1007093  68.6610335  64.4253299 137.9908735  68.5849446
  65.1367992 136.9108751  67.7979920  52.8374880 149.4240624  61.4798938
  53.6750102 149.8337632  61.2632645  53.0153147 148.4840066  61.4499132
  64.7339312 147.0915704  57.1682771  64.2185935 147.8620309  57.4071158
  64.4616620 146.4180840  57.7915832  62.3186423 141.9365405  62.2268009
  61.4628019 141.5472255  62.0473648  62.7313375 142.0157366  61.3667794
  63.8485570 139.4711748  66.6259569  63.3450365 139.4341883  65.8127374
  64.1416176 140.3804491  66.6856225  60.0928455 139.5550478  65.6325750
  60.9581452 139.3593287  65.2731640  60.1605964 139.3260830  66.5595107
  69.7073586 149.8448059  59.1035944  68.9303029 149.5059218  58.6591106
  70.3865067 149.8500682  58.4290909  64.5225615 144.9642796  58.9942552
  64.2175751 145.2788946  59.8452695  65.4756057 145.0424216  59.0369885
  62.9672047 151.1233020  60.6435506  62.4393408 150.3885779  60.3308743
  62.4659550 151.9007696  60.3975474  67.9464893 149.3182040  65.7602552
  67.2888567 150.0081302  65.8482681  68.7505292 149.7078472  66.1036538
  57.6990774 141.7852686  63.0042117  58.2734526 141.5627867  62.2715310
  58.2861757 141.8541380  63.7570719  66.7570352 147.6726413  63.8106494
  67.2702233 148.3056405  64.3128204  67.4071576 147.0727608  63.4449854
  58.0260362 143.8157147  57.0238003  57.1897674 144.1531834  57.3447277
  57.8865131 143.6806127  56.0865139  60.0013442 138.6593935  61.7317187
  59.3477855 138.3442952  61.1073801  59.9593916 138.0369675  62.4577010
  61.1124647 148.9413230  53.6470479  60.2051709 148.7102483  53.8461628
  61.6095679 148.1450849  53.8344460  63.2351183 145.1475868  66.0564834
  62.3173744 145.3690815  65.8986522  63.6511326 145.2222179  65.1976542
  64.0186230 146.5467284  61.1867515  64.7658049 147.0588681  60.8774637
  64.2877820 146.2251337  62.0471908  62.2912880 149.0425825  58.1694469
  61.3824100 148.7584858  58.2666939  62.3207964 149.4624903  57.3097776
  67.5232148 152.6532414  61.9385636  67.0694475 151.8123324  61.9950827
  66.8926115 153.2893813  62.2760417  66.4665067 143.5824400  63.1686304
  65.7287824 143.0701787  63.4996546  66.7191841 143.1424782  62.3569581
  65.9665087 154.4908911  62.8735455  66.2588062 155.0513968  62.1547820
  66.4763708 154.7837472  63.6288614  66.5676695 136.3600652  63.7628073
  66.8735572 135.4998016  63.4753988  67.2929300 136.9518273  63.5627067
  52.8601051 146.7631339  62.1509671  52.6625451 146.1700700  61.4260738
  52.3047715 146.4583549  62.8685610  60.8397775 146.6554445  64.2704264
  60.8946384 145.7028282  64.1946741  60.0288977 146.8113885  64.7545563
  61.9888968 150.5834568  55.5082547  61.5508398 149.8670427  55.0488185
  62.7299409 150.8110683  54.9467639  58.7790134 145.2731505  62.0294643
  57.9658000 145.5725676  62.4359835  59.2749129 144.8787194  62.7469125
  60.9298712 155.2689262  63.9628908  60.8874891 155.4950108  63.0337440
  61.8461411 155.0352637  64.1114709  64.3764346 145.7373330  70.8609537
  64.7313734 145.9644803  71.7204003  65.0236477 146.0691706  70.2386792
  70.1062083 148.8591766  61.5658866  69.9679982 149.0493362  60.6380055
  69.7498302 149.6211148  62.0226917  58.2704209 142.8449861  67.6455878
  58.9103589 142.7038620  66.9478841  57.4381740 142.5584374  67.2694480
  70.1331463 150.9268293  66.5770138  70.5667969 150.8343582  67.4253192
  70.8463043 150.9025793  65.9390154  59.0464513 152.1452291  63.7590870
  59.8405112 151.6502611  63.5573445  58.3356206 151.6170154  63.3958576
  63.8659358 154.5270387  68.1103238  63.9196380 155.0961323  68.8780954
  62.9974139 154.6972272  67.7457275  55.3547277 146.2895373  59.8350623
  54.4244865 146.2279828  60.0520585  55.4504749 145.7671326  59.0387264
  55.2732826 142.8150186  62.4228865  55.5339643 143.7295519  62.3138025
  56.0949998 142.3474628  62.5725478  56.7457751 144.2287943  69.5927689
  57.4180804 144.0205305  68.9440338  55.9187537 144.0310029  69.1532922
  70.9947012 150.9691993  69.1103023  71.1882902 151.8737804  69.3562298
  70.8947630 150.5099412  69.9441608  62.6483323 140.8549884  71.6093350
  62.0011238 141.5539833  71.5157827  63.4184338 141.2886028  71.9769598
  66.0562121 151.1198736  74.6843904  65.9047627 150.8909288  73.7673987
  66.0466800 152.0769337  74.6975249  62.8247457 148.6930649  69.6690170
  63.7539517 148.8441808  69.4959137  62.4038487 148.7814669  68.8138816
  61.6235789 152.7181313  67.4388708  61.4846875 152.3500098  68.3114646
  60.8350385 153.2328953  67.2672665  63.1741004 152.0962916  64.8277545
  62.8390837 152.0563686  65.7235195  62.6744950 151.4307632  64.3547956
  57.1485248 147.5030546  70.3530127  57.0105046 146.7710785  70.9541666
  58.0590172 147.4139446  70.0714314  66.1100196 149.4418950  55.1014605
  65.4929367 148.7165778  55.0047658  65.6416684 150.2028310  54.7581679
  59.7767549 147.2150505  69.8413806  60.4867167 146.5743697  69.8000425
  59.7336857 147.4663400  70.7639987  67.7654328 154.1517858  72.7620385
  67.7066874 153.4677079  72.0950968  68.1673846 154.8936849  72.3101011
  58.4896483 144.2015723  71.6609446  57.9533840 143.7506461  72.3131042
  57.9013191 144.3361632  70.9179910  57.8998742 143.6604374  54.2235909
  57.0228208 143.5393175  53.8598156  58.3756495 142.8690453  53.9714798
  67.7671735 152.1157442  70.9934365  66.8798514 151.7783364  71.1160764
  68.3370286 151.3840474  71.2303130  49.4200882 148.4481534  64.3177416
  50.1071922 148.1343264  63.7298432  49.2649011 149.3522899  64.0444668
  54.2235604 143.3371731  68.7462440  54.1393793 142.7297400  68.0112850
  53.4018311 143.8280749  68.7471936  64.3959318 141.8225294  64.1132635
  64.8928018 141.0695257  63.7933705  63.6246299 141.8589611  63.5475845
  72.2489075 147.5265660  65.7550927  72.2378952 148.4090375  65.3844860
  71.3806455 147.1737211  65.5605464  65.4789099 150.5796981  61.6871059
  64.5445377 150.6998444  61.5175763  65.6565767 149.6769448  61.4231068
  60.9794287 143.9642677  63.8404320  60.6092074 143.4113718  64.5285225
  61.4753379 143.3600811  63.2879320  68.8661650 146.4214301  62.2221093
  69.3322102 147.2542292  62.1481395  69.3169151 145.9559282  62.9266351
  58.8083485 154.4240172  70.9359338  59.5092945 155.0576655  71.0888732
  58.3378600 154.7654904  70.1754977  66.9337881 152.7658122  59.2207245
  67.2097725 152.6514717  60.1301119  66.0642380 152.3675607  59.1819418
  66.8378313 138.7894888  66.2611994  65.9241393 139.0199115  66.4294201
  67.2671414 138.8733332  67.1126026  66.6084771 146.9784780  68.7611888
  65.9556221 147.2260687  68.1064341  66.9865151 146.1648918  68.4274365
  63.9034111 155.9412658  60.1255107  64.4321877 155.4305113  59.5125269
  64.1662330 155.6255188  60.9900640  62.6572344 147.7204591  75.2477925
  61.9812981 147.6198720  75.9180300  63.4799978 147.5643805  75.7113922
  48.9968858 146.5282128  66.5894884  49.0352958 145.9945718  67.3832002
  48.4909151 146.0017333  65.9705861  56.3759620 141.3746668  70.0857426
  56.4400947 142.2361499  69.6734824  56.3126741 140.7620670  69.3529784
  55.8511893 143.4469801  73.7330460  56.4783932 143.0646878  74.3467984
  54.9939812 143.2284003  74.0986153  66.2506001 153.8532776  75.3384196
  66.7945905 154.4662734  74.8439150  65.6692846 154.4112354  75.8551209
  52.6277436 145.2546230  59.6648815  52.9230877 144.3456908  59.6115869
  51.7265471 145.2333969  59.3429817  56.1571683 143.3302226  65.6476364
  55.4358268 143.9438194  65.5083837  56.9464938 143.8659991  65.5693010
  66.5998423 154.7762514  68.0978773  65.6528758 154.6567865  68.0257100
  66.9481196 153.8885012  68.1805035  58.9597996 140.6656653  71.9217015
  59.4832398 140.9118949  72.6843325  58.7410329 141.4976688  71.5020153
  54.3565277 142.9360327  59.7888140  54.0277983 142.0557706  59.6063246
  54.7104648 142.8807996  60.6764529  63.6044856 154.5715230  64.2983126
  63.4569819 153.6431937  64.4790696  64.4298350 154.5935321  63.8140201
  57.4707100 143.2233297  60.1563618  57.8103173 143.7519218  59.4342226
  57.9179221 143.5613703  60.9322184  67.2078978 155.3943789  65.3847998
  68.1325525 155.1886650  65.2472450  67.0394281 155.1460190  66.2937340
  60.1650541 141.6070348  69.6066686  59.8247362 140.8078161  70.0087366
  59.4589547 141.9072059  69.0343519  60.8167013 138.6919660  68.0594009
  61.6393082 138.2180138  67.9372899  61.0605077 139.4710144  68.5592695
  59.4575248 141.7207919  58.3556911  60.1783610 142.0989172  57.8520627
  58.8340552 142.4396796  58.4591889  63.6006370 142.4253068  59.2915243
  63.8169985 143.3077706  58.9904071  63.1200438 142.0339281  58.5620885
  58.3405592 145.3838781  65.8685987  58.1950173 145.6979084  66.7610269
  57.8630795 146.0023681  65.3156886  60.2001975 142.3741329  65.9166877
  60.1863543 141.4782422  65.5799175  60.9174403 142.3811993  66.5505163
  62.0528105 142.8078669  67.9620004  61.7945883 143.7295740  67.9604335
  61.5213146 142.4109104  68.6520469  66.9974294 155.9129456  60.7410090
  67.1711172 155.3475879  59.9883942  67.4903185 156.7130351  60.5589580
  52.8151254 147.9244125  68.8073649  52.2704722 148.7003933  68.9393923
  53.6930604 148.2714930  68.6492770  59.6038871 141.2555709  61.1854447
  59.7254782 140.3272355  61.3845335  59.3140913 141.2694395  60.2732763
  62.4730061 138.9410620  64.3221167  62.4951758 139.0049953  63.3673147
  62.8898120 138.1015128  64.5161673  72.8513685 148.6765879  62.3600390
  73.2944831 147.9273204  61.9619513  71.9740196 148.6676016  61.9774122
  67.9849467 155.2296221  57.8406988  68.6800371 155.8502913  58.0594303
  68.3272617 154.3791572  58.1159366  53.6017276 147.0514022  71.7003806
  52.8599012 147.1996657  72.2868436  53.2810020 147.3122287  70.8370555
  69.8840890 152.6795926  59.3694319  70.4092214 153.0183199  58.6443639
  69.7963242 151.7442942  59.1857454  59.0155423 154.2905919  65.8011874
  58.3935432 153.6276624  65.5014102  59.6860290 154.3167050  65.1185522
  59.0879950 142.7687707  75.3944380  59.1368106 143.6449829  75.0122149
  59.6302464 142.2265100  74.8216023  69.5734796 153.3128830  74.6745517
  68.7830340 153.2952969  74.1350016  69.3368150 153.8517124  75.4294553
  69.6932671 150.1621296  71.9878245  69.7430676 149.9971304  72.9293768
  69.5846594 149.2948555  71.5976126  58.5768930 152.8409842  59.2770334
  58.7257050 153.5245306  58.6237007  59.3835373 152.8214932  59.7919790
  66.9836433 146.1452224  73.3037552  67.8846296 146.0058689  73.0121550
  67.0584408 146.3106679  74.2435730  61.3179239 143.5219079  72.1490738
  60.4482548 143.8152645  71.8773327  61.5538719 144.1059524  72.8698002
  71.1950868 152.5818238  72.2320267  70.9035676 152.9448218  73.0683728
  70.5822999 151.8685246  72.0533599  72.3946550 150.1471117  64.7522837
  73.2293441 150.5860922  64.9160398  72.5305679 149.6709771  63.9331083
  69.4438056 147.7050852  70.7000325  69.9192178 147.8978499  69.8919176
  68.5203621 147.7610038  70.4543709  56.3321563 148.8675020  60.2831403
  56.0867605 147.9637350  60.4811613  56.5017477 148.8692170  59.3410881
  64.0218272 139.7398696  69.6656159  64.5400216 140.4759723  69.3402647
  63.6673405 140.0462689  70.5002918  55.6017210 144.6003377  57.7817565
  54.9086455 144.6747732  57.1257601  55.3568962 143.8363721  58.3039082
  64.2730867 136.1598978  65.1857055  64.5532620 135.4922167  65.8117482
  65.0581474 136.3528074  64.6731719  62.0764335 155.3357972  56.7482082
  61.5038302 155.9548159  56.2952554  62.6497129 155.8857334  57.2822004
  68.1439725 144.5816612  68.9328631  69.0957148 144.6814710  68.9540855
  67.9743175 143.7894881  69.4426715  66.1654104 141.6672196  69.1188031
  65.5704037 141.9477208  68.4234520  65.8803801 142.1566097  69.8904773
  65.2961595 155.6195122  57.8790664  66.2292268 155.5540684  58.0823540
  65.2084808 156.4551389  57.4205197  67.9249612 154.9360993  54.8394612
  67.8463243 154.6020856  55.7330369  68.7459278 155.4282761  54.8386084
  70.6227803 147.8022732  68.0470930  70.5904123 146.8638733  68.2330614
  71.2328426 147.8806769  67.3136755  62.4611134 146.6718785  54.0898134
  63.4070238 146.5424993  54.1586552  62.0825379 145.9333447  54.5667562
  70.7722291 144.5933776  68.0929213  70.2561340 143.8092232  67.9059142
  71.6562240 144.2652492  68.2575733  68.4333018 138.3374791  64.0525026
  68.2357839 138.0289879  64.9368358  69.0432724 139.0636430  64.1822956
  76.4404353 148.8638739  67.1876967  77.1707741 148.6024027  67.7484670
  75.8311298 148.1267461  67.2279035  74.5219650 147.0046602  67.7851418
  73.7952813 146.8702566  67.1767910  74.1066937 147.3123430  68.5908136
  62.3449826 150.7236531  75.5498791  63.2652836 150.9015130  75.7438838
  62.3099409 149.7792577  75.3978490  60.6454051 144.5968761  54.0253019
  59.7385506 144.3001874  54.1015733  60.9230032 144.2998580  53.1587306
  51.5631991 145.9175125  64.4752066  51.2434775 145.0640433  64.1826440
  51.0165419 146.1323703  65.2310033  55.3411899 148.6337566  68.1921572
  55.5597908 149.5654674  68.2109606  55.7537673 148.2745540  68.9776376
  62.2616116 139.1405651  60.1797261  61.4516845 138.7952736  60.5552507
  62.9500533 138.8313195  60.7684872  64.1906665 138.2183698  61.8021557
  64.7437703 138.6379151  62.4611580  64.4276751 137.2919446  61.8444513
  60.2139764 144.2070772  77.5824321  60.1136491 145.1565129  77.5136412
  59.9961306 143.8789011  76.7100391  59.4152835 141.4555697  54.1664999
  60.2771999 141.7810595  54.4260816  59.6003180 140.6687193  53.6538064
  51.4320251 149.5378036  66.4445187  50.7383723 149.1231989  65.9315142
  52.1793242 149.5798573  65.8478606  67.5685472 140.3284223  61.3100222
  66.9884141 140.9869027  60.9278274  67.3021405 139.5061568  60.8987639
  66.0189038 139.7289281  63.5121542  66.5188817 139.8405815  62.7035861
  66.6624646 139.4250334  64.1522350  60.0771034 147.6367910  76.3989383
  59.5938116 148.4368271  76.6053272  60.1631973 147.6475855  75.4456827
  53.3456994 149.4696290  64.3211202  53.3227682 149.5683977  63.3693085
  53.6557630 150.3161441  64.6428368  56.0044372 151.5272445  68.4357817
  56.9587625 151.4956388  68.3687748  55.8056895 151.0663069  69.2508043
  56.5943754 150.0973561  71.0028614  57.4136643 150.5917640  71.0263452
  56.8680561 149.1805529  70.9746182  66.3510350 142.4884314  60.3656570
  65.4636205 142.7733964  60.1476765  66.7664339 142.3278077  59.5183847
  69.7024886 142.5130835  64.0810909  70.4785276 143.0027287  64.3535526
  68.9773020 142.9388889  64.5382779  72.1397445 143.2258454  65.1384850
  72.7341935 142.9854190  64.4278158  72.2124028 142.5065584  65.7658386
  65.4953563 152.2528988  54.4604590  66.1989413 152.4578991  55.0762245
  64.7716212 152.8205750  54.7253673  66.3251374 148.0038849  60.5806860
  66.2686575 148.4607401  59.7414492  66.8779716 147.2429534  60.4029703
  70.1356180 143.7928581  61.4056980  69.8793114 143.3925217  62.2365187
  69.5109048 144.5072375  61.2807119  74.4468517 146.5324655  63.9128271
  73.8868075 146.6017844  64.6859833  73.8412021 146.3565639  63.1927767
  67.4040261 152.6911517  56.5103050  68.2385865 152.2592716  56.3280525
  67.2424604 152.5193531  57.4379944  67.0586153 149.1943631  57.8759389
  67.0034957 149.0287902  56.9347833  66.4332208 149.9019664  58.0321579
  51.8478668 144.4311695  71.7020811  52.4937532 143.9210649  72.1908037
  51.6395819 145.1680377  72.2764237  64.3732060 151.4992543  77.2012952
  65.2423220 151.6733195  76.8399587  63.8938812 152.3186959  77.0788681
  60.3682278 138.6951740  57.4544708  60.3560948 139.6393580  57.6112979
  61.2605700 138.5121885  57.1604169  64.1834398 135.2894516  61.7090644
  63.4166794 134.7353003  61.8547327  64.5945103 135.3616385  62.5704796
  56.1876159 141.5779312  75.7995826  57.0507620 141.2216117  76.0099150
  55.6141570 141.2393207  76.4871230  80.9874231 160.8707856  64.5844413
  81.7199403 160.3007072  64.8182243  80.2313587 160.4829456  65.0250919
  78.5099652 154.5829430  69.0439022  78.1782977 155.4524841  68.8200237
  77.9145265 154.2665714  69.7233052  72.2455838 158.3224997  56.7769104
  72.4130241 159.1905233  57.1439575  72.0553007 158.4852278  55.8530393
  78.4028315 159.3024516  66.1232372  77.4945192 159.2339924  65.8291133
  78.3515911 159.7796461  66.9514197  80.2689962 157.5040954  67.9010246
  79.6264342 157.7973487  67.2550040  79.7644890 157.3893875  68.7063442
  75.7101408 158.2705730  71.2572128  75.4662340 159.0247791  70.7206404
  75.9861339 158.6491078  72.0919375  75.2666100 157.4262163  66.8385966
  74.4050579 157.7243417  67.1302704  75.2928535 157.6432562  65.9066999
  86.8691692 164.0355047  64.4556723  86.1155400 163.4662445  64.3000727
  87.0039233 164.0017711  65.4027357  68.7457660 154.9860029  76.7925797
  68.3524605 154.4326227  77.4673441  69.5623800 155.2970607  77.1832315
  71.6625621 156.4017908  74.3846054  72.4035334 157.0025061  74.3050516
  71.8943544 155.6595546  73.8264096  75.6082784 152.4299011  68.6610335
  75.2647053 153.3200653  68.5849446  75.9761746 152.2400668  67.7979920
  73.1580177 157.2657323  62.2268009  72.3021774 156.8764173  62.0473648
  73.5707129 157.3449284  61.3667794  74.6879324 154.8003666  66.6259569
  74.1844120 154.7633801  65.8127374  74.9809931 155.7096409  66.6856225
  70.9322210 154.8842396  65.6325750  71.7975207 154.6885204  65.2731640
  70.9999719 154.6552748  66.5595107  75.3619370 160.2934714  58.9942552
  75.0569505 160.6080863  59.8452695  76.3149812 160.3716134  59.0369885
  68.5384529 157.1144604  63.0042117  69.1128281 156.8919785  62.2715310
  69.1255511 157.1833298  63.7570719  70.8407197 153.9885853  61.7317187
  70.1871609 153.6734870  61.1073801  70.7987671 153.3661593  62.4577010
  77.3058822 158.9116318  63.1686304  76.5681579 158.3993704  63.4996546
  77.5585595 158.4716700  62.3569581  77.4070449 151.6892570  63.7628073
  77.7129326 150.8289933  63.4753988  78.1323054 152.2810190  63.5627067
  69.1097964 158.1741778  67.6455878  69.7497343 158.0330537  66.9478841
  68.2775494 157.8876292  67.2694480  73.4877077 156.1841801  71.6093350
  72.8404993 156.8831751  71.5157827  74.2578093 156.6177945  71.9769598
  75.2353072 157.1517212  64.1132635  75.7321772 156.3987174  63.7933705
  74.4640054 157.1881529  63.5475845  71.8188041 159.2934595  63.8404320
  71.4485829 158.7405635  64.5285225  72.3147134 158.6892728  63.2879320
  77.6772067 154.1186805  66.2611994  76.7635147 154.3491032  66.4294201
  78.1065169 154.2025250  67.1126026  67.2153375 156.7038586  70.0857426
  67.2794701 157.5653417  69.6734824  67.1520495 156.0912587  69.3529784
  69.7991751 155.9948570  71.9217015  70.3226152 156.2410867  72.6843325
  69.5804084 156.8268605  71.5020153  71.0044296 156.9362266  69.6066686
  70.6641116 156.1370079  70.0087366  70.2983302 157.2363976  69.0343519
  71.6560768 154.0211578  68.0594009  72.4786837 153.5472056  67.9372899
  71.8998831 154.8002062  68.5592695  70.2969002 157.0499836  58.3556911
  71.0177365 157.4281089  57.8520627  69.6734306 157.7688713  58.4591889
  74.4400125 157.7544985  59.2915243  74.6563739 158.6369623  58.9904071
  73.9594192 157.3631199  58.5620885  71.0395729 157.7033247  65.9166877
  71.0257298 156.8074340  65.5799175  71.7568157 157.7103910  66.5505163
  72.8921860 158.1370587  67.9620004  72.6339638 159.0587657  67.9604335
  72.3606900 157.7401021  68.6520469  70.4432625 156.5847627  61.1854447
  70.5648536 155.6564273  61.3845335  70.1534667 156.5986313  60.2732763
  73.3123816 154.2702537  64.3221167  73.3345512 154.3341870  63.3673147
  73.7291875 153.4307046  64.5161673  77.8230188 161.4744142  73.3037552
  78.7240051 161.3350607  73.0121550  77.8978162 161.6398597  74.2435730
  72.1572993 158.8510997  72.1490738  71.2876303 159.1444563  71.8773327
  72.3932473 159.4351442  72.8698002  74.8612027 155.0690614  69.6656159
  75.3793971 155.8051641  69.3402647  74.5067160 155.3754607  70.5002918
  75.1124621 151.4890896  65.1857055  75.3926375 150.8214085  65.8117482
  75.8975228 151.6819992  64.6731719  78.9833479 159.9108530  68.9328631
  79.9350902 160.0106628  68.9540855  78.8136930 159.1186799  69.4426715
  77.0047859 156.9964113  69.1188031  76.4097791 157.2769126  68.4234520
  76.7197556 157.4858014  69.8904773  81.6116046 159.9225693  68.0929213
  81.0955094 159.1384150  67.9059142  82.4955994 159.5944410  68.2575733
  79.2726773 153.6666709  64.0525026  79.0751594 153.3581797  64.9368358
  79.8826478 154.3928348  64.1822956  87.2798107 164.1930657  67.1876967
  88.0101496 163.9315945  67.7484670  86.6705053 163.4559379  67.2279035
  85.3613404 162.3338519  67.7851418  84.6346568 162.1994484  67.1767910
  84.9460691 162.6415348  68.5908136  73.1009871 154.4697569  60.1797261
  72.2910599 154.1244654  60.5552507  73.7894288 154.1605113  60.7684872
  75.0300419 153.5475616  61.8021557  75.5831458 153.9671069  62.4611580
  75.2670506 152.6211364  61.8444513  70.2546590 156.7847614  54.1664999
  71.1165754 157.1102513  54.4260816  70.4396934 155.9979110  53.6538064
  78.4079226 155.6576141  61.3100222  77.8277895 156.3160945  60.9278274
  78.1415159 154.8353485  60.8987639  76.8582793 155.0581199  63.5121542
  77.3582571 155.1697733  62.7035861  77.5018401 154.7542251  64.1522350
  77.1904104 157.8176231  60.3656570  76.3029959 158.1025882  60.1476765
  77.6058093 157.6569995  59.5183847  80.5418641 157.8422752  64.0810909
  81.3179031 158.3319205  64.3535526  79.8166775 158.2680806  64.5382779
  82.9791199 158.5550371  65.1384850  83.5735690 158.3146107  64.4278158
  83.0517783 157.8357502  65.7658386  80.9749934 159.1220499  61.4056980
  80.7186868 158.7217135  62.2365187  80.3502802 159.8364293  61.2807119
  85.2862272 161.8616572  63.9128271  84.7261830 161.9309762  64.6859833
  84.6805775 161.6857557  63.1927767  71.2076033 154.0243657  57.4544708
  71.1954703 154.9685497  57.6112979  72.0999455 153.8413803  57.1604169
  75.0228152 150.6186434  61.7090644  74.2560548 150.0644921  61.8547327
  75.4338857 150.6908303  62.5704796  67.0269913 156.9071230  75.7995826
  67.8901375 156.5508035  76.0099150  66.4535324 156.5685125  76.4871230
   5.1117951  30.5726554  51.3089720   5.8443123  30.0025771  51.5427549
   4.3557307  30.1848155  51.7496225   2.6343372  24.2848129  55.7684328
   2.3026696  25.1543540  55.5445543   2.0388985  23.9684413  56.4478359
   2.5272035  29.0043215  52.8477679   1.6188912  28.9358623  52.5536440
   2.4759631  29.4815160  53.6759504   4.3933681  27.2059653  54.6255552
   3.7508062  27.4992186  53.9795347   3.8888610  27.0912573  55.4308749
   2.0473845  30.9522826  45.3141412   2.9591701  31.1850213  45.1389109
   1.5383492  31.5359871  44.7516490   4.5332659  36.8703083  50.0599357
   3.8483697  37.2501984  49.5096390   4.6176509  37.4798409  50.7931305
   1.7883591  34.5163042  56.6594700   2.0000486  35.1594802  55.9829082
   1.7413339  33.6825358  56.1916631   2.9029419  37.3934997  54.8317058
   3.7246863  36.9915184  54.5499739   2.8991822  37.2903231  55.7833174
  10.9935412  33.7373746  51.1802029  10.2399120  33.1681144  51.0246034
  11.1282953  33.7036410  52.1272664   4.6711060  34.8758675  45.8281251
   3.8940503  34.5369835  45.3836413   5.3502541  34.8811299  45.1536216
   2.9102367  34.3492657  52.4847859   2.2526042  35.0391918  52.5727987
   3.7142766  34.7389089  52.8281845   1.7207826  32.7037029  50.5351800
   2.2339708  33.3367021  51.0373510   2.3709050  32.1038225  50.1695160
   2.4869622  37.6843031  48.6630943   2.0331949  36.8433941  48.7196134
   1.8563589  38.3204429  49.0005723   1.4302542  28.6135017  49.8931611
   0.6925299  28.1012403  50.2241853   1.6829315  28.1735399  49.0814887
   0.9302561  39.5219528  49.5980761   1.2225536  40.0824585  48.8793127
   1.4401182  39.8148089  50.3533920   5.0699557  33.8902382  48.2904173
   4.9317456  34.0803978  47.3625362   4.7135776  34.6521765  48.7472224
   5.0968937  35.9578909  53.3015444   5.5305444  35.8654198  54.1498498
   5.8100518  35.9336410  52.6635460   5.9584487  36.0002610  55.8348330
   6.1520377  36.9048420  56.0807604   5.8585105  35.5410029  56.6686915
   1.0199595  36.1509352  61.4089210   0.8685102  35.9219904  60.4919294
   1.0104275  37.1079954  61.4220555   1.0737670  34.4729567  41.8259912
   0.4566841  33.7476395  41.7292964   0.6054159  35.2338927  41.4826986
   2.7291802  39.1828475  59.4865692   2.6704348  38.4987695  58.8196275
   3.1311320  39.9247465  59.0346318   2.7309209  37.1468059  57.7179672
   1.8435988  36.8093981  57.8406071   3.3007760  36.4151090  57.9548437
   7.2126550  32.5576276  52.4796233   7.2016426  33.4400992  52.1090166
   6.3443929  32.2047827  52.2850770   3.8299124  31.4524917  48.9466399
   4.2959577  32.2852909  48.8726702   4.2806625  30.9869899  49.6511658
   1.8975355  37.7968739  45.9452551   2.1735199  37.6825333  46.8546425
   1.0279854  37.3986223  45.9064724   1.8015787  23.8205504  52.9857301
   0.8878867  24.0509731  53.1539508   2.2308889  23.9043948  53.8371333
   1.5722246  32.0095396  55.4857195   0.9193696  32.2571304  54.8309647
   1.9502625  31.1959534  55.1519672   1.2143476  38.8843392  62.0629502
   1.7583380  39.4973351  61.5684457   0.6330321  39.4422971  62.5796515
   1.5635897  39.8073130  54.8224080   0.6166233  39.6878482  54.7502407
   1.9118670  38.9195628  54.9050341   2.1716452  40.4254405  52.1093305
   3.0963000  40.2197267  51.9717756   2.0031756  40.1770806  53.0182647
   1.9611768  40.9440073  47.4655396   2.1348646  40.3786495  46.7129249
   2.4540660  41.7440968  47.2834886   7.8151160  33.7076496  49.0845696
   8.2582306  32.9583821  48.6864820   6.9377670  33.6986632  48.7019428
   2.9486941  40.2606837  44.5652295   3.6437846  40.8813530  44.7839609
   3.2910091  39.4102188  44.8404673   4.8478364  37.7106543  46.0939626
   5.3729688  38.0493815  45.3688946   4.7600717  36.7753558  45.9102760
   4.5372270  38.3439446  61.3990824   3.7467814  38.3263585  60.8595323
   4.3005625  38.8827740  62.1539860   4.6570145  35.1931913  58.7123552
   4.7068150  35.0281920  59.6539075   4.5484069  34.3259172  58.3221433
   1.9473908  31.1762841  60.0282859   2.8483770  31.0369306  59.7366857
   2.0221882  31.3417296  60.9681036   6.1588342  37.6128854  58.9565574
   5.8673150  37.9758835  59.7929035   5.5460473  36.8995863  58.7778906
   7.3584024  35.1781734  51.4768144   8.1930916  35.6171538  51.6405704
   7.4943153  34.7020387  50.6576390   4.4075530  32.7361469  57.4245632
   4.8829652  32.9289115  56.6164483   3.4841096  32.7920655  57.1789015
   3.1077199  29.6127229  55.6573937   4.0594622  29.7125327  55.6786161
   2.9380650  28.8205498  56.1672022   1.1291579  26.6982812  55.8433338
   0.5341511  26.9787825  55.1479827   0.8441275  27.1876713  56.6150079
   2.8887086  39.9671609  41.5639918   2.8100717  39.6331473  42.4575676
   3.7096753  40.4593377  41.5631391   5.5865277  32.8333349  54.7716237
   5.5541597  31.8949349  54.9575921   6.1965901  32.9117385  54.0382062
   5.7359766  29.6244392  54.8174520   5.2198814  28.8402849  54.6304449
   6.6199714  29.2963109  54.9821039   3.3970492  23.3685408  50.7770333
   3.1995314  23.0600496  51.6613665   4.0070198  24.0947047  50.9068263
  11.4041827  33.8949355  53.9122274  12.1345215  33.6334644  54.4729977
  10.7948772  33.1578077  53.9524342   9.4857124  32.0357218  54.5096725
   8.7590288  31.9013183  53.9013216   9.0704411  32.3434047  55.3153443
   2.5322946  25.3594840  48.0345528   1.9521615  26.0179644  47.6523581
   2.2658879  24.5372184  47.6232946   0.9826513  24.7599897  50.2366849
   1.4826291  24.8716432  49.4281167   1.6262120  24.4560950  50.8767657
   1.3147824  27.5194930  47.0901877   0.4273679  27.8044581  46.8722071
   1.7301813  27.3588693  46.2429153   4.6662360  27.5441451  50.8056216
   5.4422750  28.0337904  51.0780833   3.9410495  27.9699505  51.2628085
   7.1034919  28.2569070  51.8630156   7.6979410  28.0164806  51.1523465
   7.1761503  27.5376201  52.4903693   1.2888848  33.0349466  47.3052167
   1.2324049  33.4918017  46.4659799   1.8417190  32.2740151  47.1275009
   5.0993654  28.8239198  48.1302286   4.8430588  28.4235834  48.9610494
   4.4746522  29.5382992  48.0052425   9.4105992  31.5635271  50.6373578
   8.8505550  31.6328460  51.4105140   8.8049495  31.3876256  49.9173074
   2.3677735  37.7222134  43.2348357   3.2023339  37.2903332  43.0525831
   2.2062078  37.5504148  44.1625251   2.0223627  34.2254247  44.6004696
   1.9672431  34.0598519  43.6593140   1.3969683  34.9330280  44.7566886
  10.9962010  48.2391785  53.3303533  11.6340420  48.1198532  52.6266873
  10.8782853  49.1872629  53.3891485   7.8051716  48.1919213  53.2665058
   7.4670228  48.0760278  52.3785593   8.6741485  47.7910378  53.2466064
   3.6638532  50.0454690  49.2561949   3.1003397  49.9544627  48.4878237
   3.5490927  49.2254594  49.7364441   8.2871499  49.3454065  59.2251264
   8.2760140  48.9506863  58.3531767   8.4492139  48.6120138  59.8185035
   1.2102964  51.5405881  52.0946169   2.0024256  51.1996706  51.6792469
   1.4499614  51.6500856  53.0148323   9.2438091  53.7125657  44.5676414
   8.5926071  54.2979738  44.1810428  10.0382454  54.2431852  44.6271451
   3.1693718  50.8014794  44.9663548   3.9424594  50.2543782  44.8276424
   3.5219117  51.6659044  45.1778010   5.0078761  52.1291177  58.1730448
   4.7168627  53.0336808  58.0577114   5.6435745  52.1707704  58.8874517
   5.9334967  49.5068025  54.7631807   6.5298540  49.2824048  54.0488770
   5.9909939  48.7652771  55.3657255   5.5059996  46.9607461  42.5981998
   5.7585517  46.4388982  41.8365461   4.5684555  46.7973606  42.7008682
  10.5503279  45.9643239  50.4056741  11.3366368  45.5462662  50.0547158
  10.8141983  46.8689331  50.5738390  10.7213356  51.4016089  45.1045398
  10.0859189  51.4750716  45.8166303  10.3910762  51.9909688  44.4264477
  15.9511706  45.9018472  51.3089720  16.6836878  45.3317689  51.5427549
  15.1951061  45.5140073  51.7496225   5.2256285  48.8635567  44.8006373
   5.1092543  48.1880470  45.4687457   5.3358544  48.3767940  43.9838526
   7.5687826  48.3245714  48.5053062   7.2046033  47.7976335  49.2165984
   8.4254941  47.9344183  48.3319548  13.4737126  39.6140046  55.7684328
  13.1420451  40.4835457  55.5445543  12.8782740  39.2976330  56.4478359
   7.2093312  43.3535613  43.5014411   7.3767715  44.2215850  43.8684882
   7.0190482  43.5162895  42.5775700   9.9668646  51.8152592  55.1680241
   9.6669369  52.7177631  55.0596048   9.6219705  51.5484775  56.0201394
   3.4181127  48.2666389  51.2016946   2.4931624  48.1342603  51.4094637
   3.6665540  49.0460608  51.6986888  13.3665789  44.3335132  52.8477679
  12.4582667  44.2650541  52.5536440  13.3153385  44.8107077  53.6759504
   7.1882533  45.8093271  44.4861078   7.0682159  46.2550322  45.3246558
   6.4935122  46.1578588  43.9274616   4.9489425  58.5796913  48.1351209
   4.8713455  59.5304738  48.2139689   4.3451069  58.2342785  48.7926135
   7.4406655  45.7524778  60.7912576   6.6639989  46.3118698  60.7815440
   8.0797218  46.2381561  61.3127446  15.2327436  42.5351571  54.6255552
  14.5901816  42.8284104  53.9795347  14.7282364  42.4204491  55.4308749
  12.8867600  46.2814744  45.3141412  13.7985456  46.5142131  45.1389109
  12.3777247  46.8651788  44.7516490   5.6953028  48.5610231  60.3530543
   6.4367712  49.0995275  60.0765366   4.9890013  49.1876520  60.5102095
  11.1708367  50.7039372  58.9502704  11.5791723  50.2621782  58.2057337
  10.4485629  50.1291999  59.2036897   7.5239437  45.6411979  56.3236261
   8.3700632  46.0651392  56.4670910   7.4638075  44.9845603  57.0174824
  11.4937182  51.2640562  52.7054993  10.8646044  51.4286277  52.0031061
  11.1062844  51.6782172  53.4765957  15.3726414  52.1995000  50.0599357
  14.6877452  52.5793902  49.5096390  15.4570263  52.8090327  50.7931305
  10.6738883  43.3016347  57.9817435  10.4299814  44.0558407  57.4451711
  10.9498813  43.6801695  58.8164682  12.6277345  49.8454959  56.6594700
  12.8394241  50.4886719  55.9829082  12.5807094  49.0117276  56.1916631
  10.2303574  42.4572780  53.5631273   9.3688053  42.7554034  53.8548010
  10.2566009  42.6743179  52.6312305   7.0465144  51.0014971  49.9705078
   7.5103489  51.2802674  49.1809701   6.7821942  50.0998415  49.7878169
   3.9389225  50.5486452  52.9084842   4.5090582  50.9773720  52.2702326
   4.5297337  50.2669037  53.6069027   5.9834030  47.1238123  46.7794643
   6.6858073  47.5759167  47.2468570   5.6514658  46.4821942  47.4074537
   4.4314391  45.7149880  61.1545853   3.8013052  46.3966160  61.3881250
   4.3250479  45.6032961  60.2098991  13.7423173  52.7226915  54.8317058
  14.5640617  52.3207102  54.5499739  13.7385576  52.6195149  55.7833174
   1.6774109  45.7466255  49.0395254   0.8805272  45.8584949  49.5578749
   1.4499701  46.0852907  48.1736144   7.5079777  52.2710958  56.9877768
   7.5724209  52.7331365  57.8235940   6.7990701  51.6408323  57.1160078
  21.8329166  49.0665663  51.1802029  21.0792875  48.4973061  51.0246034
  21.9676708  49.0328328  52.1272664   7.2227794  53.9379066  46.8556749
   7.0873469  54.7830601  47.2841596   7.7637607  54.1398343  46.0922682
   3.7095134  40.0170645  63.5171104   3.3162080  39.4636844  64.1918748
   4.5261274  40.3281224  63.9077621   0.6757192  51.4554504  47.4284674
   1.1881712  52.2497754  47.5790238   1.3279905  50.7580794  47.3618275
   2.4852076  54.5720260  49.5107427   2.6618705  55.4938225  49.3228411
   3.2808910  54.2578679  49.9401807   6.6263095  41.4328524  61.1091360
   7.3672808  42.0335678  61.0295823   6.8581018  40.6906162  60.5509403
   1.7704433  46.6184892  59.3869590   1.6557948  45.7170149  59.6876689
   0.9148951  46.8648588  59.0354407   8.8496271  54.5602632  60.9857091
   8.4060125  53.7739011  60.6677995   9.5113484  54.7481783  60.3200982
   3.6083392  56.0898434  55.5117769   4.1590817  55.9615497  54.7394763
   2.7694868  56.3893323  55.1612662  10.9477509  54.8405432  59.0138492
  10.9295984  55.6614313  58.5218761  11.8697429  54.7159507  59.2388633
   7.4050563  52.3549561  59.8562000   7.9378900  51.5937850  59.6261308
   6.8764644  52.0623213  60.5986155  10.5720258  37.4609627  55.3855642
  10.2284527  38.3511269  55.3094753  10.9399221  37.2711285  54.5225227
  10.5370541  47.4518238  43.8928077  10.0217164  48.2222843  44.1316465
  10.2647849  46.7783375  44.5161139   8.1217652  42.2967939  48.9513316
   7.2659248  41.9074790  48.7718954   8.5344603  42.3759900  48.0913101
   9.6516798  39.8314283  53.3504875   9.1481594  39.7944418  52.5372681
   9.9447405  40.7407025  53.4101532   5.8959684  39.9153012  52.3571057
   6.7612681  39.7195821  51.9976947   5.9637193  39.6863364  53.2840414
  15.5104815  50.2050593  45.8281251  14.7334258  49.8661753  45.3836413
  16.1896296  50.2103216  45.1536216  10.3256844  45.3245331  45.7187858
  10.0206979  45.6391480  46.5698002  11.2787286  45.4026750  45.7615191
   8.7703276  51.4835554  47.3680812   8.2424637  50.7488313  47.0554050
   8.2690778  52.2610230  47.1220781  13.7496122  49.6784574  52.4847859
  13.0919796  50.3683836  52.5727987  14.5536521  50.0681006  52.8281845
   3.5022003  42.1455220  49.7287424   4.0765755  41.9230402  48.9960617
   4.0892986  42.2143915  50.4816025  12.5601581  48.0328947  50.5351800
  13.0733462  48.6658939  51.0373510  13.2102804  47.4330143  50.1695160
   3.8291590  44.1759681  43.7483309   2.9928903  44.5134368  44.0692584
   3.6896360  44.0408661  42.8110446   5.8044671  39.0196469  48.4562493
   5.1509083  38.7045486  47.8319108   5.7625145  38.3972210  49.1822316
   6.9155876  49.3015764  40.3715785   6.0082938  49.0705018  40.5706934
   7.4126908  48.5053383  40.5589767   9.8223955  58.0113271  43.2912472
   9.1485654  58.3144968  43.8997429  10.2089777  58.8142352  42.9417929
   9.0382411  45.5078403  52.7810141   8.1204973  45.7293350  52.6231829
   9.4542555  45.5824713  51.9221848   9.8217459  46.9069818  47.9112821
  10.5689278  47.4191216  47.6019943  10.0909049  46.5853871  48.7717215
   8.0944109  49.4028359  44.8939776   7.1855329  49.1187392  44.9912245
   8.1239193  49.8227438  44.0343082  13.3263377  53.0134949  48.6630943
  12.8725704  52.1725858  48.7196134  12.6957343  53.6496347  49.0005723
  12.2696296  43.9426935  49.8931611  11.5319053  43.4304321  50.2241853
  12.5223070  43.5027316  49.0814887  11.7696316  54.8511445  49.5980761
  12.0619290  55.4116502  48.8793127  12.2794937  55.1440006  50.3533920
  12.3707924  36.7203187  50.4873380  12.6766800  35.8600550  50.1999295
  13.0960528  37.3120807  50.2872374   6.6429003  47.0156980  50.9949571
   6.6977613  46.0630816  50.9192047   5.8320205  47.1716419  51.4790869
   7.7920197  50.9437103  42.2327854   7.3539627  50.2272962  41.7733491
   8.5330638  51.1713218  41.6712945   4.5821363  45.6334039  48.7539950
   3.7689229  45.9328210  49.1605142   5.0780357  45.2389728  49.4714432
   6.7329941  55.6291796  50.6874214   6.6906120  55.8552643  49.7582746
   7.6492640  55.3955171  50.8360016  10.1795575  46.0975864  57.5854844
  10.5344963  46.3247337  58.4449309  10.8267706  46.4294241  56.9632099
  15.9093312  49.2194300  48.2904173  15.7711210  49.4095896  47.3625362
  15.5529531  49.9813683  48.7472224   4.0735438  43.2052395  54.3701185
   4.7134817  43.0641154  53.6724148   3.2412969  42.9186908  53.9939787
  15.9362691  51.2870827  53.3015444  16.3699198  51.1946116  54.1498498
  16.6494272  51.2628327  52.6635460   4.8495742  52.5054825  50.4836177
   5.6436340  52.0105145  50.2818752   4.1387434  51.9772688  50.1203883
   9.6690586  54.8872921  54.8348545   9.7227609  55.4563857  55.6026261
   8.8005368  55.0574806  54.4702582   1.0764054  43.1752720  49.1474171
   1.3370872  44.0898053  49.0383332   1.8981227  42.7077162  49.2970784
   2.5488980  44.5890477  56.3172996   3.2212033  44.3807839  55.6685645
   1.7218766  44.3912563  55.8778228  16.7978241  51.3294527  55.8348330
  16.9914131  52.2340338  56.0807604  16.6978859  50.8701946  56.6686915
   8.4514552  41.2152418  58.3338657   7.8042467  41.9142368  58.2403133
   9.2215567  41.6488562  58.7014905  11.8593350  51.4801270  61.4089210
  11.7078856  51.2511822  60.4919294  11.8498029  52.4371872  61.4220555
   8.6278686  49.0533183  56.3935477   9.5570746  49.2044343  56.2204444
   8.2069716  49.1417204  55.5384123   7.4267018  53.0783847  54.1634014
   7.2878104  52.7102632  55.0359952   6.6381614  53.5931487  53.9917972
   8.0215170  58.1792944  45.5059551   8.1966926  57.7080987  46.3205173
   7.3347958  58.8058710  45.7340811   8.9772233  52.4565450  51.5522852
   8.6422066  52.4166220  52.4480502   8.4776179  51.7910166  51.0793262
   2.9516477  47.8633080  57.0775433   2.8136275  47.1313319  57.6786972
   3.8621400  47.7741980  56.7959621  11.9131425  49.8021484  41.8259912
  11.2960595  49.0768313  41.7292964  11.4447913  50.5630845  41.4826986
   5.5798778  47.5753039  56.5659113   6.2898396  46.9346232  56.5245731
   5.5368086  47.8265934  57.4885294  13.5685556  54.5120393  59.4865692
  13.5098103  53.8279613  58.8196275  13.9705075  55.2539383  59.0346318
   4.2927712  44.5618257  58.3854752   3.7565069  44.1108996  59.0376349
   3.7044420  44.6964166  57.6425217   2.5876255  61.3282307  52.2799411
   2.8272853  61.9600831  52.9578429   1.7445452  60.9770347  52.5664770
   3.7029971  44.0206909  40.9481216   2.8259437  43.8995709  40.5843463
   4.1787724  43.2292987  40.6960105  13.5702964  52.4759977  57.7179672
  12.6829742  52.1385898  57.8406071  14.1401515  51.7443008  57.9548437
   7.1004117  57.1361429  54.6840915   7.0274289  57.9416400  55.1960219
   6.6581510  57.3353395  53.8588936   6.8893897  56.3733199  48.1943736
   6.1061419  56.9154879  48.2881961   7.5886642  56.8907179  48.5937978
  10.1990547  42.1827828  50.8377942  10.6959246  41.4297791  50.5179012
   9.4277528  42.2192145  50.2721151  18.0520304  47.8868194  52.4796233
  18.0410180  48.7692909  52.1090166  17.1837684  47.5339745  52.2850770
   9.5602801  57.0348263  56.8399074  10.2730773  57.6695728  56.7674975
   9.0692829  57.1312129  56.0239075  11.2820327  50.9399516  48.4116365
  10.3476606  51.0600978  48.2421070  11.4596996  50.0371982  48.1476375
   6.7825516  44.3245211  50.5649626   6.4123303  43.7716252  51.2530532
   7.2784608  43.7203345  50.0124626  14.6692879  46.7816835  48.9466399
  15.1353331  47.6144827  48.8726702  15.1200379  46.3161817  49.6511658
   4.6114714  54.7842706  57.6604644   5.3124174  55.4179189  57.8134039
   4.1409829  55.1257438  56.9000284  12.7369110  53.1260656  45.9452551
  13.0128954  53.0117251  46.8546425  11.8673609  52.7278141  45.9064724
  12.6409542  39.1497422  52.9857301  11.7272621  39.3801649  53.1539508
  13.0702643  39.2335866  53.8371333  12.4116000  47.3387314  55.4857195
  11.7587450  47.5863221  54.8309647  12.7896380  46.5251452  55.1519672
   9.3723174  57.3747007  49.5885365   9.5545568  56.5568663  50.0513117
  10.1956160  57.5914699  49.1510255   9.7065339  56.3015192  46.8500414
  10.2353106  55.7907647  46.2370576   9.9693559  55.9857722  47.7145947
   8.4603573  48.0807125  61.9723232   7.7844210  47.9801254  62.6425607
   9.2831207  47.9246339  62.4359229   3.0621087  57.3530309  49.6098189
   2.3931463  57.8376437  49.1262229   2.9233957  57.5999529  50.5241568
   7.2026356  59.3874052  56.2080848   7.7544664  59.5505674  56.9729933
   7.5432549  59.9778490  55.5360873   2.1790849  41.7349202  56.8102733
   2.2432176  42.5964033  56.3980130   2.1157969  41.1223204  56.0775091
   1.6543122  43.8072335  60.4575767   2.2815161  43.4249412  61.0713291
   0.7971041  43.5886537  60.8231459  12.0537230  54.2135310  62.0629502
  12.5977134  54.8265268  61.5684457  11.4724075  54.7714888  62.5796515
  10.3394743  57.3356028  53.1944530  10.2145883  56.5345768  52.6855475
  10.9973834  57.8302221  52.7058500   1.9602911  43.6904760  52.3721670
   1.2389497  44.3040728  52.2329144   2.7496167  44.2262525  52.2938316
  12.4029652  55.1365048  54.8224080  11.4559987  55.0170399  54.7502407
  12.7512425  54.2487546  54.9050341   4.7629225  41.0259187  58.6462322
   5.2863627  41.2721484  59.4088631   4.5441558  41.8579222  58.2265459
   9.4076085  54.9317764  51.0228432   9.2601047  54.0034472  51.2036002
  10.2329578  54.9537855  50.5385508   3.2738329  43.5835831  46.8808924
   3.6134402  44.1121753  46.1587533   3.7210450  43.9216237  47.6567491
  13.0110207  55.7546323  52.1093305  13.9356754  55.5489184  51.9717756
  12.8425510  55.5062724  53.0182647   5.9681770  41.9672882  56.3311992
   5.6278590  41.1680695  56.7332672   5.2620776  42.2674593  55.7588826
   6.6198242  39.0522194  54.7839316   7.4424311  38.5782673  54.6618206
   6.8636305  39.8312678  55.2838002   5.2606476  42.0810453  45.0802217
   5.9814839  42.4591706  44.5765934   4.6371780  42.7999330  45.1837195
   9.4037599  42.7855602  46.0160550   9.6201214  43.6680240  45.7149378
   8.9231666  42.3941815  45.2866192   4.1436821  45.7441315  52.5931294
   3.9981401  46.0581618  53.4855576   3.6662024  46.3626215  52.0402193
   6.0033204  42.7343863  52.6412184   5.9894772  41.8384956  52.3044482
   6.7205632  42.7414527  53.2750470   7.8559334  43.1681203  54.6865311
   7.5977112  44.0898274  54.6849642   7.3244375  42.7711638  55.3765775
  12.8005523  56.2731990  47.4655396  12.9742401  55.7078413  46.7129249
  13.2934414  57.0732885  47.2834886   5.4070099  41.6158243  47.9099754
   5.5286011  40.6874890  48.1090641   5.1172142  41.6296929  46.9978069
   8.2761290  39.3013154  51.0466474   8.2982987  39.3652487  50.0918453
   8.6929349  38.4617662  51.2406980  18.6544914  49.0368413  49.0845696
  19.0976060  48.2875739  48.6864820  17.7771424  49.0278550  48.7019428
  13.7880695  55.5898755  44.5652295  14.4831600  56.2105448  44.7839609
  14.1303846  54.7394106  44.8404673  15.6872119  53.0398460  46.0939626
  16.2123443  53.3785733  45.3688946  15.5994471  52.1045476  45.9102760
   7.3492167  56.9532534  58.2229502   7.6579294  56.7081681  59.0952202
   8.1467649  57.1579173  57.7348372   7.3712779  59.1070444  50.4534879
   6.9317770  58.6146822  51.1467735   8.1220896  58.5643411  50.2126954
   4.8186651  54.6508453  52.5257180   4.1966661  53.9879158  52.2259408
   5.4891518  54.6769585  51.8430828   4.8911179  43.1290241  62.1189686
   4.9399334  44.0052364  61.7367456   5.4333693  42.5867634  61.5461330
  15.3766025  53.6731364  61.3990824  14.5861568  53.6555503  60.8595323
  15.1399379  54.2119658  62.1539860  15.4963900  50.5223830  58.7123552
  15.5461905  50.3573838  59.6539075  15.3877823  49.6551089  58.3221433
   4.3800158  53.2012376  46.0015641   4.5288279  53.8847840  45.3482314
   5.1866602  53.1817466  46.5165097  12.7867662  46.5054758  60.0282859
  13.6877525  46.3661223  59.7366857  12.8615637  46.6709213  60.9681036
   7.1210467  43.8821613  58.8736045   6.2513777  44.1755179  58.6018634
   7.3569948  44.4662058  59.5943309  16.9982097  52.9420772  58.9565574
  16.7066905  53.3050752  59.7929035  16.3854228  52.2287780  58.7778906
  18.1977779  50.5073652  51.4768144  19.0324670  50.9463456  51.6405704
  18.3336908  50.0312305  50.6576390  15.2469285  48.0653387  57.4245632
  15.7223406  48.2581033  56.6164483  14.3234850  48.1212572  57.1789015
   2.1352791  49.2277554  47.0076710   1.8898833  48.3239884  47.2056920
   2.3048706  49.2294704  46.0656188   9.8249501  40.1001230  56.3901465
  10.3431445  40.8362257  56.0647954   9.4704634  40.4065223  57.2248225
   1.4048439  44.9605911  44.5062871   0.7117684  45.0350266  43.8502907
   1.1600191  44.1966255  45.0284388  10.0762095  36.5201513  51.9102362
  10.3563849  35.8524702  52.5362789  10.8612702  36.7130608  51.3977026
   7.8795564  55.6960507  43.4727388   7.3069531  56.3150694  43.0197860
   8.4528358  56.2459868  44.0067310  13.9470954  44.9419147  55.6573937
  14.8988377  45.0417244  55.6786161  13.7774404  44.1497415  56.1672022
  11.9685333  42.0274730  55.8433338  11.3735265  42.3079743  55.1479827
  11.6835030  42.5168631  56.6150079  11.0992824  55.9797657  44.6035971
  12.0323497  55.9143218  44.8068846  11.0116037  56.8153924  44.1450503
  13.7280840  55.2963527  41.5639918  13.6494472  54.9623391  42.4575676
  14.5490507  55.7885295  41.5631391  16.4259032  48.1625266  54.7716237
  16.3935352  47.2241267  54.9575921  17.0359655  48.2409303  54.0382062
   8.2642362  47.0321319  40.8143441   9.2101467  46.9027527  40.8831859
   7.8856607  46.2935981  41.2912869  16.5753520  44.9536310  54.8174520
  16.0592569  44.1694766  54.6304449  17.4593469  44.6255026  54.9821039
  14.2364247  38.6977325  50.7770333  14.0389068  38.3892414  51.6613665
  14.8463953  39.4238964  50.9068263  22.2435581  49.2241273  53.9122274
  22.9738970  48.9626561  54.4729977  21.6342527  48.4869995  53.9524342
  20.3250879  47.3649136  54.5096725  19.5984042  47.2305101  53.9013216
  19.9098165  47.6725964  55.3153443   8.1481055  51.0839065  62.2744098
   9.0684064  51.2617664  62.4684144   8.1130638  50.1395111  62.1223797
   6.4485280  44.9571296  40.7498326   5.5416735  44.6604408  40.8261040
   6.7261261  44.6601114  39.8832612   1.1443128  48.9940100  54.9166879
   1.3629137  49.9257208  54.9354913   1.5568901  48.6348074  55.7021683
   8.0647345  39.5008185  46.9042567   7.2548074  39.1555270  47.2797813
   8.7531762  39.1915729  47.4930179   9.9937894  38.5786232  48.5266864
  10.5468932  38.9981686  49.1856887  10.2307980  37.6521980  48.5689820
   6.0170993  44.5673306  64.3069628   5.9167720  45.5167663  64.2381719
   5.7992535  44.2391545  63.4345698   5.2184064  41.8158231  40.8910305
   6.0803228  42.1413129  41.1506123   5.4034408  41.0289727  40.3783371
  13.3716701  40.6886757  48.0345528  12.7915370  41.3471561  47.6523581
  13.1052633  39.8664102  47.6232946  11.8220267  40.0891815  50.2366849
  12.3220045  40.2008350  49.4281167  12.4655875  39.7852868  50.8767657
   5.8802263  47.9970445  63.1234690   5.3969345  48.7970805  63.3298579
   5.9663202  48.0078390  62.1702134   1.8075600  51.8874979  55.1603123
   2.7618854  51.8558922  55.0933055   1.6088124  51.4265603  55.9753349
   2.3974982  50.4576095  57.7273921   3.2167871  50.9520174  57.7508758
   2.6711790  49.5408064  57.6991489  12.1541579  42.8486848  47.0901877
  11.2667434  43.1336498  46.8722071  12.5695568  42.6880611  46.2429153
  15.5056115  42.8733369  50.8056216  16.2816505  43.3629821  51.0780833
  14.7804249  43.2991423  51.2628085  17.9428673  43.5860988  51.8630156
  18.5373164  43.3456724  51.1523465  18.0155257  42.8668119  52.4903693
  11.2984792  52.6131522  41.1849897  12.0020642  52.8181525  41.8007552
  10.5747441  53.1808284  41.4498980  12.1282602  48.3641384  47.3052167
  12.0717804  48.8209935  46.4659799  12.6810945  47.6032068  47.1275009
  15.9387408  44.1531116  48.1302286  15.6824343  43.7527751  48.9610494
  15.3140276  44.8674909  48.0052425  20.2499746  46.8927189  50.6373578
  19.6899304  46.9620378  51.4105140  19.6443250  46.7168173  49.9173074
   3.3194955  58.3263916  52.3891764   3.2027339  59.2709348  52.2870454
   2.4987401  58.0237477  52.7777563  13.2071490  53.0514052  43.2348357
  14.0417093  52.6195250  43.0525831  13.0455832  52.8796065  44.1625251
  12.8617382  49.5546165  44.6004696  12.8066186  49.3890436  43.6593140
  12.2363437  50.2622198  44.7566886  10.1763289  51.8595077  63.9258259
  11.0454449  52.0335729  63.5644894   9.6970040  52.6789494  63.8033988
   6.1713507  39.0554274  44.1790014   6.1592177  39.9996114  44.3358285
   7.0636929  38.8724419  43.8849475   4.3449469  58.9792178  55.6047692
   5.2476716  59.0115788  55.9214187   4.1186839  58.0492629  55.6194028
   6.1003071  57.7323164  52.2657771   5.1498702  57.7325026  52.1522143
   6.4035557  56.9855899  51.7493806   9.9865627  35.6497051  48.4335951
   9.2198022  35.0955537  48.5792633  10.3976332  35.7218919  49.2950103
   1.9907388  41.9381846  62.5241132   2.8538849  41.5818651  62.7344457
   1.4172798  41.5995741  63.2116537  21.8355765  63.5683703  53.3303533
  22.4734175  63.4490450  52.6266873  21.7176608  64.5164547  53.3891485
  18.6445471  63.5211131  53.2665058  18.3063982  63.4052196  52.3785593
  19.5135239  63.1202296  53.2466064  14.5032287  65.3746607  49.2561949
  13.9397152  65.2836544  48.4878237  14.3884682  64.5546512  49.7364441
  19.1265254  64.6745983  59.2251264  19.1153895  64.2798781  58.3531767
  19.2885893  63.9412055  59.8185035  12.0496719  66.8697799  52.0946169
  12.8418010  66.5288623  51.6792469  12.2893369  66.9792774  53.0148323
  20.0831845  69.0417575  44.5676414  19.4319825  69.6271655  44.1810428
  20.8776208  69.5723770  44.6271451  14.0087472  66.1306712  44.9663548
  14.7818348  65.5835699  44.8276424  14.3612871  66.9950961  45.1778010
  15.8472515  67.4583094  58.1730448  15.5562381  68.3628725  58.0577114
  16.4829499  67.4999622  58.8874517  16.7728722  64.8359943  54.7631807
  17.3692294  64.6115965  54.0488770  16.8303693  64.0944688  55.3657255
  16.3453750  62.2899378  42.5981998  16.5979271  61.7680899  41.8365461
  15.4078309  62.1265524  42.7008682  21.3897033  61.2935157  50.4056741
  22.1760122  60.8754580  50.0547158  21.6535737  62.1981249  50.5738390
  21.5607110  66.7308007  45.1045398  20.9252943  66.8042633  45.8166303
  21.2304517  67.3201606  44.4264477  26.7905460  61.2310390  51.3089720
  27.5230632  60.6609607  51.5427549  26.0344816  60.8431990  51.7496225
  16.0650039  64.1927484  44.8006373  15.9486297  63.5172388  45.4687457
  16.1752299  63.7059858  43.9838526  18.4081580  63.6537631  48.5053062
  18.0439787  63.1268252  49.2165984  19.2648696  63.2636100  48.3319548
  24.3130881  54.9431964  55.7684328  23.9814205  55.8127375  55.5445543
  23.7176494  54.6268248  56.4478359  18.0487067  58.6827531  43.5014411
  18.2161469  59.5507767  43.8684882  17.8584236  58.8454813  42.5775700
  20.8062400  67.1444510  55.1680241  20.5063123  68.0469549  55.0596048
  20.4613460  66.8776693  56.0201394  14.2574882  63.5958307  51.2016946
  13.3325378  63.4634521  51.4094637  14.5059295  64.3752526  51.6986888
  24.2059544  59.6627050  52.8477679  23.2976421  59.5942458  52.5536440
  24.1547140  60.1398995  53.6759504  18.0276288  61.1385188  44.4861078
  17.9075913  61.5842239  45.3246558  17.3328876  61.4870506  43.9274616
  11.6183693  63.2391580  52.0360735  11.7476074  63.4926059  52.9500146
  10.9381144  63.8319288  51.7165390  15.7883180  73.9088830  48.1351209
  15.7107210  74.8596655  48.2139689  15.1844824  73.5634703  48.7926135
  18.2800410  61.0816696  60.7912576  17.5033744  61.6410616  60.7815440
  18.9190973  61.5673479  61.3127446  26.0721190  57.8643488  54.6255552
  25.4295571  58.1576022  53.9795347  25.5676119  57.7496409  55.4308749
  23.7261354  61.6106662  45.3141412  24.6379210  61.8434048  45.1389109
  23.2171001  62.1943706  44.7516490  16.5346782  63.8902149  60.3530543
  17.2761466  64.4287193  60.0765366  15.8283767  64.5168438  60.5102095
  22.0102122  66.0331289  58.9502704  22.4185478  65.5913700  58.2057337
  21.2879383  65.4583917  59.2036897  18.3633192  60.9703896  56.3236261
  19.2094387  61.3943310  56.4670910  18.3031829  60.3137521  57.0174824
  22.3330936  66.5932480  52.7054993  21.7039799  66.7578194  52.0031061
  21.9456598  67.0074090  53.4765957  26.2120168  67.5286918  50.0599357
  25.5271206  67.9085819  49.5096390  26.2964018  68.1382245  50.7931305
  21.5132637  58.6308265  57.9817435  21.2693569  59.3850325  57.4451711
  21.7892568  59.0093612  58.8164682  23.4671100  65.1746877  56.6594700
  23.6787995  65.8178637  55.9829082  23.4200848  64.3409194  56.1916631
  21.0697329  57.7864698  53.5631273  20.2081808  58.0845951  53.8548010
  21.0959763  58.0035097  52.6312305  17.8858898  66.3306888  49.9705078
  18.3497244  66.6094591  49.1809701  17.6215696  65.4290333  49.7878169
  14.7782979  65.8778370  52.9084842  15.3484336  66.3065638  52.2702326
  15.3691091  65.5960954  53.6069027  16.8227784  62.4530041  46.7794643
  17.5251828  62.9051084  47.2468570  16.4908413  61.8113859  47.4074537
  15.2708146  61.0441797  61.1545853  14.6406806  61.7258078  61.3881250
  15.1644234  60.9324879  60.2098991  10.5653118  60.7113593  52.0811777
   9.7752172  60.9671122  51.6051888  11.0564366  61.5261931  52.1863818
  24.5816928  68.0518832  54.8317058  25.4034371  67.6499020  54.5499739
  24.5779331  67.9487067  55.7833174  12.5167864  61.0758172  49.0395254
  11.7199027  61.1876867  49.5578749  12.2893456  61.4144825  48.1736144
  18.3473531  67.6002876  56.9877768  18.4117964  68.0623283  57.8235940
  17.6384455  66.9700241  57.1160078   8.8490821  60.9644084  54.5126768
   9.0998860  61.8491094  54.7784344   9.3850370  60.7848685  53.7401860
  32.6722921  64.3957581  51.1802029  31.9186629  63.8264979  51.0246034
  32.8070462  64.3620245  52.1272664  18.0621549  69.2670983  46.8556749
  17.9267224  70.1122519  47.2841596  18.6031361  69.4690261  46.0922682
  14.5488889  55.3462563  63.5171104  14.1555834  54.7928762  64.1918748
  15.3655029  55.6573142  63.9077621  11.5150946  66.7846421  47.4284674
  12.0275467  67.5789671  47.5790238  12.1673659  66.0872712  47.3618275
  13.3245831  69.9012178  49.5107427  13.5012459  70.8230142  49.3228411
  14.1202664  69.5870597  49.9401807  17.4656849  56.7620442  61.1091360
  18.2066563  57.3627595  61.0295823  17.6974772  56.0198080  60.5509403
  12.6098188  61.9476809  59.3869590  12.4951703  61.0462067  59.6876689
  11.7542705  62.1940506  59.0354407  19.6890025  69.8894550  60.9857091
  19.2453879  69.1030928  60.6677995  20.3507239  70.0773700  60.3200982
  14.4477146  71.4190351  55.5117769  14.9984572  71.2907415  54.7394763
  13.6088622  71.7185240  55.1612662  21.7871263  70.1697350  59.0138492
  21.7689739  70.9906231  58.5218761  22.7091183  70.0451425  59.2388633
  18.2444317  67.6841479  59.8562000  18.7772654  66.9229767  59.6261308
  17.7158399  67.3915131  60.5986155  21.4114012  52.7901545  55.3855642
  21.0678282  53.6803187  55.3094753  21.7792975  52.6003203  54.5225227
   9.4799863  65.1135076  48.2044244  10.3175085  65.5232084  47.9877952
   9.6578131  64.1734518  48.1744438  21.3764295  62.7810156  43.8928077
  20.8610919  63.5514761  44.1316465  21.1041604  62.1075292  44.5161139
  18.9611406  57.6259857  48.9513316  18.1053003  57.2366707  48.7718954
  19.3738358  57.7051818  48.0913101  20.4910553  55.1606200  53.3504875
  19.9875348  55.1236335  52.5372681  20.7841160  56.0698943  53.4101532
  16.7353439  55.2444930  52.3571057  17.6006435  55.0487739  51.9976947
  16.8030948  55.0155282  53.2840414  26.3498569  65.5342511  45.8281251
  25.5728012  65.1953670  45.3836413  27.0290050  65.5395134  45.1536216
  21.1650598  60.6537248  45.7187858  20.8600734  60.9683397  46.5698002
  22.1181040  60.7318668  45.7615191  19.6097030  66.8127472  47.3680812
  19.0818392  66.0780231  47.0554050  19.1084533  67.5902148  47.1220781
  24.5889876  65.0076492  52.4847859  23.9313551  65.6975753  52.5727987
  25.3930275  65.3972924  52.8281845  14.3415758  57.4747138  49.7287424
  14.9159510  57.2522319  48.9960617  14.9286740  57.5435832  50.4816025
  23.3995335  63.3620865  50.5351800  23.9127217  63.9950857  51.0373510
  24.0496559  62.7622060  50.1695160  14.6685345  59.5051599  43.7483309
  13.8322657  59.8426285  44.0692584  14.5290115  59.3700579  42.8110446
  16.6438425  54.3488387  48.4562493  15.9902838  54.0337404  47.8319108
  16.6018900  53.7264127  49.1822316  17.7549630  64.6307682  40.3715785
  16.8476692  64.3996935  40.5706934  18.2520662  63.8345301  40.5589767
  20.6617709  73.3405189  43.2912472  19.9879408  73.6436886  43.8997429
  21.0483531  74.1434269  42.9417929  19.8776166  60.8370320  52.7810141
  18.9598727  61.0585267  52.6231829  20.2936309  60.9116631  51.9221848
  20.6611214  62.2361736  47.9112821  21.4083033  62.7483133  47.6019943
  20.9302803  61.9145789  48.7717215  18.9337864  64.7320277  44.8939776
  18.0249083  64.4479310  44.9912245  18.9632948  65.1519355  44.0343082
  24.1657131  68.3426866  48.6630943  23.7119458  67.5017776  48.7196134
  23.5351098  68.9788265  49.0005723  23.1090051  59.2718852  49.8931611
  22.3712808  58.7596238  50.2241853  23.3616824  58.8319234  49.0814887
  22.6090070  70.1803363  49.5980761  22.9013045  70.7408420  48.8793127
  23.1188691  70.4731924  50.3533920  23.2101678  52.0495104  50.4873380
  23.5160555  51.1892468  50.1999295  23.9354283  52.6412724  50.2872374
   9.5026034  62.4525791  48.8754978   9.3050434  61.8595152  48.1506044
   8.9472698  62.1478001  49.5930916  17.4822758  62.3448897  50.9949571
  17.5371368  61.3922734  50.9192047  16.6713960  62.5008336  51.4790869
  18.6313952  66.2729020  42.2327854  18.1933382  65.5564879  41.7733491
  19.3724392  66.5005135  41.6712945  15.4215118  60.9625957  48.7539950
  14.6082983  61.2620128  49.1605142  15.9174112  60.5681646  49.4714432
  17.5723696  70.9583714  50.6874214  17.5299874  71.1844560  49.7582746
  18.4886394  70.7247089  50.8360016  21.0189329  61.4267782  57.5854844
  21.3738717  61.6539255  58.4449309  21.6661461  61.7586158  56.9632099
  26.7487066  64.5486217  48.2904173  26.6104965  64.7387813  47.3625362
  26.3923285  65.3105600  48.7472224  14.9129193  58.5344313  54.3701185
  15.5528572  58.3933072  53.6724148  14.0806723  58.2478826  53.9939787
  26.7756446  66.6162744  53.3015444  27.2092953  66.5238034  54.1498498
  27.4888027  66.5920245  52.6635460  15.6889496  67.8346743  50.4836177
  16.4830095  67.3397063  50.2818752  14.9781189  67.3064606  50.1203883
  20.5084341  70.2164839  54.8348545  20.5621363  70.7855775  55.6026261
  19.6399122  70.3866724  54.4702582  11.9972260  61.9789825  46.5595930
  11.0669848  61.9174280  46.7765892  12.0929732  61.4565778  45.7632571
  11.9157809  58.5044638  49.1474171  12.1764626  59.4189971  49.0383332
  12.7374981  58.0369080  49.2970784  13.3882734  59.9182395  56.3172996
  14.0605788  59.7099757  55.6685645  12.5612521  59.7204481  55.8778228
  27.6371996  66.6586445  55.8348330  27.8307886  67.5632256  56.0807604
  27.5372614  66.1993864  56.6686915  19.2908306  56.5444336  58.3338657
  18.6436221  57.2434285  58.2403133  20.0609322  56.9780480  58.7014905
  22.6987104  66.8093188  61.4089210  22.5472611  66.5803740  60.4919294
  22.6891784  67.7663789  61.4220555  19.4672441  64.3825101  56.3935477
  20.3964501  64.5336260  56.2204444  19.0463471  64.4709121  55.5384123
  18.2660772  68.4075765  54.1634014  18.1271858  68.0394549  55.0359952
  17.4775369  68.9223404  53.9917972  18.8608924  73.5084861  45.5059551
  19.0360680  73.0372905  46.3205173  18.1741712  74.1350628  45.7340811
  19.8165988  67.7857368  51.5522852  19.4815820  67.7458138  52.4480502
  19.3169933  67.1202084  51.0793262  13.7910232  63.1924998  57.0775433
  13.6530029  62.4605237  57.6786972  14.7015155  63.1033898  56.7959621
  22.7525179  65.1313402  41.8259912  22.1354350  64.4060230  41.7292964
  22.2841668  65.8922762  41.4826986  16.4192532  62.9044957  56.5659113
  17.1292151  62.2638149  56.5245731  16.3761840  63.1557852  57.4885294
  24.4079311  69.8412310  59.4865692  24.3491857  69.1571531  58.8196275
  24.8098829  70.5831300  59.0346318  15.1321466  59.8910175  58.3854752
  14.5958823  59.4400913  59.0376349  14.5438175  60.0256084  57.6425217
  13.4270010  76.6574224  52.2799411  13.6666608  77.2892748  52.9578429
  12.5839206  76.3062264  52.5664770  14.5423725  59.3498826  40.9481216
  13.6653191  59.2287627  40.5843463  15.0181478  58.5584905  40.6960105
  24.4096718  67.8051894  57.7179672  23.5223497  67.4677816  57.8406071
  24.9795269  67.0734926  57.9548437   6.0625865  64.1375986  51.0422723
   6.7496905  63.8237716  50.4543738   5.9073994  65.0417351  50.7689975
  10.8660587  59.0266183  55.4707747  10.7818776  58.4191852  54.7358157
  10.0443294  59.5175201  55.4717243  17.9397872  72.4653347  54.6840915
  17.8668043  73.2708318  55.1960219  17.4975265  72.6645312  53.8588936
  17.7287651  71.7025117  48.1943736  16.9455173  72.2446797  48.2881961
  18.4280396  72.2199096  48.5937978  21.0384301  57.5119746  50.8377942
  21.5353001  56.7589708  50.5179012  20.2671283  57.5484063  50.2721151
  28.8914059  63.2160112  52.4796233  28.8803935  64.0984827  52.1090166
  28.0231438  62.8631663  52.2850770  20.3996555  72.3640181  56.8399074
  21.1124527  72.9987646  56.7674975  19.9086584  72.4604047  56.0239075
  22.1214082  66.2691433  48.4116365  21.1870361  66.3892896  48.2421070
  22.2990750  65.3663900  48.1476375  17.6219270  59.6537129  50.5649626
  17.2517058  59.1008170  51.2530532  18.1178362  59.0495263  50.0124626
  25.5086633  62.1108753  48.9466399  25.9747086  62.9436744  48.8726702
  25.9594134  61.6453734  49.6511658  15.4508469  70.1134624  57.6604644
  16.1517928  70.7471107  57.8134039  14.9803584  70.4549356  56.9000284
  23.5762864  68.4552574  45.9452551  23.8522708  68.3409169  46.8546425
  22.7067363  68.0570059  45.9064724  23.4803296  54.4789340  52.9857301
  22.5666376  54.7093566  53.1539508  23.9096398  54.5627784  53.8371333
  23.2509755  62.6679232  55.4857195  22.5981205  62.9155139  54.8309647
  23.6290134  61.8543370  55.1519672  20.2116928  72.7038925  49.5885365
  20.3939323  71.8860581  50.0513117  21.0349914  72.9206617  49.1510255
  20.5459094  71.6307110  46.8500414  21.0746860  71.1199565  46.2370576
  20.8087314  71.3149640  47.7145947  19.2997328  63.4099043  61.9723232
  18.6237965  63.3093172  62.6425607  20.1224961  63.2538256  62.4359229
  11.0476187  69.6470979  54.5935747  11.6329623  68.9014667  54.7263651
  10.8501025  69.9574936  55.4772411  13.9014842  72.6822227  49.6098189
  13.2325217  73.1668354  49.1262229  13.7627712  72.9291447  50.5241568
   5.6393841  62.2176579  53.3140190   5.6777941  61.6840170  54.1077308
   5.1334134  61.6911785  52.6951167  18.0420110  74.7165970  56.2080848
  18.5938418  74.8797592  56.9729933  18.3826304  75.3070408  55.5360873
  13.0184604  57.0641120  56.8102733  13.0825930  57.9255951  56.3980130
  12.9551724  56.4515122  56.0775091  12.4936876  59.1364252  60.4575767
  13.1208915  58.7541330  61.0713291  11.6364795  58.9178454  60.8231459
  22.8930985  69.5427228  62.0629502  23.4370889  70.1557186  61.5684457
  22.3117830  70.1006806  62.5796515   9.2702419  60.9440682  46.3894122
   9.5655860  60.0351360  46.3361175   8.3690455  60.9228421  46.0675124
  21.1788498  72.6647946  53.1944530  21.0539637  71.8637685  52.6855475
  21.8367589  73.1594139  52.7058500  12.7996666  59.0196678  52.3721670
  12.0783252  59.6332646  52.2329144  13.5889922  59.5554443  52.2938316
  23.2423406  70.4656966  54.8224080  22.2953742  70.3462317  54.7502407
  23.5906179  69.5779464  54.9050341  15.6022979  56.3551105  58.6462322
  16.1257381  56.6013401  59.4088631  15.3835313  57.1871139  58.2265459
  10.9990261  58.6254779  46.5133447  10.6702967  57.7452158  46.3308553
  11.3529631  58.5702448  47.4009836  20.2469839  70.2609682  51.0228432
  20.0994802  69.3326389  51.2036002  21.0723333  70.2829773  50.5385508
  14.1132084  58.9127749  46.8808924  14.4528156  59.4413670  46.1587533
  14.5604204  59.2508155  47.6567491  23.8503961  71.0838241  52.1093305
  24.7750509  70.8781102  51.9717756  23.6819265  70.8354642  53.0182647
  16.8075525  57.2964800  56.3311992  16.4672345  56.4972613  56.7332672
  16.1014531  57.5966511  55.7588826  17.4591996  54.3814112  54.7839316
  18.2818066  53.9074590  54.6618206  17.7030060  55.1604596  55.2838002
  16.1000231  57.4102371  45.0802217  16.8208593  57.7883623  44.5765934
  15.4765535  58.1291247  45.1837195  20.2431354  58.1147520  46.0160550
  20.4594968  58.9972157  45.7149378  19.7625421  57.7233733  45.2866192
  14.9830575  61.0733233  52.5931294  14.8375156  61.3873536  53.4855576
  14.5055779  61.6918133  52.0402193  16.8426958  58.0635781  52.6412184
  16.8288527  57.1676874  52.3044482  17.5599386  58.0706445  53.2750470
  18.6953089  58.4973121  54.6865311  18.4370867  59.4190192  54.6849642
  18.1638129  58.1003556  55.3765775  23.6399277  71.6023908  47.4655396
  23.8136155  71.0370331  46.7129249  24.1328169  72.4024803  47.2834886
   9.4576237  63.6138577  55.5318955   8.9129705  64.3898385  55.6639230
  10.3355587  63.9609382  55.3738077  16.2463854  56.9450161  47.9099754
  16.3679765  56.0166807  48.1090641  15.9565896  56.9588847  46.9978069
  19.1155044  54.6305072  51.0466474  19.1376741  54.6944405  50.0918453
  19.5323103  53.7909580  51.2406980  29.4938669  64.3660331  49.0845696
  29.9369815  63.6167656  48.6864820  28.6165179  64.3570467  48.7019428
  24.6274450  70.9190673  44.5652295  25.3225355  71.5397365  44.7839609
  24.9697600  70.0686024  44.8404673  10.2442259  62.7408473  58.4249112
   9.5023995  62.8891109  59.0113743   9.9235003  63.0016739  57.5615862
  26.5265873  68.3690378  46.0939626  27.0517197  68.7077651  45.3688946
  26.4388226  67.4337393  45.9102760  18.1885922  72.2824452  58.2229502
  18.4973048  72.0373598  59.0952202  18.9861404  72.4871090  57.7348372
  18.2106534  74.4362361  50.4534879  17.7711524  73.9438740  51.1467735
  18.9614651  73.8935329  50.2126954  10.6898873  70.6273902  50.4559507
  11.5156893  70.3277674  50.0758150  10.3392925  69.8581525  50.9049295
  15.6580406  69.9800370  52.5257180  15.0360415  69.3171075  52.2259408
  16.3285273  70.0061502  51.8430828   8.8907478  68.5460229  51.4148440
   8.0539386  68.1182403  51.2332442   8.8631123  68.7392672  52.3519232
  15.7304933  58.4582158  62.1189686  15.7793089  59.3344281  61.7367456
  16.2727448  57.9159552  61.5461330  26.2159779  69.0023282  61.3990824
  25.4255323  68.9847421  60.8595323  25.9793134  69.5411575  62.1539860
  26.3357654  65.8515748  58.7123552  26.3855659  65.6865756  59.6539075
  26.2271578  64.9843007  58.3221433  15.2193913  68.5304294  46.0015641
  15.3682033  69.2139758  45.3482314  16.0260356  68.5109384  46.5165097
  23.6261417  61.8346676  60.0282859  24.5271279  61.6953141  59.7366857
  23.7009391  62.0001131  60.9681036  17.9604222  59.2113531  58.8736045
  17.0907531  59.5047097  58.6018634  18.1963702  59.7953976  59.5943309
  27.8375851  68.2712690  58.9565574  27.5460659  68.6342670  59.7929035
  27.2247982  67.5579698  58.7778906  29.0371533  65.8365569  51.4768144
  29.8718425  66.2755373  51.6405704  29.1730662  65.3604223  50.6576390
  26.0863039  63.3945304  57.4245632  26.5617161  63.5872951  56.6164483
  25.1628605  63.4504490  57.1789015  12.9746546  64.5569471  47.0076710
  12.7292588  63.6531801  47.2056920  13.1442460  64.5586622  46.0656188
  20.6643256  55.4293148  56.3901465  21.1825200  56.1654175  56.0647954
  20.3098389  55.7357141  57.2248225  12.2442193  60.2897829  44.5062871
  11.5511438  60.3642184  43.8502907  11.9993945  59.5258173  45.0284388
  20.9155850  51.8493430  51.9102362  21.1957604  51.1816619  52.5362789
  21.7006457  52.0422526  51.3977026  18.7189318  71.0252424  43.4727388
  18.1463285  71.6442611  43.0197860  19.2922112  71.5751786  44.0067310
  24.7864708  60.2711064  55.6573937  25.7382131  60.3709162  55.6786161
  24.6168159  59.4789333  56.1672022  22.8079088  57.3566648  55.8433338
  22.2129020  57.6371660  55.1479827  22.5228784  57.8460548  56.6150079
  21.9386578  71.3089574  44.6035971  22.8717251  71.2435136  44.8068846
  21.8509791  72.1445841  44.1450503  24.5674595  70.6255445  41.5639918
  24.4888226  70.2915308  42.4575676  25.3884262  71.1177213  41.5631391
  27.2652786  63.4917184  54.7716237  27.2329106  62.5533185  54.9575921
  27.8753410  63.5701221  54.0382062  19.1036117  62.3613237  40.8143441
  20.0495222  62.2319445  40.8831859  18.7250362  61.6227899  41.2912869
  27.4147275  60.2828227  54.8174520  26.8986323  59.4986684  54.6304449
  28.2987223  59.9546944  54.9821039  25.0758001  54.0269243  50.7770333
  24.8782823  53.7184331  51.6613665  25.6857707  54.7530882  50.9068263
  33.0829336  64.5533191  53.9122274  33.8132724  64.2918479  54.4729977
  32.4736281  63.8161913  53.9524342  31.1644633  62.6941053  54.5096725
  30.4377797  62.5597018  53.9013216  30.7491920  63.0017882  55.3153443
  18.9874809  66.4130983  62.2744098  19.9077819  66.5909582  62.4684144
  18.9524392  65.4687028  62.1223797  17.2879034  60.2863213  40.7498326
  16.3810489  59.9896326  40.8261040  17.5655015  59.9893031  39.8832612
   8.2056974  61.6069577  51.1997372   7.8859759  60.7534885  50.9071746
   7.6590403  61.8218155  51.9555340  11.9836882  64.3232018  54.9166879
  12.2022892  65.2549126  54.9354913  12.3962656  63.9639992  55.7021683
  18.9041100  54.8300103  46.9042567  18.0941828  54.4847188  47.2797813
  19.5925517  54.5207647  47.4930179  20.8331648  53.9078150  48.5266864
  21.3862687  54.3273603  49.1856887  21.0701734  52.9813898  48.5689820
  16.8564747  59.8965224  64.3069628  16.7561474  60.8459580  64.2381719
  16.6386289  59.5683462  63.4345698  16.0577819  57.1450149  40.8910305
  16.9196983  57.4705047  41.1506123  16.2428163  56.3581644  40.3783371
   8.0745234  65.2272488  53.1690494   7.3808706  64.8126441  52.6560448
   8.8218225  65.2693025  52.5723913  24.2110455  56.0178675  48.0345528
  23.6309124  56.6763479  47.6523581  23.9446388  55.1956020  47.6232946
  22.6614022  55.4183733  50.2366849  23.1613800  55.5300267  49.4281167
  23.3049629  55.1144786  50.8767657  16.7196017  63.3262362  63.1234690
  16.2363099  64.1262722  63.3298579  16.8056956  63.3370307  62.1702134
   9.9881977  65.1590742  51.0456509   9.9652665  65.2578429  50.0938392
  10.2982613  66.0055893  51.3673675  12.6469355  67.2166897  55.1603123
  13.6012608  67.1850839  55.0933055  12.4481878  66.7557521  55.9753349
  13.2368737  65.7868013  57.7273921  14.0561626  66.2812092  57.7508758
  13.5105545  64.8699981  57.6991489  22.9935333  58.1778765  47.0901877
  22.1061188  58.4628416  46.8722071  23.4089322  58.0172529  46.2429153
  26.3449869  58.2025286  50.8056216  27.1210259  58.6921739  51.0780833
  25.6198003  58.6283341  51.2628085  28.7822428  58.9152906  51.8630156
  29.3766919  58.6748642  51.1523465  28.8549012  58.1960036  52.4903693
  11.0019584  72.7586517  52.1773321  10.8674052  71.9986917  51.6111319
  10.5851646  73.4827416  51.7102110  22.1378547  67.9423440  41.1849897
  22.8414397  68.1473443  41.8007552  21.4141195  68.5100202  41.4498980
  22.9676357  63.6933301  47.3052167  22.9111558  64.1501853  46.4659799
  23.5204699  62.9323986  47.1275009  26.7781163  59.4823033  48.1302286
  26.5218097  59.0819669  48.9610494  26.1534031  60.1966827  48.0052425
  31.0893501  62.2219106  50.6373578  30.5293059  62.2912296  51.4105140
  30.4837004  62.0460091  49.9173074  14.1588710  73.6555834  52.3891764
  14.0421094  74.6001266  52.2870454  13.3381156  73.3529395  52.7777563
  24.0465244  68.3805969  43.2348357  24.8810848  67.9487168  43.0525831
  23.8849587  68.2087983  44.1625251  23.7011136  64.8838083  44.6004696
  23.6459940  64.7182354  43.6593140  23.0757192  65.5914116  44.7566886
   8.4903651  60.1206147  58.4266118   9.1362515  59.6105101  58.9153343
   8.2820802  60.8574829  59.0009543  21.0157043  67.1886994  63.9258259
  21.8848203  67.3627647  63.5644894  20.5363795  68.0081411  63.8033988
  17.0107262  54.3846192  44.1790014  16.9985932  55.3288032  44.3358285
  17.9030684  54.2016337  43.8849475  15.1843224  74.3084095  55.6047692
  16.0870470  74.3407706  55.9214187  14.9580594  73.3784546  55.6194028
  16.9396826  73.0615082  52.2657771  15.9892457  73.0616944  52.1522143
  17.2429312  72.3147817  51.7493806  20.8259381  50.9788968  48.4335951
  20.0591777  50.4247455  48.5792633  21.2370086  51.0510837  49.2950103
  12.8301142  57.2673764  62.5241132  13.6932604  56.9110569  62.7344457
  12.2566553  56.9287659  63.2116537  32.6749519  78.8975620  53.3303533
  33.3127929  78.7782368  52.6266873  32.5570362  79.8456464  53.3891485
  29.4839225  78.8503049  53.2665058  29.1457737  78.7344113  52.3785593
  30.3528994  78.4494214  53.2466064  25.3426041  80.7038525  49.2561949
  24.7790906  80.6128462  48.4878237  25.2278436  79.8838429  49.7364441
  29.9659008  80.0037900  59.2251264  29.9547649  79.6090699  58.3531767
  30.1279648  79.2703973  59.8185035  22.8890473  82.1989717  52.0946169
  23.6811765  81.8580541  51.6792469  23.1287123  82.3084692  53.0148323
  30.9225600  84.3709493  44.5676414  30.2713580  84.9563573  44.1810428
  31.7169963  84.9015688  44.6271451  24.8481227  81.4598630  44.9663548
  25.6212103  80.9127617  44.8276424  25.2006626  82.3242879  45.1778010
  26.6866270  82.7875012  58.1730448  26.3956136  83.6920643  58.0577114
  27.3223254  82.8291540  58.8874517  27.6122476  80.1651861  54.7631807
  28.2086049  79.9407883  54.0488770  27.6697448  79.4236606  55.3657255
  27.1847505  77.6191296  42.5981998  27.4373025  77.0972817  41.8365461
  26.2472064  77.4557441  42.7008682  32.2290788  76.6227074  50.4056741
  33.0153877  76.2046497  50.0547158  32.4929492  77.5273166  50.5738390
  32.4000865  82.0599925  45.1045398  31.7646698  82.1334551  45.8166303
  32.0698271  82.6493523  44.4264477  37.6299215  76.5602307  51.3089720
  38.3624387  75.9901524  51.5427549  36.8738570  76.1723908  51.7496225
  26.9043794  79.5219402  44.8006373  26.7880052  78.8464305  45.4687457
  27.0146053  79.0351776  43.9838526  29.2475334  78.9829549  48.5053062
  28.8833542  78.4560170  49.2165984  30.1042450  78.5928018  48.3319548
  35.1524635  70.2723882  55.7684328  34.8207960  71.1419293  55.5445543
  34.5570248  69.9560166  56.4478359  28.8880821  74.0119449  43.5014411
  29.0555224  74.8799685  43.8684882  28.6977991  74.1746730  42.5775700
  31.6456155  82.4736428  55.1680241  31.3456878  83.3761466  55.0596048
  31.3007214  82.2068611  56.0201394  25.0968636  78.9250224  51.2016946
  24.1719133  78.7926439  51.4094637  25.3453049  79.7044444  51.6986888
  35.0453298  74.9918968  52.8477679  34.1370176  74.9234376  52.5536440
  34.9940894  75.4690913  53.6759504  28.8670042  76.4677106  44.4861078
  28.7469668  76.9134157  45.3246558  28.1722631  76.8162424  43.9274616
  22.4577447  78.5683498  52.0360735  22.5869828  78.8217977  52.9500146
  21.7774898  79.1611206  51.7165390  26.6276934  89.2380748  48.1351209
  26.5500964  90.1888573  48.2139689  26.0238578  88.8926620  48.7926135
  29.1194164  76.4108613  60.7912576  28.3427498  76.9702533  60.7815440
  29.7584727  76.8965396  61.3127446  36.9114945  73.1935406  54.6255552
  36.2689325  73.4867939  53.9795347  36.4069873  73.0788326  55.4308749
  34.5655108  76.9398579  45.3141412  35.4772965  77.1725966  45.1389109
  34.0564756  77.5235624  44.7516490  27.3740537  79.2194067  60.3530543
  28.1155221  79.7579111  60.0765366  26.6677522  79.8460355  60.5102095
  32.8495876  81.3623207  58.9502704  33.2579232  80.9205618  58.2057337
  32.1273138  80.7875835  59.2036897  29.2026946  76.2995814  56.3236261
  30.0488141  76.7235227  56.4670910  29.1425584  75.6429438  57.0174824
  33.1724691  81.9224398  52.7054993  32.5433553  82.0870112  52.0031061
  32.7850353  82.3366007  53.4765957  37.0513923  82.8578836  50.0599357
  36.3664961  83.2377737  49.5096390  37.1357772  83.4674162  50.7931305
  32.3526392  73.9600182  57.9817435  32.1087323  74.7142243  57.4451711
  32.6286322  74.3385530  58.8164682  34.3064854  80.5038795  56.6594700
  34.5181750  81.1470555  55.9829082  34.2594603  79.6701111  56.1916631
  31.9091083  73.1156615  53.5631273  31.0475562  73.4137869  53.8548010
  31.9353518  73.3327014  52.6312305  28.7252653  81.6598806  49.9705078
  29.1890998  81.9386509  49.1809701  28.4609451  80.7582250  49.7878169
  25.6176734  81.2070287  52.9084842  26.1878091  81.6357556  52.2702326
  26.2084846  80.9252872  53.6069027  27.6621539  77.7821958  46.7794643
  28.3645582  78.2343002  47.2468570  27.3302167  77.1405777  47.4074537
  26.1101900  76.3733715  61.1545853  25.4800561  77.0549996  61.3881250
  26.0037988  76.2616796  60.2098991  21.4046873  76.0405511  52.0811777
  20.6145927  76.2963039  51.6051888  21.8958120  76.8553849  52.1863818
  35.4210682  83.3810750  54.8317058  36.2428126  82.9790937  54.5499739
  35.4173085  83.2778984  55.7833174  23.3561618  76.4050090  49.0395254
  22.5592781  76.5168784  49.5578749  23.1287210  76.7436742  48.1736144
  29.1867286  82.9294793  56.9877768  29.2511718  83.3915201  57.8235940
  28.4778210  82.2992158  57.1160078  19.6884576  76.2936001  54.5126768
  19.9392614  77.1783011  54.7784344  20.2244124  76.1140603  53.7401860
  43.5116675  79.7249499  51.1802029  42.7580384  79.1556897  51.0246034
  43.6464217  79.6912163  52.1272664  28.9015303  84.5962901  46.8556749
  28.7660978  85.4414437  47.2841596  29.4425116  84.7982179  46.0922682
  25.3882643  70.6754481  63.5171104  24.9949589  70.1220679  64.1918748
  26.2048783  70.9865059  63.9077621  22.3544701  82.1138339  47.4284674
  22.8669221  82.9081589  47.5790238  23.0067414  81.4164629  47.3618275
  24.1639585  85.2304095  49.5107427  24.3406214  86.1522060  49.3228411
  24.9596419  84.9162514  49.9401807  28.3050604  72.0912360  61.1091360
  29.0460317  72.6919513  61.0295823  28.5368527  71.3489998  60.5509403
  23.4491942  77.2768727  59.3869590  23.3345457  76.3753984  59.6876689
  22.5936460  77.5232424  59.0354407  30.5283780  85.2186467  60.9857091
  30.0847634  84.4322846  60.6677995  31.1900993  85.4065618  60.3200982
  25.2870901  86.7482269  55.5117769  25.8378326  86.6199332  54.7394763
  24.4482377  87.0477158  55.1612662  32.6265018  85.4989267  59.0138492
  32.6083493  86.3198148  58.5218761  33.5484938  85.3743343  59.2388633
  29.0838072  83.0133397  59.8562000  29.6166409  82.2521685  59.6261308
  28.5552153  82.7207049  60.5986155  32.2507767  68.1193463  55.3855642
  31.9072036  69.0095104  55.3094753  32.6186730  67.9295120  54.5225227
  20.3193618  80.4426993  48.2044244  21.1568840  80.8524002  47.9877952
  20.4971885  79.5026435  48.1744438  32.2158050  78.1102074  43.8928077
  31.7004673  78.8806678  44.1316465  31.9435358  77.4367210  44.5161139
  29.8005161  72.9551775  48.9513316  28.9446757  72.5658625  48.7718954
  30.2132112  73.0343735  48.0913101  31.3304307  70.4898118  53.3504875
  30.8269103  70.4528253  52.5372681  31.6234914  71.3990861  53.4101532
  27.5747193  70.5736848  52.3571057  28.4400190  70.3779656  51.9976947
  27.6424702  70.3447199  53.2840414  37.1892324  80.8634429  45.8281251
  36.4121767  80.5245588  45.3836413  37.8683805  80.8687052  45.1536216
  32.0044353  75.9829166  45.7187858  31.6994488  76.2975315  46.5698002
  32.9574795  76.0610586  45.7615191  30.4490785  82.1419389  47.3680812
  29.9212146  81.4072149  47.0554050  29.9478287  82.9194066  47.1220781
  35.4283631  80.3368410  52.4847859  34.7707305  81.0267671  52.5727987
  36.2324030  80.7264842  52.8281845  25.1809512  72.8039056  49.7287424
  25.7553264  72.5814237  48.9960617  25.7680495  72.8727750  50.4816025
  34.2389089  78.6912782  50.5351800  34.7520971  79.3242774  51.0373510
  34.8890313  78.0913978  50.1695160  25.5079099  74.8343517  43.7483309
  24.6716412  75.1718203  44.0692584  25.3683869  74.6992496  42.8110446
  27.4832180  69.6780304  48.4562493  26.8296592  69.3629322  47.8319108
  27.4412654  69.0556045  49.1822316  28.5943385  79.9599600  40.3715785
  27.6870447  79.7288853  40.5706934  29.0914417  79.1637219  40.5589767
  31.5011464  88.6697107  43.2912472  30.8273162  88.9728803  43.8997429
  31.8877286  89.4726187  42.9417929  30.7169920  76.1662238  52.7810141
  29.7992482  76.3877185  52.6231829  31.1330064  76.2408548  51.9221848
  31.5004968  77.5653654  47.9112821  32.2476787  78.0775051  47.6019943
  31.7696558  77.2437706  48.7717215  29.7731618  80.0612194  44.8939776
  28.8642838  79.7771227  44.9912245  29.8026702  80.4811273  44.0343082
  35.0050886  83.6718784  48.6630943  34.5513213  82.8309694  48.7196134
  34.3744852  84.3080182  49.0005723  33.9483805  74.6010770  49.8931611
  33.2106562  74.0888156  50.2241853  34.2010579  74.1611152  49.0814887
  33.4483825  85.5095281  49.5980761  33.7406799  86.0700338  48.8793127
  33.9582446  85.8023842  50.3533920  34.0495433  67.3787022  50.4873380
  34.3554309  66.5184385  50.1999295  34.7748037  67.9704642  50.2872374
  20.3419789  77.7817709  48.8754978  20.1444188  77.1887069  48.1506044
  19.7866453  77.4769919  49.5930916  28.3216512  77.6740815  50.9949571
  28.3765122  76.7214651  50.9192047  27.5107714  77.8300254  51.4790869
  29.4707706  81.6020938  42.2327854  29.0327136  80.8856797  41.7733491
  30.2118147  81.8297053  41.6712945  26.2608872  76.2917875  48.7539950
  25.4476738  76.5912045  49.1605142  26.7567866  75.8973564  49.4714432
  28.4117450  86.2875632  50.6874214  28.3693629  86.5136478  49.7582746
  29.3280149  86.0539006  50.8360016  31.8583084  76.7559699  57.5854844
  32.2132472  76.9831172  58.4449309  32.5055215  77.0878076  56.9632099
  37.5880821  79.8778135  48.2904173  37.4498719  80.0679731  47.3625362
  37.2317040  80.6397518  48.7472224  25.7522947  73.8636230  54.3701185
  26.3922326  73.7224989  53.6724148  24.9200478  73.5770744  53.9939787
  37.6150200  81.9454662  53.3015444  38.0486707  81.8529951  54.1498498
  38.3281781  81.9212163  52.6635460  26.5283251  83.1638661  50.4836177
  27.3223849  82.6688981  50.2818752  25.8174943  82.6356524  50.1203883
  31.3478095  85.5456756  54.8348545  31.4015118  86.1147693  55.6026261
  30.4792877  85.7158641  54.4702582  22.8366014  77.3081742  46.5595930
  21.9063602  77.2466198  46.7765892  22.9323486  76.7857695  45.7632571
  22.7551563  73.8336555  49.1474171  23.0158381  74.7481889  49.0383332
  23.5768736  73.3660998  49.2970784  24.2276489  75.2474312  56.3172996
  24.8999542  75.0391675  55.6685645  23.4006275  75.0496398  55.8778228
  38.4765750  81.9878363  55.8348330  38.6701640  82.8924173  56.0807604
  38.3766368  81.5285782  56.6686915  30.1302061  71.8736253  58.3338657
  29.4829976  72.5726203  58.2403133  30.9003076  72.3072397  58.7014905
  33.5380859  82.1385106  61.4089210  33.3866365  81.9095657  60.4919294
  33.5285538  83.0955707  61.4220555  30.3066195  79.7117018  56.3935477
  31.2358255  79.8628178  56.2204444  29.8857225  79.8001039  55.5384123
  29.1054527  83.7367683  54.1634014  28.9665613  83.3686467  55.0359952
  28.3169123  84.2515322  53.9917972  29.7002679  88.8376779  45.5059551
  29.8754435  88.3664822  46.3205173  29.0135467  89.4642545  45.7340811
  30.6559742  83.1149285  51.5522852  30.3209575  83.0750055  52.4480502
  30.1563688  82.4494001  51.0793262  24.6303986  78.5216915  57.0775433
  24.4923784  77.7897154  57.6786972  25.5408909  78.4325816  56.7959621
  33.5918934  80.4605320  41.8259912  32.9748104  79.7352148  41.7292964
  33.1235422  81.2214680  41.4826986  27.2586287  78.2336875  56.5659113
  27.9685905  77.5930067  56.5245731  27.2155595  78.4849770  57.4885294
  35.2473065  85.1704228  59.4865692  35.1885612  84.4863448  58.8196275
  35.6492584  85.9123218  59.0346318  25.9715221  75.2202093  58.3854752
  25.4352578  74.7692831  59.0376349  25.3831929  75.3548001  57.6425217
  24.2663764  91.9866142  52.2799411  24.5060362  92.6184666  52.9578429
  23.4232961  91.6354182  52.5664770  25.3817480  74.6790744  40.9481216
  24.5046946  74.5579545  40.5843463  25.8575233  73.8876822  40.6960105
  35.2490473  83.1343812  57.7179672  34.3617251  82.7969734  57.8406071
  35.8189024  82.4026843  57.9548437  16.9019620  79.4667904  51.0422723
  17.5890660  79.1529634  50.4543738  16.7467748  80.3709268  50.7689975
  21.7054342  74.3558100  55.4707747  21.6212531  73.7483770  54.7358157
  20.8837048  74.8467119  55.4717243  28.7791626  87.7945264  54.6840915
  28.7061798  88.6000236  55.1960219  28.3369019  87.9937230  53.8588936
  28.5681406  87.0317034  48.1943736  27.7848928  87.5738715  48.2881961
  29.2674151  87.5491014  48.5937978  31.8778056  72.8411664  50.8377942
  32.3746755  72.0881626  50.5179012  31.1065037  72.8775980  50.2721151
  39.7307813  78.5452029  52.4796233  39.7197689  79.4276745  52.1090166
  38.8625193  78.1923580  52.2850770  31.2390310  87.6932098  56.8399074
  31.9518282  88.3279563  56.7674975  30.7480338  87.7895964  56.0239075
  32.9607836  81.5983351  48.4116365  32.0264115  81.7184814  48.2421070
  33.1384505  80.6955818  48.1476375  28.4613025  74.9829047  50.5649626
  28.0910812  74.4300087  51.2530532  28.9572117  74.3787180  50.0124626
  36.3480388  77.4400670  48.9466399  36.8140840  78.2728662  48.8726702
  36.7987888  76.9745652  49.6511658  26.2902223  85.4426542  57.6604644
  26.9911683  86.0763025  57.8134039  25.8197338  85.7841273  56.9000284
  34.4156619  83.7844492  45.9452551  34.6916463  83.6701086  46.8546425
  33.5461118  83.3861976  45.9064724  34.3197051  69.8081257  52.9857301
  33.4060130  70.0385484  53.1539508  34.7490152  69.8919701  53.8371333
  34.0903509  77.9971149  55.4857195  33.4374959  78.2447057  54.8309647
  34.4683889  77.1835287  55.1519672  31.0510683  88.0330842  49.5885365
  31.2333077  87.2152498  50.0513117  31.8743669  88.2498535  49.1510255
  31.3852848  86.9599028  46.8500414  31.9140615  86.4491482  46.2370576
  31.6481068  86.6441558  47.7145947  30.1391082  78.7390960  61.9723232
  29.4631719  78.6385090  62.6425607  30.9618716  78.5830174  62.4359229
  21.8869941  84.9762897  54.5935747  22.4723378  84.2306585  54.7263651
  21.6894780  85.2866854  55.4772411  24.7408596  88.0114144  49.6098189
  24.0718972  88.4960272  49.1262229  24.6021466  88.2583365  50.5241568
  16.4787596  77.5468497  53.3140190  16.5171695  77.0132088  54.1077308
  15.9727889  77.0203703  52.6951167  28.8813865  90.0457888  56.2080848
  29.4332173  90.2089509  56.9729933  29.2220058  90.6362326  55.5360873
  23.8578358  72.3933038  56.8102733  23.9219685  73.2547869  56.3980130
  23.7945478  71.7807039  56.0775091  23.3330631  74.4656170  60.4575767
  23.9602670  74.0833247  61.0713291  22.4758550  74.2470372  60.8231459
  33.7324739  84.8719145  62.0629502  34.2764643  85.4849104  61.5684457
  33.1511584  85.4298724  62.5796515  20.1096173  76.2732599  46.3894122
  20.4049615  75.3643278  46.3361175  19.2084209  76.2520339  46.0675124
  32.0182252  87.9939863  53.1944530  31.8933392  87.1929603  52.6855475
  32.6761343  88.4886057  52.7058500  23.6390420  74.3488596  52.3721670
  22.9177006  74.9624564  52.2329144  24.4283676  74.8846361  52.2938316
  34.0817161  85.7948883  54.8224080  33.1347496  85.6754235  54.7502407
  34.4299934  84.9071381  54.9050341  26.4416734  71.6843022  58.6462322
  26.9651136  71.9305319  59.4088631  26.2229067  72.5163057  58.2265459
  21.8384015  73.9546697  46.5133447  21.5096721  73.0744076  46.3308553
  22.1923386  73.8994366  47.4009836  31.0863594  85.5901600  51.0228432
  30.9388556  84.6618307  51.2036002  31.9117087  85.6121690  50.5385508
  24.9525838  74.2419667  46.8808924  25.2921911  74.7705588  46.1587533
  25.3997959  74.5800073  47.6567491  34.6897716  86.4130158  52.1093305
  35.6144263  86.2073020  51.9717756  34.5213019  86.1646560  53.0182647
  27.6469279  72.6256717  56.3311992  27.3066099  71.8264531  56.7332672
  26.9408285  72.9258428  55.7588826  28.2985751  69.7106030  54.7839316
  29.1211820  69.2366508  54.6618206  28.5423814  70.4896514  55.2838002
  26.9393985  72.7394288  45.0802217  27.6602348  73.1175541  44.5765934
  26.3159289  73.4583165  45.1837195  31.0825108  73.4439437  46.0160550
  31.2988723  74.3264075  45.7149378  30.6019175  73.0525651  45.2866192
  25.8224330  76.4025151  52.5931294  25.6768910  76.7165454  53.4855576
  25.3449533  77.0210051  52.0402193  27.6820712  73.3927698  52.6412184
  27.6682281  72.4968792  52.3044482  28.3993141  73.3998362  53.2750470
  29.5346843  73.8265039  54.6865311  29.2764621  74.7482109  54.6849642
  29.0031884  73.4295473  55.3765775  34.4793032  86.9315826  47.4655396
  34.6529909  86.3662248  46.7129249  34.9721923  87.7316721  47.2834886
  20.2969992  78.9430495  55.5318955  19.7523460  79.7190303  55.6639230
  21.1749342  79.2901299  55.3738077  27.0857608  72.2742079  47.9099754
  27.2073520  71.3458725  48.1090641  26.7959651  72.2880765  46.9978069
  29.9548799  69.9596989  51.0466474  29.9770496  70.0236322  50.0918453
  30.3716858  69.1201498  51.2406980  40.3332423  79.6952249  49.0845696
  40.7763569  78.9459574  48.6864820  39.4558933  79.6862385  48.7019428
  35.4668204  86.2482590  44.5652295  36.1619109  86.8689283  44.7839609
  35.8091355  85.3977941  44.8404673  21.0836014  78.0700391  58.4249112
  20.3417750  78.2183027  59.0113743  20.7628758  78.3308657  57.5615862
  37.3659628  83.6982296  46.0939626  37.8910952  84.0369569  45.3688946
  37.2781980  82.7629311  45.9102760  29.0279676  87.6116369  58.2229502
  29.3366803  87.3665516  59.0952202  29.8255158  87.8163008  57.7348372
  29.0500288  89.7654279  50.4534879  28.6105279  89.2730658  51.1467735
  29.8008405  89.2227247  50.2126954  21.5292627  85.9565820  50.4559507
  22.3550647  85.6569592  50.0758150  21.1786679  85.1873442  50.9049295
  26.4974160  85.3092288  52.5257180  25.8754170  84.6462993  52.2259408
  27.1679027  85.3353420  51.8430828  19.7301232  83.8752146  51.4148440
  18.8933141  83.4474321  51.2332442  19.7024878  84.0684590  52.3519232
  26.5698688  73.7874076  62.1189686  26.6186843  74.6636199  61.7367456
  27.1121202  73.2451469  61.5461330  37.0553534  84.3315199  61.3990824
  36.2649077  84.3139338  60.8595323  36.8186888  84.8703493  62.1539860
  37.1751409  81.1807666  58.7123552  37.2249414  81.0157673  59.6539075
  37.0665332  80.3134925  58.3221433  26.0587667  83.8596211  46.0015641
  26.2075788  84.5431676  45.3482314  26.8654111  83.8401302  46.5165097
  34.4655171  77.1638594  60.0282859  35.3665034  77.0245059  59.7366857
  34.5403146  77.3293049  60.9681036  28.7997976  74.5405449  58.8736045
  27.9301286  74.8339015  58.6018634  29.0357457  75.1245894  59.5943309
  38.6769606  83.6004607  58.9565574  38.3854414  83.9634588  59.7929035
  38.0641737  82.8871616  58.7778906  39.8765288  81.1657487  51.4768144
  40.7112179  81.6047291  51.6405704  40.0124417  80.6896140  50.6576390
  36.9256794  78.7237222  57.4245632  37.4010915  78.9164868  56.6164483
  36.0022359  78.7796408  57.1789015  23.8140300  79.8861389  47.0076710
  23.5686342  78.9823719  47.2056920  23.9836215  79.8878540  46.0656188
  31.5037010  70.7585065  56.3901465  32.0218954  71.4946092  56.0647954
  31.1492143  71.0649059  57.2248225  23.0835948  75.6189747  44.5062871
  22.3905193  75.6934102  43.8502907  22.8387700  74.8550090  45.0284388
  31.7549604  67.1785348  51.9102362  32.0351358  66.5108537  52.5362789
  32.5400211  67.3714444  51.3977026  29.5583073  86.3544342  43.4727388
  28.9857040  86.9734529  43.0197860  30.1315867  86.9043704  44.0067310
  35.6258463  75.6002982  55.6573937  36.5775886  75.7001080  55.6786161
  35.4561913  74.8081251  56.1672022  33.6472842  72.6858565  55.8433338
  33.0522774  72.9663578  55.1479827  33.3622539  73.1752466  56.6150079
  32.7780333  86.6381492  44.6035971  33.7111006  86.5727054  44.8068846
  32.6903546  87.4737759  44.1450503  35.4068349  85.9547362  41.5639918
  35.3281981  85.6207226  42.4575676  36.2278016  86.4469130  41.5631391
  38.1046541  78.8209102  54.7716237  38.0722861  77.8825102  54.9575921
  38.7147164  78.8993138  54.0382062  29.9429871  77.6905155  40.8143441
  30.8888976  77.5611363  40.8831859  29.5644116  76.9519817  41.2912869
  38.2541029  75.6120145  54.8174520  37.7380078  74.8278602  54.6304449
  39.1380978  75.2838862  54.9821039  35.9151756  69.3561161  50.7770333
  35.7176577  69.0476249  51.6613665  36.5251462  70.0822800  50.9068263
  43.9223090  79.8825109  53.9122274  44.6526479  79.6210397  54.4729977
  43.3130036  79.1453830  53.9524342  42.0038388  78.0232971  54.5096725
  41.2771551  77.8888936  53.9013216  41.5885674  78.3309800  55.3153443
  29.8268564  81.7422901  62.2744098  30.7471573  81.9201500  62.4684144
  29.7918147  80.7978946  62.1223797  28.1272789  75.6155131  40.7498326
  27.2204244  75.3188244  40.8261040  28.4048770  75.3184949  39.8832612
  19.0450729  76.9361494  51.1997372  18.7253513  76.0826803  50.9071746
  18.4984157  77.1510073  51.9555340  22.8230636  79.6523935  54.9166879
  23.0416646  80.5841043  54.9354913  23.2356410  79.2931910  55.7021683
  29.7434854  70.1592021  46.9042567  28.9335583  69.8139106  47.2797813
  30.4319271  69.8499564  47.4930179  31.6725403  69.2370068  48.5266864
  32.2256441  69.6565521  49.1856887  31.9095489  68.3105816  48.5689820
  27.6958502  75.2257141  64.3069628  27.5955229  76.1751498  64.2381719
  27.4780044  74.8975380  63.4345698  26.8971573  72.4742066  40.8910305
  27.7590737  72.7996965  41.1506123  27.0821917  71.6873562  40.3783371
  18.9138989  80.5564406  53.1690494  18.2202460  80.1418359  52.6560448
  19.6611980  80.5984942  52.5723913  35.0504210  71.3470593  48.0345528
  34.4702879  72.0055397  47.6523581  34.7840142  70.5247937  47.6232946
  33.5007776  70.7475650  50.2366849  34.0007554  70.8592185  49.4281167
  34.1443384  70.4436703  50.8767657  27.5589772  78.6554280  63.1234690
  27.0756854  79.4554640  63.3298579  27.6450711  78.6662225  62.1702134
  20.8275731  80.4882660  51.0456509  20.8046420  80.5870347  50.0938392
  21.1376368  81.3347811  51.3673675  23.4863109  82.5458815  55.1603123
  24.4406363  82.5142757  55.0933055  23.2875633  82.0849438  55.9753349
  24.0762491  81.1159931  57.7273921  24.8955380  81.6104009  57.7508758
  24.3499299  80.1991899  57.6991489  33.8329088  73.5070683  47.0901877
  32.9454943  73.7920334  46.8722071  34.2483077  73.3464446  46.2429153
  37.1843624  73.5317204  50.8056216  37.9604014  74.0213657  51.0780833
  36.4591758  73.9575258  51.2628085  39.6216182  74.2444823  51.8630156
  40.2160673  74.0040559  51.1523465  39.6942766  73.5251954  52.4903693
  21.8413338  88.0878434  52.1773321  21.7067806  87.3278835  51.6111319
  21.4245400  88.8119334  51.7102110  32.9772301  83.2715358  41.1849897
  33.6808151  83.4765360  41.8007552  32.2534950  83.8392120  41.4498980
  33.8070111  79.0225219  47.3052167  33.7505313  79.4793770  46.4659799
  34.3598454  78.2615904  47.1275009  37.6174917  74.8114951  48.1302286
  37.3611852  74.4111587  48.9610494  36.9927785  75.5258745  48.0052425
  41.9287255  77.5511024  50.6373578  41.3686813  77.6204213  51.4105140
  41.3230759  77.3752009  49.9173074  24.9982464  88.9847751  52.3891764
  24.8814848  89.9293184  52.2870454  24.1774910  88.6821313  52.7777563
  34.8858999  83.7097887  43.2348357  35.7204602  83.2779085  43.0525831
  34.7243341  83.5379901  44.1625251  34.5404891  80.2130000  44.6004696
  34.4853695  80.0474272  43.6593140  33.9150946  80.9206033  44.7566886
  19.3297406  75.4498065  58.4266118  19.9756269  74.9397019  58.9153343
  19.1214557  76.1866746  59.0009543  31.8550798  82.5178912  63.9258259
  32.7241958  82.6919564  63.5644894  31.3757549  83.3373329  63.8033988
  27.8501016  69.7138109  44.1790014  27.8379686  70.6579949  44.3358285
  28.7424438  69.5308255  43.8849475  26.0236978  89.6376013  55.6047692
  26.9264225  89.6699623  55.9214187  25.7974348  88.7076464  55.6194028
  27.7790580  88.3907000  52.2657771  26.8286211  88.3908861  52.1522143
  28.0823066  87.6439734  51.7493806  31.6653136  66.3080886  48.4335951
  30.8985531  65.7539373  48.5792633  32.0763841  66.3802755  49.2950103
  23.6694897  72.5965682  62.5241132  24.5326358  72.2402487  62.7344457
  23.0960307  72.2579577  63.2116537  43.5143274  94.2267538  53.3303533
  44.1521684  94.1074285  52.6266873  43.3964117  95.1748382  53.3891485
  40.3232980  94.1794966  53.2665058  39.9851491  94.0636031  52.3785593
  41.1922748  93.7786131  53.2466064  36.1819796  96.0330443  49.2561949
  35.6184661  95.9420380  48.4878237  36.0672191  95.2130347  49.7364441
  40.8052763  95.3329818  59.2251264  40.7941404  94.9382616  58.3531767
  40.9673402  94.5995891  59.8185035  33.7284228  97.5281634  52.0946169
  34.5205519  97.1872459  51.6792469  33.9680878  97.6376609  53.0148323
  41.7619354  99.7001410  44.5676414  41.1107334 100.2855491  44.1810428
  42.5563717 100.2307605  44.6271451  35.6874981  96.7890547  44.9663548
  36.4605857  96.2419535  44.8276424  36.0400380  97.6534797  45.1778010
  37.5260024  98.1166930  58.1730448  37.2349890  99.0212561  58.0577114
  38.1617008  98.1583457  58.8874517  38.4516231  95.4943778  54.7631807
  39.0479803  95.2699801  54.0488770  38.5091202  94.7528524  55.3657255
  38.0241259  92.9483214  42.5981998  38.2766780  92.4264735  41.8365461
  37.0865818  92.7849359  42.7008682  43.0684542  91.9518992  50.4056741
  43.8547631  91.5338415  50.0547158  43.3323246  92.8565084  50.5738390
  43.2394619  97.3891842  45.1045398  42.6040452  97.4626469  45.8166303
  42.9092026  97.9785441  44.4264477  48.4692969  91.8894225  51.3089720
  49.2018141  91.3193442  51.5427549  47.7132325  91.5015826  51.7496225
  37.7437548  94.8511320  44.8006373  37.6273806  94.1756223  45.4687457
  37.8539808  94.3643693  43.9838526  40.0869089  94.3121467  48.5053062
  39.7227296  93.7852088  49.2165984  40.9436205  93.9219936  48.3319548
  45.9918390  85.6015799  55.7684328  45.6601714  86.4711210  55.5445543
  45.3964003  85.2852083  56.4478359  39.7274576  89.3411366  43.5014411
  39.8948978  90.2091603  43.8684882  39.5371745  89.5038648  42.5775700
  42.4849909  97.8028345  55.1680241  42.1850632  98.7053384  55.0596048
  42.1400969  97.5360528  56.0201394  35.9362391  94.2542142  51.2016946
  35.0112887  94.1218356  51.4094637  36.1846804  95.0336361  51.6986888
  45.8847053  90.3210885  52.8477679  44.9763930  90.2526294  52.5536440
  45.8334649  90.7982830  53.6759504  39.7063797  91.7969024  44.4861078
  39.5863422  92.2426075  45.3246558  39.0116385  92.1454342  43.9274616
  33.2971202  93.8975416  52.0360735  33.4263583  94.1509895  52.9500146
  32.6168653  94.4903124  51.7165390  37.4670689 104.5672666  48.1351209
  37.3894719 105.5180491  48.2139689  36.8632333 104.2218538  48.7926135
  39.9587919  91.7400531  60.7912576  39.1821253  92.2994451  60.7815440
  40.5978482  92.2257314  61.3127446  47.7508699  88.5227324  54.6255552
  47.1083080  88.8159857  53.9795347  47.2463628  88.4080244  55.4308749
  45.4048863  92.2690497  45.3141412  46.3166719  92.5017884  45.1389109
  44.8958510  92.8527541  44.7516490  38.2134291  94.5485984  60.3530543
  38.9548975  95.0871028  60.0765366  37.5071276  95.1752273  60.5102095
  43.6889631  96.6915125  58.9502704  44.0972987  96.2497535  58.2057337
  42.9666892  96.1167752  59.2036897  40.0420701  91.6287732  56.3236261
  40.8881896  92.0527145  56.4670910  39.9819338  90.9721356  57.0174824
  44.0118445  97.2516315  52.7054993  43.3827308  97.4162030  52.0031061
  43.6244107  97.6657925  53.4765957  47.8907677  98.1870753  50.0599357
  47.2058715  98.5669655  49.5096390  47.9751527  98.7966080  50.7931305
  43.1920146  89.2892100  57.9817435  42.9481078  90.0434160  57.4451711
  43.4680077  89.6677448  58.8164682  45.1458609  95.8330712  56.6594700
  45.3575504  96.4762472  55.9829082  45.0988357  94.9993029  56.1916631
  42.7484838  88.4448533  53.5631273  41.8869317  88.7429787  53.8548010
  42.7747272  88.6618932  52.6312305  39.5646407  96.9890724  49.9705078
  40.0284753  97.2678427  49.1809701  39.3003205  96.0874168  49.7878169
  36.4570488  96.5362205  52.9084842  37.0271845  96.9649473  52.2702326
  37.0478600  96.2544790  53.6069027  38.5015293  93.1113876  46.7794643
  39.2039337  93.5634920  47.2468570  38.1695922  92.4697695  47.4074537
  36.9495655  91.7025633  61.1545853  36.3194315  92.3841913  61.3881250
  36.8431743  91.5908714  60.2098991  32.2440627  91.3697429  52.0811777
  31.4539681  91.6254957  51.6051888  32.7351875  92.1845766  52.1863818
  46.2604437  98.7102668  54.8317058  47.0821880  98.3082855  54.5499739
  46.2566840  98.6070902  55.7833174  34.1955373  91.7342008  49.0395254
  33.3986536  91.8460702  49.5578749  33.9680965  92.0728660  48.1736144
  40.0261040  98.2586711  56.9877768  40.0905473  98.7207118  57.8235940
  39.3171964  97.6284076  57.1160078  30.5278330  91.6227919  54.5126768
  30.7786369  92.5074929  54.7784344  31.0637879  91.4432521  53.7401860
  54.3510430  95.0541416  51.1802029  53.5974138  94.4848814  51.0246034
  54.4857971  95.0204081  52.1272664  39.7409058  99.9254819  46.8556749
  39.6054733 100.7706354  47.2841596  40.2818870 100.1274096  46.0922682
  36.2276397  86.0046398  63.5171104  35.8343343  85.4512597  64.1918748
  37.0442538  86.3156977  63.9077621  33.1938455  97.4430257  47.4284674
  33.7062976  98.2373507  47.5790238  33.8461168  96.7456547  47.3618275
  35.0033340 100.5596013  49.5107427  35.1799968 101.4813978  49.3228411
  35.7990173 100.2454432  49.9401807  39.1444358  87.4204277  61.1091360
  39.8854072  88.0211431  61.0295823  39.3762281  86.6781915  60.5509403
  34.2885696  92.6060645  59.3869590  34.1739212  91.7045902  59.6876689
  33.4330214  92.8524342  59.0354407  41.3677534 100.5478385  60.9857091
  40.9241388  99.7614764  60.6677995  42.0294748 100.7357536  60.3200982
  36.1264655 102.0774187  55.5117769  36.6772081 101.9491250  54.7394763
  35.2876131 102.3769076  55.1612662  43.4658772 100.8281185  59.0138492
  43.4477248 101.6490066  58.5218761  44.3878692 100.7035260  59.2388633
  39.9231826  98.3425314  59.8562000  40.4560163  97.5813603  59.6261308
  39.3945908  98.0498966  60.5986155  43.0901521  83.4485380  55.3855642
  42.7465791  84.3387022  55.3094753  43.4580484  83.2587038  54.5225227
  31.1587372  95.7718911  48.2044244  31.9962594  96.1815919  47.9877952
  31.3365640  94.8318353  48.1744438  43.0551804  93.4393992  43.8928077
  42.5398428  94.2098596  44.1316465  42.7829113  92.7659128  44.5161139
  40.6398915  88.2843692  48.9513316  39.7840512  87.8950543  48.7718954
  41.0525867  88.3635653  48.0913101  42.1698062  85.8190036  53.3504875
  41.6662857  85.7820171  52.5372681  42.4628669  86.7282778  53.4101532
  38.4140948  85.9028765  52.3571057  39.2793944  85.7071574  51.9976947
  38.4818457  85.6739117  53.2840414  48.0286078  96.1926346  45.8281251
  47.2515521  95.8537506  45.3836413  48.7077559  96.1978969  45.1536216
  42.8438107  91.3121084  45.7187858  42.5388243  91.6267233  46.5698002
  43.7968549  91.3902504  45.7615191  41.2884539  97.4711307  47.3680812
  40.7605901  96.7364067  47.0554050  40.7872042  98.2485983  47.1220781
  46.2677385  95.6660327  52.4847859  45.6101060  96.3559589  52.5727987
  47.0717784  96.0556759  52.8281845  36.0203267  88.1330973  49.7287424
  36.5947019  87.9106155  48.9960617  36.6074249  88.2019668  50.4816025
  45.0782844  94.0204700  50.5351800  45.5914726  94.6534692  51.0373510
  45.7284068  93.4205896  50.1695160  36.3472854  90.1635434  43.7483309
  35.5110166  90.5010121  44.0692584  36.2077624  90.0284414  42.8110446
  38.3225934  85.0072222  48.4562493  37.6690347  84.6921239  47.8319108
  38.2806409  84.3847963  49.1822316  39.4337139  95.2891517  40.3715785
  38.5264201  95.0580771  40.5706934  39.9308171  94.4929136  40.5589767
  42.3405218 103.9989024  43.2912472  41.6666917 104.3020721  43.8997429
  42.7271040 104.8018105  42.9417929  41.5563675  91.4954156  52.7810141
  40.6386236  91.7169103  52.6231829  41.9723818  91.5700466  51.9221848
  42.3398723  92.8945571  47.9112821  43.0870542  93.4066969  47.6019943
  42.6090312  92.5729624  48.7717215  40.6125373  95.3904112  44.8939776
  39.7036592  95.1063145  44.9912245  40.6420457  95.8103191  44.0343082
  45.8444640  99.0010702  48.6630943  45.3906967  98.1601611  48.7196134
  45.2138607  99.6372100  49.0005723  44.7877560  89.9302688  49.8931611
  44.0500317  89.4180074  50.2241853  45.0404333  89.4903069  49.0814887
  44.2877579 100.8387198  49.5980761  44.5800554 101.3992255  48.8793127
  44.7976200 101.1315759  50.3533920  44.8889187  82.7078940  50.4873380
  45.1948064  81.8476303  50.1999295  45.6141792  83.2996560  50.2872374
  31.1813543  93.1109626  48.8754978  30.9837943  92.5178987  48.1506044
  30.6260207  92.8061836  49.5930916  39.1610267  93.0032733  50.9949571
  39.2158877  92.0506569  50.9192047  38.3501469  93.1592172  51.4790869
  40.3101461  96.9312856  42.2327854  39.8720891  96.2148715  41.7733491
  41.0511901  97.1588971  41.6712945  37.1002627  91.6209792  48.7539950
  36.2870492  91.9203963  49.1605142  37.5961621  91.2265481  49.4714432
  39.2511205 101.6167549  50.6874214  39.2087383 101.8428396  49.7582746
  40.1673903 101.3830924  50.8360016  42.6976838  92.0851617  57.5854844
  43.0526226  92.3123090  58.4449309  43.3448970  92.4169994  56.9632099
  48.4274575  95.2070053  48.2904173  48.2892474  95.3971649  47.3625362
  48.0710794  95.9689436  48.7472224  36.5916701  89.1928148  54.3701185
  37.2316081  89.0516907  53.6724148  35.7594232  88.9062661  53.9939787
  48.4543955  97.2746580  53.3015444  48.8880462  97.1821869  54.1498498
  49.1675536  97.2504080  52.6635460  37.3677005  98.4930578  50.4836177
  38.1617604  97.9980899  50.2818752  36.6568698  97.9648441  50.1203883
  42.1871850 100.8748674  54.8348545  42.2408872 101.4439610  55.6026261
  41.3186631 101.0450559  54.4702582  33.6759769  92.6373660  46.5595930
  32.7457357  92.5758116  46.7765892  33.7717241  92.1149613  45.7632571
  33.5945318  89.1628473  49.1474171  33.8552135  90.0773806  49.0383332
  34.4162490  88.6952915  49.2970784  35.0670243  90.5766230  56.3172996
  35.7393297  90.3683592  55.6685645  34.2400030  90.3788316  55.8778228
  49.3159505  97.3170280  55.8348330  49.5095395  98.2216091  56.0807604
  49.2160123  96.8577700  56.6686915  40.9695815  87.2028171  58.3338657
  40.3223730  87.9018121  58.2403133  41.7396831  87.6364315  58.7014905
  44.3774613  97.4677023  61.4089210  44.2260120  97.2387575  60.4919294
  44.3679293  98.4247625  61.4220555  41.1459950  95.0408936  56.3935477
  42.0752010  95.1920096  56.2204444  40.7250980  95.1292957  55.5384123
  39.9448281  99.0659600  54.1634014  39.8059367  98.6978385  55.0359952
  39.1562878  99.5807240  53.9917972  40.5396433 104.1668697  45.5059551
  40.7148189 103.6956740  46.3205173  39.8529221 104.7934463  45.7340811
  41.4953497  98.4441203  51.5522852  41.1603329  98.4041973  52.4480502
  40.9957442  97.7785919  51.0793262  35.4697740  93.8508833  57.0775433
  35.3317538  93.1189072  57.6786972  36.3802664  93.7617733  56.7959621
  44.4312688  95.7897237  41.8259912  43.8141859  95.0644066  41.7292964
  43.9629177  96.5506598  41.4826986  38.0980041  93.5628792  56.5659113
  38.8079660  92.9221985  56.5245731  38.0549349  93.8141687  57.4885294
  46.0866820 100.4996146  59.4865692  46.0279366  99.8155366  58.8196275
  46.4886338 101.2415136  59.0346318  36.8108975  90.5494010  58.3854752
  36.2746332  90.0984749  59.0376349  36.2225684  90.6839919  57.6425217
  35.1057519 107.3158060  52.2799411  35.3454117 107.9476584  52.9578429
  34.2626715 106.9646100  52.5664770  36.2211234  90.0082662  40.9481216
  35.3440700  89.8871462  40.5843463  36.6968987  89.2168740  40.6960105
  46.0884227  98.4635730  57.7179672  45.2011006  98.1261651  57.8406071
  46.6582778  97.7318761  57.9548437  27.7413374  94.7959821  51.0422723
  28.4284414  94.4821551  50.4543738  27.5861503  95.7001186  50.7689975
  32.5448096  89.6850018  55.4707747  32.4606285  89.0775688  54.7358157
  31.7230803  90.1759036  55.4717243  39.6185381 103.1237182  54.6840915
  39.5455552 103.9292154  55.1960219  39.1762774 103.3229148  53.8588936
  39.4075160 102.3608952  48.1943736  38.6242682 102.9030632  48.2881961
  40.1067905 102.8782932  48.5937978  42.7171810  88.1703582  50.8377942
  43.2140510  87.4173544  50.5179012  41.9458792  88.2067898  50.2721151
  50.5701568  93.8743947  52.4796233  50.5591444  94.7568662  52.1090166
  49.7018947  93.5215498  52.2850770  42.0784064 103.0224016  56.8399074
  42.7912036 103.6571481  56.7674975  41.5874093 103.1187882  56.0239075
  43.8001591  96.9275269  48.4116365  42.8657870  97.0476731  48.2421070
  43.9778259  96.0247736  48.1476375  39.3006779  90.3120965  50.5649626
  38.9304567  89.7592005  51.2530532  39.7965871  89.7079098  50.0124626
  47.1874142  92.7692588  48.9466399  47.6534594  93.6020580  48.8726702
  47.6381643  92.3037570  49.6511658  37.1295978 100.7718460  57.6604644
  37.8305437 101.4054942  57.8134039  36.6591093 101.1133191  56.9000284
  45.2550373  99.1136409  45.9452551  45.5310217  98.9993004  46.8546425
  44.3854872  98.7153894  45.9064724  45.1590805  85.1373175  52.9857301
  44.2453885  85.3677402  53.1539508  45.5883906  85.2211619  53.8371333
  44.9297264  93.3263067  55.4857195  44.2768714  93.5738974  54.8309647
  45.3077643  92.5127205  55.1519672  41.8904437 103.3622760  49.5885365
  42.0726832 102.5444416  50.0513117  42.7137423 103.5790452  49.1510255
  42.2246603 102.2890945  46.8500414  42.7534369 101.7783400  46.2370576
  42.4874822 101.9733475  47.7145947  40.9784837  94.0682878  61.9723232
  40.3025474  93.9677007  62.6425607  41.8012470  93.9122092  62.4359229
  32.7263696 100.3054815  54.5935747  33.3117132  99.5598502  54.7263651
  32.5288534 100.6158771  55.4772411  35.5802351 103.3406062  49.6098189
  34.9112726 103.8252190  49.1262229  35.4415221 103.5875282  50.5241568
  27.3181350  92.8760415  53.3140190  27.3565450  92.3424005  54.1077308
  26.8121643  92.3495620  52.6951167  39.7207619 105.3749805  56.2080848
  40.2725927 105.5381427  56.9729933  40.0613813 105.9654243  55.5360873
  34.6972113  87.7224955  56.8102733  34.7613439  88.5839786  56.3980130
  34.6339233  87.1098957  56.0775091  34.1724385  89.7948088  60.4575767
  34.7996424  89.4125165  61.0713291  33.3152304  89.5762290  60.8231459
  44.5718494 100.2011063  62.0629502  45.1158398 100.8141021  61.5684457
  43.9905339 100.7590641  62.5796515  30.9489928  91.6024517  46.3894122
  31.2443369  90.6935195  46.3361175  30.0477964  91.5812256  46.0675124
  42.8576007 103.3231781  53.1944530  42.7327146 102.5221521  52.6855475
  43.5155098 103.8177974  52.7058500  34.4784175  89.6780514  52.3721670
  33.7570761  90.2916481  52.2329144  35.2677431  90.2138278  52.2938316
  44.9210915 101.1240801  54.8224080  43.9741251 101.0046152  54.7502407
  45.2693688 100.2363299  54.9050341  37.2810488  87.0134940  58.6462322
  37.8044890  87.2597237  59.4088631  37.0622822  87.8454975  58.2265459
  32.6777770  89.2838615  46.5133447  32.3490476  88.4035994  46.3308553
  33.0317140  89.2286283  47.4009836  41.9257348 100.9193517  51.0228432
  41.7782311  99.9910225  51.2036002  42.7510842 100.9413608  50.5385508
  35.7919593  89.5711584  46.8808924  36.1315665  90.0997506  46.1587533
  36.2391713  89.9091991  47.6567491  45.5291470 101.7422076  52.1093305
  46.4538018 101.5364937  51.9717756  45.3606774 101.4938477  53.0182647
  38.4863034  87.9548635  56.3311992  38.1459854  87.1556448  56.7332672
  37.7802040  88.2550346  55.7588826  39.1379505  85.0397948  54.7839316
  39.9605575  84.5658426  54.6618206  39.3817569  85.8188431  55.2838002
  37.7787740  88.0686206  45.0802217  38.4996102  88.4467459  44.5765934
  37.1553044  88.7875083  45.1837195  41.9218863  88.7731355  46.0160550
  42.1382477  89.6555993  45.7149378  41.4412930  88.3817568  45.2866192
  36.6618084  91.7317068  52.5931294  36.5162665  92.0457371  53.4855576
  36.1843288  92.3501969  52.0402193  38.5214467  88.7219616  52.6412184
  38.5076036  87.8260709  52.3044482  39.2386895  88.7290280  53.2750470
  40.3740598  89.1556956  54.6865311  40.1158376  90.0774027  54.6849642
  39.8425638  88.7587391  55.3765775  45.3186786 102.2607743  47.4655396
  45.4923664 101.6954166  46.7129249  45.8115678 103.0608638  47.2834886
  31.1363746  94.2722413  55.5318955  30.5917214  95.0482221  55.6639230
  32.0143096  94.6193217  55.3738077  37.9251363  87.6033996  47.9099754
  38.0467274  86.6750643  48.1090641  37.6353405  87.6172682  46.9978069
  40.7942553  85.2888907  51.0466474  40.8164250  85.3528240  50.0918453
  41.2110612  84.4493416  51.2406980  51.1726178  95.0244166  49.0845696
  51.6157324  94.2751492  48.6864820  50.2952688  95.0154303  48.7019428
  46.3061959 101.5774508  44.5652295  47.0012864 102.1981201  44.7839609
  46.6485109 100.7269859  44.8404673  31.9229768  93.3992309  58.4249112
  31.1811504  93.5474944  59.0113743  31.6022512  93.6600574  57.5615862
  48.2053382  99.0274213  46.0939626  48.7304706  99.3661486  45.3688946
  48.1175735  98.0921229  45.9102760  39.8673431 102.9408287  58.2229502
  40.1760557 102.6957434  59.0952202  40.6648913 103.1454926  57.7348372
  39.8894043 105.0946197  50.4534879  39.4499033 104.6022575  51.1467735
  40.6402160 104.5519164  50.2126954  32.3686382 101.2857738  50.4559507
  33.1944402 100.9861509  50.0758150  32.0180434 100.5165360  50.9049295
  37.3367915 100.6384206  52.5257180  36.7147924  99.9754911  52.2259408
  38.0072782 100.6645338  51.8430828  30.5694987  99.2044064  51.4148440
  29.7326895  98.7766238  51.2332442  30.5418632  99.3976507  52.3519232
  37.4092442  89.1165994  62.1189686  37.4580598  89.9928117  61.7367456
  37.9514957  88.5743387  61.5461330  47.8947288  99.6607117  61.3990824
  47.1042832  99.6431256  60.8595323  47.6580643 100.1995411  62.1539860
  48.0145163  96.5099583  58.7123552  48.0643168  96.3449591  59.6539075
  47.9059087  95.6426842  58.3221433  36.8981422  99.1888129  46.0015641
  37.0469542  99.8723594  45.3482314  37.7047865  99.1693219  46.5165097
  45.3048926  92.4930511  60.0282859  46.2058788  92.3536976  59.7366857
  45.3796900  92.6584966  60.9681036  39.6391731  89.8697366  58.8736045
  38.7695040  90.1630932  58.6018634  39.8751211  90.4537811  59.5943309
  49.5163360  98.9296525  58.9565574  49.2248168  99.2926506  59.7929035
  48.9035491  98.2163533  58.7778906  50.7159042  96.4949405  51.4768144
  51.5505934  96.9339209  51.6405704  50.8518171  96.0188058  50.6576390
  47.7650548  94.0529140  57.4245632  48.2404670  94.2456786  56.6164483
  46.8416114  94.1088325  57.1789015  34.6534055  95.2153307  47.0076710
  34.4080097  94.3115637  47.2056920  34.8229969  95.2170457  46.0656188
  42.3430765  86.0876983  56.3901465  42.8612709  86.8238010  56.0647954
  41.9885897  86.3940976  57.2248225  33.9229702  90.9481664  44.5062871
  33.2298947  91.0226019  43.8502907  33.6781454  90.1842008  45.0284388
  42.5943359  82.5077266  51.9102362  42.8745113  81.8400455  52.5362789
  43.3793966  82.7006361  51.3977026  40.3976827 101.6836260  43.4727388
  39.8250794 102.3026447  43.0197860  40.9709621 102.2335621  44.0067310
  46.4652217  90.9294900  55.6573937  47.4169640  91.0292997  55.6786161
  46.2955668  90.1373168  56.1672022  44.4866597  88.0150483  55.8433338
  43.8916529  88.2955496  55.1479827  44.2016293  88.5044384  56.6150079
  43.6174087 101.9673410  44.6035971  44.5504760 101.9018971  44.8068846
  43.5297300 102.8029677  44.1450503  46.2462104 101.2839280  41.5639918
  46.1675735 100.9499144  42.4575676  47.0671771 101.7761048  41.5631391
  48.9440295  94.1501019  54.7716237  48.9116615  93.2117020  54.9575921
  49.5540919  94.2285056  54.0382062  40.7823626  93.0197072  40.8143441
  41.7282731  92.8903280  40.8831859  40.4037871  92.2811734  41.2912869
  49.0934784  90.9412063  54.8174520  48.5773832  90.1570519  54.6304449
  49.9774732  90.6130779  54.9821039  46.7545510  84.6853078  50.7770333
  46.5570332  84.3768167  51.6613665  47.3645216  85.4114717  50.9068263
  54.7616845  95.2117026  53.9122274  55.4920233  94.9502314  54.4729977
  54.1523790  94.4745748  53.9524342  52.8432142  93.3524889  54.5096725
  52.1165306  93.2180854  53.9013216  52.4279429  93.6601717  55.3153443
  40.6662318  97.0714818  62.2744098  41.5865328  97.2493417  62.4684144
  40.6311901  96.1270864  62.1223797  38.9666543  90.9447049  40.7498326
  38.0597998  90.6480161  40.8261040  39.2442524  90.6476867  39.8832612
  29.8844483  92.2653412  51.1997372  29.5647268  91.4118720  50.9071746
  29.3377912  92.4801990  51.9555340  33.6624391  94.9815853  54.9166879
  33.8810401  95.9132961  54.9354913  34.0750165  94.6223828  55.7021683
  40.5828609  85.4883938  46.9042567  39.7729337  85.1431023  47.2797813
  41.2713026  85.1791482  47.4930179  42.5119157  84.5661985  48.5266864
  43.0650196  84.9857439  49.1856887  42.7489243  83.6397733  48.5689820
  38.5352256  90.5549059  64.3069628  38.4348983  91.5043416  64.2381719
  38.3173798  90.2267298  63.4345698  37.7365328  87.8033984  40.8910305
  38.5984492  88.1288882  41.1506123  37.9215672  87.0165480  40.3783371
  29.7532743  95.8856324  53.1690494  29.0596215  95.4710276  52.6560448
  30.5005734  95.9276860  52.5723913  45.8897964  86.6762510  48.0345528
  45.3096633  87.3347314  47.6523581  45.6233897  85.8539855  47.6232946
  44.3401531  86.0767568  50.2366849  44.8401309  86.1884103  49.4281167
  44.9837138  85.7728621  50.8767657  38.3983526  93.9846198  63.1234690
  37.9150608  94.7846558  63.3298579  38.4844465  93.9954143  62.1702134
  31.6669486  95.8174577  51.0456509  31.6440174  95.9162265  50.0938392
  31.9770122  96.6639728  51.3673675  34.3256864  97.8750732  55.1603123
  35.2800117  97.8434675  55.0933055  34.1269387  97.4141356  55.9753349
  34.9156246  96.4451848  57.7273921  35.7349135  96.9395927  57.7508758
  35.1893054  95.5283817  57.6991489  44.6722842  88.8362601  47.0901877
  43.7848697  89.1212251  46.8722071  45.0876831  88.6756364  46.2429153
  48.0237378  88.8609122  50.8056216  48.7997768  89.3505574  51.0780833
  47.2985512  89.2867176  51.2628085  50.4609937  89.5736741  51.8630156
  51.0554428  89.3332477  51.1523465  50.5336521  88.8543872  52.4903693
  32.6807093 103.4170352  52.1773321  32.5461561 102.6570753  51.6111319
  32.2639155 104.1411252  51.7102110  43.8166056  98.6007275  41.1849897
  44.5201906  98.8057278  41.8007552  43.0928704  99.1684037  41.4498980
  44.6463866  94.3517137  47.3052167  44.5899067  94.8085688  46.4659799
  45.1992208  93.5907821  47.1275009  48.4568672  90.1406869  48.1302286
  48.2005606  89.7403504  48.9610494  47.8321540  90.8550663  48.0052425
  52.7681010  92.8802942  50.6373578  52.2080568  92.9496131  51.4105140
  52.1624513  92.7043926  49.9173074  35.8376218 104.3139669  52.3891764
  35.7208603 105.2585101  52.2870454  35.0168665 104.0113230  52.7777563
  45.7252753  99.0389805  43.2348357  46.5598357  98.6071003  43.0525831
  45.5637096  98.8671818  44.1625251  45.3798645  95.5421918  44.6004696
  45.3247449  95.3766189  43.6593140  44.7544700  96.2497951  44.7566886
  30.1691160  90.7789982  58.4266118  30.8150024  90.2688936  58.9153343
  29.9608311  91.5158664  59.0009543  42.6944552  97.8470830  63.9258259
  43.5635712  98.0211482  63.5644894  42.2151304  98.6665247  63.8033988
  38.6894771  85.0430027  44.1790014  38.6773441  85.9871867  44.3358285
  39.5818193  84.8600172  43.8849475  36.8630733 104.9667931  55.6047692
  37.7657979 104.9991541  55.9214187  36.6368103 104.0368382  55.6194028
  38.6184335 103.7198917  52.2657771  37.6679966 103.7200779  52.1522143
  38.9216821 102.9731652  51.7493806  42.5046890  81.6372804  48.4335951
  41.7379286  81.0831290  48.5792633  42.9157595  81.7094672  49.2950103
  34.5088651  87.9257599  62.5241132  35.3720113  87.5694404  62.7344457
  33.9354062  87.5871494  63.2116537  54.3537028 109.5559456  53.3303533
  54.9915438 109.4366203  52.6266873  54.2357871 110.5040300  53.3891485
  51.1626734 109.5086884  53.2665058  50.8245246 109.3927949  52.3785593
  52.0316503 109.1078049  53.2466064  47.0213550 111.3622360  49.2561949
  46.4578415 111.2712297  48.4878237  46.9065945 110.5422265  49.7364441
  51.6446517 110.6621736  59.2251264  51.6335158 110.2674534  58.3531767
  51.8067157 109.9287808  59.8185035  44.5677982 112.8573552  52.0946169
  45.3599274 112.5164377  51.6792469  44.8074632 112.9668527  53.0148323
  52.6013109 115.0293328  44.5676414  51.9501089 115.6147408  44.1810428
  53.3957472 115.5599523  44.6271451  46.5268736 112.1182465  44.9663548
  47.2999612 111.5711452  44.8276424  46.8794135 112.9826714  45.1778010
  48.3653779 113.4458847  58.1730448  48.0743645 114.3504478  58.0577114
  49.0010763 113.4875375  58.8874517  49.2909985 110.8235696  54.7631807
  49.8873558 110.5991718  54.0488770  49.3484957 110.0820441  55.3657255
  48.8635014 108.2775131  42.5981998  49.1160534 107.7556653  41.8365461
  47.9259573 108.1141277  42.7008682  53.9078297 107.2810910  50.4056741
  54.6941386 106.8630333  50.0547158  54.1717001 108.1857002  50.5738390
  54.0788374 112.7183760  45.1045398  53.4434207 112.7918386  45.8166303
  53.7485780 113.3077359  44.4264477  59.3086724 107.2186143  51.3089720
  60.0411896 106.6485360  51.5427549  58.5526079 106.8307743  51.7496225
  48.5831303 110.1803237  44.8006373  48.4667561 109.5048141  45.4687457
  48.6933562 109.6935611  43.9838526  50.9262843 109.6413384  48.5053062
  50.5621051 109.1144005  49.2165984  51.7829959 109.2511853  48.3319548
  50.5668330 104.6703284  43.5014411  50.7342733 105.5383520  43.8684882
  50.3765500 104.8330566  42.5775700  53.3243664 113.1320263  55.1680241
  53.0244387 114.0345302  55.0596048  52.9794723 112.8652446  56.0201394
  46.7756145 109.5834060  51.2016946  45.8506642 109.4510274  51.4094637
  47.0240558 110.3628279  51.6986888  50.5457551 107.1260942  44.4861078
  50.4257177 107.5717992  45.3246558  49.8510140 107.4746259  43.9274616
  44.1364956 109.2267333  52.0360735  44.2657337 109.4801812  52.9500146
  43.4562407 109.8195041  51.7165390  48.3064443 119.8964583  48.1351209
  48.2288473 120.8472408  48.2139689  47.7026087 119.5510456  48.7926135
  50.7981673 107.0692449  60.7912576  50.0215007 107.6286369  60.7815440
  51.4372236 107.5549232  61.3127446  56.2442617 107.5982415  45.3141412
  57.1560474 107.8309801  45.1389109  55.7352265 108.1819459  44.7516490
  49.0528045 109.8777902  60.3530543  49.7942730 110.4162946  60.0765366
  48.3465031 110.5044191  60.5102095  54.5283385 112.0207043  58.9502704
  54.9366741 111.5789453  58.2057337  53.8060647 111.4459670  59.2036897
  50.8814455 106.9579649  56.3236261  51.7275650 107.3819063  56.4670910
  50.8213093 106.3013274  57.0174824  54.8512200 112.5808233  52.7054993
  54.2221062 112.7453947  52.0031061  54.4637862 112.9949843  53.4765957
  58.7301432 113.5162671  50.0599357  58.0452470 113.8961572  49.5096390
  58.8145281 114.1257998  50.7931305  54.0313901 104.6184018  57.9817435
  53.7874832 105.3726078  57.4451711  54.3073831 104.9969365  58.8164682
  55.9852363 111.1622630  56.6594700  56.1969259 111.8054390  55.9829082
  55.9382112 110.3284947  56.1916631  53.5878592 103.7740451  53.5631273
  52.7263071 104.0721704  53.8548010  53.6141027 103.9910850  52.6312305
  50.4040162 112.3182641  49.9705078  50.8678507 112.5970344  49.1809701
  50.1396960 111.4166086  49.7878169  47.2964243 111.8654123  52.9084842
  47.8665600 112.2941391  52.2702326  47.8872355 111.5836707  53.6069027
  49.3409048 108.4405794  46.7794643  50.0433091 108.8926837  47.2468570
  49.0089676 107.7989612  47.4074537  47.7889409 107.0317550  61.1545853
  47.1588070 107.7133831  61.3881250  47.6825497 106.9200632  60.2098991
  43.0834382 106.6989346  52.0811777  42.2933436 106.9546875  51.6051888
  43.5745629 107.5137684  52.1863818  57.0998191 114.0394585  54.8317058
  57.9215635 113.6374773  54.5499739  57.0960594 113.9362820  55.7833174
  45.0349127 107.0633926  49.0395254  44.2380290 107.1752620  49.5578749
  44.8074719 107.4020578  48.1736144  50.8654795 113.5878629  56.9877768
  50.9299227 114.0499036  57.8235940  50.1565719 112.9575994  57.1160078
  41.3672085 106.9519837  54.5126768  41.6180123 107.8366847  54.7784344
  41.9031633 106.7724438  53.7401860  65.1904184 110.3833334  51.1802029
  64.4367893 109.8140732  51.0246034  65.3251725 110.3495998  52.1272664
  50.5802812 115.2546736  46.8556749  50.4448487 116.0998272  47.2841596
  51.1212625 115.4566014  46.0922682  47.0670152 101.3338316  63.5171104
  46.6737098 100.7804515  64.1918748  47.8836292 101.6448895  63.9077621
  44.0332210 112.7722174  47.4284674  44.5456730 113.5665425  47.5790238
  44.6854923 112.0748465  47.3618275  45.8427094 115.8887931  49.5107427
  46.0193723 116.8105895  49.3228411  46.6383928 115.5746350  49.9401807
  49.9838113 102.7496195  61.1091360  50.7247826 103.3503348  61.0295823
  50.2156036 102.0073833  60.5509403  45.1279451 107.9352562  59.3869590
  45.0132966 107.0337820  59.6876689  44.2723969 108.1816259  59.0354407
  52.2071289 115.8770303  60.9857091  51.7635143 115.0906681  60.6677995
  52.8688502 116.0649453  60.3200982  46.9658410 117.4066104  55.5117769
  47.5165835 117.2783168  54.7394763  46.1269886 117.7060993  55.1612662
  54.3052527 116.1573103  59.0138492  54.2871002 116.9781984  58.5218761
  55.2272447 116.0327178  59.2388633  50.7625581 113.6717232  59.8562000
  51.2953918 112.9105520  59.6261308  50.2339662 113.3790884  60.5986155
  53.9295276  98.7777298  55.3855642  53.5859545  99.6678940  55.3094753
  54.2974239  98.5878956  54.5225227  41.9981127 111.1010829  48.2044244
  42.8356349 111.5107837  47.9877952  42.1759394 110.1610271  48.1744438
  53.8945559 108.7685909  43.8928077  53.3792182 109.5390514  44.1316465
  53.6222867 108.0951045  44.5161139  51.4792670 103.6135610  48.9513316
  50.6234266 103.2242460  48.7718954  51.8919621 103.6927571  48.0913101
  53.0091816 101.1481953  53.3504875  52.5056612 101.1112088  52.5372681
  53.3022423 102.0574696  53.4101532  49.2534702 101.2320683  52.3571057
  50.1187699 101.0363492  51.9976947  49.3212211 101.0031035  53.2840414
  58.8679833 111.5218264  45.8281251  58.0909276 111.1829423  45.3836413
  59.5471314 111.5270887  45.1536216  53.6831862 106.6413001  45.7187858
  53.3781997 106.9559150  46.5698002  54.6362304 106.7194421  45.7615191
  52.1278294 112.8003225  47.3680812  51.5999655 112.0655984  47.0554050
  51.6265796 113.5777901  47.1220781  57.1071140 110.9952245  52.4847859
  56.4494814 111.6851506  52.5727987  57.9111539 111.3848677  52.8281845
  46.8597021 103.4622891  49.7287424  47.4340773 103.2398072  48.9960617
  47.4468004 103.5311585  50.4816025  55.9176598 109.3496618  50.5351800
  56.4308480 109.9826610  51.0373510  56.5677822 108.7497813  50.1695160
  47.1866608 105.4927352  43.7483309  46.3503921 105.8302038  44.0692584
  47.0471378 105.3576332  42.8110446  49.1619689 100.3364140  48.4562493
  48.5084101 100.0213157  47.8319108  49.1200163  99.7139880  49.1822316
  50.2730894 110.6183435  40.3715785  49.3657956 110.3872688  40.5706934
  50.7701926 109.8221054  40.5589767  53.1798973 119.3280942  43.2912472
  52.5060671 119.6312639  43.8997429  53.5664795 120.1310022  42.9417929
  52.3957429 106.8246073  52.7810141  51.4779991 107.0461020  52.6231829
  52.8117573 106.8992384  51.9221848  53.1792477 108.2237489  47.9112821
  53.9264296 108.7358886  47.6019943  53.4484067 107.9021542  48.7717215
  51.4519127 110.7196030  44.8939776  50.5430347 110.4355063  44.9912245
  51.4814211 111.1395108  44.0343082  56.6838395 114.3302619  48.6630943
  56.2300722 113.4893529  48.7196134  56.0532361 114.9664018  49.0005723
  55.6271314 105.2594605  49.8931611  54.8894071 104.7471991  50.2241853
  55.8798088 104.8194987  49.0814887  55.1271334 116.1679116  49.5980761
  55.4194308 116.7284173  48.8793127  55.6369954 116.4607677  50.3533920
  55.7282942  98.0370857  50.4873380  56.0341818  97.1768221  50.1999295
  56.4535546  98.6288477  50.2872374  42.0207298 108.4401544  48.8754978
  41.8231697 107.8470905  48.1506044  41.4653962 108.1353754  49.5930916
  50.0004021 108.3324650  50.9949571  50.0552631 107.3798487  50.9192047
  49.1895223 108.4884089  51.4790869  51.1495215 112.2604773  42.2327854
  50.7114645 111.5440632  41.7733491  51.8905656 112.4880888  41.6712945
  47.9396381 106.9501710  48.7539950  47.1264247 107.2495881  49.1605142
  48.4355375 106.5557399  49.4714432  50.0904959 116.9459467  50.6874214
  50.0481138 117.1720313  49.7582746  51.0067658 116.7122842  50.8360016
  53.5370593 107.4143535  57.5854844  53.8919981 107.6415008  58.4449309
  54.1842724 107.7461911  56.9632099  59.2668330 110.5361970  48.2904173
  59.1286228 110.7263566  47.3625362  58.9104549 111.2981353  48.7472224
  47.4310456 104.5220066  54.3701185  48.0709835 104.3808825  53.6724148
  46.5987987 104.2354579  53.9939787  59.2937709 112.6038497  53.3015444
  59.7274216 112.5113787  54.1498498  60.0069290 112.5795998  52.6635460
  48.2070760 113.8222496  50.4836177  49.0011358 113.3272816  50.2818752
  47.4962452 113.2940359  50.1203883  53.0265604 116.2040592  54.8348545
  53.0802627 116.7731528  55.6026261  52.1580386 116.3742477  54.4702582
  44.5153523 107.9665578  46.5595930  43.5851111 107.9050033  46.7765892
  44.6110995 107.4441531  45.7632571  44.4339072 104.4920391  49.1474171
  44.6945890 105.4065724  49.0383332  45.2556245 104.0244833  49.2970784
  45.9063998 105.9058148  56.3172996  46.5787051 105.6975510  55.6685645
  45.0793784 105.7080234  55.8778228  51.8089570 102.5320089  58.3338657
  51.1617485 103.2310038  58.2403133  52.5790585 102.9656233  58.7014905
  55.2168368 112.7968941  61.4089210  55.0653874 112.5679493  60.4919294
  55.2073047 113.7539542  61.4220555  51.9853704 110.3700854  56.3935477
  52.9145764 110.5212013  56.2204444  51.5644734 110.4584874  55.5384123
  50.7842036 114.3951518  54.1634014  50.6453122 114.0270302  55.0359952
  49.9956632 114.9099157  53.9917972  51.3790188 119.4960614  45.5059551
  51.5541944 119.0248658  46.3205173  50.6922976 120.1226381  45.7340811
  52.3347251 113.7733121  51.5522852  51.9997084 113.7333891  52.4480502
  51.8351197 113.1077837  51.0793262  46.3091495 109.1800751  57.0775433
  46.1711293 108.4480990  57.6786972  47.2196418 109.0909651  56.7959621
  55.2706443 111.1189155  41.8259912  54.6535613 110.3935983  41.7292964
  54.8022931 111.8798515  41.4826986  48.9373796 108.8920710  56.5659113
  49.6473414 108.2513902  56.5245731  48.8943104 109.1433605  57.4885294
  56.9260574 115.8288063  59.4865692  56.8673120 115.1447284  58.8196275
  57.3280093 116.5707053  59.0346318  47.6502730 105.8785928  58.3854752
  47.1140087 105.4276666  59.0376349  47.0619438 106.0131837  57.6425217
  45.9451273 122.6449977  52.2799411  46.1847871 123.2768501  52.9578429
  45.1020470 122.2938017  52.5664770  47.0604989 105.3374579  40.9481216
  46.1834455 105.2163380  40.5843463  47.5362742 104.5460658  40.6960105
  56.9277982 113.7927647  57.7179672  56.0404760 113.4553569  57.8406071
  57.4976533 113.0610679  57.9548437  38.5807129 110.1251739  51.0422723
  39.2678169 109.8113469  50.4543738  38.4255257 111.0293104  50.7689975
  43.3841851 105.0141936  55.4707747  43.3000040 104.4067605  54.7358157
  42.5624557 105.5050954  55.4717243  50.4579135 118.4529100  54.6840915
  50.3849306 119.2584071  55.1960219  50.0156528 118.6521066  53.8588936
  50.2468915 117.6900870  48.1943736  49.4636437 118.2322550  48.2881961
  50.9461660 118.2074849  48.5937978  53.5565565 103.4995499  50.8377942
  54.0534264 102.7465462  50.5179012  52.7852546 103.5359816  50.2721151
  61.4095322 109.2035865  52.4796233  61.3985198 110.0860580  52.1090166
  60.5412702 108.8507416  52.2850770  52.9177819 118.3515934  56.8399074
  53.6305791 118.9863399  56.7674975  52.4267847 118.4479800  56.0239075
  54.6395345 112.2567186  48.4116365  53.7051624 112.3768649  48.2421070
  54.8172014 111.3539653  48.1476375  50.1400533 105.6412882  50.5649626
  49.7698321 105.0883923  51.2530532  50.6359626 105.0371016  50.0124626
  58.0267897 108.0984506  48.9466399  58.4928349 108.9312497  48.8726702
  58.4775397 107.6329487  49.6511658  47.9689732 116.1010377  57.6604644
  48.6699192 116.7346860  57.8134039  47.4984847 116.4425109  56.9000284
  56.0944128 114.4428327  45.9452551  56.3703972 114.3284922  46.8546425
  55.2248627 114.0445812  45.9064724  55.7691018 108.6554985  55.4857195
  55.1162468 108.9030892  54.8309647  56.1471398 107.8419123  55.1519672
  52.7298192 118.6914678  49.5885365  52.9120586 117.8736334  50.0513117
  53.5531178 118.9082370  49.1510255  53.0640357 117.6182863  46.8500414
  53.5928124 117.1075318  46.2370576  53.3268577 117.3025393  47.7145947
  51.8178591 109.3974796  61.9723232  51.1419228 109.2968925  62.6425607
  52.6406225 109.2414009  62.4359229  43.5657450 115.6346732  54.5935747
  44.1510887 114.8890420  54.7263651  43.3682289 115.9450689  55.4772411
  46.4196105 118.6697980  49.6098189  45.7506481 119.1544107  49.1262229
  46.2808975 118.9167200  50.5241568  38.1575105 108.2052332  53.3140190
  38.1959204 107.6715923  54.1077308  37.6515398 107.6787538  52.6951167
  50.5601374 120.7041723  56.2080848  51.1119682 120.8673345  56.9729933
  50.9007567 121.2946161  55.5360873  45.5365867 103.0516873  56.8102733
  45.6007194 103.9131704  56.3980130  45.4732987 102.4390875  56.0775091
  45.0118140 105.1240006  60.4575767  45.6390178 104.7417083  61.0713291
  44.1546059 104.9054207  60.8231459  55.4112248 115.5302981  62.0629502
  55.9552152 116.1432939  61.5684457  54.8299093 116.0882559  62.5796515
  41.7883682 106.9316435  46.3894122  42.0837124 106.0227113  46.3361175
  40.8871718 106.9104174  46.0675124  53.6969761 118.6523699  53.1944530
  53.5720901 117.8513439  52.6855475  54.3548852 119.1469892  52.7058500
  45.3177929 105.0072431  52.3721670  44.5964515 105.6208399  52.2329144
  46.1071185 105.5430196  52.2938316  55.7604670 116.4532719  54.8224080
  54.8135005 116.3338070  54.7502407  56.1087443 115.5655217  54.9050341
  48.1204243 102.3426858  58.6462322  48.6438645 102.5889154  59.4088631
  47.9016576 103.1746892  58.2265459  43.5171524 104.6130532  46.5133447
  43.1884230 103.7327911  46.3308553  43.8710895 104.5578201  47.4009836
  52.7651103 116.2485435  51.0228432  52.6176065 115.3202142  51.2036002
  53.5904596 116.2705526  50.5385508  46.6313347 104.9003502  46.8808924
  46.9709420 105.4289423  46.1587533  47.0785468 105.2383908  47.6567491
  56.3685225 117.0713994  52.1093305  57.2931772 116.8656855  51.9717756
  56.2000528 116.8230395  53.0182647  49.3256788 103.2840553  56.3311992
  48.9853608 102.4848366  56.7332672  48.6195794 103.5842264  55.7588826
  49.9773260 100.3689865  54.7839316  50.7999329  99.8950343  54.6618206
  50.2211323 101.1480349  55.2838002  48.6181494 103.3978124  45.0802217
  49.3389857 103.7759376  44.5765934  47.9946798 104.1167000  45.1837195
  52.7612617 104.1023273  46.0160550  52.9776232 104.9847911  45.7149378
  52.2806684 103.7109486  45.2866192  47.5011839 107.0608986  52.5931294
  47.3556419 107.3749289  53.4855576  47.0237042 107.6793886  52.0402193
  49.3608221 104.0511534  52.6412184  49.3469790 103.1552627  52.3044482
  50.0780650 104.0582198  53.2750470  51.2134352 104.4848874  54.6865311
  50.9552130 105.4065945  54.6849642  50.6819393 104.0879309  55.3765775
  56.1580541 117.5899661  47.4655396  56.3317418 117.0246084  46.7129249
  56.6509432 118.3900556  47.2834886  41.9757501 109.6014330  55.5318955
  41.4310969 110.3774138  55.6639230  42.8536851 109.9485135  55.3738077
  48.7645117 102.9325914  47.9099754  48.8861029 102.0042560  48.1090641
  48.4747160 102.9464600  46.9978069  51.6336308 100.6180825  51.0466474
  51.6558005 100.6820158  50.0918453  52.0504367  99.7785333  51.2406980
  62.0119932 110.3536084  49.0845696  62.4551078 109.6043409  48.6864820
  61.1346442 110.3446220  48.7019428  57.1455713 116.9066426  44.5652295
  57.8406618 117.5273118  44.7839609  57.4878864 116.0561777  44.8404673
  42.7623523 108.7284227  58.4249112  42.0205259 108.8766862  59.0113743
  42.4416267 108.9892492  57.5615862  59.0447137 114.3566131  46.0939626
  59.5698461 114.6953404  45.3688946  58.9569489 113.4213146  45.9102760
  50.7067185 118.2700205  58.2229502  51.0154312 118.0249352  59.0952202
  51.5042667 118.4746843  57.7348372  50.7287797 120.4238114  50.4534879
  50.2892788 119.9314493  51.1467735  51.4795914 119.8811082  50.2126954
  43.2080136 116.6149655  50.4559507  44.0338156 116.3153427  50.0758150
  42.8574188 115.8457278  50.9049295  48.1761669 115.9676123  52.5257180
  47.5541679 115.3046828  52.2259408  48.8466536 115.9937255  51.8430828
  41.4088741 114.5335982  51.4148440  40.5720650 114.1058156  51.2332442
  41.3812387 114.7268425  52.3519232  48.2486197 104.4457911  62.1189686
  48.2974352 105.3220034  61.7367456  48.7908711 103.9035305  61.5461330
  58.7341043 114.9899035  61.3990824  57.9436586 114.9723174  60.8595323
  58.4974397 115.5287328  62.1539860  58.8538918 111.8391501  58.7123552
  58.9036923 111.6741509  59.6539075  58.7452841 110.9718760  58.3221433
  47.7375176 114.5180047  46.0015641  47.8863297 115.2015511  45.3482314
  48.5441620 114.4985137  46.5165097  56.1442680 107.8222429  60.0282859
  57.0452543 107.6828894  59.7366857  56.2190655 107.9876884  60.9681036
  50.4785485 105.1989284  58.8736045  49.6088795 105.4922850  58.6018634
  50.7144966 105.7829729  59.5943309  61.5552797 111.8241322  51.4768144
  62.3899688 112.2631126  51.6405704  61.6911926 111.3479976  50.6576390
  58.6044303 109.3821057  57.4245632  59.0798424 109.5748704  56.6164483
  57.6809868 109.4380243  57.1789015  45.4927809 110.5445224  47.0076710
  45.2473851 109.6407554  47.2056920  45.6623724 110.5462375  46.0656188
  53.1824519 101.4168901  56.3901465  53.7006463 102.1529928  56.0647954
  52.8279652 101.7232894  57.2248225  44.7623457 106.2773582  44.5062871
  44.0692702 106.3517937  43.8502907  44.5175209 105.5133926  45.0284388
  53.4337113  97.8369183  51.9102362  53.7138867  97.1692372  52.5362789
  54.2187720  98.0298279  51.3977026  51.2370582 117.0128177  43.4727388
  50.6644549 117.6318364  43.0197860  51.8103376 117.5627539  44.0067310
  57.3045972 106.2586817  55.6573937  58.2563395 106.3584915  55.6786161
  57.1349422 105.4665086  56.1672022  54.4567842 117.2965327  44.6035971
  55.3898515 117.2310889  44.8068846  54.3691054 118.1321594  44.1450503
  57.0855858 116.6131198  41.5639918  57.0069490 116.2791061  42.4575676
  57.9065525 117.1052966  41.5631391  59.7834050 109.4792937  54.7716237
  59.7510370 108.5408938  54.9575921  60.3934673 109.5576974  54.0382062
  51.6217380 108.3488990  40.8143441  52.5676485 108.2195198  40.8831859
  51.2431625 107.6103652  41.2912869  59.9328538 106.2703980  54.8174520
  59.4167587 105.4862437  54.6304449  60.8168487 105.9422697  54.9821039
  57.5939265 100.0144996  50.7770333  57.3964086  99.7060084  51.6613665
  58.2038970 100.7406635  50.9068263  63.6825896 108.6816806  54.5096725
  62.9559060 108.5472771  53.9013216  63.2673183 108.9893635  55.3153443
  51.5056073 112.4006736  62.2744098  52.4259082 112.5785335  62.4684144
  51.4705656 111.4562781  62.1223797  49.8060298 106.2738966  40.7498326
  48.8991753 105.9772079  40.8261040  50.0836279 105.9768784  39.8832612
  40.7238238 107.5945330  51.1997372  40.4041022 106.7410638  50.9071746
  40.1771666 107.8093908  51.9555340  44.5018145 110.3107771  54.9166879
  44.7204155 111.2424879  54.9354913  44.9143919 109.9515745  55.7021683
  51.4222363 100.8175856  46.9042567  50.6123092 100.4722941  47.2797813
  52.1106780 100.5083400  47.4930179  53.3512912  99.8953903  48.5266864
  53.9043950 100.3149356  49.1856887  53.5882998  98.9689651  48.5689820
  49.3746011 105.8840977  64.3069628  49.2742738 106.8335334  64.2381719
  49.1567553 105.5559215  63.4345698  48.5759082 103.1325902  40.8910305
  49.4378246 103.4580800  41.1506123  48.7609426 102.3457398  40.3783371
  40.5926498 111.2148241  53.1690494  39.8989969 110.8002194  52.6560448
  41.3399489 111.2568778  52.5723913  56.7291719 102.0054428  48.0345528
  56.1490388 102.6639232  47.6523581  56.4627651 101.1831773  47.6232946
  55.1795285 101.4059486  50.2366849  55.6795063 101.5176020  49.4281167
  55.8230893 101.1020539  50.8767657  49.2377281 109.3138115  63.1234690
  48.7544363 110.1138476  63.3298579  49.3238220 109.3246060  62.1702134
  42.5063240 111.1466495  51.0456509  42.4833929 111.2454182  50.0938392
  42.8163877 111.9931646  51.3673675  45.1650618 113.2042650  55.1603123
  46.1193872 113.1726592  55.0933055  44.9663142 112.7433274  55.9753349
  45.7550000 111.7743766  57.7273921  46.5742889 112.2687845  57.7508758
  46.0286808 110.8575734  57.6991489  55.5116597 104.1654518  47.0901877
  54.6242452 104.4504169  46.8722071  55.9270586 104.0048282  46.2429153
  58.8631133 104.1901039  50.8056216  59.6391523 104.6797492  51.0780833
  58.1379267 104.6159094  51.2628085  61.3003691 104.9028659  51.8630156
  61.8948182 104.6624395  51.1523465  61.3730275 104.1835789  52.4903693
  43.5200847 118.7462270  52.1773321  43.3855315 117.9862670  51.6111319
  43.1032909 119.4703169  51.7102110  54.6559810 113.9299193  41.1849897
  55.3595660 114.1349196  41.8007552  53.9322459 114.4975955  41.4498980
  55.4857620 109.6809054  47.3052167  55.4292822 110.1377606  46.4659799
  56.0385963 108.9199739  47.1275009  59.2962426 105.4698786  48.1302286
  59.0399361 105.0695422  48.9610494  58.6715294 106.1842580  48.0052425
  63.6074764 108.2094860  50.6373578  63.0474322 108.2788049  51.4105140
  63.0018268 108.0335844  49.9173074  46.6769973 119.6431587  52.3891764
  46.5602357 120.5877019  52.2870454  45.8562419 119.3405148  52.7777563
  56.5646508 114.3681722  43.2348357  57.3992111 113.9362921  43.0525831
  56.4030850 114.1963736  44.1625251  56.2192400 110.8713836  44.6004696
  56.1641203 110.7058107  43.6593140  55.5938455 111.5789869  44.7566886
  41.0084915 106.1081900  58.4266118  41.6543778 105.5980854  58.9153343
  40.8002066 106.8450582  59.0009543  53.5338307 113.1762747  63.9258259
  54.4029467 113.3503400  63.5644894  53.0545058 113.9957164  63.8033988
  49.5288525 100.3721945  44.1790014  49.5167195 101.3163785  44.3358285
  50.4211947 100.1892090  43.8849475  47.7024487 120.2959848  55.6047692
  48.6051734 120.3283459  55.9214187  47.4761857 119.3660299  55.6194028
  49.4578089 119.0490835  52.2657771  48.5073720 119.0492697  52.1522143
  49.7610575 118.3023570  51.7493806  53.3440645  96.9664721  48.4335951
  52.5773040  96.4123208  48.5792633  53.7551350  97.0386590  49.2950103
  45.3482406 103.2549517  62.5241132  46.2113867 102.8986322  62.7344457
  44.7747816 102.9163412  63.2116537  65.1930783 124.8851373  53.3303533
  65.8309193 124.7658121  52.6266873  65.0751626 125.8332217  53.3891485
  62.0020489 124.8378802  53.2665058  61.6639000 124.7219866  52.3785593
  62.8710257 124.4369967  53.2466064  57.8607305 126.6914278  49.2561949
  57.2972170 126.6004215  48.4878237  57.7459700 125.8714182  49.7364441
  62.4840272 125.9913653  59.2251264  62.4728913 125.5966452  58.3531767
  62.6460911 125.2579726  59.8185035  55.4071737 128.1865470  52.0946169
  56.1993028 127.8456294  51.6792469  55.6468387 128.2960445  53.0148323
  63.4406863 130.3585246  44.5676414  62.7894843 130.9439326  44.1810428
  64.2351226 130.8891441  44.6271451  57.3662490 127.4474383  44.9663548
  58.1393366 126.9003370  44.8276424  57.7187889 128.3118632  45.1778010
  59.2047533 128.7750765  58.1730448  58.9137399 129.6796396  58.0577114
  59.8404517 128.8167293  58.8874517  60.1303740 126.1527614  54.7631807
  60.7267312 125.9283636  54.0488770  60.1878711 125.4112359  55.3657255
  59.7028768 123.6067049  42.5981998  59.9554289 123.0848570  41.8365461
  58.7653327 123.4433194  42.7008682  64.7472051 122.6102827  50.4056741
  65.5335140 122.1922250  50.0547158  65.0110755 123.5148919  50.5738390
  64.9182128 128.0475678  45.1045398  64.2827961 128.1210304  45.8166303
  64.5879535 128.6369276  44.4264477  70.1480478 122.5478060  51.3089720
  70.8805650 121.9777277  51.5427549  69.3919834 122.1599661  51.7496225
  59.4225057 125.5095155  44.8006373  59.3061315 124.8340058  45.4687457
  59.5327317 125.0227529  43.9838526  61.7656598 124.9705302  48.5053062
  61.4014805 124.4435923  49.2165984  62.6223714 124.5803771  48.3319548
  61.4062085 119.9995202  43.5014411  61.5736487 120.8675438  43.8684882
  61.2159254 120.1622483  42.5775700  64.1637418 128.4612181  55.1680241
  63.8638141 129.3637219  55.0596048  63.8188478 128.1944364  56.0201394
  57.6149900 124.9125977  51.2016946  56.6900396 124.7802192  51.4094637
  57.8634313 125.6920197  51.6986888  67.5634562 120.9794721  52.8477679
  66.6551439 120.9110129  52.5536440  67.5122158 121.4566666  53.6759504
  61.3851306 122.4552859  44.4861078  61.2650931 122.9009910  45.3246558
  60.6903894 122.8038177  43.9274616  54.9758711 124.5559251  52.0360735
  55.1051092 124.8093730  52.9500146  54.2956162 125.1486959  51.7165390
  59.1458198 135.2256501  48.1351209  59.0682228 136.1764326  48.2139689
  58.5419841 134.8802373  48.7926135  61.6375428 122.3984366  60.7912576
  60.8608762 122.9578286  60.7815440  62.2765991 122.8841149  61.3127446
  69.4296208 119.1811159  54.6255552  68.7870589 119.4743692  53.9795347
  68.9251137 119.0664080  55.4308749  67.0836372 122.9274332  45.3141412
  67.9954228 123.1601719  45.1389109  66.5746019 123.5111377  44.7516490
  59.8921800 125.2069820  60.3530543  60.6336484 125.7454864  60.0765366
  59.1858785 125.8336108  60.5102095  65.3677140 127.3498960  58.9502704
  65.7760496 126.9081371  58.2057337  64.6454401 126.7751588  59.2036897
  61.7208210 122.2871567  56.3236261  62.5669405 122.7110981  56.4670910
  61.6606847 121.6305191  57.0174824  65.6905954 127.9100151  52.7054993
  65.0614817 128.0745865  52.0031061  65.3031616 128.3241760  53.4765957
  69.5695186 128.8454589  50.0599357  68.8846224 129.2253490  49.5096390
  69.6539035 129.4549915  50.7931305  64.8707655 119.9475935  57.9817435
  64.6268587 120.7017996  57.4451711  65.1467586 120.3261283  58.8164682
  66.8246118 126.4914548  56.6594700  67.0363013 127.1346308  55.9829082
  66.7775866 125.6576864  56.1916631  64.4272347 119.1032368  53.5631273
  63.5656826 119.4013622  53.8548010  64.4534781 119.3202767  52.6312305
  61.2433916 127.6474559  49.9705078  61.7072262 127.9262262  49.1809701
  60.9790714 126.7458003  49.7878169  58.1357997 127.1946040  52.9084842
  58.7059354 127.6233309  52.2702326  58.7266109 126.9128625  53.6069027
  60.1802802 123.7697711  46.7794643  60.8826846 124.2218755  47.2468570
  59.8483431 123.1281530  47.4074537  58.6283164 122.3609468  61.1545853
  57.9981824 123.0425749  61.3881250  58.5219252 122.2492550  60.2098991
  53.9228136 122.0281264  52.0811777  53.1327190 122.2838792  51.6051888
  54.4139384 122.8429602  52.1863818  67.9391946 129.3686503  54.8317058
  68.7609389 128.9666690  54.5499739  67.9354349 129.2654737  55.7833174
  55.8742882 122.3925843  49.0395254  55.0774045 122.5044537  49.5578749
  55.6468474 122.7312495  48.1736144  61.7048549 128.9170546  56.9877768
  61.7692982 129.3790954  57.8235940  60.9959473 128.2867911  57.1160078
  52.2065839 122.2811754  54.5126768  52.4573878 123.1658764  54.7784344
  52.7425388 122.1016356  53.7401860  76.0297939 125.7125252  51.1802029
  75.2761647 125.1432650  51.0246034  76.1645480 125.6787916  52.1272664
  61.4196567 130.5838654  46.8556749  61.2842242 131.4290190  47.2841596
  61.9606379 130.7857932  46.0922682  57.9063906 116.6630234  63.5171104
  57.5130852 116.1096432  64.1918748  58.7230047 116.9740812  63.9077621
  54.8725964 128.1014092  47.4284674  55.3850485 128.8957342  47.5790238
  55.5248677 127.4040382  47.3618275  56.6820849 131.2179848  49.5107427
  56.8587477 132.1397813  49.3228411  57.4777682 130.9038267  49.9401807
  55.9673205 123.2644480  59.3869590  55.8526721 122.3629737  59.6876689
  55.1117723 123.5108177  59.0354407  63.0465043 131.2062220  60.9857091
  62.6028897 130.4198599  60.6677995  63.7082257 131.3941371  60.3200982
  57.8052164 132.7358022  55.5117769  58.3559590 132.6075085  54.7394763
  56.9663640 133.0352911  55.1612662  65.1446281 131.4865020  59.0138492
  65.1264757 132.3073901  58.5218761  66.0666201 131.3619096  59.2388633
  61.6019335 129.0009150  59.8562000  62.1347672 128.2397438  59.6261308
  61.0733417 128.7082802  60.5986155  52.8374881 126.4302746  48.2044244
  53.6750103 126.8399755  47.9877952  53.0153149 125.4902188  48.1744438
  64.7339313 124.0977827  43.8928077  64.2185937 124.8682432  44.1316465
  64.4616622 123.4242963  44.5161139  62.3186424 118.9427528  48.9513316
  61.4628020 118.5534378  48.7718954  62.7313376 119.0219488  48.0913101
  60.0928457 116.5612601  52.3571057  60.9581453 116.3655409  51.9976947
  60.1605966 116.3322952  53.2840414  69.7073587 126.8510182  45.8281251
  68.9303030 126.5121341  45.3836413  70.3865068 126.8562805  45.1536216
  64.5225616 121.9704919  45.7187858  64.2175752 122.2851068  46.5698002
  65.4756058 122.0486339  45.7615191  62.9672048 128.1295142  47.3680812
  62.4393410 127.3947902  47.0554050  62.4659551 128.9069819  47.1220781
  67.9464894 126.3244163  52.4847859  67.2888569 127.0143424  52.5727987
  68.7505293 126.7140595  52.8281845  57.6990776 118.7914809  49.7287424
  58.2734528 118.5689990  48.9960617  58.2861758 118.8603503  50.4816025
  66.7570353 124.6788535  50.5351800  67.2702235 125.3118527  51.0373510
  67.4071577 124.0789731  50.1695160  58.0260363 120.8219270  43.7483309
  57.1897675 121.1593956  44.0692584  57.8865132 120.6868249  42.8110446
  60.0013443 115.6656057  48.4562493  59.3477856 115.3505075  47.8319108
  59.9593918 115.0431798  49.1822316  61.1124648 125.9475353  40.3715785
  60.2051710 125.7164606  40.5706934  61.6095680 125.1512972  40.5589767
  64.0192727 134.6572860  43.2912472  63.3454426 134.9604556  43.8997429
  64.4058549 135.4601940  42.9417929  63.2351184 122.1537991  52.7810141
  62.3173745 122.3752938  52.6231829  63.6511327 122.2284301  51.9221848
  64.0186232 123.5529407  47.9112821  64.7658051 124.0650804  47.6019943
  64.2877821 123.2313459  48.7717215  62.2912882 126.0487947  44.8939776
  61.3824101 125.7646980  44.9912245  62.3207966 126.4687026  44.0343082
  67.5232149 129.6594537  48.6630943  67.0694476 128.8185447  48.7196134
  66.8926116 130.2955935  49.0005723  66.4665069 120.5886523  49.8931611
  65.7287826 120.0763909  50.2241853  66.7191842 120.1486905  49.0814887
  65.9665088 131.4971034  49.5980761  66.2588063 132.0576091  48.8793127
  66.4763709 131.7899595  50.3533920  66.5676696 113.3662775  50.4873380
  66.8735573 112.5060138  50.1999295  67.2929301 113.9580395  50.2872374
  52.8601052 123.7693462  48.8754978  52.6625452 123.1762822  48.1506044
  52.3047716 123.4645672  49.5930916  60.8397776 123.6616568  50.9949571
  60.8946386 122.7090404  50.9192047  60.0288978 123.8176007  51.4790869
  61.9888970 127.5896691  42.2327854  61.5508399 126.8732550  41.7733491
  62.7299410 127.8172806  41.6712945  58.7790136 122.2793628  48.7539950
  57.9658001 122.5787798  49.1605142  59.2749130 121.8849317  49.4714432
  60.9298714 132.2751385  50.6874214  60.8874892 132.5012231  49.7582746
  61.8461412 132.0414759  50.8360016  64.3764347 122.7435452  57.5854844
  64.7313735 122.9706925  58.4449309  65.0236479 123.0753829  56.9632099
  70.1062084 125.8653888  48.2904173  69.9679983 126.0555484  47.3625362
  69.7498303 126.6273271  48.7472224  58.2704210 119.8511983  54.3701185
  58.9103590 119.7100742  53.6724148  57.4381741 119.5646497  53.9939787
  70.1331464 127.9330415  53.3015444  70.5667971 127.8405704  54.1498498
  70.8463045 127.9087916  52.6635460  59.0464514 129.1514414  50.4836177
  59.8405113 128.6564734  50.2818752  58.3356207 128.6232277  50.1203883
  63.8659359 131.5332509  54.8348545  63.9196381 132.1023446  55.6026261
  62.9974140 131.7034394  54.4702582  55.3547278 123.2957495  46.5595930
  54.4244866 123.2341951  46.7765892  55.4504750 122.7733448  45.7632571
  55.2732827 119.8212308  49.1474171  55.5339644 120.7357642  49.0383332
  56.0949999 119.3536751  49.2970784  56.7457752 121.2350065  56.3172996
  57.4180806 121.0267428  55.6685645  55.9187539 121.0372151  55.8778228
  70.9947014 127.9754116  55.8348330  71.1882904 128.8799926  56.0807604
  70.8947632 127.5161535  56.6686915  66.0562122 128.1260859  61.4089210
  65.9047629 127.8971410  60.4919294  66.0466802 129.0831460  61.4220555
  62.8247459 125.6992771  56.3935477  63.7539519 125.8503931  56.2204444
  62.4038489 125.7876792  55.5384123  61.6235790 129.7243436  54.1634014
  61.4846876 129.3562220  55.0359952  60.8350387 130.2391075  53.9917972
  62.2183942 134.8252532  45.5059551  62.3935698 134.3540575  46.3205173
  61.5316730 135.4518298  45.7340811  63.1741006 129.1025038  51.5522852
  62.8390838 129.0625808  52.4480502  62.6744951 128.4369754  51.0793262
  57.1485249 124.5092668  57.0775433  57.0105047 123.7772907  57.6786972
  58.0590173 124.4201569  56.7959621  66.1100197 126.4481073  41.8259912
  65.4929368 125.7227901  41.7292964  65.6416686 127.2090433  41.4826986
  59.7767550 124.2212628  56.5659113  60.4867169 123.5805820  56.5245731
  59.7336858 124.4725523  57.4885294  67.7654329 131.1579981  59.4865692
  67.7066875 130.4739201  58.8196275  68.1673847 131.8998971  59.0346318
  58.4896484 121.2077846  58.3854752  57.9533841 120.7568584  59.0376349
  57.9013193 121.3423754  57.6425217  56.7845028 137.9741895  52.2799411
  57.0241626 138.6060419  52.9578429  55.9414224 137.6229935  52.5664770
  57.8998743 120.6666497  40.9481216  57.0228209 120.5455298  40.5843463
  58.3756496 119.8752575  40.6960105  67.7671736 129.1219565  57.7179672
  66.8798515 128.7845487  57.8406071  68.3370287 128.3902596  57.9548437
  49.4200883 125.4543657  51.0422723  50.1071923 125.1405387  50.4543738
  49.2649012 126.3585021  50.7689975  54.2235605 120.3433853  55.4707747
  54.1393794 119.7359523  54.7358157  53.4018312 120.8342872  55.4717243
  61.2972889 133.7821017  54.6840915  61.2243061 134.5875989  55.1960219
  60.8550283 133.9812983  53.8588936  61.0862669 133.0192787  48.1943736
  60.3030191 133.5614468  48.2881961  61.7855414 133.5366767  48.5937978
  64.3959319 118.8287417  50.8377942  64.8928019 118.0757379  50.5179012
  63.6246301 118.8651734  50.2721151  72.2489077 124.5327782  52.4796233
  72.2378953 125.4152498  52.1090166  71.3806456 124.1799333  52.2850770
  63.7571573 133.6807851  56.8399074  64.4699545 134.3155316  56.7674975
  63.2661602 133.7771717  56.0239075  65.4789100 127.5859104  48.4116365
  64.5445379 127.7060567  48.2421070  65.6565768 126.6831571  48.1476375
  60.9794288 120.9704800  50.5649626  60.6092076 120.4175840  51.2530532
  61.4753380 120.3662933  50.0124626  68.8661651 123.4276423  48.9466399
  69.3322103 124.2604415  48.8726702  69.3169152 122.9621405  49.6511658
  58.8083487 131.4302295  57.6604644  59.5092946 132.0638778  57.8134039
  58.3378602 131.7717026  56.9000284  66.9337882 129.7720245  45.9452551
  67.2097726 129.6576839  46.8546425  66.0642381 129.3737730  45.9064724
  66.8378314 115.7957010  52.9857301  65.9241394 116.0261237  53.1539508
  67.2671415 115.8795454  53.8371333  66.6084773 123.9846902  55.4857195
  65.9556223 124.2322810  54.8309647  66.9865152 123.1711041  55.1519672
  63.5691946 134.0206596  49.5885365  63.7514341 133.2028251  50.0513117
  64.3924932 134.2374288  49.1510255  63.9034112 132.9474781  46.8500414
  64.4321878 132.4367235  46.2370576  64.1662331 132.6317311  47.7145947
  62.6572346 124.7266713  61.9723232  61.9812983 124.6260843  62.6425607
  63.4799979 124.5705927  62.4359229  54.4051205 130.9638650  54.5935747
  54.9904641 130.2182338  54.7263651  54.2076043 131.2742607  55.4772411
  57.2589860 133.9989897  49.6098189  56.5900235 134.4836025  49.1262229
  57.1202730 134.2459118  50.5241568  48.9968859 123.5344250  53.3140190
  49.0352959 123.0007841  54.1077308  48.4909152 123.0079456  52.6951167
  61.3995128 136.0333641  56.2080848  61.9513436 136.1965262  56.9729933
  61.7401322 136.6238079  55.5360873  56.3759622 118.3808791  56.8102733
  56.4400948 119.2423622  56.3980130  56.3126742 117.7682792  56.0775091
  55.8511894 120.4531923  60.4575767  56.4783933 120.0709000  61.0713291
  54.9939813 120.2346125  60.8231459  66.2506003 130.8594898  62.0629502
  66.7945907 131.4724857  61.5684457  65.6692848 131.4174477  62.5796515
  52.6277437 122.2608352  46.3894122  52.9230878 121.3519031  46.3361175
  51.7265473 122.2396092  46.0675124  64.5363516 133.9815616  53.1944530
  64.4114655 133.1805356  52.6855475  65.1942607 134.4761810  52.7058500
  56.1571684 120.3364349  52.3721670  55.4358270 120.9500317  52.2329144
  56.9464940 120.8722114  52.2938316  66.5998424 131.7824636  54.8224080
  65.6528760 131.6629988  54.7502407  66.9481197 130.8947134  54.9050341
  58.9597997 117.6718775  58.6462322  59.4832399 117.9181072  59.4088631
  58.7410331 118.5038810  58.2265459  54.3565279 119.9422450  46.5133447
  54.0277985 119.0619829  46.3308553  54.7104649 119.8870119  47.4009836
  63.6044857 131.5777353  51.0228432  63.4569820 130.6494060  51.2036002
  64.4298351 131.5997443  50.5385508  57.4707102 120.2295420  46.8808924
  57.8103174 120.7581341  46.1587533  57.9179222 120.5675826  47.6567491
  67.2078979 132.4005911  52.1093305  68.1325527 132.1948773  51.9717756
  67.0394283 132.1522313  53.0182647  60.1650542 118.6132470  56.3311992
  59.8247363 117.8140284  56.7332672  59.4589549 118.9134181  55.7588826
  59.4575249 118.7270041  45.0802217  60.1783611 119.1051294  44.5765934
  58.8340553 119.4458918  45.1837195  63.6006372 119.4315190  46.0160550
  63.8169986 120.3139828  45.7149378  63.1200439 119.0401404  45.2866192
  58.3405593 122.3900904  52.5931294  58.1950174 122.7041207  53.4855576
  57.8630797 123.0085804  52.0402193  60.2001976 119.3803452  52.6412184
  60.1863545 118.4844545  52.3044482  60.9174404 119.3874115  53.2750470
  62.0528107 119.8140792  54.6865311  61.7945884 120.7357862  54.6849642
  61.5213147 119.4171226  55.3765775  66.9974295 132.9191579  47.4655396
  67.1711173 132.3538001  46.7129249  67.4903187 133.7192474  47.2834886
  52.8151255 124.9306248  55.5318955  52.2704723 125.7066056  55.6639230
  53.6930605 125.2777052  55.3738077  59.6038872 118.2617832  47.9099754
  59.7254783 117.3334478  48.1090641  59.3140914 118.2756518  46.9978069
  62.4730062 115.9472742  51.0466474  62.4951759 116.0112075  50.0918453
  62.8898121 115.1077251  51.2406980  72.8513687 125.6828002  49.0845696
  73.2944833 124.9335327  48.6864820  71.9740197 125.6738138  48.7019428
  67.9849468 132.2358343  44.5652295  68.6800373 132.8565036  44.7839609
  68.3272618 131.3853694  44.8404673  53.6017277 124.0576144  58.4249112
  52.8599013 124.2058780  59.0113743  53.2810021 124.3184410  57.5615862
  69.8840891 129.6858049  46.0939626  70.4092215 130.0245322  45.3688946
  69.7963244 128.7505064  45.9102760  61.5460940 133.5992122  58.2229502
  61.8548066 133.3541269  59.0952202  62.3436422 133.8038761  57.7348372
  61.5681552 135.7530032  50.4534879  61.1286542 135.2606411  51.1467735
  62.3189669 135.2103000  50.2126954  54.0473891 131.9441573  50.4559507
  54.8731911 131.6445345  50.0758150  53.6967943 131.1749195  50.9049295
  59.0155424 131.2968041  52.5257180  58.3935433 130.6338746  52.2259408
  59.6860291 131.3229173  51.8430828  52.2482496 129.8627899  51.4148440
  51.4114404 129.4350074  51.2332442  52.2206141 130.0560343  52.3519232
  59.0879951 119.7749829  62.1189686  59.1368107 120.6511952  61.7367456
  59.6302466 119.2327222  61.5461330  69.5734797 130.3190952  61.3990824
  68.7830341 130.3015091  60.8595323  69.3368152 130.8579246  62.1539860
  69.6932672 127.1683419  58.7123552  69.7430677 127.0033426  59.6539075
  69.5846595 126.3010678  58.3221433  58.5768931 129.8471964  46.0015641
  58.7257051 130.5307429  45.3482314  59.3835374 129.8277055  46.5165097
  66.9836435 123.1514347  60.0282859  67.8846297 123.0120812  59.7366857
  67.0584409 123.3168802  60.9681036  61.3179240 120.5281202  58.8736045
  60.4482549 120.8214768  58.6018634  61.5538720 121.1121647  59.5943309
  71.1950869 129.5880360  58.9565574  70.9035677 129.9510341  59.7929035
  70.5823000 128.8747369  58.7778906  72.3946551 127.1533240  51.4768144
  73.2293443 127.5923044  51.6405704  72.5305680 126.6771893  50.6576390
  69.4438057 124.7112975  57.4245632  69.9192179 124.9040621  56.6164483
  68.5203623 124.7672161  57.1789015  56.3321564 125.8737142  47.0076710
  56.0867606 124.9699472  47.2056920  56.5017478 125.8754293  46.0656188
  55.6017211 121.6065500  44.5062871  54.9086456 121.6809855  43.8502907
  55.3568963 120.8425843  45.0284388  64.2730868 113.1661101  51.9102362
  64.5532622 112.4984290  52.5362789  65.0581475 113.3590197  51.3977026
  62.0764336 132.3420095  43.4727388  61.5038303 132.9610282  43.0197860
  62.6497130 132.8919457  44.0067310  68.1439726 121.5878735  55.6573937
  69.0957149 121.6876833  55.6786161  67.9743177 120.7957004  56.1672022
  66.1654106 118.6734318  55.8433338  65.5704038 118.9539331  55.1479827
  65.8803802 119.1628219  56.6150079  65.2961596 132.6257245  44.6035971
  66.2292269 132.5602807  44.8068846  65.2084809 133.4613512  44.1450503
  67.9249613 131.9423115  41.5639918  67.8463244 131.6082979  42.4575676
  68.7459280 132.4344883  41.5631391  70.6227804 124.8084855  54.7716237
  70.5904124 123.8700855  54.9575921  71.2328428 124.8868891  54.0382062
  62.4611135 123.6780908  40.8143441  63.4070240 123.5487116  40.8831859
  62.0825380 122.9395570  41.2912869  70.7722292 121.5995898  54.8174520
  70.2561341 120.8154355  54.6304449  71.6562241 121.2714615  54.9821039
  68.4333019 115.3436914  50.7770333  68.2357841 115.0352002  51.6613665
  69.0432725 116.0698553  50.9068263  76.4404354 125.8700862  53.9122274
  77.1707742 125.6086150  54.4729977  75.8311299 125.1329583  53.9524342
  74.5219651 124.0108724  54.5096725  73.7952815 123.8764689  53.9013216
  74.1066938 124.3185553  55.3153443  62.3449827 127.7298654  62.2744098
  63.2652837 127.9077253  62.4684144  62.3099410 126.7854699  62.1223797
  60.6454052 121.6030884  40.7498326  59.7385507 121.3063997  40.8261040
  60.9230033 121.3060702  39.8832612  51.5631992 122.9237247  51.1997372
  51.2434777 122.0702556  50.9071746  51.0165421 123.1385826  51.9555340
  55.3411900 125.6399688  54.9166879  55.5597910 126.5716796  54.9354913
  55.7537674 125.2807663  55.7021683  62.2616118 116.1467774  46.9042567
  61.4516846 115.8014859  47.2797813  62.9500535 115.8375318  47.4930179
  64.1906666 115.2245821  48.5266864  64.7437705 115.6441274  49.1856887
  64.4276752 114.2981569  48.5689820  60.2139765 121.2132894  64.3069628
  60.1136492 122.1627251  64.2381719  59.9961307 120.8851133  63.4345698
  59.4152837 118.4617819  40.8910305  60.2772001 118.7872718  41.1506123
  59.6003181 117.6749315  40.3783371  51.4320252 126.5440159  53.1690494
  50.7383724 126.1294112  52.6560448  52.1793243 126.5860695  52.5723913
  67.5685473 117.3346346  48.0345528  66.9884142 117.9931150  47.6523581
  67.3021406 116.5123690  47.6232946  66.0189039 116.7351403  50.2366849
  66.5188818 116.8467938  49.4281167  66.6624647 116.4312456  50.8767657
  60.0771035 124.6430033  63.1234690  59.5938117 125.4430393  63.3298579
  60.1631974 124.6537978  62.1702134  53.3456995 126.4758413  51.0456509
  53.3227683 126.5746100  50.0938392  53.6557631 127.3223564  51.3673675
  56.0044373 128.5334568  55.1603123  56.9587626 128.5018510  55.0933055
  55.8056896 128.0725192  55.9753349  56.5943755 127.1035684  57.7273921
  57.4136644 127.5979762  57.7508758  56.8680563 126.1867652  57.6991489
  66.3510351 119.4946436  47.0901877  65.4636206 119.7796087  46.8722071
  66.7664340 119.3340200  46.2429153  69.7024887 119.5192957  50.8056216
  70.4785277 120.0089410  51.0780833  68.9773021 119.9451011  51.2628085
  72.1397446 120.2320576  51.8630156  72.7341937 119.9916312  51.1523465
  72.2124030 119.5127707  52.4903693  54.3594602 134.0754187  52.1773321
  54.2249070 133.3154588  51.6111319  53.9426664 134.7995087  51.7102110
  65.4953565 129.2591111  41.1849897  66.1989415 129.4641113  41.8007552
  64.7716213 129.8267873  41.4498980  66.3251375 125.0100972  47.3052167
  66.2686576 125.4669523  46.4659799  66.8779717 124.2491657  47.1275009
  70.1356181 120.7990704  48.1302286  69.8793115 120.3987340  48.9610494
  69.5109049 121.5134498  48.0052425  74.4468519 123.5386777  50.6373578
  73.8868077 123.6079966  51.4105140  73.8412022 123.3627762  49.9173074
  57.5163727 134.9723504  52.3891764  57.3996112 135.9168937  52.2870454
  56.6956174 134.6697066  52.7777563  67.4040262 129.6973640  43.2348357
  68.2385866 129.2654838  43.0525831  67.2424605 129.5255654  44.1625251
  67.0586154 126.2005753  44.6004696  67.0034958 126.0350025  43.6593140
  66.4332209 126.9081786  44.7566886  51.8478669 121.4373818  58.4266118
  52.4937533 120.9272772  58.9153343  51.6395820 122.1742499  59.0009543
  64.3732061 128.5054665  63.9258259  65.2423221 128.6795317  63.5644894
  63.8938813 129.3249082  63.8033988  60.3682280 115.7013862  44.1790014
  60.3560949 116.6455702  44.3358285  61.2605702 115.5184008  43.8849475
  58.5418242 135.6251766  55.6047692  59.4445488 135.6575376  55.9214187
  58.3155612 134.6952217  55.6194028  60.2971844 134.3782753  52.2657771
  59.3467475 134.3784614  52.1522143  60.6004330 133.6315487  51.7493806
  64.1834399 112.2956639  48.4335951  63.4166795 111.7415126  48.5792633
  64.5945104 112.3678508  49.2950103  56.1876160 118.5841435  62.5241132
  57.0507622 118.2278240  62.7344457  55.6141571 118.2455330  63.2116537
  76.0324537 140.2143291  53.3303533  76.6702947 140.0950038  52.6266873
  75.9145380 141.1624135  53.3891485  72.8414243 140.1670719  53.2665058
  72.5032755 140.0511784  52.3785593  73.7104012 139.7661884  53.2466064
  68.7001059 142.0206196  49.2561949  68.1365924 141.9296133  48.4878237
  68.5853454 141.2006100  49.7364441  73.3234026 141.3205571  59.2251264
  73.3122667 140.9258369  58.3531767  73.4854666 140.5871644  59.8185035
  66.2465491 143.5157387  52.0946169  67.0386783 143.1748212  51.6792469
  66.4862141 143.6252362  53.0148323  74.2800618 145.6877163  44.5676414
  73.6288598 146.2731244  44.1810428  75.0744981 146.2183358  44.6271451
  68.2056245 142.7766300  44.9663548  68.9787121 142.2295288  44.8276424
  68.5581644 143.6410550  45.1778010  70.0441288 144.1042683  58.1730448
  69.7531153 145.0088314  58.0577114  70.6798272 144.1459210  58.8874517
  70.9697494 141.4819531  54.7631807  71.5661067 141.2575554  54.0488770
  71.0272466 140.7404277  55.3657255  70.5422523 138.9358967  42.5981998
  70.7948043 138.4140488  41.8365461  69.6047082 138.7725112  42.7008682
  75.5865806 137.9394745  50.4056741  76.3728895 137.5214168  50.0547158
  75.8504510 138.8440837  50.5738390  75.7575883 143.3767595  45.1045398
  75.1221716 143.4502222  45.8166303  75.4273289 143.9661194  44.4264477
  80.9874233 137.8769978  51.3089720  81.7199405 137.3069195  51.5427549
  80.2313588 137.4891579  51.7496225  70.2618812 140.8387073  44.8006373
  70.1455070 140.1631976  45.4687457  70.3721071 140.3519446  43.9838526
  72.6050352 140.2997220  48.5053062  72.2408560 139.7727841  49.2165984
  73.4617468 139.9095689  48.3319548  78.5099653 131.5891552  55.7684328
  78.1782978 132.4586963  55.5445543  77.9145266 131.2727836  56.4478359
  72.2455839 135.3287119  43.5014411  72.4130242 136.1967356  43.8684882
  72.0553008 135.4914401  42.5775700  75.0031173 143.7904098  55.1680241
  74.7031896 144.6929137  55.0596048  74.6582232 143.5236281  56.0201394
  68.4543654 140.2417895  51.2016946  67.5294151 140.1094109  51.4094637
  68.7028067 141.0212114  51.6986888  78.4028316 136.3086638  52.8477679
  77.4945194 136.2402047  52.5536440  78.3515912 136.7858583  53.6759504
  72.2245060 137.7844777  44.4861078  72.1044685 138.2301828  45.3246558
  71.5297649 138.1330095  43.9274616  65.8152465 139.8851169  52.0360735
  65.9444846 140.1385648  52.9500146  65.1349916 140.4778877  51.7165390
  69.9851952 150.5548419  48.1351209  69.9075982 151.5056244  48.2139689
  69.3813596 150.2094291  48.7926135  72.4769182 137.7276284  60.7912576
  71.7002516 138.2870204  60.7815440  73.1159745 138.2133067  61.3127446
  80.2689963 134.5103077  54.6255552  79.6264343 134.8035610  53.9795347
  79.7644891 134.3955997  55.4308749  77.9230126 138.2566250  45.3141412
  78.8347983 138.4893637  45.1389109  77.4139774 138.8403294  44.7516490
  70.7315554 140.5361737  60.3530543  71.4730239 141.0746781  60.0765366
  70.0252540 141.1628026  60.5102095  76.2070894 142.6790878  58.9502704
  76.6154250 142.2373288  58.2057337  75.4848156 142.1043505  59.2036897
  72.5601964 137.6163485  56.3236261  73.4063159 138.0402898  56.4670910
  72.5000602 136.9597109  57.0174824  76.5299709 143.2392068  52.7054993
  75.9008571 143.4037783  52.0031061  76.1425371 143.6533678  53.4765957
  80.4088941 144.1746506  50.0599357  79.7239979 144.5545408  49.5096390
  80.4932790 144.7841833  50.7931305  75.7101409 135.2767853  57.9817435
  75.4662341 136.0309914  57.4451711  75.9861340 135.6553201  58.8164682
  77.6639872 141.8206465  56.6594700  77.8756768 142.4638225  55.9829082
  77.6169621 140.9868782  56.1916631  75.2666101 134.4324286  53.5631273
  74.4050580 134.7305540  53.8548010  75.2928536 134.6494685  52.6312305
  72.0827671 142.9766477  49.9705078  72.5466016 143.2554180  49.1809701
  71.8184469 142.0749921  49.7878169  68.9751752 142.5237958  52.9084842
  69.5453109 142.9525226  52.2702326  69.5659864 142.2420543  53.6069027
  71.0196557 139.0989629  46.7794643  71.7220600 139.5510673  47.2468570
  70.6877185 138.4573448  47.4074537  69.4676918 137.6901386  61.1545853
  68.8375579 138.3717666  61.3881250  69.3613006 137.5784467  60.2098991
  64.7621891 137.3573182  52.0811777  63.9720945 137.6130710  51.6051888
  65.2533138 138.1721519  52.1863818  78.7785700 144.6978421  54.8317058
  79.6003144 144.2958608  54.5499739  78.7748103 144.5946655  55.7833174
  66.7136636 137.7217761  49.0395254  65.9167799 137.8336455  49.5578749
  66.4862228 138.0604413  48.1736144  72.5442304 144.2462464  56.9877768
  72.6086736 144.7082871  57.8235940  71.8353228 143.6159829  57.1160078
  63.0459594 137.6103672  54.5126768  63.2967632 138.4950682  54.7784344
  63.5819142 137.4308274  53.7401860  86.8691693 141.0417169  51.1802029
  86.1155402 140.4724567  51.0246034  87.0039234 141.0079834  52.1272664
  72.2590321 145.9130572  46.8556749  72.1235996 146.7582107  47.2841596
  72.8000134 146.1149849  46.0922682  68.7457661 131.9922151  63.5171104
  68.3524607 131.4388350  64.1918748  69.5623801 132.3032730  63.9077621
  65.7119719 143.4306010  47.4284674  66.2244239 144.2249260  47.5790238
  66.3642432 142.7332300  47.3618275  67.5214603 146.5471766  49.5107427
  67.6981232 147.4689731  49.3228411  68.3171437 146.2330185  49.9401807
  71.6625622 133.4080031  61.1091360  72.4035335 134.0087184  61.0295823
  71.8943545 132.6657668  60.5509403  66.8066960 138.5936398  59.3869590
  66.6920475 137.6921655  59.6876689  65.9511478 138.8400095  59.0354407
  73.8858798 146.5354138  60.9857091  73.4422652 145.7490517  60.6677995
  74.5476011 146.7233289  60.3200982  68.6445919 148.0649940  55.5117769
  69.1953344 147.9367003  54.7394763  67.8057395 148.3644829  55.1612662
  75.9840036 146.8156938  59.0138492  75.9658511 147.6365819  58.5218761
  76.9059956 146.6911013  59.2388633  72.4413090 144.3301067  59.8562000
  72.9741427 143.5689356  59.6261308  71.9127171 144.0374719  60.5986155
  75.6082785 129.4361133  55.3855642  75.2647054 130.3262775  55.3094753
  75.9761747 129.2462791  54.5225227  63.6768635 141.7594664  48.2044244
  64.5143857 142.1691672  47.9877952  63.8546903 140.8194106  48.1744438
  75.5733068 139.4269745  43.8928077  75.0579691 140.1974349  44.1316465
  75.3010376 138.7534881  44.5161139  73.1580179 134.2719445  48.9513316
  72.3021775 133.8826296  48.7718954  73.5707130 134.3511406  48.0913101
  74.6879325 131.8065789  53.3504875  74.1844121 131.7695924  52.5372681
  74.9809932 132.7158531  53.4101532  70.9322211 131.8904518  52.3571057
  71.7975208 131.6947327  51.9976947  70.9999720 131.6614870  53.2840414
  80.5467342 142.1802099  45.8281251  79.7696785 141.8413259  45.3836413
  81.2258823 142.1854722  45.1536216  75.3619371 137.2996837  45.7187858
  75.0569506 137.6142986  46.5698002  76.3149813 137.3778257  45.7615191
  73.8065803 143.4587060  47.3680812  73.2787164 142.7239820  47.0554050
  73.3053305 144.2361736  47.1220781  78.7858649 141.6536080  52.4847859
  78.1282323 142.3435342  52.5727987  79.5899048 142.0432512  52.8281845
  68.5384530 134.1206726  49.7287424  69.1128282 133.8981908  48.9960617
  69.1255513 134.1895421  50.4816025  77.5964107 140.0080453  50.5351800
  78.1095989 140.6410445  51.0373510  78.2465331 139.4081649  50.1695160
  68.8654117 136.1511187  43.7483309  68.0291430 136.4885874  44.0692584
  68.7258887 136.0160167  42.8110446  70.8407198 130.9947975  48.4562493
  70.1871610 130.6796992  47.8319108  70.7987672 130.3723716  49.1822316
  71.9518403 141.2767270  40.3715785  71.0445465 141.0456524  40.5706934
  72.4489435 140.4804889  40.5589767  74.8586482 149.9864777  43.2912472
  74.1848180 150.2896474  43.8997429  75.2452304 150.7893858  42.9417929
  74.0744938 137.4829909  52.7810141  73.1567500 137.7044856  52.6231829
  74.4905082 137.5576219  51.9221848  74.8579986 138.8821324  47.9112821
  75.6051805 139.3942722  47.6019943  75.1271576 138.5605377  48.7717215
  73.1306636 141.3779865  44.8939776  72.2217855 141.0938898  44.9912245
  73.1601720 141.7978944  44.0343082  78.3625904 144.9886455  48.6630943
  77.9088231 144.1477364  48.7196134  77.7319870 145.6247853  49.0005723
  77.3058823 135.9178441  49.8931611  76.5681580 135.4055827  50.2241853
  77.5585597 135.4778822  49.0814887  76.8058843 146.8262951  49.5980761
  77.0981817 147.3868008  48.8793127  77.3157463 147.1191512  50.3533920
  77.4070451 128.6954693  50.4873380  77.7129327 127.8352056  50.1999295
  78.1323055 129.2872313  50.2872374  63.6994807 139.0985379  48.8754978
  63.5019206 138.5054740  48.1506044  63.1441471 138.7937589  49.5930916
  71.6791530 138.9908486  50.9949571  71.7340140 138.0382322  50.9192047
  70.8682732 139.1467925  51.4790869  72.8282724 142.9188609  42.2327854
  72.3902154 142.2024468  41.7733491  73.5693165 143.1464724  41.6712945
  69.6183890 137.6085545  48.7539950  68.8051756 137.9079716  49.1605142
  70.1142884 137.2141234  49.4714432  71.7692468 147.6043302  50.6874214
  71.7268647 147.8304149  49.7582746  72.6855167 147.3706677  50.8360016
  75.2158102 138.0727370  57.5854844  75.5707490 138.2998843  58.4449309
  75.8630233 138.4045747  56.9632099  80.9455839 141.1945806  48.2904173
  80.8073737 141.3847402  47.3625362  80.5892058 141.9565189  48.7472224
  69.1097965 135.1803901  54.3701185  69.7497344 135.0392660  53.6724148
  68.2775496 134.8938414  53.9939787  80.9725218 143.2622333  53.3015444
  81.4061725 143.1697622  54.1498498  81.6856799 143.2379833  52.6635460
  69.8858269 144.4806331  50.4836177  70.6798867 143.9856652  50.2818752
  69.1749961 143.9524195  50.1203883  74.7053113 146.8624427  54.8348545
  74.7590136 147.4315363  55.6026261  73.8367895 147.0326312  54.4702582
  66.1941032 138.6249413  46.5595930  65.2638620 138.5633869  46.7765892
  66.2898504 138.1025366  45.7632571  66.1126581 135.1504226  49.1474171
  66.3733399 136.0649559  49.0383332  66.9343754 134.6828669  49.2970784
  67.5851507 136.5641983  56.3172996  68.2574560 136.3559345  55.6685645
  66.7581293 136.3664069  55.8778228  81.8340768 143.3046033  55.8348330
  82.0276658 144.2091844  56.0807604  81.7341386 142.8453453  56.6686915
  73.4877079 133.1903924  58.3338657  72.8404994 133.8893874  58.2403133
  74.2578094 133.6240068  58.7014905  76.8955877 143.4552776  61.4089210
  76.7441383 143.2263328  60.4919294  76.8860556 144.4123378  61.4220555
  73.6641213 141.0284689  56.3935477  74.5933273 141.1795849  56.2204444
  73.2432243 141.1168710  55.5384123  72.4629545 145.0535353  54.1634014
  72.3240631 144.6854138  55.0359952  71.6744141 145.5682993  53.9917972
  73.0577697 150.1544450  45.5059551  73.2329453 149.6832493  46.3205173
  72.3710485 150.7810216  45.7340811  74.0134760 144.4316956  51.5522852
  73.6784593 144.3917726  52.4480502  73.5138706 143.7661672  51.0793262
  67.9879004 139.8384586  57.0775433  67.8498802 139.1064825  57.6786972
  68.8983927 139.7493486  56.7959621  76.9493952 141.7772990  41.8259912
  76.3323122 141.0519819  41.7292964  76.4810440 142.5382351  41.4826986
  70.6161305 139.5504545  56.5659113  71.3260923 138.9097738  56.5245731
  70.5730613 139.8017440  57.4885294  78.6048083 146.4871899  59.4865692
  78.5460629 145.8031119  58.8196275  79.0067602 147.2290889  59.0346318
  69.3290239 136.5369763  58.3854752  68.7927596 136.0860502  59.0376349
  68.7406947 136.6715672  57.6425217  67.6238782 153.3033813  52.2799411
  67.8635380 153.9352337  52.9578429  66.7807979 152.9521853  52.5664770
  68.7392498 135.9958415  40.9481216  67.8621964 135.8747216  40.5843463
  69.2150251 135.2044493  40.6960105  78.6065491 144.4511483  57.7179672
  77.7192269 144.1137404  57.8406071  79.1764042 143.7194514  57.9548437
  60.2594638 140.7835574  51.0422723  60.9465678 140.4697304  50.4543738
  60.1042766 141.6876939  50.7689975  65.0629360 135.6725771  55.4707747
  64.9787549 135.0651441  54.7358157  64.2412066 136.1634789  55.4717243
  72.1366644 149.1112935  54.6840915  72.0636815 149.9167907  55.1960219
  71.6944037 149.3104901  53.8588936  71.9256424 148.3484705  48.1943736
  71.1423945 148.8906385  48.2881961  72.6249169 148.8658685  48.5937978
  75.2353074 134.1579335  50.8377942  75.7321773 133.4049297  50.5179012
  74.4640055 134.1943651  50.2721151  83.0882831 139.8619700  52.4796233
  83.0772707 140.7444416  52.1090166  82.2200211 139.5091251  52.2850770
  74.5965327 149.0099769  56.8399074  75.3093300 149.6447234  56.7674975
  74.1055356 149.1063635  56.0239075  76.3182854 142.9151022  48.4116365
  75.3839133 143.0352484  48.2421070  76.4959523 142.0123489  48.1476375
  71.8188042 136.2996718  50.5649626  71.4485830 135.7467758  51.2530532
  72.3147135 135.6954851  50.0124626  79.7055406 138.7568341  48.9466399
  80.1715858 139.5896333  48.8726702  80.1562906 138.2913323  49.6511658
  69.6477241 146.7594213  57.6604644  70.3486701 147.3930696  57.8134039
  69.1772356 147.1008944  56.9000284  77.7731637 145.1012162  45.9452551
  78.0491481 144.9868757  46.8546425  76.9036136 144.7029647  45.9064724
  77.6772069 131.1248928  52.9857301  76.7635148 131.3553155  53.1539508
  78.1065170 131.2087372  53.8371333  77.4478527 139.3138820  55.4857195
  76.7949977 139.5614727  54.8309647  77.8258907 138.5002958  55.1519672
  74.4085701 149.3498513  49.5885365  74.5908095 148.5320169  50.0513117
  75.2318687 149.5666205  49.1510255  74.7427866 148.2766698  46.8500414
  75.2715633 147.7659153  46.2370576  75.0056086 147.9609229  47.7145947
  73.4966100 140.0558631  61.9723232  72.8206737 139.9552760  62.6425607
  74.3193734 139.8997845  62.4359229  65.2444959 146.2930568  54.5935747
  65.8298396 145.5474256  54.7263651  65.0469798 146.6034524  55.4772411
  68.0983614 149.3281815  49.6098189  67.4293990 149.8127943  49.1262229
  67.9596484 149.5751035  50.5241568  59.8362614 138.8636168  53.3140190
  59.8746713 138.3299758  54.1077308  59.3302907 138.3371373  52.6951167
  72.2388883 151.3625559  56.2080848  72.7907191 151.5257180  56.9729933
  72.5795076 151.9529996  55.5360873  67.2153376 133.7100708  56.8102733
  67.2794703 134.5715539  56.3980130  67.1520496 133.0974710  56.0775091
  66.6905649 135.7823841  60.4575767  67.3177687 135.4000918  61.0713291
  65.8333568 135.5638043  60.8231459  77.0899757 146.1886816  62.0629502
  77.6339661 146.8016774  61.5684457  76.5086602 146.7466394  62.5796515
  63.4671191 137.5900270  46.3894122  63.7624632 136.6810948  46.3361175
  62.5659227 137.5688009  46.0675124  75.3757270 149.3107534  53.1944530
  75.2508410 148.5097274  52.6855475  76.0336361 149.8053727  52.7058500
  66.9965438 135.6656267  52.3721670  66.2752024 136.2792234  52.2329144
  67.7858694 136.2014031  52.2938316  77.4392179 147.1116554  54.8224080
  76.4922514 146.9921905  54.7502407  77.7874952 146.2239052  54.9050341
  69.7991752 133.0010693  58.6462322  70.3226154 133.2472990  59.4088631
  69.5804085 133.8330728  58.2265459  65.1959033 135.2714368  46.5133447
  64.8671739 134.3911747  46.3308553  65.5498404 135.2162036  47.4009836
  74.4438612 146.9069270  51.0228432  74.2963574 145.9785978  51.2036002
  75.2692105 146.9289361  50.5385508  68.3100856 135.5587337  46.8808924
  68.6496929 136.0873259  46.1587533  68.7572977 135.8967744  47.6567491
  78.0472734 147.7297829  52.1093305  78.9719281 147.5240690  51.9717756
  77.8788037 147.4814230  53.0182647  71.0044297 133.9424388  56.3311992
  70.6641117 133.1432201  56.7332672  70.2983303 134.2426099  55.7588826
  71.6560769 131.0273701  54.7839316  72.4786838 130.5534179  54.6618206
  71.8998832 131.8064184  55.2838002  70.2969003 134.0561959  45.0802217
  71.0177366 134.4343212  44.5765934  69.6734307 134.7750836  45.1837195
  74.4400126 134.7607108  46.0160550  74.6563741 135.6431746  45.7149378
  73.9594193 134.3693321  45.2866192  69.1799348 137.7192821  52.5931294
  69.0343928 138.0333124  53.4855576  68.7024551 138.3377722  52.0402193
  71.0395730 134.7095369  52.6412184  71.0257299 133.8136463  52.3044482
  71.7568159 134.7166033  53.2750470  72.8921861 135.1432709  54.6865311
  72.6339639 136.0649780  54.6849642  72.3606902 134.7463144  55.3765775
  77.8368050 148.2483497  47.4655396  78.0104927 147.6829919  46.7129249
  78.3296941 149.0484391  47.2834886  63.6545010 140.2598166  55.5318955
  63.1098478 141.0357974  55.6639230  64.5324360 140.6068970  55.3738077
  70.4432626 133.5909749  47.9099754  70.5648538 132.6626396  48.1090641
  70.1534669 133.6048435  46.9978069  73.3123817 131.2764660  51.0466474
  73.3345514 131.3403993  50.0918453  73.7291876 130.4369169  51.2406980
  83.6907441 141.0119919  49.0845696  84.1338587 140.2627245  48.6864820
  82.8133951 141.0030056  48.7019428  78.8243222 147.5650261  44.5652295
  79.5194127 148.1856954  44.7839609  79.1666373 146.7145612  44.8404673
  64.4411032 139.3868062  58.4249112  63.6992768 139.5350697  59.0113743
  64.1203776 139.6476327  57.5615862  80.7234646 145.0149966  46.0939626
  81.2485970 145.3537239  45.3688946  80.6356998 144.0796982  45.9102760
  72.3854694 148.9284040  58.2229502  72.6941821 148.6833187  59.0952202
  73.1830176 149.1330679  57.7348372  72.4075306 151.0821950  50.4534879
  71.9680297 150.5898328  51.1467735  73.1583423 150.5394917  50.2126954
  64.8867645 147.2733491  50.4559507  65.7125665 146.9737262  50.0758150
  64.5361697 146.5041113  50.9049295  69.8549178 146.6259959  52.5257180
  69.2329188 145.9630664  52.2259408  70.5254045 146.6521091  51.8430828
  63.0876250 145.1919817  51.4148440  62.2508159 144.7641991  51.2332442
  63.0599896 145.3852260  52.3519232  69.9273706 135.1041747  62.1189686
  69.9761861 135.9803870  61.7367456  70.4696220 134.5619140  61.5461330
  80.4128552 145.6482870  61.3990824  79.6224095 145.6307009  60.8595323
  80.1761906 146.1871164  62.1539860  80.5326427 142.4975336  58.7123552
  80.5824432 142.3325344  59.6539075  80.4240350 141.6302595  58.3221433
  69.4162685 145.1763882  46.0015641  69.5650806 145.8599347  45.3482314
  70.2229129 145.1568972  46.5165097  77.8230189 138.4806264  60.0282859
  78.7240052 138.3412729  59.7366857  77.8978164 138.6460719  60.9681036
  72.1572994 135.8573119  58.8736045  71.2876304 136.1506685  58.6018634
  72.3932475 136.4413564  59.5943309  82.0344623 144.9172278  58.9565574
  81.7429432 145.2802259  59.7929035  81.4216755 144.2039286  58.7778906
  83.2340306 142.4825158  51.4768144  84.0687197 142.9214962  51.6405704
  83.3699435 142.0063811  50.6576390  80.2831812 140.0404893  57.4245632
  80.7585933 140.2332539  56.6164483  79.3597377 140.0964078  57.1789015
  67.1715318 141.2029060  47.0076710  66.9261360 140.2991390  47.2056920
  67.3411233 141.2046210  46.0656188  74.8612028 132.0752736  56.3901465
  75.3793972 132.8113763  56.0647954  74.5067161 132.3816729  57.2248225
  66.4410966 136.9357417  44.5062871  65.7480211 137.0101772  43.8502907
  66.1962718 136.1717761  45.0284388  75.1124622 128.4953019  51.9102362
  75.3926376 127.8276208  52.5362789  75.8975229 128.6882114  51.3977026
  72.9158091 147.6712013  43.4727388  72.3432058 148.2902200  43.0197860
  73.4890885 148.2211374  44.0067310  78.9833481 136.9170653  55.6573937
  79.9350904 137.0168750  55.6786161  78.8136931 136.1248921  56.1672022
  77.0047860 134.0026236  55.8433338  76.4097792 134.2831249  55.1479827
  76.7197557 134.4920137  56.6150079  76.1355351 147.9549163  44.6035971
  77.0686024 147.8894724  44.8068846  76.0478563 148.7905430  44.1450503
  78.7643367 147.2715033  41.5639918  78.6856999 146.9374897  42.4575676
  79.5853034 147.7636801  41.5631391  81.4621558 140.1376772  54.7716237
  81.4297879 139.1992773  54.9575921  82.0722182 140.2160809  54.0382062
  73.3004889 139.0072825  40.8143441  74.2463994 138.8779033  40.8831859
  72.9219134 138.2687487  41.2912869  81.6116047 136.9287816  54.8174520
  81.0955096 136.1446272  54.6304449  82.4955996 136.6006532  54.9821039
  79.2726774 130.6728831  50.7770333  79.0751595 130.3643920  51.6613665
  79.8826479 131.3990470  50.9068263  87.2798108 141.1992779  53.9122274
  88.0101497 140.9378067  54.4729977  86.6705054 140.4621501  53.9524342
  85.3613405 139.3400642  54.5096725  84.6346569 139.2056607  53.9013216
  84.9460692 139.6477470  55.3153443  73.1843582 143.0590571  62.2744098
  74.1046591 143.2369170  62.4684144  73.1493165 142.1146617  62.1223797
  71.4847807 136.9322802  40.7498326  70.5779262 136.6355914  40.8261040
  71.7623788 136.6352620  39.8832612  62.4025747 138.2529165  51.1997372
  62.0828531 137.3994473  50.9071746  61.8559175 138.4677743  51.9555340
  66.1805654 140.9691606  54.9166879  66.3991664 141.9008714  54.9354913
  66.5931428 140.6099581  55.7021683  73.1009872 131.4759691  46.9042567
  72.2910601 131.1306776  47.2797813  73.7894289 131.1667235  47.4930179
  75.0300421 130.5537738  48.5266864  75.5831459 130.9733192  49.1856887
  75.2670507 129.6273486  48.5689820  71.0533520 136.5424812  64.3069628
  70.9530247 137.4919169  64.2381719  70.8355062 136.2143051  63.4345698
  70.2546591 133.7909737  40.8910305  71.1165755 134.1164635  41.1506123
  70.4396935 133.0041233  40.3783371  62.2714007 141.8732077  53.1690494
  61.5777478 141.4586029  52.6560448  63.0186998 141.9152613  52.5723913
  78.4079228 132.6638263  48.0345528  77.8277897 133.3223067  47.6523581
  78.1415160 131.8415608  47.6232946  76.8582794 132.0643321  50.2366849
  77.3582572 132.1759856  49.4281167  77.5018402 131.7604374  50.8767657
  70.9164790 139.9721951  63.1234690  70.4331872 140.7722311  63.3298579
  71.0025729 139.9829896  62.1702134  64.1850749 141.8050330  51.0456509
  64.1621438 141.9038018  50.0938392  64.4951386 142.6515481  51.3673675
  66.8438127 143.8626485  55.1603123  67.7981381 143.8310428  55.0933055
  66.6450651 143.4017109  55.9753349  67.4337509 142.4327601  57.7273921
  68.2530398 142.9271680  57.7508758  67.7074317 141.5159570  57.6991489
  77.1904106 134.8238354  47.0901877  76.3029961 135.1088004  46.8722071
  77.6058095 134.6632117  46.2429153  80.5418642 134.8484875  50.8056216
  81.3179032 135.3381327  51.0780833  79.8166776 135.2742929  51.2628085
  82.9791200 135.5612494  51.8630156  83.5735691 135.3208230  51.1523465
  83.0517784 134.8419625  52.4903693  65.1988356 149.4046105  52.1773321
  65.0642824 148.6446506  51.6111319  64.7820418 150.1287005  51.7102110
  76.3347319 144.5883028  41.1849897  77.0383169 144.7933031  41.8007552
  75.6109968 145.1559790  41.4498980  77.1645129 140.3392890  47.3052167
  77.1080331 140.7961441  46.4659799  77.7173472 139.5783574  47.1275009
  80.9749935 136.1282622  48.1302286  80.7186870 135.7279257  48.9610494
  80.3502803 136.8426416  48.0052425  85.2862273 138.8678695  50.6373578
  84.7261831 138.9371884  51.4105140  84.6805777 138.6919679  49.9173074
  68.3557482 150.3015422  52.3891764  68.2389866 151.2460854  52.2870454
  67.5349928 149.9988984  52.7777563  78.2434016 145.0265558  43.2348357
  79.0779620 144.5946756  43.0525831  78.0818359 144.8547571  44.1625251
  77.8979909 141.5297671  44.6004696  77.8428712 141.3641942  43.6593140
  77.2725964 142.2373704  44.7566886  62.6872424 136.7665735  58.4266118
  63.3331287 136.2564689  58.9153343  62.4789575 137.5034417  59.0009543
  75.2125816 143.8346583  63.9258259  76.0816975 144.0087235  63.5644894
  74.7332567 144.6541000  63.8033988  71.2076034 131.0305780  44.1790014
  71.1954704 131.9747620  44.3358285  72.0999456 130.8475925  43.8849475
  69.3811996 150.9543684  55.6047692  70.2839243 150.9867294  55.9214187
  69.1549366 150.0244135  55.6194028  71.1365598 149.7074670  52.2657771
  70.1861229 149.7076532  52.1522143  71.4398084 148.9607405  51.7493806
  75.0228154 127.6248557  48.4335951  74.2560549 127.0707043  48.5792633
  75.4338859 127.6970425  49.2950103  67.0269915 133.9133352  62.5241132
  67.8901376 133.5570157  62.7344457  66.4535325 133.5747247  63.2116537
  86.8718292 155.5435209  53.3303533  87.5096702 155.4241956  52.6266873
  86.7539134 156.4916053  53.3891485  83.6807998 155.4962637  53.2665058
  83.3426509 155.3803702  52.3785593  84.5497766 155.0953802  53.2466064
  79.5394814 157.3498113  49.2561949  78.9759679 157.2588050  48.4878237
  79.4247209 156.5298018  49.7364441  84.1627781 156.6497489  59.2251264
  84.1516422 156.2550287  58.3531767  84.3248420 155.9163561  59.8185035
  77.0859246 158.8449305  52.0946169  77.8780537 158.5040130  51.6792469
  77.3255896 158.9544280  53.0148323  85.1194372 161.0169081  44.5676414
  84.4682352 161.6023161  44.1810428  85.9138735 161.5475276  44.6271451
  79.0449999 158.1058218  44.9663548  79.8180875 157.5587205  44.8276424
  79.3975398 158.9702467  45.1778010  80.8835042 159.4334600  58.1730448
  80.5924908 160.3380231  58.0577114  81.5192026 159.4751128  58.8874517
  81.8091249 156.8111449  54.7631807  82.4054821 156.5867471  54.0488770
  81.8666220 156.0696194  55.3657255  81.3816277 154.2650884  42.5981998
  81.6341798 153.7432406  41.8365461  80.4440836 154.1017030  42.7008682
  86.4259560 153.2686663  50.4056741  87.2122649 152.8506086  50.0547158
  86.6898264 154.1732755  50.5738390  86.5969637 158.7059513  45.1045398
  85.9615470 158.7794139  45.8166303  86.2667044 159.2953112  44.4264477
  91.8267987 153.2061896  51.3089720  92.5593159 152.6361113  51.5427549
  91.0707343 152.8183496  51.7496225  81.1012566 156.1678990  44.8006373
  80.9848824 155.4923894  45.4687457  81.2114826 155.6811364  43.9838526
  83.4444107 155.6289137  48.5053062  83.0802314 155.1019758  49.2165984
  84.3011223 155.2387606  48.3319548  89.3493408 146.9183470  55.7684328
  89.0176732 147.7878881  55.5445543  88.7539021 146.6019754  56.4478359
  83.0849594 150.6579037  43.5014411  83.2523996 151.5259273  43.8684882
  82.8946763 150.8206319  42.5775700  85.8424927 159.1196016  55.1680241
  85.5425650 160.0221055  55.0596048  85.4975987 158.8528199  56.0201394
  79.2937409 155.5709813  51.2016946  78.3687905 155.4386027  51.4094637
  79.5421822 156.3504032  51.6986888  89.2422071 151.6378556  52.8477679
  88.3338948 151.5693965  52.5536440  89.1909667 152.1150501  53.6759504
  83.0638815 153.1136695  44.4861078  82.9438440 153.5593745  45.3246558
  82.3691403 153.4622012  43.9274616  76.6546220 155.2143086  52.0360735
  76.7838601 155.4677565  52.9500146  75.9743671 155.8070794  51.7165390
  83.3162937 153.0568202  60.7912576  82.5396271 153.6162122  60.7815440
  83.9553500 153.5424985  61.3127446  91.1083717 149.8394995  54.6255552
  90.4658098 150.1327528  53.9795347  90.6038646 149.7247915  55.4308749
  88.7623881 153.5858168  45.3141412  89.6741737 153.8185554  45.1389109
  88.2533528 154.1695212  44.7516490  81.5709309 155.8653655  60.3530543
  82.3123993 156.4038699  60.0765366  80.8646294 156.4919944  60.5102095
  87.0464649 158.0082796  58.9502704  87.4548005 157.5665206  58.2057337
  86.3241910 157.4335423  59.2036897  83.3995719 152.9455402  56.3236261
  84.2456914 153.3694816  56.4670910  83.3394356 152.2889027  57.0174824
  87.3693463 158.5683986  52.7054993  86.7402326 158.7329700  52.0031061
  86.9819125 158.9825596  53.4765957  91.2482695 159.5038424  50.0599357
  90.5633733 159.8837325  49.5096390  91.3326544 160.1133751  50.7931305
  86.5495164 150.6059771  57.9817435  86.3056096 151.3601831  57.4451711
  86.8255094 150.9845118  58.8164682  88.5033627 157.1498383  56.6594700
  88.7150522 157.7930143  55.9829082  88.4563375 156.3160700  56.1916631
  86.1059856 149.7616204  53.5631273  85.2444335 150.0597457  53.8548010
  86.1322290 149.9786603  52.6312305  82.9221425 158.3058394  49.9705078
  83.3859771 158.5846097  49.1809701  82.6578223 157.4041839  49.7878169
  79.8145506 157.8529876  52.9084842  80.3846863 158.2817144  52.2702326
  80.4053618 157.5712460  53.6069027  81.8590311 154.4281547  46.7794643
  82.5614355 154.8802590  47.2468570  81.5270940 153.7865365  47.4074537
  80.3070673 153.0193303  61.1545853  79.6769333 153.7009584  61.3881250
  80.2006761 152.9076385  60.2098991  75.6015645 152.6865099  52.0811777
  74.8114699 152.9422628  51.6051888  76.0926893 153.5013437  52.1863818
  89.6179455 160.0270338  54.8317058  90.4396898 159.6250526  54.5499739
  89.6141858 159.9238573  55.7833174  77.5530391 153.0509679  49.0395254
  76.7561554 153.1628373  49.5578749  77.3255983 153.3896331  48.1736144
  83.3836058 159.5754382  56.9877768  83.4480491 160.0374789  57.8235940
  82.6746982 158.9451747  57.1160078  73.8853348 152.9395590  54.5126768
  74.1361387 153.8242600  54.7784344  74.4212897 152.7600191  53.7401860
  97.7085448 156.3709087  51.1802029  96.9549156 155.8016485  51.0246034
  97.8432989 156.3371751  52.1272664  83.0984076 161.2422489  46.8556749
  82.9629751 162.0874025  47.2841596  83.6393888 161.4441767  46.0922682
  79.5851415 147.3214069  63.5171104  79.1918361 146.7680268  64.1918748
  80.4017556 147.6324648  63.9077621  76.5513473 158.7597927  47.4284674
  77.0637994 159.5541178  47.5790238  77.2036186 158.0624218  47.3618275
  82.5019376 148.7371948  61.1091360  83.2429090 149.3379101  61.0295823
  82.7337299 147.9949586  60.5509403  77.6460714 153.9228315  59.3869590
  77.5314230 153.0213573  59.6876689  76.7905232 154.1692012  59.0354407
  84.7252552 161.8646056  60.9857091  84.2816406 161.0782434  60.6677995
  85.3869766 162.0525206  60.3200982  86.8233790 162.1448856  59.0138492
  86.8052266 162.9657737  58.5218761  87.7453710 162.0202931  59.2388633
  83.2806844 159.6592985  59.8562000  83.8135181 158.8981273  59.6261308
  82.7520926 159.3666637  60.5986155  86.4476539 144.7653051  55.3855642
  86.1040809 145.6554693  55.3094753  86.8155502 144.5754709  54.5225227
  74.5162390 157.0886582  48.2044244  75.3537612 157.4983590  47.9877952
  74.6940658 156.1486024  48.1744438  86.4126822 154.7561662  43.8928077
  85.8973446 155.5266267  44.1316465  86.1404131 154.0826798  44.5161139
  83.9973933 149.6011363  48.9513316  83.1415529 149.2118213  48.7718954
  84.4100885 149.6803324  48.0913101  85.5273080 147.1357706  53.3504875
  85.0237875 147.0987841  52.5372681  85.8203687 148.0450449  53.4101532
  81.7715966 147.2196436  52.3571057  82.6368962 147.0239245  51.9976947
  81.8393475 146.9906788  53.2840414  91.3861096 157.5094017  45.8281251
  90.6090539 157.1705176  45.3836413  92.0652577 157.5146640  45.1536216
  86.2013125 152.6288754  45.7187858  85.8963261 152.9434904  46.5698002
  87.1543567 152.7070174  45.7615191  84.6459557 158.7878978  47.3680812
  84.1180919 158.0531737  47.0554050  84.1447060 159.5653654  47.1220781
  89.6252403 156.9827998  52.4847859  88.9676078 157.6727260  52.5727987
  90.4292802 157.3724430  52.8281845  79.3778285 149.4498644  49.7287424
  79.9522037 149.2273825  48.9960617  79.9649267 149.5187338  50.4816025
  88.4357862 155.3372371  50.5351800  88.9489744 155.9702363  51.0373510
  89.0859086 154.7373566  50.1695160  79.7047872 151.4803105  43.7483309
  78.8685184 151.8177791  44.0692584  79.5652641 151.3452085  42.8110446
  81.6800952 146.3239893  48.4562493  81.0265365 146.0088910  47.8319108
  81.6381427 145.7015633  49.1822316  82.7912157 156.6059188  40.3715785
  81.8839219 156.3748441  40.5706934  83.2883189 155.8096807  40.5589767
  84.9138693 152.8121826  52.7810141  83.9961254 153.0336773  52.6231829
  85.3298836 152.8868137  51.9221848  85.6973741 154.2113242  47.9112821
  86.4445559 154.7234639  47.6019943  85.9665330 153.8897295  48.7717215
  83.9700391 156.7071783  44.8939776  83.0611610 156.4230816  44.9912245
  83.9995475 157.1270861  44.0343082  89.2019658 160.3178372  48.6630943
  88.7481985 159.4769282  48.7196134  88.5713625 160.9539771  49.0005723
  88.1452578 151.2470358  49.8931611  87.4075335 150.7347745  50.2241853
  88.3979351 150.8070740  49.0814887  87.6452597 162.1554869  49.5980761
  87.9375572 162.7159926  48.8793127  88.1551218 162.4483430  50.3533920
  88.2464205 144.0246610  50.4873380  88.5523082 143.1643974  50.1999295
  88.9716810 144.6164231  50.2872374  74.5388561 154.4277297  48.8754978
  74.3412961 153.8346658  48.1506044  73.9835225 154.1229507  49.5930916
  82.5185285 154.3200403  50.9949571  82.5733895 153.3674240  50.9192047
  81.7076487 154.4759842  51.4790869  83.6676479 158.2480526  42.2327854
  83.2295908 157.5316385  41.7733491  84.4086919 158.4756641  41.6712945
  80.4577645 152.9377463  48.7539950  79.6445510 153.2371634  49.1605142
  80.9536639 152.5433152  49.4714432  82.6086223 162.9335220  50.6874214
  82.5662401 163.1596066  49.7582746  83.5248921 162.6998595  50.8360016
  86.0551856 153.4019288  57.5854844  86.4101244 153.6290761  58.4449309
  86.7023988 153.7337664  56.9632099  91.7849593 156.5237723  48.2904173
  91.6467492 156.7139319  47.3625362  91.4285812 157.2857106  48.7472224
  79.9491719 150.5095819  54.3701185  80.5891099 150.3684578  53.6724148
  79.1169250 150.2230332  53.9939787  91.8118973 158.5914250  53.3015444
  92.2455480 158.4989540  54.1498498  92.5250554 158.5671751  52.6635460
  80.7252023 159.8098249  50.4836177  81.5192622 159.3148569  50.2818752
  80.0143716 159.2816112  50.1203883  85.5446868 162.1916345  54.8348545
  85.5983890 162.7607281  55.6026261  84.6761649 162.3618230  54.4702582
  77.0334787 153.9541331  46.5595930  76.1032375 153.8925786  46.7765892
  77.1292259 153.4317284  45.7632571  76.9520336 150.4796144  49.1474171
  77.2127153 151.3941477  49.0383332  77.7737508 150.0120586  49.2970784
  78.4245261 151.8933901  56.3172996  79.0968315 151.6851263  55.6685645
  77.5975048 151.6955987  55.8778228  92.6734522 158.6337951  55.8348330
  92.8670413 159.5383762  56.0807604  92.5735141 158.1745370  56.6686915
  84.3270833 148.5195842  58.3338657  83.6798748 149.2185791  58.2403133
  85.0971849 148.9531986  58.7014905  87.7349631 158.7844694  61.4089210
  87.5835138 158.5555246  60.4919294  87.7254311 159.7415295  61.4220555
  84.5034968 156.3576607  56.3935477  85.4327028 156.5087766  56.2204444
  84.0825998 156.4460627  55.5384123  83.3023299 160.3827271  54.1634014
  83.1634385 160.0146055  55.0359952  82.5137896 160.8974910  53.9917972
  84.8528514 159.7608874  51.5522852  84.5178347 159.7209644  52.4480502
  84.3532460 159.0953590  51.0793262  78.8272758 155.1676504  57.0775433
  78.6892556 154.4356743  57.6786972  79.7377682 155.0785404  56.7959621
  87.7887706 157.1064908  41.8259912  87.1716877 156.3811736  41.7292964
  87.3204195 157.8674268  41.4826986  81.4555059 154.8796463  56.5659113
  82.1654678 154.2389655  56.5245731  81.4124367 155.1309358  57.4885294
  89.4441838 161.8163816  59.4865692  89.3854384 161.1323037  58.8196275
  89.8461356 162.5582806  59.0346318  80.1683993 151.8661681  58.3854752
  79.6321350 151.4152419  59.0376349  79.5800702 152.0007590  57.6425217
  79.5786252 151.3250332  40.9481216  78.7015718 151.2039133  40.5843463
  80.0544005 150.5336411  40.6960105  89.4459245 159.7803400  57.7179672
  88.5586024 159.4429322  57.8406071  90.0157796 159.0486432  57.9548437
  71.0988392 156.1127492  51.0422723  71.7859432 155.7989222  50.4543738
  70.9436521 157.0168857  50.7689975  75.9023114 151.0017689  55.4707747
  75.8181303 150.3943358  54.7358157  75.0805821 151.4926707  55.4717243
  86.0746828 149.4871252  50.8377942  86.5715528 148.7341215  50.5179012
  85.3033810 149.5235569  50.2721151  93.9276586 155.1911618  52.4796233
  93.9166462 156.0736333  52.1090166  93.0593965 154.8383169  52.2850770
  87.1576609 158.2442939  48.4116365  86.2232888 158.3644402  48.2421070
  87.3353277 157.3415406  48.1476375  82.6581797 151.6288635  50.5649626
  82.2879584 151.0759676  51.2530532  83.1540889 151.0246769  50.0124626
  90.5449160 154.0860259  48.9466399  91.0109612 154.9188250  48.8726702
  90.9956661 153.6205240  49.6511658  80.4870996 162.0886130  57.6604644
  81.1880455 162.7222613  57.8134039  80.0166111 162.4300862  56.9000284
  88.6125391 160.4304080  45.9452551  88.8885235 160.3160675  46.8546425
  87.7429890 160.0321565  45.9064724  88.5165823 146.4540846  52.9857301
  87.6028903 146.6845073  53.1539508  88.9458924 146.5379290  53.8371333
  88.2872281 154.6430738  55.4857195  87.6343732 154.8906645  54.8309647
  88.6652661 153.8294876  55.1519672  85.5821621 163.6058616  46.8500414
  86.1109387 163.0951071  46.2370576  85.8449840 163.2901146  47.7145947
  84.3359855 155.3850549  61.9723232  83.6600492 155.2844678  62.6425607
  85.1587488 155.2289762  62.4359229  70.6756368 154.1928085  53.3140190
  70.7140468 153.6591676  54.1077308  70.1696661 153.6663291  52.6951167
  78.0547131 149.0392626  56.8102733  78.1188457 149.9007457  56.3980130
  77.9914251 148.4266628  56.0775091  77.5299403 151.1115759  60.4575767
  78.1571442 150.7292836  61.0713291  76.6727322 150.8929960  60.8231459
  87.9293512 161.5178734  62.0629502  88.4733416 162.1308692  61.5684457
  87.3480357 162.0758312  62.5796515  74.3064946 152.9192188  46.3894122
  74.6018387 152.0102866  46.3361175  73.4052982 152.8979927  46.0675124
  77.8359193 150.9948184  52.3721670  77.1145779 151.6084152  52.2329144
  78.6252449 151.5305949  52.2938316  88.2785933 162.4408472  54.8224080
  87.3316269 162.3213823  54.7502407  88.6268706 161.5530970  54.9050341
  80.6385506 148.3302611  58.6462322  81.1619908 148.5764907  59.4088631
  80.4197840 149.1622646  58.2265459  76.0352787 150.6006285  46.5133447
  75.7065494 149.7203664  46.3308553  76.3892158 150.5453954  47.4009836
  85.2832366 162.2361188  51.0228432  85.1357329 161.3077895  51.2036002
  86.1085860 162.2581279  50.5385508  79.1494611 150.8879255  46.8808924
  79.4890683 151.4165176  46.1587533  79.5966731 151.2259661  47.6567491
  88.8866488 163.0589747  52.1093305  89.8113036 162.8532608  51.9717756
  88.7181792 162.8106148  53.0182647  81.8438051 149.2716306  56.3311992
  81.5034872 148.4724119  56.7332672  81.1377058 149.5718017  55.7588826
  82.4954523 146.3565618  54.7839316  83.3180593 145.8826096  54.6618206
  82.7392587 147.1356102  55.2838002  81.1362758 149.3853877  45.0802217
  81.8571120 149.7635129  44.5765934  80.5128062 150.1042753  45.1837195
  85.2793881 150.0899026  46.0160550  85.4957495 150.9723664  45.7149378
  84.7987948 149.6985239  45.2866192  80.0193102 153.0484739  52.5931294
  79.8737683 153.3625042  53.4855576  79.5418306 153.6669639  52.0402193
  81.8789485 150.0387287  52.6412184  81.8651054 149.1428380  52.3044482
  82.5961913 150.0457951  53.2750470  83.7315616 150.4724627  54.6865311
  83.4733393 151.3941698  54.6849642  83.2000656 150.0755062  55.3765775
  88.6761804 163.5775414  47.4655396  88.8498682 163.0121837  46.7129249
  89.1690696 164.3776309  47.2834886  74.4938764 155.5890083  55.5318955
  73.9492232 156.3649891  55.6639230  75.3718114 155.9360888  55.3738077
  81.2826381 148.9201667  47.9099754  81.4042292 147.9918313  48.1090641
  80.9928423 148.9340353  46.9978069  84.1517571 146.6056578  51.0466474
  84.1739268 146.6695911  50.0918453  84.5685630 145.7661086  51.2406980
  94.5301196 156.3411837  49.0845696  94.9732342 155.5919162  48.6864820
  93.6527706 156.3321973  48.7019428  89.6636977 162.8942179  44.5652295
  90.3587882 163.5148871  44.7839609  90.0060127 162.0437530  44.8404673
  75.2804786 154.7159980  58.4249112  74.5386522 154.8642615  59.0113743
  74.9597530 154.9768245  57.5615862  91.5628400 160.3441884  46.0939626
  92.0879724 160.6829157  45.3688946  91.4750753 159.4088899  45.9102760
  80.6942933 161.9551876  52.5257180  80.0722942 161.2922582  52.2259408
  81.3647800 161.9813008  51.8430828  80.7667460 150.4333665  62.1189686
  80.8155616 151.3095787  61.7367456  81.3089975 149.8911058  61.5461330
  91.2522306 160.9774788  61.3990824  90.4617850 160.9598927  60.8595323
  91.0155661 161.5163081  62.1539860  91.3720181 157.8267254  58.7123552
  91.4218186 157.6617262  59.6539075  91.2634104 156.9594513  58.3221433
  80.2556440 160.5055800  46.0015641  80.4044560 161.1891264  45.3482314
  81.0622883 160.4860890  46.5165097  88.6623944 153.8098182  60.0282859
  89.5633806 153.6704647  59.7366857  88.7371918 153.9752637  60.9681036
  82.9966749 151.1865037  58.8736045  82.1270058 151.4798603  58.6018634
  83.2326229 151.7705482  59.5943309  92.8738378 160.2464196  58.9565574
  92.5823186 160.6094176  59.7929035  92.2610509 159.5331204  58.7778906
  94.0734060 157.8117075  51.4768144  94.9080952 158.2506880  51.6405704
  94.2093189 157.3355729  50.6576390  91.1225566 155.3696810  57.4245632
  91.5979688 155.5624457  56.6164483  90.1991132 155.4255996  57.1789015
  78.0109073 156.5320977  47.0076710  77.7655115 155.6283307  47.2056920
  78.1804987 156.5338128  46.0656188  85.7005783 147.4044654  56.3901465
  86.2187727 148.1405681  56.0647954  85.3460915 147.7108647  57.2248225
  77.2804720 152.2649335  44.5062871  76.5873965 152.3393690  43.8502907
  77.0356472 151.5009679  45.0284388  85.9518377 143.8244936  51.9102362
  86.2320131 143.1568125  52.5362789  86.7368984 144.0174032  51.3977026
  83.7551845 163.0003930  43.4727388  83.1825812 163.6194117  43.0197860
  84.3284639 163.5503292  44.0067310  89.8227235 152.2462570  55.6573937
  90.7744658 152.3460668  55.6786161  89.6530686 151.4540839  56.1672022
  87.8441615 149.3318154  55.8433338  87.2491547 149.6123166  55.1479827
  87.5591311 149.8212055  56.6150079  86.9749105 163.2841080  44.6035971
  87.9079778 163.2186642  44.8068846  86.8872318 164.1197347  44.1450503
  89.6037122 162.6006951  41.5639918  89.5250753 162.2666814  42.4575676
  90.4246789 163.0928719  41.5631391  92.3015313 155.4668690  54.7716237
  92.2691633 154.5284691  54.9575921  92.9115937 155.5452727  54.0382062
  84.1398644 154.3364743  40.8143441  85.0857749 154.2070951  40.8831859
  83.7612889 153.5979405  41.2912869  92.4509801 152.2579733  54.8174520
  91.9348850 151.4738190  54.6304449  93.3349750 151.9298450  54.9821039
  90.1120528 146.0020749  50.7770333  89.9145350 145.6935837  51.6613665
  90.7220234 146.7282388  50.9068263  98.1191863 156.5284697  53.9122274
  98.8495251 156.2669985  54.4729977  97.5098808 155.7913419  53.9524342
  96.2007160 154.6692559  54.5096725  95.4740324 154.5348524  53.9013216
  95.7854447 154.9769388  55.3153443  84.0237336 158.3882489  62.2744098
  84.9440346 158.5661088  62.4684144  83.9886919 157.4438535  62.1223797
  82.3241561 152.2614719  40.7498326  81.4173016 151.9647832  40.8261040
  82.6017542 151.9644538  39.8832612  73.2419501 153.5821083  51.1997372
  72.9222286 152.7286391  50.9071746  72.6952930 153.7969661  51.9555340
  77.0199409 156.2983524  54.9166879  77.2385419 157.2300632  54.9354913
  77.4325183 155.9391498  55.7021683  83.9403627 146.8051609  46.9042567
  83.1304355 146.4598694  47.2797813  84.6288044 146.4959153  47.4930179
  85.8694175 145.8829656  48.5266864  86.4225214 146.3025109  49.1856887
  86.1064261 144.9565404  48.5689820  81.8927274 151.8716730  64.3069628
  81.7924001 152.8211087  64.2381719  81.6748816 151.5434968  63.4345698
  81.0940346 149.1201655  40.8910305  81.9559510 149.4456553  41.1506123
  81.2790690 148.3333151  40.3783371  73.1107761 157.2023994  53.1690494
  72.4171233 156.7877947  52.6560448  73.8580752 157.2444531  52.5723913
  89.2472982 147.9930181  48.0345528  88.6671651 148.6514985  47.6523581
  88.9808915 147.1707526  47.6232946  87.6976548 147.3935239  50.2366849
  88.1976327 147.5051773  49.4281167  88.3412156 147.0896292  50.8767657
  81.7558544 155.3013868  63.1234690  81.2725626 156.1014229  63.3298579
  81.8419483 155.3121813  62.1702134  75.0244504 157.1342248  51.0456509
  75.0015192 157.2329935  50.0938392  75.3345140 157.9807399  51.3673675
  77.6831882 159.1918403  55.1603123  78.6375135 159.1602345  55.0933055
  77.4844405 158.7309027  55.9753349  78.2731264 157.7619519  57.7273921
  79.0924153 158.2563598  57.7508758  78.5468072 156.8451487  57.6991489
  88.0297860 150.1530271  47.0901877  87.1423715 150.4379922  46.8722071
  88.4451849 149.9924035  46.2429153  91.3812396 150.1776792  50.8056216
  92.1572786 150.6673245  51.0780833  90.6560530 150.6034847  51.2628085
  93.8184955 150.8904412  51.8630156  94.4129446 150.6500148  51.1523465
  93.8911539 150.1711542  52.4903693  87.1741074 159.9174946  41.1849897
  87.8776924 160.1224949  41.8007552  86.4503722 160.4851708  41.4498980
  88.0038884 155.6684807  47.3052167  87.9474085 156.1253359  46.4659799
  88.5567226 154.9075492  47.1275009  91.8143690 151.4574539  48.1302286
  91.5580624 151.0571175  48.9610494  91.1896558 152.1718333  48.0052425
  96.1256028 154.1970613  50.6373578  95.5655586 154.2663802  51.4105140
  95.5199531 154.0211597  49.9173074  89.0827771 160.3557475  43.2348357
  89.9173375 159.9238674  43.0525831  88.9212114 160.1839489  44.1625251
  88.7373663 156.8589589  44.6004696  88.6822467 156.6933860  43.6593140
  88.1119718 157.5665622  44.7566886  73.5266178 152.0957653  58.4266118
  74.1725042 151.5856607  58.9153343  73.3183329 152.8326335  59.0009543
  86.0519570 159.1638501  63.9258259  86.9210730 159.3379153  63.5644894
  85.5726322 159.9832917  63.8033988  82.0469789 146.3597698  44.1790014
  82.0348458 147.3039538  44.3358285  82.9393211 146.1767843  43.8849475
  85.8621908 142.9540474  48.4335951  85.0954304 142.3998961  48.5792633
  86.2732613 143.0262343  49.2950103  77.8663669 149.2425270  62.5241132
  78.7295131 148.8862075  62.7344457  77.2929080 148.9039165  63.2116537
 102.6661742 168.5353814  51.3089720 103.3986914 167.9653030  51.5427549
 101.9101097 168.1475414  51.7496225 100.1887162 162.2475388  55.7684328
  99.8570487 163.1170799  55.5445543  99.5932775 161.9311672  56.4478359
  93.9243348 165.9870955  43.5014411  94.0917751 166.8551191  43.8684882
  93.7340517 166.1498236  42.5775700 100.0815825 166.9670474  52.8477679
  99.1732703 166.8985882  52.5536440 100.0303421 167.4442419  53.6759504
 101.9477472 165.1686912  54.6255552 101.3051852 165.4619445  53.9795347
 101.4432400 165.0539833  55.4308749  97.3888918 165.9351688  57.9817435
  97.1449850 166.6893749  57.4451711  97.6648849 166.3137036  58.8164682
  96.9453610 165.0908121  53.5631273  96.0838089 165.3889375  53.8548010
  96.9716045 165.3078520  52.6312305  90.4245170 162.6505987  63.5171104
  90.0312115 162.0972185  64.1918748  91.2411310 162.9616565  63.9077621
  93.3413131 164.0663866  61.1091360  94.0822844 164.6671019  61.0295823
  93.5731054 163.3241504  60.5509403  97.2870294 160.0944969  55.3855642
  96.9434563 160.9846610  55.3094753  97.6549256 159.9046626  54.5225227
  94.8367688 164.9303281  48.9513316  93.9809284 164.5410131  48.7718954
  95.2494639 165.0095241  48.0913101  96.3666834 162.4649624  53.3504875
  95.8631630 162.4279759  52.5372681  96.6597441 163.3742367  53.4101532
  92.6109720 162.5488354  52.3571057  93.4762717 162.3531162  51.9976947
  92.6787229 162.3198705  53.2840414  97.0406880 167.9580672  45.7187858
  96.7357015 168.2726821  46.5698002  97.9937322 168.0362092  45.7615191
  90.2172039 164.7790562  49.7287424  90.7915791 164.5565743  48.9960617
  90.8043022 164.8479256  50.4816025  92.5194707 161.6531811  48.4562493
  91.8659119 161.3380828  47.8319108  92.4775181 161.0307551  49.1822316
  98.9846332 166.5762276  49.8931611  98.2469089 166.0639662  50.2241853
  99.2373106 166.1362658  49.0814887  99.0857960 159.3538528  50.4873380
  99.3916836 158.4935891  50.1999295  99.8110564 159.9456148  50.2872374
  90.7885474 165.8387736  54.3701185  91.4284853 165.6976495  53.6724148
  89.9563004 165.5522250  53.9939787  95.1664588 163.8487759  58.3338657
  94.5192503 164.5477709  58.2403133  95.9365603 164.2823903  58.7014905
  96.9140583 164.8163170  50.8377942  97.4109282 164.0633132  50.5179012
  96.1427564 164.8527487  50.2721151  93.4975551 166.9580553  50.5649626
  93.1273339 166.4051593  51.2530532  93.9934644 166.3538686  50.0124626
  99.3559577 161.7832763  52.9857301  98.4422657 162.0136990  53.1539508
  99.7852679 161.8671207  53.8371333  88.8940885 164.3684544  56.8102733
  88.9582212 165.2299375  56.3980130  88.8308005 163.7558545  56.0775091
  91.4779261 163.6594528  58.6462322  92.0013663 163.9056825  59.4088631
  91.2591594 164.4914563  58.2265459  92.6831806 164.6008223  56.3311992
  92.3428626 163.8016037  56.7332672  91.9770812 164.9009934  55.7588826
  93.3348278 161.6857536  54.7839316  94.1574347 161.2118014  54.6618206
  93.5786341 162.4648020  55.2838002  91.9756512 164.7145794  45.0802217
  92.6964875 165.0927047  44.5765934  91.3521816 165.4334671  45.1837195
  96.1187635 165.4190943  46.0160550  96.3351250 166.3015581  45.7149378
  95.6381702 165.0277157  45.2866192  92.7183239 165.3679205  52.6412184
  92.7044808 164.4720298  52.3044482  93.4355668 165.3749868  53.2750470
  94.5709370 165.8016545  54.6865311  94.3127148 166.7233615  54.6849642
  94.0394411 165.4046979  55.3765775  92.1220135 164.2493585  47.9099754
  92.2436047 163.3210231  48.1090641  91.8322178 164.2632271  46.9978069
  94.9911326 161.9348495  51.0466474  95.0133023 161.9987828  50.0918453
  95.4079385 161.0953004  51.2406980  99.5017698 169.1390100  60.0282859
 100.4027561 168.9996565  59.7366857  99.5765673 169.3044555  60.9681036
  93.8360503 166.5156955  58.8736045  92.9663813 166.8090521  58.6018634
  94.0719984 167.0997400  59.5943309  96.5399537 162.7336572  56.3901465
  97.0581481 163.4697598  56.0647954  96.1854670 163.0400565  57.2248225
  96.7912131 159.1536854  51.9102362  97.0713885 158.4860043  52.5362789
  97.5762738 159.3465950  51.3977026 100.6620990 167.5754488  55.6573937
 101.6138413 167.6752586  55.6786161 100.4924440 166.7832757  56.1672022
  98.6835369 164.6610071  55.8433338  98.0885301 164.9415084  55.1479827
  98.3985066 165.1503972  56.6150079 103.2903556 167.5871651  54.8174520
 102.7742605 166.8030108  54.6304449 104.1743504 167.2590368  54.9821039
 100.9514283 161.3312667  50.7770333 100.7539104 161.0227755  51.6613665
 101.5613988 162.0574306  50.9068263  94.7797381 162.1343527  46.9042567
  93.9698110 161.7890612  47.2797813  95.4681798 161.8251071  47.4930179
  96.7087929 161.2121574  48.5266864  97.2618968 161.6317027  49.1856887
  96.9458016 160.2857322  48.5689820  91.9334100 164.4493572  40.8910305
  92.7953264 164.7748471  41.1506123  92.1184444 163.6625068  40.3783371
 100.0866737 163.3222099  48.0345528  99.5065406 163.9806903  47.6523581
  99.8202669 162.4999443  47.6232946  98.5370303 162.7227156  50.2366849
  99.0370081 162.8343691  49.4281167  99.1805911 162.4188209  50.8767657
  98.8691615 165.4822189  47.0901877  97.9817470 165.7671840  46.8722071
  99.2845604 165.3215953  46.2429153 102.2206151 165.5068710  50.8056216
 102.9966541 165.9965163  51.0780833 101.4954285 165.9326764  51.2628085
 104.6578709 166.2196329  51.8630156 105.2523200 165.9792065  51.1523465
 104.7305293 165.5003460  52.4903693 102.6537444 166.7866457  48.1302286
 102.3974378 166.3863093  48.9610494 102.0290312 167.5010251  48.0052425
  92.8863543 161.6889615  44.1790014  92.8742213 162.6331455  44.3358285
  93.7786965 161.5059761  43.8849475  96.7015663 158.2832392  48.4335951
  95.9348058 157.7290879  48.5792633  97.1126368 158.3554261  49.2950103
  88.7057424 164.5717188  62.5241132  89.5688885 164.2153993  62.7344457
  88.1322834 164.2331083  63.2116537   8.2871501  26.3516187  45.9496570
   8.2760141  25.9568986  45.0777074   8.4492140  25.6182260  46.5430342
   5.0078762  29.1353299  44.8975754   4.7168628  30.0398930  44.7822420
   5.6435746  29.1769827  45.6119824   9.9668647  28.8214715  41.8925548
   9.6669370  29.7239754  41.7841355   9.6219706  28.5546898  42.7446701
   7.4406656  22.7586901  47.5157882   6.6639991  23.3180821  47.5060747
   8.0797220  23.2443684  48.0372753   5.6953029  25.5672354  47.0775849
   6.4367713  26.1057398  46.8010673   4.9890014  26.1938643  47.2347401
  11.1708368  27.7101494  45.6748011  11.5791724  27.2683905  44.9302643
  10.4485630  27.1354122  45.9282204  10.6738884  20.3078470  44.7062742
  10.4299816  21.0620530  44.1697017  10.9498814  20.6863817  45.5409989
  12.6277347  26.8517082  43.3840007  12.8394242  27.4948842  42.7074388
  12.5807095  26.0179398  42.9161937   4.4314393  22.7212002  47.8791159
   3.8013053  23.4028283  48.1126556   4.3250480  22.6095084  46.9344298
  13.7423175  29.7289037  41.5562364  14.5640618  29.3269225  41.2745046
  13.7385577  29.6257271  42.5078480   7.5079778  29.2773081  43.7123075
   7.5724210  29.7393488  44.5481247   6.7990702  28.6470446  43.8405385
  21.8329168  26.0727786  37.9047336  21.0792876  25.5035184  37.7491340
  21.9676709  26.0390450  38.8517971   8.8496272  31.5664755  47.7102397
   8.4060126  30.7801133  47.3923302   9.5113486  31.7543905  47.0446288
   3.6083393  33.0960556  42.2363076   4.1590818  32.9677620  41.4640070
   2.7694869  33.3955445  41.8857969  10.9477510  31.8467555  45.7383799
  10.9295985  32.6676436  45.2464068  11.8697430  31.7221630  45.9633940
   7.4050564  29.3611684  46.5807307   7.9378901  28.5999972  46.3506615
   6.8764645  29.0685336  47.3231461  10.1795576  23.1037986  44.3100150
  10.5344964  23.3309460  45.1694616  10.8267707  23.4356363  43.6877406
  15.9362693  28.2932949  40.0260751  16.3699199  28.2008238  40.8743805
  16.6494273  28.2690450  39.3880767   9.6690588  31.8935043  41.5593851
   9.7227610  32.4625980  42.3271567   8.8005369  32.0636928  41.1947889
  16.7978242  28.3356650  42.5593636  16.9914132  29.2402461  42.8052911
  16.6978860  27.8764069  43.3932221  11.8593351  28.4863393  48.1334517
  11.7078857  28.2573944  47.2164600  11.8498030  29.4433994  48.1465862
   8.6278687  26.0595305  43.1180783   9.5570747  26.2106465  42.9449751
   8.2069717  26.1479326  42.2629430   7.4267019  30.0845970  40.8879321
   7.2878105  29.7164754  41.7605259   6.6381615  30.5993609  40.7163279
  13.5685558  31.5182515  46.2110999  13.5098104  30.8341735  45.5441582
  13.9705076  32.2601505  45.7591625   2.5876256  38.3344429  39.0044718
   2.8272855  38.9662953  39.6823736   1.7445453  37.9832469  39.2910077
  13.5702965  29.4822099  44.4424978  12.6829744  29.1448021  44.5651377
  14.1401516  28.7505130  44.6793744   7.1004118  34.1423552  41.4086222
   7.0274290  34.9478523  41.9205526   6.6581511  34.3415517  40.5834243
   9.5602802  34.0410386  43.5644380  10.2730774  34.6757850  43.4920282
   9.0692830  34.1374252  42.7484382   4.6114715  31.7904829  44.3849951
   5.3124175  32.4241312  44.5379345   4.1409830  32.1319561  43.6245590
  12.4116001  24.3449437  42.2102501  11.7587452  24.5925344  41.5554954
  12.7896381  23.5313575  41.8764979   8.4603574  25.0869248  48.6968538
   7.7844211  24.9863377  49.3670914   9.2831208  24.9308461  49.1604536
   7.2026357  36.3936175  42.9326154   7.7544665  36.5567797  43.6975240
   7.5432551  36.9840613  42.2606179  12.0537232  31.2197433  48.7874809
  12.5977136  31.8327391  48.2929764  11.4724076  31.7777011  49.3041822
  10.3394744  34.3418151  39.9189837  10.2145884  33.5407890  39.4100782
  10.9973836  34.8364344  39.4303807  12.4029653  32.1427171  41.5469387
  11.4559988  32.0232522  41.4747713  12.7512426  31.2549669  41.6295648
  13.0110208  32.7608446  38.8338612  13.9356755  32.5551307  38.6963063
  12.8425511  32.5124847  39.7427953   7.3492169  33.9594657  44.9474809
   7.6579295  33.7143803  45.8197508   8.1467651  34.1641295  44.4593679
   7.3712781  36.1132566  37.1780185   6.9317771  35.6208945  37.8713042
   8.1220898  35.5705534  36.9372261  15.3766026  30.6793487  48.1236130
  14.5861570  30.6617625  47.5840630  15.1399380  31.2181780  48.8785167
  15.4963901  27.5285953  45.4368859  15.5461906  27.3635960  46.3784381
  15.3877824  26.6613212  45.0466739  12.7867663  23.5116881  46.7528165
  13.6877526  23.3723346  46.4612163  12.8615638  23.6771336  47.6926343
  16.9982098  29.9482895  45.6810880  16.7066906  30.3112875  46.5174341
  16.3854229  29.2349903  45.5024212  18.1977780  27.5135774  38.2013450
  19.0324671  27.9525578  38.3651011  18.3336909  27.0374428  37.3821696
  15.2469286  25.0715509  44.1490938  15.7223408  25.2643155  43.3409790
  14.3234851  25.1274695  43.9034322  13.9470955  21.9481269  42.3819244
  14.8988378  22.0479367  42.4031468  13.7774405  21.1559538  42.8917328
  16.4259033  25.1687389  41.4961543  16.3935353  24.2303390  41.6821227
  17.0359656  25.2471426  40.7627368  22.2435583  26.2303396  40.6367580
  22.9738971  25.9688684  41.1975284  21.6342528  25.4932118  40.6769648
  20.3250880  24.3711258  41.2342031  19.5984043  24.2367223  40.6258523
  19.9098167  24.6788087  42.0398749   8.1481056  28.0901188  48.9989404
   9.0684066  28.2679787  49.1929451   8.1130639  27.1457233  48.8469104
   6.0170994  21.5735428  51.0314935   5.9167721  22.5229785  50.9627026
   5.7992536  21.2453667  50.1591005   5.8802264  25.0032567  49.8479996
   5.3969346  25.8032927  50.0543885   5.9663203  25.0140512  48.8947440
   2.3974984  27.4638218  44.4519228   3.2167873  27.9582297  44.4754065
   2.6711791  26.5470186  44.4236795   3.3194956  35.3326039  39.1137071
   3.2027340  36.2771471  39.0115761   2.4987403  35.0299600  39.5022870
  10.1763290  28.8657199  50.6503565  11.0454450  29.0397852  50.2890200
   9.6970042  29.6851616  50.5279295   4.3449470  35.9854300  42.3292999
   5.2476717  36.0177911  42.6459494   4.1186840  35.0554751  42.3439335
   6.1003072  34.7385287  38.9903078   5.1498703  34.7387149  38.8767450
   6.4035559  33.9918022  38.4739112  21.8355766  40.5745825  40.0548840
  22.4734176  40.4552573  39.3512180  21.7176609  41.5226669  40.1136792
  18.6445472  40.5273253  39.9910365  18.3063984  40.4114318  39.1030900
  19.5135240  40.1264419  39.9711371  14.5032288  42.3808730  35.9807256
  13.9397153  42.2898667  35.2123543  14.3884683  41.5608634  36.4609748
  19.1265255  41.6808105  45.9496570  19.1153896  41.2860903  45.0777074
  19.2885895  40.9474178  46.5430342  12.0496720  43.8759921  38.8191476
  12.8418012  43.5350746  38.4037775  12.2893370  43.9854896  39.7393629
  20.0831847  46.0479698  31.2921721  19.4319826  46.6333778  30.9055734
  20.8776209  46.5785892  31.3516758  14.0087474  43.1368835  31.6908855
  14.7818350  42.5897822  31.5521731  14.3612873  44.0013084  31.9023316
  15.8472516  44.4645217  44.8975754  15.5562382  45.3690848  44.7822420
  16.4829501  44.5061745  45.6119824  16.7728723  41.8422065  41.4877114
  17.3692295  41.6178088  40.7734077  16.8303695  41.1006811  42.0902562
  21.3897034  38.2997279  37.1302048  22.1760124  37.8816702  36.7792465
  21.6535739  39.2043371  37.2983696  21.5607112  43.7370129  31.8290705
  20.9252945  43.8104756  32.5411609  21.2304518  44.3263728  31.1509784
  26.7905462  38.2372512  38.0335027  27.5230633  37.6671729  38.2672856
  26.0344817  37.8494113  38.4741532  16.0650040  41.1989607  31.5251680
  15.9486298  40.5234510  32.1932764  16.1752300  40.7121981  30.7083833
  18.4081581  40.6599754  35.2298369  18.0439788  40.1330375  35.9411290
  19.2648697  40.2698223  35.0564854  24.3130882  31.9494086  42.4929635
  23.9814207  32.8189497  42.2690850  23.7176495  31.6330370  43.1723666
  20.8062401  44.1506632  41.8925548  20.5063124  45.0531671  41.7841355
  20.4613461  43.8838816  42.7446701  14.2574883  40.6020429  37.9262252
  13.3325379  40.4696643  38.1339944  14.5059296  41.3814649  38.4232195
  24.2059545  36.6689173  39.5722985  23.2976423  36.6004581  39.2781746
  24.1547141  37.1461118  40.4004811  11.6183694  40.2453703  38.7606041
  11.7476075  40.4988182  39.6745453  10.9381145  40.8381411  38.4410696
  15.7883181  50.9150953  34.8596516  15.7107211  51.8658778  34.9384996
  15.1844825  50.5696825  35.5171442  18.2800411  38.0878818  47.5157882
  17.5033745  38.6472738  47.5060747  18.9190974  38.5735601  48.0372753
  26.0721192  34.8705611  41.3500859  25.4295572  35.1638144  40.7040654
  25.5676120  34.7558531  42.1554056  23.7261355  38.6168784  32.0386718
  24.6379211  38.8496171  31.8634416  23.2171002  39.2005828  31.4761797
  16.5346783  40.8964272  47.0775849  17.2761468  41.4349316  46.8010673
  15.8283769  41.5230560  47.2347401  22.0102123  43.0393412  45.6748011
  22.4185479  42.5975823  44.9302643  21.2879384  42.4646040  45.9282204
  18.3633193  37.9766019  43.0481568  19.2094388  38.4005432  43.1916217
  18.3031831  37.3199643  43.7420131  22.3330938  43.5994603  39.4300300
  21.7039800  43.7640317  38.7276368  21.9456600  44.0136212  40.2011264
  26.2120169  44.5349041  36.7844664  25.5271208  44.9147942  36.2341697
  26.2964019  45.1444367  37.5176611  21.5132638  35.6370387  44.7062742
  21.2693570  36.3912448  44.1697017  21.7892569  36.0155735  45.5409989
  23.4671101  42.1809000  43.3840007  23.6787996  42.8240759  42.7074388
  23.4200849  41.3471316  42.9161937  21.0697330  34.7926820  40.2876579
  20.2081809  35.0908074  40.5793317  21.0959765  35.0097219  39.3557612
  17.8858899  43.3369011  36.6950385  18.3497245  43.6156714  35.9055007
  17.6215698  42.4352455  36.5123476  14.7782981  42.8840492  39.6330148
  15.3484338  43.3127761  38.9947633  15.3691092  42.6023077  40.3314334
  16.8227786  39.4592163  33.5039950  17.5251829  39.9113207  33.9713876
  16.4908414  38.8175982  34.1319843  15.2708147  38.0503920  47.8791159
  14.6406808  38.7320201  48.1126556  15.1644235  37.9387001  46.9344298
  10.5653119  37.7175716  38.8057084   9.7752173  37.9733244  38.3297194
  11.0564367  38.5324054  38.9109124  24.5816929  45.0580955  41.5562364
  25.4034373  44.6561142  41.2745046  24.5779332  44.9549189  42.5078480
  12.5167865  38.0820295  35.7640560  11.7199028  38.1938989  36.2824056
  12.2893457  38.4206947  34.8981451  18.3473532  44.6064998  43.7123075
  18.4117965  45.0685406  44.5481247  17.6384456  43.9762363  43.8405385
   8.8490822  37.9706206  41.2372074   9.0998861  38.8553216  41.5029650
   9.3850371  37.7910808  40.4647166  32.6722922  41.4019703  37.9047336
  31.9186630  40.8327102  37.7491340  32.8070463  41.3682368  38.8517971
  18.0621550  46.2733106  33.5802055  17.9267225  47.1184642  34.0086903
  18.6031363  46.4752383  32.8167989  14.5488890  32.3524686  50.2416410
  14.1555835  31.7990884  50.9164055  15.3655030  32.6635264  50.6322928
  11.5150948  43.7908544  34.1529980  12.0275468  44.5851794  34.3035545
  12.1673660  43.0934834  34.0863582  13.3245832  46.9074300  36.2352734
  13.5012461  47.8292265  36.0473717  14.1202666  46.5932719  36.6647113
  17.4656851  33.7682565  47.8336667  18.2066564  34.3689718  47.7541130
  17.6974774  33.0260203  47.2754710  12.6098189  38.9538932  46.1114897
  12.4951704  38.0524189  46.4121996  11.7542707  39.2002629  45.7599713
  19.6890027  46.8956672  47.7102397  19.2453881  46.1093051  47.3923302
  20.3507240  47.0835823  47.0446288  14.4477148  48.4252474  42.2363076
  14.9984573  48.2969537  41.4640070  13.6088624  48.7247363  41.8857969
  21.7871265  47.1759472  45.7383799  21.7689740  47.9968353  45.2464068
  22.7091185  47.0513547  45.9633940  18.2444319  44.6903602  46.5807307
  18.7772656  43.9291890  46.3506615  17.7158400  44.3977254  47.3231461
  21.4114014  29.7963668  42.1100949  21.0678283  30.6865309  42.0340059
  21.7792976  29.6065325  41.2470534   9.4799864  42.1197198  34.9289551
  10.3175086  42.5294206  34.7123259   9.6578132  41.1796640  34.8989745
  21.3764296  39.7872279  30.6173384  20.8610920  40.5576883  30.8561771
  21.1041605  39.1137415  31.2406445  18.9611407  34.6321980  35.6758622
  18.1053004  34.2428830  35.4964261  19.3738359  34.7113940  34.8158408
  20.4910554  32.1668323  40.0750182  19.9875350  32.1298458  39.2617987
  20.7841161  33.0761066  40.1346839  16.7353440  32.2507053  39.0816364
  17.6006437  32.0549861  38.7222253  16.8030949  32.0217404  40.0085720
  26.3498571  42.5404633  32.5526557  25.5728013  42.2015793  32.1081719
  27.0290052  42.5457257  31.8781522  21.1650600  37.6599371  32.4433165
  20.8600735  37.9745520  33.2943308  22.1181042  37.7380791  32.4860498
  19.6097031  43.8189594  34.0926119  19.0818393  43.0842354  33.7799356
  19.1084534  44.5964271  33.8466087  24.5889877  42.0138615  39.2093165
  23.9313552  42.7037876  39.2973294  25.3930277  42.4035047  39.5527152
  14.3415759  34.4809260  36.4532731  14.9159511  34.2584442  35.7205923
  14.9286741  34.5497955  37.2061332  23.3995336  40.3682987  37.2597107
  23.9127218  41.0012979  37.7618817  24.0496560  39.7684183  36.8940467
  20.6617710  50.3467312  30.0157778  19.9879409  50.6499008  30.6242736
  21.0483532  51.1496392  29.6663235  19.8776167  37.8432443  39.5055448
  18.9598728  38.0647390  39.3477136  20.2936311  37.9178753  38.6467155
  20.6611215  39.2423859  34.6358128  21.4083034  39.7545256  34.3265250
  20.9302804  38.9207911  35.4962521  18.9337865  41.7382399  31.6185082
  18.0249084  41.4541432  31.7157552  18.9632949  42.1581478  30.7588389
  24.1657132  45.3488989  35.3876250  23.7119460  44.5079899  35.4441440
  23.5351099  45.9850387  35.7251030  23.1090052  36.2780975  36.6176917
  22.3712809  35.7658361  36.9487160  23.3616826  35.8381356  35.8060194
  22.6090072  47.1865486  36.3226068  22.9013046  47.7470543  35.6038433
  23.1188692  47.4794047  37.0779227  23.2101679  29.0557227  37.2118686
  23.5160556  28.1954590  36.9244602  23.9354284  29.6474847  37.0117680
   9.5026035  39.4587913  35.6000284   9.3050435  38.8657274  34.8751351
   8.9472699  39.1540124  36.3176223  17.4822759  39.3511020  37.7194877
  17.5371369  38.3984856  37.6437354  16.6713961  39.5070459  38.2036176
  18.6313953  43.2791143  28.9573161  18.1933383  42.5627002  28.4978798
  19.3724394  43.5067258  28.3958252  15.4215119  37.9688080  35.4785256
  14.6082985  38.2682250  35.8850448  15.9174113  37.5743768  36.1959739
  17.5723697  47.9645837  37.4119521  17.5299876  48.1906683  36.4828053
  18.4886396  47.7309211  37.5605322  21.0189331  38.4329904  44.3100150
  21.3738718  38.6601377  45.1694616  21.6661462  38.7648281  43.6877406
  26.7487068  41.5548340  35.0149479  26.6104966  41.7449936  34.0870669
  26.3923286  42.3167723  35.4717530  14.9129194  35.5406435  41.0946491
  15.5528573  35.3995194  40.3969455  14.0806724  35.2540949  40.7185093
  26.7756447  43.6224867  40.0260751  27.2092954  43.5300156  40.8743805
  27.4888028  43.5982367  39.3880767  15.6889498  44.8408866  37.2081484
  16.4830096  44.3459186  37.0064059  14.9781190  44.3126729  36.8449189
  20.5084342  47.2226961  41.5593851  20.5621364  47.7917897  42.3271567
  19.6399124  47.3928846  41.1947889  11.9157810  35.5106760  35.8719478
  12.1764627  36.4252093  35.7628639  12.7374983  35.0431203  36.0216091
  13.3882736  36.9244517  43.0418303  14.0605789  36.7161879  42.3930952
  12.5612522  36.7266603  42.6023535  27.6371997  43.6648568  42.5593636
  27.8307887  44.5694378  42.8052911  27.5372615  43.2055987  43.3932221
  19.2908308  33.5506458  45.0583964  18.6436223  34.2496408  44.9648440
  20.0609323  33.9842602  45.4260212  22.6987105  43.8155310  48.1334517
  22.5472612  43.5865862  47.2164600  22.6891785  44.7725912  48.1465862
  19.4672442  41.3887223  43.1180783  20.3964502  41.5398383  42.9449751
  19.0463472  41.4771244  42.2629430  18.2660774  45.4137888  40.8879321
  18.1271859  45.0456672  41.7605259  17.4775370  45.9285527  40.7163279
  18.8608926  50.5146984  32.2304857  19.0360681  50.0435027  33.0450480
  18.1741714  51.1412750  32.4586118  19.8165989  44.7919490  38.2768159
  19.4815821  44.7520260  39.1725809  19.3169934  44.1264206  37.8038569
  13.7910233  40.1987120  43.8020740  13.6530031  39.4667359  44.4032279
  14.7015156  40.1096020  43.5204928  22.7525180  42.1375525  28.5505218
  22.1354351  41.4122353  28.4538271  22.2841669  42.8984885  28.2072293
  16.4192533  39.9107080  43.2904419  17.1292152  39.2700272  43.2491038
  16.3761842  40.1619974  44.2130600  24.4079312  46.8474433  46.2110999
  24.3491858  46.1633653  45.5441582  24.8098831  47.5893423  45.7591625
  15.1321467  36.8972298  45.1100059  14.5958824  36.4463036  45.7621655
  14.5438176  37.0318206  44.3670523  13.4270011  53.6636347  39.0044718
  13.6666609  54.2954871  39.6823736  12.5839207  53.3124387  39.2910077
  24.4096719  44.8114017  44.4424978  23.5223498  44.4739939  44.5651377
  24.9795270  44.0797048  44.6793744   6.0625867  41.1438109  37.7668030
   6.7496906  40.8299839  37.1789045   5.9073995  42.0479473  37.4935281
  10.8660589  36.0328305  42.1953053  10.7818777  35.4253975  41.4603463
  10.0443295  36.5237324  42.1962550  17.9397873  49.4715469  41.4086222
  17.8668044  50.2770441  41.9205526  17.4975266  49.6707435  40.5834243
  17.7287652  48.7087239  34.9189043  16.9455174  49.2508919  35.0127268
  18.4280398  49.2261219  35.3183284  21.0384303  34.5181869  37.5623248
  21.5353002  33.7651831  37.2424319  20.2671284  34.5546185  36.9966458
  28.8914060  40.2222234  39.2041540  28.8803936  41.1046950  38.8335473
  28.0231439  39.8693785  39.0096077  20.3996556  49.3702303  43.5644380
  21.1124529  50.0049768  43.4920282  19.9086585  49.4666169  42.7484382
  22.1214083  43.2753556  35.1361672  21.1870362  43.3955018  34.9666376
  22.2990752  42.3726023  34.8721682  17.6219271  36.6599252  37.2894933
  17.2517059  36.1070292  37.9775839  18.1178364  36.0557385  36.7369933
  25.5086635  39.1170875  35.6711706  25.9747087  39.9498867  35.5972009
  25.9594135  38.6515857  36.3756965  15.4508470  47.1196747  44.3849951
  16.1517929  47.7533230  44.5379345  14.9803585  47.4611478  43.6245590
  23.5762866  45.4614697  32.6697858  23.8522710  45.3471291  33.5791732
  22.7067364  45.0632181  32.6310031  23.4803297  31.4851462  39.7102607
  22.5666377  31.7155689  39.8784814  23.9096399  31.5689906  40.5616640
  23.2509756  39.6741354  42.2102501  22.5981206  39.9217262  41.5554954
  23.6290136  38.8605492  41.8764979  20.2116930  49.7101047  36.3130672
  20.3939324  48.8922703  36.7758424  21.0349916  49.9268740  35.8755562
  20.5459095  48.6369233  33.5745720  21.0746862  48.1261687  32.9615882
  20.8087315  48.3211763  34.4391253  19.2997329  40.4161165  48.6968538
  18.6237966  40.3155295  49.3670914  20.1224963  40.2600379  49.1604536
  11.0476188  46.6533102  41.3181054  11.6329625  45.9076790  41.4508958
  10.8501026  46.9637059  42.2017718  13.9014843  49.6884349  36.3343496
  13.2325218  50.1730477  35.8507536  13.7627713  49.9353570  37.2486875
   5.6393843  39.2238702  40.0385497   5.6777942  38.6902293  40.8322615
   5.1334135  38.6973908  39.4196474  18.0420112  51.7228093  42.9326154
  18.5938420  51.8859714  43.6975240  18.3826305  52.3132531  42.2606179
  13.0184605  34.0703243  43.5348039  13.0825931  34.9318073  43.1225437
  12.9551725  33.4577244  42.8020398  12.4936877  36.1426375  47.1821073
  13.1208916  35.7603452  47.7958598  11.6364796  35.9240577  47.5476766
  22.8930986  46.5489350  48.7874809  23.4370890  47.1619309  48.2929764
  22.3117831  47.1068929  49.3041822  21.1788499  49.6710068  39.9189837
  21.0539638  48.8699808  39.4100782  21.8367590  50.1656262  39.4303807
  12.7996667  36.0258801  39.0966977  12.0783253  36.6394768  38.9574450
  13.5889923  36.5616566  39.0183623  23.2423407  47.4719088  41.5469387
  22.2953743  47.3524440  41.4747713  23.5906180  46.5841586  41.6295648
  15.6022981  33.3613227  45.3707629  16.1257383  33.6075524  46.1333938
  15.3835314  34.1933262  44.9510766  20.2469841  47.2671805  37.7473739
  20.0994803  46.3388512  37.9281309  21.0723334  47.2891895  37.2630814
  23.8503963  48.0900363  38.8338612  24.7750510  47.8843225  38.6963063
  23.6819266  47.8416764  39.7427953  16.8075526  34.3026922  43.0557299
  16.4672346  33.5034735  43.4577979  16.1014532  34.6028633  42.4834132
  17.4591998  31.3876235  41.5084622  18.2818067  30.9136713  41.3863512
  17.7030061  32.1666719  42.0083308  14.9830576  38.0795355  39.3176601
  14.8375157  38.3935658  40.2100882  14.5055780  38.6980256  38.7647499
  16.8426959  35.0697903  39.3657490  16.8288528  34.1738997  39.0289788
  17.5599387  35.0768567  39.9995776  18.6953090  35.5035244  41.4110618
  18.4370868  36.4252314  41.4094948  18.1638130  35.1065678  42.1011082
  23.6399279  48.6086031  34.1900703  23.8136156  48.0432453  33.4374556
  24.1328170  49.4086926  34.0080193   9.4576239  40.6200700  42.2564262
   8.9129707  41.3960508  42.3884536  10.3355588  40.9671504  42.0983383
  19.1155046  31.6367194  37.7711780  19.1376742  31.7006527  36.8163760
  19.5323105  30.7971703  37.9652286  29.4938670  41.3722454  35.8091003
  29.9369816  40.6229779  35.4110126  28.6165180  41.3632590  35.4264735
  24.6274451  47.9252795  31.2897601  25.3225356  48.5459488  31.5084916
  24.9697601  47.0748146  31.5649979  10.2442260  39.7470596  45.1494419
   9.5023996  39.8953231  45.7359049   9.9235005  40.0078862  44.2861168
  26.5265874  45.3752501  32.8184932  27.0517198  45.7139773  32.0934252
  26.4388227  44.4399516  32.6348067  18.1885923  49.2886574  44.9474809
  18.4973049  49.0435721  45.8197508  18.9861405  49.4933213  44.4593679
  18.2106535  51.4424484  37.1780185  17.7711525  50.9500863  37.8713042
  18.9614652  50.8997452  36.9372261  10.6898874  47.6336025  37.1804813
  11.5156894  47.3339797  36.8003457  10.3392926  46.8643647  37.6294602
  15.6580407  46.9862493  39.2502487  15.0360417  46.3233198  38.9504715
  16.3285274  47.0123625  38.5676135   8.8907479  45.5522351  38.1393747
   8.0539387  45.1244526  37.9577748   8.8631125  45.7454795  39.0764538
  15.7304935  35.4644281  48.8434993  15.7793090  36.3406404  48.4612763
  16.2727449  34.9221674  48.2706636  26.2159780  46.0085404  48.1236130
  25.4255324  45.9909543  47.5840630  25.9793135  46.5473698  48.8785167
  26.3357655  42.8577871  45.4368859  26.3855660  42.6927878  46.3784381
  26.2271579  41.9905130  45.0466739  15.2193914  45.5366416  32.7260948
  15.3682035  46.2201881  32.0727620  16.0260358  45.5171506  33.2410403
  23.6261418  38.8408799  46.7528165  24.5271281  38.7015264  46.4612163
  23.7009392  39.0063254  47.6926343  17.9604223  36.2175653  45.5981352
  17.0907533  36.5109220  45.3263940  18.1963704  36.8016098  46.3188615
  27.8375852  45.2774812  45.6810880  27.5460661  45.6404793  46.5174341
  27.2247984  44.5641820  45.5024212  29.0371535  42.8427692  38.2013450
  29.8718426  43.2817496  38.3651011  29.1730663  42.3666345  37.3821696
  26.0863041  40.4007427  44.1490938  26.5617162  40.5935073  43.3409790
  25.1628606  40.4566613  43.9034322  12.9746547  41.5631594  33.7322016
  12.7292589  40.6593924  33.9302227  13.1442462  41.5648744  32.7901494
  20.6643257  32.4355270  43.1146772  21.1825201  33.1716297  42.7893261
  20.3098390  32.7419264  43.9493531  20.9155851  28.8555553  38.6347669
  21.1957605  28.1878742  39.2608095  21.7006458  29.0484649  38.1222333
  18.7189320  48.0314547  30.1972695  18.1463287  48.6504734  29.7443167
  19.2922113  48.5813909  30.7312617  24.7864710  37.2773187  42.3819244
  25.7382132  37.3771285  42.4031468  24.6168160  36.4851455  42.8917328
  22.8079089  34.3628770  42.5678645  22.2129021  34.6433783  41.8725133
  22.5228786  34.8522671  43.3395386  21.9386579  48.3151697  31.3281277
  22.8717253  48.2497259  31.5314153  21.8509792  49.1507964  30.8695810
  24.5674596  47.6317567  28.2885225  24.4888228  47.2977431  29.1820983
  25.3884263  48.1239335  28.2876697  27.2652787  40.4979307  41.4961543
  27.2329107  39.5595307  41.6821227  27.8753411  40.5763343  40.7627368
  27.4147276  37.2890350  41.5419827  26.8986324  36.5048807  41.3549756
  28.2987224  36.9609067  41.7066346  25.0758003  31.0331366  37.5015639
  24.8782824  30.7246454  38.3858971  25.6857708  31.7593005  37.6313569
  33.0829337  41.5595313  40.6367580  33.8132726  41.2980602  41.1975284
  32.4736283  40.8224035  40.6769648  31.1644634  39.7003176  41.2342031
  30.4377798  39.5659141  40.6258523  30.7491921  40.0080005  42.0398749
  18.9874811  43.4193106  48.9989404  19.9077820  43.5971705  49.1929451
  18.9524394  42.4749151  48.8469104   8.2056976  38.6131699  37.9242679
   7.8859760  37.7597008  37.6317053   7.6590404  38.8280278  38.6800646
  11.9836883  41.3294140  41.6412186  12.2022893  42.2611248  41.6600219
  12.3962657  40.9702115  42.4266989  20.8331649  30.9140272  35.2512171
  21.3862688  31.3335726  35.9102194  21.0701736  29.9876021  35.2935127
  16.8564749  36.9027346  51.0314935  16.7561475  37.8521703  50.9627026
  16.6386291  36.5745585  50.1591005   8.0745236  42.2334611  39.8935801
   7.3808707  41.8188564  39.3805755   8.8218227  42.2755147  39.2969220
  24.2110456  33.0240798  34.7590835  23.6309125  33.6825602  34.3768887
  23.9446389  32.2018142  34.3478252  22.6614023  32.4245855  36.9612155
  23.1613801  32.5362390  36.1526474  23.3049631  32.1206908  37.6012964
  16.7196019  40.3324485  49.8479996  16.2363100  41.1324845  50.0543885
  16.8056958  40.3432430  48.8947440   9.9881978  42.1652865  37.7701816
   9.9652666  42.2640552  36.8183699  10.2982615  43.0118015  38.0918982
  12.6469356  44.2229020  41.8848430  13.6012610  44.1912962  41.8178362
  12.4481880  43.7619643  42.6998656  13.2368738  42.7930136  44.4519228
  14.0561627  43.2874214  44.4754065  13.5105546  41.8762104  44.4236795
  22.9935334  35.1840888  33.8147183  22.1061189  35.4690539  33.5967378
  23.4089324  35.0234651  32.9674460  26.3449871  35.2087409  37.5301522
  27.1210261  35.6983861  37.8026139  25.6198005  35.6345463  37.9873392
  28.7822429  35.9215028  38.5875463  29.3766920  35.6810764  37.8768771
  28.8549013  35.2022159  39.2148999  11.0019585  49.7648639  38.9018628
  10.8674053  49.0049040  38.3356626  10.5851647  50.4889539  38.4347417
  22.1378548  44.9485563  27.9095203  22.8414398  45.1535565  28.5252859
  21.4141197  45.5162325  28.1744287  22.9676358  40.6995424  34.0297473
  22.9111560  41.1563975  33.1905106  23.5204701  39.9386109  33.8520316
  26.7781164  36.4885156  34.8547593  26.5218098  36.0881791  35.6855801
  26.1534032  37.2028950  34.7297732  31.0893502  39.2281229  37.3618884
  30.5293060  39.2974418  38.1350446  30.4837005  39.0522214  36.6418380
  14.1588711  50.6617956  39.1137071  14.0421095  51.6063389  39.0115761
  13.3381157  50.3591518  39.5022870  24.0465245  45.3868092  29.9593663
  24.8810849  44.9549290  29.7771138  23.8849588  45.2150106  30.8870558
  23.7011137  41.8900205  31.3250003  23.6459941  41.7244477  30.3838447
  23.0757193  42.5976238  31.4812192   8.4903652  37.1268270  45.1511425
   9.1362516  36.6167224  45.6398650   8.2820804  37.8636951  45.7254850
  21.0157045  44.1949117  50.6503565  21.8848204  44.3689769  50.2890200
  20.5363796  45.0143534  50.5279295  15.1843225  51.3146218  42.3292999
  16.0870472  51.3469828  42.6459494  14.9580595  50.3846669  42.3439335
  16.9396827  50.0677205  38.9903078  15.9892458  50.0679066  38.8767450
  17.2429313  49.3209939  38.4739112  12.8301143  34.2735887  49.2486439
  13.6932605  33.9172692  49.4589764  12.2566554  33.9349781  49.9361843
  32.6749520  55.9037743  40.0548840  33.3127930  55.7844490  39.3512180
  32.5570363  56.8518587  40.1136792  29.4839227  55.8565171  39.9910365
  29.1457738  55.7406236  39.1030900  30.3528995  55.4556336  39.9711371
  25.3426042  57.7100648  35.9807256  24.7790908  57.6190584  35.2123543
  25.2278437  56.8900552  36.4609748  29.9659010  57.0100023  45.9496570
  29.9547650  56.6152821  45.0777074  30.1279649  56.2766095  46.5430342
  22.8890474  59.2051839  38.8191476  23.6811766  58.8642664  38.4037775
  23.1287124  59.3146814  39.7393629  30.9225601  61.3771615  31.2921721
  30.2713581  61.9625696  30.9055734  31.7169964  61.9077810  31.3516758
  24.8481228  58.4660752  31.6908855  25.6212104  57.9189739  31.5521731
  25.2006627  59.3305002  31.9023316  26.6866271  59.7937135  44.8975754
  26.3956137  60.6982765  44.7822420  27.3223255  59.8353662  45.6119824
  27.6122478  57.1713983  41.4877114  28.2086050  56.9470006  40.7734077
  27.6697449  56.4298729  42.0902562  27.1847506  54.6253418  29.3227305
  27.4373027  54.1034940  28.5610768  26.2472065  54.4619564  29.4253988
  32.2290789  53.6289197  37.1302048  33.0153878  53.2108620  36.7792465
  32.4929493  54.5335289  37.2983696  32.4000866  59.0662047  31.8290705
  31.7646699  59.1396674  32.5411609  32.0698273  59.6555646  31.1509784
  37.6299216  53.5664430  38.0335027  38.3624388  52.9963647  38.2672856
  36.8738572  53.1786031  38.4741532  26.9043795  56.5281524  31.5251680
  26.7880053  55.8526428  32.1932764  27.0146055  56.0413898  30.7083833
  29.2475336  55.9891672  35.2298369  28.8833543  55.4622293  35.9411290
  30.1042452  55.5990141  35.0564854  35.1524636  47.2786004  42.4929635
  34.8207961  48.1481415  42.2690850  34.5570250  46.9622288  43.1723666
  28.8880823  51.0181571  30.2259717  29.0555225  51.8861808  30.5930189
  28.6977992  51.1808853  29.3021007  31.6456156  59.4798550  41.8925548
  31.3456879  60.3823589  41.7841355  31.3007215  59.2130733  42.7446701
  25.0968637  55.9312347  37.9262252  24.1719134  55.7988561  38.1339944
  25.3453051  56.7106566  38.4232195  35.0453300  51.9981090  39.5722985
  34.1370177  51.9296499  39.2781746  34.9940895  52.4753035  40.4004811
  28.8670044  53.4739229  31.2106384  28.7469669  53.9196280  32.0491865
  28.1722632  53.8224546  30.6519922  22.4577448  55.5745621  38.7606041
  22.5869830  55.8280099  39.6745453  21.7774900  56.1673329  38.4410696
  26.6276936  66.2442871  34.8596516  26.5500965  67.1950696  34.9384996
  26.0238579  65.8988743  35.5171442  29.1194165  53.4170736  47.5157882
  28.3427500  53.9764656  47.5060747  29.7584729  53.9027519  48.0372753
  36.9114946  50.1997529  41.3500859  36.2689326  50.4930062  40.7040654
  36.4069875  50.0850449  42.1554056  34.5655110  53.9460702  32.0386718
  35.4772966  54.1788089  31.8634416  34.0564757  54.5297746  31.4761797
  27.3740538  56.2256189  47.0775849  28.1155222  56.7641233  46.8010673
  26.6677523  56.8522478  47.2347401  32.8495877  58.3685330  45.6748011
  33.2579233  57.9267740  44.9302643  32.1273139  57.7937957  45.9282204
  29.2026947  53.3057937  43.0481568  30.0488143  53.7297350  43.1916217
  29.1425585  52.6491561  43.7420131  33.1724692  58.9286520  39.4300300
  32.5433555  59.0932235  38.7276368  32.7850354  59.3428130  40.2011264
  37.0513924  59.8640958  36.7844664  36.3664962  60.2439860  36.2341697
  37.1357773  60.4736285  37.5176611  32.3526393  50.9662305  44.7062742
  32.1087325  51.7204365  44.1697017  32.6286323  51.3447652  45.5409989
  34.3064856  57.5100917  43.3840007  34.5181751  58.1532677  42.7074388
  34.2594604  56.6763234  42.9161937  31.9091085  50.1218738  40.2876579
  31.0475564  50.4199991  40.5793317  31.9353519  50.3389137  39.3557612
  28.7252654  58.6660928  36.6950385  29.1890999  58.9448631  35.9055007
  28.4609452  57.7644373  36.5123476  25.6176735  58.2132410  39.6330148
  26.1878092  58.6419678  38.9947633  26.2084847  57.9314995  40.3314334
  27.6621540  54.7884081  33.5039950  28.3645583  55.2405125  33.9713876
  27.3302168  54.1467900  34.1319843  26.1101902  53.3795837  47.8791159
  25.4800562  54.0612118  48.1126556  26.0037989  53.2678919  46.9344298
  21.4046874  53.0467633  38.8057084  20.6145928  53.3025162  38.3297194
  21.8958121  53.8615971  38.9109124  35.4210684  60.3872873  41.5562364
  36.2428127  59.9853060  41.2745046  35.4173086  60.2841107  42.5078480
  23.3561619  53.4112213  35.7640560  22.5592783  53.5230907  36.2824056
  23.1287212  53.7498865  34.8981451  29.1867287  59.9356916  43.7123075
  29.2511719  60.3977323  44.5481247  28.4778211  59.3054281  43.8405385
  19.6884577  53.2998124  41.2372074  19.9392615  54.1845134  41.5029650
  20.2244125  53.1202725  40.4647166  43.5116677  56.7311621  37.9047336
  42.7580385  56.1619019  37.7491340  43.6464218  56.6974286  38.8517971
  28.9015305  61.6025023  33.5802055  28.7660979  62.4476559  34.0086903
  29.4425117  61.8044301  32.8167989  25.3882644  47.6816603  50.2416410
  24.9949590  47.1282802  50.9164055  26.2048785  47.9927182  50.6322928
  22.3544702  59.1200461  34.1529980  22.8669223  59.9143712  34.3035545
  23.0067415  58.4226752  34.0863582  24.1639587  62.2366218  36.2352734
  24.3406215  63.1584182  36.0473717  24.9596420  61.9224637  36.6647113
  28.3050605  49.0974482  47.8336667  29.0460319  49.6981636  47.7541130
  28.5368528  48.3552120  47.2754710  23.4491943  54.2830850  46.1114897
  23.3345458  53.3816107  46.4121996  22.5936461  54.5294546  45.7599713
  30.5283781  62.2248590  47.7102397  30.0847635  61.4384969  47.3923302
  31.1900995  62.4127740  47.0446288  25.2870902  63.7544392  42.2363076
  25.8378327  63.6261455  41.4640070  24.4482378  64.0539281  41.8857969
  32.6265019  62.5051390  45.7383799  32.6083494  63.3260271  45.2464068
  33.5484939  62.3805465  45.9633940  29.0838073  60.0195519  46.5807307
  29.6166410  59.2583808  46.3506615  28.5552154  59.7269171  47.3231461
  32.2507768  45.1255585  42.1100949  31.9072038  46.0157227  42.0340059
  32.6186731  44.9357243  41.2470534  20.3193619  57.4489116  34.9289551
  21.1568841  57.8586124  34.7123259  20.4971886  56.5088558  34.8989745
  32.2158051  55.1164196  30.6173384  31.7004674  55.8868801  30.8561771
  31.9435359  54.4429333  31.2406445  29.8005162  49.9613897  35.6758622
  28.9446758  49.5720748  35.4964261  30.2132114  50.0405858  34.8158408
  31.3304309  47.4960240  40.0750182  30.8269104  47.4590376  39.2617987
  31.6234915  48.4052983  40.1346839  27.5747194  47.5798970  39.0816364
  28.4400191  47.3841779  38.7222253  27.6424703  47.3509322  40.0085720
  37.1892325  57.8696551  32.5526557  36.4121768  57.5307711  32.1081719
  37.8683806  57.8749174  31.8781522  32.0044354  52.9891289  32.4433165
  31.6994490  53.3037438  33.2943308  32.9574796  53.0672708  32.4860498
  30.4490786  59.1481512  34.0926119  29.9212147  58.4134271  33.7799356
  29.9478289  59.9256188  33.8466087  35.4283632  57.3430532  39.2093165
  34.7707306  58.0329794  39.2973294  36.2324031  57.7326964  39.5527152
  25.1809514  49.8101178  36.4532731  25.7553265  49.5876360  35.7205923
  25.7680496  49.8789873  37.2061332  34.2389091  55.6974905  37.2597107
  34.7520972  56.3304897  37.7618817  34.8890315  55.0976101  36.8940467
  25.5079101  51.8405639  30.4728616  24.6716413  52.1780326  30.7937891
  25.3683870  51.7054619  29.5355753  27.4832181  46.6842427  35.1807800
  26.8296594  46.3691444  34.5564415  27.4412655  46.0618168  35.9067623
  28.5943386  56.9661722  27.0961092  27.6870448  56.7350976  27.2952241
  29.0914418  56.1699341  27.2835074  31.5011465  65.6759229  30.0157778
  30.8273164  65.9790926  30.6242736  31.8877287  66.4788310  29.6663235
  30.7169922  53.1724361  39.5055448  29.7992483  53.3939308  39.3477136
  31.1330065  53.2470671  38.6467155  31.5004969  54.5715776  34.6358128
  32.2476788  55.0837173  34.3265250  31.7696559  54.2499829  35.4962521
  29.7731620  57.0674317  31.6185082  28.8642839  56.7833350  31.7157552
  29.8026703  57.4873396  30.7588389  35.0050887  60.6780906  35.3876250
  34.5513214  59.8371816  35.4441440  34.3744854  61.3142305  35.7251030
  33.9483807  51.6072893  36.6176917  33.2106563  51.0950279  36.9487160
  34.2010580  51.1673274  35.8060194  33.4483826  62.5157403  36.3226068
  33.7406801  63.0762460  35.6038433  33.9582447  62.8085964  37.0779227
  34.0495434  44.3849145  37.2118686  34.3554311  43.5246508  36.9244602
  34.7748039  44.9766765  37.0117680  20.3419790  54.7879831  35.6000284
  20.1444190  54.1949192  34.8751351  19.7866454  54.4832041  36.3176223
  28.3216514  54.6802938  37.7194877  28.3765123  53.7276774  37.6437354
  27.5107716  54.8362377  38.2036176  29.4707707  58.6083061  28.9573161
  29.0327137  57.8918920  28.4978798  30.2118148  58.8359175  28.3958252
  26.2608873  53.2979997  35.4785256  25.4476739  53.5974168  35.8850448
  26.7567868  52.9035686  36.1959739  28.4117451  63.2937754  37.4119521
  28.3693630  63.5198601  36.4828053  29.3280150  63.0601129  37.5605322
  31.8583085  53.7621822  44.3100150  32.2132473  53.9893295  45.1694616
  32.5055216  54.0940199  43.6877406  37.5880822  56.8840258  35.0149479
  37.4498721  57.0741854  34.0870669  37.2317041  57.6459641  35.4717530
  25.7522948  50.8698353  41.0946491  26.3922328  50.7287112  40.3969455
  24.9200479  50.5832866  40.7185093  37.6150202  58.9516785  40.0260751
  38.0486708  58.8592074  40.8743805  38.3281782  58.9274285  39.3880767
  26.5283252  60.1700783  37.2081484  27.3223851  59.6751103  37.0064059
  25.8174945  59.6418646  36.8449189  31.3478097  62.5518879  41.5593851
  31.4015119  63.1209815  42.3271567  30.4792878  62.7220764  41.1947889
  22.8366016  54.3143865  33.2841236  21.9063604  54.2528321  33.5011199
  22.9323488  53.7919818  32.4877878  22.7551565  50.8398678  35.8719478
  23.0158382  51.7544011  35.7628639  23.5768737  50.3723120  36.0216091
  24.2276490  52.2536435  43.0418303  24.8999543  52.0453797  42.3930952
  23.4006277  52.0558521  42.6023535  38.4765751  58.9940485  42.5593636
  38.6701641  59.8986296  42.8052911  38.3766369  58.5347904  43.3932221
  30.1302062  48.8798376  45.0583964  29.4829977  49.5788326  44.9648440
  30.9003077  49.3134520  45.4260212  33.5380860  59.1447228  48.1334517
  33.3866366  58.9157780  47.2164600  33.5285539  60.1017830  48.1465862
  30.3066196  56.7179141  43.1180783  31.2358256  56.8690300  42.9449751
  29.8857226  56.8063162  42.2629430  29.1054528  60.7429805  40.8879321
  28.9665614  60.3748590  41.7605259  28.3169124  61.2577445  40.7163279
  29.7002680  65.8438902  32.2304857  29.8754436  65.3726945  33.0450480
  29.0135468  66.4704668  32.4586118  30.6559743  60.1211408  38.2768159
  30.3209576  60.0812178  39.1725809  30.1563689  59.4556124  37.8038569
  24.6303987  55.5279038  43.8020740  24.4923785  54.7959277  44.4032279
  25.5408911  55.4387938  43.5204928  33.5918935  57.4667442  28.5505218
  32.9748106  56.7414270  28.4538271  33.1235423  58.2276803  28.2072293
  27.2586288  55.2398997  43.2904419  27.9685906  54.5992190  43.2491038
  27.2155596  55.4911892  44.2130600  35.2473067  62.1766351  46.2110999
  35.1885613  61.4925571  45.5441582  35.6492585  62.9185341  45.7591625
  25.9715222  52.2264215  45.1100059  25.4352579  51.7754954  45.7621655
  25.3831930  52.3610124  44.3670523  24.2663765  68.9928265  39.0044718
  24.5060364  69.6246789  39.6823736  23.4232962  68.6416305  39.2910077
  25.3817481  51.6852867  27.6726523  24.5046947  51.5641667  27.3088769
  25.8575234  50.8938945  27.4205411  35.2490474  60.1405935  44.4424978
  34.3617253  59.8031856  44.5651377  35.8189025  59.4088966  44.6793744
  16.9019621  56.4730026  37.7668030  17.5890661  56.1591756  37.1789045
  16.7467750  57.3771391  37.4935281  21.7054343  51.3620223  42.1953053
  21.6212532  50.7545892  41.4603463  20.8837050  51.8529241  42.1962550
  28.7791627  64.8007387  41.4086222  28.7061799  65.6062358  41.9205526
  28.3369020  64.9999353  40.5834243  28.5681407  64.0379157  34.9189043
  27.7848929  64.5800837  35.0127268  29.2674152  64.5553137  35.3183284
  31.8778057  49.8473786  37.5623248  32.3746757  49.0943749  37.2424319
  31.1065039  49.8838103  36.9966458  39.7307814  55.5514152  39.2041540
  39.7197691  56.4338867  38.8335473  38.8625194  55.1985703  39.0096077
  31.2390311  64.6994221  43.5644380  31.9518283  65.3341686  43.4920282
  30.7480339  64.7958087  42.7484382  32.9607838  58.6045474  35.1361672
  32.0264116  58.7246936  34.9666376  33.1384506  57.7017940  34.8721682
  28.4613026  51.9891169  37.2894933  28.0910813  51.4362210  37.9775839
  28.9572118  51.3849303  36.7369933  36.3480389  54.4462793  35.6711706
  36.8140841  55.2790785  35.5972009  36.7987890  53.9807775  36.3756965
  26.2902224  62.4488664  44.3849951  26.9911684  63.0825147  44.5379345
  25.8197339  62.7903396  43.6245590  34.4156620  60.7906614  32.6697858
  34.6916464  60.6763209  33.5791732  33.5461119  60.3924099  32.6310031
  34.3197052  46.8143380  39.7102607  33.4060132  47.0447607  39.8784814
  34.7490153  46.8981824  40.5616640  34.0903510  55.0033272  42.2102501
  33.4374961  55.2509179  41.5554954  34.4683890  54.1897410  41.8764979
  31.0510684  65.0392965  36.3130672  31.2333079  64.2214621  36.7758424
  31.8743670  65.2560657  35.8755562  31.3852850  63.9661150  33.5745720
  31.9140616  63.4553605  32.9615882  31.6481069  63.6503680  34.4391253
  30.1391083  55.7453083  48.6968538  29.4631720  55.6447212  49.3670914
  30.9618717  55.5892297  49.1604536  21.8869942  61.9825019  41.3181054
  22.4723379  61.2368707  41.4508958  21.6894781  62.2928976  42.2017718
  24.7408598  65.0176267  36.3343496  24.0718973  65.5022395  35.8507536
  24.6021467  65.2645487  37.2486875  16.4787597  54.5530620  40.0385497
  16.5171697  54.0194210  40.8322615  15.9727890  54.0265825  39.4196474
  28.8813866  67.0520010  42.9326154  29.4332174  67.2151632  43.6975240
  29.2220060  67.6424448  42.2606179  23.8578359  49.3995160  43.5348039
  23.9219686  50.2609991  43.1225437  23.7945480  48.7869162  42.8020398
  23.3330632  51.4718293  47.1821073  23.9602671  51.0895370  47.7958598
  22.4758551  51.2532495  47.5476766  33.7324741  61.8781268  48.7874809
  34.2764645  62.4911226  48.2929764  33.1511585  62.4360846  49.3041822
  20.1096175  53.2794722  33.1139428  20.4049616  52.3705400  33.0606482
  19.2084210  53.2582461  32.7920431  32.0182253  65.0001986  39.9189837
  31.8933393  64.1991726  39.4100782  32.6761345  65.4948179  39.4303807
  23.6390422  51.3550718  39.0966977  22.9177007  51.9686686  38.9574450
  24.4283677  51.8908483  39.0183623  34.0817162  62.8011006  41.5469387
  33.1347497  62.6816357  41.4747713  34.4299935  61.9133504  41.6295648
  26.4416735  48.6905145  45.3707629  26.9651137  48.9367441  46.1333938
  26.2229069  49.5225180  44.9510766  21.8384016  50.9608820  33.2378753
  21.5096722  50.0806198  33.0553859  22.1923387  50.9056488  34.1255143
  31.0863595  62.5963722  37.7473739  30.9388558  61.6680430  37.9281309
  31.9117089  62.6183813  37.2630814  24.9525839  51.2481789  33.6054231
  25.2921912  51.7767711  32.8832839  25.3997960  51.5862195  34.3812798
  34.6897717  63.4192281  38.8338612  35.6144264  63.2135142  38.6963063
  34.5213020  63.1708682  39.7427953  27.6469280  49.6318840  43.0557299
  27.3066101  48.8326653  43.4577979  26.9408287  49.9320551  42.4834132
  28.2985752  46.7168152  41.5084622  29.1211821  46.2428631  41.3863512
  28.5423816  47.4958636  42.0083308  26.9393987  49.7456411  31.8047524
  27.6602349  50.1237664  31.3011241  26.3159291  50.4645288  31.9082502
  31.0825109  50.4501560  32.7405856  31.2988724  51.3326198  32.4394684
  30.6019177  50.0587773  32.0111498  25.8224331  53.4087273  39.3176601
  25.6768912  53.7227576  40.2100882  25.3449534  54.0272173  38.7647499
  27.6820714  50.3989821  39.3657490  27.6682282  49.5030914  39.0289788
  28.3993142  50.4060485  39.9995776  29.5346844  50.8327161  41.4110618
  29.2764622  51.7544232  41.4094948  29.0031885  50.4357596  42.1011082
  34.4793033  63.9377948  34.1900703  34.6529911  63.3724371  33.4374556
  34.9721924  64.7378843  34.0080193  20.2969993  55.9492617  42.2564262
  19.7523461  56.7252425  42.3884536  21.1749343  56.2963422  42.0983383
  27.0857610  49.2804201  34.6345060  27.2073521  48.3520848  34.8335948
  26.7959652  49.2942887  33.7223376  29.9548800  46.9659112  37.7711780
  29.9770497  47.0298445  36.8163760  30.3716859  46.1263620  37.9652286
  40.3332424  56.7014371  35.8091003  40.7763570  55.9521697  35.4110126
  39.4558935  56.6924508  35.4264735  35.4668206  63.2544713  31.2897601
  36.1619110  63.8751405  31.5084916  35.8091356  62.4040064  31.5649979
  21.0836015  55.0762514  45.1494419  20.3417751  55.2245149  45.7359049
  20.7628759  55.3370779  44.2861168  37.3659629  60.7044418  32.8184932
  37.8910953  61.0431691  32.0934252  37.2781981  59.7691434  32.6348067
  29.0279678  64.6178492  44.9474809  29.3366804  64.3727639  45.8197508
  29.8255160  64.8225130  44.4593679  29.0500290  66.7716402  37.1780185
  28.6105280  66.2792780  37.8713042  29.8008407  66.2289369  36.9372261
  21.5292629  62.9627942  37.1804813  22.3550648  62.6631714  36.8003457
  21.1786681  62.1935565  37.6294602  26.4974162  62.3154411  39.2502487
  25.8754171  61.6525116  38.9504715  27.1679029  62.3415543  38.5676135
  19.7301234  60.8814269  38.1393747  18.8933142  60.4536443  37.9577748
  19.7024879  61.0746712  39.0764538  26.5698689  50.7936199  48.8434993
  26.6186845  51.6698322  48.4612763  27.1121203  50.2513592  48.2706636
  37.0553535  61.3377322  48.1236130  36.2649079  61.3201461  47.5840630
  36.8186889  61.8765616  48.8785167  37.1751410  58.1869788  45.4368859
  37.2249415  58.0219796  46.3784381  37.0665333  57.3197047  45.0466739
  26.0587669  60.8658334  32.7260948  26.2075789  61.5493798  32.0727620
  26.8654112  60.8463424  33.2410403  34.4655172  54.1700716  46.7528165
  35.3665035  54.0307181  46.4612163  34.5403147  54.3355171  47.6926343
  28.7997978  51.5467571  45.5981352  27.9301287  51.8401137  45.3263940
  29.0357458  52.1308016  46.3188615  38.6769607  60.6066730  45.6810880
  38.3854415  60.9696710  46.5174341  38.0641738  59.8933738  45.5024212
  39.8765289  58.1719610  38.2013450  40.7112180  58.6109414  38.3651011
  40.0124418  57.6958263  37.3821696  36.9256795  55.7299344  44.1490938
  37.4010917  55.9226991  43.3409790  36.0022360  55.7858530  43.9034322
  23.8140302  56.8923512  33.7322016  23.5686344  55.9885842  33.9302227
  23.9836216  56.8940662  32.7901494  31.5037011  47.7647188  43.1146772
  32.0218955  48.5008215  42.7893261  31.1492144  48.0711181  43.9493531
  23.0835949  52.6251869  31.2308178  22.3905194  52.6996224  30.5748214
  22.8387701  51.8612213  31.7529695  31.7549606  44.1847471  38.6347669
  32.0351359  43.5170660  39.2608095  32.5400213  44.3776566  38.1222333
  29.5583074  63.3606464  30.1972695  28.9857041  63.9796652  29.7443167
  30.1315868  63.9105826  30.7312617  35.6258464  52.6065105  42.3819244
  36.5775887  52.7063202  42.4031468  35.4561914  51.8143373  42.8917328
  33.6472843  49.6920688  42.5678645  33.0522776  49.9725701  41.8725133
  33.3622540  50.1814589  43.3395386  32.7780334  63.6443615  31.3281277
  33.7111007  63.5789176  31.5314153  32.6903547  64.4799881  30.8695810
  35.4068351  62.9609485  28.2885225  35.3281982  62.6269349  29.1820983
  36.2278017  63.4531253  28.2876697  38.1046542  55.8271224  41.4961543
  38.0722862  54.8887225  41.6821227  38.7147165  55.9055261  40.7627368
  29.9429873  54.6967277  27.5388747  30.8888977  54.5673485  27.6077166
  29.5644118  53.9581939  28.0158176  38.2541030  52.6182268  41.5419827
  37.7380079  51.8340724  41.3549756  39.1380979  52.2900984  41.7066346
  35.9151757  46.3623283  37.5015639  35.7176578  46.0538371  38.3858971
  36.5251463  47.0884922  37.6313569  43.9223092  56.8887231  40.6367580
  44.6526480  56.6272519  41.1975284  43.3130037  56.1515953  40.6769648
  42.0038389  55.0295094  41.2342031  41.2771552  54.8951059  40.6258523
  41.5885676  55.3371922  42.0398749  29.8268565  58.7485023  48.9989404
  30.7471575  58.9263622  49.1929451  29.7918148  57.8041069  48.8469104
  28.1272790  52.6217254  27.4743633  27.2204245  52.3250366  27.5506346
  28.4048771  52.3247072  26.6077919  19.0450730  53.9423617  37.9242679
  18.7253515  53.0888925  37.6317053  18.4984158  54.1572195  38.6800646
  22.8230638  56.6586058  41.6412186  23.0416648  57.5903166  41.6600219
  23.2356412  56.2994032  42.4266989  29.7434856  47.1654143  33.6287874
  28.9335584  46.8201228  34.0043120  30.4319272  46.8561687  34.2175486
  31.6725404  46.2432190  35.2512171  32.2256442  46.6627644  35.9102194
  31.9095490  45.3167938  35.2935127  27.6958503  52.2319264  51.0314935
  27.5955230  53.1813621  50.9627026  27.4780045  51.9037503  50.1591005
  26.8971574  49.4804189  27.6155612  27.7590738  49.8059087  27.8751429
  27.0821919  48.6935685  27.1028678  18.9138990  57.5626529  39.8935801
  18.2202462  57.1480481  39.3805755  19.6611981  57.6047065  39.2969220
  35.0504211  48.3532715  34.7590835  34.4702880  49.0117519  34.3768887
  34.7840144  47.5310060  34.3478252  33.5007777  47.7537773  36.9612155
  34.0007556  47.8654308  36.1526474  34.1443385  47.4498826  37.6012964
  27.5589773  55.6616403  49.8479996  27.0756855  56.4616763  50.0543885
  27.6450712  55.6724348  48.8947440  20.8275733  57.4944782  37.7701816
  20.8046421  57.5932470  36.8183699  21.1376369  58.3409933  38.0918982
  23.4863111  59.5520937  41.8848430  24.4406364  59.5204880  41.8178362
  23.2875634  59.0911561  42.6998656  24.0762493  58.1222053  44.4519228
  24.8955382  58.6166132  44.4754065  24.3499300  57.2054022  44.4236795
  33.8329089  50.5132806  33.8147183  32.9454944  50.7982456  33.5967378
  34.2483078  50.3526569  32.9674460  37.1843625  50.5379327  37.5301522
  37.9604015  51.0275779  37.8026139  36.4591759  50.9637381  37.9873392
  39.6216184  51.2506946  38.5875463  40.2160674  51.0102682  37.8768771
  39.6942767  50.5314076  39.2148999  21.8413339  65.0940557  38.9018628
  21.7067807  64.3340958  38.3356626  21.4245402  65.8181457  38.4347417
  32.9772302  60.2777480  27.9095203  33.6808153  60.4827483  28.5252859
  32.2534951  60.8454242  28.1744287  33.8070113  56.0287342  34.0297473
  33.7505314  56.4855893  33.1905106  34.3598455  55.2678026  33.8520316
  37.6174919  51.8177073  34.8547593  37.3611853  51.4173709  35.6855801
  36.9927787  52.5320867  34.7297732  41.9287256  54.5573147  37.3618884
  41.3686814  54.6266336  38.1350446  41.3230760  54.3814131  36.6418380
  24.9982465  65.9909874  39.1137071  24.8814849  66.9355306  39.0115761
  24.1774912  65.6883435  39.5022870  34.8859000  60.7160010  29.9593663
  35.7204604  60.2841208  29.7771138  34.7243343  60.5442023  30.8870558
  34.5404892  57.2192123  31.3250003  34.4853696  57.0536394  30.3838447
  33.9150947  57.9268156  31.4812192  19.3297407  52.4560187  45.1511425
  19.9756271  51.9459141  45.6398650  19.1214558  53.1928869  45.7254850
  31.8550799  59.5241035  50.6503565  32.7241959  59.6981687  50.2890200
  31.3757551  60.3435452  50.5279295  27.8501017  46.7200232  30.9035321
  27.8379687  47.6642072  31.0603592  28.7424439  46.5370377  30.6094782
  26.0236979  66.6438136  42.3292999  26.9264226  66.6761746  42.6459494
  25.7974349  65.7138587  42.3439335  27.7790581  65.3969122  38.9903078
  26.8286212  65.3970984  38.8767450  28.0823068  64.6501857  38.4739112
  31.6653137  43.3143009  35.1581258  30.8985533  42.7601495  35.3037940
  32.0763842  43.3864877  36.0195409  23.6694898  49.6027804  49.2486439
  24.5326360  49.2464609  49.4589764  23.0960309  49.2641699  49.9361843
  43.5143275  71.2329661  40.0548840  44.1521685  71.1136408  39.3512180
  43.3964118  72.1810505  40.1136792  40.3232981  71.1857089  39.9910365
  39.9851493  71.0698153  39.1030900  41.1922749  70.7848254  39.9711371
  36.1819797  73.0392565  35.9807256  35.6184662  72.9482502  35.2123543
  36.0672192  72.2192470  36.4609748  40.8052764  72.3391941  45.9496570
  40.7941405  71.9444739  45.0777074  40.9673404  71.6058013  46.5430342
  33.7284229  74.5343757  38.8191476  34.5205521  74.1934581  38.4037775
  33.9680879  74.6438732  39.7393629  41.7619356  76.7063533  31.2921721
  41.1107335  77.2917613  30.9055734  42.5563718  77.2369728  31.3516758
  35.6874983  73.7952670  31.6908855  36.4605859  73.2481657  31.5521731
  36.0400382  74.6596919  31.9023316  37.5260025  75.1229052  44.8975754
  37.2349891  76.0274683  44.7822420  38.1617010  75.1645580  45.6119824
  38.4516232  72.5005901  41.4877114  39.0479804  72.2761923  40.7734077
  38.5091204  71.7590646  42.0902562  38.0241261  69.9545336  29.3227305
  38.2766781  69.4326857  28.5610768  37.0865820  69.7911482  29.4253988
  43.0684543  68.9581115  37.1302048  43.8547633  68.5400538  36.7792465
  43.3323248  69.8627207  37.2983696  43.2394621  74.3953965  31.8290705
  42.6040454  74.4688591  32.5411609  42.9092027  74.9847564  31.1509784
  48.4692971  68.8956348  38.0335027  49.2018142  68.3255565  38.2672856
  47.7132326  68.5077948  38.4741532  37.7437549  71.8573442  31.5251680
  37.6273807  71.1818346  32.1932764  37.8539809  71.3705816  30.7083833
  40.0869090  71.3183589  35.2298369  39.7227297  70.7914210  35.9411290
  40.9436206  70.9282058  35.0564854  45.9918391  62.6077922  42.4929635
  45.6601716  63.4773333  42.2690850  45.3964004  62.2914206  43.1723666
  39.7274577  66.3473489  30.2259717  39.8948980  67.2153725  30.5930189
  39.5371746  66.5100771  29.3021007  42.4849910  74.8090468  41.8925548
  42.1850633  75.7115507  41.7841355  42.1400970  74.5422651  42.7446701
  35.9362392  71.2604265  37.9262252  35.0112888  71.1280479  38.1339944
  36.1846805  72.0398484  38.4232195  45.8847054  67.3273008  39.5722985
  44.9763932  67.2588416  39.2781746  45.8334650  67.8044953  40.4004811
  39.7063798  68.8031146  31.2106384  39.5863423  69.2488197  32.0491865
  39.0116386  69.1516464  30.6519922  33.2971203  70.9037538  38.7606041
  33.4263584  71.1572017  39.6745453  32.6168654  71.4965246  38.4410696
  37.4670690  81.5734788  34.8596516  37.3894720  82.5242613  34.9384996
  36.8632334  81.2280661  35.5171442  39.9587920  68.7462654  47.5157882
  39.1821254  69.3056574  47.5060747  40.5978483  69.2319437  48.0372753
  47.7508701  65.5289446  41.3500859  47.1083081  65.8221980  40.7040654
  47.2463629  65.4142367  42.1554056  45.4048864  69.2752620  32.0386718
  46.3166720  69.5080006  31.8634416  44.8958511  69.8589664  31.4761797
  38.2134292  71.5548107  47.0775849  38.9548977  72.0933151  46.8010673
  37.5071278  72.1814396  47.2347401  43.6889632  73.6977247  45.6748011
  44.0972988  73.2559658  44.9302643  42.9666893  73.1229875  45.9282204
  40.0420702  68.6349854  43.0481568  40.8881897  69.0589268  43.1916217
  39.9819340  67.9783479  43.7420131  44.0118447  74.2578438  39.4300300
  43.3827309  74.4224152  38.7276368  43.6244109  74.6720048  40.2011264
  47.8907678  75.1932876  36.7844664  47.2058717  75.5731777  36.2341697
  47.9751528  75.8028203  37.5176611  43.1920147  66.2954223  44.7062742
  42.9481079  67.0496283  44.1697017  43.4680078  66.6739570  45.5409989
  45.1458610  72.8392835  43.3840007  45.3575505  73.4824595  42.7074388
  45.0988358  72.0055151  42.9161937  42.7484839  65.4510656  40.2876579
  41.8869318  65.7491909  40.5793317  42.7747274  65.6681054  39.3557612
  39.5646408  73.9952846  36.6950385  40.0284754  74.2740549  35.9055007
  39.3003207  73.0936291  36.5123476  36.4570489  73.5424328  39.6330148
  37.0271847  73.9711596  38.9947633  37.0478601  73.2606912  40.3314334
  38.5015294  70.1175999  33.5039950  39.2039338  70.5697042  33.9713876
  38.1695923  69.4759817  34.1319843  36.9495656  68.7087755  47.8791159
  36.3194317  69.3904036  48.1126556  36.8431744  68.5970837  46.9344298
  32.2440628  68.3759551  38.8057084  31.4539682  68.6317080  38.3297194
  32.7351876  69.1907889  38.9109124  46.2604438  75.7164790  41.5562364
  47.0821882  75.3144978  41.2745046  46.2566841  75.6133025  42.5078480
  34.1955374  68.7404130  35.7640560  33.3986537  68.8522825  36.2824056
  33.9680966  69.0790783  34.8981451  40.0261041  75.2648834  43.7123075
  40.0905474  75.7269241  44.5481247  39.3171965  74.6346199  43.8405385
  30.5278331  68.6290042  41.2372074  30.7786370  69.5137052  41.5029650
  31.0637880  68.4494643  40.4647166  54.3510431  72.0603539  37.9047336
  53.5974139  71.4910937  37.7491340  54.4857972  72.0266203  38.8517971
  39.7409059  76.9316941  33.5802055  39.6054734  77.7768477  34.0086903
  40.2818872  77.1336219  32.8167989  36.2276399  63.0108521  50.2416410
  35.8343344  62.4574720  50.9164055  37.0442539  63.3219099  50.6322928
  33.1938456  74.4492379  34.1529980  33.7062977  75.2435629  34.3035545
  33.8461169  73.7518670  34.0863582  35.0033341  77.5658135  36.2352734
  35.1799970  78.4876100  36.0473717  35.7990175  77.2516555  36.6647113
  39.1444360  64.4266400  47.8336667  39.8854073  65.0273553  47.7541130
  39.3762283  63.6844038  47.2754710  34.2885698  69.6122767  46.1114897
  34.1739213  68.7108025  46.4121996  33.4330215  69.8586464  45.7599713
  41.3677535  77.5540508  47.7102397  40.9241390  76.7676886  47.3923302
  42.0294749  77.7419658  47.0446288  36.1264657  79.0836309  42.2363076
  36.6772082  78.9553373  41.4640070  35.2876133  79.3831198  41.8857969
  43.4658774  77.8343308  45.7383799  43.4477249  78.6552189  45.2464068
  44.3878694  77.7097383  45.9633940  39.9231828  75.3487437  46.5807307
  40.4560165  74.5875725  46.3506615  39.3945909  75.0561089  47.3231461
  43.0901523  60.4547503  42.1100949  42.7465792  61.3449145  42.0340059
  43.4580485  60.2649161  41.2470534  31.1587373  72.7781033  34.9289551
  31.9962595  73.1878042  34.7123259  31.3365641  71.8380476  34.8989745
  43.0551805  70.4456114  30.6173384  42.5398429  71.2160719  30.8561771
  42.7829114  69.7721250  31.2406445  40.6398916  65.2905815  35.6758622
  39.7840513  64.9012665  35.4964261  41.0525868  65.3697776  34.8158408
  42.1698063  62.8252158  40.0750182  41.6662859  62.7882293  39.2617987
  42.4628670  63.7344901  40.1346839  38.4140949  62.9090888  39.0816364
  39.2793946  62.7133697  38.7222253  38.4818458  62.6801240  40.0085720
  48.0286080  73.1988469  32.5526557  47.2515522  72.8599628  32.1081719
  48.7077560  73.2041092  31.8781522  42.8438109  68.3183206  32.4433165
  42.5388244  68.6329355  33.2943308  43.7968551  68.3964626  32.4860498
  41.2884540  74.4773430  34.0926119  40.7605902  73.7426189  33.7799356
  40.7872043  75.2548106  33.8466087  46.2677386  72.6722450  39.2093165
  45.6101061  73.3621711  39.2973294  47.0717786  73.0618882  39.5527152
  36.0203268  65.1393096  36.4532731  36.5947020  64.9168277  35.7205923
  36.6074250  65.2081790  37.2061332  45.0782845  71.0266823  37.2597107
  45.5914727  71.6596815  37.7618817  45.7284069  70.4268018  36.8940467
  36.3472855  67.1697557  30.4728616  35.5110167  67.5072243  30.7937891
  36.2077625  67.0346537  29.5355753  38.3225936  62.0134345  35.1807800
  37.6690348  61.6983362  34.5564415  38.2806410  61.3910085  35.9067623
  39.4337141  72.2953640  27.0961092  38.5264202  72.0642893  27.2952241
  39.9308173  71.4991259  27.2835074  42.3405219  81.0051147  30.0157778
  41.6666918  81.3082844  30.6242736  42.7271041  81.8080227  29.6663235
  41.5563676  68.5016278  39.5055448  40.6386237  68.7231225  39.3477136
  41.9723820  68.5762589  38.6467155  42.3398724  69.9007694  34.6358128
  43.0870543  70.4129091  34.3265250  42.6090313  69.5791747  35.4962521
  40.6125374  72.3966235  31.6185082  39.7036593  72.1125267  31.7157552
  40.6420458  72.8165313  30.7588389  45.8444641  76.0072824  35.3876250
  45.3906969  75.1663734  35.4441440  45.2138608  76.6434223  35.7251030
  44.7877561  66.9364810  36.6176917  44.0500318  66.4242196  36.9487160
  45.0404335  66.4965192  35.8060194  44.2877581  77.8449321  36.3226068
  44.5800555  78.4054378  35.6038433  44.7976201  78.1377882  37.0779227
  44.8889188  59.7141062  37.2118686  45.1948065  58.8538426  36.9244602
  45.6141793  60.3058682  37.0117680  31.1813544  70.1171749  35.6000284
  30.9837944  69.5241109  34.8751351  30.6260208  69.8123959  36.3176223
  39.1610268  70.0094855  37.7194877  39.2158878  69.0568692  37.6437354
  38.3501470  70.1654294  38.2036176  40.3101462  73.9374978  28.9573161
  39.8720892  73.2210837  28.4978798  41.0511903  74.1651093  28.3958252
  37.1002628  68.6271915  35.4785256  36.2870494  68.9266086  35.8850448
  37.5961622  68.2327604  36.1959739  39.2511206  78.6229672  37.4119521
  39.2087385  78.8490518  36.4828053  40.1673905  78.3893047  37.5605322
  42.6976840  69.0913739  44.3100150  43.0526227  69.3185213  45.1694616
  43.3448971  69.4232116  43.6877406  48.4274577  72.2132175  35.0149479
  48.2892475  72.4033771  34.0870669  48.0710795  72.9751558  35.4717530
  36.5916703  66.1990271  41.0946491  37.2316082  66.0579030  40.3969455
  35.7594233  65.9124784  40.7185093  48.4543956  74.2808702  40.0260751
  48.8880463  74.1883991  40.8743805  49.1675537  74.2566203  39.3880767
  37.3677007  75.4992701  37.2081484  38.1617605  75.0043021  37.0064059
  36.6568699  74.9710564  36.8449189  42.1871851  77.8810796  41.5593851
  42.2408873  78.4501733  42.3271567  41.3186632  78.0512682  41.1947889
  33.6759770  69.6435783  33.2841236  32.7457358  69.5820238  33.5011199
  33.7717242  69.1211735  32.4877878  33.5945319  66.1690596  35.8719478
  33.8552136  67.0835929  35.7628639  34.4162491  65.7015038  36.0216091
  35.0670245  67.5828353  43.0418303  35.7393298  67.3745715  42.3930952
  34.2400031  67.3850439  42.6023535  49.3159506  74.3232403  42.5593636
  49.5095396  75.2278214  42.8052911  49.2160124  73.8639822  43.3932221
  40.9695817  64.2090294  45.0583964  40.3223732  64.9080243  44.9648440
  41.7396832  64.6426438  45.4260212  44.3774614  74.4739146  48.1334517
  44.2260121  74.2449697  47.2164600  44.3679294  75.4309747  48.1465862
  41.1459951  72.0471059  43.1180783  42.0752011  72.1982218  42.9449751
  40.7250981  72.1355079  42.2629430  39.9448283  76.0721723  40.8879321
  39.8059368  75.7040507  41.7605259  39.1562879  76.5869362  40.7163279
  40.5396435  81.1730819  32.2304857  40.7148190  80.7018863  33.0450480
  39.8529223  81.7996586  32.4586118  41.4953498  75.4503326  38.2768159
  41.1603330  75.4104096  39.1725809  40.9957443  74.7848042  37.8038569
  35.4697742  70.8570956  43.8020740  35.3317540  70.1251194  44.4032279
  36.3802665  70.7679856  43.5204928  44.4312689  72.7959360  28.5505218
  43.8141860  72.0706188  28.4538271  43.9629178  73.5568720  28.2072293
  38.0980042  70.5690915  43.2904419  38.8079661  69.9284107  43.2491038
  38.0549351  70.8203810  44.2130600  46.0866821  77.5058268  46.2110999
  46.0279367  76.8217488  45.5441582  46.4886339  78.2477258  45.7591625
  36.8108976  67.5556133  45.1100059  36.2746333  67.1046871  45.7621655
  36.2225685  67.6902042  44.3670523  35.1057520  84.3220182  39.0044718
  35.3454118  84.9538706  39.6823736  34.2626716  83.9708222  39.2910077
  36.2211235  67.0144784  27.6726523  35.3440702  66.8933585  27.3088769
  36.6968988  66.2230863  27.4205411  46.0884228  75.4697852  44.4424978
  45.2011007  75.1323774  44.5651377  46.6582779  74.7380884  44.6793744
  27.7413375  71.8021944  37.7668030  28.4284415  71.4883674  37.1789045
  27.5861504  72.7063309  37.4935281  32.5448098  66.6912141  42.1953053
  32.4606286  66.0837810  41.4603463  31.7230804  67.1821159  42.1962550
  39.6185382  80.1299305  41.4086222  39.5455553  80.9354276  41.9205526
  39.1762775  80.3291270  40.5834243  39.4075161  79.3671075  34.9189043
  38.6242683  79.9092755  35.0127268  40.1067907  79.8845054  35.3183284
  42.7171811  65.1765704  37.5623248  43.2140511  64.4235666  37.2424319
  41.9458793  65.2130021  36.9966458  50.5701569  70.8806070  39.2041540
  50.5591445  71.7630785  38.8335473  49.7018948  70.5277620  39.0096077
  42.0784065  80.0286139  43.5644380  42.7912037  80.6633603  43.4920282
  41.5874094  80.1250005  42.7484382  43.8001592  73.9337391  35.1361672
  42.8657871  74.0538854  34.9666376  43.9778261  73.0309858  34.8721682
  39.3006780  67.3183087  37.2894933  38.9304568  66.7654127  37.9775839
  39.7965873  66.7141221  36.7369933  47.1874144  69.7754711  35.6711706
  47.6534596  70.6082702  35.5972009  47.6381644  69.3099692  36.3756965
  37.1295979  77.7780582  44.3849951  37.8305438  78.4117065  44.5379345
  36.6591094  78.1195314  43.6245590  45.2550375  76.1198532  32.6697858
  45.5310219  76.0055126  33.5791732  44.3854873  75.7216017  32.6310031
  45.1590806  62.1435298  39.7102607  44.2453886  62.3739524  39.8784814
  45.5883908  62.2273742  40.5616640  44.9297265  70.3325190  42.2102501
  44.2768715  70.5801097  41.5554954  45.3077645  69.5189328  41.8764979
  41.8904439  80.3684883  36.3130672  42.0726833  79.5506539  36.7758424
  42.7137425  80.5852575  35.8755562  42.2246604  79.2953068  33.5745720
  42.7534371  78.7845522  32.9615882  42.4874824  78.9795598  34.4391253
  40.9784838  71.0745001  48.6968538  40.3025475  70.9739130  49.3670914
  41.8012472  70.9184214  49.1604536  32.7263697  77.3116937  41.3181054
  33.3117134  76.5660625  41.4508958  32.5288535  77.6220894  42.2017718
  35.5802352  80.3468185  36.3343496  34.9112727  80.8314312  35.8507536
  35.4415222  80.5937405  37.2486875  27.3181352  69.8822537  40.0385497
  27.3565451  69.3486128  40.8322615  26.8121644  69.3557743  39.4196474
  39.7207621  82.3811928  42.9326154  40.2725929  82.5443550  43.6975240
  40.0613814  82.9716366  42.2606179  34.6972114  64.7287078  43.5348039
  34.7613440  65.5901909  43.1225437  34.6339234  64.1161080  42.8020398
  34.1724386  66.8010210  47.1821073  34.7996425  66.4187288  47.7958598
  33.3152305  66.5824412  47.5476766  44.5718495  77.2073186  48.7874809
  45.1158399  77.8203144  48.2929764  43.9905340  77.7652764  49.3041822
  30.9489929  68.6086640  33.1139428  31.2443370  67.6997318  33.0606482
  30.0477965  68.5874379  32.7920431  42.8576008  80.3293904  39.9189837
  42.7327147  79.5283643  39.4100782  43.5155099  80.8240097  39.4303807
  34.4784176  66.6842636  39.0966977  33.7570762  67.2978604  38.9574450
  35.2677432  67.2200401  39.0183623  44.9210916  78.1302924  41.5469387
  43.9741252  78.0108275  41.4747713  45.2693689  77.2425422  41.6295648
  37.2810490  64.0197063  45.3707629  37.8044892  64.2659359  46.1333938
  37.0622823  64.8517097  44.9510766  32.6777771  66.2900737  33.2378753
  32.3490477  65.4098116  33.0553859  33.0317141  66.2348406  34.1255143
  41.9257350  77.9255640  37.7473739  41.7782312  76.9972347  37.9281309
  42.7510843  77.9475731  37.2630814  35.7919594  66.5773707  33.6054231
  36.1315666  67.1059628  32.8832839  36.2391714  66.9154113  34.3812798
  45.5291471  78.7484199  38.8338612  46.4538019  78.5427060  38.6963063
  45.3606775  78.5000600  39.7427953  38.4863035  64.9610758  43.0557299
  38.1459855  64.1618571  43.4577979  37.7802041  65.2612469  42.4834132
  39.1379507  62.0460070  41.5084622  39.9605576  61.5720548  41.3863512
  39.3817570  62.8250554  42.0083308  37.7787741  65.0748329  31.8047524
  38.4996104  65.4529581  31.3011241  37.1553045  65.7937205  31.9082502
  41.9218864  65.7793478  32.7405856  42.1382478  66.6618115  32.4394684
  41.4412931  65.3879691  32.0111498  36.6618085  68.7379191  39.3176601
  36.5162666  69.0519494  40.2100882  36.1843289  69.3564091  38.7647499
  38.5214468  65.7281739  39.3657490  38.5076037  64.8322832  39.0289788
  39.2386896  65.7352403  39.9995776  40.3740599  66.1619079  41.4110618
  40.1158377  67.0836150  41.4094948  39.8425639  65.7649513  42.1011082
  45.3186788  79.2669866  34.1900703  45.4923665  78.7016289  33.4374556
  45.8115679  80.0670761  34.0080193  31.1363748  71.2784535  42.2564262
  30.5917216  72.0544343  42.3884536  32.0143097  71.6255340  42.0983383
  37.9251364  64.6096119  34.6345060  38.0467275  63.6812765  34.8335948
  37.6353407  64.6234805  33.7223376  40.7942555  62.2951029  37.7711780
  40.8164251  62.3590363  36.8163760  41.2110614  61.4555538  37.9652286
  51.1726179  72.0306289  35.8091003  51.6157325  71.2813614  35.4110126
  50.2952689  72.0216425  35.4264735  46.3061960  78.5836630  31.2897601
  47.0012865  79.2043323  31.5084916  46.6485110  77.7331982  31.5649979
  31.9229769  70.4054431  45.1494419  31.1811505  70.5537067  45.7359049
  31.6022514  70.6662697  44.2861168  48.2053383  76.0336336  32.8184932
  48.7304707  76.3723609  32.0934252  48.1175736  75.0983351  32.6348067
  39.8673432  79.9470410  44.9474809  40.1760558  79.7019556  45.8197508
  40.6648914  80.1517048  44.4593679  39.8894044  82.1008319  37.1780185
  39.4499034  81.6084698  37.8713042  40.6402161  81.5581287  36.9372261
  32.3686383  78.2919860  37.1804813  33.1944403  77.9923632  36.8003457
  32.0180435  77.5227483  37.6294602  37.3367916  77.6446328  39.2502487
  36.7147925  76.9817033  38.9504715  38.0072783  77.6707460  38.5676135
  30.5694988  76.2106187  38.1393747  29.7326896  75.7828361  37.9577748
  30.5418634  76.4038630  39.0764538  37.4092444  66.1228116  48.8434993
  37.4580599  66.9990239  48.4612763  37.9514958  65.5805509  48.2706636
  47.8947289  76.6669240  48.1236130  47.1042833  76.6493379  47.5840630
  47.6580644  77.2057533  48.8785167  48.0145164  73.5161706  45.4368859
  48.0643169  73.3511713  46.3784381  47.9059088  72.6488965  45.0466739
  36.8981423  76.1950252  32.7260948  37.0469543  76.8785716  32.0727620
  37.7047867  76.1755342  33.2410403  45.3048927  69.4992634  46.7528165
  46.2058790  69.3599099  46.4612163  45.3796901  69.6647089  47.6926343
  39.6391732  66.8759489  45.5981352  38.7695042  67.1693055  45.3263940
  39.8751213  67.4599934  46.3188615  49.5163361  75.9358648  45.6810880
  49.2248170  76.2988628  46.5174341  48.9035493  75.2225656  45.5024212
  50.7159044  73.5011527  38.2013450  51.5505935  73.9401331  38.3651011
  50.8518172  73.0250181  37.3821696  47.7650549  71.0591262  44.1490938
  48.2404671  71.2518908  43.3409790  46.8416115  71.1150448  43.9034322
  34.6534056  72.2215429  33.7322016  34.4080098  71.3177759  33.9302227
  34.8229971  72.2232580  32.7901494  42.3430766  63.0939106  43.1146772
  42.8612710  63.8300133  42.7893261  41.9885899  63.4003099  43.9493531
  33.9229704  67.9543787  31.2308178  33.2298949  68.0288142  30.5748214
  33.6781456  67.1904131  31.7529695  42.5943360  59.5139388  38.6347669
  42.8745114  58.8462577  39.2608095  43.3793967  59.7068484  38.1222333
  40.3976829  78.6898382  30.1972695  39.8250796  79.3088569  29.7443167
  40.9709622  79.2397744  30.7312617  46.4652218  67.9357022  42.3819244
  47.4169641  68.0355120  42.4031468  46.2955669  67.1435291  42.8917328
  44.4866598  65.0212605  42.5678645  43.8916530  65.3017618  41.8725133
  44.2016295  65.5106506  43.3395386  43.6174088  78.9735532  31.3281277
  44.5504762  78.9081094  31.5314153  43.5297301  79.8091799  30.8695810
  46.2462105  78.2901403  28.2885225  46.1675737  77.9561266  29.1820983
  47.0671772  78.7823171  28.2876697  48.9440296  71.1563142  41.4961543
  48.9116616  70.2179143  41.6821227  49.5540920  71.2347179  40.7627368
  40.7823627  70.0259195  27.5388747  41.7282732  69.8965403  27.6077166
  40.4037872  69.2873857  28.0158176  49.0934785  67.9474185  41.5419827
  48.5773833  67.1632642  41.3549756  49.9774733  67.6192902  41.7066346
  46.7545512  61.6915201  37.5015639  46.5570333  61.3830289  38.3858971
  47.3645217  62.4176840  37.6313569  54.7616846  72.2179149  40.6367580
  55.4920235  71.9564437  41.1975284  54.1523792  71.4807871  40.6769648
  52.8432143  70.3587011  41.2342031  52.1165307  70.2242976  40.6258523
  52.4279430  70.6663840  42.0398749  40.6662320  74.0776941  48.9989404
  41.5865329  74.2555540  49.1929451  40.6311903  73.1332986  48.8469104
  38.9666544  67.9509171  27.4743633  38.0598000  67.6542284  27.5506346
  39.2442525  67.6538989  26.6077919  29.8844485  69.2715535  37.9242679
  29.5647269  68.4180843  37.6317053  29.3377913  69.4864113  38.6800646
  33.6624392  71.9877976  41.6412186  33.8810402  72.9195084  41.6600219
  34.0750166  71.6285950  42.4266989  40.5828610  62.4946061  33.6287874
  39.7729338  62.1493146  34.0043120  41.2713027  62.1853605  34.2175486
  42.5119158  61.5724108  35.2512171  43.0650197  61.9919561  35.9102194
  42.7489245  60.6459856  35.2935127  38.5352258  67.5611181  51.0314935
  38.4348984  68.5105538  50.9627026  38.3173800  67.2329420  50.1591005
  37.7365329  64.8096107  27.6155612  38.5984493  65.1351005  27.8751429
  37.9215673  64.0227602  27.1028678  29.7532745  72.8918446  39.8935801
  29.0596216  72.4772399  39.3805755  30.5005736  72.9338983  39.2969220
  45.8897965  63.6824633  34.7590835  45.3096634  64.3409437  34.3768887
  45.6233898  62.8601978  34.3478252  44.3401532  63.0829691  36.9612155
  44.8401310  63.1946225  36.1526474  44.9837140  62.7790744  37.6012964
  38.3983528  70.9908320  49.8479996  37.9150609  71.7908680  50.0543885
  38.4844467  71.0016265  48.8947440  31.6669487  72.8236700  37.7701816
  31.6440175  72.9224387  36.8183699  31.9770124  73.6701851  38.0918982
  34.3256865  74.8812855  41.8848430  35.2800119  74.8496797  41.8178362
  34.1269389  74.4203479  42.6998656  34.9156247  73.4513971  44.4519228
  35.7349136  73.9458050  44.4754065  35.1893055  72.5345939  44.4236795
  44.6722843  65.8424723  33.8147183  43.7848698  66.1274374  33.5967378
  45.0876832  65.6818487  32.9674460  48.0237380  65.8671244  37.5301522
  48.7997770  66.3567697  37.8026139  47.2985514  66.2929299  37.9873392
  50.4609938  66.5798864  38.5875463  51.0554429  66.3394600  37.8768771
  50.5336522  65.8605994  39.2148999  32.6807094  80.4232475  38.9018628
  32.5461562  79.6632875  38.3356626  32.2639156  81.1473374  38.4347417
  43.8166057  75.6069398  27.9095203  44.5201907  75.8119401  28.5252859
  43.0928706  76.1746160  28.1744287  44.6463867  71.3579259  34.0297473
  44.5899069  71.8147811  33.1905106  45.1992210  70.5969944  33.8520316
  48.4568673  67.1468991  34.8547593  48.2005607  66.7465627  35.6855801
  47.8321541  67.8612785  34.7297732  52.7681011  69.8865064  37.3618884
  52.2080569  69.9558254  38.1350446  52.1624514  69.7106049  36.6418380
  35.8376220  81.3201792  39.1137071  35.7208604  82.2647224  39.0115761
  35.0168666  81.0175353  39.5022870  45.7252754  76.0451927  29.9593663
  46.5598358  75.6133126  29.7771138  45.5637097  75.8733941  30.8870558
  45.3798646  72.5484041  31.3250003  45.3247450  72.3828312  30.3838447
  44.7544702  73.2560073  31.4812192  30.1691161  67.7852105  45.1511425
  30.8150025  67.2751059  45.6398650  29.9608313  68.5220787  45.7254850
  42.6944554  74.8532952  50.6503565  43.5635713  75.0273605  50.2890200
  42.2151305  75.6727369  50.5279295  38.6894772  62.0492150  30.9035321
  38.6773442  62.9933989  31.0603592  39.5818194  61.8662295  30.6094782
  36.8630734  81.9730053  42.3292999  37.7657981  82.0053664  42.6459494
  36.6368104  81.0430504  42.3439335  38.6184336  80.7261040  38.9903078
  37.6679967  80.7262902  38.8767450  38.9216822  79.9793775  38.4739112
  42.5046891  58.6434926  35.1581258  41.7379287  58.0893413  35.3037940
  42.9157596  58.7156795  36.0195409  34.5088652  64.9319722  49.2486439
  35.3720114  64.5756527  49.4589764  33.9354063  64.5933617  49.9361843
  54.3537029  86.5621578  40.0548840  54.9915439  86.4428326  39.3512180
  54.2357872  87.5102422  40.1136792  51.1626736  86.5149006  39.9910365
  50.8245247  86.3990071  39.1030900  52.0316504  86.1140172  39.9711371
  47.0213551  88.3684483  35.9807256  46.4578416  88.2774420  35.2123543
  46.9065946  87.5484387  36.4609748  51.6446519  87.6683858  45.9496570
  51.6335159  87.2736656  45.0777074  51.8067158  86.9349931  46.5430342
  44.5677983  89.8635674  38.8191476  45.3599275  89.5226499  38.4037775
  44.8074633  89.9730650  39.7393629  52.6013110  92.0355451  31.2921721
  51.9501090  92.6209531  30.9055734  53.3957473  92.5661645  31.3516758
  46.5268737  89.1244588  31.6908855  47.2999613  88.5773575  31.5521731
  46.8794136  89.9888837  31.9023316  48.3653780  90.4520970  44.8975754
  48.0743646  91.3566601  44.7822420  49.0010764  90.4937498  45.6119824
  49.2909987  87.8297819  41.4877114  49.8873559  87.6053841  40.7734077
  49.3484958  87.0882564  42.0902562  48.8635015  85.2837254  29.3227305
  49.1160536  84.7618775  28.5610768  47.9259574  85.1203399  29.4253988
  53.9078298  84.2873032  37.1302048  54.6941387  83.8692455  36.7792465
  54.1717002  85.1919124  37.2983696  54.0788375  89.7245883  31.8290705
  53.4434208  89.7980509  32.5411609  53.7485782  90.3139481  31.1509784
  59.3086725  84.2248265  38.0335027  60.0411897  83.6547482  38.2672856
  58.5526081  83.8369866  38.4741532  48.5831304  87.1865360  31.5251680
  48.4667562  86.5110263  32.1932764  48.6933564  86.6997734  30.7083833
  50.9262845  86.6475507  35.2298369  50.5621052  86.1206128  35.9411290
  51.7829961  86.2573976  35.0564854  56.8312145  77.9369840  42.4929635
  56.4995470  78.8065250  42.2690850  56.2357759  77.6206124  43.1723666
  50.5668332  81.6765407  30.2259717  50.7342734  82.5445643  30.5930189
  50.3765501  81.8392688  29.3021007  53.3243665  90.1382386  41.8925548
  53.0244388  91.0407424  41.7841355  52.9794724  89.8714569  42.7446701
  46.7756146  86.5896182  37.9262252  45.8506643  86.4572396  38.1339944
  47.0240560  87.3690402  38.4232195  56.7240809  82.6564926  39.5722985
  55.8157686  82.5880334  39.2781746  56.6728404  83.1336871  40.4004811
  50.5457553  84.1323064  31.2106384  50.4257178  84.5780115  32.0491865
  49.8510141  84.4808382  30.6519922  44.1364957  86.2329456  38.7606041
  44.2657339  86.4863935  39.6745453  43.4562409  86.8257164  38.4410696
  48.3064445  96.9026706  34.8596516  48.2288474  97.8534531  34.9384996
  47.7026088  96.5572578  35.5171442  50.7981674  84.0754571  47.5157882
  50.0215009  84.6348491  47.5060747  51.4372238  84.5611354  48.0372753
  58.5902455  80.8581364  41.3500859  57.9476835  81.1513897  40.7040654
  58.0857384  80.7434284  42.1554056  56.2442619  84.6044537  32.0386718
  57.1560475  84.8371924  31.8634416  55.7352266  85.1881581  31.4761797
  49.0528047  86.8840025  47.0775849  49.7942731  87.4225069  46.8010673
  48.3465032  87.5106313  47.2347401  54.5283386  89.0269165  45.6748011
  54.9366742  88.5851576  44.9302643  53.8060648  88.4521793  45.9282204
  50.8814456  83.9641772  43.0481568  51.7275652  84.3881185  43.1916217
  50.8213094  83.3075396  43.7420131  54.8512201  89.5870356  39.4300300
  54.2221063  89.7516070  38.7276368  54.4637863  90.0011965  40.2011264
  58.7301433  90.5224794  36.7844664  58.0452471  90.9023695  36.2341697
  58.8145282  91.1320120  37.5176611  54.0313902  81.6246140  44.7062742
  53.7874834  82.3788201  44.1697017  54.3073832  82.0031488  45.5409989
  55.9852365  88.1684753  43.3840007  56.1969260  88.8116512  42.7074388
  55.9382113  87.3347069  42.9161937  53.5878594  80.7802573  40.2876579
  52.7263073  81.0783827  40.5793317  53.6141028  80.9972972  39.3557612
  50.4040163  89.3244764  36.6950385  50.8678508  89.6032467  35.9055007
  50.1396961  88.4228208  36.5123476  47.2964244  88.8716245  39.6330148
  47.8665601  89.3003514  38.9947633  47.8872356  88.5898830  40.3314334
  49.3409049  85.4467916  33.5039950  50.0433092  85.8988960  33.9713876
  49.0089677  84.8051735  34.1319843  47.7889410  84.0379673  47.8791159
  47.1588071  84.7195954  48.1126556  47.6825498  83.9262754  46.9344298
  43.0834383  83.7051469  38.8057084  42.2933437  83.9608997  38.3297194
  43.5745630  84.5199807  38.9109124  57.0998192  91.0456708  41.5562364
  57.9215636  90.6436895  41.2745046  57.0960595  90.9424942  42.5078480
  45.0349128  84.0696048  35.7640560  44.2380292  84.1814742  36.2824056
  44.8074721  84.4082700  34.8981451  50.8654796  90.5940751  43.7123075
  50.9299228  91.0561159  44.5481247  50.1565720  89.9638116  43.8405385
  41.3672086  83.9581959  41.2372074  41.6180124  84.8428969  41.5029650
  41.9031634  83.7786561  40.4647166  65.1904186  87.3895457  37.9047336
  64.4367894  86.8202855  37.7491340  65.3251727  87.3558121  38.8517971
  50.5802814  92.2608859  33.5802055  50.4448488  93.1060395  34.0086903
  51.1212626  92.4628136  32.8167989  47.0670153  78.3400439  50.2416410
  46.6737099  77.7866637  50.9164055  47.8836294  78.6511017  50.6322928
  44.0332211  89.7784297  34.1529980  44.5456732  90.5727547  34.3035545
  44.6854924  89.0810587  34.0863582  45.8427096  92.8950053  36.2352734
  46.0193724  93.8168018  36.0473717  46.6383929  92.5808472  36.6647113
  49.9838114  79.7558318  47.8336667  50.7247828  80.3565471  47.7541130
  50.2156037  79.0135956  47.2754710  45.1279452  84.9414685  46.1114897
  45.0132967  84.0399942  46.4121996  44.2723970  85.1878382  45.7599713
  52.2071290  92.8832425  47.7102397  51.7635144  92.0968804  47.3923302
  52.8688504  93.0711576  47.0446288  46.9658411  94.4128227  42.2363076
  47.5165836  94.2845290  41.4640070  46.1269887  94.7123116  41.8857969
  54.3052528  93.1635225  45.7383799  54.2871003  93.9844106  45.2464068
  55.2272448  93.0389300  45.9633940  50.7625582  90.6779355  46.5807307
  51.2953919  89.9167643  46.3506615  50.2339663  90.3853007  47.3231461
  53.9295277  75.7839421  42.1100949  53.5859547  76.6741062  42.0340059
  54.2974240  75.5941078  41.2470534  41.9981128  88.1072951  34.9289551
  42.8356350  88.5169960  34.7123259  42.1759395  87.1672393  34.8989745
  53.8945560  85.7748032  30.6173384  53.3792183  86.5452636  30.8561771
  53.6222868  85.1013168  31.2406445  51.4792671  80.6197733  35.6758622
  50.6234267  80.2304583  35.4964261  51.8919623  80.6989693  34.8158408
  53.0091818  78.1544076  40.0750182  52.5056613  78.1174211  39.2617987
  53.3022424  79.0636819  40.1346839  49.2534703  78.2382806  39.0816364
  50.1187700  78.0425614  38.7222253  49.3212212  78.0093157  40.0085720
  58.8679834  88.5280386  32.5526557  58.0909277  88.1891546  32.1081719
  59.5471315  88.5333010  31.8781522  53.6831863  83.6475124  32.4433165
  53.3781999  83.9621273  33.2943308  54.6362305  83.7256544  32.4860498
  52.1278295  89.8065347  34.0926119  51.5999656  89.0718107  33.7799356
  51.6265798  90.5840024  33.8466087  57.1071141  88.0014368  39.2093165
  56.4494815  88.6913629  39.2973294  57.9111540  88.3910800  39.5527152
  46.8597023  80.4685013  36.4532731  47.4340774  80.2460195  35.7205923
  47.4468005  80.5373708  37.2061332  55.9176600  86.3558740  37.2597107
  56.4308481  86.9888732  37.7618817  56.5677824  85.7559936  36.8940467
  47.1866610  82.4989475  30.4728616  46.3503922  82.8364161  30.7937891
  47.0471379  82.3638454  29.5355753  49.1619690  77.3426262  35.1807800
  48.5084103  77.0275280  34.5564415  49.1200164  76.7202003  35.9067623
  50.2730895  87.6245557  27.0961092  49.3657957  87.3934811  27.2952241
  50.7701927  86.8283177  27.2835074  53.1798974  96.3343065  30.0157778
  52.5060673  96.6374761  30.6242736  53.5664796  97.1372145  29.6663235
  52.3957431  83.8308196  39.5055448  51.4779992  84.0523143  39.3477136
  52.8117574  83.9054506  38.6467155  53.1792478  85.2299612  34.6358128
  53.9264297  85.7421009  34.3265250  53.4484068  84.9083664  35.4962521
  51.4519129  87.7258152  31.6185082  50.5430348  87.4417185  31.7157552
  51.4814212  88.1457231  30.7588389  56.6838396  91.3364742  35.3876250
  56.2300723  90.4955652  35.4441440  56.0532363  91.9726140  35.7251030
  55.6271315  82.2656728  36.6176917  54.8894072  81.7534114  36.9487160
  55.8798089  81.8257109  35.8060194  55.1271335  93.1741239  36.3226068
  55.4194310  93.7346296  35.6038433  55.6369956  93.4669800  37.0779227
  55.7282943  75.0432980  37.2118686  56.0341820  74.1830343  36.9244602
  56.4535548  75.6350600  37.0117680  42.0207299  85.4463666  35.6000284
  41.8231699  84.8533027  34.8751351  41.4653963  85.1415877  36.3176223
  50.0004023  85.3386773  37.7194877  50.0552632  84.3860609  37.6437354
  49.1895225  85.4946212  38.2036176  51.1495216  89.2666896  28.9573161
  50.7114646  88.5502755  28.4978798  51.8905657  89.4943011  28.3958252
  47.9396382  83.9563833  35.4785256  47.1264248  84.2558003  35.8850448
  48.4355377  83.5619521  36.1959739  50.0904960  93.9521590  37.4119521
  50.0481139  94.1782436  36.4828053  51.0067659  93.7184964  37.5605322
  53.5370594  84.4205657  44.3100150  53.8919982  84.6477130  45.1694616
  54.1842725  84.7524034  43.6877406  59.2668331  87.5424093  35.0149479
  59.1286230  87.7325689  34.0870669  58.9104550  88.3043476  35.4717530
  47.4310457  81.5282188  41.0946491  48.0709837  81.3870947  40.3969455
  46.5987988  81.2416702  40.7185093  59.2937711  89.6100620  40.0260751
  59.7274217  89.5175909  40.8743805  60.0069291  89.5858121  39.3880767
  48.2070761  90.8284619  37.2081484  49.0011360  90.3334939  37.0064059
  47.4962454  90.3002482  36.8449189  53.0265606  93.2102714  41.5593851
  53.0802628  93.7793650  42.3271567  52.1580387  93.3804599  41.1947889
  44.5153525  84.9727700  33.2841236  43.5851113  84.9112156  33.5011199
  44.6110997  84.4503653  32.4877878  44.4339074  81.4982513  35.8719478
  44.6945891  82.4127846  35.7628639  45.2556246  81.0306956  36.0216091
  45.9063999  82.9120270  43.0418303  46.5787052  82.7037633  42.3930952
  45.0793786  82.7142356  42.6023535  60.1553260  89.6524321  42.5593636
  60.3489150  90.5570131  42.8052911  60.0553878  89.1931740  43.3932221
  51.8089571  79.5382211  45.0583964  51.1617486  80.2372161  44.9648440
  52.5790586  79.9718355  45.4260212  55.2168369  89.8031063  48.1334517
  55.0653875  89.5741615  47.2164600  55.2073048  90.7601665  48.1465862
  51.9853705  87.3762976  43.1180783  52.9145765  87.5274136  42.9449751
  51.5644735  87.4646997  42.2629430  50.7842037  91.4013641  40.8879321
  50.6453123  91.0332425  41.7605259  49.9956633  91.9161280  40.7163279
  51.3790189  96.5022737  32.2304857  51.5541945  96.0310780  33.0450480
  50.6922977  97.1288503  32.4586118  52.3347252  90.7795243  38.2768159
  51.9997085  90.7396013  39.1725809  51.8351198  90.1139959  37.8038569
  46.3091496  86.1862873  43.8020740  46.1711294  85.4543112  44.4032279
  47.2196420  86.0971773  43.5204928  55.2706444  88.1251278  28.5505218
  54.6535615  87.3998106  28.4538271  54.8022932  88.8860638  28.2072293
  48.9373797  85.8982833  43.2904419  49.6473415  85.2576025  43.2491038
  48.8943105  86.1495728  44.2130600  56.9260576  92.8350186  46.2110999
  56.8673122  92.1509406  45.5441582  57.3280094  93.5769176  45.7591625
  47.6502731  82.8848051  45.1100059  47.1140088  82.4338789  45.7621655
  47.0619439  83.0193959  44.3670523  45.9451274  99.6512100  39.0044718
  46.1847873 100.2830624  39.6823736  45.1020471  99.3000140  39.2910077
  47.0604990  82.3436702  27.6726523  46.1834456  82.2225503  27.3088769
  47.5362743  81.5522780  27.4205411  56.9277983  90.7989770  44.4424978
  56.0404762  90.4615692  44.5651377  57.4976534  90.0672801  44.6793744
  38.5807130  87.1313862  37.7668030  39.2678170  86.8175592  37.1789045
  38.4255259  88.0355226  37.4935281  43.3841852  82.0204058  42.1953053
  43.3000041  81.4129728  41.4603463  42.5624559  82.5113077  42.1962550
  50.4579136  95.4591222  41.4086222  50.3849308  96.2646194  41.9205526
  50.0156529  95.6583188  40.5834243  50.2468916  94.6962992  34.9189043
  49.4636438  95.2384673  35.0127268  50.9461661  95.2136972  35.3183284
  53.5565566  80.5057622  37.5623248  54.0534266  79.7527584  37.2424319
  52.7852547  80.5421938  36.9966458  61.4095323  86.2097987  39.2041540
  61.3985200  87.0922703  38.8335473  60.5412703  85.8569538  39.0096077
  52.9177820  95.3578056  43.5644380  53.6305792  95.9925521  43.4920282
  52.4267848  95.4541922  42.7484382  54.6395347  89.2629309  35.1361672
  53.7051625  89.3830771  34.9666376  54.8172015  88.3601776  34.8721682
  50.1400535  82.6475005  37.2894933  49.7698322  82.0946045  37.9775839
  50.6359627  82.0433138  36.7369933  58.0267898  85.1046628  35.6711706
  58.4928350  85.9374620  35.5972009  58.4775399  84.6391610  36.3756965
  47.9689733  93.1072500  44.3849951  48.6699193  93.7408983  44.5379345
  47.4984848  93.4487231  43.6245590  56.0944129  91.4490450  32.6697858
  56.3703973  91.3347044  33.5791732  55.2248628  91.0507934  32.6310031
  55.9984561  77.4727215  39.7102607  55.0847641  77.7031442  39.8784814
  56.4277662  77.5565659  40.5616640  55.7691019  85.6617107  42.2102501
  55.1162470  85.9093015  41.5554954  56.1471399  84.8481245  41.8764979
  52.7298193  95.6976800  36.3130672  52.9120588  94.8798456  36.7758424
  53.5531179  95.9144493  35.8755562  53.0640359  94.6244986  33.5745720
  53.5928125  94.1137440  32.9615882  53.3268578  94.3087516  34.4391253
  51.8178592  86.4036918  48.6968538  51.1419229  86.3031048  49.3670914
  52.6406226  86.2476132  49.1604536  43.5657451  92.6408855  41.3181054
  44.1510888  91.8952543  41.4508958  43.3682290  92.9512812  42.2017718
  46.4196107  95.6760102  36.3343496  45.7506482  96.1606230  35.8507536
  46.2808976  95.9229323  37.2486875  38.1575106  85.2114455  40.0385497
  38.1959206  84.6778046  40.8322615  37.6515399  84.6849661  39.4196474
  50.5601375  97.7103846  42.9326154  51.1119683  97.8735467  43.6975240
  50.9007569  98.3008284  42.2606179  45.5365868  80.0578996  43.5348039
  45.6007195  80.9193826  43.1225437  45.4732989  79.4452997  42.8020398
  45.0118141  82.1302128  47.1821073  45.6390180  81.7479205  47.7958598
  44.1546060  81.9116330  47.5476766  55.4112250  92.5365103  48.7874809
  55.9552153  93.1495062  48.2929764  54.8299094  93.0944682  49.3041822
  41.7883684  83.9378557  33.1139428  42.0837125  83.0289236  33.0606482
  40.8871719  83.9166297  32.7920431  53.6969762  95.6585821  39.9189837
  53.5720902  94.8575561  39.4100782  54.3548854  96.1532015  39.4303807
  45.3177931  82.0134554  39.0966977  44.5964516  82.6270521  38.9574450
  46.1071186  82.5492319  39.0183623  55.7604671  93.4594841  41.5469387
  54.8135006  93.3400193  41.4747713  56.1087444  92.5717339  41.6295648
  48.1204244  79.3488980  45.3707629  48.6438646  79.5951277  46.1333938
  47.9016577  80.1809015  44.9510766  43.5171525  81.6192655  33.2378753
  43.1884231  80.7390034  33.0553859  43.8710896  81.5640324  34.1255143
  52.7651104  93.2547558  37.7473739  52.6176067  92.3264265  37.9281309
  53.5904598  93.2767648  37.2630814  46.6313348  81.9065625  33.6054231
  46.9709421  82.4351546  32.8832839  47.0785469  82.2446031  34.3812798
  56.3685226  94.0776116  38.8338612  57.2931773  93.8718978  38.6963063
  56.2000529  93.8292517  39.7427953  49.3256789  80.2902675  43.0557299
  48.9853610  79.4910488  43.4577979  48.6195796  80.5904386  42.4834132
  49.9773261  77.3751988  41.5084622  50.7999330  76.9012466  41.3863512
  50.2211325  78.1542472  42.0083308  48.6181496  80.4040246  31.8047524
  49.3389858  80.7821499  31.3011241  47.9946800  81.1229123  31.9082502
  52.7612618  81.1085395  32.7405856  52.9776233  81.9910033  32.4394684
  52.2806686  80.7171609  32.0111498  47.5011840  84.0671108  39.3176601
  47.3556421  84.3811412  40.2100882  47.0237043  84.6856009  38.7647499
  49.3608223  81.0573656  39.3657490  49.3469791  80.1614750  39.0289788
  50.0780651  81.0644320  39.9995776  51.2134353  81.4910997  41.4110618
  50.9552131  82.4128067  41.4094948  50.6819394  81.0941431  42.1011082
  56.1580542  94.5961784  34.1900703  56.3317420  94.0308206  33.4374556
  56.6509433  95.3962679  34.0080193  41.9757502  86.6076453  42.2564262
  41.4310970  87.3836261  42.3884536  42.8536852  86.9547257  42.0983383
  48.7645119  79.9388037  34.6345060  48.8861030  79.0104683  34.8335948
  48.4747161  79.9526723  33.7223376  51.6336309  77.6242947  37.7711780
  51.6558006  77.6882280  36.8163760  52.0504368  76.7847456  37.9652286
  62.0119933  87.3598207  35.8091003  62.4551079  86.6105532  35.4110126
  61.1346444  87.3508343  35.4264735  57.1455715  93.9128548  31.2897601
  57.8406619  94.5335241  31.5084916  57.4878865  93.0623899  31.5649979
  42.7623524  85.7346349  45.1494419  42.0205260  85.8828984  45.7359049
  42.4416268  85.9954615  44.2861168  59.0447138  91.3628254  32.8184932
  59.5698462  91.7015526  32.0934252  58.9569490  90.4275269  32.6348067
  50.7067186  95.2762327  44.9474809  51.0154313  95.0311474  45.8197508
  51.5042669  95.4808966  44.4593679  50.7287799  97.4300237  37.1780185
  50.2892789  96.9376616  37.8713042  51.4795916  96.8873205  36.9372261
  43.2080138  93.6211778  37.1804813  44.0338157  93.3215550  36.8003457
  42.8574190  92.8519400  37.6294602  48.1761671  92.9738246  39.2502487
  47.5541680  92.3108951  38.9504715  48.8466538  92.9999378  38.5676135
  41.4088743  91.5398104  38.1393747  40.5720651  91.1120279  37.9577748
  41.3812388  91.7330548  39.0764538  48.2486198  81.4520034  48.8434993
  48.2974354  82.3282157  48.4612763  48.7908712  80.9097427  48.2706636
  58.7341044  91.9961157  48.1236130  57.9436588  91.9785296  47.5840630
  58.4974398  92.5349451  48.8785167  58.8538919  88.8453624  45.4368859
  58.9036924  88.6803631  46.3784381  58.7452842  87.9780883  45.0466739
  47.7375178  91.5242169  32.7260948  47.8863298  92.2077634  32.0727620
  48.5441621  91.5047259  33.2410403  56.1442681  84.8284552  46.7528165
  57.0452544  84.6891017  46.4612163  56.2190656  84.9939007  47.6926343
  50.4785487  82.2051406  45.5981352  49.6088796  82.4984973  45.3263940
  50.7144967  82.7891851  46.3188615  60.3557116  91.2650565  45.6810880
  60.0641924  91.6280546  46.5174341  59.7429247  90.5517574  45.5024212
  61.5552798  88.8303445  38.2013450  62.3899689  89.2693249  38.3651011
  61.6911927  88.3542098  37.3821696  58.6044304  86.3883180  44.1490938
  59.0798426  86.5810826  43.3409790  57.6809869  86.4442366  43.9034322
  45.4927811  87.5507347  33.7322016  45.2473853  86.6469677  33.9302227
  45.6623725  87.5524497  32.7901494  53.1824520  78.4231023  43.1146772
  53.7006464  79.1592050  42.7893261  52.8279653  78.7295017  43.9493531
  44.7623458  83.2835705  31.2308178  44.0692703  83.3580060  30.5748214
  44.5175210  82.5196048  31.7529695  53.4337115  74.8431306  38.6347669
  53.7138868  74.1754495  39.2608095  54.2187722  75.0360402  38.1222333
  51.2370583  94.0190300  30.1972695  50.6644550  94.6380487  29.7443167
  51.8103377  94.5689662  30.7312617  57.3045973  83.2648940  42.3819244
  58.2563396  83.3647038  42.4031468  57.1349423  82.4727208  42.8917328
  55.3260352  80.3504523  42.5678645  54.7310285  80.6309536  41.8725133
  55.0410049  80.8398424  43.3395386  54.4567843  94.3027450  31.3281277
  55.3898516  94.2373012  31.5314153  54.3691056  95.1383717  30.8695810
  57.0855860  93.6193320  28.2885225  57.0069491  93.2853184  29.1820983
  57.9065526  94.1115088  28.2876697  59.7834051  86.4855060  41.4961543
  59.7510371  85.5471060  41.6821227  60.3934674  86.5639096  40.7627368
  51.6217382  85.3551113  27.5388747  52.5676486  85.2257321  27.6077166
  51.2431627  84.6165775  28.0158176  59.9328539  83.2766103  41.5419827
  59.4167588  82.4924560  41.3549756  60.8168488  82.9484820  41.7066346
  57.5939266  77.0207119  37.5015639  57.3964087  76.7122207  38.3858971
  58.2038972  77.7468758  37.6313569  65.6010601  87.5471066  40.6367580
  66.3313989  87.2856355  41.1975284  64.9917546  86.8099788  40.6769648
  63.6825898  85.6878929  41.2342031  62.9559061  85.5534894  40.6258523
  63.2673185  85.9955758  42.0398749  51.5056074  89.4068859  48.9989404
  52.4259084  89.5847458  49.1929451  51.4705657  88.4624904  48.8469104
  49.8060299  83.2801089  27.4743633  48.8991754  82.9834202  27.5506346
  50.0836280  82.9830907  26.6077919  40.7238239  84.6007452  37.9242679
  40.4041024  83.7472761  37.6317053  40.1771667  84.8156031  38.6800646
  44.5018147  87.3169893  41.6412186  44.7204156  88.2487001  41.6600219
  44.9143921  86.9577868  42.4266989  51.4222365  77.8237979  33.6287874
  50.6123093  77.4785064  34.0043120  52.1106781  77.5145522  34.2175486
  53.3512913  76.9016026  35.2512171  53.9043951  77.3211479  35.9102194
  53.5882999  75.9751774  35.2935127  49.3746012  82.8903099  51.0314935
  49.2742739  83.8397456  50.9627026  49.1567554  82.5621338  50.1591005
  48.5759083  80.1388024  27.6155612  49.4378247  80.4642923  27.8751429
  48.7609428  79.3519520  27.1028678  40.5926499  88.2210364  39.8935801
  39.8989971  87.8064317  39.3805755  41.3399490  88.2630900  39.2969220
  56.7291720  79.0116551  34.7590835  56.1490389  79.6701355  34.3768887
  56.4627653  78.1893895  34.3478252  55.1795286  78.4121608  36.9612155
  55.6795065  78.5238143  36.1526474  55.8230894  78.1082661  37.6012964
  49.2377282  86.3200238  49.8479996  48.7544364  87.1200598  50.0543885
  49.3238221  86.3308183  48.8947440  42.5063242  88.1528618  37.7701816
  42.4833930  88.2516305  36.8183699  42.8163878  88.9993768  38.0918982
  45.1650620  90.2104773  41.8848430  46.1193873  90.1788715  41.8178362
  44.9663143  89.7495396  42.6998656  45.7550002  88.7805889  44.4519228
  46.5742891  89.2749967  44.4754065  46.0286809  87.8637857  44.4236795
  55.5116598  81.1716641  33.8147183  54.6242453  81.4566292  33.5967378
  55.9270587  81.0110404  32.9674460  58.8631134  81.1963162  37.5301522
  59.6391524  81.6859614  37.8026139  58.1379268  81.6221216  37.9873392
  61.3003693  81.9090781  38.5875463  61.8948183  81.6686517  37.8768771
  61.3730276  81.1897912  39.2148999  43.5200848  95.7524392  38.9018628
  43.3855316  94.9924793  38.3356626  43.1032911  96.4765292  38.4347417
  54.6559811  90.9361316  27.9095203  55.3595661  91.1411318  28.5252859
  53.9322460  91.5038078  28.1744287  55.4857622  86.6871177  34.0297473
  55.4292823  87.1439728  33.1905106  56.0385964  85.9261862  33.8520316
  59.2962428  82.4760909  34.8547593  59.0399362  82.0757545  35.6855801
  58.6715296  83.1904703  34.7297732  63.6074765  85.2156982  37.3618884
  63.0474323  85.2850171  38.1350446  63.0018269  85.0397967  36.6418380
  46.6769974  96.6493709  39.1137071  46.5602358  97.5939142  39.0115761
  45.8562421  96.3467271  39.5022870  56.5646509  91.3743845  29.9593663
  57.3992113  90.9425043  29.7771138  56.4030852  91.2025859  30.8870558
  56.2192401  87.8775958  31.3250003  56.1641205  87.7120230  30.3838447
  55.5938456  88.5851991  31.4812192  41.0084916  83.1144023  45.1511425
  41.6543780  82.6042977  45.6398650  40.8002067  83.8512704  45.7254850
  53.5338308  90.1824870  50.6503565  54.4029468  90.3565522  50.2890200
  53.0545060  91.0019287  50.5279295  49.5288526  77.3784067  30.9035321
  49.5167196  78.3225907  31.0603592  50.4211948  77.1954213  30.6094782
  47.7024488  97.3021971  42.3292999  48.6051735  97.3345581  42.6459494
  47.4761858  96.3722422  42.3439335  49.4578090  96.0552958  38.9903078
  48.5073721  96.0554819  38.8767450  49.7610577  95.3085692  38.4739112
  53.3440646  73.9726844  35.1581258  52.5773042  73.4185331  35.3037940
  53.7551351  74.0448713  36.0195409  45.3482407  80.2611640  49.2486439
  46.2113869  79.9048445  49.4589764  44.7747818  79.9225535  49.9361843
  65.1930784 101.8913496  40.0548840  65.8309194 101.7720243  39.3512180
  65.0751627 102.8394340  40.1136792  62.0020490 101.8440924  39.9910365
  61.6639002 101.7281989  39.1030900  62.8710258 101.4432089  39.9711371
  57.8607306 103.6976401  35.9807256  57.2972171 103.6066337  35.2123543
  57.7459701 102.8776305  36.4609748  62.4840273 102.9975776  45.9496570
  62.4728914 102.6028574  45.0777074  62.6460913 102.2641848  46.5430342
  55.4071738 105.1927592  38.8191476  56.1993030 104.8518417  38.4037775
  55.6468388 105.3022567  39.7393629  63.4406865 107.3647368  31.2921721
  62.7894844 107.9501449  30.9055734  64.2351227 107.8953563  31.3516758
  57.3662492 104.4536505  31.6908855  58.1393368 103.9065492  31.5521731
  57.7187891 105.3180755  31.9023316  59.2047534 105.7812888  44.8975754
  58.9137400 106.6858519  44.7822420  59.8404519 105.8229415  45.6119824
  60.1303741 103.1589736  41.4877114  60.7267313 102.9345759  40.7734077
  60.1878713 102.4174482  42.0902562  59.7028770 100.6129172  29.3227305
  59.9554290 100.0910693  28.5610768  58.7653329 100.4495317  29.4253988
  64.7472052  99.6164950  37.1302048  65.5335142  99.1984373  36.7792465
  65.0110757 100.5211042  37.2983696  64.9182130 105.0537800  31.8290705
  64.2827963 105.1272427  32.5411609  64.5879536 105.6431399  31.1509784
  70.1480479  99.5540183  38.0335027  70.8805651  98.9839400  38.2672856
  69.3919835  99.1661784  38.4741532  59.4225058 102.5157277  31.5251680
  59.3061316 101.8402181  32.1932764  59.5327318 102.0289651  30.7083833
  61.7656599 101.9767425  35.2298369  61.4014806 101.4498046  35.9411290
  62.6223715 101.5865894  35.0564854  67.6705900  93.2661757  42.4929635
  67.3389225  94.1357168  42.2690850  67.0751513  92.9498041  43.1723666
  61.4062086  97.0057324  30.2259717  61.5736489  97.8737561  30.5930189
  61.2159255  97.1684606  29.3021007  64.1637419 105.4674303  41.8925548
  63.8638142 106.3699342  41.7841355  63.8188479 105.2006486  42.7446701
  57.6149901 101.9188100  37.9262252  56.6900397 101.7864314  38.1339944
  57.8634314 102.6982319  38.4232195  67.5634563  97.9856843  39.5722985
  66.6551440  97.9172252  39.2781746  67.5122159  98.4628788  40.4004811
  61.3851307  99.4614982  31.2106384  61.2650932  99.9072033  32.0491865
  60.6903895  99.8100299  30.6519922  54.9758712 101.5621374  38.7606041
  55.1051093 101.8155853  39.6745453  54.2956163 102.1549082  38.4410696
  59.1458199 112.2318624  34.8596516  59.0682229 113.1826449  34.9384996
  58.5419843 111.8864496  35.5171442  61.6375429  99.4046489  47.5157882
  60.8608763  99.9640409  47.5060747  62.2765992  99.8903272  48.0372753
  69.4296210  96.1873282  41.3500859  68.7870590  96.4805815  40.7040654
  68.9251138  96.0726202  42.1554056  67.0836373  99.9336455  32.0386718
  67.9954229 100.1663842  31.8634416  66.5746020 100.5173499  31.4761797
  59.8921801 102.2131942  47.0775849  60.6336486 102.7516986  46.8010673
  59.1858787 102.8398231  47.2347401  65.3677141 104.3561083  45.6748011
  65.7760497 103.9143493  44.9302643  64.6454402 103.7813710  45.9282204
  61.7208211  99.2933690  43.0481568  62.5669406  99.7173103  43.1916217
  61.6606849  98.6367314  43.7420131  65.6905956 104.9162273  39.4300300
  65.0614818 105.0807988  38.7276368  65.3031618 105.3303883  40.2011264
  69.5695187 105.8516711  36.7844664  68.8846226 106.2315613  36.2341697
  69.6539037 106.4612038  37.5176611  64.8707656  96.9538058  44.7062742
  64.6268588  97.7080118  44.1697017  65.1467587  97.3323406  45.5409989
  66.8246119 103.4976670  43.3840007  67.0363014 104.1408430  42.7074388
  66.7775867 102.6638987  42.9161937  64.4272348  96.1094491  40.2876579
  63.5656827  96.4075744  40.5793317  64.4534783  96.3264890  39.3557612
  61.2433917 104.6536681  36.6950385  61.7072263 104.9324384  35.9055007
  60.9790716 103.7520126  36.5123476  58.1357998 104.2008163  39.6330148
  58.7059356 104.6295431  38.9947633  58.7266110 103.9190748  40.3314334
  60.1802803 100.7759834  33.5039950  60.8826847 101.2280878  33.9713876
  59.8483432 100.1343653  34.1319843  58.6283165  99.3671590  47.8791159
  57.9981826 100.0487871  48.1126556  58.5219253  99.2554672  46.9344298
  53.9228137  99.0343387  38.8057084  53.1327191  99.2900915  38.3297194
  54.4139385  99.8491724  38.9109124  67.9391947 106.3748626  41.5562364
  68.7609391 105.9728813  41.2745046  67.9354350 106.2716860  42.5078480
  55.8742883  99.3987966  35.7640560  55.0774046  99.5106660  36.2824056
  55.6468475  99.7374618  34.8981451  61.7048550 105.9232669  43.7123075
  61.7692983 106.3853076  44.5481247  60.9959474 105.2930034  43.8405385
  52.2065840  99.2873877  41.2372074  52.4573879 100.1720887  41.5029650
  52.7425389  99.1078479  40.4647166  76.0297940 102.7187374  37.9047336
  75.2761648 102.1494772  37.7491340  76.1645481 102.6850039  38.8517971
  61.4196568 107.5900776  33.5802055  61.2842243 108.4352312  34.0086903
  61.9606381 107.7920054  32.8167989  57.9063908  93.6692356  50.2416410
  57.5130853  93.1158555  50.9164055  58.7230048  93.9802935  50.6322928
  54.8725965 105.1076215  34.1529980  55.3850486 105.9019465  34.3035545
  55.5248678 104.4102505  34.0863582  56.6820850 108.2241971  36.2352734
  56.8587479 109.1459936  36.0473717  57.4777684 107.9100390  36.6647113
  60.8231869  95.0850235  47.8336667  61.5641582  95.6857389  47.7541130
  61.0549792  94.3427873  47.2754710  55.9673207 100.2706603  46.1114897
  55.8526722  99.3691860  46.4121996  55.1117724 100.5170299  45.7599713
  63.0465044 108.2124343  47.7102397  62.6028899 107.4260722  47.3923302
  63.7082258 108.4003494  47.0446288  57.8052166 109.7420145  42.2363076
  58.3559591 109.6137208  41.4640070  56.9663642 110.0415034  41.8857969
  65.1446283 108.4927143  45.7383799  65.1264758 109.3136024  45.2464068
  66.0666203 108.3681218  45.9633940  61.6019337 106.0071272  46.5807307
  62.1347673 105.2459561  46.3506615  61.0733418 105.7144924  47.3231461
  64.7689032  91.1131338  42.1100949  64.4253301  92.0032980  42.0340059
  65.1367994  90.9232996  41.2470534  52.8374882 103.4364869  34.9289551
  53.6750104 103.8461877  34.7123259  53.0153150 102.4964311  34.8989745
  64.7339314 101.1039949  30.6173384  64.2185938 101.8744554  30.8561771
  64.4616623 100.4305086  31.2406445  62.3186425  95.9489650  35.6758622
  61.4628022  95.5596501  35.4964261  62.7313377  96.0281611  34.8158408
  63.8485572  93.4835994  40.0750182  63.3450368  93.4466129  39.2617987
  64.1416179  94.3928736  40.1346839  60.0928458  93.5674723  39.0816364
  60.9581455  93.3717532  38.7222253  60.1605967  93.3385075  40.0085720
  69.7073589 103.8572304  32.5526557  68.9303031 103.5183464  32.1081719
  70.3865069 103.8624927  31.8781522  64.5225618  98.9767042  32.4433165
  64.2175753  99.2913191  33.2943308  65.4756060  99.0548461  32.4860498
  62.9672049 105.1357265  34.0926119  62.4393411 104.4010024  33.7799356
  62.4659552 105.9131941  33.8466087  67.9464895 103.3306285  39.2093165
  67.2888570 104.0205547  39.2973294  68.7505295 103.7202717  39.5527152
  57.6990777  95.7976931  36.4532731  58.2734529  95.5752113  35.7205923
  58.2861759  95.8665626  37.2061332  66.7570354 101.6850658  37.2597107
  67.2702236 102.3180650  37.7618817  67.4071578 101.0851854  36.8940467
  58.0260364  97.8281392  30.4728616  57.1897676  98.1656079  30.7937891
  57.8865134  97.6930372  29.5355753  60.0013445  92.6718180  35.1807800
  59.3477857  92.3567197  34.5564415  59.9593919  92.0493921  35.9067623
  61.1124650 102.9537475  27.0961092  60.2051711 102.7226729  27.2952241
  61.6095682 102.1575094  27.2835074  64.0192728 111.6634982  30.0157778
  63.3454427 111.9666679  30.6242736  64.4058550 112.4664063  29.6663235
  63.2351185  99.1600114  39.5055448  62.3173746  99.3815061  39.3477136
  63.6511329  99.2346424  38.6467155  64.0186233 100.5591529  34.6358128
  64.7658052 101.0712927  34.3265250  64.2877822 100.2375582  35.4962521
  62.2912883 103.0550070  31.6185082  61.3824102 102.7709103  31.7157552
  62.3207967 103.4749149  30.7588389  67.5232150 106.6656660  35.3876250
  67.0694478 105.8247569  35.4441440  66.8926117 107.3018058  35.7251030
  66.4665070  97.5948646  36.6176917  65.7287827  97.0826032  36.9487160
  66.7191844  97.1549027  35.8060194  65.9665090 108.5033156  36.3226068
  66.2588064 109.0638213  35.6038433  66.4763710 108.7961717  37.0779227
  66.5676697  90.3724898  37.2118686  66.8735574  89.5122261  36.9244602
  67.2929302  90.9642518  37.0117680  52.8601053 100.7755584  35.6000284
  52.6625453 100.1824945  34.8751351  52.3047717 100.4707794  36.3176223
  60.8397777 100.6678691  37.7194877  60.8946387  99.7152527  37.6437354
  60.0288979 100.8238130  38.2036176  61.9888971 104.5958814  28.9573161
  61.5508401 103.8794673  28.4978798  62.7299412 104.8234929  28.3958252
  58.7790137  99.2855750  35.4785256  57.9658003  99.5849921  35.8850448
  59.2749131  98.8911439  36.1959739  60.9298715 109.2813507  37.4119521
  60.8874894 109.5074354  36.4828053  61.8461414 109.0476882  37.5605322
  64.3764349  99.7497575  44.3100150  64.7313736  99.9769048  45.1694616
  65.0236480 100.0815952  43.6877406  70.1062086 102.8716011  35.0149479
  69.9679984 103.0617607  34.0870669  69.7498304 103.6335394  35.4717530
  58.2704212  96.8574106  41.0946491  58.9103591  96.7162865  40.3969455
  57.4381742  96.5708619  40.7185093  70.1331465 104.9392538  40.0260751
  70.5667972 104.8467827  40.8743805  70.8463046 104.9150038  39.3880767
  59.0464516 106.1576536  37.2081484  59.8405114 105.6626856  37.0064059
  58.3356208 105.6294399  36.8449189  63.8659360 108.5394632  41.5593851
  63.9196382 109.1085568  42.3271567  62.9974141 108.7096517  41.1947889
  55.3547279 100.3019618  33.2841236  54.4244867 100.2404074  33.5011199
  55.4504751  99.7795571  32.4877878  55.2732828  96.8274431  35.8719478
  55.5339645  97.7419764  35.7628639  56.0950000  96.3598873  36.0216091
  56.7457753  98.2412188  43.0418303  57.4180807  98.0329550  42.3930952
  55.9187540  98.0434274  42.6023535  70.9947015 104.9816238  42.5593636
  71.1882905 105.8862049  42.8052911  70.8947633 104.5223657  43.3932221
  62.6483325  94.8674129  45.0583964  62.0011241  95.5664079  44.9648440
  63.4184341  95.3010273  45.4260212  66.0562123 105.1322981  48.1334517
  65.9047630 104.9033533  47.2164600  66.0466803 106.0893583  48.1465862
  62.8247460 102.7054894  43.1180783  63.7539520 102.8566053  42.9449751
  62.4038490 102.7938915  42.2629430  61.6235792 106.7305558  40.8879321
  61.4846877 106.3624343  41.7605259  60.8350388 107.2453198  40.7163279
  62.2183944 111.8314655  32.2304857  62.3935699 111.3602698  33.0450480
  61.5316732 112.4580421  32.4586118  63.1741007 106.1087161  38.2768159
  62.8390839 106.0687931  39.1725809  62.6744952 105.4431877  37.8038569
  57.1485251 101.5154791  43.8020740  57.0105049 100.7835030  44.4032279
  58.0590174 101.4263691  43.5204928  66.1100198 103.4543195  28.5505218
  65.4929369 102.7290023  28.4538271  65.6416687 104.2152556  28.2072293
  59.7767551 101.2274750  43.2904419  60.4867170 100.5867943  43.2491038
  59.7336860 101.4787645  44.2130600  67.7654330 108.1642104  46.2110999
  67.7066876 107.4801324  45.5441582  68.1673848 108.9061094  45.7591625
  58.4896485  98.2139968  45.1100059  57.9533842  97.7630707  45.7621655
  57.9013194  98.3485877  44.3670523  56.7845029 114.9804018  39.0044718
  57.0241627 115.6122542  39.6823736  55.9414225 114.6292058  39.2910077
  57.8998744  97.6728620  27.6726523  57.0228211  97.5517420  27.3088769
  58.3756497  96.8814698  27.4205411  67.7671737 106.1281688  44.4424978
  66.8798516 105.7907609  44.5651377  68.3370288 105.3964719  44.6793744
  49.4200884 102.4605779  37.7668030  50.1071924 102.1467509  37.1789045
  49.2649013 103.3647144  37.4935281  54.2235607  97.3495976  42.1953053
  54.1393795  96.7421645  41.4603463  53.4018313  97.8404994  42.1962550
  61.2972891 110.7883140  41.4086222  61.2243062 111.5938111  41.9205526
  60.8550284 110.9875106  40.5834243  61.0862670 110.0254910  34.9189043
  60.3030192 110.5676590  35.0127268  61.7855416 110.5428890  35.3183284
  64.3959320  95.8349539  37.5623248  64.8928020  95.0819502  37.2424319
  63.6246302  95.8713856  36.9966458  72.2489078 101.5389905  39.2041540
  72.2378954 102.4214620  38.8335473  71.3806457 101.1861456  39.0096077
  63.7571574 110.6869974  43.5644380  64.4699546 111.3217439  43.4920282
  63.2661603 110.7833840  42.7484382  65.4789101 104.5921227  35.1361672
  64.5445380 104.7122689  34.9666376  65.6565770 103.6893693  34.8721682
  60.9794289  97.9766922  37.2894933  60.6092077  97.4237963  37.9775839
  61.4753382  97.3725056  36.7369933  68.8661653 100.4338546  35.6711706
  69.3322105 101.2666538  35.5972009  69.3169153  99.9683528  36.3756965
  58.8083488 108.4364417  44.3849951  59.5092947 109.0700900  44.5379345
  58.3378603 108.7779149  43.6245590  66.9337884 106.7782367  32.6697858
  67.2097728 106.6638962  33.5791732  66.0642382 106.3799852  32.6310031
  66.8378315  92.8019133  39.7102607  65.9241395  93.0323360  39.8784814
  67.2671417  92.8857577  40.5616640  66.6084774 100.9909025  42.2102501
  65.9556224 101.2384932  41.5554954  66.9865154 100.1773163  41.8764979
  63.5691948 111.0268718  36.3130672  63.7514342 110.2090374  36.7758424
  64.3924934 111.2436410  35.8755562  63.9034113 109.9536903  33.5745720
  64.4321880 109.4429358  32.9615882  64.1662333 109.6379433  34.4391253
  62.6572347 101.7328836  48.6968538  61.9812984 101.6322965  49.3670914
  63.4799981 101.5768050  49.1604536  54.4051206 107.9700773  41.3181054
  54.9904643 107.2244460  41.4508958  54.2076044 108.2804729  42.2017718
  57.2589861 111.0052020  36.3343496  56.5900236 111.4898148  35.8507536
  57.1202731 111.2521240  37.2486875  48.9968861 100.5406373  40.0385497
  49.0352960 100.0069963  40.8322615  48.4909153 100.0141578  39.4196474
  61.3995130 113.0395763  42.9326154  61.9513438 113.2027385  43.6975240
  61.7401323 113.6300201  42.2606179  56.3759623  95.3870913  43.5348039
  56.4400949  96.2485744  43.1225437  56.3126743  94.7744915  42.8020398
  55.8511895  97.4594046  47.1821073  56.4783934  97.0771123  47.7958598
  54.9939814  97.2408248  47.5476766  66.2506004 107.8657021  48.7874809
  66.7945908 108.4786979  48.2929764  65.6692849 108.4236599  49.3041822
  52.6277438  99.2670475  33.1139428  52.9230879  98.3581153  33.0606482
  51.7265474  99.2458214  32.7920431  64.5363517 110.9877739  39.9189837
  64.4114656 110.1867479  39.4100782  65.1942608 111.4823932  39.4303807
  56.1571685  97.3426471  39.0966977  55.4358271  97.9562439  38.9574450
  56.9464941  97.8784236  39.0183623  66.5998425 108.7886759  41.5469387
  65.6528761 108.6692110  41.4747713  66.9481198 107.9009257  41.6295648
  58.9597999  94.6780898  45.3707629  59.4832401  94.9243194  46.1333938
  58.7410332  95.5100933  44.9510766  54.3565280  96.9484573  33.2378753
  54.0277986  96.0681951  33.0553859  54.7104650  96.8932241  34.1255143
  63.6044859 108.5839475  37.7473739  63.4569821 107.6556183  37.9281309
  64.4298352 108.6059566  37.2630814  57.4707103  97.2357542  33.6054231
  57.8103175  97.7643464  32.8832839  57.9179223  97.5737948  34.3812798
  67.2078980 109.4068034  38.8338612  68.1325528 109.2010895  38.6963063
  67.0394284 109.1584435  39.7427953  60.1650544  95.6194593  43.0557299
  59.8247364  94.8202406  43.4577979  59.4589550  95.9196304  42.4834132
  60.8167016  92.7043905  41.5084622  61.6393085  92.2304384  41.3863512
  61.0605079  93.4834389  42.0083308  59.4575250  95.7332164  31.8047524
  60.1783613  96.1113417  31.3011241  58.8340554  96.4521041  31.9082502
  63.6006373  96.4377313  32.7405856  63.8169987  97.3201951  32.4394684
  63.1200440  96.0463526  32.0111498  58.3405594  99.3963026  39.3176601
  58.1950175  99.7103329  40.2100882  57.8630798 100.0147926  38.7647499
  60.2001977  96.3865574  39.3657490  60.1863546  95.4906667  39.0289788
  60.9174405  96.3936238  39.9995776  62.0528108  96.8202914  41.4110618
  61.7945886  97.7419985  41.4094948  61.5213148  96.4233349  42.1011082
  66.9974297 109.9253701  34.1900703  67.1711174 109.3600124  33.4374556
  67.4903188 110.7254596  34.0080193  52.8151256 101.9368371  42.2564262
  52.2704725 102.7128178  42.3884536  53.6930606 102.2839175  42.0983383
  59.6038873  95.2679954  34.6345060  59.7254784  94.3396601  34.8335948
  59.3140916  95.2818640  33.7223376  62.4730064  92.9534865  37.7711780
  62.4951760  93.0174198  36.8163760  62.8898123  92.1139373  37.9652286
  72.8513688 102.6890124  35.8091003  73.2944834 101.9397450  35.4110126
  71.9740198 102.6800261  35.4264735  67.9849469 109.2420466  31.2897601
  68.6800374 109.8627159  31.5084916  68.3272619 108.3915817  31.5649979
  53.6017278 101.0638267  45.1494419  52.8599014 101.2120902  45.7359049
  53.2810023 101.3246532  44.2861168  69.8840892 106.6920171  32.8184932
  70.4092216 107.0307444  32.0934252  69.7963245 105.7567187  32.6348067
  61.5460941 110.6054245  44.9474809  61.8548067 110.3603392  45.8197508
  62.3436423 110.8100883  44.4593679  61.5681553 112.7592155  37.1780185
  61.1286543 112.2668533  37.8713042  62.3189670 112.2165122  36.9372261
  54.0473892 108.9503696  37.1804813  54.8731912 108.6507467  36.8003457
  53.6967944 108.1811318  37.6294602  59.0155425 108.3030164  39.2502487
  58.3935434 107.6400869  38.9504715  59.6860292 108.3291296  38.5676135
  52.2482497 106.8690022  38.1393747  51.4114405 106.4412196  37.9577748
  52.2206142 107.0622465  39.0764538  59.0879953  96.7811952  48.8434993
  59.1368108  97.6574075  48.4612763  59.6302467  96.2389345  48.2706636
  69.5734798 107.3253075  48.1236130  68.7830342 107.3077214  47.5840630
  69.3368153 107.8641369  48.8785167  69.6932673 104.1745541  45.4368859
  69.7430678 104.0095549  46.3784381  69.5846597 103.3072800  45.0466739
  58.5768932 106.8534087  32.7260948  58.7257052 107.5369551  32.0727620
  59.3835376 106.8339177  33.2410403  66.9836436 100.1576469  46.7528165
  67.8846299 100.0182934  46.4612163  67.0584410 100.3230924  47.6926343
  61.3179241  97.5343324  45.5981352  60.4482551  97.8276890  45.3263940
  61.5538721  98.1183769  46.3188615  71.1950870 106.5942483  45.6810880
  70.9035679 106.9572463  46.5174341  70.5823002 105.8809491  45.5024212
  72.3946553 104.1595363  38.2013450  73.2293444 104.5985167  38.3651011
  72.5305681 103.6834016  37.3821696  69.4438058 101.7175098  44.1490938
  69.9192180 101.9102744  43.3409790  68.5203624 101.7734283  43.9034322
  56.3321565 102.8799265  33.7322016  56.0867607 101.9761595  33.9302227
  56.5017480 102.8816415  32.7901494  64.0218275  93.7522941  43.1146772
  64.5400219  94.4883968  42.7893261  63.6673408  94.0586934  43.9493531
  55.6017213  98.6127622  31.2308178  54.9086458  98.6871977  30.5748214
  55.3568965  97.8487966  31.7529695  64.2730869  90.1723224  38.6347669
  64.5532623  89.5046413  39.2608095  65.0581476  90.3652319  38.1222333
  62.0764338 109.3482218  30.1972695  61.5038305 109.9672405  29.7443167
  62.6497131 109.8981579  30.7312617  68.1439727  98.5940858  42.3819244
  69.0957150  98.6938955  42.4031468  67.9743178  97.8019126  42.8917328
  66.1654107  95.6796441  42.5678645  65.5704039  95.9601454  41.8725133
  65.8803804  96.1690342  43.3395386  65.2961597 109.6319368  31.3281277
  66.2292271 109.5664929  31.5314153  65.2084810 110.4675635  30.8695810
  67.9249614 108.9485238  28.2885225  67.8463246 108.6145102  29.1820983
  68.7459281 109.4407006  28.2876697  70.6227805 101.8146977  41.4961543
  70.5904125 100.8762978  41.6821227  71.2328429 101.8931014  40.7627368
  62.4611136 100.6843030  27.5388747  63.4070241 100.5549238  27.6077166
  62.0825381  99.9457692  28.0158176  70.7722294  98.6058021  41.5419827
  70.2561342  97.8216477  41.3549756  71.6562242  98.2776737  41.7066346
  68.4333021  92.3499036  37.5015639  68.2357842  92.0414124  38.3858971
  69.0432726  93.0760675  37.6313569  74.5219652 101.0170847  41.2342031
  73.7952816 100.8826812  40.6258523  74.1066939 101.3247675  42.0398749
  62.3449829 104.7360776  48.9989404  63.2652838 104.9139375  49.1929451
  62.3099412 103.7916822  48.8469104  60.6454053  98.6093007  27.4743633
  59.7385509  98.3126119  27.5506346  60.9230034  98.3122825  26.6077919
  51.5631994  99.9299370  37.9242679  51.2434778  99.0764678  37.6317053
  51.0165422 100.1447948  38.6800646  55.3411901 102.6461811  41.6412186
  55.5597911 103.5778919  41.6600219  55.7537675 102.2869785  42.4266989
  62.2616119  93.1529896  33.6287874  61.4516847  92.8076981  34.0043120
  62.9500536  92.8437440  34.2175486  64.1906667  92.2307943  35.2512171
  64.7437706  92.6503397  35.9102194  64.4276754  91.3043691  35.2935127
  59.4152838  95.4679942  27.6155612  60.2772002  95.7934840  27.8751429
  59.6003182  94.6811438  27.1028678  51.4320254 103.5502282  39.8935801
  50.7383725 103.1356234  39.3805755  52.1793245 103.5922818  39.2969220
  67.5685474  94.3408468  34.7590835  66.9884143  94.9993272  34.3768887
  67.3021407  93.5185813  34.3478252  66.0189041  93.7413526  36.9612155
  66.5188819  93.8530061  36.1526474  66.6624649  93.4374579  37.6012964
  60.0771037 101.6492156  49.8479996  59.5938118 102.4492516  50.0543885
  60.1631976 101.6600101  48.8947440  53.3456996 103.4820535  37.7701816
  53.3227684 103.5808223  36.8183699  53.6557633 104.3285686  38.0918982
  56.0044374 105.5396690  41.8848430  56.9587628 105.5080633  41.8178362
  55.8056898 105.0787314  42.6998656  56.5943756 104.1097806  44.4519228
  57.4136645 104.6041885  44.4754065  56.8680564 103.1929775  44.4236795
  66.3510352  96.5008559  33.8147183  65.4636207  96.7858209  33.5967378
  66.7664341  96.3402322  32.9674460  69.7024889  96.5255080  37.5301522
  70.4785279  97.0151532  37.8026139  68.9773023  96.9513134  37.9873392
  72.1397447  97.2382699  38.5875463  72.7341938  96.9978435  37.8768771
  72.2124031  96.5189829  39.2148999  54.3594603 111.0816310  38.9018628
  54.2249071 110.3216711  38.3356626  53.9426665 111.8057210  38.4347417
  65.4953566 106.2653233  27.9095203  66.1989416 106.4703236  28.5252859
  64.7716215 106.8329995  28.1744287  66.3251376 102.0163095  34.0297473
  66.2686578 102.4731646  33.1905106  66.8779719 101.2553779  33.8520316
  70.1356182  97.8052827  34.8547593  69.8793116  97.4049462  35.6855801
  69.5109050  98.5196620  34.7297732  74.4468520 100.5448900  37.3618884
  73.8868078 100.6142089  38.1350446  73.8412023 100.3689884  36.6418380
  57.5163729 111.9785627  39.1137071  57.3996113 112.9231059  39.0115761
  56.6956175 111.6759188  39.5022870  67.4040263 106.7035763  29.9593663
  68.2385867 106.2716961  29.7771138  67.2424606 106.5317776  30.8870558
  67.0586155 103.2067876  31.3250003  67.0034959 103.0412147  30.3838447
  66.4332211 103.9143909  31.4812192  51.8478670  98.4435940  45.1511425
  52.4937534  97.9334894  45.6398650  51.6395822  99.1804622  45.7254850
  64.3732063 105.5116788  50.6503565  65.2423222 105.6857440  50.2890200
  63.8938814 106.3311205  50.5279295  60.3682281  92.7075985  30.9035321
  60.3560951  93.6517825  31.0603592  61.2605703  92.5246130  30.6094782
  58.5418243 112.6313889  42.3292999  59.4445490 112.6637499  42.6459494
  58.3155613 111.7014340  42.3439335  60.2971845 111.3844875  38.9903078
  59.3467476 111.3846737  38.8767450  60.6004331 110.6377610  38.4739112
  64.1834400  89.3018762  35.1581258  63.4166796  88.7477248  35.3037940
  64.5945105  89.3740630  36.0195409  56.1876161  95.5903557  49.2486439
  57.0507623  95.2340362  49.4589764  55.6141572  95.2517452  49.9361843
  76.0324538 117.2205414  40.0548840  76.6702948 117.1012161  39.3512180
  75.9145381 118.1686258  40.1136792  72.8414245 117.1732842  39.9910365
  72.5032756 117.0573907  39.1030900  73.7104013 116.7724007  39.9711371
  68.7001060 119.0268318  35.9807256  68.1365925 118.9358255  35.2123543
  68.5853455 118.2068223  36.4609748  73.3234028 118.3267694  45.9496570
  73.3122668 117.9320492  45.0777074  73.4854667 117.5933766  46.5430342
  66.2465492 120.5219510  38.8191476  67.0386784 120.1810334  38.4037775
  66.4862142 120.6314485  39.7393629  74.2800619 122.6939286  31.2921721
  73.6288599 123.2793366  30.9055734  75.0744982 123.2245481  31.3516758
  68.2056246 119.7828423  31.6908855  68.9787122 119.2357410  31.5521731
  68.5581645 120.6472672  31.9023316  70.0441289 121.1104805  44.8975754
  69.7531155 122.0150436  44.7822420  70.6798273 121.1521333  45.6119824
  70.9697496 118.4881654  41.4877114  71.5661068 118.2637676  40.7734077
  71.0272467 117.7466399  42.0902562  70.5422524 115.9421089  29.3227305
  70.7948045 115.4202610  28.5610768  69.6047083 115.7787235  29.4253988
  75.5865807 114.9456868  37.1302048  76.3728896 114.5276291  36.7792465
  75.8504511 115.8502960  37.2983696  75.7575884 120.3829718  31.8290705
  75.1221717 120.4564344  32.5411609  75.4273291 120.9723317  31.1509784
  80.9874234 114.8832101  38.0335027  81.7199406 114.3131318  38.2672856
  80.2313590 114.4953701  38.4741532  70.2618813 117.8449195  31.5251680
  70.1455071 117.1694099  32.1932764  70.3721073 117.3581569  30.7083833
  72.6050354 117.3059342  35.2298369  72.2408561 116.7789963  35.9411290
  73.4617470 116.9157811  35.0564854  78.5099654 108.5953675  42.4929635
  78.1782979 109.4649086  42.2690850  77.9145268 108.2789959  43.1723666
  72.2455841 112.3349242  30.2259717  72.4130243 113.2029478  30.5930189
  72.0553010 112.4976524  29.3021007  75.0031174 120.7966221  41.8925548
  74.7031897 121.6991260  41.7841355  74.6582233 120.5298404  42.7446701
  68.4543655 117.2480018  37.9262252  67.5294152 117.1156232  38.1339944
  68.7028069 118.0274237  38.4232195  78.4028318 113.3148761  39.5722985
  77.4945195 113.2464169  39.2781746  78.3515913 113.7920706  40.4004811
  72.2245062 114.7906899  31.2106384  72.1044687 115.2363950  32.0491865
  71.5297650 115.1392217  30.6519922  65.8152466 116.8913291  38.7606041
  65.9444848 117.1447770  39.6745453  65.1349918 117.4840999  38.4410696
  69.9851954 127.5610541  34.8596516  69.9075983 128.5118366  34.9384996
  69.3813597 127.2156414  35.5171442  72.4769183 114.7338407  47.5157882
  71.7002517 115.2932327  47.5060747  73.1159746 115.2195190  48.0372753
  80.2689964 111.5165199  41.3500859  79.6264344 111.8097733  40.7040654
  79.7644893 111.4018120  42.1554056  77.9230128 115.2628373  32.0386718
  78.8347984 115.4955759  31.8634416  77.4139775 115.8465417  31.4761797
  70.7315556 117.5423860  47.0775849  71.4730240 118.0808904  46.8010673
  70.0252541 118.1690149  47.2347401  76.2070895 119.6853000  45.6748011
  76.6154251 119.2435411  44.9302643  75.4848157 119.1105628  45.9282204
  72.5601965 114.6225607  43.0481568  73.4063161 115.0465021  43.1916217
  72.5000603 113.9659232  43.7420131  76.5299710 120.2454191  39.4300300
  75.9008572 120.4099905  38.7276368  76.1425372 120.6595801  40.2011264
  80.4088942 121.1808629  36.7844664  79.7239980 121.5607530  36.2341697
  80.4932791 121.7903956  37.5176611  75.7101411 112.2829976  44.7062742
  75.4662343 113.0372036  44.1697017  75.9861341 112.6615323  45.5409989
  77.6639874 118.8268588  43.3840007  77.8756769 119.4700348  42.7074388
  77.6169622 117.9930905  42.9161937  75.2666102 111.4386409  40.2876579
  74.4050582 111.7367662  40.5793317  75.2928537 111.6556808  39.3557612
  72.0827672 119.9828599  36.6950385  72.5466017 120.2616302  35.9055007
  71.8184470 119.0812044  36.5123476  68.9751753 119.5300081  39.6330148
  69.5453110 119.9587349  38.9947633  69.5659865 119.2482665  40.3314334
  71.0196558 116.1051752  33.5039950  71.7220601 116.5572795  33.9713876
  70.6877186 115.4635570  34.1319843  69.4676919 114.6963508  47.8791159
  68.8375580 115.3779789  48.1126556  69.3613007 114.5846590  46.9344298
  64.7621892 114.3635304  38.8057084  63.9720946 114.6192833  38.3297194
  65.2533139 115.1783642  38.9109124  78.7785701 121.7040543  41.5562364
  79.6003145 121.3020731  41.2745046  78.7748104 121.6008778  42.5078480
  66.7136637 114.7279883  35.7640560  65.9167801 114.8398578  36.2824056
  66.4862229 115.0666536  34.8981451  72.5442305 121.2524587  43.7123075
  72.6086737 121.7144994  44.5481247  71.8353229 120.6221952  43.8405385
  63.0459595 114.6165795  41.2372074  63.2967633 115.5012805  41.5029650
  63.5819143 114.4370396  40.4647166  86.8691695 118.0479292  37.9047336
  86.1155403 117.4786690  37.7491340  87.0039236 118.0141956  38.8517971
  72.2590323 122.9192694  33.5802055  72.1235997 123.7644230  34.0086903
  72.8000135 123.1211972  32.8167989  68.7457662 108.9984274  50.2416410
  68.3524608 108.4450473  50.9164055  69.5623803 109.3094852  50.6322928
  65.7119720 120.4368132  34.1529980  66.2244241 121.2311382  34.3035545
  66.3642433 119.7394423  34.0863582  67.5214605 123.5533888  36.2352734
  67.6981233 124.4751853  36.0473717  68.3171438 123.2392308  36.6647113
  71.6625623 110.4142153  47.8336667  72.4035337 111.0149306  47.7541130
  71.8943546 109.6719791  47.2754710  66.8066961 115.5998520  46.1114897
  66.6920476 114.6983778  46.4121996  65.9511479 115.8462217  45.7599713
  73.8858799 123.5416261  47.7102397  73.4422653 122.7552639  47.3923302
  74.5476013 123.7295411  47.0446288  68.6445920 125.0712062  42.2363076
  69.1953345 124.9429126  41.4640070  67.8057396 125.3706951  41.8857969
  75.9840037 123.8219061  45.7383799  75.9658512 124.6427942  45.2464068
  76.9059957 123.6973136  45.9633940  72.4413091 121.3363190  46.5807307
  72.9741428 120.5751478  46.3506615  71.9127172 121.0436842  47.3231461
  75.6082786 106.4423256  42.1100949  75.2647056 107.3324898  42.0340059
  75.9761749 106.2524914  41.2470534  63.6768637 118.7656787  34.9289551
  64.5143859 119.1753795  34.7123259  63.8546904 117.8256229  34.8989745
  75.5733069 116.4331867  30.6173384  75.0579692 117.2036472  30.8561771
  75.3010377 115.7597003  31.2406445  73.1580180 111.2781568  35.6758622
  72.3021776 110.8888418  35.4964261  73.5707132 111.3573529  34.8158408
  74.6879327 108.8127911  40.0750182  74.1844122 108.7758046  39.2617987
  74.9809933 109.7220654  40.1346839  70.9322212 108.8966641  39.0816364
  71.7975209 108.7009450  38.7222253  70.9999721 108.6676993  40.0085720
  80.5467343 119.1864222  32.5526557  79.7696786 118.8475381  32.1081719
  81.2258824 119.1916845  31.8781522  75.3619372 114.3058959  32.4433165
  75.0569508 114.6205108  33.2943308  76.3149814 114.3840379  32.4860498
  73.8065804 120.4649183  34.0926119  73.2787165 119.7301942  33.7799356
  73.3053307 121.2423859  33.8466087  78.7858650 118.6598203  39.2093165
  78.1282324 119.3497464  39.2973294  79.5899049 119.0494635  39.5527152
  68.5384531 111.1268849  36.4532731  69.1128283 110.9044030  35.7205923
  69.1255514 111.1957543  37.2061332  77.5964109 117.0142576  37.2597107
  78.1095990 117.6472568  37.7618817  78.2465333 116.4143771  36.8940467
  68.8654119 113.1573310  30.4728616  68.0291431 113.4947996  30.7937891
  68.7258888 113.0222290  29.5355753  70.8407199 108.0010098  35.1807800
  70.1871612 107.6859115  34.5564415  70.7987673 107.3785838  35.9067623
  71.9518404 118.2829393  27.0961092  71.0445466 118.0518646  27.2952241
  72.4489436 117.4867012  27.2835074  74.8586483 126.9926900  30.0157778
  74.1848182 127.2958597  30.6242736  75.2452305 127.7955980  29.6663235
  74.0744940 114.4892031  39.5055448  73.1567501 114.7106978  39.3477136
  74.4905083 114.5638342  38.6467155  74.8579987 115.8883447  34.6358128
  75.6051806 116.4004844  34.3265250  75.1271577 115.5667500  35.4962521
  73.1306637 118.3841988  31.6185082  72.2217857 118.1001021  31.7157552
  73.1601721 118.8041066  30.7588389  78.3625905 121.9948577  35.3876250
  77.9088232 121.1539487  35.4441440  77.7319872 122.6309976  35.7251030
  77.3058824 112.9240563  36.6176917  76.5681581 112.4117949  36.9487160
  77.5585598 112.4840945  35.8060194  76.8058844 123.8325074  36.3226068
  77.0981819 124.3930131  35.6038433  77.3157465 124.1253635  37.0779227
  77.4070452 105.7016815  37.2118686  77.7129329 104.8414179  36.9244602
  78.1323057 106.2934435  37.0117680  63.6994808 116.1047502  35.6000284
  63.5019208 115.5116863  34.8751351  63.1441472 115.7999712  36.3176223
  71.6791532 115.9970608  37.7194877  71.7340141 115.0444445  37.6437354
  70.8682734 116.1530047  38.2036176  72.8282725 119.9250731  28.9573161
  72.3902155 119.2086590  28.4978798  73.5693166 120.1526846  28.3958252
  69.6183891 114.6147668  35.4785256  68.8051757 114.9141839  35.8850448
  70.1142886 114.2203357  36.1959739  71.7692469 124.6105425  37.4119521
  71.7268648 124.8366271  36.4828053  72.6855168 124.3768800  37.5605322
  75.2158103 115.0789493  44.3100150  75.5707491 115.3060966  45.1694616
  75.8630234 115.4107869  43.6877406  80.9455840 118.2007928  35.0149479
  80.8073739 118.3909524  34.0870669  80.5892059 118.9627311  35.4717530
  69.1097966 112.1866024  41.0946491  69.7497346 112.0454783  40.3969455
  68.2775497 111.9000537  40.7185093  80.9725220 120.2684455  40.0260751
  81.4061726 120.1759745  40.8743805  81.6856800 120.2441956  39.3880767
  69.8858270 121.4868454  37.2081484  70.6798869 120.9918774  37.0064059
  69.1749963 120.9586317  36.8449189  74.7053115 123.8686550  41.5593851
  74.7590137 124.4377486  42.3271567  73.8367896 124.0388435  41.1947889
  66.1941034 115.6311536  33.2841236  65.2638622 115.5695991  33.5011199
  66.2898506 115.1087488  32.4877878  66.1126583 112.1566349  35.8719478
  66.3733400 113.0711682  35.7628639  66.9343755 111.6890791  36.0216091
  67.5851508 113.5704106  43.0418303  68.2574561 113.3621468  42.3930952
  66.7581294 113.3726192  42.6023535  81.8340769 120.3108156  42.5593636
  82.0276659 121.2153967  42.8052911  81.7341387 119.8515575  43.3932221
  73.4877080 110.1966047  45.0583964  72.8404995 110.8955996  44.9648440
  74.2578095 110.6302191  45.4260212  76.8955878 120.4614899  48.1334517
  76.7441384 120.2325451  47.2164600  76.8860557 121.4185500  48.1465862
  73.6641214 118.0346812  43.1180783  74.5933274 118.1857971  42.9449751
  73.2432244 118.1230832  42.2629430  72.4629546 122.0597476  40.8879321
  72.3240632 121.6916260  41.7605259  71.6744142 122.5745115  40.7163279
  73.0577698 127.1606572  32.2304857  73.2329454 126.6894616  33.0450480
  72.3710486 127.7872339  32.4586118  74.0134761 121.4379079  38.2768159
  73.6784594 121.3979849  39.1725809  73.5138707 120.7723795  37.8038569
  67.9879005 116.8446709  43.8020740  67.8498803 116.1126948  44.4032279
  68.8983929 116.7555609  43.5204928  76.9493953 118.7835113  28.5505218
  76.3323124 118.0581941  28.4538271  76.4810441 119.5444473  28.2072293
  70.6161306 116.5566668  43.2904419  71.3260924 115.9159860  43.2491038
  70.5730614 116.8079563  44.2130600  78.6048085 123.4934021  46.2110999
  78.5460631 122.8093241  45.5441582  79.0067603 124.2353011  45.7591625
  69.3290240 113.5431886  45.1100059  68.7927597 113.0922624  45.7621655
  68.7406948 113.6777795  44.3670523  67.6238783 130.3095935  39.0044718
  67.8635382 130.9414459  39.6823736  66.7807980 129.9583975  39.2910077
  68.7392499 113.0020537  27.6726523  67.8621965 112.8809338  27.3088769
  69.2150252 112.2106616  27.4205411  78.6065492 121.4573605  44.4424978
  77.7192271 121.1199527  44.5651377  79.1764043 120.7256637  44.6793744
  60.2594639 117.7897697  37.7668030  60.9465679 117.4759427  37.1789045
  60.1042768 118.6939062  37.4935281  65.0629361 112.6787894  42.1953053
  64.9787550 112.0713563  41.4603463  64.2412068 113.1696912  42.1962550
  72.1366645 126.1175058  41.4086222  72.0636817 126.9230029  41.9205526
  71.6944038 126.3167023  40.5834243  71.9256425 125.3546828  34.9189043
  71.1423947 125.8968508  35.0127268  72.6249170 125.8720807  35.3183284
  75.2353075 111.1641457  37.5623248  75.7321775 110.4111419  37.2424319
  74.4640056 111.2005774  36.9966458  83.0882832 116.8681823  39.2041540
  83.0772709 117.7506538  38.8335473  82.2200212 116.5153373  39.0096077
  74.5965329 126.0161892  43.5644380  75.3093301 126.6509357  43.4920282
  74.1055357 126.1125758  42.7484382  76.3182856 119.9213144  35.1361672
  75.3839134 120.0414607  34.9666376  76.4959524 119.0185611  34.8721682
  71.8188044 113.3058840  37.2894933  71.4485831 112.7529881  37.9775839
  72.3147136 112.7016974  36.7369933  79.7055407 115.7630464  35.6711706
  80.1715859 116.5958455  35.5972009  80.1562908 115.2975445  36.3756965
  69.6477242 123.7656335  44.3849951  70.3486702 124.3992818  44.5379345
  69.1772357 124.1071067  43.6245590  77.7731638 122.1074285  32.6697858
  78.0491482 121.9930880  33.5791732  76.9036137 121.7091770  32.6310031
  77.6772070 108.1311051  39.7102607  76.7635150 108.3615277  39.8784814
  78.1065171 108.2149495  40.5616640  77.4478528 116.3200943  42.2102501
  76.7949978 116.5676850  41.5554954  77.8258908 115.5065081  41.8764979
  74.4085702 126.3560636  36.3130672  74.5908097 125.5382292  36.7758424
  75.2318688 126.5728328  35.8755562  74.7427868 125.2828821  33.5745720
  75.2715634 124.7721275  32.9615882  75.0056087 124.9671351  34.4391253
  73.4966101 117.0620754  48.6968538  72.8206738 116.9614883  49.3670914
  74.3193735 116.9059967  49.1604536  65.2444960 123.2992690  41.3181054
  65.8298397 122.5536378  41.4508958  65.0469799 123.6096647  42.2017718
  68.0983616 126.3343938  36.3343496  67.4293991 126.8190065  35.8507536
  67.9596485 126.5813158  37.2486875  59.8362615 115.8698290  40.0385497
  59.8746715 115.3361881  40.8322615  59.3302908 115.3433496  39.4196474
  72.2388884 128.3687681  42.9326154  72.7907192 128.5319303  43.6975240
  72.5795078 128.9592119  42.2606179  67.2153377 110.7162831  43.5348039
  67.2794704 111.5777662  43.1225437  67.1520498 110.1036833  42.8020398
  66.6905650 112.7885963  47.1821073  67.3177689 112.4063041  47.7958598
  65.8333569 112.5700165  47.5476766  77.0899758 123.1948939  48.7874809
  77.6339662 123.8078897  48.2929764  76.5086603 123.7528517  49.3041822
  63.4671193 114.5962393  33.1139428  63.7624634 113.6873071  33.0606482
  62.5659228 114.5750132  32.7920431  75.3757271 126.3169657  39.9189837
  75.2508411 125.5159396  39.4100782  76.0336363 126.8115850  39.4303807
  66.9965440 112.6718389  39.0966977  66.2752025 113.2854357  38.9574450
  67.7858695 113.2076154  39.0183623  77.4392180 124.1178677  41.5469387
  76.4922515 123.9984028  41.4747713  77.7874953 123.2301175  41.6295648
  69.7991753 110.0072816  45.3707629  70.3226155 110.2535112  46.1333938
  69.5804086 110.8392850  44.9510766  65.1959034 112.2776490  33.2378753
  64.8671740 111.3973869  33.0553859  65.5498405 112.2224159  34.1255143
  74.4438613 123.9131393  37.7473739  74.2963576 122.9848100  37.9281309
  75.2692107 123.9351484  37.2630814  68.3100857 112.5649460  33.6054231
  68.6496930 113.0935381  32.8832839  68.7572978 112.9029866  34.3812798
  78.0472735 124.7359952  38.8338612  78.9719282 124.5302813  38.6963063
  77.8788038 124.4876353  39.7427953  71.0044298 110.9486511  43.0557299
  70.6641119 110.1494324  43.4577979  70.2983305 111.2488222  42.4834132
  71.6560770 108.0335823  41.5084622  72.4786839 107.5596301  41.3863512
  71.8998834 108.8126307  42.0083308  70.2969005 111.0624082  31.8047524
  71.0177367 111.4405334  31.3011241  69.6734309 111.7812958  31.9082502
  74.4400127 111.7669231  32.7405856  74.6563742 112.6493868  32.4394684
  73.9594195 111.3755444  32.0111498  69.1799349 114.7254944  39.3176601
  69.0343930 115.0395247  40.2100882  68.7024552 115.3439844  38.7647499
  71.0395732 111.7157492  39.3657490  71.0257300 110.8198585  39.0289788
  71.7568160 111.7228156  39.9995776  72.8921862 112.1494832  41.4110618
  72.6339640 113.0711903  41.4094948  72.3606903 111.7525267  42.1011082
  77.8368051 125.2545619  34.1900703  78.0104929 124.6892042  33.4374556
  78.3296942 126.0546514  34.0080193  63.6545011 117.2660288  42.2564262
  63.1098479 118.0420096  42.3884536  64.5324361 117.6131093  42.0983383
  70.4432628 110.5971872  34.6345060  70.5648539 109.6688518  34.8335948
  70.1534670 110.6110558  33.7223376  73.3123818 108.2826783  37.7711780
  73.3345515 108.3466116  36.8163760  73.7291877 107.4431291  37.9652286
  83.6907442 118.0182042  35.8091003  84.1338588 117.2689367  35.4110126
  82.8133953 118.0092178  35.4264735  78.8243224 124.5712384  31.2897601
  79.5194128 125.1919076  31.5084916  79.1666374 123.7207735  31.5649979
  64.4411033 116.3930184  45.1494419  63.6992769 116.5412820  45.7359049
  64.1203777 116.6538450  44.2861168  80.7234647 122.0212089  32.8184932
  81.2485971 122.3599362  32.0934252  80.6356999 121.0859104  32.6348067
  72.3854695 125.9346163  44.9474809  72.6941822 125.6895309  45.8197508
  73.1830178 126.1392801  44.4593679  72.4075308 128.0884072  37.1780185
  71.9680298 127.5960451  37.8713042  73.1583424 127.5457040  36.9372261
  64.8867647 124.2795613  37.1804813  65.7125666 123.9799385  36.8003457
  64.5361699 123.5103236  37.6294602  69.8549180 123.6322081  39.2502487
  69.2329189 122.9692786  38.9504715  70.5254047 123.6583213  38.5676135
  63.0876252 122.1981940  38.1393747  62.2508160 121.7704114  37.9577748
  63.0599897 122.3914383  39.0764538  69.9273707 112.1103869  48.8434993
  69.9761863 112.9865992  48.4612763  70.4696221 111.5681262  48.2706636
  80.4128553 122.6544993  48.1236130  79.6224097 122.6369132  47.5840630
  80.1761907 123.1933286  48.8785167  80.5326428 119.5037459  45.4368859
  80.5824433 119.3387467  46.3784381  80.4240351 118.6364718  45.0466739
  69.4162687 122.1826005  32.7260948  69.5650807 122.8661469  32.0727620
  70.2229130 122.1631095  33.2410403  77.8230190 115.4868387  46.7528165
  78.7240053 115.3474852  46.4612163  77.8978165 115.6522842  47.6926343
  72.1572996 112.8635242  45.5981352  71.2876305 113.1568808  45.3263940
  72.3932476 113.4475687  46.3188615  82.0344625 121.9234401  45.6810880
  81.7429433 122.2864381  46.5174341  81.4216756 121.2101409  45.5024212
  83.2340307 119.4887280  38.2013450  84.0687198 119.9277084  38.3651011
  83.3699436 119.0125934  37.3821696  80.2831813 117.0467015  44.1490938
  80.7585935 117.2394662  43.3409790  79.3597378 117.1026201  43.9034322
  67.1715320 118.2091182  33.7322016  66.9261362 117.3053512  33.9302227
  67.3411234 118.2108333  32.7901494  74.8612029 109.0814859  43.1146772
  75.3793973 109.8175886  42.7893261  74.5067162 109.3878852  43.9493531
  66.4410967 113.9419540  31.2308178  65.7480212 114.0163895  30.5748214
  66.1962719 113.1779884  31.7529695  75.1124624 105.5015141  38.6347669
  75.3926377 104.8338330  39.2608095  75.8975231 105.6944237  38.1222333
  72.9158092 124.6774135  30.1972695  72.3432059 125.2964322  29.7443167
  73.4890886 125.2273497  30.7312617  78.9833482 113.9232775  42.3819244
  79.9350905 114.0230873  42.4031468  78.8136932 113.1311044  42.8917328
  77.0047861 111.0088359  42.5678645  76.4097794 111.2893371  41.8725133
  76.7197558 111.4982259  43.3395386  76.1355352 124.9611285  31.3281277
  77.0686025 124.8956847  31.5314153  76.0478565 125.7967552  30.8695810
  78.7643369 124.2777156  28.2885225  78.6857000 123.9437019  29.1820983
  79.5853035 124.7698924  28.2876697  81.4621560 117.1438895  41.4961543
  81.4297880 116.2054896  41.6821227  82.0722183 117.2222932  40.7627368
  73.3004891 116.0134948  27.5388747  74.2463995 115.8841156  27.6077166
  72.9219136 115.2749610  28.0158176  81.6116048 113.9349938  41.5419827
  81.0955097 113.1508395  41.3549756  82.4955997 113.6068655  41.7066346
  79.2726775 107.6790954  37.5015639  79.0751596 107.3706042  38.3858971
  79.8826481 108.4052593  37.6313569  87.2798110 118.2054902  40.6367580
  88.0101498 117.9440190  41.1975284  86.6705055 117.4683624  40.6769648
  85.3613407 116.3462764  41.2342031  84.6346570 116.2118729  40.6258523
  84.9460694 116.6539593  42.0398749  73.1843583 120.0652694  48.9989404
  74.1046593 120.2431293  49.1929451  73.1493166 119.1208739  48.8469104
  71.4847808 113.9384924  27.4743633  70.5779263 113.6418037  27.5506346
  71.7623789 113.6414742  26.6077919  62.4025748 115.2591288  37.9242679
  62.0828532 114.4056596  37.6317053  61.8559176 115.4739866  38.6800646
  66.1805656 117.9753729  41.6412186  66.3991665 118.9070837  41.6600219
  66.5931430 117.6161703  42.4266989  73.1009873 108.4821814  33.6287874
  72.2910602 108.1368899  34.0043120  73.7894290 108.1729358  34.2175486
  75.0300422 107.5599861  35.2512171  75.5831460 107.9795314  35.9102194
  75.2670508 106.6335609  35.2935127  71.0533521 113.5486935  51.0314935
  70.9530248 114.4981291  50.9627026  70.8355063 113.2205173  50.1591005
  70.2546592 110.7971860  27.6155612  71.1165756 111.1226758  27.8751429
  70.4396937 110.0103355  27.1028678  62.2714008 118.8794199  39.8935801
  61.5777480 118.4648152  39.3805755  63.0186999 118.9214736  39.2969220
  78.4079229 109.6700386  34.7590835  77.8277898 110.3285190  34.3768887
  78.1415162 108.8477731  34.3478252  76.8582795 109.0705444  36.9612155
  77.3582574 109.1821978  36.1526474  77.5018403 108.7666497  37.6012964
  70.9164791 116.9784073  49.8479996  70.4331873 117.7784433  50.0543885
  71.0025730 116.9892018  48.8947440  64.1850751 118.8112453  37.7701816
  64.1621439 118.9100140  36.8183699  64.4951387 119.6577604  38.0918982
  66.8438129 120.8688608  41.8848430  67.7981382 120.8372550  41.8178362
  66.6450652 120.4079232  42.6998656  67.4337511 119.4389724  44.4519228
  68.2530400 119.9333803  44.4754065  67.7074318 118.5221692  44.4236795
  77.1904107 111.8300476  33.8147183  76.3029962 112.1150127  33.5967378
  77.6058096 111.6694240  32.9674460  80.5418643 111.8546997  37.5301522
  81.3179033 112.3443450  37.8026139  79.8166777 112.2805052  37.9873392
  82.9791202 112.5674617  38.5875463  83.5735692 112.3270353  37.8768771
  83.0517785 111.8481747  39.2148999  65.1988357 126.4108228  38.9018628
  65.0642825 125.6508628  38.3356626  64.7820420 127.1349127  38.4347417
  76.3347320 121.5945151  27.9095203  77.0383170 121.7995154  28.5252859
  75.6109969 122.1621913  28.1744287  77.1645131 117.3455012  34.0297473
  77.1080332 117.8023564  33.1905106  77.7173473 116.5845697  33.8520316
  80.9749937 113.1344744  34.8547593  80.7186871 112.7341380  35.6855801
  80.3502805 113.8488538  34.7297732  85.2862274 115.8740817  37.3618884
  84.7261832 115.9434007  38.1350446  84.6805778 115.6981802  36.6418380
  68.3557483 127.3077545  39.1137071  68.2389867 128.2522977  39.0115761
  67.5349929 127.0051106  39.5022870  78.2434018 122.0327680  29.9593663
  79.0779622 121.6008879  29.7771138  78.0818361 121.8609694  30.8870558
  77.8979910 118.5359794  31.3250003  77.8428714 118.3704065  30.3838447
  77.2725965 119.2435826  31.4812192  62.6872425 113.7727858  45.1511425
  63.3331289 113.2626812  45.6398650  62.4789576 114.5096540  45.7254850
  75.2125817 120.8408705  50.6503565  76.0816977 121.0149358  50.2890200
  74.7332569 121.6603122  50.5279295  71.2076035 108.0367903  30.9035321
  71.1954705 108.9809743  31.0603592  72.0999457 107.8538048  30.6094782
  69.3811997 127.9605806  42.3292999  70.2839244 127.9929417  42.6459494
  69.1549367 127.0306257  42.3439335  71.1365599 126.7136793  38.9903078
  70.1861230 126.7138655  38.8767450  71.4398086 125.9669528  38.4739112
  75.0228155 104.6310679  35.1581258  74.2560551 104.0769166  35.3037940
  75.4338860 104.7032548  36.0195409  67.0269916 110.9195475  49.2486439
  67.8901377 110.5632280  49.4589764  66.4535327 110.5809370  49.9361843
  86.8718293 132.5497331  40.0548840  87.5096703 132.4304079  39.3512180
  86.7539136 133.4978175  40.1136792  83.6807999 132.5024759  39.9910365
  83.3426511 132.3865824  39.1030900  84.5497767 132.1015925  39.9711371
  79.5394815 134.3560236  35.9807256  78.9759680 134.2650173  35.2123543
  79.4247210 133.5360140  36.4609748  84.1627782 133.6559611  45.9496570
  84.1516423 133.2612409  45.0777074  84.3248422 132.9225684  46.5430342
  77.0859247 135.8511428  38.8191476  77.8780539 135.5102252  38.4037775
  77.3255897 135.9606403  39.7393629  85.1194374 138.0231204  31.2921721
  84.4682353 138.6085284  30.9055734  85.9138736 138.5537399  31.3516758
  79.0450001 135.1120341  31.6908855  79.8180877 134.5649328  31.5521731
  79.3975400 135.9764590  31.9023316  80.8835043 136.4396723  44.8975754
  80.5924909 137.3442354  44.7822420  81.5192028 136.4813251  45.6119824
  81.8091250 133.8173572  41.4877114  82.4054822 133.5929594  40.7734077
  81.8666222 133.0758317  42.0902562  81.3816279 131.2713007  29.3227305
  81.6341799 130.7494528  28.5610768  80.4440838 131.1079152  29.4253988
  86.4259561 130.2748785  37.1302048  87.2122651 129.8568208  36.7792465
  86.6898266 131.1794877  37.2983696  86.5969639 135.7121636  31.8290705
  85.9615472 135.7856262  32.5411609  86.2667045 136.3015234  31.1509784
  91.8267988 130.2124018  38.0335027  92.5593160 129.6423235  38.2672856
  91.0707344 129.8245619  38.4741532  81.1012567 133.1741113  31.5251680
  80.9848825 132.4986016  32.1932764  81.2114827 132.6873487  30.7083833
  83.4444108 132.6351260  35.2298369  83.0802315 132.1081881  35.9411290
  84.3011224 132.2449729  35.0564854  89.3493409 123.9245593  42.4929635
  89.0176734 124.7941004  42.2690850  88.7539022 123.6081877  43.1723666
  83.0849595 127.6641160  30.2259717  83.2523998 128.5321396  30.5930189
  82.8946764 127.8268441  29.3021007  85.8424928 136.1258139  41.8925548
  85.5425651 137.0283177  41.7841355  85.4975988 135.8590322  42.7446701
  79.2937410 132.5771935  37.9262252  78.3687906 132.4448149  38.1339944
  79.5421823 133.3566155  38.4232195  89.2422072 128.6440679  39.5722985
  88.3338949 128.5756087  39.2781746  89.1909668 129.1212624  40.4004811
  83.0638816 130.1198817  31.2106384  82.9438441 130.5655868  32.0491865
  82.3691404 130.4684135  30.6519922  76.6546221 132.2205209  38.7606041
  76.7838602 132.4739688  39.6745453  75.9743672 132.8132917  38.4410696
  80.8245708 142.8902459  34.8596516  80.7469738 143.8410284  34.9384996
  80.2207352 142.5448331  35.5171442  83.3162938 130.0630324  47.5157882
  82.5396272 130.6224244  47.5060747  83.9553501 130.5487107  48.0372753
  91.1083719 126.8457117  41.3500859  90.4658099 127.1389650  40.7040654
  90.6038647 126.7310037  42.1554056  88.7623882 130.5920290  32.0386718
  89.6741738 130.8247677  31.8634416  88.2533529 131.1757335  31.4761797
  81.5709310 132.8715778  47.0775849  82.3123995 133.4100822  46.8010673
  80.8646296 133.4982066  47.2347401  87.0464650 135.0144918  45.6748011
  87.4548006 134.5727329  44.9302643  86.3241911 134.4397546  45.9282204
  83.3995720 129.9517525  43.0481568  84.2456915 130.3756938  43.1916217
  83.3394358 129.2951149  43.7420131  87.3693465 135.5746109  39.4300300
  86.7402327 135.7391823  38.7276368  86.9819127 135.9887718  40.2011264
  91.2482696 136.5100547  36.7844664  90.5633735 136.8899448  36.2341697
  91.3326546 137.1195873  37.5176611  86.5495165 127.6121893  44.7062742
  86.3056097 128.3663954  44.1697017  86.8255096 127.9907241  45.5409989
  88.5033628 134.1560506  43.3840007  88.7150523 134.7992266  42.7074388
  88.4563376 133.3222822  42.9161937  86.1059857 126.7678326  40.2876579
  85.2444336 127.0659580  40.5793317  86.1322292 126.9848725  39.3557612
  82.9221426 135.3120517  36.6950385  83.3859772 135.5908220  35.9055007
  82.6578224 134.4103961  36.5123476  79.8145507 134.8591998  39.6330148
  80.3846865 135.2879267  38.9947633  80.4053619 134.5774583  40.3314334
  81.8590312 131.4343669  33.5039950  82.5614356 131.8864713  33.9713876
  81.5270941 130.7927488  34.1319843  80.3070674 130.0255426  47.8791159
  79.6769335 130.7071707  48.1126556  80.2006762 129.9138507  46.9344298
  75.6015646 129.6927222  38.8057084  74.8114700 129.9484750  38.3297194
  76.0926894 130.5075560  38.9109124  89.6179456 137.0332461  41.5562364
  90.4396900 136.6312648  41.2745046  89.6141859 136.9300695  42.5078480
  77.5530392 130.0571801  35.7640560  76.7561555 130.1690495  36.2824056
  77.3255984 130.3958453  34.8981451  83.3836059 136.5816504  43.7123075
  83.4480492 137.0436912  44.5481247  82.6746983 135.9513869  43.8405385
  73.8853349 129.9457712  41.2372074  74.1361388 130.8304722  41.5029650
  74.4212898 129.7662314  40.4647166  97.7085449 133.3771210  37.9047336
  96.9549157 132.8078608  37.7491340  97.8432990 133.3433874  38.8517971
  83.0984077 138.2484612  33.5802055  82.9629752 139.0936148  34.0086903
  83.6393890 138.4503889  32.8167989  79.5851417 124.3276192  50.2416410
  79.1918362 123.7742390  50.9164055  80.4017557 124.6386770  50.6322928
  76.5513474 135.7660050  34.1529980  77.0637995 136.5603300  34.3035545
  77.2036187 135.0686340  34.0863582  78.3608359 138.8825806  36.2352734
  78.5374987 139.8043771  36.0473717  79.1565193 138.5684225  36.6647113
  82.5019378 125.7434071  47.8336667  83.2429091 126.3441224  47.7541130
  82.7337301 125.0011709  47.2754710  77.6460716 130.9290438  46.1114897
  77.5314231 130.0275695  46.4121996  76.7905233 131.1754135  45.7599713
  84.7252553 138.8708178  47.7102397  84.2816408 138.0844557  47.3923302
  85.3869767 139.0587329  47.0446288  79.4839675 140.4003980  42.2363076
  80.0347100 140.2721043  41.4640070  78.6451151 140.6998869  41.8857969
  86.8233792 139.1510978  45.7383799  86.8052267 139.9719859  45.2464068
  87.7453712 139.0265053  45.9633940  83.2806846 136.6655108  46.5807307
  83.8135182 135.9043396  46.3506615  82.7520927 136.3728760  47.3231461
  86.4476541 121.7715174  42.1100949  86.1040810 122.6616815  42.0340059
  86.8155503 121.5816831  41.2470534  74.5162391 134.0948704  34.9289551
  75.3537613 134.5045713  34.7123259  74.6940659 133.1548146  34.8989745
  86.4126823 131.7623785  30.6173384  85.8973447 132.5328389  30.8561771
  86.1404132 131.0888921  31.2406445  83.9973934 126.6073486  35.6758622
  83.1415531 126.2180336  35.4964261  84.4100886 126.6865446  34.8158408
  85.5273081 124.1419829  40.0750182  85.0237877 124.1049964  39.2617987
  85.8203688 125.0512572  40.1346839  81.7715967 124.2258559  39.0816364
  82.6368964 124.0301367  38.7222253  81.8393476 123.9968910  40.0085720
  91.3861097 134.5156139  32.5526557  90.6090540 134.1767299  32.1081719
  92.0652578 134.5208763  31.8781522  86.2013127 129.6350877  32.4433165
  85.8963262 129.9497026  33.2943308  87.1543569 129.7132297  32.4860498
  84.6459558 135.7941100  34.0926119  84.1180920 135.0593860  33.7799356
  84.1447061 136.5715777  33.8466087  89.6252404 133.9890121  39.2093165
  88.9676079 134.6789382  39.2973294  90.4292804 134.3786553  39.5527152
  79.3778286 126.4560767  36.4532731  79.9522038 126.2335948  35.7205923
  79.9649268 126.5249461  37.2061332  88.4357863 132.3434493  37.2597107
  88.9489745 132.9764485  37.7618817  89.0859087 131.7435689  36.8940467
  79.7047873 128.4865228  30.4728616  78.8685185 128.8239914  30.7937891
  79.5652643 128.3514207  29.5355753  81.6800954 123.3302015  35.1807800
  81.0265366 123.0151033  34.5564415  81.6381428 122.7077756  35.9067623
  82.7912159 133.6121311  27.0961092  81.8839220 133.3810564  27.2952241
  83.2883191 132.8158930  27.2835074  85.6980237 142.3218818  30.0157778
  85.0241936 142.6250514  30.6242736  86.0846059 143.1247898  29.6663235
  84.9138694 129.8183949  39.5055448  83.9961255 130.0398896  39.3477136
  85.3298838 129.8930259  38.6467155  85.6973742 131.2175365  34.6358128
  86.4445561 131.7296762  34.3265250  85.9665331 130.8959417  35.4962521
  83.9700392 133.7133905  31.6185082  83.0611611 133.4292938  31.7157552
  83.9995476 134.1332984  30.7588389  89.2019659 137.3240495  35.3876250
  88.7481987 136.4831405  35.4441440  88.5713626 137.9601893  35.7251030
  88.1452579 128.2532481  36.6176917  87.4075336 127.7409867  36.9487160
  88.3979352 127.8132863  35.8060194  87.6452599 139.1616992  36.3226068
  87.9375573 139.7222049  35.6038433  88.1551219 139.4545553  37.0779227
  88.2464206 121.0308733  37.2118686  88.5523083 120.1706096  36.9244602
  88.9716811 121.6226353  37.0117680  74.5388562 131.4339419  35.6000284
  74.3412962 130.8408780  34.8751351  73.9835226 131.1291630  36.3176223
  82.5185286 131.3262526  37.7194877  82.5733896 130.3736362  37.6437354
  81.7076488 131.4821965  38.2036176  83.6676480 135.2542649  28.9573161
  83.2295910 134.5378508  28.4978798  84.4086921 135.4818764  28.3958252
  80.4577646 129.9439586  35.4785256  79.6445511 130.2433756  35.8850448
  80.9536640 129.5495274  36.1959739  82.6086224 139.9397343  37.4119521
  82.5662403 140.1658189  36.4828053  83.5248923 139.7060717  37.5605322
  86.0551858 130.4081410  44.3100150  86.4101245 130.6352883  45.1694616
  86.7023989 130.7399787  43.6877406  91.7849595 133.5299846  35.0149479
  91.6467493 133.7201442  34.0870669  91.4285813 134.2919229  35.4717530
  79.9491721 127.5157941  41.0946491  80.5891100 127.3746700  40.3969455
  79.1169251 127.2292455  40.7185093  91.8118974 135.5976373  40.0260751
  92.2455481 135.5051662  40.8743805  92.5250555 135.5733874  39.3880767
  80.7252025 136.8160372  37.2081484  81.5192623 136.3210692  37.0064059
  80.0143717 136.2878235  36.8449189  85.5446869 139.1978467  41.5593851
  85.5983891 139.7669404  42.3271567  84.6761650 139.3680352  41.1947889
  77.0334788 130.9603453  33.2841236  76.1032376 130.8987909  33.5011199
  77.1292260 130.4379406  32.4877878  76.9520337 127.4858266  35.8719478
  77.2127154 128.4003599  35.7628639  77.7737509 127.0182709  36.0216091
  78.4245262 128.8996023  43.0418303  79.0968316 128.6913386  42.3930952
  77.5975049 128.7018109  42.6023535  92.6734524 135.6400074  42.5593636
  92.8670414 136.5445884  42.8052911  92.5735142 135.1807493  43.3932221
  84.3270834 125.5257964  45.0583964  83.6798750 126.2247914  44.9648440
  85.0971850 125.9594108  45.4260212  87.7349632 135.7906816  48.1334517
  87.5835139 135.5617368  47.2164600  87.7254312 136.7477418  48.1465862
  84.5034969 133.3638729  43.1180783  85.4327029 133.5149889  42.9449751
  84.0825999 133.4522750  42.2629430  83.3023301 137.3889394  40.8879321
  83.1634386 137.0208178  41.7605259  82.5137897 137.9037033  40.7163279
  83.8971453 142.4898490  32.2304857  84.0723208 142.0186533  33.0450480
  83.2104241 143.1164256  32.4586118  84.8528516 136.7670996  38.2768159
  84.5178348 136.7271766  39.1725809  84.3532461 136.1015712  37.8038569
  78.8272760 132.1738626  43.8020740  78.6892558 131.4418865  44.4032279
  79.7377683 132.0847526  43.5204928  87.7887707 134.1127031  28.5505218
  87.1716878 133.3873859  28.4538271  87.3204196 134.8736391  28.2072293
  81.4555060 131.8858586  43.2904419  82.1654679 131.2451778  43.2491038
  81.4124369 132.1371481  44.2130600  89.4441839 138.8225939  46.2110999
  89.3854385 138.1385159  45.5441582  89.8461357 139.5644929  45.7591625
  80.1683994 128.8723804  45.1100059  79.6321351 128.4214542  45.7621655
  79.5800703 129.0069712  44.3670523  78.4632538 145.6387853  39.0044718
  78.7029136 146.2706377  39.6823736  77.6201734 145.2875893  39.2910077
  79.5786253 128.3312455  27.6726523  78.7015720 128.2101256  27.3088769
  80.0544006 127.5398533  27.4205411  89.4459246 136.7865523  44.4424978
  88.5586025 136.4491445  44.5651377  90.0157797 136.0548554  44.6793744
  71.0988393 133.1189615  37.7668030  71.7859433 132.8051345  37.1789045
  70.9436522 134.0230979  37.4935281  75.9023116 128.0079811  42.1953053
  75.8181304 127.4005481  41.4603463  75.0805822 128.4988830  42.1962550
  82.9760400 141.4466975  41.4086222  82.9030571 142.2521947  41.9205526
  82.5337793 141.6458941  40.5834243  82.7650179 140.6838745  34.9189043
  81.9817701 141.2260426  35.0127268  83.4642925 141.2012725  35.3183284
  86.0746829 126.4933375  37.5623248  86.5715529 125.7403337  37.2424319
  85.3033811 126.5297691  36.9966458  93.9276587 132.1973740  39.2041540
  93.9166463 133.0798456  38.8335473  93.0593966 131.8445291  39.0096077
  85.4359083 141.3453809  43.5644380  86.1487055 141.9801274  43.4920282
  84.9449112 141.4417675  42.7484382  87.1576610 135.2505062  35.1361672
  86.2232889 135.3706524  34.9666376  87.3353279 134.3477529  34.8721682
  82.6581798 128.6350758  37.2894933  82.2879586 128.0821798  37.9775839
  83.1540891 128.0308891  36.7369933  90.5449161 131.0922381  35.6711706
  91.0109614 131.9250373  35.5972009  90.9956662 130.6267363  36.3756965
  80.4870997 139.0948253  44.3849951  81.1880456 139.7284736  44.5379345
  80.0166112 139.4362984  43.6245590  88.6125393 137.4366203  32.6697858
  88.8885237 137.3222797  33.5791732  87.7429891 137.0383687  32.6310031
  88.5165824 123.4602968  39.7102607  87.6028904 123.6907195  39.8784814
  88.9458926 123.5441412  40.5616640  88.2872283 131.6492860  42.2102501
  87.6343733 131.8968768  41.5554954  88.6652663 130.8356998  41.8764979
  85.2479457 141.6852553  36.3130672  85.4301851 140.8674209  36.7758424
  86.0712443 141.9020246  35.8755562  85.5821622 140.6120739  33.5745720
  86.1109389 140.1013193  32.9615882  85.8449842 140.2963269  34.4391253
  84.3359856 132.3912671  48.6968538  83.6600493 132.2906801  49.3670914
  85.1587490 132.2351885  49.1604536  76.0838715 138.6284608  41.3181054
  76.6692152 137.8828296  41.4508958  75.8863553 138.9388565  42.2017718
  78.9377370 141.6635855  36.3343496  78.2687745 142.1481983  35.8507536
  78.7990240 141.9105076  37.2486875  70.6756370 131.1990208  40.0385497
  70.7140469 130.6653799  40.8322615  70.1696662 130.6725414  39.4196474
  83.0782639 143.6979599  42.9326154  83.6300947 143.8611220  43.6975240
  83.4188832 144.2884037  42.2606179  78.0547132 126.0454749  43.5348039
  78.1188458 126.9069579  43.1225437  77.9914252 125.4328750  42.8020398
  77.5299404 128.1177881  47.1821073  78.1571443 127.7354958  47.7958598
  76.6727323 127.8992083  47.5476766  87.9293513 138.5240856  48.7874809
  88.4733417 139.1370815  48.2929764  87.3480358 139.0820435  49.3041822
  74.3064947 129.9254310  33.1139428  74.6018388 129.0164989  33.0606482
  73.4052983 129.9042050  32.7920431  86.2151026 141.6461574  39.9189837
  86.0902165 140.8451314  39.4100782  86.8730117 142.1407768  39.4303807
  77.8359194 128.0010307  39.0966977  77.1145780 128.6146275  38.9574450
  78.6252450 128.5368072  39.0183623  88.2785934 139.4470594  41.5469387
  87.3316270 139.3275946  41.4747713  88.6268707 138.5593092  41.6295648
  80.6385508 125.3364733  45.3707629  81.1619909 125.5827030  46.1333938
  80.4197841 126.1684768  44.9510766  76.0352789 127.6068408  33.2378753
  75.7065495 126.7265787  33.0553859  76.3892159 127.5516077  34.1255143
  85.2832368 139.2423311  37.7473739  85.1357330 138.3140018  37.9281309
  86.1085861 139.2643401  37.2630814  79.1494612 127.8941378  33.6054231
  79.4890684 128.4227299  32.8832839  79.5966732 128.2321784  34.3812798
  88.8866489 140.0651869  38.8338612  89.8113037 139.8594731  38.6963063
  88.7181793 139.8168271  39.7427953  81.8438053 126.2778428  43.0557299
  81.5034873 125.4786241  43.4577979  81.1377059 126.5780139  42.4834132
  82.4954525 123.3627741  41.5084622  83.3180594 122.8888219  41.3863512
  82.7392588 124.1418225  42.0083308  81.1362759 126.3915999  31.8047524
  81.8571122 126.7697252  31.3011241  80.5128063 127.1104876  31.9082502
  85.2793882 127.0961148  32.7405856  85.4957496 127.9785786  32.4394684
  84.7987949 126.7047362  32.0111498  80.0193103 130.0546861  39.3176601
  79.8737684 130.3687165  40.2100882  79.5418307 130.6731762  38.7647499
  81.8789486 127.0449409  39.3657490  81.8651055 126.1490503  39.0289788
  82.5961914 127.0520073  39.9995776  83.7315617 127.4786750  41.4110618
  83.4733395 128.4003820  41.4094948  83.2000657 127.0817184  42.1011082
  88.6761806 140.5837537  34.1900703  88.8498683 140.0183959  33.4374556
  89.1690697 141.3838432  34.0080193  74.4938765 132.5952206  42.2564262
  73.9492234 133.3712014  42.3884536  75.3718115 132.9423010  42.0983383
  81.2826382 125.9263790  34.6345060  81.4042293 124.9980436  34.8335948
  80.9928424 125.9402476  33.7223376  84.1517573 123.6118700  37.7711780
  84.1739269 123.6758033  36.8163760  84.5685632 122.7723209  37.9652286
  94.5301197 133.3473960  35.8091003  94.9732343 132.5981285  35.4110126
  93.6527707 133.3384096  35.4264735  89.6636978 139.9004301  31.2897601
  90.3587883 140.5210994  31.5084916  90.0060128 139.0499652  31.5649979
  75.2804787 131.7222102  45.1494419  74.5386523 131.8704737  45.7359049
  74.9597532 131.9830368  44.2861168  91.5628401 137.3504007  32.8184932
  92.0879725 137.6891279  32.0934252  91.4750754 136.4151022  32.6348067
  83.2248450 141.2638080  44.9474809  83.5335576 141.0187227  45.8197508
  84.0223932 141.4684719  44.4593679  83.2469062 143.4175990  37.1780185
  82.8074052 142.9252369  37.8713042  83.9977179 142.8748958  36.9372261
  75.7261401 139.6087531  37.1804813  76.5519421 139.3091303  36.8003457
  75.3755453 138.8395153  37.6294602  80.6942934 138.9613999  39.2502487
  80.0722943 138.2984704  38.9504715  81.3647801 138.9875131  38.5676135
  73.9270006 137.5273857  38.1393747  73.0901914 137.0996032  37.9577748
  73.8993651 137.7206301  39.0764538  80.7667462 127.4395787  48.8434993
  80.8155617 128.3157910  48.4612763  81.3089976 126.8973180  48.2706636
  91.2522307 137.9836910  48.1236130  90.4617851 137.9661049  47.5840630
  91.0155662 138.5225204  48.8785167  91.3720182 134.8329377  45.4368859
  91.4218187 134.6679384  46.3784381  91.2634106 133.9656636  45.0466739
  80.2556441 137.5117922  32.7260948  80.4044561 138.1953387  32.0727620
  81.0622885 137.4923012  33.2410403  88.6623945 130.8160305  46.7528165
  89.5633808 130.6766770  46.4612163  88.7371919 130.9814760  47.6926343
  82.9966750 128.1927160  45.5981352  82.1270060 128.4860726  45.3263940
  83.2326230 128.7767605  46.3188615  92.8738379 137.2526318  45.6810880
  92.5823188 137.6156299  46.5174341  92.2610510 136.5393327  45.5024212
  94.0734062 134.8179198  38.2013450  94.9080953 135.2569002  38.3651011
  94.2093190 134.3417851  37.3821696  91.1225567 132.3758933  44.1490938
  91.5979689 132.5686579  43.3409790  90.1991133 132.4318119  43.9034322
  78.0109074 133.5383100  33.7322016  77.7655116 132.6345430  33.9302227
  78.1804989 133.5400251  32.7901494  85.7005784 124.4106776  43.1146772
  86.2187728 125.1467803  42.7893261  85.3460917 124.7170770  43.9493531
  77.2804722 129.2711458  31.2308178  76.5873967 129.3455813  30.5748214
  77.0356473 128.5071801  31.7529695  85.9518378 120.8307059  38.6347669
  86.2320132 120.1630248  39.2608095  86.7368985 121.0236155  38.1222333
  83.7551847 140.0066053  30.1972695  83.1825814 140.6256240  29.7443167
  84.3284640 140.5565415  30.7312617  89.8227236 129.2524693  42.3819244
  90.7744659 129.3522791  42.4031468  89.6530687 128.4602962  42.8917328
  87.8441616 126.3380276  42.5678645  87.2491548 126.6185289  41.8725133
  87.5591313 126.8274177  43.3395386  86.9749106 140.2903203  31.3281277
  87.9079780 140.2248765  31.5314153  86.8872319 141.1259470  30.8695810
  89.6037123 139.6069073  28.2885225  89.5250755 139.2728937  29.1820983
  90.4246790 140.0990841  28.2876697  92.3015314 132.4730813  41.4961543
  92.2691634 131.5346813  41.6821227  92.9115938 132.5514849  40.7627368
  84.1398645 131.3426866  27.5388747  85.0857750 131.2133074  27.6077166
  83.7612890 130.6041528  28.0158176  92.4509803 129.2641856  41.5419827
  91.9348851 128.4800313  41.3549756  93.3349751 128.9360573  41.7066346
  90.1120530 123.0082872  37.5015639  89.9145351 122.6997960  38.3858971
  90.7220235 123.7344511  37.6313569  98.1191864 133.5346820  40.6367580
  98.8495253 133.2732108  41.1975284  97.5098810 132.7975541  40.6769648
  96.2007161 131.6754682  41.2342031  95.4740325 131.5410647  40.6258523
  95.7854448 131.9831511  42.0398749  84.0237338 135.3944612  48.9989404
  84.9440347 135.5723211  49.1929451  83.9886921 134.4500657  48.8469104
  82.3241562 129.2676842  27.4743633  81.4173018 128.9709955  27.5506346
  82.6017543 128.9706660  26.6077919  73.2419503 130.5883205  37.9242679
  72.9222287 129.7348514  37.6317053  72.6952931 130.8031784  38.6800646
  77.0199410 133.3045646  41.6412186  77.2385420 134.2362754  41.6600219
  77.4325184 132.9453621  42.4266989  83.9403628 123.8113732  33.6287874
  83.1304356 123.4660817  34.0043120  84.6288045 123.5021275  34.2175486
  85.8694176 122.8891779  35.2512171  86.4225215 123.3087232  35.9102194
  86.1064263 121.9627527  35.2935127  81.8927275 128.8778852  51.0314935
  81.7924002 129.8273209  50.9627026  81.6748818 128.5497091  50.1591005
  81.0940347 126.1263777  27.6155612  81.9559511 126.4518676  27.8751429
  81.2790691 125.3395273  27.1028678  73.1107763 134.2086117  39.8935801
  72.4171234 133.7940070  39.3805755  73.8580754 134.2506653  39.2969220
  89.2472983 124.9992304  34.7590835  88.6671652 125.6577108  34.3768887
  88.9808916 124.1769648  34.3478252  87.6976550 124.3997361  36.9612155
  88.1976328 124.5113896  36.1526474  88.3412158 124.0958414  37.6012964
  81.7558546 132.3075991  49.8479996  81.2725627 133.1076351  50.0543885
  81.8419485 132.3183936  48.8947440  75.0244505 134.1404371  37.7701816
  75.0015193 134.2392058  36.8183699  75.3345142 134.9869521  38.0918982
  77.6831883 136.1980526  41.8848430  78.6375137 136.1664468  41.8178362
  77.4844407 135.7371149  42.6998656  78.2731265 134.7681642  44.4519228
  79.0924154 135.2625720  44.4754065  78.5468073 133.8513610  44.4236795
  88.0297861 127.1592394  33.8147183  87.1423716 127.4442045  33.5967378
  88.4451850 126.9986157  32.9674460  91.3812398 127.1838915  37.5301522
  92.1572788 127.6735368  37.8026139  90.6560532 127.6096969  37.9873392
  93.8184956 127.8966534  38.5875463  94.4129447 127.6562270  37.8768771
  93.8911540 127.1773665  39.2148999  76.0382112 141.7400145  38.9018628
  75.9036580 140.9800546  38.3356626  75.6214174 142.4641045  38.4347417
  87.1741075 136.9237069  27.9095203  87.8776925 137.1287071  28.5252859
  86.4503724 137.4913831  28.1744287  88.0038885 132.6746930  34.0297473
  87.9474087 133.1315481  33.1905106  88.5567228 131.9137615  33.8520316
  91.8143691 128.4636662  34.8547593  91.5580625 128.0633298  35.6855801
  91.1896559 129.1780456  34.7297732  96.1256029 131.2032735  37.3618884
  95.5655587 131.2725924  38.1350446  95.5199532 131.0273720  36.6418380
  79.1951238 142.6369462  39.1137071  79.0783622 143.5814895  39.0115761
  78.3743684 142.3343024  39.5022870  89.0827772 137.3619598  29.9593663
  89.9173376 136.9300796  29.7771138  88.9212115 137.1901612  30.8870558
  88.7373664 133.8651711  31.3250003  88.6822468 133.6995983  30.3838447
  88.1119720 134.5727744  31.4812192  73.5266179 129.1019776  45.1511425
  74.1725043 128.5918730  45.6398650  73.3183331 129.8388457  45.7254850
  86.0519572 136.1700623  50.6503565  86.9210731 136.3441275  50.2890200
  85.5726323 136.9895040  50.5279295  82.0469790 123.3659820  30.9035321
  82.0348460 124.3101660  31.0603592  82.9393212 123.1829966  30.6094782
  80.2205752 143.2897724  42.3292999  81.1232999 143.3221334  42.6459494
  79.9943122 142.3598175  42.3439335  81.9759354 142.0428711  38.9903078
  81.0254985 142.0430572  38.8767450  82.2791840 141.2961445  38.4739112
  85.8621909 119.9602597  35.1581258  85.0954305 119.4061084  35.3037940
  86.2732614 120.0324466  36.0195409  77.8663670 126.2487393  49.2486439
  78.7295132 125.8924198  49.4589764  77.2929081 125.9101288  49.9361843
  97.7112047 147.8789249  40.0548840  98.3490457 147.7595996  39.3512180
  97.5932890 148.8270093  40.1136792  94.5201754 147.8316677  39.9910365
  94.1820265 147.7157742  39.1030900  95.3891522 147.4307842  39.9711371
  90.3788569 149.6852154  35.9807256  89.8153434 149.5942091  35.2123543
  90.2640964 148.8652058  36.4609748  95.0021537 148.9851529  45.9496570
  94.9910177 148.5904327  45.0777074  95.1642176 148.2517602  46.5430342
  87.9253001 151.1803345  38.8191476  88.7174293 150.8394170  38.4037775
  88.1649651 151.2898320  39.7393629  89.8843755 150.4412258  31.6908855
  90.6574631 149.8941246  31.5521731  90.2369154 151.3056508  31.9023316
  91.7228798 151.7688641  44.8975754  91.4318664 152.6734272  44.7822420
  92.3585782 151.8105168  45.6119824  92.6485005 149.1465489  41.4877114
  93.2448577 148.9221512  40.7734077  92.7059976 148.4050235  42.0902562
  92.2210033 146.6004925  29.3227305  92.4735554 146.0786446  28.5610768
  91.2834592 146.4371070  29.4253988  97.2653316 145.6040703  37.1302048
  98.0516405 145.1860126  36.7792465  97.5292020 146.5086795  37.2983696
 102.6661743 145.5415936  38.0335027 103.3986915 144.9715153  38.2672856
 101.9101099 145.1537537  38.4741532  91.9406322 148.5033031  31.5251680
  91.8242580 147.8277934  32.1932764  92.0508582 148.0165404  30.7083833
  94.2837863 147.9643178  35.2298369  93.9196070 147.4373799  35.9411290
  95.1404979 147.5741647  35.0564854 100.1887163 139.2537510  42.4929635
  99.8570488 140.1232921  42.2690850  99.5932777 138.9373794  43.1723666
  93.9243350 142.9933077  30.2259717  94.0917752 143.8613314  30.5930189
  93.7340519 143.1560359  29.3021007  96.6818683 151.4550056  41.8925548
  96.3819406 152.3575095  41.7841355  96.3369742 151.1882239  42.7446701
  90.1331164 147.9063853  37.9262252  89.2081661 147.7740067  38.1339944
  90.3815578 148.6858072  38.4232195 100.0815827 143.9732596  39.5722985
  99.1732704 143.9048005  39.2781746 100.0303422 144.4504541  40.4004811
  93.9032571 145.4490735  31.2106384  93.7832196 145.8947786  32.0491865
  93.2085159 145.7976052  30.6519922  87.4939975 147.5497127  38.7606041
  87.6232357 147.8031606  39.6745453  86.8137427 148.1424835  38.4410696
  91.6639463 158.2194377  34.8596516  91.5863492 159.1702202  34.9384996
  91.0601106 157.8740249  35.5171442  94.1556692 145.3922242  47.5157882
  93.3790026 145.9516162  47.5060747  94.7947255 145.8779025  48.0372753
 101.9477473 142.1749035  41.3500859 101.3051853 142.4681568  40.7040654
 101.4432402 142.0601955  42.1554056  99.6017637 145.9212208  32.0386718
 100.5135493 146.1539595  31.8634416  99.0927284 146.5049252  31.4761797
  92.4103065 148.2007695  47.0775849  93.1517749 148.7392739  46.8010673
  91.7040050 148.8273984  47.2347401  97.8858404 150.3436836  45.6748011
  98.2941760 149.9019246  44.9302643  97.1635666 149.7689463  45.9282204
  94.2389474 145.2809443  43.0481568  95.0850670 145.7048856  43.1916217
  94.1788112 144.6243067  43.7420131  98.2087219 150.9038026  39.4300300
  97.5796081 151.0683741  38.7276368  97.8212881 151.3179636  40.2011264
 102.0876451 151.8392464  36.7844664 101.4027489 152.2191366  36.2341697
 102.1720300 152.4487791  37.5176611  97.3888920 142.9413811  44.7062742
  97.1449852 143.6955871  44.1697017  97.6648850 143.3199159  45.5409989
  99.3427383 149.4852423  43.3840007  99.5544278 150.1284183  42.7074388
  99.2957131 148.6514740  42.9161937  96.9453611 142.0970244  40.2876579
  96.0838090 142.3951498  40.5793317  96.9716046 142.3140643  39.3557612
  93.7615181 150.6412435  36.6950385  94.2253526 150.9200138  35.9055007
  93.4971979 149.7395879  36.5123476  90.6539262 150.1883916  39.6330148
  91.2240619 150.6171184  38.9947633  91.2447374 149.9066501  40.3314334
  92.6984067 146.7635587  33.5039950  93.4008110 147.2156631  33.9713876
  92.3664695 146.1219406  34.1319843  91.1464428 145.3547344  47.8791159
  90.5163089 146.0363624  48.1126556  91.0400516 145.2430425  46.9344298
  86.4409401 145.0219140  38.8057084  85.6508455 145.2776668  38.3297194
  86.9320648 145.8367477  38.9109124 100.4573210 152.3624379  41.5562364
 101.2790654 151.9604566  41.2745046 100.4535613 152.2592613  42.5078480
  88.3924146 145.3863719  35.7640560  87.5955310 145.4982413  36.2824056
  88.1649738 145.7250371  34.8981451  94.2229814 151.9108422  43.7123075
  94.2874246 152.3728829  44.5481247  93.5140738 151.2805787  43.8405385
  84.7247104 145.2749630  41.2372074  84.9755142 146.1596640  41.5029650
  85.2606652 145.0954232  40.4647166 108.5479204 148.7063127  37.9047336
 107.7942912 148.1370525  37.7491340 108.6826745 148.6725792  38.8517971
  93.9377832 153.5776530  33.5802055  93.8023506 154.4228065  34.0086903
  94.4787644 153.7795807  32.8167989  90.4245171 139.6568109  50.2416410
  90.0312117 139.1034308  50.9164055  91.2411312 139.9678688  50.6322928
  87.3907229 151.0951968  34.1529980  87.9031750 151.8895218  34.3035545
  88.0429942 150.3978258  34.0863582  89.2002114 154.2117724  36.2352734
  89.3768742 155.1335689  36.0473717  89.9958947 153.8976143  36.6647113
  93.3413132 141.0725988  47.8336667  94.0822846 141.6733142  47.7541130
  93.5731055 140.3303626  47.2754710  88.4854470 146.2582356  46.1114897
  88.3707985 145.3567613  46.4121996  87.6298988 146.5046052  45.7599713
  95.5646308 154.2000096  47.7102397  95.1210162 153.4136475  47.3923302
  96.2263522 154.3879247  47.0446288  90.3233429 155.7295898  42.2363076
  90.8740854 155.6012961  41.4640070  89.4844905 156.0290787  41.8857969
  97.6627546 154.4802896  45.7383799  97.6446021 155.3011777  45.2464068
  98.5847466 154.3556971  45.9633940  94.1200600 151.9947025  46.5807307
  94.6528937 151.2335314  46.3506615  93.5914681 151.7020677  47.3231461
  97.2870295 137.1007091  42.1100949  96.9434565 137.9908733  42.0340059
  97.6549258 136.9108749  41.2470534  85.3556146 149.4240622  34.9289551
  86.1931368 149.8337630  34.7123259  85.5334413 148.4840064  34.8989745
  97.2520578 147.0915703  30.6173384  96.7367201 147.8620307  30.8561771
  96.9797886 146.4180839  31.2406445  94.8367689 141.9365403  35.6758622
  93.9809285 141.5472254  35.4964261  95.2494641 142.0157364  34.8158408
  96.3666836 139.4711747  40.0750182  95.8631631 139.4341882  39.2617987
  96.6597442 140.3804489  40.1346839  92.6109721 139.5550476  39.0816364
  93.4762718 139.3593285  38.7222253  92.6787230 139.3260828  40.0085720
  97.0406881 144.9642795  32.4433165  96.7357017 145.2788944  33.2943308
  97.9937323 145.0424214  32.4860498  95.4853313 151.1233018  34.0926119
  94.9574674 150.3885777  33.7799356  94.9840816 151.9007694  33.8466087
 100.4646159 149.3182038  39.2093165  99.8069833 150.0081300  39.2973294
 101.2686558 149.7078470  39.5527152  90.2172040 141.7852684  36.4532731
  90.7915792 141.5627866  35.7205923  90.8043023 141.8541379  37.2061332
  99.2751618 147.6726411  37.2597107  99.7883499 148.3056403  37.7618817
  99.9252842 147.0727607  36.8940467  90.5441628 143.8157145  30.4728616
  89.7078940 144.1531832  30.7937891  90.4046397 143.6806125  29.5355753
  92.5194708 138.6593933  35.1807800  91.8659121 138.3442950  34.5564415
  92.4775182 138.0369674  35.9067623  95.7532449 145.1475867  39.5055448
  94.8355010 145.3690814  39.3477136  96.1692592 145.2222177  38.6467155
  96.5367496 146.5467282  34.6358128  97.2839315 147.0588680  34.3265250
  96.8059086 146.2251335  35.4962521  94.8094146 149.0425823  31.6185082
  93.9005366 148.7584856  31.7157552  94.8389230 149.4624902  30.7588389
 100.0413414 152.6532413  35.3876250  99.5875741 151.8123322  35.4441440
  99.4107381 153.2893811  35.7251030  98.9846333 143.5824399  36.6176917
  98.2469090 143.0701785  36.9487160  99.2373107 143.1424780  35.8060194
  98.4846353 154.4908909  36.3226068  98.7769328 155.0513966  35.6038433
  98.9944974 154.7837470  37.0779227  99.0857961 136.3600651  37.2118686
  99.3916838 135.4998014  36.9244602  99.8110566 136.9518271  37.0117680
  85.3782317 146.7631337  35.6000284  85.1806717 146.1700698  34.8751351
  84.8228981 146.4583547  36.3176223  93.3579041 146.6554444  37.7194877
  93.4127650 145.7028280  37.6437354  92.5470243 146.8113883  38.2036176
  91.2971400 145.2731503  35.4785256  90.4839266 145.5725674  35.8850448
  91.7930395 144.8787192  36.1959739  93.4479978 155.2689260  37.4119521
  93.4056157 155.4950107  36.4828053  94.3642677 155.0352635  37.5605322
  96.8945612 145.7373328  44.3100150  97.2495000 145.9644801  45.1694616
  97.5417743 146.0691705  43.6877406 102.6243349 148.8591764  35.0149479
 102.4861248 149.0493360  34.0870669 102.2679568 149.6211147  35.4717530
  90.7885475 142.8449859  41.0946491  91.4284855 142.7038618  40.3969455
  89.9563006 142.5584372  40.7185093 102.6512729 150.9268291  40.0260751
 103.0849235 150.8343580  40.8743805 103.3644309 150.9025791  39.3880767
  91.5645779 152.1452289  37.2081484  92.3586378 151.6502609  37.0064059
  90.8537471 151.6170152  36.8449189  96.3840624 154.5270385  41.5593851
  96.4377646 155.0961321  42.3271567  95.5155405 154.6972270  41.1947889
  87.8728543 146.2895371  33.2841236  86.9426131 146.2279827  33.5011199
  87.9686015 145.7671324  32.4877878  87.7914092 142.8150184  35.8719478
  88.0520909 143.7295517  35.7628639  88.6131264 142.3474626  36.0216091
  89.2639017 144.2287941  43.0418303  89.9362070 144.0205303  42.3930952
  88.4368803 144.0310027  42.6023535 103.5128278 150.9691991  42.5593636
 103.7064168 151.8737802  42.8052911 103.4128896 150.5099410  43.3932221
  95.1664589 140.8549882  45.0583964  94.5192504 141.5539832  44.9648440
  95.9365604 141.2886026  45.4260212  98.5743387 151.1198734  48.1334517
  98.4228893 150.8909286  47.2164600  98.5648066 152.0769336  48.1465862
  95.3428723 148.6930647  43.1180783  96.2720783 148.8441807  42.9449751
  94.9219753 148.7814668  42.2629430  94.1417055 152.7181311  40.8879321
  94.0028141 152.3500096  41.7605259  93.3531651 153.2328951  40.7163279
  95.6922270 152.0962914  38.2768159  95.3572103 152.0563684  39.1725809
  95.1926216 151.4307630  37.8038569  89.6666514 147.5030544  43.8020740
  89.5286312 146.7710783  44.4032279  90.5771438 147.4139444  43.5204928
  92.2948815 147.2150503  43.2904419  93.0048433 146.5743696  43.2491038
  92.2518123 147.4663398  44.2130600 100.2835594 154.1517857  46.2110999
 100.2248140 153.4677077  45.5441582 100.6855112 154.8936847  45.7591625
  91.0077749 144.2015721  45.1100059  90.4715106 143.7506460  45.7621655
  90.4194457 144.3361630  44.3670523  89.3026292 160.9679771  39.0044718
  89.5422891 161.5998295  39.6823736  88.4595489 160.6167811  39.2910077
  90.4180008 143.6604373  27.6726523  89.5409474 143.5393173  27.3088769
  90.8937761 142.8690451  27.4205411 100.2853001 152.1157441  44.4424978
  99.3979780 151.7783362  44.5651377 100.8551552 151.3840472  44.6793744
  81.9382148 148.4481532  37.7668030  82.6253188 148.1343262  37.1789045
  81.7830277 149.3522897  37.4935281  86.7416870 143.3371729  42.1953053
  86.6575059 142.7297399  41.4603463  85.9199576 143.8280747  42.1962550
  93.8154154 156.7758893  41.4086222  93.7424326 157.5813865  41.9205526
  93.3731547 156.9750859  40.5834243  93.6043934 156.0130663  34.9189043
  92.8211456 156.5552343  35.0127268  94.3036679 156.5304643  35.3183284
  96.9140584 141.8225292  37.5623248  97.4109283 141.0695255  37.2424319
  96.1427565 141.8589609  36.9966458 104.7670341 147.5265658  39.2041540
 104.7560218 148.4090373  38.8335473 103.8987721 147.1737209  39.0096077
  96.2752838 156.6745727  43.5644380  96.9880810 157.3093192  43.4920282
  95.7842866 156.7709593  42.7484382  97.9970365 150.5796980  35.1361672
  97.0626643 150.6998442  34.9666376  98.1747033 149.6769446  34.8721682
  93.4975553 143.9642675  37.2894933  93.1273340 143.4113716  37.9775839
  93.9934645 143.3600809  36.7369933 101.3842916 146.4214299  35.6711706
 101.8503368 147.2542291  35.5972009 101.8350416 145.9559281  36.3756965
  91.3264751 154.4240171  44.3849951  92.0274211 155.0576653  44.5379345
  90.8559866 154.7654902  43.6245590  99.3559579 138.7894886  39.7102607
  98.4422659 139.0199113  39.8784814  99.7852680 138.8733330  40.5616640
  99.1266037 146.9784778  42.2102501  98.4737487 147.2260685  41.5554954
  99.5046417 146.1648916  41.8764979  96.0873211 157.0144471  36.3130672
  96.2695606 156.1966127  36.7758424  96.9106197 157.2312163  35.8755562
  95.1753610 147.7204589  48.6968538  94.4994247 147.6198718  49.3670914
  95.9981244 147.5643803  49.1604536  86.9232469 153.9576526  41.3181054
  87.5085906 153.2120213  41.4508958  86.7257308 154.2680482  42.2017718
  89.7771125 156.9927773  36.3343496  89.1081500 157.4773901  35.8507536
  89.6383994 157.2396993  37.2486875  81.5150124 146.5282126  40.0385497
  81.5534224 145.9945716  40.8322615  81.0090417 146.0017331  39.4196474
  93.9176393 159.0271516  42.9326154  94.4694701 159.1903138  43.6975240
  94.2582587 159.6175954  42.2606179  88.8940886 141.3746666  43.5348039
  88.9582213 142.2361497  43.1225437  88.8308007 140.7620668  42.8020398
  88.3693159 143.4469799  47.1821073  88.9965198 143.0646876  47.7958598
  87.5121078 143.2284001  47.5476766  98.7687267 153.8532774  48.7874809
  99.3127171 154.4662732  48.2929764  98.1874112 154.4112352  49.3041822
  85.1458702 145.2546228  33.1139428  85.4412143 144.3456906  33.0606482
  84.2446737 145.2333967  32.7920431  97.0544780 156.9753492  39.9189837
  96.9295920 156.1743232  39.4100782  97.7123872 157.4699685  39.4303807
  88.6752949 143.3302224  39.0966977  87.9539534 143.9438192  38.9574450
  89.4646204 143.8659989  39.0183623  99.1179689 154.7762512  41.5469387
  98.1710024 154.6567863  41.4747713  99.4662462 153.8885010  41.6295648
  91.4779262 140.6656651  45.3707629  92.0013664 140.9118948  46.1333938
  91.2591595 141.4976686  44.9510766  86.8746543 142.9360326  33.2378753
  86.5459249 142.0557704  33.0553859  87.2285914 142.8807994  34.1255143
  96.1226122 154.5715228  37.7473739  95.9751085 153.6431936  37.9281309
  96.9479616 154.5935319  37.2630814  89.9888366 143.2233295  33.6054231
  90.3284439 143.7519217  32.8832839  90.4360487 143.5613701  34.3812798
  99.7260244 155.3943787  38.8338612 100.6506791 155.1886648  38.6963063
  99.5575547 155.1460188  39.7427953  92.6831807 141.6070346  43.0557299
  92.3428628 140.8078159  43.4577979  91.9770813 141.9072057  42.4834132
  93.3348279 138.6919659  41.5084622  94.1574348 138.2180137  41.3863512
  93.5786343 139.4710142  42.0083308  91.9756514 141.7207917  31.8047524
  92.6964876 142.0989170  31.3011241  91.3521818 142.4396794  31.9082502
  96.1187636 142.4253066  32.7405856  96.3351251 143.3077704  32.4394684
  95.6381704 142.0339279  32.0111498  90.8586858 145.3838779  39.3176601
  90.7131439 145.6979082  40.2100882  90.3812061 146.0023679  38.7647499
  92.7183241 142.3741327  39.3657490  92.7044809 141.4782420  39.0289788
  93.4355669 142.3811991  39.9995776  94.5709371 142.8078667  41.4110618
  94.3127149 143.7295738  41.4094948  94.0394412 142.4109102  42.1011082
  85.3332520 147.9244124  42.2564262  84.7885988 148.7003932  42.3884536
  86.2111870 148.2714928  42.0983383  92.1220137 141.2555707  34.6345060
  92.2436048 140.3272354  34.8335948  91.8322179 141.2694393  33.7223376
  94.9911327 138.9410618  37.7711780  95.0133024 139.0049951  36.8163760
  95.4079386 138.1015126  37.9652286 105.3694951 148.6765877  35.8091003
 105.8126097 147.9273203  35.4110126 104.4921462 148.6676014  35.4264735
  86.1198542 147.0514020  45.1494419  85.3780278 147.1996655  45.7359049
  85.7991286 147.3122285  44.2861168  94.0642204 156.5929998  44.9474809
  94.3729331 156.3479145  45.8197508  94.8617686 156.7976637  44.4593679
  94.0862817 158.7467908  37.1780185  93.6467807 158.2544286  37.8713042
  94.8370933 158.2040875  36.9372261  86.5655155 154.9379449  37.1804813
  87.3913175 154.6383220  36.8003457  86.2149207 154.1687071  37.6294602
  91.5336689 154.2905917  39.2502487  90.9116698 153.6276622  38.9504715
  92.2041556 154.3167049  38.5676135  84.7663761 152.8565775  38.1393747
  83.9295669 152.4287949  37.9577748  84.7387406 153.0498218  39.0764538
  91.6061216 142.7687705  48.8434993  91.6549372 143.6449828  48.4612763
  92.1483730 142.2265098  48.2706636 102.0916062 153.3128828  48.1236130
 101.3011606 153.2952967  47.5840630 101.8549416 153.8517122  48.8785167
 102.2113937 150.1621294  45.4368859 102.2611942 149.9971302  46.3784381
 102.1027860 149.2948553  45.0466739  91.0950196 152.8409840  32.7260948
  91.2438316 153.5245304  32.0727620  91.9016639 152.8214930  33.2410403
  99.5017699 146.1452222  46.7528165 100.4027562 146.0058687  46.4612163
  99.5765674 146.3106677  47.6926343  93.8360505 143.5219077  45.5981352
  92.9663814 143.8152643  45.3263940  94.0719985 144.1059522  46.3188615
 103.7132134 152.5818236  45.6810880 103.4216942 152.9448216  46.5174341
 103.1004265 151.8685244  45.5024212 104.9127816 150.1471116  38.2013450
 105.7474707 150.5860920  38.3651011 105.0486945 149.6709769  37.3821696
 101.9619322 147.7050851  44.1490938 102.4373444 147.8978497  43.3409790
 101.0384887 147.7610036  43.9034322  88.8502829 148.8675018  33.7322016
  88.6048870 147.9637348  33.9302227  89.0198743 148.8692168  32.7901494
  96.5399538 139.7398694  43.1146772  97.0581482 140.4759721  42.7893261
  96.1854671 140.0462687  43.9493531  88.1198476 144.6003375  31.2308178
  87.4267721 144.6747730  30.5748214  87.8750228 143.8363719  31.7529695
  96.7912133 136.1598977  38.6347669  97.0713886 135.4922166  39.2608095
  97.5762740 136.3528072  38.1222333 100.6620991 144.5816611  42.3819244
 101.6138414 144.6814708  42.4031468 100.4924441 143.7894879  42.8917328
  98.6835370 141.6672194  42.5678645  98.0885303 141.9477207  41.8725133
  98.3985067 142.1566095  43.3395386 103.1409069 147.8022730  41.4961543
 103.1085389 146.8638731  41.6821227 103.7509692 147.8806767  40.7627368
 103.2903557 144.5933774  41.5419827 102.7742606 143.8092230  41.3549756
 104.1743506 144.2652490  41.7066346 100.9514284 138.3374789  37.5015639
 100.7539105 138.0289878  38.3858971 101.5613990 139.0636428  37.6313569
 108.9585619 148.8638737  40.6367580 109.6889007 148.6024025  41.1975284
 108.3492564 148.1267459  40.6769648 107.0400916 147.0046600  41.2342031
 106.3134079 146.8702565  40.6258523 106.6248203 147.3123428  42.0398749
  94.8631092 150.7236529  48.9989404  95.7834102 150.9015128  49.1929451
  94.8280675 149.7792575  48.8469104  93.1635317 144.5968760  27.4743633
  92.2566772 144.3001872  27.5506346  93.4411298 144.2998578  26.6077919
  84.0813257 145.9175123  37.9242679  83.7616041 145.0640431  37.6317053
  83.5346685 146.1323701  38.6800646  87.8593165 148.6337564  41.6412186
  88.0779174 149.5654672  41.6600219  88.2718938 148.2745539  42.4266989
  94.7797382 139.1405649  33.6287874  93.9698111 138.7952734  34.0043120
  95.4681799 138.8313193  34.2175486  96.7087931 138.2183696  35.2512171
  97.2618969 138.6379150  35.9102194  96.9458017 137.2919444  35.2935127
  92.7321030 144.2070770  51.0314935  92.6317757 145.1565127  50.9627026
  92.5142572 143.8789009  50.1591005  91.9334101 141.4555695  27.6155612
  92.7953265 141.7810593  27.8751429  92.1184446 140.6687191  27.1028678
  83.9501517 149.5378035  39.8935801  83.2564989 149.1231987  39.3805755
  84.6974508 149.5798571  39.2969220 100.0866738 140.3284221  34.7590835
  99.5065407 140.9869025  34.3768887  99.8202671 139.5061566  34.3478252
  98.5370304 139.7289279  36.9612155  99.0370083 139.8405814  36.1526474
  99.1805912 139.4250332  37.6012964  92.5952300 147.6367909  49.8479996
  92.1119382 148.4368269  50.0543885  92.6813239 147.6475854  48.8947440
  85.8638260 149.4696288  37.7701816  85.8408948 149.5683976  36.8183699
  86.1738896 150.3161439  38.0918982  88.5225638 151.5272443  41.8848430
  89.4768891 151.4956386  41.8178362  88.3238161 151.0663067  42.6998656
  89.1125020 150.0973559  44.4519228  89.9317909 150.5917638  44.4754065
  89.3861827 149.1805528  44.4236795  98.8691616 142.4884312  33.8147183
  97.9817471 142.7733962  33.5967378  99.2845605 142.3278075  32.9674460
 102.2206152 142.5130833  37.5301522 102.9966542 143.0027285  37.8026139
 101.4954286 142.9388887  37.9873392 104.6578711 143.2258452  38.5875463
 105.2523201 142.9854188  37.8768771 104.7305294 142.5065583  39.2148999
  86.8775866 157.0692063  38.9018628  86.7430334 156.3092464  38.3356626
  86.4607929 157.7932963  38.4347417  98.8432640 148.0038848  34.0297473
  98.7867841 148.4607399  33.1905106  99.3960982 147.2429532  33.8520316
 102.6537446 143.7928580  34.8547593 102.3974380 143.3925215  35.6855801
 102.0290314 144.5072373  34.7297732 106.9649783 146.5324653  37.3618884
 106.4049341 146.6017842  38.1350446 106.3593287 146.3565637  36.6418380
  90.0344992 157.9661380  39.1137071  89.9177376 158.9106812  39.0115761
  89.2137438 157.6634941  39.5022870  84.3659934 144.4311693  45.1511425
  85.0118798 143.9210647  45.6398650  84.1577085 145.1680375  45.7254850
  96.8913326 151.4992541  50.6503565  97.7604486 151.6733193  50.2890200
  96.4120078 152.3186958  50.5279295  92.8863544 138.6951738  30.9035321
  92.8742214 139.6393578  31.0603592  93.7786966 138.5121883  30.6094782
  91.0599506 158.6189642  42.3292999  91.9626753 158.6513252  42.6459494
  90.8336876 157.6890093  42.3439335  92.8153108 157.3720628  38.9903078
  91.8648739 157.3722490  38.8767450  93.1185594 156.6253363  38.4739112
  96.7015664 135.2894515  35.1581258  95.9348060 134.7353001  35.3037940
  97.1126369 135.3616383  36.0195409  88.7057425 141.5779310  49.2486439
  89.5688886 141.2216115  49.4589764  88.1322836 141.2393205  49.9361843
 105.8415291 164.3143447  45.9496570 105.8303932 163.9196245  45.0777074
 106.0035931 163.5809519  46.5430342 102.5622552 167.0980558  44.8975754
 102.2712418 168.0026189  44.7822420 103.1979537 167.1397086  45.6119824
 111.0280918 154.5829428  42.4929635 110.6964243 155.4524839  42.2690850
 110.4326531 154.2665712  43.1723666 104.9950447 160.7214160  47.5157882
 104.2183781 161.2808080  47.5060747 105.6341010 161.2070943  48.0372753
 103.2496819 163.5299613  47.0775849 103.9911504 164.0684657  46.8010673
 102.5433805 164.1565902  47.2347401 105.0783229 160.6101360  43.0481568
 105.9244424 161.0340774  43.1916217 105.0181867 159.9534985  43.7420131
 108.2282674 158.2705729  44.7062742 107.9843606 159.0247789  44.1697017
 108.5042605 158.6491076  45.5409989 101.9858183 160.6839261  47.8791159
 101.3556844 161.3655542  48.1126556 101.8794271 160.5722343  46.9344298
  97.2803155 160.3511057  38.8057084  96.4902209 160.6068586  38.3297194
  97.7714403 161.1659395  38.9109124  95.5640858 160.6041548  41.2372074
  95.8148897 161.4888558  41.5029650  96.1000407 160.4246149  40.4647166
 101.2638926 154.9860027  50.2416410 100.8705871 154.4326226  50.9164055
 102.0805066 155.2970606  50.6322928 104.1806887 156.4017906  47.8336667
 104.9216600 157.0025059  47.7541130 104.4124809 155.6595544  47.2754710
  99.3248225 161.5874273  46.1114897  99.2101740 160.6859531  46.4121996
  98.4692742 161.8337970  45.7599713 104.9594355 167.3238943  46.5807307
 105.4922691 166.5627231  46.3506615 104.4308436 167.0312595  47.3231461
 108.1264050 152.4299009  42.1100949 107.7828319 153.3200651  42.0340059
 108.4943012 152.2400667  41.2470534 107.2060590 154.8003664  40.0750182
 106.7025386 154.7633799  39.2617987 107.4991197 155.7096407  40.1346839
 103.4503476 154.8842394  39.0816364 104.3156473 154.6885203  38.7222253
 103.5180985 154.6552746  40.0085720 107.7339367 161.0665246  44.3100150
 108.0888754 161.2936719  45.1694616 108.3811498 161.3983622  43.6877406
 101.6279230 158.1741777  41.0946491 102.2678609 158.0330536  40.3969455
 100.7956760 157.8876290  40.7185093 100.1032771 159.5579859  43.0418303
 100.7755825 159.3497221  42.3930952  99.2762558 159.3601945  42.6023535
 106.0058343 156.1841800  45.0583964 105.3586258 156.8831749  44.9648440
 106.7759359 156.6177944  45.4260212 109.4137141 166.4490652  48.1334517
 109.2622648 166.2201204  47.2164600 109.4041821 167.4061253  48.1465862
 100.5060269 162.8322462  43.8020740 100.3680067 162.1002701  44.4032279
 101.4165192 162.7431362  43.5204928 103.1342569 162.5442421  43.2904419
 103.8442188 161.9035613  43.2491038 103.0911878 162.7955316  44.2130600
 101.8471503 159.5307639  45.1100059 101.3108860 159.0798377  45.7621655
 101.2588212 159.6653548  44.3670523  97.5810625 158.6663647  42.1953053
  97.4968813 158.0589316  41.4603463  96.7593331 159.1572665  42.1962550
 110.1953333 154.1186804  39.7102607 109.2816413 154.3491031  39.8784814
 110.6246435 154.2025248  40.5616640 106.0147365 163.0496507  48.6968538
 105.3388002 162.9490636  49.3670914 106.8374999 162.8935720  49.1604536
  92.3543879 161.8574043  40.0385497  92.3927978 161.3237634  40.8322615
  91.8484171 161.3309249  39.4196474  99.7334641 156.7038584  43.5348039
  99.7975967 157.5653415  43.1225437  99.6701761 156.0912586  42.8020398
  99.2086913 158.7761716  47.1821073  99.8358952 158.3938794  47.7958598
  98.3514832 158.5575918  47.5476766  99.5146703 158.6594142  39.0966977
  98.7933289 159.2730110  38.9574450 100.3039959 159.1951907  39.0183623
 102.3173017 155.9948569  45.3707629 102.8407418 156.2410865  46.1333938
 102.0985350 156.8268603  44.9510766 103.5225562 156.9362264  43.0557299
 103.1822382 156.1370077  43.4577979 102.8164568 157.2363975  42.4834132
 104.1742034 154.0211576  41.5084622 104.9968103 153.5472054  41.3863512
 104.4180097 154.8002060  42.0083308 103.5576995 157.7033245  39.3657490
 103.5438564 156.8074338  39.0289788 104.2749423 157.7103909  39.9995776
 105.4103126 158.1370585  41.4110618 105.1520904 159.0587656  41.4094948
 104.8788166 157.7401020  42.1011082  96.1726274 163.2536041  42.2564262
  95.6279743 164.0295849  42.3884536  97.0505624 163.6006846  42.0983383
  96.9592296 162.3805937  45.1494419  96.2174032 162.5288573  45.7359049
  96.6385041 162.6414203  44.2861168 102.4454971 158.0979622  48.8434993
 102.4943126 158.9741745  48.4612763 102.9877485 157.5557016  48.2706636
 110.3411454 161.4744140  46.7528165 111.2421317 161.3350605  46.4612163
 110.4159428 161.6398595  47.6926343 104.6754259 158.8510995  45.5981352
 103.8057568 159.1444561  45.3263940 104.9113739 159.4351440  46.3188615
 107.3793293 155.0690612  43.1146772 107.8975237 155.8051639  42.7893261
 107.0248426 155.3754605  43.9493531 107.6305887 151.4890894  38.6347669
 107.9107641 150.8214083  39.2608095 108.4156494 151.6819990  38.1222333
 109.5229125 156.9964112  42.5678645 108.9279057 157.2769124  41.8725133
 109.2378822 157.4858012  43.3395386 105.7024847 166.0528447  48.9989404
 106.6227856 166.2307046  49.1929451 105.6674430 165.1084492  48.8469104
  94.9207012 161.2467041  37.9242679  94.6009796 160.3932349  37.6317053
  94.3740440 161.4615619  38.6800646  98.6986919 163.9629482  41.6412186
  98.9172929 164.8946590  41.6600219  99.1112693 163.6037456  42.4266989
 103.5714784 159.5362688  51.0314935 103.4711511 160.4857044  50.9627026
 103.3536327 159.2080926  50.1591005  94.7895272 164.8669952  39.8935801
  94.0958743 164.4523905  39.3805755  95.5368263 164.9090489  39.2969220
 103.4346055 162.9659826  49.8479996 102.9513136 163.7660186  50.0543885
 103.5206994 162.9767771  48.8947440  99.9518774 165.4265477  44.4519228
 100.7711663 165.9209556  44.4754065 100.2255582 164.5097445  44.4236795
  95.2053688 159.7603611  45.1511425  95.8512552 159.2502565  45.6398650
  94.9970840 160.4972293  45.7254850 107.7307081 166.8284458  50.6503565
 108.5998240 167.0025111  50.2890200 107.2513832 167.6478875  50.5279295
  99.5451179 156.9071228  49.2486439 100.4082641 156.5508033  49.4589764
  98.9716590 156.5685123  49.9361843  29.9659011  34.0162145  32.6741877
  29.9547652  33.6214944  31.8022380  30.1279650  33.2828218  33.2675648
  26.6866272  36.7999257  31.6221061  26.3956138  37.7044888  31.5067727
  27.3223256  36.8415785  32.3365130  31.6456157  36.4860673  28.6170854
  31.3456880  37.3885712  28.5086662  31.3007217  36.2192856  29.4692007
  29.1194167  30.4232859  34.2403189  28.3427501  30.9826779  34.2306054
  29.7584730  30.9089642  34.7618059  27.3740539  33.2318312  33.8021156
  28.1155223  33.7703356  33.5255980  26.6677524  33.8584601  33.9592708
  32.8495879  35.3747452  32.3993318  33.2579235  34.9329863  31.6547950
  32.1273140  34.8000080  32.6527510  32.3526394  27.9724427  31.4308048
  32.1087326  28.7266488  30.8942324  32.6286325  28.3509775  32.2655295
  34.3064857  34.5163040  30.1085314  34.5181752  35.1594800  29.4319695
  34.2594605  33.6825356  29.6407244  26.1101903  30.3857960  34.6036466
  25.4800563  31.0674241  34.8371863  26.0037991  30.2741042  33.6589604
  35.4210685  37.3934995  28.2807671  36.2428128  36.9915183  27.9990353
  35.4173088  37.2903229  29.2323787  29.1867288  36.9419039  30.4368382
  29.2511721  37.4039446  31.2726553  28.4778212  36.3116403  30.5650691
  43.5116678  33.7373744  24.6292643  42.7580386  33.1681142  24.4736647
  43.6464219  33.7036408  25.5763277  25.3882646  24.6878726  36.9661717
  24.9949591  24.1344924  37.6409361  26.2048786  24.9989304  37.3568235
  30.5283782  39.2310713  34.4347704  30.0847636  38.4447091  34.1168608
  31.1900996  39.4189863  33.7691595  25.2870903  40.7606514  28.9608383
  25.8378329  40.6323578  28.1885376  24.4482379  41.0601403  28.6103275
  32.6265020  39.5113512  32.4629105  32.6083496  40.3322394  31.9709374
  33.5484940  39.3867588  32.6879246  29.0838074  37.0257642  33.3052614
  29.6166411  36.2645930  33.0751922  28.5552156  36.7331294  34.0476768
  31.8583086  30.7683944  31.0345457  32.2132474  30.9955418  31.8939923
  32.5055218  31.1002321  30.4122712  37.6150203  35.9578907  26.7506057
  38.0486710  35.8654196  27.5989111  38.3281784  35.9336408  26.1126073
  31.3478098  39.5581001  28.2839158  31.4015120  40.1271938  29.0516874
  30.4792879  39.7282886  27.9193195  38.4765753  36.0002608  29.2838943
  38.6701643  36.9048418  29.5298218  38.3766371  35.5410027  30.1177528
  33.5380861  36.1509351  34.8579823  33.3866368  35.9219902  33.9409907
  33.5285541  37.1079952  34.8711168  30.3066198  33.7241263  29.8426090
  31.2358258  33.8752423  29.6695057  29.8857228  33.8125284  28.9874736
  29.1054529  37.7491928  27.6124628  28.9665615  37.3810712  28.4850566
  28.3169126  38.2639567  27.4408585  35.2473068  39.1828473  32.9356305
  35.1885614  38.4987693  32.2686888  35.6492586  39.9247463  32.4836931
  24.2663767  45.9990387  25.7290024  24.5060365  46.6308911  26.4069043
  23.4232963  45.6478427  26.0155383  35.2490475  37.1468057  31.1670285
  34.3617254  36.8093979  31.2896684  35.8189026  36.4151088  31.4039050
  28.7791629  41.8069510  28.1331528  28.7061800  42.6124481  28.6450833
  28.3369022  42.0061475  27.3079550  31.2390312  41.7056344  30.2889687
  31.9518284  42.3403808  30.2165588  30.7480341  41.8020210  29.4729689
  26.2902226  39.4550787  31.1095258  26.9911685  40.0887270  31.2624652
  25.8197341  39.7965519  30.3490897  34.0903512  32.0095394  28.9347808
  33.4374962  32.2571302  28.2800261  34.4683891  31.1959533  28.6010285
  30.1391085  32.7515206  35.4213845  29.4631722  32.6509335  36.0916220
  30.9618718  32.5954419  35.8849842  28.8813867  44.0582133  29.6571461
  29.4332175  44.2213754  30.4220546  29.2220061  44.6486571  28.9851486
  33.7324742  38.8843391  35.5120116  34.2764646  39.4973349  35.0175070
  33.1511587  39.4422969  36.0287129  32.0182255  42.0064109  26.6435143
  31.8933394  41.2053848  26.1346089  32.6761346  42.5010302  26.1549113
  34.0817163  39.8073129  28.2714693  33.1347499  39.6878480  28.1993020
  34.4299936  38.9195627  28.3540955  34.6897718  40.4254404  25.5583918
  35.6144266  40.2197265  25.4208369  34.5213022  40.1770805  26.4673260
  29.0279679  41.6240615  31.6720115  29.3366805  41.3789761  32.5442815
  29.8255161  41.8287253  31.1838986  29.0500291  43.7778524  23.9025492
  28.6105281  43.2854903  24.5958349  29.8008408  43.2351492  23.6617567
  26.5698690  27.7998321  35.5680300  26.6186846  28.6760444  35.1858069
  27.1121205  27.2575714  34.9951943  37.0553536  38.3439445  34.8481437
  36.2649080  38.3263583  34.3085936  36.8186891  38.8827738  35.6030473
  37.1751411  35.1931911  32.1614165  37.2249416  35.0281918  33.1029688
  37.0665335  34.3259170  31.7712046  34.4655174  31.1762839  33.4773472
  35.3665036  31.0369304  33.1857470  34.5403148  31.3417294  34.4171649
  38.6769608  37.6128852  32.4056187  38.3854416  37.9758833  33.2419648
  38.0641739  36.8995861  32.2269519  39.8765290  35.1781732  24.9258757
  40.7112182  35.6171536  25.0896317  40.0124419  34.7020385  24.1067003
  36.9256796  32.7361467  30.8736245  37.4010918  32.9289113  30.0655096
  36.0022362  32.7920653  30.6279629  35.6258465  29.6127227  29.1064550
  36.5775888  29.7125325  29.1276774  35.4561916  28.8205496  29.6162635
  38.1046543  32.8333347  28.2206850  38.0722863  31.8949348  28.4066534
  38.7147167  32.9117384  27.4872675  43.9223093  33.8949354  27.3612887
  44.6526481  33.6334642  27.9220590  43.3130038  33.1578076  27.4014955
  42.0038390  32.0357216  27.9587338  41.2771554  31.9013181  27.3503830
  41.5885677  32.3434045  28.7644056  29.8268566  35.7547146  35.7234711
  30.7471576  35.9325745  35.9174758  29.7918149  34.8103191  35.5714410
  27.6958504  29.2381386  37.7560241  27.5955231  30.1875743  37.6872332
  27.4780046  28.9099625  36.8836311  27.5589774  32.6678525  36.5725303
  27.0756856  33.4678885  36.7789192  27.6450713  32.6786470  35.6192747
  24.0762494  35.1284176  31.1764534  24.8955383  35.6228255  31.1999372
  24.3499302  34.2116144  31.1482102  24.9982467  42.9971996  25.8382377
  24.8814851  43.9417429  25.7361067  24.1774913  42.6945558  26.2268176
  31.8550800  36.5303157  37.3748872  32.7241960  36.7043810  37.0135507
  31.3757552  37.3497574  37.2524601  26.0236981  43.6500258  29.0538306
  26.9264227  43.6823869  29.3704801  25.7974351  42.7200709  29.0684641
  27.7790583  42.4031245  25.7148384  26.8286214  42.4033106  25.6012756
  28.0823069  41.6563979  25.1984419  23.6694899  26.6089927  35.9731746
  24.5326361  26.2526732  36.1835070  23.0960310  26.2703822  36.6607150
  43.5143276  48.2391783  26.7794147  44.1521686  48.1198531  26.0757487
  43.3964119  49.1872627  26.8382099  40.3232982  48.1919211  26.7155671
  39.9851494  48.0760276  25.8276206  41.1922751  47.7910376  26.6956677
  36.1819798  50.0454688  22.7052562  35.6184663  49.9544625  21.9368850
  36.0672193  49.2254592  23.1855055  40.8052765  49.3454063  32.6741877
  40.7941406  48.9506861  31.8022380  40.9673405  48.6120136  33.2675648
  33.7284230  51.5405879  25.5436783  34.5205522  51.1996704  25.1283082
  33.9680880  51.6500854  26.4638936  41.7619357  53.7125655  18.0167027
  41.1107337  54.2979736  17.6301041  42.5563720  54.2431850  18.0762065
  35.6874984  50.8014793  18.4154162  36.4605860  50.2543780  18.2767037
  36.0400383  51.6659042  18.6268623  37.5260027  52.1291175  31.6221061
  37.2349893  53.0336806  31.5067727  38.1617011  52.1707703  32.3365130
  38.4516233  49.5068023  28.2122420  39.0479806  49.2824046  27.4979383
  38.5091205  48.7652769  28.8147868  43.0684545  45.9643237  23.8547355
  43.8547634  45.5462660  23.5037772  43.3323249  46.8689329  24.0229003
  43.2394622  51.4016087  18.5536011  42.6040455  51.4750714  19.2656916
  42.9092028  51.9909686  17.8755091  48.4692972  45.9018470  24.7580333
  49.2018144  45.3317687  24.9918163  47.7132327  45.5140071  25.1986839
  37.7437551  48.8635565  18.2496986  37.6273809  48.1880468  18.9178071
  37.8539810  48.3767939  17.4329139  40.0869091  48.3245712  21.9543676
  39.7227299  47.7976333  22.6656597  40.9436207  47.9344181  21.7810161
  45.9918392  39.6140044  29.2174942  45.6601717  40.4835455  28.9936157
  45.3964006  39.2976328  29.8968972  42.4849912  51.8152590  28.6170854
  42.1850635  52.7177629  28.5086662  42.1400971  51.5484774  29.4692007
  35.9362393  48.2666387  24.6507559  35.0112890  48.1342601  24.8585251
  36.1846806  49.0460607  25.1477501  45.8847055  44.3335131  26.2968292
  44.9763933  44.2650539  26.0027053  45.8334651  44.8107076  27.1250117
  33.2971204  47.9099661  25.4851348  33.4263585  48.1634140  26.3990760
  32.6168655  48.5027369  25.1656003  37.4670691  58.5796911  21.5841822
  37.3894721  59.5304736  21.6630303  36.8632335  58.2342783  22.2416748
  39.9587921  45.7524776  34.2403189  39.1821255  46.3118696  34.2306054
  40.5978484  46.2381559  34.7618059  47.7508702  42.5351569  28.0746166
  47.1083082  42.8284102  27.4285960  47.2463630  42.4204489  28.8799362
  45.4048865  46.2814742  18.7632025  46.3166722  46.5142129  18.5879723
  44.8958513  46.8651786  18.2007104  38.2134294  48.5610230  33.8021156
  38.9548978  49.0995274  33.5255980  37.5071279  49.1876518  33.9592708
  43.6889633  50.7039370  32.3993318  44.0972989  50.2621781  31.6547950
  42.9666895  50.1291998  32.6527510  40.0420703  45.6411977  29.7726875
  40.8881898  46.0651390  29.9161524  39.9819341  44.9845601  30.4665438
  44.0118448  51.2640561  26.1545606  43.3827310  51.4286275  25.4521674
  43.6244110  51.6782170  26.9256570  47.8907680  52.1994999  23.5089970
  47.2058718  52.5793900  22.9587004  47.9751529  52.8090325  24.2421918
  43.1920149  43.3016345  31.4308048  42.9481080  44.0558406  30.8942324
  43.4680079  43.6801693  32.2655295  45.1458611  49.8454958  30.1085314
  45.3575507  50.4886717  29.4319695  45.0988360  49.0117274  29.6407244
  42.7484840  42.4572778  27.0121886  41.8869319  42.7554032  27.3038623
  42.7747275  42.6743177  26.0802919  39.5646410  51.0014969  23.4195692
  40.0284755  51.2802672  22.6300314  39.3003208  50.0998413  23.2368782
  36.4570491  50.5486450  26.3575455  37.0271848  50.9773719  25.7192939
  37.0478603  50.2669035  27.0559640  38.5015296  47.1238121  20.2285257
  39.2039339  47.5759165  20.6959183  38.1695924  46.4821940  20.8565150
  36.9495657  45.7149878  34.6036466  36.3194318  46.3966159  34.8371863
  36.8431745  45.6032959  33.6589604  32.2440630  45.3821674  25.5302390
  31.4539684  45.6379202  25.0542501  32.7351877  46.1970012  25.6354431
  46.2604439  52.7226913  28.2807671  47.0821883  52.3207100  27.9990353
  46.2566842  52.6195147  29.2323787  34.1955375  45.7466253  22.4885867
  33.3986538  45.8584947  23.0069363  33.9680967  46.0852905  21.6226757
  40.0261043  52.2710956  30.4368382  40.0905475  52.7331363  31.2726553
  39.3171967  51.6408321  30.5650691  30.5278333  45.6352164  27.9617381
  30.7786371  46.5199174  28.2274957  31.0637881  45.4556766  27.1892473
  54.3510432  49.0665661  24.6292643  53.5974141  48.4973060  24.4736647
  54.4857974  49.0328326  25.5763277  39.7409060  53.9379064  20.3047362
  39.6054735  54.7830599  20.7332210  40.2818873  54.1398341  19.5413296
  36.2276400  40.0170644  36.9661717  35.8343346  39.4636842  37.6409361
  37.0442540  40.3281222  37.3568235  33.1938458  51.4554502  20.8775287
  33.7062978  52.2497752  21.0280852  33.8461171  50.7580792  20.8108888
  35.0033342  54.5720258  22.9598040  35.1799971  55.4938223  22.7719024
  35.7990176  54.2578677  23.3892420  39.1444361  41.4328523  34.5581974
  39.8854074  42.0335676  34.4786436  39.3762284  40.6906160  34.0000016
  34.2885699  46.6184890  32.8360203  34.1739214  45.7170147  33.1367302
  33.4330217  46.8648587  32.4845020  41.3677537  54.5602630  34.4347704
  40.9241391  53.7739009  34.1168608  42.0294750  54.7481781  33.7691595
  36.1264658  56.0898432  28.9608383  36.6772083  55.9615495  28.1885376
  35.2876134  56.3893321  28.6103275  43.4658775  54.8405430  32.4629105
  43.4477250  55.6614311  31.9709374  44.3878695  54.7159505  32.6879246
  39.9231829  52.3549560  33.3052614  40.4560166  51.5937848  33.0751922
  39.3945910  52.0623211  34.0476768  43.0901524  37.4609626  28.8346255
  42.7465793  38.3511267  28.7585366  43.4580487  37.2711283  27.9715840
  31.1587375  49.7843156  21.6534858  31.9962597  50.1940164  21.4368565
  31.3365642  48.8442598  21.6235051  43.0551807  47.4518237  17.3418690
  42.5398430  48.2222841  17.5807078  42.7829115  46.7783373  17.9651752
  40.6398918  42.2967937  22.4003929  39.7840514  41.9074788  22.2209568
  41.0525869  42.3759898  21.5403714  42.1698064  39.8314281  26.7995489
  41.6662860  39.7944416  25.9863294  42.4628671  40.7407023  26.8592145
  38.4140950  39.9153010  25.8061670  39.2793947  39.7195819  25.4467560
  38.4818459  39.6863362  26.7331027  48.0286081  50.2050591  19.2771864
  47.2515524  49.8661751  18.8327026  48.7077562  50.2103215  18.6026829
  42.8438110  45.3245329  19.1678472  42.5388245  45.6391478  20.0188615
  43.7968552  45.4026749  19.2105805  41.2884542  51.4835552  20.8171426
  40.7605903  50.7488312  20.5044663  40.7872044  52.2610228  20.5711394
  46.2677388  49.6784573  25.9338472  45.6101062  50.3683834  26.0218601
  47.0717787  50.0681005  26.2772458  36.0203269  42.1455218  23.1778037
  36.5947021  41.9230400  22.4451230  36.6074252  42.2143913  23.9306638
  45.0782846  48.0328945  23.9842414  45.5914728  48.6658937  24.4864123
  45.7284070  47.4330141  23.6185774  42.3405221  58.0113270  16.7403085
  41.6666919  58.3144966  17.3488043  42.7271043  58.8142350  16.3908542
  41.5563677  45.5078401  26.2300754  40.6386239  45.7293348  26.0722442
  41.9723821  45.5824711  25.3712462  42.3398725  46.9069817  21.3603434
  43.0870544  47.4191214  21.0510557  42.6090315  46.5853869  22.2207828
  40.6125375  49.4028357  18.3430389  39.7036595  49.1187390  18.4402859
  40.6420459  49.8227436  17.4833696  45.8444643  53.0134947  22.1121556
  45.3906970  52.1725857  22.1686747  45.2138609  53.6496345  22.4496336
  44.7877562  43.9426933  23.3422224  44.0500319  43.4304319  23.6732466
  45.0404336  43.5027314  22.5305501  44.2877582  54.8511443  23.0471374
  44.5800556  55.4116501  22.3283740  44.7976203  55.1440004  23.8024534
  44.8889190  36.7203185  23.9363993  45.1948066  35.8600548  23.6489908
  45.6141794  37.3120805  23.7362987  31.1813546  47.1233871  22.3245591
  30.9837945  46.5303232  21.5996658  30.6260210  46.8186082  23.0421530
  39.1610269  47.0156978  24.4440184  39.2158879  46.0630814  24.3682661
  38.3501471  47.1716417  24.9281483  40.3101463  50.9437101  15.6818467
  39.8720893  50.2272960  15.2224105  41.0511904  51.1713216  15.1203559
  37.1002629  45.6334038  22.2030563  36.2870495  45.9328208  22.6095755
  37.5961623  45.2389726  22.9205045  39.2511207  55.6291795  24.1364828
  39.2087386  55.8552641  23.2073360  40.1673906  55.3955169  24.2850629
  42.6976841  46.0975862  31.0345457  43.0526229  46.3247335  31.8939923
  43.3448972  46.4294239  30.4122712  48.4274578  49.2194298  21.7394786
  48.2892476  49.4095894  20.8115975  48.0710797  49.9813681  22.1962837
  36.5916704  43.2052393  27.8191798  37.2316083  43.0641152  27.1214761
  35.7594235  42.9186907  27.4430400  48.4543957  51.2870825  26.7506057
  48.8880464  51.1946114  27.5989111  49.1675538  51.2628325  26.1126073
  37.3677008  52.5054824  23.9326790  38.1617606  52.0105144  23.7309365
  36.6568700  51.9772687  23.5694496  42.1871852  54.8872919  28.2839158
  42.2408875  55.4563855  29.0516874  41.3186634  55.0574804  27.9193195
  33.5945320  43.1752718  22.5964785  33.8552138  44.0898051  22.4873945
  34.4162493  42.7077161  22.7461398  35.0670246  44.5890475  29.7663609
  35.7393299  44.3807837  29.1176258  34.2400032  44.3912561  29.3268842
  49.3159507  51.3294526  29.2838943  49.5095397  52.2340336  29.5298218
  49.2160125  50.8701945  30.1177528  40.9695818  41.2152416  31.7829270
  40.3223733  41.9142366  31.6893747  41.7396833  41.6488560  32.1505518
  44.3774616  51.4801268  34.8579823  44.2260122  51.2511820  33.9409907
  44.3679295  52.4371870  34.8711168  41.1459952  49.0533181  29.8426090
  42.0752012  49.2044341  29.6695057  40.7250982  49.1417202  28.9874736
  39.9448284  53.0783846  27.6124628  39.8059370  52.7102630  28.4850566
  39.1562880  53.5931485  27.4408585  40.5396436  58.1792942  18.9550164
  40.7148192  57.7080985  19.7695787  39.8529224  58.8058708  19.1831425
  41.4953499  52.4565448  25.0013465  41.1603332  52.4166218  25.8971115
  40.9957445  51.7910164  24.5283876  35.4697743  47.8633078  30.5266046
  35.3317541  47.1313317  31.1277585  36.3802666  47.7741978  30.2450234
  44.4312691  49.8021483  15.2750525  43.8141861  49.0768311  15.1783578
  43.9629179  50.5630843  14.9317599  38.0980044  47.5753038  30.0149726
  38.8079662  46.9346230  29.9736345  38.0549352  47.8265932  30.9375907
  46.0866822  54.5120391  32.9356305  46.0279369  53.8279611  32.2686888
  46.4886341  55.2539381  32.4836931  36.8108978  44.5618255  31.8345366
  36.2746335  44.1108994  32.4866962  36.2225686  44.6964164  31.0915830
  35.1057521  61.3282305  25.7290024  35.3454119  61.9600829  26.4069043
  34.2626718  60.9770345  26.0155383  46.0884230  52.4759975  31.1670285
  45.2011008  52.1385897  31.2896684  46.6582781  51.7443006  31.4039050
  27.7413377  48.8084067  24.4913336  28.4284417  48.4945797  23.9034352
  27.5861505  49.7125431  24.2180588  32.5448099  43.6974263  28.9198360
  32.4606288  43.0899933  28.1848770  31.7230805  44.1883281  28.9207856
  39.6185383  57.1361427  28.1331528  39.5455555  57.9416399  28.6450833
  39.1762776  57.3353393  27.3079550  39.4075163  56.3733197  21.6434350
  38.6242685  56.9154877  21.7372574  40.1067908  56.8907177  22.0428591
  42.7171813  42.1827827  24.2868555  43.2140512  41.4297789  23.9669625
  41.9458794  42.2192143  23.7211764  50.5701570  47.8868192  25.9286847
  50.5591446  48.7692908  25.5580780  49.7018950  47.5339743  25.7341384
  42.0784067  57.0348261  30.2889687  42.7912039  57.6695726  30.2165588
  41.5874095  57.1312127  29.4729689  43.8001593  50.9399514  21.8606979
  42.8657872  51.0600976  21.6911683  43.9778262  50.0371981  21.5966988
  39.3006782  44.3245210  24.0140240  38.9304569  43.7716250  24.7021145
  39.7965874  43.7203343  23.4615240  47.1874145  46.7816833  22.3957013
  47.6534597  47.6144825  22.3217315  47.6381645  46.3161815  23.1002271
  37.1295980  54.7842705  31.1095258  37.8305440  55.4179188  31.2624652
  36.6591095  55.1257436  30.3490897  45.2550376  53.1260654  19.3943165
  45.5310220  53.0117249  20.3037039  44.3854875  52.7278139  19.3555338
  45.1590808  39.1497420  26.4347914  44.2453887  39.3801647  26.6030121
  45.5883909  39.2335864  27.2861946  44.9297266  47.3387312  28.9347808
  44.2768716  47.5863220  28.2800261  45.3077646  46.5251450  28.6010285
  41.8904440  57.3747005  23.0375978  42.0726834  56.5568661  23.5003731
  42.7137426  57.5914698  22.6000868  42.2246605  56.3015190  20.2991027
  42.7534372  55.7907645  19.6861189  42.4874825  55.9857721  21.1636560
  40.9784839  48.0807123  35.4213845  40.3025476  47.9801253  36.0916220
  41.8012473  47.9246337  35.8849842  32.7263698  54.3179060  28.0426360
  33.3117135  53.5722748  28.1754265  32.5288537  54.6283016  28.9263024
  35.5802353  57.3530307  23.0588803  34.9112729  57.8376435  22.5752843
  35.4415223  57.5999528  23.9732181  27.3181353  46.8884660  26.7630803
  27.3565452  46.3548251  27.5567922  26.8121646  46.3619865  26.1441781
  39.7207622  59.3874051  29.6571461  40.2725930  59.5505672  30.4220546
  40.0613815  59.9778488  28.9851486  34.6972115  41.7349200  30.2593346
  34.7613442  42.5964031  29.8470743  34.6339235  41.1223202  29.5265704
  34.1724388  43.8072333  33.9066380  34.7996427  43.4249410  34.5203904
  33.3152307  43.5886535  34.2722073  44.5718496  54.2135308  35.5120116
  45.1158400  54.8265266  35.0175070  43.9905341  54.7714887  36.0287129
  42.8576009  57.3356026  26.6435143  42.7327149  56.5345766  26.1346089
  43.5155100  57.8302220  26.1549113  34.4784177  43.6904759  25.8212283
  33.7570763  44.3040726  25.6819757  35.2677433  44.2262524  25.7428929
  44.9210918  55.1365046  28.2714693  43.9741253  55.0170397  28.1993020
  45.2693691  54.2487544  28.3540955  37.2810491  41.0259185  32.0952935
  37.8044893  41.2721482  32.8579245  37.0622824  41.8579220  31.6756073
  41.9257351  54.9317762  24.4719046  41.7782313  54.0034470  24.6526616
  42.7510844  54.9537853  23.9876121  45.5291473  55.7546321  25.5583918
  46.4538020  55.5489183  25.4208369  45.3606776  55.5062722  26.4673260
  38.4863036  41.9672880  29.7802606  38.1459856  41.1680693  30.1823286
  37.7802042  42.2674591  29.2079439  39.1379508  39.0522193  28.2329929
  39.9605577  38.5782671  28.1108819  39.3817571  39.8312676  28.7328615
  36.6618087  45.7441313  26.0421907  36.5162667  46.0581616  26.9346189
  36.1843290  46.3626214  25.4892806  38.5214469  42.7343861  26.0902797
  38.5076038  41.8384955  25.7535095  39.2386898  42.7414525  26.7241083
  40.3740600  43.1681202  28.1355924  40.1158378  44.0898272  28.1340255
  39.8425641  42.7711636  28.8256389  45.3186789  56.2731989  20.9146010
  45.4923666  55.7078411  20.1619862  45.8115680  57.0732884  20.7325500
  31.1363749  48.2846658  28.9809569  30.5917217  49.0606466  29.1129843
  32.0143099  48.6317462  28.8228690  40.7942556  39.3013152  24.4957087
  40.8164253  39.3652485  23.5409066  41.2110615  38.4617661  24.6897593
  51.1726180  49.0368412  22.5336310  51.6157326  48.2875737  22.1355433
  50.2952690  49.0278548  22.1510042  46.3061961  55.5898753  18.0142908
  47.0012866  56.2105446  18.2330223  46.6485112  54.7394104  18.2895286
  31.9229771  47.4116554  31.8739725  31.1811507  47.5599189  32.4604356
  31.6022515  47.6724820  31.0106475  48.2053385  53.0398459  19.5430239
  48.7304709  53.3785731  18.8179559  48.1175737  52.1045474  19.3593373
  39.8673433  56.9532532  31.6720115  40.1760560  56.7081679  32.5442815
  40.6648915  57.1579171  31.1838986  39.8894045  59.1070442  23.9025492
  39.4499036  58.6146821  24.5958349  40.6402162  58.5643410  23.6617567
  32.3686384  55.2981983  23.9050120  33.1944404  54.9985755  23.5248764
  32.0180436  54.5289605  24.3539909  37.3367917  54.6508451  25.9747794
  36.7147927  53.9879156  25.6750022  38.0072784  54.6769583  25.2921441
  30.5694989  53.2168309  24.8639054  29.7326898  52.7890484  24.6823055
  30.5418635  53.4100753  25.8009845  37.4092445  43.1290239  35.5680300
  37.4580600  44.0052362  35.1858069  37.9514959  42.5867632  34.9951943
  47.8947291  53.6731362  34.8481437  47.1042834  53.6555501  34.3085936
  47.6580645  54.2119656  35.6030473  48.0145166  50.5223829  32.1614165
  48.0643171  50.3573836  33.1029688  47.9059089  49.6551088  31.7712046
  36.8981424  53.2012374  19.4506254  37.0469545  53.8847839  18.7972927
  37.7047868  53.1817464  19.9655710  45.3048928  46.5054757  33.4773472
  46.2058791  46.3661222  33.1857470  45.3796903  46.6709211  34.4171649
  39.6391733  43.8821611  32.3226658  38.7695043  44.1755177  32.0509247
  39.8751214  44.4662056  33.0433922  49.5163363  52.9420770  32.4056187
  49.2248171  53.3050751  33.2419648  48.9035494  52.2287778  32.2269519
  50.7159045  50.5073650  24.9258757  51.5505936  50.9463454  25.0896317
  50.8518174  50.0312303  24.1067003  47.7650551  48.0653385  30.8736245
  48.2404672  48.2581031  30.0655096  46.8416116  48.1212571  30.6279629
  34.6534057  49.2277552  20.4567323  34.4080099  48.3239882  20.6547533
  34.8229972  49.2294702  19.5146801  42.3430767  40.1001228  29.8392079
  42.8612711  40.8362255  29.5138567  41.9885900  40.4065222  30.6738838
  42.5943361  36.5201511  25.3592975  42.8745115  35.8524700  25.9853402
  43.3793968  36.7130606  24.8467639  40.3976830  55.6960505  16.9218002
  39.8250797  56.3150692  16.4688474  40.9709624  56.2459866  17.4557924
  46.4652220  44.9419145  29.1064550  47.4169643  45.0417243  29.1276774
  46.2955670  44.1497413  29.6162635  44.4866599  42.0274728  29.2923951
  43.8916531  42.3079741  28.5970440  44.2016296  42.5168629  30.0640692
  43.6174090  55.9797655  18.0526584  44.5504763  55.9143217  18.2559459
  43.5297303  56.8153922  17.5941117  46.2462106  55.2963525  15.0130531
  46.1675738  54.9623389  15.9066289  47.0671773  55.7885293  15.0122004
  48.9440298  48.1625265  28.2206850  48.9116618  47.2241265  28.4066534
  49.5540921  48.2409301  27.4872675  49.0934786  44.9536308  28.2665133
  48.5773835  44.1694765  28.0795062  49.9774735  44.6255025  28.4311653
  46.7545513  38.6977324  24.2260946  46.5570334  38.3892412  25.1104278
  47.3645219  39.4238962  24.3558876  54.7616847  49.2241271  27.3612887
  55.4920236  48.9626560  27.9220590  54.1523793  48.4869993  27.4014955
  52.8432145  47.3649134  27.9587338  52.1165308  47.2305099  27.3503830
  52.4279431  47.6725963  28.7644056  40.6662321  51.0839064  35.7234711
  41.5865330  51.2617663  35.9174758  40.6311904  50.1395109  35.5714410
  29.8844486  46.2777657  24.6487986  29.5647270  45.4242966  24.3562360
  29.3377914  46.4926235  25.4045953  33.6624393  48.9940098  28.3657492
  33.8810403  49.9257206  28.3845526  34.0750167  48.6348073  29.1512296
  42.5119160  38.5786230  21.9757477  43.0650198  38.9981684  22.6347500
  42.7489246  37.6521979  22.0180433  38.5352259  44.5673304  37.7560241
  38.4348986  45.5167661  37.6872332  38.3173801  44.2391543  36.8836311
  29.7532746  49.8980569  26.6181107  29.0596217  49.4834522  26.1051062
  30.5005737  49.9401105  26.0214526  45.8897967  40.6886756  21.4836142
  45.3096636  41.3471560  21.1014194  45.6233899  39.8664100  21.0723559
  44.3401533  40.0891813  23.6857462  44.8401311  40.2008348  22.8771781
  44.9837141  39.7852866  24.3258270  38.3983529  47.9970443  36.5725303
  37.9150611  48.7970803  36.7789192  38.4844468  48.0078388  35.6192747
  31.6669488  49.8298823  24.4947122  31.6440177  49.9286510  23.5429005
  31.9770125  50.6763973  24.8164288  34.3256866  51.8874978  28.6093737
  35.2800120  51.8558920  28.5423668  34.1269390  51.4265601  29.4243963
  34.9156248  50.4576094  31.1764534  35.7349137  50.9520172  31.1999372
  35.1893056  49.5408062  31.1482102  44.6722845  42.8486846  20.5392490
  43.7848700  43.1336497  20.3212685  45.0876834  42.6880609  19.6919767
  48.0237381  42.8733367  24.2546829  48.7997771  43.3629819  24.5271446
  47.2985515  43.2991421  24.7118699  50.4609939  43.5860986  25.3120770
  51.0554430  43.3456722  24.6014078  50.5336523  42.8668117  25.9394306
  32.6807095  57.4294597  25.6263935  32.5461563  56.6694998  25.0601933
  32.2639157  58.1535497  25.1592723  43.8166058  52.6131521  14.6340510
  44.5201908  52.8181523  15.2498165  43.0928707  53.1808283  14.8989593
  44.6463868  48.3641382  20.7542780  44.5899070  48.8209933  19.9150412
  45.1992211  47.6032067  20.5765623  48.4568674  44.1531114  21.5792899
  48.2005609  43.7527749  22.4101107  47.8321542  44.8674908  21.4543039
  52.7681012  46.8927187  24.0864191  52.2080570  46.9620376  24.8595753
  52.1624516  46.7168172  23.3663687  35.8376221  58.3263914  25.8382377
  35.7208605  59.2709347  25.7361067  35.0168667  58.0237476  26.2268176
  45.7252756  53.0514050  16.6838970  46.5598359  52.6195248  16.5016445
  45.5637098  52.8796064  17.6115864  45.3798648  49.5546163  18.0495309
  45.3247452  49.3890435  17.1083753  44.7544703  50.2622196  18.2057499
  30.1691163  44.7914228  31.8756731  30.8150026  44.2813182  32.3643957
  29.9608314  45.5282909  32.4500157  42.6944555  51.8595075  37.3748872
  43.5635715  52.0335727  37.0135507  42.2151306  52.6789492  37.2524601
  36.8630735  58.9792176  29.0538306  37.7657982  59.0115786  29.3704801
  36.6368105  58.0492627  29.0684641  38.6184337  57.7323163  25.7148384
  37.6679968  57.7325024  25.6012756  38.9216823  56.9855897  25.1984419
  34.5088654  41.9381845  35.9731746  35.3720115  41.5818649  36.1835070
  33.9354064  41.5995739  36.6607150  54.3537031  63.5683701  26.7794147
  54.9915441  63.4490448  26.0757487  54.2357874  64.5164545  26.8382099
  51.1626737  63.5211129  26.7155671  50.8245248  63.4052194  25.8276206
  52.0316505  63.1202294  26.6956677  47.0213553  65.3746605  22.7052562
  46.4578418  65.2836542  21.9368850  46.9065948  64.5546510  23.1855055
  51.6446520  64.6745981  32.6741877  51.6335161  64.2798779  31.8022380
  51.8067159  63.9412053  33.2675648  44.5677985  66.8697797  25.5436783
  45.3599276  66.5288622  25.1283082  44.8074635  66.9792772  26.4638936
  52.6013111  69.0417573  18.0167027  51.9501091  69.6271654  17.6301041
  53.3957474  69.5723768  18.0762065  46.5268738  66.1306710  18.4154162
  47.2999614  65.5835697  18.2767037  46.8794137  66.9950960  18.6268623
  48.3653781  67.4583093  31.6221061  48.0743647  68.3628723  31.5067727
  49.0010765  67.4999620  32.3365130  49.2909988  64.8359941  28.2122420
  49.8873560  64.6115964  27.4979383  49.3484959  64.0944687  28.8147868
  48.8635016  62.2899376  16.0472611  49.1160537  61.7680898  15.2856074
  47.9259575  62.1265522  16.1499295  53.9078299  61.2935155  23.8547355
  54.6941388  60.8754578  23.5037772  54.1717003  62.1981247  24.0229003
  54.0788376  66.7308005  18.5536011  53.4434209  66.8042632  19.2656916
  53.7485783  67.3201604  17.8755091  59.3086726  61.2310388  24.7580333
  60.0411898  60.6609605  24.9918163  58.5526082  60.8431988  25.1986839
  48.5831305  64.1927482  18.2496986  48.4667563  63.5172386  18.9178071
  48.6933565  63.7059856  17.4329139  50.9262846  63.6537630  21.9543676
  50.5621053  63.1268250  22.6656597  51.7829962  63.2636099  21.7810161
  56.8312147  54.9431962  29.2174942  56.4995471  55.8127373  28.9936157
  56.2357760  54.6268246  29.8968972  50.5668333  58.6827529  16.9505024
  50.7342735  59.5507766  17.3175495  50.3765502  58.8454811  16.0266313
  53.3243666  67.1444508  28.6170854  53.0244389  68.0469547  28.5086662
  52.9794726  66.8776691  29.4692007  46.7756148  63.5958305  24.6507559
  45.8506644  63.4634519  24.8585251  47.0240561  64.3752524  25.1477501
  56.7240810  59.6627048  26.2968292  55.8157687  59.5942457  26.0027053
  56.6728406  60.1398993  27.1250117  50.5457554  61.1385187  17.9351691
  50.4257179  61.5842237  18.7737171  49.8510142  61.4870504  17.3765229
  44.1364959  63.2391578  25.4851348  44.2657340  63.4926057  26.3990760
  43.4562410  63.8319286  25.1656003  48.3064446  73.9088828  21.5841822
  48.2288476  74.8596654  21.6630303  47.7026090  73.5634701  22.2416748
  50.7981676  61.0816694  34.2403189  50.0215010  61.6410614  34.2306054
  51.4372239  61.5673477  34.7618059  58.5902456  57.8643487  28.0746166
  57.9476837  58.1576020  27.4285960  58.0857385  57.7496407  28.8799362
  56.2442620  61.6106660  18.7632025  57.1560476  61.8434047  18.5879723
  55.7352267  62.1943704  18.2007104  49.0528048  63.8902147  33.8021156
  49.7942732  64.4287191  33.5255980  48.3465033  64.5168436  33.9592708
  54.5283388  66.0331288  32.3993318  54.9366744  65.5913698  31.6547950
  53.8060649  65.4583915  32.6527510  50.8814458  60.9703894  29.7726875
  51.7275653  61.3943308  29.9161524  50.8213095  60.3137519  30.4665438
  54.8512202  66.5932478  26.1545606  54.2221065  66.7578192  25.4521674
  54.4637864  67.0074088  26.9256570  58.7301434  67.5286916  23.5089970
  58.0452472  67.9085818  22.9587004  58.8145284  68.1382243  24.2421918
  54.0313903  58.6308263  31.4308048  53.7874835  59.3850323  30.8942324
  54.3073834  59.0093610  32.2655295  55.9852366  65.1746875  30.1085314
  56.1969261  65.8178635  29.4319695  55.9382114  64.3409192  29.6407244
  53.5878595  57.7864696  27.0121886  52.7263074  58.0845949  27.3038623
  53.6141029  58.0035095  26.0802919  50.4040164  66.3306886  23.4195692
  50.8678510  66.6094589  22.6300314  50.1396962  65.4290331  23.2368782
  47.2964245  65.8778368  26.3575455  47.8665602  66.3065636  25.7192939
  47.8872357  65.5960953  27.0559640  49.3409050  62.4530039  20.2285257
  50.0433094  62.9051082  20.6959183  49.0089679  61.8113858  20.8565150
  47.7889412  61.0441795  34.6036466  47.1588072  61.7258076  34.8371863
  47.6825500  60.9324877  33.6589604  43.0834384  60.7113591  25.5302390
  42.2933438  60.9671120  25.0542501  43.5745632  61.5261929  25.6354431
  57.0998194  68.0518831  28.2807671  57.9215637  67.6499018  27.9990353
  57.0960597  67.9487065  29.2323787  45.0349130  61.0758171  22.4885867
  44.2380293  61.1876865  23.0069363  44.8074722  61.4144823  21.6226757
  50.8654797  67.6002874  30.4368382  50.9299230  68.0623281  31.2726553
  50.1565721  66.9700239  30.5650691  41.3672087  60.9644082  27.9617381
  41.6180126  61.8491092  28.2274957  41.9031636  60.7848683  27.1892473
  65.1904187  64.3957579  24.6292643  64.4367895  63.8264977  24.4736647
  65.3251728  64.3620244  25.5763277  50.5802815  69.2670981  20.3047362
  50.4448490  70.1122517  20.7332210  51.1212627  69.4690259  19.5413296
  47.0670154  55.3462561  36.9661717  46.6737100  54.7928760  37.6409361
  47.8836295  55.6573140  37.3568235  44.0332212  66.7846419  20.8775287
  44.5456733  67.5789670  21.0280852  44.6854925  66.0872710  20.8108888
  45.8427097  69.9012176  22.9598040  46.0193725  70.8230140  22.7719024
  46.6383930  69.5870595  23.3892420  49.9838115  56.7620440  34.5581974
  50.7247829  57.3627593  34.4786436  50.2156038  56.0198078  34.0000016
  45.1279453  61.9476808  32.8360203  45.0132969  61.0462065  33.1367302
  44.2723971  62.1940504  32.4845020  52.2071291  69.8894548  34.4347704
  51.7635145  69.1030926  34.1168608  52.8688505  70.0773698  33.7691595
  46.9658412  71.4190350  28.9608383  47.5165838  71.2907413  28.1885376
  46.1269888  71.7185239  28.6103275  54.3052529  70.1697348  32.4629105
  54.2871005  70.9906229  31.9709374  55.2272449  70.0451423  32.6879246
  50.7625583  67.6841477  33.3052614  51.2953920  66.9229766  33.0751922
  50.2339665  67.3915129  34.0476768  53.9295278  52.7901543  28.8346255
  53.5859548  53.6803185  28.7585366  54.2974241  52.6003201  27.9715840
  41.9981129  65.1135074  21.6534858  42.8356351  65.5232082  21.4368565
  42.1759397  64.1734516  21.6235051  53.8945561  62.7810154  17.3418690
  53.3792185  63.5514759  17.5807078  53.6222870  62.1075291  17.9651752
  51.4792672  57.6259855  22.4003929  50.6234269  57.2366706  22.2209568
  51.8919624  57.7051816  21.5403714  53.0091819  55.1606198  26.7995489
  52.5056614  55.1236334  25.9863294  53.3022426  56.0698941  26.8592145
  49.2534705  55.2444928  25.8061670  50.1187701  55.0487737  25.4467560
  49.3212214  55.0155280  26.7331027  58.8679835  65.5342509  19.2771864
  58.0909278  65.1953669  18.8327026  59.5471316  65.5395132  18.6026829
  53.6831864  60.6537246  19.1678472  53.3782000  60.9683396  20.0188615
  54.6362306  60.7318666  19.2105805  52.1278296  66.8127470  20.8171426
  51.5999658  66.0780229  20.5044663  51.6265799  67.5902146  20.5711394
  57.1071142  65.0076490  25.9338472  56.4494817  65.6975752  26.0218601
  57.9111541  65.3972922  26.2772458  46.8597024  57.4747136  23.1778037
  47.4340776  57.2522318  22.4451230  47.4468006  57.5435831  23.9306638
  55.9176601  63.3620863  23.9842414  56.4308483  63.9950855  24.4864123
  56.5677825  62.7622058  23.6185774  47.1866611  59.5051597  17.1973922
  46.3503923  59.8426284  17.5183197  47.0471381  59.3700577  16.2601059
  49.1619691  54.3488385  21.9053107  48.5084104  54.0337402  21.2809721
  49.1200166  53.7264125  22.6312930  50.2730896  64.6307680  13.8206399
  49.3657958  64.3996934  14.0197548  50.7701928  63.8345299  14.0080380
  53.1798975  73.3405187  16.7403085  52.5060674  73.6436884  17.3488043
  53.5664797  74.1434268  16.3908542  52.3957432  60.8370319  26.2300754
  51.4779993  61.0585266  26.0722442  52.8117575  60.9116629  25.3712462
  53.1792480  62.2361734  21.3603434  53.9264299  62.7483131  21.0510557
  53.4484069  61.9145787  22.2207828  51.4519130  64.7320275  18.3430389
  50.5430349  64.4479308  18.4402859  51.4814214  65.1519354  17.4833696
  56.6838397  68.3426864  22.1121556  56.2300724  67.5017774  22.1686747
  56.0532364  68.9788263  22.4496336  55.6271317  59.2718850  23.3422224
  54.8894074  58.7596237  23.6732466  55.8798090  58.8319232  22.5305501
  55.1271336  70.1803361  23.0471374  55.4194311  70.7408418  22.3283740
  55.6369957  70.4731922  23.8024534  55.7282944  52.0495102  23.9363993
  56.0341821  51.1892466  23.6489908  56.4535549  52.6412723  23.7362987
  42.0207300  62.4525789  22.3245591  41.8231700  61.8595150  21.5996658
  41.4653964  62.1477999  23.0421530  50.0004024  62.3448896  24.4440184
  50.0552634  61.3922732  24.3682661  49.1895226  62.5008335  24.9281483
  51.1495218  66.2729019  15.6818467  50.7114648  65.5564878  15.2224105
  51.8905658  66.5005133  15.1203559  47.9396384  60.9625955  22.2030563
  47.1264249  61.2620126  22.6095755  48.4355378  60.5681644  22.9205045
  50.0904962  70.9583712  24.1364828  50.0481140  71.1844559  23.2073360
  51.0067660  70.7247087  24.2850629  53.5370595  61.4267780  31.0345457
  53.8919983  61.6539253  31.8939923  54.1842727  61.7586157  30.4122712
  59.2668332  64.5486216  21.7394786  59.1286231  64.7387812  20.8115975
  58.9104551  65.3105598  22.1962837  47.4310458  58.5344311  27.8191798
  48.0709838  58.3933070  27.1214761  46.5987989  58.2478824  27.4430400
  59.2937712  66.6162743  26.7506057  59.7274219  66.5238032  27.5989111
  60.0069293  66.5920243  26.1126073  48.2070762  67.8346741  23.9326790
  49.0011361  67.3397061  23.7309365  47.4962455  67.3064604  23.5694496
  53.0265607  70.2164837  28.2839158  53.0802629  70.7855773  29.0516874
  52.1580388  70.3866722  27.9193195  44.5153526  61.9789823  20.0086543
  43.5851114  61.9174278  20.2256505  44.6110998  61.4565776  19.2123184
  44.4339075  58.5044636  22.5964785  44.6945892  59.4189969  22.4873945
  45.2556247  58.0369078  22.7461398  45.9064000  59.9182393  29.7663609
  46.5787054  59.7099755  29.1176258  45.0793787  59.7204479  29.3268842
  60.1553262  66.6586443  29.2838943  60.3489152  67.5632254  29.5298218
  60.0553880  66.1993862  30.1177528  51.8089572  56.5444334  31.7829270
  51.1617487  57.2434284  31.6893747  52.5790588  56.9780478  32.1505518
  55.2168370  66.8093186  34.8579823  55.0653877  66.5803738  33.9409907
  55.2073050  67.7663787  34.8711168  51.9853707  64.3825099  29.8426090
  52.9145767  64.5336258  29.6695057  51.5644737  64.4709120  28.9874736
  50.7842038  68.4075763  27.6124628  50.6453124  68.0394548  28.4850566
  49.9956635  68.9223403  27.4408585  51.3790190  73.5084860  18.9550164
  51.5541946  73.0372903  19.7695787  50.6922978  74.1350626  19.1831425
  52.3347254  67.7857366  25.0013465  51.9997086  67.7458136  25.8971115
  51.8351199  67.1202082  24.5283876  46.3091498  63.1924996  30.5266046
  46.1711295  62.4605235  31.1277585  47.2196421  63.1033896  30.2450234
  55.2706445  65.1313400  15.2750525  54.6535616  64.4060228  15.1783578
  54.8022934  65.8922761  14.9317599  48.9373798  62.9044955  30.0149726
  49.6473417  62.2638147  29.9736345  48.8943106  63.1557850  30.9375907
  56.9260577  69.8412309  32.9356305  56.8673123  69.1571529  32.2686888
  57.3280095  70.5831299  32.4836931  47.6502732  59.8910173  31.8345366
  47.1140089  59.4400912  32.4866962  47.0619441  60.0256082  31.0915830
  45.9451276  76.6574222  25.7290024  46.1847874  77.2892747  26.4069043
  45.1020472  76.3062262  26.0155383  47.0604991  59.3498825  14.3971829
  46.1834457  59.2287625  14.0334076  47.5362744  58.5584903  14.1450718
  56.9277984  67.8051893  31.1670285  56.0404763  67.4677814  31.2896684
  57.4976535  67.0734924  31.4039050  38.5807131  64.1375984  24.4913336
  39.2678171  63.8237714  23.9034352  38.4255260  65.0417349  24.2180588
  43.3841853  59.0266181  28.9198360  43.3000042  58.4191850  28.1848770
  42.5624560  59.5175199  28.9207856  50.4579138  72.4653345  28.1331528
  50.3849309  73.2708316  28.6450833  50.0156531  72.6645311  27.3079550
  50.2468917  71.7025115  21.6434350  49.4636439  72.2446795  21.7372574
  50.9461662  72.2199095  22.0428591  53.5565567  57.5119744  24.2868555
  54.0534267  56.7589707  23.9669625  52.7852549  57.5484061  23.7211764
  61.4095325  63.2160110  25.9286847  61.3985201  64.0984825  25.5580780
  60.5412704  62.8631661  25.7341384  52.9177821  72.3640179  30.2889687
  53.6305793  72.9987644  30.2165588  52.4267850  72.4604045  29.4729689
  54.6395348  66.2691432  21.8606979  53.7051627  66.3892894  21.6911683
  54.8172016  65.3663898  21.5966988  50.1400536  59.6537127  24.0140240
  49.7698324  59.1008168  24.7021145  50.6359628  59.0495261  23.4615240
  58.0267899  62.1108751  22.3957013  58.4928351  62.9436742  22.3217315
  58.4775400  61.6453732  23.1002271  47.9689735  70.1134622  31.1095258
  48.6699194  70.7471105  31.2624652  47.4984850  70.4549354  30.3490897
  56.0944130  68.4552572  19.3943165  56.3703974  68.3409167  20.3037039
  55.2248629  68.0570057  19.3555338  55.9984562  54.4789338  26.4347914
  55.0847642  54.7093565  26.6030121  56.4277664  54.5627782  27.2861946
  55.7691021  62.6679230  28.9347808  55.1162471  62.9155137  28.2800261
  56.1471400  61.8543368  28.6010285  52.7298194  72.7038923  23.0375978
  52.9120589  71.8860579  23.5003731  53.5531180  72.9206615  22.6000868
  53.0640360  71.6307108  20.2991027  53.5928126  71.1199563  19.6861189
  53.3268579  71.3149638  21.1636560  51.8178594  63.4099041  35.4213845
  51.1419231  63.3093170  36.0916220  52.6406227  63.2538255  35.8849842
  43.5657453  69.6470977  28.0426360  44.1510889  68.9014665  28.1754265
  43.3682291  69.9574934  28.9263024  46.4196108  72.6822225  23.0588803
  45.7506483  73.1668352  22.5752843  46.2808978  72.9291445  23.9732181
  38.1575107  62.2176578  26.7630803  38.1959207  61.6840168  27.5567922
  37.6515400  61.6911783  26.1441781  50.5601376  74.7165968  29.6571461
  51.1119684  74.8797590  30.4220546  50.9007570  75.3070406  28.9851486
  45.5365870  57.0641118  30.2593346  45.6007196  57.9255949  29.8470743
  45.4732990  56.4515120  29.5265704  45.0118142  59.1364251  33.9066380
  45.6390181  58.7541328  34.5203904  44.1546061  58.9178453  34.2722073
  55.4112251  69.5427226  35.5120116  55.9552155  70.1557184  35.0175070
  54.8299096  70.1006804  36.0287129  41.7883685  60.9440680  19.8384735
  42.0837126  60.0351358  19.7851789  40.8871721  60.9228419  19.5165737
  53.6969764  72.6647944  26.6435143  53.5720903  71.8637684  26.1346089
  54.3548855  73.1594137  26.1549113  45.3177932  59.0196676  25.8212283
  44.5964518  59.6332644  25.6819757  46.1071188  59.5554441  25.7428929
  55.7604672  70.4656964  28.2714693  54.8135008  70.3462315  28.1993020
  56.1087445  69.5779462  28.3540955  48.1204245  56.3551103  32.0952935
  48.6438647  56.6013399  32.8579245  47.9016579  57.1871138  31.6756073
  43.5171527  58.6254777  19.9624060  43.1884233  57.7452156  19.7799166
  43.8710897  58.5702446  20.8500449  52.7651105  70.2609680  24.4719046
  52.6176068  69.3326388  24.6526616  53.5904599  70.2829771  23.9876121
  46.6313350  58.9127747  20.3299538  46.9709422  59.4413669  19.6078146
  47.0785470  59.2508153  21.1058104  56.3685227  71.0838239  25.5583918
  57.2931775  70.8781100  25.4208369  56.2000531  70.8354640  26.4673260
  49.3256791  57.2964798  29.7802606  48.9853611  56.4972611  30.1823286
  48.6195797  57.5966509  29.2079439  49.9773262  54.3814110  28.2329929
  50.7999332  53.9074589  28.1108819  50.2211326  55.1604594  28.7328615
  48.6181497  57.4102369  18.5292830  49.3389859  57.7883622  18.0256547
  47.9946801  58.1291246  18.6327808  52.7612620  58.1147518  19.4651163
  52.9776234  58.9972156  19.1639991  52.2806687  57.7233731  18.7356805
  47.5011841  61.0733231  26.0421907  47.3556422  61.3873534  26.9346189
  47.0237045  61.6918131  25.4892806  49.3608224  58.0635779  26.0902797
  49.3469793  57.1676872  25.7535095  50.0780652  58.0706443  26.7241083
  51.2134355  58.4973119  28.1355924  50.9552133  59.4190190  28.1340255
  50.6819395  58.1003554  28.8256389  56.1580543  71.6023906  20.9146010
  56.3317421  71.0370329  20.1619862  56.6509435  72.4024801  20.7325500
  41.9757503  63.6138575  28.9809569  41.4310971  64.3898383  29.1129843
  42.8536853  63.9609380  28.8228690  48.7645120  56.9450159  21.3590367
  48.8861031  56.0166805  21.5581255  48.4747162  56.9588845  20.4468683
  51.6336310  54.6305070  24.4957087  51.6558007  54.6944403  23.5409066
  52.0504369  53.7909578  24.6897593  62.0119935  64.3660329  22.5336310
  62.4551081  63.6167655  22.1355433  61.1346445  64.3570466  22.1510042
  57.1455716  70.9190671  18.0142908  57.8406621  71.5397363  18.2330223
  57.4878866  70.0686022  18.2895286  42.7623525  62.7408472  31.8739725
  42.0205261  62.8891107  32.4604356  42.4416269  63.0016737  31.0106475
  59.0447139  68.3690376  19.5430239  59.5698463  68.7077649  18.8179559
  58.9569492  67.4337392  19.3593373  50.7067188  72.2824450  31.6720115
  51.0154314  72.0373597  32.5442815  51.5042670  72.4871088  31.1838986
  50.7287800  74.4362360  23.9025492  50.2892790  73.9438738  24.5958349
  51.4795917  73.8935327  23.6617567  43.2080139  70.6273900  23.9050120
  44.0338159  70.3277672  23.5248764  42.8574191  69.8581523  24.3539909
  48.1761672  69.9800369  25.9747794  47.5541681  69.3171074  25.6750022
  48.8466539  70.0061501  25.2921441  41.4088744  68.5460227  24.8639054
  40.5720652  68.1182401  24.6823055  41.3812389  68.7392670  25.8009845
  48.2486199  58.4582157  35.5680300  48.2974355  59.3344279  35.1858069
  48.7908714  57.9159550  34.9951943  58.7341045  69.0023280  34.8481437
  57.9436589  68.9847419  34.3085936  58.4974400  69.5411574  35.6030473
  58.8538920  65.8515746  32.1614165  58.9036925  65.6865754  33.1029688
  58.7452844  64.9843005  31.7712046  47.7375179  68.5304292  19.4506254
  47.8863299  69.2139756  18.7972927  48.5441622  68.5109382  19.9655710
  56.1442683  61.8346674  33.4773472  57.0452545  61.6953139  33.1857470
  56.2190657  62.0001129  34.4171649  50.4785488  59.2113529  32.3226658
  49.6088797  59.5047095  32.0509247  50.7144968  59.7953974  33.0433922
  60.3557117  68.2712688  32.4056187  60.0641925  68.6342668  33.2419648
  59.7429248  67.5579696  32.2269519  61.5552799  65.8365568  24.9258757
  62.3899691  66.2755372  25.0896317  61.6911928  65.3604221  24.1067003
  58.6044305  63.3945302  30.8736245  59.0798427  63.5872949  30.0655096
  57.6809871  63.4504488  30.6279629  45.4927812  64.5569470  20.4567323
  45.2473854  63.6531800  20.6547533  45.6623726  64.5586620  19.5146801
  53.1824522  55.4293146  29.8392079  53.7006466  56.1654173  29.5138567
  52.8279655  55.7357139  30.6738838  44.7623459  60.2897827  17.9553485
  44.0692704  60.3642182  17.2993521  44.5175211  59.5258171  18.4775002
  53.4337116  51.8493429  25.3592975  53.7138870  51.1816618  25.9853402
  54.2187723  52.0422524  24.8467639  51.2370584  71.0252422  16.9218002
  50.6644551  71.6442610  16.4688474  51.8103378  71.5751784  17.4557924
  57.3045974  60.2711063  29.1064550  58.2563397  60.3709160  29.1276774
  57.1349425  59.4789331  29.6162635  55.3260354  57.3566646  29.2923951
  54.7310286  57.6371658  28.5970440  55.0410050  57.8460547  30.0640692
  54.4567844  71.3089573  18.0526584  55.3898517  71.2435134  18.2559459
  54.3691057  72.1445839  17.5941117  57.0855861  70.6255443  15.0130531
  57.0069492  70.2915307  15.9066289  57.9065528  71.1177211  15.0122004
  59.7834052  63.4917182  28.2206850  59.7510372  62.5533183  28.4066534
  60.3934676  63.5701219  27.4872675  51.6217383  62.3613235  14.2634054
  52.5676488  62.2319443  14.3322472  51.2431628  61.6227897  14.7403482
  59.9328541  60.2828226  28.2665133  59.4167589  59.4986682  28.0795062
  60.8168489  59.9546942  28.4311653  57.5939267  54.0269241  24.2260946
  57.3964089  53.7184329  25.1104278  58.2038973  54.7530880  24.3558876
  65.6010602  64.5533189  27.3612887  66.3313990  64.2918477  27.9220590
  64.9917547  63.8161911  27.4014955  63.6825899  62.6941052  27.9587338
  62.9559063  62.5597017  27.3503830  63.2673186  63.0017880  28.7644056
  51.5056075  66.4130981  35.7234711  52.4259085  66.5909580  35.9174758
  51.4705658  65.4687027  35.5714410  49.8060300  60.2863212  14.1988939
  48.8991755  59.9896324  14.2751653  50.0836281  59.9893030  13.3323226
  40.7238240  61.6069575  24.6487986  40.4041025  60.7534883  24.3562360
  40.1771669  61.8218153  25.4045953  44.5018148  64.3232016  28.3657492
  44.7204158  65.2549124  28.3845526  44.9143922  63.9639990  29.1512296
  51.4222366  54.8300101  20.3533181  50.6123094  54.4847186  20.7288427
  52.1106783  54.5207645  20.9420792  53.3512914  53.9078148  21.9757477
  53.9043953  54.3273602  22.6347500  53.5883000  52.9813896  22.0180433
  49.3746013  59.8965222  37.7560241  49.2742740  60.8459579  37.6872332
  49.1567555  59.5683461  36.8836311  48.5759085  57.1450147  14.3400919
  49.4378249  57.4705045  14.5996736  48.7609429  56.3581643  13.8273984
  40.5926500  65.2272486  26.6181107  39.8989972  64.8126439  26.1051062
  41.3399491  65.2693023  26.0214526  56.7291721  56.0178673  21.4836142
  56.1490390  56.6763477  21.1014194  56.4627654  55.1956018  21.0723559
  55.1795288  55.4183731  23.6857462  55.6795066  55.5300266  22.8771781
  55.8230895  55.1144784  24.3258270  49.2377283  63.3262361  36.5725303
  48.7544365  64.1262721  36.7789192  49.3238222  63.3370305  35.6192747
  42.5063243  65.1590740  24.4947122  42.4833931  65.2578428  23.5429005
  42.8163879  66.0055891  24.8164288  45.1650621  67.2166895  28.6093737
  46.1193874  67.1850838  28.5423668  44.9663144  66.7557519  29.4243963
  45.7550003  65.7868011  31.1764534  46.5742892  66.2812090  31.1999372
  46.0286811  64.8699979  31.1482102  55.5116599  58.1778764  20.5392490
  54.6242454  58.4628414  20.3212685  55.9270588  58.0172527  19.6919767
  58.8631135  58.2025285  24.2546829  59.6391525  58.6921737  24.5271446
  58.1379269  58.6283339  24.7118699  61.3003694  58.9152904  25.3120770
  61.8948185  58.6748640  24.6014078  61.3730278  58.1960034  25.9394306
  43.5200850  72.7586515  25.6263935  43.3855318  71.9986916  25.0601933
  43.1032912  73.4827415  25.1592723  54.6559813  67.9423438  14.6340510
  55.3595663  68.1473441  15.2498165  53.9322461  68.5100200  14.8989593
  55.4857623  63.6933300  20.7542780  55.4292824  64.1501851  19.9150412
  56.0385965  62.9323984  20.5765623  59.2962429  59.4823031  21.5792899
  59.0399363  59.0819667  22.4101107  58.6715297  60.1966825  21.4543039
  63.6074767  62.2219105  24.0864191  63.0474325  62.2912294  24.8595753
  63.0018270  62.0460089  23.3663687  46.6769975  73.6555832  25.8382377
  46.5602360  74.6001264  25.7361067  45.8562422  73.3529393  26.2268176
  56.5646510  68.3805968  16.6838970  57.3992114  67.9487166  16.5016445
  56.4030853  68.2087981  17.6115864  56.2192402  64.8838081  18.0495309
  56.1641206  64.7182352  17.1083753  55.5938457  65.5914114  18.2057499
  41.0084917  60.1206145  31.8756731  41.6543781  59.6105099  32.3643957
  40.8002068  60.8574827  32.4500157  53.5338309  67.1886993  37.3748872
  54.4029469  67.3627645  37.0135507  53.0545061  68.0081410  37.2524601
  49.5288528  54.3846190  17.6280628  49.5167198  55.3288030  17.7848898
  50.4211950  54.2016335  17.3340089  47.7024490  74.3084094  29.0538306
  48.6051736  74.3407704  29.3704801  47.4761860  73.3784545  29.0684641
  49.4578092  73.0615080  25.7148384  48.5073723  73.0616942  25.6012756
  49.7610578  72.3147815  25.1984419  53.3440647  50.9788966  21.8826564
  52.5773043  50.4247453  22.0283247  53.7551352  51.0510835  22.7440716
  45.3482408  57.2673762  35.9731746  46.2113870  56.9110567  36.1835070
  44.7747819  56.9287657  36.6607150  65.1930785  78.8975619  26.7794147
  65.8309195  78.7782366  26.0757487  65.0751628  79.8456463  26.8382099
  62.0020491  78.8503047  26.7155671  61.6639003  78.7344111  25.8276206
  62.8710260  78.4494212  26.6956677  57.8607307  80.7038523  22.7052562
  57.2972172  80.6128460  21.9368850  57.7459702  79.8838428  23.1855055
  62.4840274  80.0037898  32.6741877  62.4728915  79.6090697  31.8022380
  62.6460914  79.2703971  33.2675648  55.4071739  82.1989715  25.5436783
  56.1993031  81.8580539  25.1283082  55.6468389  82.3084690  26.4638936
  63.4406866  84.3709491  18.0167027  62.7894846  84.9563571  17.6301041
  64.2351229  84.9015686  18.0762065  57.3662493  81.4598628  18.4154162
  58.1393369  80.9127615  18.2767037  57.7187892  82.3242877  18.6268623
  59.2047536  82.7875010  31.6221061  58.9137402  83.6920641  31.5067727
  59.8404520  82.8291538  32.3365130  60.1303742  80.1651859  28.2122420
  60.7267315  79.9407881  27.4979383  60.1878714  79.4236604  28.8147868
  59.7028771  77.6191294  16.0472611  59.9554291  77.0972815  15.2856074
  58.7653330  77.4557440  16.1499295  64.7472054  76.6227072  23.8547355
  65.5335143  76.2046496  23.5037772  65.0110758  77.5273165  24.0229003
  64.9182131  82.0599923  18.5536011  64.2827964  82.1334549  19.2656916
  64.5879537  82.6493522  17.8755091  70.1480481  76.5602306  24.7580333
  70.8805653  75.9901522  24.9918163  69.3919836  76.1723906  25.1986839
  59.4225060  79.5219400  18.2496986  59.3061318  78.8464303  18.9178071
  59.5327319  79.0351774  17.4329139  61.7656600  78.9829547  21.9543676
  61.4014808  78.4560168  22.6656597  62.6223716  78.5928016  21.7810161
  67.6705901  70.2723880  29.2174942  67.3389226  71.1419291  28.9936157
  67.0751514  69.9560164  29.8968972  61.4062087  74.0119447  16.9505024
  61.5736490  74.8799683  17.3175495  61.2159257  74.1746729  16.0266313
  64.1637421  82.4736426  28.6170854  63.8638144  83.3761465  28.5086662
  63.8188480  82.2068609  29.4692007  57.6149902  78.9250223  24.6507559
  56.6900399  78.7926437  24.8585251  57.8634315  79.7044442  25.1477501
  67.5634564  74.9918966  26.2968292  66.6551442  74.9234374  26.0027053
  67.5122160  75.4690911  27.1250117  61.3851308  76.4677104  17.9351691
  61.2650934  76.9134155  18.7737171  60.6903897  76.8162422  17.3765229
  54.9758713  78.5683496  25.4851348  55.1051094  78.8217975  26.3990760
  54.2956164  79.1611204  25.1656003  59.1458200  89.2380746  21.5841822
  59.0682230  90.1888571  21.6630303  58.5419844  88.8926619  22.2416748
  61.6375430  76.4108612  34.2403189  60.8608764  76.9702532  34.2306054
  62.2765993  76.8965395  34.7618059  69.4296211  73.1935404  28.0746166
  68.7870591  73.4867938  27.4285960  68.9251139  73.0788325  28.8799362
  67.0836374  76.9398578  18.7632025  67.9954231  77.1725964  18.5879723
  66.5746022  77.5235622  18.2007104  59.8921803  79.2194065  33.8021156
  60.6336487  79.7579109  33.5255980  59.1858788  79.8460354  33.9592708
  65.3677142  81.3623205  32.3993318  65.7760498  80.9205616  31.6547950
  64.6454404  80.7875833  32.6527510  61.7208212  76.2995812  29.7726875
  62.5669407  76.7235226  29.9161524  61.6606850  75.6429436  30.4665438
  65.6905957  81.9224396  26.1545606  65.0614819  82.0870110  25.4521674
  65.3031619  82.3366006  26.9256570  69.5695189  82.8578834  23.5089970
  68.8846227  83.2377735  22.9587004  69.6539038  83.4674161  24.2421918
  64.8707658  73.9600181  31.4308048  64.6268589  74.7142241  30.8942324
  65.1467588  74.3385528  32.2655295  66.8246120  80.5038793  30.1085314
  67.0363016  81.1470553  29.4319695  66.7775869  79.6701109  29.6407244
  64.4272349  73.1156614  27.0121886  63.5656828  73.4137867  27.3038623
  64.4534784  73.3327012  26.0802919  61.2433919  81.6598804  23.4195692
  61.7072264  81.9386507  22.6300314  60.9790717  80.7582249  23.2368782
  58.1358000  81.2070286  26.3575455  58.7059357  81.6357554  25.7192939
  58.7266112  80.9252870  27.0559640  60.1802805  77.7821956  20.2285257
  60.8826848  78.2343000  20.6959183  59.8483433  77.1405775  20.8565150
  58.6283166  76.3733713  34.6036466  57.9981827  77.0549994  34.8371863
  58.5219254  76.2616795  33.6589604  53.9228139  76.0405509  25.5302390
  53.1327193  76.2963038  25.0542501  54.4139386  76.8553847  25.6354431
  67.9391948  83.3810748  28.2807671  68.7609392  82.9790936  27.9990353
  67.9354351  83.2778982  29.2323787  55.8742884  76.4050088  22.4885867
  55.0774047  76.5168783  23.0069363  55.6468476  76.7436741  21.6226757
  61.7048552  82.9294792  30.4368382  61.7692984  83.3915199  31.2726553
  60.9959476  82.2992157  30.5650691  52.2065842  76.2936000  27.9617381
  52.4573880  77.1783009  28.2274957  52.7425390  76.1140601  27.1892473
  76.0297941  79.7249497  24.6292643  75.2761650  79.1556895  24.4736647
  76.1645482  79.6912161  25.5763277  61.4196569  84.5962899  20.3047362
  61.2842244  85.4414435  20.7332210  61.9606382  84.7982177  19.5413296
  57.9063909  70.6754479  36.9661717  57.5130855  70.1220677  37.6409361
  58.7230049  70.9865057  37.3568235  54.8725967  82.1138337  20.8775287
  55.3850487  82.9081587  21.0280852  55.5248680  81.4164628  20.8108888
  56.6820851  85.2304093  22.9598040  56.8587480  86.1522058  22.7719024
  57.4777685  84.9162513  23.3892420  60.8231870  72.0912358  34.5581974
  61.5641583  72.6919511  34.4786436  61.0549793  71.3489996  34.0000016
  55.9673208  77.2768725  32.8360203  55.8526723  76.3753983  33.1367302
  55.1117726  77.5232422  32.4845020  63.0465046  85.2186466  34.4347704
  62.6028900  84.4322844  34.1168608  63.7082259  85.4065616  33.7691595
  57.8052167  86.7482267  28.9608383  58.3559592  86.6199331  28.1885376
  56.9663643  87.0477156  28.6103275  65.1446284  85.4989266  32.4629105
  65.1264759  86.3198147  31.9709374  66.0666204  85.3743341  32.6879246
  61.6019338  83.0133395  33.3052614  62.1347675  82.2521683  33.0751922
  61.0733419  82.7207047  34.0476768  64.7689033  68.1193461  28.8346255
  64.4253302  69.0095103  28.7585366  65.1367996  67.9295119  27.9715840
  52.8374884  80.4426991  21.6534858  53.6750106  80.8524000  21.4368565
  53.0153151  79.5026434  21.6235051  64.7339316  78.1102072  17.3418690
  64.2185939  78.8806677  17.5807078  64.4616624  77.4367208  17.9651752
  62.3186427  72.9551773  22.4003929  61.4628023  72.5658623  22.2209568
  62.7313378  73.0343734  21.5403714  63.8485573  70.4898116  26.7995489
  63.3450369  70.4528251  25.9863294  64.1416180  71.3990859  26.8592145
  60.0928459  70.5736846  25.8061670  60.9581456  70.3779655  25.4467560
  60.1605968  70.3447198  26.7331027  69.7073590  80.8634427  19.2771864
  68.9303033  80.5245586  18.8327026  70.3865071  80.8687050  18.6026829
  64.5225619  75.9829164  19.1678472  64.2175754  76.2975313  20.0188615
  65.4756061  76.0610584  19.2105805  62.9672051  82.1419387  20.8171426
  62.4393412  81.4072147  20.5044663  62.4659553  82.9194064  20.5711394
  67.9464897  80.3368408  25.9338472  67.2888571  81.0267669  26.0218601
  68.7505296  80.7264840  26.2772458  57.6990778  72.8039054  23.1778037
  58.2734530  72.5814235  22.4451230  58.2861761  72.8727748  23.9306638
  66.7570355  78.6912781  23.9842414  67.2702237  79.3242772  24.4864123
  67.4071579  78.0913976  23.6185774  58.0260365  74.8343515  17.1973922
  57.1897678  75.1718201  17.5183197  57.8865135  74.6992495  16.2601059
  60.0013446  69.6780303  21.9053107  59.3477858  69.3629320  21.2809721
  59.9593920  69.0556043  22.6312930  61.1124651  79.9599598  13.8206399
  60.2051713  79.7288851  14.0197548  61.6095683  79.1637217  14.0080380
  64.0192730  88.6697105  16.7403085  63.3454428  88.9728802  17.3488043
  64.4058552  89.4726185  16.3908542  63.2351186  76.1662236  26.2300754
  62.3173748  76.3877183  26.0722442  63.6511330  76.2408547  25.3712462
  64.0186234  77.5653652  21.3603434  64.7658053  78.0775049  21.0510557
  64.2877824  77.2437705  22.2207828  62.2912884  80.0612193  18.3430389
  61.3824104  79.7771225  18.4402859  62.3207968  80.4811271  17.4833696
  67.5232152  83.6718782  22.1121556  67.0694479  82.8309692  22.1686747
  66.8926118  84.3080180  22.4496336  66.4665071  74.6010768  23.3422224
  65.7287828  74.0888154  23.6732466  66.7191845  74.1611150  22.5305501
  65.9665091  85.5095279  23.0471374  66.2588065  86.0700336  22.3283740
  66.4763711  85.8023840  23.8024534  66.5676699  67.3787020  23.9363993
  66.8735575  66.5184384  23.6489908  67.2929303  67.9704640  23.7362987
  52.8601055  77.7817707  22.3245591  52.6625454  77.1887067  21.5996658
  52.3047719  77.4769917  23.0421530  60.8397778  77.6740813  24.4440184
  60.8946388  76.7214650  24.3682661  60.0288980  77.8300252  24.9281483
  61.9888972  81.6020936  15.6818467  61.5508402  80.8856795  15.2224105
  62.7299413  81.8297051  15.1203559  58.7790138  76.2917873  22.2030563
  57.9658004  76.5912044  22.6095755  59.2749132  75.8973562  22.9205045
  60.9298716  86.2875630  24.1364828  60.8874895  86.5136476  23.2073360
  61.8461415  86.0539004  24.2850629  64.3764350  76.7559697  31.0345457
  64.7313738  76.9831171  31.8939923  65.0236481  77.0878074  30.4122712
  70.1062087  79.8778133  21.7394786  69.9679985  80.0679729  20.8115975
  69.7498306  80.6397516  22.1962837  58.2704213  73.8636228  27.8191798
  58.9103592  73.7224988  27.1214761  57.4381744  73.5770742  27.4430400
  70.1331466  81.9454660  26.7506057  70.5667973  81.8529949  27.5989111
  70.8463047  81.9212161  26.1126073  59.0464517  83.1638659  23.9326790
  59.8405115  82.6688979  23.7309365  58.3356209  82.6356522  23.5694496
  63.8659361  85.5456754  28.2839158  63.9196384  86.1147691  29.0516874
  62.9974143  85.7158639  27.9193195  55.3547280  77.3081741  20.0086543
  54.4244868  77.2466196  20.2256505  55.4504752  76.7857693  19.2123184
  55.2732829  73.8336553  22.5964785  55.5339647  74.7481887  22.4873945
  56.0950002  73.3660996  22.7461398  56.7457755  75.2474311  29.7663609
  57.4180808  75.0391673  29.1176258  55.9187541  75.0496397  29.3268842
  70.9947016  81.9878361  29.2838943  71.1882906  82.8924171  29.5298218
  70.8947634  81.5285780  30.1177528  62.6483327  71.8736252  31.7829270
  62.0011242  72.5726201  31.6893747  63.4184342  72.3072395  32.1505518
  66.0562125  82.1385104  34.8579823  65.9047631  81.9095655  33.9409907
  66.0466804  83.0955705  34.8711168  62.8247461  79.7117016  29.8426090
  63.7539521  79.8628176  29.6695057  62.4038491  79.8001037  28.9874736
  61.6235793  83.7367681  27.6124628  61.4846879  83.3686465  28.4850566
  60.8350389  84.2515320  27.4408585  62.2183945  88.8376777  18.9550164
  62.3935701  88.3664821  19.7695787  61.5316733  89.4642544  19.1831425
  63.1741008  83.1149284  25.0013465  62.8390841  83.0750054  25.8971115
  62.6744954  82.4494000  24.5283876  57.1485252  78.5216914  30.5266046
  57.0105050  77.7897152  31.1277585  58.0590175  78.4325814  30.2450234
  66.1100200  80.4605318  15.2750525  65.4929370  79.7352146  15.1783578
  65.6416688  81.2214678  14.9317599  59.7767553  78.2336873  30.0149726
  60.4867171  77.5930065  29.9736345  59.7336861  78.4849768  30.9375907
  67.7654331  85.1704226  32.9356305  67.7066877  84.4863446  32.2686888
  68.1673850  85.9123216  32.4836931  58.4896487  75.2202091  31.8345366
  57.9533844  74.7692829  32.4866962  57.9013195  75.3548000  31.0915830
  56.7845030  91.9866140  25.7290024  57.0241628  92.6184664  26.4069043
  55.9414227  91.6354180  26.0155383  57.8998746  74.6790742  14.3971829
  57.0228212  74.5579543  14.0334076  58.3756499  73.8876821  14.1450718
  67.7671739  83.1343810  31.1670285  66.8798517  82.7969732  31.2896684
  68.3370290  82.4026841  31.4039050  49.4200886  79.4667902  24.4913336
  50.1071926  79.1529632  23.9034352  49.2649014  80.3709267  24.2180588
  54.2235608  74.3558099  28.9198360  54.1393797  73.7483768  28.1848770
  53.4018314  74.8467117  28.9207856  61.2972892  87.7945263  28.1331528
  61.2243063  88.6000234  28.6450833  60.8550285  87.9937228  27.3079550
  61.0862672  87.0317033  21.6434350  60.3030194  87.5738713  21.7372574
  61.7855417  87.5491012  22.0428591  64.3959322  72.8411662  24.2868555
  64.8928021  72.0881624  23.9669625  63.6246303  72.8775979  23.7211764
  72.2489079  78.5452028  25.9286847  72.2378955  79.4276743  25.5580780
  71.3806459  78.1923578  25.7341384  63.7571576  87.6932097  30.2889687
  64.4699548  88.3279561  30.2165588  63.2661604  87.7895963  29.4729689
  65.4789102  81.5983349  21.8606979  64.5445381  81.7184812  21.6911683
  65.6565771  80.6955816  21.5966988  60.9794290  74.9829045  24.0140240
  60.6092078  74.4300085  24.7021145  61.4753383  74.3787179  23.4615240
  68.8661654  77.4400669  22.3957013  69.3322106  78.2728660  22.3217315
  69.3169154  76.9745650  23.1002271  58.8083489  85.4426540  31.1095258
  59.5092949  86.0763023  31.2624652  58.3378604  85.7841272  30.3490897
  66.9337885  83.7844490  19.3943165  67.2097729  83.6701084  20.3037039
  66.0642384  83.3861975  19.3555338  66.8378317  69.8081256  26.4347914
  65.9241396  70.0385482  26.6030121  67.2671418  69.8919700  27.2861946
  66.6084775  77.9971148  28.9347808  65.9556225  78.2447055  28.2800261
  66.9865155  77.1835286  28.6010285  63.5691949  88.0330841  23.0375978
  63.7514343  87.2152497  23.5003731  64.3924935  88.2498533  22.6000868
  63.9034114  86.9599026  20.2991027  64.4321881  86.4491480  19.6861189
  64.1662334  86.6441556  21.1636560  62.6572348  78.7390959  35.4213845
  61.9812985  78.6385088  36.0916220  63.4799982  78.5830172  35.8849842
  54.4051207  84.9762895  28.0426360  54.9904644  84.2306583  28.1754265
  54.2076046  85.2866852  28.9263024  57.2589862  88.0114143  23.0588803
  56.5900238  88.4960270  22.5752843  57.1202732  88.2583363  23.9732181
  48.9968862  77.5468495  26.7630803  49.0352961  77.0132086  27.5567922
  48.4909155  77.0203701  26.1441781  61.3995131  90.0457886  29.6571461
  61.9513439  90.2089508  30.4220546  61.7401324  90.6362324  28.9851486
  56.3759624  72.3933036  30.2593346  56.4400951  73.2547867  29.8470743
  56.3126744  71.7807037  29.5265704  55.8511897  74.4656168  33.9066380
  56.4783935  74.0833246  34.5203904  54.9939816  74.2470370  34.2722073
  66.2506005  84.8719144  35.5120116  66.7945909  85.4849102  35.0175070
  65.6692850  85.4298722  36.0287129  52.6277439  76.2732597  19.8384735
  52.9230881  75.3643276  19.7851789  51.7265475  76.2520337  19.5165737
  64.5363518  87.9939862  26.6435143  64.4114658  87.1929601  26.1346089
  65.1942609  88.4886055  26.1549113  56.1571686  74.3488594  25.8212283
  55.4358272  74.9624562  25.6819757  56.9464942  74.8846359  25.7428929
  66.5998427  85.7948882  28.2714693  65.6528762  85.6754233  28.1993020
  66.9481200  84.9071380  28.3540955  58.9598000  71.6843021  32.0952935
  59.4832402  71.9305317  32.8579245  58.7410333  72.5163055  31.6756073
  54.3565281  73.9546695  19.9624060  54.0277987  73.0744074  19.7799166
  54.7104652  73.8994364  20.8500449  63.6044860  85.5901598  24.4719046
  63.4569822  84.6618305  24.6526616  64.4298353  85.6121689  23.9876121
  57.4707104  74.2419665  20.3299538  57.8103177  74.7705586  19.6078146
  57.9179225  74.5800071  21.1058104  67.2078982  86.4130157  25.5583918
  68.1325529  86.2073018  25.4208369  67.0394285  86.1646558  26.4673260
  60.1650545  72.6256716  29.7802606  59.8247365  71.8264529  30.1823286
  59.4589551  72.9258426  29.2079439  60.8167017  69.7106028  28.2329929
  61.6393086  69.2366506  28.1108819  61.0605080  70.4896512  28.7328615
  59.4575251  72.7394287  18.5292830  60.1783614  73.1175539  18.0256547
  58.8340555  73.4583163  18.6327808  63.6006374  73.4439435  19.4651163
  63.8169989  74.3264073  19.1639991  63.1200441  73.0525649  18.7356805
  58.3405596  76.4025149  26.0421907  58.1950176  76.7165452  26.9346189
  57.8630799  77.0210049  25.4892806  60.2001978  73.3927697  26.0902797
  60.1863547  72.4968790  25.7535095  60.9174407  73.3998360  26.7241083
  62.0528109  73.8265037  28.1355924  61.7945887  74.7482108  28.1340255
  61.5213150  73.4295471  28.8256389  66.9974298  86.9315824  20.9146010
  67.1711175  86.3662247  20.1619862  67.4903189  87.7316719  20.7325500
  52.8151258  78.9430493  28.9809569  52.2704726  79.7190301  29.1129843
  53.6930608  79.2901298  28.8228690  59.6038874  72.2742077  21.3590367
  59.7254786  71.3458723  21.5581255  59.3140917  72.2880763  20.4468683
  62.4730065  69.9596987  24.4957087  62.4951762  70.0236321  23.5409066
  62.8898124  69.1201496  24.6897593  72.8513689  79.6952247  22.5336310
  73.2944835  78.9459572  22.1355433  71.9740199  79.6862383  22.1510042
  67.9849470  86.2482588  18.0142908  68.6800375  86.8689281  18.2330223
  68.3272621  85.3977940  18.2895286  53.6017280  78.0700389  31.8739725
  52.8599016  78.2183025  32.4604356  53.2810024  78.3308655  31.0106475
  69.8840894  83.6982294  19.5430239  70.4092218  84.0369567  18.8179559
  69.7963246  82.7629309  19.3593373  61.5460942  87.6116368  31.6720115
  61.8548069  87.3665514  32.5442815  62.3436424  87.8163006  31.1838986
  61.5681554  89.7654277  23.9025492  61.1286545  89.2730656  24.5958349
  62.3189671  89.2227245  23.6617567  54.0473893  85.9565818  23.9050120
  54.8731913  85.6569590  23.5248764  53.6967945  85.1873441  24.3539909
  59.0155426  85.3092286  25.9747794  58.3935436  84.6462991  25.6750022
  59.6860293  85.3353418  25.2921441  52.2482498  83.8752145  24.8639054
  51.4114407  83.4474319  24.6823055  52.2206144  84.0684588  25.8009845
  59.0879954  73.7874074  35.5680300  59.1368109  74.6636197  35.1858069
  59.6302468  73.2451467  34.9951943  69.5734800  84.3315198  34.8481437
  68.7830343  84.3139336  34.3085936  69.3368154  84.8703491  35.6030473
  69.6932675  81.1807664  32.1614165  69.7430680  81.0157671  33.1029688
  69.5846598  80.3134923  31.7712046  58.5768933  83.8596210  19.4506254
  58.7257054  84.5431674  18.7972927  59.3835377  83.8401300  19.9655710
  66.9836437  77.1638592  33.4773472  67.8846300  77.0245057  33.1857470
  67.0584412  77.3293047  34.4171649  61.3179242  74.5405447  32.3226658
  60.4482552  74.8339013  32.0509247  61.5538723  75.1245892  33.0433922
  71.1950871  83.6004605  32.4056187  70.9035680  83.9634586  33.2419648
  70.5823003  82.8871614  32.2269519  72.3946554  81.1657485  24.9258757
  73.2293445  81.6047289  25.0896317  72.5305683  80.6896138  24.1067003
  69.4438060  78.7237220  30.8736245  69.9192181  78.9164866  30.0655096
  68.5203625  78.7796406  30.6279629  56.3321566  79.8861387  20.4567323
  56.0867608  78.9823717  20.6547533  56.5017481  79.8878538  19.5146801
  64.0218276  70.7585064  29.8392079  64.5400220  71.4946091  29.5138567
  63.6673409  71.0649057  30.6738838  55.6017214  75.6189745  17.9553485
  54.9086459  75.6934100  17.2993521  55.3568966  74.8550089  18.4775002
  64.2730870  67.1785346  25.3592975  64.5532624  66.5108535  25.9853402
  65.0581477  67.3714442  24.8467639  62.0764339  86.3544340  16.9218002
  61.5038306  86.9734527  16.4688474  62.6497133  86.9043702  17.4557924
  68.1439729  75.6002980  29.1064550  69.0957152  75.7001078  29.1276774
  67.9743179  74.8081249  29.6162635  66.1654108  72.6858563  29.2923951
  65.5704040  72.9663576  28.5970440  65.8803805  73.1752464  30.0640692
  65.2961599  86.6381490  18.0526584  66.2292272  86.5727052  18.2559459
  65.2084811  87.4737757  17.5941117  67.9249615  85.9547361  15.0130531
  67.8463247  85.6207224  15.9066289  68.7459282  86.4469129  15.0122004
  70.6227807  78.8209100  28.2206850  70.5904127  77.8825101  28.4066534
  71.2328430  78.8993137  27.4872675  62.4611137  77.6905153  14.2634054
  63.4070242  77.5611361  14.3322472  62.0825382  76.9519815  14.7403482
  70.7722295  75.6120143  28.2665133  70.2561344  74.8278600  28.0795062
  71.6562244  75.2838860  28.4311653  68.4333022  69.3561159  24.2260946
  68.2357843  69.0476247  25.1104278  69.0432728  70.0822798  24.3558876
  76.4404356  79.8825107  27.3612887  77.1707745  79.6210395  27.9220590
  75.8311302  79.1453829  27.4014955  74.5219653  78.0232969  27.9587338
  73.7952817  77.8888934  27.3503830  74.1066940  78.3309798  28.7644056
  62.3449830  81.7422899  35.7234711  63.2652839  81.9201498  35.9174758
  62.3099413  80.7978944  35.5714410  60.6454055  75.6155129  14.1988939
  59.7385510  75.3188242  14.2751653  60.9230036  75.3184947  13.3323226
  51.5631995  76.9361493  24.6487986  51.2434779  76.0826801  24.3562360
  51.0165423  77.1510071  25.4045953  55.3411902  79.6523934  28.3657492
  55.5597912  80.5841041  28.3845526  55.7537676  79.2931908  29.1512296
  62.2616120  70.1592019  20.3533181  61.4516849  69.8139104  20.7288427
  62.9500537  69.8499563  20.9420792  64.1906669  69.2370066  21.9757477
  64.7437707  69.6565519  22.6347500  64.4276755  68.3105814  22.0180433
  60.2139768  75.2257139  37.7560241  60.1136495  76.1751496  37.6872332
  59.9961310  74.8975378  36.8836311  59.4152839  72.4742064  14.3400919
  60.2772003  72.7996963  14.5996736  59.6003183  71.6873560  13.8273984
  51.4320255  80.5564404  26.6181107  50.7383726  80.1418357  26.1051062
  52.1793246  80.5984941  26.0214526  67.5685476  71.3470591  21.4836142
  66.9884145  72.0055395  21.1014194  67.3021408  70.5247936  21.0723559
  66.0189042  70.7475649  23.6857462  66.5188820  70.8592183  22.8771781
  66.6624650  70.4436701  24.3258270  60.0771038  78.6554278  36.5725303
  59.5938120  79.4554638  36.7789192  60.1631977  78.6662223  35.6192747
  53.3456997  80.4882658  24.4947122  53.3227686  80.5870345  23.5429005
  53.6557634  81.3347809  24.8164288  56.0044375  82.5458813  28.6093737
  56.9587629  82.5142755  28.5423668  55.8056899  82.0849437  29.4243963
  56.5943757  81.1159929  31.1764534  57.4136646  81.6104008  31.1999372
  56.8680565  80.1991897  31.1482102  66.3510354  73.5070681  20.5392490
  65.4636209  73.7920332  20.3212685  66.7664343  73.3464445  19.6919767
  69.7024890  73.5317202  24.2546829  70.4785280  74.0213655  24.5271446
  68.9773024  73.9575256  24.7118699  72.1397448  74.2444822  25.3120770
  72.7341939  74.0040557  24.6014078  72.2124032  73.5251952  25.9394306
  54.3594604  88.0878432  25.6263935  54.2249072  87.3278833  25.0601933
  53.9426666  88.8119332  25.1592723  65.4953567  83.2715356  14.6340510
  66.1989417  83.4765358  15.2498165  64.7716216  83.8392118  14.8989593
  66.3251377  79.0225217  20.7542780  66.2686579  79.4793769  19.9150412
  66.8779720  78.2615902  20.5765623  70.1356183  74.8114949  21.5792899
  69.8793118  74.4111585  22.4101107  69.5109051  75.5258743  21.4543039
  74.4468521  77.5511022  24.0864191  73.8868079  77.6204212  24.8595753
  73.8412025  77.3752007  23.3663687  57.5163730  88.9847749  25.8382377
  57.3996114  89.9293182  25.7361067  56.6956176  88.6821311  26.2268176
  67.4040265  83.7097885  16.6838970  68.2385868  83.2779084  16.5016445
  67.2424607  83.5379899  17.6115864  67.0586157  80.2129999  18.0495309
  67.0034961  80.0474270  17.1083753  66.4332212  80.9206031  18.2057499
  51.8478672  75.4498063  31.8756731  52.4937535  74.9397017  32.3643957
  51.6395823  76.1866745  32.4500157  64.3732064  82.5178910  37.3748872
  65.2423224  82.6919563  37.0135507  63.8938815  83.3373327  37.2524601
  60.3682282  69.7138108  17.6280628  60.3560952  70.6579947  17.7848898
  61.2605704  69.5308253  17.3340089  58.5418244  89.6376011  29.0538306
  59.4445491  89.6699622  29.3704801  58.3155614  88.7076462  29.0684641
  60.2971846  88.3906998  25.7148384  59.3467477  88.3908860  25.6012756
  60.6004332  87.6439732  25.1984419  64.1834402  66.3080884  21.8826564
  63.4166797  65.7539371  22.0283247  64.5945107  66.3802753  22.7440716
  56.1876163  72.5965680  35.9731746  57.0507624  72.2402485  36.1835070
  55.6141573  72.2579575  36.6607150  76.0324540  94.2267536  26.7794147
  76.6702950  94.1074284  26.0757487  75.9145383  95.1748380  26.8382099
  72.8414246  94.1794964  26.7155671  72.5032757  94.0636029  25.8276206
  73.7104014  93.7786130  26.6956677  68.7001062  96.0330441  22.7052562
  68.1365927  95.9420378  21.9368850  68.5853457  95.2130345  23.1855055
  73.3234029  95.3329816  32.6741877  73.3122670  94.9382614  31.8022380
  73.4854668  94.5995889  33.2675648  66.2465494  97.5281632  25.5436783
  67.0386785  97.1872457  25.1283082  66.4862144  97.6376607  26.4638936
  74.2800620  99.7001409  18.0167027  73.6288600 100.2855489  17.6301041
  75.0744983 100.2307603  18.0762065  68.2056247  96.7890546  18.4154162
  68.9787123  96.2419533  18.2767037  68.5581646  97.6534795  18.6268623
  70.0441290  98.1166928  31.6221061  69.7531156  99.0212559  31.5067727
  70.6798274  98.1583456  32.3365130  70.9697497  95.4943776  28.2122420
  71.5661069  95.2699799  27.4979383  71.0272468  94.7528522  28.8147868
  70.5422525  92.9483212  16.0472611  70.7948046  92.4264733  15.2856074
  69.6047084  92.7849357  16.1499295  75.5865808  91.9518990  23.8547355
  76.3728897  91.5338413  23.5037772  75.8504512  92.8565082  24.0229003
  75.7575885  97.3891840  18.5536011  75.1221718  97.4626467  19.2656916
  75.4273292  97.9785439  17.8755091  80.9874235  91.8894223  24.7580333
  81.7199407  91.3193440  24.9918163  80.2313591  91.5015824  25.1986839
  70.2618814  94.8511318  18.2496986  70.1455072  94.1756221  18.9178071
  70.3721074  94.3643692  17.4329139  72.6050355  94.3121465  21.9543676
  72.2408562  93.7852086  22.6656597  73.4617471  93.9219934  21.7810161
  78.5099656  85.6015797  29.2174942  78.1782980  86.4711208  28.9936157
  77.9145269  85.2852081  29.8968972  72.2455842  89.3411365  16.9505024
  72.4130244  90.2091601  17.3175495  72.0553011  89.5038646  16.0266313
  75.0031175  97.8028343  28.6170854  74.7031898  98.7053382  28.5086662
  74.6582235  97.5360527  29.4692007  68.4543657  94.2542140  24.6507559
  67.5294153  94.1218354  24.8585251  68.7028070  95.0336360  25.1477501
  78.4028319  90.3210884  26.2968292  77.4945196  90.2526292  26.0027053
  78.3515915  90.7982829  27.1250117  72.2245063  91.7969022  17.9351691
  72.1044688  92.2426073  18.7737171  71.5297651  92.1454340  17.3765229
  65.8152468  93.8975414  25.4851348  65.9444849  94.1509893  26.3990760
  65.1349919  94.4903122  25.1656003  69.9851955 104.5672664  21.5841822
  69.9075985 105.5180489  21.6630303  69.3813599 104.2218536  22.2416748
  72.4769185  91.7400529  34.2403189  71.7002519  92.2994449  34.2306054
  73.1159748  92.2257312  34.7618059  80.2689965  88.5227322  28.0746166
  79.6264346  88.8159855  27.4285960  79.7644894  88.4080242  28.8799362
  77.9230129  92.2690495  18.7632025  78.8347985  92.5017882  18.5879723
  77.4139776  92.8527539  18.2007104  70.7315557  94.5485983  33.8021156
  71.4730241  95.0871027  33.5255980  70.0252542  95.1752271  33.9592708
  76.2070897  96.6915123  32.3993318  76.6154253  96.2497534  31.6547950
  75.4848158  96.1167751  32.6527510  72.5601967  91.6287730  29.7726875
  73.4063162  92.0527143  29.9161524  72.5000604  90.9721354  30.4665438
  76.5299711  97.2516314  26.1545606  75.9008574  97.4162028  25.4521674
  76.1425373  97.6657923  26.9256570  80.4088943  98.1870752  23.5089970
  79.7239981  98.5669653  22.9587004  80.4932792  98.7966078  24.2421918
  75.7101412  89.2892098  31.4308048  75.4662344  90.0434159  30.8942324
  75.9861343  89.6677446  32.2655295  77.6639875  95.8330711  30.1085314
  77.8756770  96.4762470  29.4319695  77.6169623  94.9993027  29.6407244
  75.2666104  88.4448531  27.0121886  74.4050583  88.7429785  27.3038623
  75.2928538  88.6618930  26.0802919  72.0827673  96.9890722  23.4195692
  72.5466019  97.2678425  22.6300314  71.8184471  96.0874166  23.2368782
  68.9751754  96.5362203  26.3575455  69.5453111  96.9649472  25.7192939
  69.5659866  96.2544788  27.0559640  71.0196559  93.1113874  20.2285257
  71.7220603  93.5634918  20.6959183  70.6877188  92.4697693  20.8565150
  69.4676921  91.7025631  34.6036466  68.8375581  92.3841912  34.8371863
  69.3613009  91.5908712  33.6589604  64.7621893  91.3697427  25.5302390
  63.9720947  91.6254955  25.0542501  65.2533141  92.1845765  25.6354431
  78.7785703  98.7102666  28.2807671  79.6003146  98.3082853  27.9990353
  78.7748106  98.6070900  29.2323787  66.7136639  91.7342006  22.4885867
  65.9167802  91.8460700  23.0069363  66.4862231  92.0728658  21.6226757
  72.5442306  98.2586709  30.4368382  72.6086739  98.7207117  31.2726553
  71.8353230  97.6284074  30.5650691  63.0459596  91.6227917  27.9617381
  63.2967635  92.5074927  28.2274957  63.5819145  91.4432519  27.1892473
  86.8691696  95.0541414  24.6292643  86.1155404  94.4848813  24.4736647
  87.0039237  95.0204079  25.5763277  72.2590324  99.9254817  20.3047362
  72.1235999 100.7706352  20.7332210  72.8000136 100.1274094  19.5413296
  68.7457663  86.0046397  36.9661717  68.3524609  85.4512595  37.6409361
  69.5623804  86.3156975  37.3568235  65.7119721  97.4430255  20.8775287
  66.2244242  98.2373505  21.0280852  66.3642434  96.7456545  20.8108888
  67.5214606 100.5596011  22.9598040  67.6981234 101.4813976  22.7719024
  68.3171439 100.2454430  23.3892420  71.6625624  87.4204276  34.5581974
  72.4035338  88.0211429  34.4786436  71.8943547  86.6781913  34.0000016
  66.8066962  92.6060643  32.8360203  66.6920478  91.7045900  33.1367302
  65.9511480  92.8524340  32.4845020  73.8858800 100.5478383  34.4347704
  73.4422654  99.7614762  34.1168608  74.5476014 100.7357534  33.7691595
  68.6445921 102.0774185  28.9608383  69.1953347 101.9491248  28.1885376
  67.8057397 102.3769074  28.6103275  75.9840038 100.8281183  32.4629105
  75.9658514 101.6490064  31.9709374  76.9059958 100.7035258  32.6879246
  72.4413092  98.3425313  33.3052614  72.9741429  97.5813601  33.0751922
  71.9127174  98.0498964  34.0476768  75.6082787  83.4485379  28.8346255
  75.2647057  84.3387020  28.7585366  75.9761750  83.2587036  27.9715840
  63.6768638  95.7718909  21.6534858  64.5143860  96.1815917  21.4368565
  63.8546906  94.8318351  21.6235051  75.5733070  93.4393990  17.3418690
  75.0579694  94.2098594  17.5807078  75.3010379  92.7659126  17.9651752
  73.1580181  88.2843691  22.4003929  72.3021777  87.8950541  22.2209568
  73.5707133  88.3635651  21.5403714  74.6879328  85.8190034  26.7995489
  74.1844123  85.7820169  25.9863294  74.9809935  86.7282777  26.8592145
  70.9322214  85.9028764  25.8061670  71.7975210  85.7071572  25.4467560
  70.9999723  85.6739115  26.7331027  80.5467344  96.1926344  19.2771864
  79.7696787  95.8537504  18.8327026  81.2258825  96.1978968  18.6026829
  75.3619373  91.3121082  19.1678472  75.0569509  91.6267231  20.0188615
  76.3149815  91.3902502  19.2105805  73.8065805  97.4711305  20.8171426
  73.2787167  96.7364065  20.5044663  73.3053308  98.2485982  20.5711394
  78.7858651  95.6660326  25.9338472  78.1282326  96.3559587  26.0218601
  79.5899050  96.0556758  26.2772458  68.5384533  88.1330971  23.1778037
  69.1128285  87.9106153  22.4451230  69.1255515  88.2019666  23.9306638
  77.5964110  94.0204698  23.9842414  78.1095992  94.6534690  24.4864123
  78.2465334  93.4205894  23.6185774  68.8654120  90.1635432  17.1973922
  68.0291432  90.5010119  17.5183197  68.7258890  90.0284412  16.2601059
  70.8407200  85.0072220  21.9053107  70.1871613  84.6921238  21.2809721
  70.7987675  84.3847961  22.6312930  71.9518405  95.2891515  13.8206399
  71.0445467  95.0580769  14.0197548  72.4489437  94.4929135  14.0080380
  74.8586484 103.9989023  16.7403085  74.1848183 104.3020719  17.3488043
  75.2452306 104.8018103  16.3908542  74.0744941  91.4954154  26.2300754
  73.1567502  91.7169101  26.0722442  74.4905084  91.5700464  25.3712462
  74.8579989  92.8945570  21.3603434  75.6051808  93.4066967  21.0510557
  75.1271578  92.5729622  22.2207828  73.1306639  95.3904110  18.3430389
  72.2217858  95.1063143  18.4402859  73.1601723  95.8103189  17.4833696
  78.3625906  99.0010700  22.1121556  77.9088233  98.1601610  22.1686747
  77.7319873  99.6372098  22.4496336  77.3058826  89.9302686  23.3422224
  76.5681583  89.4180072  23.6732466  77.5585599  89.4903067  22.5305501
  76.8058845 100.8387196  23.0471374  77.0981820 101.3992254  22.3283740
  77.3157466 101.1315757  23.8024534  77.4070453  82.7078938  23.9363993
  77.7129330  81.8476301  23.6489908  78.1323058  83.2996558  23.7362987
  63.6994809  93.1109624  22.3245591  63.5019209  92.5178985  21.5996658
  63.1441473  92.8061835  23.0421530  71.6791533  93.0032731  24.4440184
  71.7340143  92.0506567  24.3682661  70.8682735  93.1592170  24.9281483
  72.8282727  96.9312854  15.6818467  72.3902156  96.2148713  15.2224105
  73.5693167  97.1588969  15.1203559  69.6183893  91.6209791  22.2030563
  68.8051758  91.9203961  22.6095755  70.1142887  91.2265479  22.9205045
  71.7692471 101.6167548  24.1364828  71.7268649 101.8428394  23.2073360
  72.6855169 101.3830922  24.2850629  75.2158104  92.0851615  31.0345457
  75.5707492  92.3123088  31.8939923  75.8630236  92.4169992  30.4122712
  80.9455841  95.2070051  21.7394786  80.8073740  95.3971647  20.8115975
  80.5892060  95.9689434  22.1962837  69.1097967  89.1928146  27.8191798
  69.7497347  89.0516905  27.1214761  68.2775498  88.9062660  27.4430400
  80.9725221  97.2746578  26.7506057  81.4061728  97.1821867  27.5989111
  81.6856802  97.2504078  26.1126073  69.8858271  98.4930577  23.9326790
  70.6798870  97.9980897  23.7309365  69.1749964  97.9648440  23.5694496
  74.7053116 100.8748672  28.2839158  74.7590138 101.4439608  29.0516874
  73.8367897 101.0450557  27.9193195  66.1941035  92.6373658  20.0086543
  65.2638623  92.5758114  20.2256505  66.2898507  92.1149611  19.2123184
  66.1126584  89.1628471  22.5964785  66.3733401  90.0773804  22.4873945
  66.9343756  88.6952914  22.7461398  67.5851509  90.5766228  29.7663609
  68.2574563  90.3683590  29.1176258  66.7581296  90.3788314  29.3268842
  81.8340771  97.3170279  29.2838943  82.0276661  98.2216089  29.5298218
  81.7341389  96.8577698  30.1177528  73.4877081  87.2028169  31.7829270
  72.8404996  87.9018119  31.6893747  74.2578097  87.6364313  32.1505518
  76.8955879  97.4677021  34.8579823  76.7441386  97.2387573  33.9409907
  76.8860559  98.4247623  34.8711168  73.6641216  95.0408934  29.8426090
  74.5933276  95.1920094  29.6695057  73.2432246  95.1292955  28.9874736
  72.4629547  99.0659599  27.6124628  72.3240633  98.6978383  28.4850566
  71.6744144  99.5807238  27.4408585  73.0577699 104.1668695  18.9550164
  73.2329455 103.6956738  19.7695787  72.3710487 104.7934461  19.1831425
  74.0134763  98.4441201  25.0013465  73.6784595  98.4041971  25.8971115
  73.5138708  97.7785917  24.5283876  67.9879006  93.8508831  30.5266046
  67.8498804  93.1189070  31.1277585  68.8983930  93.7617731  30.2450234
  76.9493954  95.7897236  15.2750525  76.3323125  95.0644064  15.1783578
  76.4810443  96.5506596  14.9317599  70.6161307  93.5628791  30.0149726
  71.3260926  92.9221983  29.9736345  70.5730615  93.8141685  30.9375907
  78.6048086 100.4996144  32.9356305  78.5460632  99.8155364  32.2686888
  79.0067604 101.2415134  32.4836931  69.3290241  90.5494009  31.8345366
  68.7927598  90.0984747  32.4866962  68.7406950  90.6839917  31.0915830
  67.6238785 107.3158058  25.7290024  67.8635383 107.9476582  26.4069043
  66.7807981 106.9646098  26.0155383  68.7392500  90.0082660  14.3971829
  67.8621966  89.8871461  14.0334076  69.2150253  89.2168738  14.1450718
  78.6065493  98.4635728  31.1670285  77.7192272  98.1261650  31.2896684
  79.1764044  97.7318759  31.4039050  60.2594640  94.7959820  24.4913336
  60.9465680  94.4821550  23.9034352  60.1042769  95.7001184  24.2180588
  65.0629362  89.6850016  28.9198360  64.9787551  89.0775686  28.1848770
  64.2412069  90.1759035  28.9207856  72.1366647 103.1237180  28.1331528
  72.0636818 103.9292152  28.6450833  71.6944040 103.3229146  27.3079550
  71.9256426 102.3608950  21.6434350  71.1423948 102.9030630  21.7372574
  72.6249171 102.8782930  22.0428591  75.2353076  88.1703580  24.2868555
  75.7321776  87.4173542  23.9669625  74.4640058  88.2067896  23.7211764
  83.0882834  93.8743945  25.9286847  83.0772710  94.7568661  25.5580780
  82.2200213  93.5215496  25.7341384  74.5965330 103.0224014  30.2889687
  75.3093302 103.6571479  30.2165588  74.1055359 103.1187880  29.4729689
  76.3182857  96.9275267  21.8606979  75.3839136  97.0476729  21.6911683
  76.4959525  96.0247734  21.5966988  71.8188045  90.3120963  24.0140240
  71.4485833  89.7592003  24.7021145  72.3147137  89.7079096  23.4615240
  79.7055408  92.7692586  22.3957013  80.1715860  93.6020578  22.3217315
  80.1562909  92.3037568  23.1002271  69.6477244 100.7718458  31.1095258
  70.3486703 101.4054941  31.2624652  69.1772359 101.1133189  30.3490897
  77.7731639  99.1136408  19.3943165  78.0491483  98.9993002  20.3037039
  76.9036138  98.7153892  19.3555338  77.6772071  85.1373173  26.4347914
  76.7635151  85.3677400  26.6030121  78.1065172  85.2211617  27.2861946
  77.4478530  93.3263065  28.9347808  76.7949980  93.5738973  28.2800261
  77.8258909  92.5127203  28.6010285  74.4085703 103.3622758  23.0375978
  74.5908098 102.5444414  23.5003731  75.2318689 103.5790451  22.6000868
  74.7427869 102.2890943  20.2991027  75.2715635 101.7783398  19.6861189
  75.0056088 101.9733474  21.1636560  73.4966103  94.0682876  35.4213845
  72.8206740  93.9677006  36.0916220  74.3193736  93.9122090  35.8849842
  65.2444962 100.3054813  28.0426360  65.8298398  99.5598501  28.1754265
  65.0469800 100.6158770  28.9263024  68.0983617 103.3406060  23.0588803
  67.4293992 103.8252188  22.5752843  67.9596487 103.5875281  23.9732181
  59.8362616  92.8760413  26.7630803  59.8746716  92.3424004  27.5567922
  59.3302909  92.3495619  26.1441781  72.2388885 105.3749804  29.6571461
  72.7907193 105.5381425  30.4220546  72.5795079 105.9654242  28.9851486
  67.2153379  87.7224954  30.2593346  67.2794705  88.5839784  29.8470743
  67.1520499  87.1098955  29.5265704  66.6905651  89.7948086  33.9066380
  67.3177690  89.4125163  34.5203904  65.8333570  89.5762288  34.2722073
  77.0899760 100.2011061  35.5120116  77.6339664 100.8141019  35.0175070
  76.5086605 100.7590640  36.0287129  63.4671194  91.6024515  19.8384735
  63.7624635  90.6935194  19.7851789  62.5659230  91.5812255  19.5165737
  75.3757273 103.3231779  26.6435143  75.2508412 102.5221519  26.1346089
  76.0336364 103.8177973  26.1549113  66.9965441  89.6780512  25.8212283
  66.2752027  90.2916479  25.6819757  67.7858697  90.2138277  25.7428929
  77.4392181 101.1240799  28.2714693  76.4922517 101.0046150  28.1993020
  77.7874954 100.2363297  28.3540955  69.7991754  87.0134938  32.0952935
  70.3226156  87.2597235  32.8579245  69.5804088  87.8454973  31.6756073
  65.1959036  89.2838613  19.9624060  64.8671742  88.4035992  19.7799166
  65.5498406  89.2286282  20.8500449  74.4438614 100.9193516  24.4719046
  74.2963577  99.9910223  24.6526616  75.2692108 100.9413606  23.9876121
  68.3100859  89.5711583  20.3299538  68.6496931  90.0997504  19.6078146
  68.7572979  89.9091989  21.1058104  78.0472736 101.7422074  25.5583918
  78.9719284 101.5364936  25.4208369  77.8788040 101.4938475  26.4673260
  71.0044299  87.9548633  29.7802606  70.6641120  87.1556446  30.1823286
  70.2983306  88.2550344  29.2079439  71.6560771  85.0397946  28.2329929
  72.4786841  84.5658424  28.1108819  71.8998835  85.8188430  28.7328615
  70.2969006  88.0686204  18.5292830  71.0177368  88.4467457  18.0256547
  69.6734310  88.7875081  18.6327808  74.4400129  88.7731353  19.4651163
  74.6563743  89.6555991  19.1639991  73.9594196  88.3817567  18.7356805
  69.1799350  91.7317066  26.0421907  69.0343931  92.0457369  26.9346189
  68.7024554  92.3501967  25.4892806  71.0395733  88.7219614  26.0902797
  71.0257302  87.8260708  25.7535095  71.7568161  88.7290278  26.7241083
  72.8921864  89.1556955  28.1355924  72.6339641  90.0774025  28.1340255
  72.3606904  88.7587389  28.8256389  77.8368052 102.2607742  20.9146010
  78.0104930 101.6954164  20.1619862  78.3296944 103.0608637  20.7325500
  63.6545012  94.2722411  28.9809569  63.1098480  95.0482219  29.1129843
  64.5324362  94.6193215  28.8228690  70.4432629  87.6033995  21.3590367
  70.5648540  86.6750641  21.5581255  70.1534671  87.6172681  20.4468683
  73.3123819  85.2888905  24.4957087  73.3345516  85.3528238  23.5409066
  73.7291878  84.4493414  24.6897593  83.6907444  95.0244165  22.5336310
  84.1338590  94.2751490  22.1355433  82.8133954  95.0154301  22.1510042
  78.8243225 101.5774506  18.0142908  79.5194130 102.1981199  18.2330223
  79.1666375 100.7269857  18.2895286  64.4411034  93.3992307  31.8739725
  63.6992770  93.5474942  32.4604356  64.1203778  93.6600573  31.0106475
  80.7234648  99.0274212  19.5430239  81.2485972  99.3661484  18.8179559
  80.6357001  98.0921227  19.3593373  72.3854697 102.9408285  31.6720115
  72.6941823 102.6957432  32.5442815  73.1830179 103.1454924  31.1838986
  72.4075309 105.0946195  23.9025492  71.9680299 104.6022574  24.5958349
  73.1583426 104.5519163  23.6617567  64.8867648 101.2857736  23.9050120
  65.7125668 100.9861508  23.5248764  64.5361700 100.5165358  24.3539909
  69.8549181 100.6384204  25.9747794  69.2329190  99.9754909  25.6750022
  70.5254048 100.6645336  25.2921441  63.0876253  99.2044062  24.8639054
  62.2508161  98.7766237  24.6823055  63.0599898  99.3976506  25.8009845
  69.9273708  89.1165992  35.5680300  69.9761864  89.9928115  35.1858069
  70.4696223  88.5743385  34.9951943  80.4128554  99.6607115  34.8481437
  79.6224098  99.6431254  34.3085936  80.1761909 100.1995409  35.6030473
  80.5326429  96.5099582  32.1614165  80.5824434  96.3449589  33.1029688
  80.4240353  95.6426841  31.7712046  69.4162688  99.1888127  19.4506254
  69.5650808  99.8723592  18.7972927  70.2229131  99.1693217  19.9655710
  77.8230192  92.4930510  33.4773472  78.7240054  92.3536975  33.1857470
  77.8978166  92.6584965  34.4171649  72.1572997  89.8697364  32.3226658
  71.2876306  90.1630930  32.0509247  72.3932477  90.4537809  33.0433922
  82.0344626  98.9296523  32.4056187  81.7429434  99.2926504  33.2419648
  81.4216757  98.2163531  32.2269519  83.2340308  96.4949403  24.9258757
  84.0687200  96.9339207  25.0896317  83.3699437  96.0188056  24.1067003
  80.2831814  94.0529138  30.8736245  80.7585936  94.2456784  30.0655096
  79.3597380  94.1088324  30.6279629  67.1715321  95.2153305  20.4567323
  66.9261363  94.3115635  20.6547533  67.3411235  95.2170455  19.5146801
  74.8612031  86.0876981  29.8392079  75.3793975  86.8238008  29.5138567
  74.5067163  86.3940975  30.6738838  66.4410968  90.9481663  17.9553485
  65.7480213  91.0226018  17.2993521  66.1962720  90.1842006  18.4775002
  75.1124625  82.5077264  25.3592975  75.3926379  81.8400453  25.9853402
  75.8975232  82.7006360  24.8467639  72.9158093 101.6836258  16.9218002
  72.3432060 102.3026445  16.4688474  73.4890887 102.2335619  17.4557924
  78.9833483  90.9294898  29.1064550  79.9350906  91.0292996  29.1276774
  78.8136934  90.1373166  29.6162635  77.0047863  88.0150481  29.2923951
  76.4097795  88.2955494  28.5970440  76.7197559  88.5044382  30.0640692
  76.1355353 101.9673408  18.0526584  77.0686026 101.9018970  18.2559459
  76.0478566 102.8029675  17.5941117  78.7643370 101.2839278  15.0130531
  78.6857001 100.9499142  15.9066289  79.5853037 101.7761046  15.0122004
  81.4621561  94.1501018  28.2206850  81.4297881  93.2117018  28.4066534
  82.0722185  94.2285054  27.4872675  73.3004892  93.0197071  14.2634054
  74.2463997  92.8903279  14.3322472  72.9219137  92.2811732  14.7403482
  81.6116049  90.9412061  28.2665133  81.0955098  90.1570518  28.0795062
  82.4955998  90.6130778  28.4311653  79.2726776  84.6853077  24.2260946
  79.0751598  84.3768165  25.1104278  79.8826482  85.4114715  24.3558876
  87.2798111  95.2117024  27.3612887  88.0101499  94.9502313  27.9220590
  86.6705056  94.4745746  27.4014955  85.3613408  93.3524887  27.9587338
  84.6346572  93.2180852  27.3503830  84.9460695  93.6601716  28.7644056
  73.1843584  97.0714817  35.7234711  74.1046594  97.2493416  35.9174758
  73.1493167  96.1270862  35.5714410  71.4847809  90.9447047  14.1988939
  70.5779264  90.6480160  14.2751653  71.7623790  90.6476865  13.3323226
  62.4025749  92.2653410  24.6487986  62.0828534  91.4118719  24.3562360
  61.8559178  92.4801988  25.4045953  66.1805657  94.9815851  28.3657492
  66.3991667  95.9132959  28.3845526  66.5931431  94.6223826  29.1512296
  73.1009875  85.4883937  20.3533181  72.2910603  85.1431022  20.7288427
  73.7894292  85.1791480  20.9420792  75.0300423  84.5661983  21.9757477
  75.5831462  84.9857437  22.6347500  75.2670509  83.6397732  22.0180433
  71.0533522  90.5549057  37.7560241  70.9530249  91.5043414  37.6872332
  70.8355064  90.2267296  36.8836311  70.2546594  87.8033982  14.3400919
  71.1165758  88.1288880  14.5996736  70.4396938  87.0165478  13.8273984
  62.2714009  95.8856322  26.6181107  61.5777481  95.4710275  26.1051062
  63.0187000  95.9276858  26.0214526  78.4079230  86.6762509  21.4836142
  77.8277899  87.3347313  21.1014194  78.1415163  85.8539853  21.0723559
  76.8582796  86.0767566  23.6857462  77.3582575  86.1884101  22.8771781
  77.5018404  85.7728619  24.3258270  70.9164792  93.9846196  36.5725303
  70.4331874  94.7846556  36.7789192  71.0025731  93.9954141  35.6192747
  64.1850752  95.8174576  24.4947122  64.1621440  95.9162263  23.5429005
  64.4951388  96.6639726  24.8164288  66.8438130  97.8750731  28.6093737
  67.7981383  97.8434673  28.5423668  66.6450653  97.4141354  29.4243963
  67.4337512  96.4451847  31.1764534  68.2530401  96.9395925  31.1999372
  67.7074320  95.5283815  31.1482102  77.1904108  88.8362599  20.5392490
  76.3029963  89.1212250  20.3212685  77.6058097  88.6756362  19.6919767
  80.5418644  88.8609120  24.2546829  81.3179034  89.3505572  24.5271446
  79.8166778  89.2867174  24.7118699  82.9791203  89.5736739  25.3120770
  83.5735694  89.3332475  24.6014078  83.0517787  88.8543870  25.9394306
  65.1988359 103.4170350  25.6263935  65.0642827 102.6570751  25.0601933
  64.7820421 104.1411250  25.1592723  76.3347322  98.6007274  14.6340510
  77.0383172  98.8057276  15.2498165  75.6109970  99.1684036  14.8989593
  77.1645132  94.3517135  20.7542780  77.1080333  94.8085686  19.9150412
  77.7173474  93.5907820  20.5765623  80.9749938  90.1406867  21.5792899
  80.7186872  89.7403502  22.4101107  80.3502806  90.8550661  21.4543039
  85.2862276  92.8802940  24.0864191  84.7261834  92.9496129  24.8595753
  84.6805779  92.7043925  23.3663687  68.3557484 104.3139667  25.8382377
  68.2389869 105.2585100  25.7361067  67.5349931 104.0113229  26.2268176
  78.2434019  99.0389803  16.6838970  79.0779623  98.6071001  16.5016445
  78.0818362  98.8671817  17.6115864  77.8979911  95.5421916  18.0495309
  77.8428715  95.3766188  17.1083753  77.2725966  96.2497949  18.2057499
  62.6872426  90.7789981  31.8756731  63.3331290  90.2688935  32.3643957
  62.4789577  91.5158662  32.4500157  75.2125818  97.8470828  37.3748872
  76.0816978  98.0211480  37.0135507  74.7332570  98.6665245  37.2524601
  71.2076037  85.0430025  17.6280628  71.1954706  85.9871865  17.7848898
  72.0999459  84.8600171  17.3340089  69.3811999 104.9667929  29.0538306
  70.2839245 104.9991539  29.3704801  69.1549369 104.0368380  29.0684641
  71.1365601 103.7198916  25.7148384  70.1861232 103.7200777  25.6012756
  71.4398087 102.9731650  25.1984419  75.0228156  81.6372802  21.8826564
  74.2560552  81.0831289  22.0283247  75.4338861  81.7094671  22.7440716
  67.0269917  87.9257598  35.9731746  67.8901379  87.5694402  36.1835070
  66.4535328  87.5871492  36.6607150  86.8718294 109.5559454  26.7794147
  87.5096704 109.4366201  26.0757487  86.7539137 110.5040298  26.8382099
  83.6808000 109.5086882  26.7155671  83.3426512 109.3927947  25.8276206
  84.5497769 109.1078047  26.6956677  79.5394816 111.3622359  22.7052562
  78.9759681 111.2712295  21.9368850  79.4247211 110.5422263  23.1855055
  84.1627783 110.6621734  32.6741877  84.1516424 110.2674532  31.8022380
  84.3248423 109.9287806  33.2675648  77.0859248 112.8573550  25.5436783
  77.8780540 112.5164375  25.1283082  77.3255898 112.9668525  26.4638936
  85.1194375 115.0293326  18.0167027  84.4682355 115.6147407  17.6301041
  85.9138738 115.5599521  18.0762065  79.0450002 112.1182463  18.4154162
  79.8180878 111.5711450  18.2767037  79.3975401 112.9826713  18.6268623
  80.8835045 113.4458846  31.6221061  80.5924910 114.3504476  31.5067727
  81.5192029 113.4875373  32.3365130  81.8091251 110.8235694  28.2122420
  82.4054824 110.5991717  27.4979383  81.8666223 110.0820440  28.8147868
  81.3816280 108.2775129  16.0472611  81.6341800 107.7556651  15.2856074
  80.4440839 108.1141275  16.1499295  86.4259563 107.2810908  23.8547355
  87.2122652 106.8630331  23.5037772  86.6898267 108.1857000  24.0229003
  86.5969640 112.7183758  18.5536011  85.9615473 112.7918385  19.2656916
  86.2667046 113.3077357  17.8755091  91.8267990 107.2186141  24.7580333
  92.5593162 106.6485358  24.9918163  91.0707345 106.8307741  25.1986839
  81.1012569 110.1803235  18.2496986  80.9848827 109.5048139  18.9178071
  81.2114828 109.6935609  17.4329139  83.4444109 109.6413383  21.9543676
  83.0802317 109.1144004  22.6656597  84.3011225 109.2511852  21.7810161
  89.3493410 100.9307715  29.2174942  89.0176735 101.8003126  28.9936157
  88.7539023 100.6143999  29.8968972  83.0849596 104.6703282  16.9505024
  83.2523999 105.5383519  17.3175495  82.8946765 104.8330564  16.0266313
  85.8424930 113.1320261  28.6170854  85.5425653 114.0345300  28.5086662
  85.4975989 112.8652444  29.4692007  79.2937411 109.5834058  24.6507559
  78.3687908 109.4510272  24.8585251  79.5421824 110.3628277  25.1477501
  89.2422073 105.6502801  26.2968292  88.3338951 105.5818210  26.0027053
  89.1909669 106.1274746  27.1250117  83.0638817 107.1260940  17.9351691
  82.9438442 107.5717990  18.7737171  82.3691406 107.4746257  17.3765229
  76.6546222 109.2267332  25.4851348  76.7838603 109.4801810  26.3990760
  75.9743673 109.8195040  25.1656003  80.8245709 119.8964581  21.5841822
  80.7469739 120.8472407  21.6630303  80.2207353 119.5510454  22.2416748
  83.3162939 107.0692447  34.2403189  82.5396273 107.6286367  34.2306054
  83.9553502 107.5549230  34.7618059  91.1083720 103.8519240  28.0746166
  90.4658100 104.1451773  27.4285960  90.6038648 103.7372160  28.8799362
  88.7623883 107.5982413  18.7632025  89.6741740 107.8309800  18.5879723
  88.2533531 108.1819457  18.2007104  81.5709311 109.8777900  33.8021156
  82.3123996 110.4162944  33.5255980  80.8646297 110.5044189  33.9592708
  87.0464651 112.0207041  32.3993318  87.4548007 111.5789451  31.6547950
  86.3241913 111.4459668  32.6527510  83.3995721 106.9579648  29.7726875
  84.2456916 107.3819061  29.9161524  83.3394359 106.3013272  30.4665438
  87.3693466 112.5808231  26.1545606  86.7402328 112.7453945  25.4521674
  86.9819128 112.9949841  26.9256570  91.2482698 113.5162669  23.5089970
  90.5633736 113.8961571  22.9587004  91.3326547 114.1257996  24.2421918
  86.5495167 104.6184016  31.4308048  86.3056098 105.3726076  30.8942324
  86.8255097 104.9969363  32.2655295  88.5033629 111.1622628  30.1085314
  88.7150525 111.8054388  29.4319695  88.4563378 110.3284945  29.6407244
  86.1059858 103.7740449  27.0121886  85.2444337 104.0721702  27.3038623
  86.1322293 103.9910848  26.0802919  82.9221428 112.3182639  23.4195692
  83.3859773 112.5970342  22.6300314  82.6578226 111.4166084  23.2368782
  79.8145509 111.8654121  26.3575455  80.3846866 112.2941389  25.7192939
  80.4053621 111.5836706  27.0559640  81.8590314 108.4405792  20.2285257
  82.5614357 108.8926835  20.6959183  81.5270942 107.7989611  20.8565150
  80.3070675 107.0317548  34.6036466  79.6769336 107.7133829  34.8371863
  80.2006763 106.9200630  33.6589604  75.6015648 106.6989344  25.5302390
  74.8114702 106.9546873  25.0542501  76.0926895 107.5137682  25.6354431
  89.6179457 114.0394584  28.2807671  90.4396901 113.6374771  27.9990353
  89.6141860 113.9362818  29.2323787  77.5530393 107.0633924  22.4885867
  76.7561556 107.1752618  23.0069363  77.3255985 107.4020576  21.6226757
  83.3836061 113.5878627  30.4368382  83.4480493 114.0499034  31.2726553
  82.6746985 112.9575992  30.5650691  73.8853351 106.9519835  27.9617381
  74.1361389 107.8366845  28.2274957  74.4212899 106.7724436  27.1892473
  97.7085450 110.3833332  24.6292643  96.9549159 109.8140730  24.4736647
  97.8432991 110.3495997  25.5763277  83.0984078 115.2546734  20.3047362
  82.9629753 116.0998270  20.7332210  83.6393891 115.4566012  19.5413296
  79.5851418 101.3338314  36.9661717  79.1918364 100.7804513  37.6409361
  80.4017558 101.6448893  37.3568235  76.5513476 112.7722172  20.8775287
  77.0637996 113.5665423  21.0280852  77.2036189 112.0748463  20.8108888
  78.3608360 115.8887929  22.9598040  78.5374989 116.8105893  22.7719024
  79.1565194 115.5746348  23.3892420  82.5019379 102.7496193  34.5581974
  83.2429092 103.3503347  34.4786436  82.7337302 102.0073831  34.0000016
  77.6460717 107.9352561  32.8360203  77.5314232 107.0337818  33.1367302
  76.7905235 108.1816257  32.4845020  84.7252555 115.8770301  34.4347704
  84.2816409 115.0906680  34.1168608  85.3869768 116.0649451  33.7691595
  79.4839676 117.4066103  28.9608383  80.0347101 117.2783166  28.1885376
  78.6451152 117.7060992  28.6103275  86.8233793 116.1573101  32.4629105
  86.8052268 116.9781982  31.9709374  87.7453713 116.0327176  32.6879246
  83.2806847 113.6717230  33.3052614  83.8135184 112.9105519  33.0751922
  82.7520928 113.3790882  34.0476768  86.4476542  98.7777296  28.8346255
  86.1040811  99.6678938  28.7585366  86.8155504  98.5878954  27.9715840
  74.5162392 111.1010827  21.6534858  75.3537614 111.5107835  21.4368565
  74.6940660 110.1610269  21.6235051  86.4126825 108.7685907  17.3418690
  85.8973448 109.5390512  17.5807078  86.1404133 108.0951044  17.9651752
  83.9973936 103.6135608  22.4003929  83.1415532 103.2242459  22.2209568
  84.4100887 103.6927569  21.5403714  85.5273082 101.1481951  26.7995489
  85.0237878 101.1112087  25.9863294  85.8203689 102.0574694  26.8592145
  81.7715968 101.2320681  25.8061670  82.6368965 101.0363490  25.4467560
  81.8393477 101.0031033  26.7331027  91.3861099 111.5218262  19.2771864
  90.6090542 111.1829422  18.8327026  92.0652580 111.5270885  18.6026829
  86.2013128 106.6413000  19.1678472  85.8963263 106.9559149  20.0188615
  87.1543570 106.7194419  19.2105805  84.6459560 112.8003223  20.8171426
  84.1180921 112.0655982  20.5044663  84.1447062 113.5777899  20.5711394
  89.6252406 110.9952243  25.9338472  88.9676080 111.6851505  26.0218601
  90.4292805 111.3848675  26.2772458  79.3778287 103.4622889  23.1778037
  79.9522039 103.2398071  22.4451230  79.9649270 103.5311584  23.9306638
  88.4357864 109.3496616  23.9842414  88.9489746 109.9826608  24.4864123
  89.0859088 108.7497812  23.6185774  79.7047874 105.4927350  17.1973922
  78.8685187 105.8302037  17.5183197  79.5652644 105.3576330  16.2601059
  81.6800955 100.3364138  21.9053107  81.0265367 100.0213155  21.2809721
  81.6381429  99.7139878  22.6312930  82.7912160 110.6183433  13.8206399
  81.8839222 110.3872687  14.0197548  83.2883192 109.8221052  14.0080380
  85.6980239 119.3280940  16.7403085  85.0241937 119.6312637  17.3488043
  86.0846061 120.1310021  16.3908542  84.9138695 106.8246072  26.2300754
  83.9961257 107.0461019  26.0722442  85.3298839 106.8992382  25.3712462
  85.6973743 108.2237487  21.3603434  86.4445562 108.7358884  21.0510557
  85.9665333 107.9021540  22.2207828  83.9700393 110.7196028  18.3430389
  83.0611613 110.4355061  18.4402859  83.9995477 111.1395107  17.4833696
  89.2019661 114.3302617  22.1121556  88.7481988 113.4893527  22.1686747
  88.5713627 114.9664016  22.4496336  88.1452580 105.2594604  23.3422224
  87.4075337 104.7471990  23.6732466  88.3979354 104.8194985  22.5305501
  87.6452600 116.1679114  23.0471374  87.9375574 116.7284171  22.3283740
  88.1551220 116.4607675  23.8024534  88.2464208  98.0370856  23.9363993
  88.5523084  97.1768219  23.6489908  88.9716812  98.6288476  23.7362987
  74.5388564 108.4401542  22.3245591  74.3412963 107.8470903  21.5996658
  73.9835228 108.1353752  23.0421530  82.5185287 108.3324649  24.4440184
  82.5733897 107.3798485  24.3682661  81.7076489 108.4884088  24.9281483
  83.6676481 112.2604772  15.6818467  83.2295911 111.5440631  15.2224105
  84.4086922 112.4880886  15.1203559  80.4577647 106.9501708  22.2030563
  79.6445513 107.2495879  22.6095755  80.9536641 106.5557397  22.9205045
  82.6086225 116.9459465  24.1364828  82.5662404 117.1720312  23.2073360
  83.5248924 116.7122840  24.2850629  86.0551859 107.4143533  31.0345457
  86.4101247 107.6415006  31.8939923  86.7023990 107.7461910  30.4122712
  91.7849596 110.5361969  21.7394786  91.6467494 110.7263565  20.8115975
  91.4285815 111.2981351  22.1962837  79.9491722 104.5220064  27.8191798
  80.5891101 104.3808823  27.1214761  79.1169253 104.2354577  27.4430400
  91.8118975 112.6038496  26.7506057  92.2455482 112.5113785  27.5989111
  92.5250556 112.5795996  26.1126073  80.7252026 113.8222494  23.9326790
  81.5192624 113.3272814  23.7309365  80.0143718 113.2940357  23.5694496
  85.5446870 116.2040590  28.2839158  85.5983893 116.7731526  29.0516874
  84.6761652 116.3742475  27.9193195  77.0334789 107.9665576  20.0086543
  76.1032377 107.9050031  20.2256505  77.1292261 107.4441529  19.2123184
  76.9520338 104.4920389  22.5964785  77.2127156 105.4065722  22.4873945
  77.7737511 104.0244831  22.7461398  78.4245264 105.9058146  29.7663609
  79.0968317 105.6975508  29.1176258  77.5975050 105.7080232  29.3268842
  92.6734525 112.6462196  29.2838943  92.8670415 113.5508007  29.5298218
  92.5735143 112.1869615  30.1177528  84.3270836 102.5320087  31.7829270
  83.6798751 103.2310037  31.6893747  85.0971851 102.9656231  32.1505518
  87.7349634 112.7968939  34.8579823  87.5835140 112.5679491  33.9409907
  87.7254313 113.7539541  34.8711168  84.5034970 110.3700852  29.8426090
  85.4327030 110.5212011  29.6695057  84.0826000 110.4584873  28.9874736
  83.3023302 114.3951516  27.6124628  83.1634388 114.0270301  28.4850566
  82.5137898 114.9099156  27.4408585  83.8971454 119.4960613  18.9550164
  84.0723210 119.0248656  19.7695787  83.2104242 120.1226379  19.1831425
  84.8528517 113.7733119  25.0013465  84.5178350 113.7333889  25.8971115
  84.3532463 113.1077835  24.5283876  78.8272761 109.1800749  30.5266046
  78.6892559 108.4480988  31.1277585  79.7377684 109.0909649  30.2450234
  87.7887709 111.1189153  15.2750525  87.1716879 110.3935981  15.1783578
  87.3204197 111.8798514  14.9317599  81.4555062 108.8920708  30.0149726
  82.1654680 108.2513900  29.9736345  81.4124370 109.1433603  30.9375907
  89.4441840 115.8288062  32.9356305  89.3854386 115.1447282  32.2686888
  89.8461359 116.5707052  32.4836931  80.1683996 105.8785926  31.8345366
  79.6321353 105.4276665  32.4866962  79.5800704 106.0131835  31.0915830
  78.4632539 122.6449975  25.7290024  78.7029137 123.2768500  26.4069043
  77.6201736 122.2938015  26.0155383  79.5786255 105.3374578  14.3971829
  78.7015721 105.2163378  14.0334076  80.0544008 104.5460656  14.1450718
  89.4459248 113.7927646  31.1670285  88.5586026 113.4553567  31.2896684
  90.0157799 113.0610677  31.4039050  71.0988395 110.1251737  24.4913336
  71.7859435 109.8113467  23.9034352  70.9436523 111.0293102  24.2180588
  75.9023117 105.0141934  28.9198360  75.8181306 104.4067603  28.1848770
  75.0805823 105.5050952  28.9207856  82.9760401 118.4529098  28.1331528
  82.9030572 119.2584069  28.6450833  82.5337794 118.6521064  27.3079550
  82.7650181 117.6900868  21.6434350  81.9817703 118.2322548  21.7372574
  83.4642926 118.2074848  22.0428591  86.0746831 103.4995497  24.2868555
  86.5715530 102.7465460  23.9669625  85.3033812 103.5359814  23.7211764
  93.9276588 109.2035863  25.9286847  93.9166464 110.0860578  25.5580780
  93.0593968 108.8507414  25.7341384  85.4359085 118.3515932  30.2889687
  86.1487057 118.9863397  30.2165588  84.9449113 118.4479798  29.4729689
  87.1576611 112.2567185  21.8606979  86.2232890 112.3768647  21.6911683
  87.3353280 111.3539651  21.5966988  82.6581799 105.6412880  24.0140240
  82.2879587 105.0883921  24.7021145  83.1540892 105.0371014  23.4615240
  90.5449163 108.0984504  22.3957013  91.0109615 108.9312496  22.3217315
  90.9956663 107.6329485  23.1002271  80.4870998 116.1010375  31.1095258
  81.1880458 116.7346858  31.2624652  80.0166113 116.4425107  30.3490897
  88.6125394 114.4428325  19.3943165  88.8885238 114.3284920  20.3037039
  87.7429893 114.0445810  19.3555338  88.5165826 100.4665091  26.4347914
  87.6028905 100.6969318  26.6030121  88.9458927 100.5503535  27.2861946
  88.2872284 108.6554983  28.9347808  87.6343734 108.9030890  28.2800261
  88.6652664 107.8419121  28.6010285  85.2479458 118.6914676  23.0375978
  85.4301852 117.8736332  23.5003731  86.0712444 118.9082368  22.6000868
  85.5821623 117.6182861  20.2991027  86.1109390 117.1075316  19.6861189
  85.8449843 117.3025391  21.1636560  84.3359857 109.3974794  35.4213845
  83.6600494 109.2968923  36.0916220  85.1587491 109.2414008  35.8849842
  76.0838716 115.6346730  28.0426360  76.6692153 114.8890418  28.1754265
  75.8863555 115.9450687  28.9263024  78.9377371 118.6697978  23.0588803
  78.2687747 119.1544105  22.5752843  78.7990241 118.9167198  23.9732181
  70.6756371 108.2052331  26.7630803  70.7140470 107.6715921  27.5567922
  70.1696664 107.6787536  26.1441781  83.0782640 120.7041721  29.6571461
  83.6300948 120.8673343  30.4220546  83.4188833 121.2946159  28.9851486
  78.0547133 103.0516871  30.2593346  78.1188460 103.9131702  29.8470743
  77.9914253 102.4390873  29.5265704  77.5299406 105.1240004  33.9066380
  78.1571444 104.7417081  34.5203904  76.6727325 104.9054206  34.2722073
  87.9293514 115.5302979  35.5120116  88.4733418 116.1432937  35.0175070
  87.3480359 116.0882557  36.0287129  74.3064948 106.9316433  19.8384735
  74.6018390 106.0227111  19.7851789  73.4052984 106.9104172  19.5165737
  86.2151027 118.6523697  26.6435143  86.0902167 117.8513437  26.1346089
  86.8730118 119.1469890  26.1549113  77.8359195 105.0072429  25.8212283
  77.1145781 105.6208397  25.6819757  78.6252451 105.5430194  25.7428929
  88.2785936 116.4532717  28.2714693  87.3316271 116.3338068  28.1993020
  88.6268709 115.5655215  28.3540955  80.6385509 102.3426856  32.0952935
  81.1619911 102.5889152  32.8579245  80.4197842 103.1746891  31.6756073
  76.0352790 104.6130530  19.9624060  75.7065496 103.7327909  19.7799166
  76.3892161 104.5578199  20.8500449  85.2832369 116.2485433  24.4719046
  85.1357331 115.3202141  24.6526616  86.1085862 116.2705524  23.9876121
  79.1494613 104.9003500  20.3299538  79.4890686 105.4289422  19.6078146
  79.5966734 105.2383906  21.1058104  88.8866491 117.0713992  25.5583918
  89.8113038 116.8656853  25.4208369  88.7181794 116.8230393  26.4673260
  81.8438054 103.2840551  29.7802606  81.5034874 102.4848364  30.1823286
  81.1377060 103.5842262  29.2079439  82.4954526 100.3689863  28.2329929
  83.3180595  99.8950342  28.1108819  82.7392589 101.1480347  28.7328615
  81.1362760 103.3978122  18.5292830  81.8571123 103.7759375  18.0256547
  80.5128064 104.1166999  18.6327808  85.2793883 104.1023271  19.4651163
  85.4957498 104.9847909  19.1639991  84.7987950 103.7109484  18.7356805
  80.0193105 107.0608984  26.0421907  79.8737685 107.3749287  26.9346189
  79.5418308 107.6793884  25.4892806  81.8789487 104.0511532  26.0902797
  81.8651056 103.1552625  25.7535095  82.5961916 104.0582196  26.7241083
  83.7315618 104.4848872  28.1355924  83.4733396 105.4065943  28.1340255
  83.2000659 104.0879307  28.8256389  88.6761807 117.5899659  20.9146010
  88.8498684 117.0246082  20.1619862  89.1690698 118.3900554  20.7325500
  74.4938767 109.6014328  28.9809569  73.9492235 110.3774136  29.1129843
  75.3718117 109.9485133  28.8228690  81.2826383 102.9325912  21.3590367
  81.4042295 102.0042559  21.5581255  80.9928426 102.9464598  20.4468683
  84.1517574 100.6180823  24.4957087  84.1739271 100.6820156  23.5409066
  84.5685633  99.7785331  24.6897593  94.5301198 110.3536082  22.5336310
  94.9732344 109.6043408  22.1355433  93.6527708 110.3446219  22.1510042
  89.6636979 116.9066424  18.0142908  90.3587884 117.5273116  18.2330223
  90.0060130 116.0561775  18.2895286  75.2804789 108.7284225  31.8739725
  74.5386525 108.8766860  32.4604356  74.9597533 108.9892490  31.0106475
  91.5628403 114.3566129  19.5430239  92.0879727 114.6953402  18.8179559
  91.4750755 113.4213145  19.3593373  83.2248451 118.2700203  31.6720115
  83.5335578 118.0249350  32.5442815  84.0223933 118.4746841  31.1838986
  83.2469063 120.4238113  23.9025492  82.8074054 119.9314491  24.5958349
  83.9977180 119.8811080  23.6617567  75.7261402 116.6149653  23.9050120
  76.5519422 116.3153425  23.5248764  75.3755454 115.8457276  24.3539909
  80.6942935 115.9676122  25.9747794  80.0722945 115.3046827  25.6750022
  81.3647802 115.9937254  25.2921441  73.9270007 114.5335980  24.8639054
  73.0901916 114.1058154  24.6823055  73.8993653 114.7268423  25.8009845
  80.7667463 104.4457910  35.5680300  80.8155618 105.3220033  35.1858069
  81.3089977 103.9035303  34.9951943  91.2522309 114.9899033  34.8481437
  90.4617852 114.9723172  34.3085936  91.0155663 115.5287327  35.6030473
  91.3720184 111.8391499  32.1614165  91.4218189 111.6741507  33.1029688
  91.2634107 110.9718758  31.7712046  80.2556442 114.5180045  19.4506254
  80.4044563 115.2015509  18.7972927  81.0622886 114.4985135  19.9655710
  88.6623946 107.8222427  33.4773472  89.5633809 107.6828892  33.1857470
  88.7371921 107.9876882  34.4171649  82.9966751 105.1989282  32.3226658
  82.1270061 105.4922848  32.0509247  83.2326232 105.7829727  33.0433922
  92.8738380 114.2588441  32.4056187  92.5823189 114.6218421  33.2419648
  92.2610512 113.5455449  32.2269519  94.0734063 111.8241321  24.9258757
  94.9080954 112.2631125  25.0896317  94.2093192 111.3479974  24.1067003
  91.1225569 109.3821055  30.8736245  91.5979690 109.5748702  30.0655096
  90.1991134 109.4380241  30.6279629  78.0109075 110.5445223  20.4567323
  77.7655117 109.6407553  20.6547533  78.1804990 110.5462373  19.5146801
  85.7005785 101.4168899  29.8392079  86.2187729 102.1529926  29.5138567
  85.3460918 101.7232892  30.6738838  77.2804723 106.2773580  17.9553485
  76.5873968 106.3517935  17.2993521  77.0356475 105.5133924  18.4775002
  85.9518379  97.8369182  25.3592975  86.2320133  97.1692371  25.9853402
  86.7368986  98.0298277  24.8467639  83.7551848 117.0128175  16.9218002
  83.1825815 117.6318363  16.4688474  84.3284642 117.5627537  17.4557924
  89.8227238 106.2586816  29.1064550  90.7744661 106.3584913  29.1276774
  89.6530688 105.4665084  29.6162635  87.8441617 103.3442399  29.2923951
  87.2491549 103.6247411  28.5970440  87.5591314 103.8336300  30.0640692
  86.9749108 117.2965326  18.0526584  87.9079781 117.2310887  18.2559459
  86.8872320 118.1321592  17.5941117  89.6037124 116.6131196  15.0130531
  89.5250756 116.2791060  15.9066289  90.4246791 117.1052964  15.0122004
  92.3015316 109.4792935  28.2206850  92.2691636 108.5408936  28.4066534
  92.9115939 109.5576972  27.4872675  84.1398646 108.3488988  14.2634054
  85.0857751 108.2195196  14.3322472  83.7612891 107.6103650  14.7403482
  92.4509804 106.2703979  28.2665133  91.9348853 105.4862435  28.0795062
  93.3349753 105.9422695  28.4311653  90.1120531 100.0144994  24.2260946
  89.9145352  99.7060082  25.1104278  90.7220236 100.7406633  24.3558876
  98.1191865 110.5408942  27.3612887  98.8495254 110.2794230  27.9220590
  97.5098811 109.8037664  27.4014955  96.2007162 108.6816805  27.9587338
  95.4740326 108.5472770  27.3503830  95.7854449 108.9893633  28.7644056
  84.0237339 112.4006734  35.7234711  84.9440348 112.5785333  35.9174758
  83.9886922 111.4562780  35.5714410  82.3241564 106.2738965  14.1988939
  81.4173019 105.9772077  14.2751653  82.6017545 105.9768783  13.3323226
  73.2419504 107.5945328  24.6487986  72.9222288 106.7410636  24.3562360
  72.6952932 107.8093906  25.4045953  77.0199411 110.3107769  28.3657492
  77.2385421 111.2424877  28.3845526  77.4325185 109.9515743  29.1512296
  83.9403629 100.8175854  20.3533181  83.1304358 100.4722939  20.7288427
  84.6288046 100.5083398  20.9420792  85.8694178  99.8953901  21.9757477
  86.4225216 100.3149355  22.6347500  86.1064264  98.9689649  22.0180433
  81.8927277 105.8840975  37.7560241  81.7924004 106.8335332  37.6872332
  81.6748819 105.5559214  36.8836311  81.0940348 103.1325900  14.3400919
  81.9559512 103.4580798  14.5996736  81.2790692 102.3457396  13.8273984
  73.1107764 111.2148240  26.6181107  72.4171235 110.8002192  26.1051062
  73.8580755 111.2568776  26.0214526  89.2472985 102.0054426  21.4836142
  88.6671654 102.6639230  21.1014194  88.9808917 101.1831771  21.0723559
  87.6976551 101.4059484  23.6857462  88.1976329 101.5176019  22.8771781
  88.3412159 101.1020537  24.3258270  81.7558547 109.3138114  36.5725303
  81.2725629 110.1138474  36.7789192  81.8419486 109.3246058  35.6192747
  75.0244506 111.1466493  24.4947122  75.0015195 111.2454181  23.5429005
  75.3345143 111.9931644  24.8164288  77.6831884 113.2042648  28.6093737
  78.6375138 113.1726591  28.5423668  77.4844408 112.7433272  29.4243963
  78.2731266 111.7743764  31.1764534  79.0924155 112.2687843  31.1999372
  78.5468074 110.8575733  31.1482102  88.0297863 104.1654517  20.5392490
  87.1423718 104.4504167  20.3212685  88.4451852 104.0048280  19.6919767
  91.3812399 104.1901038  24.2546829  92.1572789 104.6797490  24.5271446
  90.6560533 104.6159092  24.7118699  93.8184957 104.9028657  25.3120770
  94.4129448 104.6624393  24.6014078  93.8911541 104.1835787  25.9394306
  76.0382113 118.7462268  25.6263935  75.9036581 117.9862669  25.0601933
  75.6214175 119.4703168  25.1592723  87.1741076 113.9299191  14.6340510
  87.8776926 114.1349194  15.2498165  86.4503725 114.4975953  14.8989593
  88.0038886 109.6809053  20.7542780  87.9474088 110.1377604  19.9150412
  88.5567229 108.9199737  20.5765623  91.8143692 105.4698784  21.5792899
  91.5580627 105.0695420  22.4101107  91.1896560 106.1842578  21.4543039
  96.1256030 108.2094858  24.0864191  95.5655588 108.2788047  24.8595753
  95.5199534 108.0335842  23.3663687  79.1951239 119.6431585  25.8382377
  79.0783623 120.5877017  25.7361067  78.3743685 119.3405146  26.2268176
  89.0827774 114.3681721  16.6838970  89.9173377 113.9362919  16.5016445
  88.9212116 114.1963734  17.6115864  88.7373666 110.8713834  18.0495309
  88.6822469 110.7058105  17.1083753  88.1119721 111.5789867  18.2057499
  73.5266181 106.1081898  31.8756731  74.1725044 105.5980852  32.3643957
  73.3183332 106.8450580  32.4500157  86.0519573 113.1762746  37.3748872
  86.9210732 113.3503398  37.0135507  85.5726324 113.9957163  37.2524601
  82.0469791 100.3721943  17.6280628  82.0348461 101.3163783  17.7848898
  82.9393213 100.1892088  17.3340089  80.2205753 120.2959847  29.0538306
  81.1233000 120.3283457  29.3704801  79.9943123 119.3660298  29.0684641
  81.9759355 119.0490833  25.7148384  81.0254986 119.0492695  25.6012756
  82.2791841 118.3023568  25.1984419  85.8621911  96.9664719  21.8826564
  85.0954306  96.4123206  22.0283247  86.2732616  97.0386588  22.7440716
  77.8663672 103.2549515  35.9731746  78.7295133 102.8986320  36.1835070
  77.2929082 102.9163410  36.6607150  97.7112049 124.8851372  26.7794147
  98.3490459 124.7658119  26.0757487  97.5932891 125.8332216  26.8382099
  94.5201755 124.8378800  26.7155671  94.1820266 124.7219864  25.8276206
  95.3891523 124.4369965  26.6956677  90.3788571 126.6914276  22.7052562
  89.8153436 126.6004213  21.9368850  90.2640966 125.8714181  23.1855055
  95.0021538 125.9913651  32.6741877  94.9910179 125.5966450  31.8022380
  95.1642177 125.2579724  33.2675648  87.9253003 128.1865468  25.5436783
  88.7174294 127.8456292  25.1283082  88.1649653 128.2960443  26.4638936
  89.8843756 127.4474381  18.4154162  90.6574632 126.9003368  18.2767037
  90.2369155 128.3118630  18.6268623  91.7228799 128.7750763  31.6221061
  91.4318665 129.6796394  31.5067727  92.3585783 128.8167291  32.3365130
  92.6485006 126.1527612  28.2122420  93.2448578 125.9283634  27.4979383
  92.7059977 125.4112357  28.8147868  92.2210034 123.6067047  16.0472611
  92.4735555 123.0848568  15.2856074  91.2834593 123.4433193  16.1499295
  97.2653317 122.6102826  23.8547355  98.0516406 122.1922249  23.5037772
  97.5292021 123.5148918  24.0229003 102.6661744 122.5478059  24.7580333
 103.3986916 121.9777276  24.9918163 101.9101100 122.1599659  25.1986839
  91.9406323 125.5095153  18.2496986  91.8242581 124.8340056  18.9178071
  92.0508583 125.0227527  17.4329139  94.2837864 124.9705300  21.9543676
  93.9196071 124.4435921  22.6656597  95.1404980 124.5803769  21.7810161
 100.1887165 116.2599633  29.2174942  99.8570489 117.1295044  28.9936157
  99.5932778 115.9435917  29.8968972  93.9243351 119.9995200  16.9505024
  94.0917753 120.8675436  17.3175495  93.7340520 120.1622482  16.0266313
  96.6818684 128.4612179  28.6170854  96.3819407 129.3637218  28.5086662
  96.3369744 128.1944362  29.4692007  90.1331166 124.9125976  24.6507559
  89.2081662 124.7802190  24.8585251  90.3815579 125.6920195  25.1477501
 100.0815828 120.9794719  26.2968292  99.1732705 120.9110127  26.0027053
 100.0303424 121.4566664  27.1250117  93.9032572 122.4552857  17.9351691
  93.7832197 122.9009908  18.7737171  93.2085160 122.8038175  17.3765229
  87.4939977 124.5559249  25.4851348  87.6232358 124.8093728  26.3990760
  86.8137428 125.1486957  25.1656003  91.6639464 135.2256499  21.5841822
  91.5863494 136.1764324  21.6630303  91.0601107 134.8802372  22.2416748
  94.1556694 122.3984365  34.2403189  93.3790028 122.9578285  34.2306054
  94.7947257 122.8841148  34.7618059 101.9477474 119.1811157  28.0746166
 101.3051855 119.4743691  27.4285960 101.4432403 119.0664078  28.8799362
  99.6017638 122.9274331  18.7632025 100.5135494 123.1601717  18.5879723
  99.0927285 123.5111375  18.2007104  92.4103066 125.2069818  33.8021156
  93.1517750 125.7454862  33.5255980  91.7040051 125.8336107  33.9592708
  97.8858406 127.3498958  32.3993318  98.2941762 126.9081369  31.6547950
  97.1635667 126.7751586  32.6527510  94.2389476 122.2871565  29.7726875
  95.0850671 122.7110979  29.9161524  94.1788113 121.6305189  30.4665438
  98.2087220 127.9100149  26.1545606  97.5796083 128.0745863  25.4521674
  97.8212882 128.3241759  26.9256570 102.0876452 128.8454587  23.5089970
 101.4027490 129.2253488  22.9587004 102.1720301 129.4549914  24.2421918
  97.3888921 119.9475934  31.4308048  97.1449853 120.7017994  30.8942324
  97.6648851 120.3261281  32.2655295  99.3427384 126.4914546  30.1085314
  99.5544279 127.1346306  29.4319695  99.2957132 125.6576862  29.6407244
  96.9453613 119.1032367  27.0121886  96.0838092 119.4013620  27.3038623
  96.9716047 119.3202765  26.0802919  93.7615182 127.6474557  23.4195692
  94.2253528 127.9262260  22.6300314  93.4971980 126.7458002  23.2368782
  90.6539263 127.1946039  26.3575455  91.2240620 127.6233307  25.7192939
  91.2447375 126.9128623  27.0559640  92.6984068 123.7697709  20.2285257
  93.4008112 124.2218753  20.6959183  92.3664697 123.1281528  20.8565150
  91.1464430 122.3609466  34.6036466  90.5163090 123.0425747  34.8371863
  91.0400518 122.2492548  33.6589604  86.4409402 122.0281262  25.5302390
  85.6508456 122.2838791  25.0542501  86.9320650 122.8429600  25.6354431
 100.4573212 129.3686501  28.2807671 101.2790655 128.9666689  27.9990353
 100.4535615 129.2654735  29.2323787  88.3924148 122.3925841  22.4885867
  87.5955311 122.5044536  23.0069363  88.1649740 122.7312494  21.6226757
  94.2229815 128.9170545  30.4368382  94.2874248 129.3790952  31.2726553
  93.5140739 128.2867910  30.5650691  84.7247105 122.2811753  27.9617381
  84.9755144 123.1658763  28.2274957  85.2606654 122.1016354  27.1892473
 108.5479205 125.7125250  24.6292643 107.7942913 125.1432648  24.4736647
 108.6826746 125.6787914  25.5763277  93.9377833 130.5838652  20.3047362
  93.8023508 131.4290188  20.7332210  94.4787645 130.7857930  19.5413296
  90.4245172 116.6630232  36.9661717  90.0312118 116.1096431  37.6409361
  91.2411313 116.9740810  37.3568235  87.3907230 128.1014090  20.8775287
  87.9031751 128.8957340  21.0280852  88.0429943 127.4040381  20.8108888
  89.2002115 131.2179846  22.9598040  89.3768743 132.1397811  22.7719024
  89.9958948 130.9038266  23.3892420  93.3413133 118.0788111  34.5581974
  94.0822847 118.6795264  34.4786436  93.5731056 117.3365749  34.0000016
  88.4854471 123.2644478  32.8360203  88.3707987 122.3629736  33.1367302
  87.6298989 123.5108175  32.4845020  95.5646309 131.2062219  34.4347704
  95.1210163 130.4198597  34.1168608  96.2263523 131.3941369  33.7691595
  90.3233430 132.7358020  28.9608383  90.8740855 132.6075084  28.1885376
  89.4844906 133.0352909  28.6103275  97.6627547 131.4865019  32.4629105
  97.6446023 132.3073900  31.9709374  98.5847467 131.3619094  32.6879246
  94.1200601 129.0009148  33.3052614  94.6528938 128.2397436  33.0751922
  93.5914683 128.7082800  34.0476768  97.2870296 114.1069214  28.8346255
  96.9434566 114.9970856  28.7585366  97.6549259 113.9170872  27.9715840
  85.3556147 126.4302744  21.6534858  86.1931369 126.8399753  21.4368565
  85.5334415 125.4902187  21.6235051  97.2520579 124.0977825  17.3418690
  96.7367203 124.8682430  17.5807078  96.9797888 123.4242961  17.9651752
  94.8367690 118.9427526  22.4003929  93.9809286 118.5534376  22.2209568
  95.2494642 119.0219487  21.5403714  96.3666837 116.4773869  26.7995489
  95.8631632 116.4404004  25.9863294  96.6597444 117.3866612  26.8592145
  92.6109723 116.5612599  25.8061670  93.4762719 116.3655408  25.4467560
  92.6787232 116.3322951  26.7331027  97.0406882 121.9704917  19.1678472
  96.7357018 122.2851066  20.0188615  97.9937324 122.0486337  19.2105805
  95.4853314 128.1295141  20.8171426  94.9574676 127.3947900  20.5044663
  94.9840817 128.9069817  20.5711394 100.4646160 126.3244161  25.9338472
  99.8069835 127.0143422  26.0218601 101.2686559 126.7140593  26.2772458
  90.2172042 118.7914807  23.1778037  90.7915794 118.5689988  22.4451230
  90.8043024 118.8603501  23.9306638  99.2751619 124.6788534  23.9842414
  99.7883501 125.3118526  24.4864123  99.9252843 124.0789729  23.6185774
  90.5441629 120.8219268  17.1973922  89.7078941 121.1593954  17.5183197
  90.4046398 120.6868248  16.2601059  92.5194709 115.6656056  21.9053107
  91.8659122 115.3505073  21.2809721  92.4775184 115.0431796  22.6312930
  95.7532450 122.1537989  26.2300754  94.8355011 122.3752936  26.0722442
  96.1692593 122.2284300  25.3712462  96.5367498 123.5529405  21.3603434
  97.2839317 124.0650802  21.0510557  96.8059087 123.2313458  22.2207828
  94.8094148 126.0487946  18.3430389  93.9005367 125.7646978  18.4402859
  94.8389232 126.4687024  17.4833696 100.0413415 129.6594535  22.1121556
  99.5875742 128.8185445  22.1686747  99.4107382 130.2955934  22.4496336
  98.9846335 120.5886521  23.3422224  98.2469092 120.0763907  23.6732466
  99.2373108 120.1486903  22.5305501  98.4846354 131.4971032  23.0471374
  98.7769329 132.0576089  22.3283740  98.9944975 131.7899593  23.8024534
  99.0857962 113.3662773  23.9363993  99.3916839 112.5060137  23.6489908
  99.8110567 113.9580393  23.7362987  85.3782318 123.7693460  22.3245591
  85.1806718 123.1762820  21.5996658  84.8228982 123.4645670  23.0421530
  93.3579042 123.6616566  24.4440184  93.4127652 122.7090403  24.3682661
  92.5470244 123.8176005  24.9281483  91.2971402 122.2793626  22.2030563
  90.4839267 122.5787797  22.6095755  91.7930396 121.8849315  22.9205045
  93.4479980 132.2751383  24.1364828  93.4056158 132.5012229  23.2073360
  94.3642678 132.0414758  24.2850629  96.8945613 122.7435450  31.0345457
  97.2495001 122.9706924  31.8939923  97.5417745 123.0753827  30.4122712
 102.6243350 125.8653886  21.7394786 102.4861249 126.0555482  20.8115975
 102.2679569 126.6273269  22.1962837  90.7885476 119.8511982  27.8191798
  91.4284856 119.7100741  27.1214761  89.9563007 119.5646495  27.4430400
 102.6512730 127.9330413  26.7506057 103.0849237 127.8405702  27.5989111
 103.3644311 127.9087914  26.1126073  91.5645780 129.1514412  23.9326790
  92.3586379 128.6564732  23.7309365  90.8537473 128.6232275  23.5694496
  96.3840625 131.5332507  28.2839158  96.4377647 132.1023444  29.0516874
  95.5155406 131.7034393  27.9193195  87.8728544 123.2957494  20.0086543
  86.9426132 123.2341949  20.2256505  87.9686016 122.7733446  19.2123184
  87.7914093 119.8212307  22.5964785  88.0520910 120.7357640  22.4873945
  88.6131265 119.3536749  22.7461398  89.2639018 121.2350064  29.7663609
  89.9362072 121.0267426  29.1176258  88.4368805 121.0372150  29.3268842
 103.5128279 127.9754114  29.2838943 103.7064170 128.8799925  29.5298218
 103.4128898 127.5161533  30.1177528  95.1664590 117.8612005  31.7829270
  94.5192505 118.5601954  31.6893747  95.9365606 118.2948149  32.1505518
  98.5743388 128.1260857  34.8579823  98.4228895 127.8971408  33.9409907
  98.5648068 129.0831458  34.8711168  95.3428725 125.6992770  29.8426090
  96.2720785 125.8503929  29.6695057  94.9219755 125.7876790  28.9874736
  94.1417056 129.7243434  27.6124628  94.0028142 129.3562218  28.4850566
  93.3531653 130.2391073  27.4408585  95.6922272 129.1025037  25.0013465
  95.3572104 129.0625807  25.8971115  95.1926217 128.4369753  24.5283876
  89.6666515 124.5092667  30.5266046  89.5286313 123.7772905  31.1277585
  90.5771439 124.4201567  30.2450234  92.2948816 124.2212626  30.0149726
  93.0048435 123.5805818  29.9736345  92.2518124 124.4725521  30.9375907
 100.2835595 131.1579979  32.9356305 100.2248141 130.4739199  32.2686888
 100.6855113 131.8998969  32.4836931  91.0077750 121.2077844  31.8345366
  90.4715107 120.7568582  32.4866962  90.4194459 121.3423753  31.0915830
  89.3026294 137.9741893  25.7290024  89.5422892 138.6060417  26.4069043
  88.4595490 137.6229933  26.0155383  90.4180009 120.6666495  14.3971829
  89.5409475 120.5455296  14.0334076  90.8937762 119.8752574  14.1450718
 100.2853002 129.1219563  31.1670285  99.3979781 128.7845485  31.2896684
 100.8551553 128.3902594  31.4039050  81.9382149 125.4543655  24.4913336
  82.6253189 125.1405385  23.9034352  81.7830278 126.3585020  24.2180588
  86.7416871 120.3433852  28.9198360  86.6575060 119.7359521  28.1848770
  85.9199578 120.8342870  28.9207856  93.8154155 133.7821016  28.1331528
  93.7424327 134.5875987  28.6450833  93.3731549 133.9812981  27.3079550
  93.6043935 133.0192786  21.6434350  92.8211457 133.5614466  21.7372574
  94.3036680 133.5366765  22.0428591  96.9140585 118.8287415  24.2868555
  97.4109285 118.0757377  23.9669625  96.1427567 118.8651732  23.7211764
 104.7670343 124.5327781  25.9286847 104.7560219 125.4152496  25.5580780
 103.8987722 124.1799331  25.7341384  96.2752839 133.6807850  30.2889687
  96.9880811 134.3155314  30.2165588  95.7842868 133.7771716  29.4729689
  97.9970366 127.5859102  21.8606979  97.0626645 127.7060565  21.6911683
  98.1747034 126.6831569  21.5966988  93.4975554 120.9704798  24.0140240
  93.1273341 120.4175838  24.7021145  93.9934646 120.3662932  23.4615240
 101.3842917 123.4276422  22.3957013 101.8503369 124.2604413  22.3217315
 101.8350418 122.9621403  23.1002271  91.3264753 131.4302293  31.1095258
  92.0274212 132.0638776  31.2624652  90.8559868 131.7717025  30.3490897
  99.3559580 115.7957009  26.4347914  98.4422660 116.0261235  26.6030121
  99.7852681 115.8795453  27.2861946  99.1266038 123.9846901  28.9347808
  98.4737489 124.2322808  28.2800261  99.5046418 123.1711039  28.6010285
  96.0873212 134.0206594  23.0375978  96.2695607 133.2028250  23.5003731
  96.9106198 134.2374286  22.6000868  95.1753612 124.7266712  35.4213845
  94.4994249 124.6260841  36.0916220  95.9981245 124.5705925  35.8849842
  86.9232471 130.9638648  28.0426360  87.5085907 130.2182336  28.1754265
  86.7257309 131.2742605  28.9263024  89.7771126 133.9989896  23.0588803
  89.1081501 134.4836023  22.5752843  89.6383996 134.2459116  23.9732181
  81.5150125 123.5344248  26.7630803  81.5534225 123.0007839  27.5567922
  81.0090418 123.0079454  26.1441781  93.9176394 136.0333639  29.6571461
  94.4694702 136.1965261  30.4220546  94.2582588 136.6238077  28.9851486
  88.8940888 118.3808789  30.2593346  88.9582214 119.2423620  29.8470743
  88.8308008 117.7682791  29.5265704  88.3693160 120.4531921  33.9066380
  88.9965199 120.0708999  34.5203904  87.5121079 120.2346123  34.2722073
  98.7687269 130.8594897  35.5120116  99.3127173 131.4724855  35.0175070
  98.1874114 131.4174475  36.0287129  85.1458703 122.2608351  19.8384735
  85.4412144 121.3519029  19.7851789  84.2446739 122.2396090  19.5165737
  97.0544782 133.9815615  26.6435143  96.9295921 133.1805354  26.1346089
  97.7123873 134.4761808  26.1549113  88.6752950 120.3364347  25.8212283
  87.9539536 120.9500315  25.6819757  89.4646206 120.8722112  25.7428929
  99.1179690 131.7824635  28.2714693  98.1710026 131.6629986  28.1993020
  99.4662463 130.8947133  28.3540955  91.4779263 117.6718774  32.0952935
  92.0013665 117.9181070  32.8579245  91.2591597 118.5038808  31.6756073
  86.8746544 119.9422448  19.9624060  86.5459251 119.0619827  19.7799166
  87.2285915 119.8870117  20.8500449  96.1226123 131.5777351  24.4719046
  95.9751086 130.6494058  24.6526616  96.9479617 131.5997442  23.9876121
  89.9888368 120.2295418  20.3299538  90.3284440 120.7581339  19.6078146
  90.4360488 120.5675824  21.1058104  99.7260245 132.4005910  25.5583918
 100.6506793 132.1948771  25.4208369  99.5575549 132.1522311  26.4673260
  92.6831808 118.6132469  29.7802606  92.3428629 117.8140282  30.1823286
  91.9770815 118.9134180  29.2079439  93.3348280 115.6981781  28.2329929
  94.1574350 115.2242259  28.1108819  93.5786344 116.4772265  28.7328615
  91.9756515 118.7270040  18.5292830  92.6964877 119.1051292  18.0256547
  91.3521819 119.4458916  18.6327808  96.1187638 119.4315189  19.4651163
  96.3351252 120.3139826  19.1639991  95.6381705 119.0401402  18.7356805
  90.8586859 122.3900902  26.0421907  90.7131440 122.7041205  26.9346189
  90.3812063 123.0085802  25.4892806  92.7183242 119.3803450  26.0902797
  92.7044811 118.4844543  25.7535095  93.4355670 119.3874113  26.7241083
  94.5709373 119.8140790  28.1355924  94.3127150 120.7357861  28.1340255
  94.0394413 119.4171224  28.8256389  85.3332521 124.9306246  28.9809569
  84.7885989 125.7066054  29.1129843  86.2111871 125.2777051  28.8228690
  92.1220138 118.2617830  21.3590367  92.2436049 117.3334476  21.5581255
  91.8322180 118.2756516  20.4468683  94.9911328 115.9472740  24.4957087
  95.0133025 116.0112074  23.5409066  95.4079387 115.1077249  24.6897593
 105.3694953 125.6828000  22.5336310 105.8126099 124.9335325  22.1355433
 104.4921463 125.6738136  22.1510042  86.1198543 124.0576142  31.8739725
  85.3780279 124.2058778  32.4604356  85.7991287 124.3184408  31.0106475
  94.0642206 133.5992121  31.6720115  94.3729332 133.3541267  32.5442815
  94.8617688 133.8038759  31.1838986  94.0862818 135.7530030  23.9025492
  93.6467808 135.2606409  24.5958349  94.8370935 135.2102998  23.6617567
  86.5655157 131.9441571  23.9050120  87.3913177 131.6445343  23.5248764
  86.2149209 131.1749194  24.3539909  91.5336690 131.2968039  25.9747794
  90.9116699 130.6338744  25.6750022  92.2041557 131.3229171  25.2921441
  84.7663762 129.8627898  24.8639054  83.9295670 129.4350072  24.6823055
  84.7387407 130.0560341  25.8009845  91.6061217 119.7749827  35.5680300
  91.6549373 120.6511950  35.1858069  92.1483732 119.2327220  34.9951943
 102.0916063 130.3190951  34.8481437 101.3011607 130.3015089  34.3085936
 101.8549418 130.8579244  35.6030473 102.2113938 127.1683417  32.1614165
 102.2611943 127.0033424  33.1029688 102.1027861 126.3010676  31.7712046
  91.0950197 129.8471963  19.4506254  91.2438317 130.5307427  18.7972927
  91.9016640 129.8277053  19.9655710  99.5017701 123.1514345  33.4773472
 100.4027563 123.0120810  33.1857470  99.5765675 123.3168800  34.4171649
  93.8360506 120.5281200  32.3226658  92.9663815 120.8214766  32.0509247
  94.0719986 121.1121645  33.0433922 103.7132135 129.5880359  32.4056187
 103.4216943 129.9510339  33.2419648 103.1004266 128.8747367  32.2269519
 104.9127817 127.1533238  24.9258757 105.7474709 127.5923042  25.0896317
 105.0486946 126.6771892  24.1067003 101.9619323 124.7112973  30.8736245
 102.4373445 124.9040619  30.0655096 101.0384889 124.7672159  30.6279629
  88.8502830 125.8737140  20.4567323  88.6048872 124.9699470  20.6547533
  89.0198744 125.8754291  19.5146801  96.5399540 116.7460817  29.8392079
  97.0581484 117.4821844  29.5138567  96.1854672 117.0524810  30.6738838
  88.1198477 121.6065498  17.9553485  87.4267722 121.6809853  17.2993521
  87.8750229 120.8425842  18.4775002  96.7912134 113.1661099  25.3592975
  97.0713888 112.4984288  25.9853402  97.5762741 113.3590195  24.8467639
 100.6620992 121.5878733  29.1064550 101.6138415 121.6876831  29.1276774
 100.4924443 120.7957002  29.6162635  98.6835372 118.6734316  29.2923951
  98.0885304 118.9539329  28.5970440  98.3985068 119.1628217  30.0640692
 103.1409070 124.8084853  28.2206850 103.1085390 123.8700854  28.4066534
 103.7509694 124.8868890  27.4872675 103.2903558 121.5995896  28.2665133
 102.7742607 120.8154353  28.0795062 104.1743507 121.2714613  28.4311653
 100.9514285 115.3436912  24.2260946 100.7539107 115.0352000  25.1104278
 101.5613991 116.0698551  24.3558876 108.9585620 125.8700860  27.3612887
 109.6889008 125.6086148  27.9220590 108.3492565 125.1329582  27.4014955
 107.0400917 124.0108722  27.9587338 106.3134081 123.8764687  27.3503830
 106.6248204 124.3185551  28.7644056  94.8631093 127.7298652  35.7234711
  95.7834103 127.9077251  35.9174758  94.8280676 126.7854697  35.5714410
  93.1635318 121.6030882  14.1988939  92.2566773 121.3063995  14.2751653
  93.4411299 121.3060700  13.3323226  84.0813258 122.9237246  24.6487986
  83.7616043 122.0702554  24.3562360  83.5346687 123.1385824  25.4045953
  87.8593166 125.6399687  28.3657492  88.0779176 126.5716795  28.3845526
  88.2718940 125.2807661  29.1512296  94.7797384 116.1467772  20.3533181
  93.9698112 115.8014857  20.7288427  95.4681801 115.8375316  20.9420792
  96.7087932 115.2245819  21.9757477  97.2618971 115.6441272  22.6347500
  96.9458018 114.2981567  22.0180433  92.7321031 121.2132892  37.7560241
  92.6317758 122.1627249  37.6872332  92.5142573 120.8851131  36.8836311
  91.9334103 118.4617818  14.3400919  92.7953267 118.7872716  14.5996736
  92.1184447 117.6749313  13.8273984  83.9501518 126.5440157  26.6181107
  83.2564990 126.1294110  26.1051062  84.6974509 126.5860694  26.0214526
 100.0866739 117.3346344  21.4836142  99.5065408 117.9931148  21.1014194
  99.8202672 116.5123689  21.0723559  98.5370305 116.7351402  23.6857462
  99.0370084 116.8467936  22.8771781  99.1805913 116.4312455  24.3258270
  92.5952301 124.6430031  36.5725303  92.1119383 125.4430391  36.7789192
  92.6813240 124.6537976  35.6192747  85.8638261 126.4758411  24.4947122
  85.8408949 126.5746098  23.5429005  86.1738897 127.3223562  24.8164288
  88.5225639 128.5334566  28.6093737  89.4768892 128.5018508  28.5423668
  88.3238162 128.0725190  29.4243963  89.1125021 127.1035682  31.1764534
  89.9317910 127.5979761  31.1999372  89.3861829 126.1867650  31.1482102
  98.8691617 119.4946434  20.5392490  97.9817472 119.7796085  20.3212685
  99.2845606 119.3340198  19.6919767 102.2206153 119.5192955  24.2546829
 102.9966543 120.0089408  24.5271446 101.4954287 119.9451010  24.7118699
 104.6578712 120.2320575  25.3120770 105.2523203 119.9916311  24.6014078
 104.7305296 119.5127705  25.9394306  86.8775868 134.0754185  25.6263935
  86.7430336 133.3154586  25.0601933  86.4607930 134.7995085  25.1592723
  98.8432641 125.0100970  20.7542780  98.7867842 125.4669522  19.9150412
  99.3960983 124.2491655  20.5765623 102.6537447 120.7990702  21.5792899
 102.3974381 120.3987338  22.4101107 102.0290315 121.5134496  21.4543039
 106.9649785 123.5386775  24.0864191 106.4049343 123.6079965  24.8595753
 106.3593288 123.3627760  23.3663687  90.0344993 134.9723503  25.8382377
  89.9177378 135.9168935  25.7361067  89.2137440 134.6697064  26.2268176
  84.3659935 121.4373816  31.8756731  85.0118799 120.9272770  32.3643957
  84.1577086 122.1742498  32.4500157  96.8913327 128.5054663  37.3748872
  97.7604487 128.6795316  37.0135507  96.4120079 129.3249080  37.2524601
  92.8863546 115.7013861  17.6280628  92.8742215 116.6455700  17.7848898
  93.7786968 115.5184006  17.3340089  91.0599508 135.6251764  29.0538306
  91.9626754 135.6575375  29.3704801  90.8336878 134.6952215  29.0684641
  92.8153110 134.3782751  25.7148384  91.8648741 134.3784613  25.6012756
  93.1185596 133.6315486  25.1984419  96.7015665 112.2956637  21.8826564
  95.9348061 111.7415124  22.0283247  97.1126370 112.3678506  22.7440716
  88.7057426 118.5841433  35.9731746  89.5688888 118.2278238  36.1835070
  88.1322837 118.2455328  36.6607150 105.8415292 141.3205569  32.6741877
 105.8303933 140.9258367  31.8022380 106.0035932 140.5871642  33.2675648
 102.5622554 144.1042681  31.6221061 102.2712419 145.0088312  31.5067727
 103.1979538 144.1459209  32.3365130 111.0280919 131.5891550  29.2174942
 110.6964244 132.4586961  28.9936157 110.4326532 131.2727834  29.8968972
 104.9950448 137.7276282  34.2403189 104.2183782 138.2870202  34.2306054
 105.6341011 138.2133065  34.7618059 103.2496820 140.5361736  33.8021156
 103.9911505 141.0746780  33.5255980 102.5433806 141.1628024  33.9592708
 105.0783230 137.6163483  29.7726875 105.9244425 138.0402896  29.9161524
 105.0181868 136.9597107  30.4665438 108.2282675 135.2767851  31.4308048
 107.9843607 136.0309912  30.8942324 108.5042606 135.6553199  32.2655295
 101.9858184 137.6901384  34.6036466 101.3556845 138.3717665  34.8371863
 101.8794272 137.5784465  33.6589604  97.2803157 137.3573180  25.5302390
  96.4902211 137.6130708  25.0542501  97.7714404 138.1721518  25.6354431
  95.5640860 137.6103670  27.9617381  95.8148898 138.4950680  28.2274957
  96.1000408 137.4308272  27.1892473 101.2638927 131.9922150  36.9661717
 100.8705873 131.4388348  37.6409361 102.0805067 132.3032728  37.3568235
 104.1806888 133.4080029  34.5581974 104.9216601 134.0087182  34.4786436
 104.4124811 132.6657667  34.0000016  99.3248226 138.5936396  32.8360203
  99.2101741 137.6921653  33.1367302  98.4692744 138.8400093  32.4845020
 106.4040064 146.5354136  34.4347704 105.9603918 145.7490515  34.1168608
 107.0657277 146.7233287  33.7691595 104.9594356 144.3301066  33.3052614
 105.4922693 143.5689354  33.0751922 104.4308437 144.0374718  34.0476768
 108.1264051 129.4361132  28.8346255 107.7828320 130.3262773  28.7585366
 108.4943013 129.2462789  27.9715840 107.2060591 131.8065787  26.7995489
 106.7025387 131.7695922  25.9863294 107.4991198 132.7158530  26.8592145
 103.4503477 131.8904517  25.8061670 104.3156474 131.6947325  25.4467560
 103.5180986 131.6614868  26.7331027 107.7339368 138.0727368  31.0345457
 108.0888756 138.2998841  31.8939923 108.3811499 138.4045745  30.4122712
 101.6279231 135.1803899  27.8191798 102.2678610 135.0392658  27.1214761
 100.7956761 134.8938413  27.4430400 100.1032773 136.5641981  29.7663609
 100.7755826 136.3559343  29.1176258  99.2762559 136.3664067  29.3268842
 106.0058345 133.1903922  31.7829270 105.3586260 133.8893872  31.6893747
 106.7759360 133.6240066  32.1505518 109.4137143 143.4552774  34.8579823
 109.2622649 143.2263326  33.9409907 109.4041822 144.4123376  34.8711168
 100.5060270 139.8384584  30.5266046 100.3680068 139.1064823  31.1277585
 101.4165193 139.7493484  30.2450234 103.1342571 139.5504544  30.0149726
 103.8442189 138.9097736  29.9736345 103.0911879 139.8017438  30.9375907
 101.8471505 136.5369762  31.8345366 101.3108862 136.0860500  32.4866962
 101.2588213 136.6715670  31.0915830  97.5810626 135.6725769  28.9198360
  97.4968815 135.0651439  28.1848770  96.7593332 136.1634788  28.9207856
 110.1953334 131.1248926  26.4347914 109.2816414 131.3553153  26.6030121
 110.6246436 131.2087370  27.2861946 106.0147366 140.0558629  35.4213845
 105.3388003 139.9552759  36.0916220 106.8375000 139.8997843  35.8849842
  92.3543880 138.8636166  26.7630803  92.3927979 138.3299757  27.5567922
  91.8484173 138.3371372  26.1441781  99.7334642 133.7100707  30.2593346
  99.7975969 134.5715537  29.8470743  99.6701762 133.0974708  29.5265704
  99.2086915 135.7823839  33.9066380  99.8358953 135.4000916  34.5203904
  98.3514833 135.5638041  34.2722073 109.6081023 146.1886814  35.5120116
 110.1520927 146.8016773  35.0175070 109.0267868 146.7466393  36.0287129
  99.5146704 135.6656265  25.8212283  98.7933290 136.2792232  25.6819757
 100.3039960 136.2014030  25.7428929 102.3173018 133.0010691  32.0952935
 102.8407420 133.2472988  32.8579245 102.0985351 133.8330726  31.6756073
 103.5225563 133.9424386  29.7802606 103.1822383 133.1432199  30.1823286
 102.8164569 134.2426097  29.2079439 104.1742035 131.0273699  28.2329929
 104.9968104 130.5534177  28.1108819 104.4180098 131.8064183  28.7328615
 103.5576996 134.7095367  26.0902797 103.5438565 133.8136461  25.7535095
 104.2749425 134.7166031  26.7241083 105.4103127 135.1432708  28.1355924
 105.1520905 136.0649778  28.1340255 104.8788168 134.7463142  28.8256389
  96.1726276 140.2598164  28.9809569  95.6279744 141.0357972  29.1129843
  97.0505626 140.6068968  28.8228690  96.9592298 139.3868060  31.8739725
  96.2174034 139.5350695  32.4604356  96.6385042 139.6476326  31.0106475
 102.4454972 135.1041745  35.5680300 102.4943127 135.9803868  35.1858069
 102.9877486 134.5619138  34.9951943 110.3411455 138.4806263  33.4773472
 111.2421318 138.3412728  33.1857470 110.4159430 138.6460718  34.4171649
 104.6754260 135.8573117  32.3226658 103.8057570 136.1506684  32.0509247
 104.9113741 136.4413562  33.0433922 107.3793294 132.0752734  29.8392079
 107.8975238 132.8113761  29.5138567 107.0248427 132.3816728  30.6738838
 107.6305888 128.4953017  25.3592975 107.9107642 127.8276206  25.9853402
 108.4156495 128.6882113  24.8467639 109.5229126 134.0026234  29.2923951
 108.9279058 134.2831247  28.5970440 109.2378823 134.4920135  30.0640692
 105.7024848 143.0590570  35.7234711 106.6227857 143.2369169  35.9174758
 105.6674431 142.1146615  35.5714410  94.9207013 138.2529163  24.6487986
  94.6009797 137.3994472  24.3562360  94.3740441 138.4677742  25.4045953
  98.6986920 140.9691604  28.3657492  98.9172930 141.9008712  28.3845526
  99.1112694 140.6099579  29.1512296 103.5714786 136.5424810  37.7560241
 103.4711513 137.4919167  37.6872332 103.3536328 136.2143049  36.8836311
  94.7895273 141.8732075  26.6181107  94.0958744 141.4586028  26.1051062
  95.5368264 141.9152611  26.0214526 103.4346056 139.9721949  36.5725303
 102.9513137 140.7722309  36.7789192 103.5206995 139.9829894  35.6192747
  99.9518775 142.4327600  31.1764534 100.7711664 142.9271678  31.1999372
 100.2255583 141.5159568  31.1482102  95.2053690 136.7665734  31.8756731
  95.8512553 136.2564688  32.3643957  94.9970841 137.5034415  32.4500157
 107.7307082 143.8346581  37.3748872 108.5998241 144.0087233  37.0135507
 107.2513833 144.6540998  37.2524601  99.5451181 133.9133351  35.9731746
 100.4082642 133.5570156  36.1835070  98.9716591 133.5747245  36.6607150
 112.1032681 147.3214067  36.9661717 111.7099627 146.7680266  37.6409361
 112.9198822 147.6324646  37.3568235  51.6446521  41.6808103  19.3987183
  51.6335162  41.2860902  18.5267687  51.8067161  40.9474176  19.9920955
  48.3653782  44.4645215  18.3466367  48.0743648  45.3690846  18.2313034
  49.0010767  44.5061743  19.0610437  53.3243667  44.1506631  15.3416161
  53.0244390  45.0531670  15.2331968  52.9794727  43.8838814  16.1937314
  50.7981677  38.0878816  20.9648496  50.0215011  38.6472737  20.9551360
  51.4372240  38.5735599  21.4863366  49.0528049  40.8964270  20.5266463
  49.7942734  41.4349314  20.2501286  48.3465035  41.5230559  20.6838015
  54.5283389  43.0393410  19.1238624  54.9366745  42.5975821  18.3793257
  53.8060650  42.4646038  19.3772817  54.0313904  35.6370385  18.1553355
  53.7874836  36.3912446  17.6187630  54.3073835  36.0155733  18.9900602
  55.9852367  42.1808998  16.8330620  56.1969262  42.8240758  16.1565001
  55.9382115  41.3471314  16.3652550  47.7889413  38.0503918  21.3281773
  47.1588074  38.7320199  21.5617170  47.6825501  37.9387000  20.3834911
  57.0998195  45.0580953  15.0052978  57.9215639  44.6561140  14.7235659
  57.0960598  44.9549187  15.9569094  50.8654798  44.6064997  17.1613688
  50.9299231  45.0685404  17.9971860  50.1565722  43.9762361  17.2895998
  65.1904188  41.4019702  11.3537949  64.4367896  40.8327100  11.1981954
  65.3251729  41.3682366  12.3008584  47.0670156  32.3524684  23.6907024
  46.6737101  31.7990882  24.3654668  47.8836296  32.6635262  24.0813541
  52.2071292  46.8956671  21.1593011  51.7635147  46.1093049  20.8413915
  52.8688506  47.0835821  20.4936901  46.9658414  48.4252472  15.6853689
  47.5165839  48.2969535  14.9130683  46.1269890  48.7247361  15.3348582
  54.3052531  47.1759470  19.1874412  54.2871006  47.9968351  18.6954681
  55.2272451  47.0513546  19.4124553  50.7625585  44.6903600  20.0297920
  51.2953922  43.9291888  19.7997228  50.2339666  44.3977252  20.7722075
  53.5370597  38.4329902  17.7590764  53.8919984  38.6601375  18.6185229
  54.1842728  38.7648279  17.1368019  59.2937713  43.6224865  13.4751364
  59.7274220  43.5300154  14.3234418  60.0069294  43.5982366  12.8371380
  53.0265608  47.2226959  15.0084465  53.0802630  47.7917896  15.7762181
  52.1580389  47.3928844  14.6438502  60.1553263  43.6648566  16.0084249
  60.3489153  44.5694376  16.2543524  60.0553881  43.2055985  16.8422834
  55.2168371  43.8155309  21.5825130  55.0653878  43.5865860  20.6655214
  55.2073051  44.7725910  21.5956475  51.9853708  41.3887221  16.5671397
  52.9145768  41.5398381  16.3940364  51.5644738  41.4771242  15.7120043
  50.7842040  45.4137886  14.3369934  50.6453125  45.0456670  15.2095872
  49.9956636  45.9285525  14.1653892  56.9260578  46.8474431  19.6601612
  56.8673124  46.1633651  18.9932195  57.3280096  47.5893421  19.2082238
  45.9451277  53.6636345  12.4535331  46.1847875  54.2954869  13.1314349
  45.1020473  53.3124385  12.7400690  56.9277985  44.8114015  17.8915592
  56.0404764  44.4739937  18.0141990  57.4976536  44.0797046  18.1284357
  50.4579139  49.4715467  14.8576835  50.3849310  50.2770439  15.3696139
  50.0156532  49.6707433  14.0324856  52.9177822  49.3702302  17.0134993
  53.6305794  50.0049766  16.9410895  52.4267851  49.4666168  16.1974995
  47.9689736  47.1196745  17.8340564  48.6699195  47.7533228  17.9869959
  47.4984851  47.4611477  17.0736204  55.7691022  39.6741352  15.6593115
  55.1162472  39.9217260  15.0045567  56.1471402  38.8605491  15.3255592
  51.8178595  40.4161163  22.1459152  51.1419232  40.3155293  22.8161527
  52.6406229  40.2600377  22.6095149  50.5601378  51.7228091  16.3816768
  51.1119686  51.8859712  17.1465853  50.9007571  52.3132529  15.7096793
  55.4112252  46.5489348  22.2365422  55.9552156  47.1619307  21.7420377
  54.8299097  47.1068927  22.7532435  53.6969765  49.6710066  13.3680450
  53.5720904  48.8699806  12.8591395  54.3548856  50.1656260  12.8794420
  55.7604673  47.4719087  14.9960000  54.8135009  47.3524438  14.9238327
  56.1087446  46.5841585  15.0786261  56.3685228  48.0900361  12.2829225
  57.2931776  47.8843223  12.1453676  56.2000532  47.8416763  13.1918566
  50.7067189  49.2886573  18.3965422  51.0154315  49.0435719  19.2688122
  51.5042671  49.4933211  17.9084292  50.7287801  51.4424482  10.6270799
  50.2892791  50.9500861  11.3203655  51.4795918  50.8997450  10.3862874
  48.2486201  35.4644279  22.2925606  48.2974356  36.3406402  21.9103376
  48.7908715  34.9221672  21.7197250  58.7341046  46.0085403  21.5726743
  57.9436590  45.9909541  21.0331243  58.4974401  46.5473696  22.3275780
  58.8538921  42.8577869  18.8859472  58.9036926  42.6927876  19.8274995
  58.7452845  41.9905128  18.4957353  56.1442684  38.8408797  20.2018779
  57.0452547  38.7015262  19.9102776  56.2190658  39.0063252  21.1416956
  60.3557118  45.2774810  19.1301493  60.0641927  45.6404791  19.9664954
  59.7429250  44.5641819  18.9514826  61.5552801  42.8427690  11.6504064
  62.3899692  43.2817494  11.8141624  61.6911929  42.3666343  10.8312309
  58.6044307  40.4007425  17.5981551  59.0798428  40.5935071  16.7900403
  57.6809872  40.4566611  17.3524935  57.3045976  37.2773185  15.8309857
  58.2563398  37.3771283  15.8522081  57.1349426  36.4851454  16.3407941
  59.7834053  40.4979305  14.9452157  59.7510373  39.5595306  15.1311841
  60.3934677  40.5763342  14.2117982  65.6010603  41.5595312  14.0858194
  66.3313992  41.2980600  14.6465897  64.9917549  40.8224034  14.1260262
  63.6825900  39.7003174  14.6832645  62.9559064  39.5659139  14.0749136
  63.2673187  40.0080003  15.4889363  51.5056077  43.4193104  22.4480018
  52.4259086  43.5971703  22.6420064  51.4705660  42.4749149  22.2959717
  49.3746015  36.9027344  24.4805548  49.2742741  37.8521701  24.4117639
  49.1567557  36.5745583  23.6081618  49.2377285  40.3324483  23.2970609
  48.7544366  41.1324843  23.5034499  49.3238224  40.3432428  22.3438053
  45.7550004  42.7930134  17.9009841  46.5742893  43.2874213  17.9244678
  46.0286812  41.8762102  17.8727408  46.6769977  50.6617954  12.5627684
  46.5602361  51.6063387  12.4606374  45.8562423  50.3591516  12.9513483
  53.5338311  44.1949115  24.0994179  54.4029470  44.3689768  23.7380813
  53.0545062  45.0143532  23.9769908  47.7024491  51.3146216  15.7783612
  48.6051738  51.3469827  16.0950107  47.4761861  50.3846667  15.7929948
  49.4578093  50.0677203  12.4393691  48.5073724  50.0679064  12.3258063
  49.7610579  49.3209937  11.9229725  45.3482409  34.2735885  22.6977052
  46.2113871  33.9172690  22.9080377  44.7747820  33.9349780  23.3852457
  65.1930786  55.9037741  13.5039453  65.8309196  55.7844489  12.8002793
  65.0751629  56.8518585  13.5627405  62.0020493  55.8565169  13.4400978
  61.6639004  55.7406234  12.5521513  62.8710261  55.4556334  13.4201984
  57.8607308  57.7100646   9.4297869  57.2972173  57.6190583   8.6614157
  57.7459703  56.8900550   9.9100361  62.4840276  57.0100021  19.3987183
  62.4728916  56.6152819  18.5267687  62.6460915  56.2766094  19.9920955
  55.4071740  59.2051837  12.2682089  56.1993032  58.8642662  11.8528389
  55.6468390  59.3146812  13.1884243  63.4406867  61.3771613   4.7412334
  62.7894847  61.9625694   4.3546348  64.2351230  61.9077808   4.8007371
  57.3662494  58.4660751   5.1399468  58.1393370  57.9189738   5.0012344
  57.7187893  59.3305000   5.3513930  59.2047537  59.7937133  18.3466367
  58.9137403  60.6982764  18.2313034  59.8404521  59.8353660  19.0610437
  60.1303744  57.1713981  14.9367727  60.7267316  56.9470004  14.2224690
  60.1878715  56.4298727  15.5393175  64.7472055  53.6289195  10.5792661
  65.5335144  53.2108618  10.2283078  65.0110759  54.5335287  10.7474310
  64.9182132  59.0662045   5.2781318  64.2827965  59.1396672   5.9902223
  64.5879539  59.6555644   4.6000397  70.1480482  53.5664428  11.4825640
  70.8805654  52.9963645  11.7163469  69.3919838  53.1786029  11.9232145
  59.4225061  56.5281523   4.9742293  59.3061319  55.8526426   5.6423377
  59.5327321  56.0413897   4.1574446  61.7656602  55.9891670   8.6788982
  61.4014809  55.4622291   9.3901904  62.6223718  55.5990139   8.5055468
  67.6705902  47.2786002  15.9420248  67.3389227  48.1481413  15.7181463
  67.0751516  46.9622286  16.6214279  64.1637422  59.4798548  15.3416161
  63.8638145  60.3823587  15.2331968  63.8188481  59.2130732  16.1937314
  57.6149903  55.9312345  11.3752866  56.6900400  55.7988559  11.5830557
  57.8634317  56.7106564  11.8722808  67.5634566  51.9981089  13.0213598
  66.6551443  51.9296497  12.7272359  67.5122161  52.4753033  13.8495424
  54.9758714  55.5745619  12.2096655  55.1051096  55.8280098  13.1236066
  54.2956166  56.1673327  11.8901310  59.1458202  66.2442869   8.3087129
  59.0682231  67.1950694   8.3875609  58.5419845  65.8988741   8.9662055
  61.6375431  53.4170734  20.9648496  60.8608766  53.9764654  20.9551360
  62.2765995  53.9027517  21.4863366  69.4296212  50.1997527  14.7991472
  68.7870592  50.4930060  14.1531267  68.9251141  50.0850447  15.6044669
  67.0836376  53.9460700   5.4877332  67.9954232  54.1788087   5.3125029
  66.5746023  54.5297744   4.9252410  59.8921804  56.2256188  20.5266463
  60.6336488  56.7641231  20.2501286  59.1858789  56.8522476  20.6838015
  65.3677143  58.3685328  19.1238624  65.7760499  57.9267738  18.3793257
  64.6454405  57.7937955  19.3772817  61.7208213  53.3057935  16.4972181
  62.5669409  53.7297348  16.6406830  61.6606851  52.6491559  17.1910744
  65.6905958  58.9286519  12.8790913  65.0614820  59.0932233  12.1766981
  65.3031620  59.3428128  13.6501877  69.5695190  59.8640956  10.2335277
  68.8846228  60.2439858   9.6832310  69.6539039  60.4736283  10.9667225
  64.8707659  50.9662303  18.1553355  64.6268591  51.7204364  17.6187630
  65.1467589  51.3447651  18.9900602  66.8246122  57.5100915  16.8330620
  67.0363017  58.1532675  16.1565001  66.7775870  56.6763232  16.3652550
  64.4272351  50.1218736  13.7367193  63.5656830  50.4199990  14.0283930
  64.4534785  50.3389135  12.8048225  61.2433920  58.6660927  10.1440998
  61.7072265  58.9448630   9.3545621  60.9790718  57.7644371   9.9614089
  58.1358001  58.2132408  13.0820761  58.7059358  58.6419677  12.4438246
  58.7266113  57.9314993  13.7804947  60.1802806  54.7884079   6.9530563
  60.8826849  55.2405123   7.4204490  59.8483434  54.1467898   7.5810456
  58.6283168  53.3795836  21.3281773  57.9981828  54.0612117  21.5617170
  58.5219255  53.2678917  20.3834911  53.9228140  53.0467632  12.2547697
  53.1327194  53.3025160  11.7787808  54.4139387  53.8615970  12.3599737
  67.9391949  60.3872871  15.0052978  68.7609393  59.9853058  14.7235659
  67.9354352  60.2841105  15.9569094  55.8742885  53.4112211   9.2131174
  55.0774049  53.5230905   9.7314669  55.6468478  53.7498863   8.3472064
  61.7048553  59.9356914  17.1613688  61.7692985  60.3977321  17.9971860
  60.9959477  59.3054279  17.2895998  52.2065843  53.2998122  14.6862688
  52.4573881  54.1845132  14.9520264  52.7425391  53.1202724  13.9137780
  76.0297943  56.7311619  11.3537949  75.2761651  56.1619017  11.1981954
  76.1645484  56.6974284  12.3008584  61.4196571  61.6025022   7.0292669
  61.2842245  62.4476557   7.4577516  61.9606383  61.8044299   6.2658602
  57.9063910  47.6816602  23.6907024  57.5130856  47.1282800  24.3654668
  58.7230051  47.9927180  24.0813541  54.8725968  59.1200460   7.6020594
  55.3850489  59.9143710   7.7526158  55.5248681  58.4226750   7.5354195
  56.6820853  62.2366216   9.6843347  56.8587481  63.1584181   9.4964331
  57.4777686  61.9224635  10.1137727  60.8231871  49.0974481  21.2827280
  61.5641585  49.6981634  21.2031743  61.0549794  48.3552118  20.7245323
  55.9673209  54.2830848  19.5605510  55.8526724  53.3816105  19.8612609
  55.1117727  54.5294545  19.2090327  63.0465047  62.2248588  21.1593011
  62.6028901  61.4384967  20.8413915  63.7082261  62.4127739  20.4936901
  57.8052168  63.7544390  15.6853689  58.3559593  63.6261453  14.9130683
  56.9663644  64.0539279  15.3348582  65.1446285  62.5051388  19.1874412
  65.1264760  63.3260269  18.6954681  66.0666205  62.3805463  19.4124553
  61.6019339  60.0195518  20.0297920  62.1347676  59.2583806  19.7997228
  61.0733420  59.7269169  20.7722075  64.7689034  45.1255584  15.5591562
  64.4253304  46.0157225  15.4830673  65.1367997  44.9357241  14.6961147
  52.8374885  57.4489114   8.3780164  53.6750107  57.8586122   8.1613872
  53.0153152  56.5088556   8.3480358  64.7339317  55.1164195   4.0663997
  64.2185940  55.8868799   4.3052385  64.4616625  54.4429331   4.6897059
  62.3186428  49.9613895   9.1249236  61.4628024  49.5720746   8.9454874
  62.7313380  50.0405856   8.2649021  63.8485575  47.4960239  13.5240795
  63.3450370  47.4590374  12.7108601  64.1416181  48.4052981  13.5837452
  60.0928460  47.5798968  12.5306977  60.9581457  47.3841777  12.1712866
  60.1605969  47.3509320  13.4576334  69.7073591  57.8696549   6.0017171
  68.9303034  57.5307709   5.5572333  70.3865072  57.8749172   5.3272136
  64.5225620  52.9891287   5.8923778  64.2175756  53.3037436   6.7433922
  65.4756062  53.0672707   5.9351111  62.9672052  59.1481510   7.5416732
  62.4393413  58.4134270   7.2289970  62.4659555  59.9256186   7.2956701
  67.9464898  57.3430531  12.6583779  67.2888572  58.0329792  12.7463907
  68.7505297  57.7326963  13.0017765  57.6990780  49.8101176   9.9023344
  58.2734531  49.5876358   9.1696537  58.2861762  49.8789871  10.6551945
  66.7570357  55.6974903  10.7087720  67.2702238  56.3304895  11.2109430
  67.4071581  55.0976099  10.3431080  64.0192731  65.6759228   3.4648391
  63.3454430  65.9790924   4.0733349  64.4058553  66.4788308   3.1153849
  63.2351188  53.1724359  12.9546061  62.3173749  53.3939306  12.7967749
  63.6511331  53.2470669  12.0957768  64.0186235  54.5715774   8.0848741
  64.7658054  55.0837172   7.7755863  64.2877825  54.2499827   8.9453135
  62.2912886  57.0674315   5.0675695  61.3824105  56.7833348   5.1648165
  62.3207969  57.4873394   4.2079002  67.5232153  60.6780905   8.8366863
  67.0694480  59.8371815   8.8932053  66.8926120  61.3142303   9.1741643
  66.4665073  51.6072891  10.0667530  65.7287829  51.0950277  10.3977773
  66.7191846  51.1673272   9.2550807  65.9665092  62.5157401   9.7716681
  66.2588067  63.0762459   9.0529047  66.4763713  62.8085962  10.5269840
  66.5676700  44.3849143  10.6609300  66.8735577  43.5246506  10.3735215
  67.2929305  44.9766763  10.4608294  52.8601056  54.7879829   9.0490898
  52.6625456  54.1949190   8.3241964  52.3047720  54.4832040   9.7666836
  60.8397780  54.6802936  11.1685491  60.8946389  53.7276772  11.0927967
  60.0288982  54.8362375  11.6526789  61.9888973  58.6083059   2.4063774
  61.5508403  57.8918918   1.9469411  62.7299414  58.8359174   1.8448865
  58.7790139  53.2979996   8.9275870  57.9658005  53.5974166   9.3341062
  59.2749134  52.9035684   9.6450352  60.9298717  63.2937752  10.8610134
  60.8874896  63.5198599   9.9318666  61.8461416  63.0601127  11.0095935
  64.3764351  53.7621820  17.7590764  64.7313739  53.9893293  18.6185229
  65.0236482  54.0940197  17.1368019  70.1062088  56.8840256   8.4640093
  69.9679987  57.0741852   7.5361282  69.7498307  57.6459639   8.9208144
  58.2704214  50.8698351  14.5437105  58.9103594  50.7287110  13.8460068
  57.4381745  50.5832864  14.1675707  70.1331468  58.9516783  13.4751364
  70.5667974  58.8592072  14.3234418  70.8463048  58.9274283  12.8371380
  59.0464518  60.1700781  10.6572097  59.8405117  59.6751102  10.4554672
  58.3356211  59.6418645  10.2939803  63.8659363  62.5518877  15.0084465
  63.9196385  63.1209813  15.7762181  62.9974144  62.7220762  14.6438502
  55.2732831  50.8398676   9.3210091  55.5339648  51.7544009   9.2119252
  56.0950003  50.3723119   9.4706704  56.7457756  52.2536433  16.4908916
  57.4180809  52.0453795  15.8421565  55.9187543  52.0558519  16.0514148
  70.9947017  58.9940484  16.0084249  71.1882907  59.8986294  16.2543524
  70.8947635  58.5347903  16.8422834  62.6483328  48.8798374  18.5074577
  62.0011243  49.5788324  18.4139053  63.4184343  49.3134518  18.8750825
  66.0562126  59.1447226  21.5825130  65.9047632  58.9157778  20.6655214
  66.0466805  60.1017828  21.5956475  62.8247462  56.7179139  16.5671397
  63.7539522  56.8690299  16.3940364  62.4038492  56.8063160  15.7120043
  61.6235794  60.7429803  14.3369934  61.4846880  60.3748588  15.2095872
  60.8350390  61.2577443  14.1653892  62.2183946  65.8438900   5.6795471
  62.3935702  65.3726943   6.4941093  61.5316734  66.4704666   5.9076731
  63.1741009  60.1211406  11.7258772  62.8390842  60.0812176  12.6216422
  62.6744955  59.4556122  11.2529182  57.1485253  55.5279036  17.2511353
  57.0105051  54.7959275  17.8522892  58.0590177  55.4387936  16.9695541
  66.1100201  57.4667441   1.9995832  65.4929372  56.7414269   1.9028884
  65.6416689  58.2276801   1.6562906  59.7767554  55.2398996  16.7395033
  60.4867172  54.5992188  16.6981651  59.7336862  55.4911890  17.6621214
  67.7654333  62.1766349  19.6601612  67.7066879  61.4925569  18.9932195
  68.1673851  62.9185339  19.2082238  58.4896488  52.2264213  18.5590672
  57.9533845  51.7754952  19.2112269  57.9013196  52.3610122  17.8161137
  56.7845031  68.9928263  12.4535331  57.0241630  69.6246787  13.1314349
  55.9414228  68.6416303  12.7400690  67.7671740  60.1405933  17.8915592
  66.8798519  59.8031855  18.0141990  68.3370291  59.4088964  18.1284357
  49.4200887  56.4730025  11.2158643  50.1071927  56.1591755  10.6279658
  49.2649016  57.3771389  10.9425894  54.2235609  51.3620221  15.6443667
  54.1393798  50.7545891  14.9094077  53.4018316  51.8529239  15.6453163
  61.2972893  64.8007385  14.8576835  61.2243065  65.6062357  15.3696139
  60.8550286  64.9999351  14.0324856  61.0862673  64.0379155   8.3679656
  60.3030195  64.5800835   8.4617881  61.7855418  64.5553135   8.7673898
  64.3959323  49.8473785  11.0113862  64.8928023  49.0943747  10.6914932
  63.6246305  49.8838101  10.4457071  72.2489080  55.5514150  12.6532153
  72.2378957  56.4338866  12.2826086  71.3806460  55.1985701  12.4586690
  63.7571577  64.6994219  17.0134993  64.4699549  65.3341684  16.9410895
  63.2661605  64.7958085  16.1974995  65.4789104  58.6045472   8.5852285
  64.5445382  58.7246934   8.4156989  65.6565772  57.7017939   8.3212295
  60.9794292  51.9891168  10.7385546  60.6092079  51.4362208  11.4266452
  61.4753384  51.3849301  10.1860546  68.8661655  54.4462791   9.1202319
  69.3322107  55.2790783   9.0462622  69.3169156  53.9807773   9.8247578
  58.8083490  62.4488663  17.8340564  59.5092950  63.0825146  17.9869959
  58.3378605  62.7903394  17.0736204  66.9337886  60.7906612   6.1188471
  67.2097730  60.6763207   7.0282345  66.0642385  60.3924097   6.0800644
  66.8378318  46.8143378  13.1593221  65.9241398  47.0447605  13.3275428
  67.2671419  46.8981822  14.0107253  66.6084776  55.0033270  15.6593115
  65.9556227  55.2509178  15.0045567  66.9865156  54.1897408  15.3255592
  63.5691950  65.0392963   9.7621285  63.7514345  64.2214619  10.2249037
  64.3924936  65.2560656   9.3246175  63.9034116  63.9661148   7.0236333
  64.4321882  63.4553603   6.4106496  64.1662335  63.6503679   7.8881866
  62.6572349  55.7453081  22.1459152  61.9812986  55.6447210  22.8161527
  63.4799983  55.5892295  22.6095149  54.4051208  61.9825018  14.7671667
  54.9904645  61.2368706  14.8999571  54.2076047  62.2928974  15.6508331
  57.2589864  65.0176265   9.7834109  56.5900239  65.5022393   9.2998149
  57.1202733  65.2645486  10.6977488  48.9968863  54.5530618  13.4876110
  49.0352963  54.0194209  14.2813228  48.4909156  54.0265823  12.8687087
  61.3995132  67.0520009  16.3816768  61.9513440  67.2151630  17.1465853
  61.7401326  67.6424446  15.7096793  56.3759625  49.3995158  16.9838652
  56.4400952  50.2609989  16.5716050  56.3126746  48.7869160  16.2511011
  55.8511898  51.4718291  20.6311687  56.4783937  51.0895368  21.2449211
  54.9939817  51.2532493  20.9967379  66.2506007  61.8781266  22.2365422
  66.7945910  62.4911224  21.7420377  65.6692851  62.4360845  22.7532435
  64.5363519  65.0001984  13.3680450  64.4114659  64.1991724  12.8591395
  65.1942611  65.4948178  12.8794420  56.1571688  51.3550717  12.5457590
  55.4358273  51.9686684  12.4065063  56.9464943  51.8908481  12.4674236
  66.5998428  62.8011004  14.9960000  65.6528763  62.6816355  14.9238327
  66.9481201  61.9133502  15.0786261  58.9598001  48.6905143  18.8198242
  59.4832403  48.9367440  19.5824551  58.7410334  49.5225178  18.4001379
  63.6044861  62.5963720  11.1964352  63.4569824  61.6680428  11.3771922
  64.4298355  62.6183811  10.7121427  67.2078983  63.4192279  12.2829225
  68.1325530  63.2135141  12.1453676  67.0394286  63.1708680  13.1918566
  60.1650546  49.6318838  16.5047912  59.8247367  48.8326651  16.9068592
  59.4589553  49.9320549  15.9324746  60.8167018  46.7168151  14.9575235
  61.6393087  46.2428629  14.8354126  61.0605082  47.4958634  15.4573922
  58.3405597  53.4087271  12.7667214  58.1950178  53.7227574  13.6591496
  57.8630800  54.0272172  12.2138113  60.2001980  50.3989819  12.8148104
  60.1863548  49.5030913  12.4780402  60.9174408  50.4060483  13.4486390
  62.0528110  50.8327160  14.8601231  61.7945888  51.7544230  14.8585561
  61.5213151  50.4357594  15.5501695  66.9974299  63.9377947   7.6391316
  67.1711177  63.3724369   6.8865169  67.4903190  64.7378842   7.4570806
  52.8151259  55.9492616  15.7054875  52.2704727  56.7252424  15.8375150
  53.6930609  56.2963420  15.5473997  62.4730066  46.9659110  11.2202394
  62.4951763  47.0298443  10.2654373  62.8898125  46.1263619  11.4142900
  72.8513690  56.7014370   9.2581616  73.2944836  55.9521695   8.8600739
  71.9740201  56.6924506   8.8755348  67.9849472  63.2544711   4.7388215
  68.6800376  63.8751404   4.9575529  68.3272622  62.4040062   5.0140593
  53.6017281  55.0762512  18.5985032  52.8599017  55.2245147  19.1849663
  53.2810025  55.3370778  17.7351781  69.8840895  60.7044417   6.2675545
  70.4092219  61.0431689   5.5424865  69.7963247  59.7691432   6.0838680
  61.5460944  64.6178490  18.3965422  61.8548070  64.3727637  19.2688122
  62.3436426  64.8225129  17.9084292  61.5681556  66.7716400  10.6270799
  61.1286546  66.2792779  11.3203655  62.3189673  66.2289368  10.3862874
  54.0473895  62.9627941  10.6295427  54.8731914  62.6631713  10.2494070
  53.6967947  62.1935563  11.0785215  59.0155428  62.3154409  12.6993100
  58.3935437  61.6525114  12.3995328  59.6860295  62.3415541  12.0166748
  52.2482500  60.8814267  11.5884360  51.4114408  60.4536442  11.4068362
  52.2206145  61.0746711  12.5255152  59.0879955  50.7936197  22.2925606
  59.1368111  51.6698320  21.9103376  59.6302469  50.2513590  21.7197250
  69.5734801  61.3377320  21.5726743  68.7830345  61.3201459  21.0331243
  69.3368155  61.8765614  22.3275780  69.6932676  58.1869787  18.8859472
  69.7430681  58.0219794  19.8274995  69.5846599  57.3197046  18.4957353
  58.5768935  60.8658332   6.1751561  58.7257055  61.5493797   5.5218234
  59.3835378  60.8463422   6.6901017  66.9836438  54.1700715  20.2018779
  67.8846301  54.0307179  19.9102776  67.0584413  54.3355169  21.1416956
  61.3179244  51.5467569  19.0471965  60.4482553  51.8401135  18.7754554
  61.5538724  52.1308014  19.7679229  71.1950873  60.6066728  19.1301493
  70.9035681  60.9696709  19.9664954  70.5823004  59.8933736  18.9514826
  72.3946555  58.1719608  11.6504064  73.2293446  58.6109412  11.8141624
  72.5305684  57.6958261  10.8312309  69.4438061  55.7299343  17.5981551
  69.9192183  55.9226989  16.7900403  68.5203626  55.7858529  17.3524935
  56.3321568  56.8923510   7.1812630  56.0867610  55.9885840   7.3792840
  56.5017482  56.8940660   6.2392108  64.0218277  47.7647186  16.5637385
  64.5400221  48.5008213  16.2383874  63.6673410  48.0711180  17.3984144
  64.2730872  44.1847469  12.0838282  64.5532625  43.5170658  12.7098709
  65.0581479  44.3776564  11.5712946  62.0764340  63.3606463   3.6463308
  61.5038307  63.9796650   3.1933780  62.6497134  63.9105824   4.1803230
  68.1439730  52.6065103  15.8309857  69.0957153  52.7063200  15.8522081
  67.9743180  51.8143371  16.3407941  66.1654109  49.6920686  16.0169258
  65.5704042  49.9725699  15.3215747  65.8803806  50.1814587  16.7885999
  65.2961600  63.6443613   4.7771891  66.2292273  63.5789175   4.9804766
  65.2084813  64.4799880   4.3186423  67.9249617  62.9609483   1.7375838
  67.8463248  62.6269347   2.6311596  68.7459283  63.4531251   1.7367310
  70.6227808  55.8271223  14.9452157  70.5904128  54.8887223  15.1311841
  71.2328431  55.9055259  14.2117982  70.7722296  52.6182266  14.9910440
  70.2561345  51.8340723  14.8040369  71.6562245  52.2900983  15.1556959
  68.4333023  46.3623282  10.9506253  68.2357844  46.0538370  11.8349585
  69.0432729  47.0884920  11.0804182  76.4404358  56.8887229  14.0858194
  77.1707746  56.6272517  14.6465897  75.8311303  56.1515951  14.1260262
  74.5219655  55.0295092  14.6832645  73.7952818  54.8951057  14.0749136
  74.1066942  55.3371921  15.4889363  62.3449831  58.7485022  22.4480018
  63.2652841  58.9263621  22.6420064  62.3099414  57.8041067  22.2959717
  51.5631996  53.9423615  11.3733292  51.2434781  53.0888923  11.0807666
  51.0165424  54.1572193  12.1291260  55.3411904  56.6586056  15.0902799
  55.5597914  57.5903164  15.1090833  55.7537678  56.2994031  15.8757603
  64.1906670  46.2432188   8.7002784  64.7437708  46.6627642   9.3592807
  64.4276756  45.3167936   8.7425740  60.2139769  52.2319262  24.4805548
  60.1136496  53.1813619  24.4117639  59.9961311  51.9037501  23.6081618
  51.4320256  57.5626527  13.3426414  50.7383728  57.1480480  12.8296368
  52.1793247  57.6047063  12.7459833  67.5685477  48.3532714   8.2081448
  66.9884146  49.0117518   7.8259501  67.3021410  47.5310058   7.7968866
  66.0189043  47.7537771  10.4102769  66.5188822  47.8654306   9.6017087
  66.6624651  47.4498824  11.0503577  60.0771039  55.6616401  23.2970609
  59.5938121  56.4616761  23.5034499  60.1631978  55.6724346  22.3438053
  53.3456999  57.4944781  11.2192429  53.3227687  57.5932468  10.2674312
  53.6557635  58.3409931  11.5409595  56.0044377  59.5520936  15.3339043
  56.9587630  59.5204878  15.2668975  55.8056900  59.0911559  16.1489269
  56.5943759  58.1222052  17.9009841  57.4136648  58.6166130  17.9244678
  56.8680566  57.2054020  17.8727408  66.3510355  50.5132804   7.2637796
  65.4636210  50.7982455   7.0457991  66.7664344  50.3526567   6.4165073
  69.7024891  50.5379325  10.9792136  70.4785281  51.0275777  11.2516753
  68.9773025  50.9637379  11.4364005  72.1397450  51.2506944  12.0366076
  72.7341940  51.0102680  11.3259385  72.2124033  50.5314075  12.6639613
  54.3594605  65.0940555  12.3509241  54.2249073  64.3340956  11.7847239
  53.9426668  65.8181455  11.8838030  65.4953568  60.2777479   1.3585816
  66.1989419  60.4827481   1.9743472  64.7716217  60.8454240   1.6234900
  66.3251379  56.0287340   7.4788087  66.2686580  56.4855891   6.6395719
  66.8779721  55.2678024   7.3010929  70.1356185  51.8177072   8.3038206
  69.8793119  51.4173707   9.1346414  69.5109053  52.5320866   8.1788345
  74.4468522  54.5573145  10.8109498  73.8868080  54.6266334  11.5841060
  73.8412026  54.3814130  10.0908994  57.5163731  65.9909872  12.5627684
  57.3996115  66.9355305  12.4606374  56.6956178  65.6883434  12.9513483
  67.4040266  60.7160008   3.4084276  68.2385870  60.2841206   3.2261751
  67.2424609  60.5442021   4.3361171  67.0586158  57.2192121   4.7740616
  67.0034962  57.0536393   3.8329060  66.4332213  57.9268154   4.9302806
  51.8478673  52.4560185  18.6002038  52.4937537  51.9459139  19.0889263
  51.6395824  53.1928867  19.1745463  64.3732065  59.5241033  24.0994179
  65.2423225  59.6981685  23.7380813  63.8938817  60.3435450  23.9769908
  58.5418245  66.6438134  15.7783612  59.4445492  66.6761744  16.0950107
  58.3155615  65.7138585  15.7929948  60.2971847  65.3969121  12.4393691
  59.3467478  65.3970982  12.3258063  60.6004334  64.6501855  11.9229725
  56.1876164  49.6027803  22.6977052  57.0507626  49.2464607  22.9080377
  55.6141575  49.2641697  23.3852457  76.0324541  71.2329659  13.5039453
  76.6702951  71.1136406  12.8002793  75.9145384  72.1810503  13.5627405
  72.8414247  71.1857087  13.4400978  72.5032759  71.0698152  12.5521513
  73.7104015  70.7848252  13.4201984  68.7001063  73.0392563   9.4297869
  68.1365928  72.9482500   8.6614157  68.5853458  72.2192468   9.9100361
  73.3234030  72.3391939  19.3987183  73.3122671  71.9444737  18.5267687
  73.4854670  71.6058011  19.9920955  66.2465495  74.5343755  12.2682089
  67.0386787  74.1934580  11.8528389  66.4862145  74.6438730  13.1884243
  74.2800622  76.7063531   4.7412334  73.6288601  77.2917612   4.3546348
  75.0744984  77.2369726   4.8007371  68.2056249  73.7952668   5.1399468
  68.9787125  73.2481655   5.0012344  68.5581648  74.6596918   5.3513930
  70.0441291  75.1229051  18.3466367  69.7531157  76.0274681  18.2313034
  70.6798276  75.1645578  19.0610437  70.9697498  72.5005899  14.9367727
  71.5661070  72.2761921  14.2224690  71.0272470  71.7590645  15.5393175
  70.5422527  69.9545334   2.7717918  70.7948047  69.4326856   2.0101381
  69.6047086  69.7911480   2.8744602  75.5865809  68.9581113  10.5792661
  76.3728899  68.5400536  10.2283078  75.8504514  69.8627205  10.7474310
  75.7575887  74.3953963   5.2781318  75.1221720  74.4688590   5.9902223
  75.4273293  74.9847562   4.6000397  80.9874236  68.8956346  11.4825640
  81.7199408  68.3255563  11.7163469  80.2313592  68.5077946  11.9232145
  70.2618815  71.8573440   4.9742293  70.1455073  71.1818344   5.6423377
  70.3721075  71.3705814   4.1574446  72.6050356  71.3183587   8.6788982
  72.2408563  70.7914208   9.3901904  73.4617472  70.9282057   8.5055468
  78.5099657  62.6077920  15.9420248  78.1782982  63.4773331  15.7181463
  77.9145270  62.2914204  16.6214279  72.2455843  66.3473487   3.6750331
  72.4130246  67.2153724   4.0420802  72.0553012  66.5100769   2.7511620
  75.0031176  74.8090466  15.3416161  74.7031899  75.7115505  15.2331968
  74.6582236  74.5422649  16.1937314  68.4543658  71.2604263  11.3752866
  67.5294154  71.1280477  11.5830557  68.7028071  72.0398482  11.8722808
  78.4028320  67.3273006  13.0213598  77.4945198  67.2588415  12.7272359
  78.3515916  67.8044951  13.8495424  72.2245064  68.8031145   4.6596998
  72.1044689  69.2488195   5.4982478  71.5297652  69.1516462   4.1010536
  65.8152469  70.9037536  12.2096655  65.9444850  71.1572015  13.1236066
  65.1349920  71.4965244  11.8901310  69.9851956  81.5734786   8.3087129
  69.9075986  82.5242611   8.3875609  69.3813600  81.2280659   8.9662055
  72.4769186  68.7462652  20.9648496  71.7002520  69.3056572  20.9551360
  73.1159749  69.2319435  21.4863366  80.2689967  65.5289445  14.7991472
  79.6264347  65.8221978  14.1531267  79.7644895  65.4142365  15.6044669
  77.9230130  69.2752618   5.4877332  78.8347986  69.5080005   5.3125029
  77.4139777  69.8589662   4.9252410  70.7315558  71.5548105  20.5266463
  71.4730243  72.0933149  20.2501286  70.0252544  72.1814394  20.6838015
  76.2070898  73.6977246  19.1238624  76.6154254  73.2559656  18.3793257
  75.4848159  73.1229873  19.3772817  72.5601968  68.6349852  16.4972181
  73.4063163  69.0589266  16.6406830  72.5000606  67.9783477  17.1910744
  76.5299713  74.2578436  12.8790913  75.9008575  74.4224150  12.1766981
  76.1425375  74.6720046  13.6501877  80.4088944  75.1932874  10.2335277
  79.7239983  75.5731775   9.6832310  80.4932794  75.8028201  10.9667225
  75.7101413  66.2954221  18.1553355  75.4662345  67.0496281  17.6187630
  75.9861344  66.6739568  18.9900602  77.6639876  72.8392833  16.8330620
  77.8756771  73.4824593  16.1565001  77.6169624  72.0055150  16.3652550
  75.2666105  65.4510654  13.7367193  74.4050584  65.7491907  14.0283930
  75.2928540  65.6681053  12.8048225  72.0827674  73.9952844  10.1440998
  72.5466020  74.2740547   9.3545621  71.8184473  73.0936289   9.9614089
  68.9751755  73.5424326  13.0820761  69.5453113  73.9711594  12.4438246
  69.5659867  73.2606911  13.7804947  71.0196560  70.1175997   6.9530563
  71.7220604  70.5697040   7.4204490  70.6877189  69.4759816   7.5810456
  69.4676922  68.7087753  21.3281773  68.8375583  69.3904034  21.5617170
  69.3613010  68.5970835  20.3834911  64.7621894  68.3759549  12.2547697
  63.9720948  68.6317078  11.7787808  65.2533142  69.1907887  12.3599737
  78.7785704  75.7164789  15.0052978  79.6003148  75.3144976  14.7235659
  78.7748107  75.6133023  15.9569094  66.7136640  68.7404129   9.2131174
  65.9167803  68.8522823   9.7314669  66.4862232  69.0790781   8.3472064
  72.5442307  75.2648832  17.1613688  72.6086740  75.7269239  17.9971860
  71.8353231  74.6346197  17.2895998  63.0459597  68.6290040  14.6862688
  63.2967636  69.5137050  14.9520264  63.5819146  68.4494641  13.9137780
  86.8691697  72.0603537  11.3537949  86.1155405  71.4910935  11.1981954
  87.0039238  72.0266202  12.3008584  72.2590325  76.9316939   7.0292669
  72.1236000  77.7768475   7.4577516  72.8000138  77.1336217   6.2658602
  68.7457665  63.0108519  23.6907024  68.3524610  62.4574718  24.3654668
  69.5623805  63.3219098  24.0813541  65.7119722  74.4492377   7.6020594
  66.2244243  75.2435628   7.7526158  66.3642435  73.7518668   7.5354195
  67.5214607  77.5658134   9.6843347  67.6981236  78.4876098   9.4964331
  68.3171441  77.2516553  10.1137727  71.6625626  64.4266398  21.2827280
  72.4035339  65.0273551  21.2031743  71.8943549  63.6844036  20.7245323
  66.8066964  69.6122766  19.5605510  66.6920479  68.7108023  19.8612609
  65.9511481  69.8586462  19.2090327  73.8858801  77.5540506  21.1593011
  73.4422656  76.7676884  20.8413915  74.5476015  77.7419656  20.4936901
  68.6445923  79.0836307  15.6853689  69.1953348  78.9553371  14.9130683
  67.8057399  79.3831196  15.3348582  75.9840040  77.8343306  19.1874412
  75.9658515  78.6552187  18.6954681  76.9059960  77.7097381  19.4124553
  72.4413094  75.3487435  20.0297920  72.9741430  74.5875723  19.7997228
  71.9127175  75.0561087  20.7722075  75.6082789  60.4547501  15.5591562
  75.2647058  61.3449143  15.4830673  75.9761751  60.2649159  14.6961147
  63.6768639  72.7781032   8.3780164  64.5143861  73.1878040   8.1613872
  63.8546907  71.8380474   8.3480358  75.5733071  70.4456112   4.0663997
  75.0579695  71.2160717   4.3052385  75.3010380  69.7721249   4.6897059
  73.1580182  65.2905813   9.1249236  72.3021779  64.9012664   8.9454874
  73.5707134  65.3697774   8.2649021  74.6879329  62.8252156  13.5240795
  74.1844125  62.7882292  12.7108601  74.9809936  63.7344899  13.5837452
  70.9322215  62.9090886  12.5306977  71.7975212  62.7133695  12.1712866
  70.9999724  62.6801238  13.4576334  80.5467346  73.1988467   6.0017171
  79.7696788  72.8599626   5.5572333  81.2258826  73.2041090   5.3272136
  75.3619375  68.3183204   5.8923778  75.0569510  68.6329354   6.7433922
  76.3149817  68.3964624   5.9351111  73.8065806  74.4773428   7.5416732
  73.2787168  73.7426187   7.2289970  73.3053309  75.2548104   7.2956701
  78.7858652  72.6722448  12.6583779  78.1282327  73.3621710  12.7463907
  79.5899052  73.0618880  13.0017765  68.5384534  65.1393094   9.9023344
  69.1128286  64.9168276   9.1696537  69.1255516  65.2081789  10.6551945
  77.5964111  71.0266821  10.7087720  78.1095993  71.6596813  11.2109430
  78.2465335  70.4268016  10.3431080  68.8654121  67.1697555   3.9219229
  68.0291433  67.5072242   4.2428504  68.7258891  67.0346535   2.9846366
  70.8407202  62.0134343   8.6298413  70.1871614  61.6983360   8.0055028
  70.7987676  61.3910083   9.3558236  71.9518407  72.2953638   0.5451705
  71.0445468  72.0642891   0.7442854  72.4489439  71.4991257   0.7325687
  74.8586485  81.0051145   3.4648391  74.1848184  81.3082842   4.0733349
  75.2452307  81.8080226   3.1153849  74.0744942  68.5016276  12.9546061
  73.1567503  68.7231223  12.7967749  74.4905086  68.5762587  12.0957768
  74.8579990  69.9007692   8.0848741  75.6051809  70.4129089   7.7755863
  75.1271579  69.5791745   8.9453135  73.1306640  72.3966233   5.0675695
  72.2217859  72.1125266   5.1648165  73.1601724  72.8165311   4.2079002
  78.3625907  76.0072822   8.8366863  77.9088235  75.1663732   8.8932053
  77.7319874  76.6434221   9.1741643  77.3058827  66.9364808  10.0667530
  76.5681584  66.4242195  10.3977773  77.5585601  66.4965190   9.2550807
  76.8058847  77.8449319   9.7716681  77.0981821  78.4054376   9.0529047
  77.3157467  78.1377880  10.5269840  77.4070454  59.7141060  10.6609300
  77.7129331  58.8538424  10.3735215  78.1323059  60.3058681  10.4608294
  63.6994810  70.1171747   9.0490898  63.5019210  69.5241108   8.3241964
  63.1441474  69.8123957   9.7666836  71.6791534  70.0094853  11.1685491
  71.7340144  69.0568690  11.0927967  70.8682736  70.1654293  11.6526789
  72.8282728  73.9374977   2.4063774  72.3902158  73.2210835   1.9469411
  73.5693169  74.1651091   1.8448865  69.6183894  68.6271913   8.9275870
  68.8051760  68.9266084   9.3341062  70.1142888  68.2327602   9.6450352
  71.7692472  78.6229670  10.8610134  71.7268651  78.8490516   9.9318666
  72.6855171  78.3893045  11.0095935  75.2158106  69.0913738  17.7590764
  75.5707493  69.3185211  18.6185229  75.8630237  69.4232114  17.1368019
  80.9455843  72.2132174   8.4640093  80.8073741  72.4033770   7.5361282
  80.5892061  72.9751556   8.9208144  69.1097969  66.1990269  14.5437105
  69.7497348  66.0579028  13.8460068  68.2775499  65.9124782  14.1675707
  80.9725222  74.2808701  13.4751364  81.4061729  74.1883990  14.3234418
  81.6856803  74.2566201  12.8371380  69.8858273  75.4992699  10.6572097
  70.6798871  75.0043019  10.4554672  69.1749965  74.9710562  10.2939803
  74.7053117  77.8810795  15.0084465  74.7590139  78.4501731  15.7762181
  73.8367898  78.0512680  14.6438502  66.1941036  69.6435781   6.7331850
  65.2638624  69.5820236   6.9501812  66.2898508  69.1211734   5.9368491
  66.1126585  66.1690594   9.3210091  66.3733402  67.0835927   9.2119252
  66.9343757  65.7015036   9.4706704  67.5851510  67.5828351  16.4908916
  68.2574564  67.3745713  15.8421565  66.7581297  67.3850437  16.0514148
  81.8340772  74.3232401  16.0084249  82.0276662  75.2278212  16.2543524
  81.7341390  73.8639820  16.8422834  73.4877082  64.2090292  18.5074577
  72.8404998  64.9080241  18.4139053  74.2578098  64.6426436  18.8750825
  76.8955880  74.4739144  21.5825130  76.7441387  74.2449696  20.6655214
  76.8860560  75.4309745  21.5956475  73.6641217  72.0471057  16.5671397
  74.5933277  72.1982216  16.3940364  73.2432247  72.1355078  15.7120043
  72.4629549  76.0721721  14.3369934  72.3240634  75.7040506  15.2095872
  71.6744145  76.5869361  14.1653892  73.0577701  81.1730818   5.6795471
  73.2329456  80.7018861   6.4941093  72.3710489  81.7996584   5.9076731
  74.0134764  75.4503324  11.7258772  73.6784596  75.4104094  12.6216422
  73.5138709  74.7848040  11.2529182  67.9879008  70.8570954  17.2511353
  67.8498806  70.1251193  17.8522892  68.8983931  70.7679854  16.9695541
  76.9493955  72.7959358   1.9995832  76.3323126  72.0706186   1.9028884
  76.4810444  73.5568718   1.6562906  70.6161308  70.5690913  16.7395033
  71.3260927  69.9284105  16.6981651  70.5730617  70.8203808  17.6621214
  78.6048087  77.5058267  19.6601612  78.5460633  76.8217487  18.9932195
  79.0067605  78.2477257  19.2082238  69.3290242  67.5556131  18.5590672
  68.7927599  67.1046870  19.2112269  68.7406951  67.6902040  17.8161137
  67.6238786  84.3220180  12.4535331  67.8635384  84.9538705  13.1314349
  66.7807982  83.9708220  12.7400690  68.7392501  67.0144783   1.1217136
  67.8621968  66.8933583   0.7579383  69.2150254  66.2230861   0.8696025
  78.6065494  75.4697850  17.8915592  77.7192273  75.1323772  18.0141990
  79.1764045  74.7380882  18.1284357  60.2594641  71.8021942  11.2158643
  60.9465681  71.4883672  10.6279658  60.1042770  72.7063307  10.9425894
  65.0629364  66.6912139  15.6443667  64.9787552  66.0837808  14.9094077
  64.2412070  67.1821157  15.6453163  72.1366648  80.1299303  14.8576835
  72.0636819  80.9354274  15.3696139  71.6944041  80.3291269  14.0324856
  71.9256427  79.3671073   8.3679656  71.1423949  79.9092753   8.4617881
  72.6249173  79.8845053   8.7673898  75.2353077  65.1765702  11.0113862
  75.7321777  64.4235665  10.6914932  74.4640059  65.2130019  10.4457071
  83.0882835  70.8806068  12.6532153  83.0772711  71.7630783  12.2826086
  82.2200214  70.5277619  12.4586690  74.5965331  80.0286137  17.0134993
  75.3093303  80.6633602  16.9410895  74.1055360  80.1250003  16.1974995
  76.3182858  73.9337390   8.5852285  75.3839137  74.0538852   8.4156989
  76.4959527  73.0309856   8.3212295  71.8188046  67.3183085  10.7385546
  71.4485834  66.7654126  11.4266452  72.3147139  66.7141219  10.1860546
  79.7055410  69.7754709   9.1202319  80.1715862  70.6082700   9.0462622
  80.1562910  69.3099690   9.8247578  69.6477245  77.7780580  17.8340564
  70.3486704  78.4117063  17.9869959  69.1772360  78.1195312  17.0736204
  77.7731641  76.1198530   6.1188471  78.0491485  76.0055125   7.0282345
  76.9036139  75.7216015   6.0800644  77.6772072  62.1435296  13.1593221
  76.7635152  62.3739523  13.3275428  78.1065174  62.2273740  14.0107253
  77.4478531  70.3325188  15.6593115  76.7949981  70.5801095  15.0045567
  77.8258911  69.5189326  15.3255592  74.4085705  80.3684881   9.7621285
  74.5908099  79.5506537  10.2249037  75.2318691  80.5852573   9.3246175
  74.7427870  79.2953066   7.0236333  75.2715637  78.7845521   6.4106496
  75.0056090  78.9795596   7.8881866  73.4966104  71.0744999  22.1459152
  72.8206741  70.9739128  22.8161527  74.3193738  70.9184213  22.6095149
  65.2444963  77.3116935  14.7671667  65.8298400  76.5660623  14.8999571
  65.0469801  77.6220892  15.6508331  68.0983618  80.3468183   9.7834109
  67.4293993  80.8314310   9.2998149  67.9596488  80.5937403  10.6977488
  59.8362618  69.8822536  13.4876110  59.8746717  69.3486126  14.2813228
  59.3302910  69.3557741  12.8687087  72.2388887  82.3811926  16.3816768
  72.7907195  82.5443548  17.1465853  72.5795080  82.9716364  15.7096793
  67.2153380  64.7287076  16.9838652  67.2794706  65.5901907  16.5716050
  67.1520500  64.1161078  16.2511011  66.6905652  66.8010209  20.6311687
  67.3177691  66.4187286  21.2449211  65.8333571  66.5824411  20.9967379
  77.0899761  77.2073184  22.2365422  77.6339665  77.8203142  21.7420377
  76.5086606  77.7652762  22.7532435  63.4671195  68.6086638   6.5630042
  63.7624636  67.6997316   6.5097095  62.5659231  68.5874377   6.2411044
  75.3757274  80.3293902  13.3680450  75.2508413  79.5283642  12.8591395
  76.0336365  80.8240095  12.8794420  66.9965442  66.6842634  12.5457590
  66.2752028  67.2978602  12.4065063  67.7858698  67.2200399  12.4674236
  77.4392182  78.1302922  14.9960000  76.4922518  78.0108273  14.9238327
  77.7874955  77.2425420  15.0786261  69.7991756  64.0197061  18.8198242
  70.3226158  64.2659357  19.5824551  69.5804089  64.8517096  18.4001379
  65.1959037  66.2900735   6.6869367  64.8671743  65.4098114   6.5044473
  65.5498407  66.2348404   7.5745756  74.4438616  77.9255638  11.1964352
  74.2963578  76.9972346  11.3771922  75.2692109  77.9475729  10.7121427
  68.3100860  66.5773705   7.0544844  68.6496932  67.1059626   6.3323453
  68.7572980  66.9154111   7.8303411  78.0472737  78.7484197  12.2829225
  78.9719285  78.5427058  12.1453676  77.8788041  78.5000598  13.1918566
  71.0044301  64.9610756  16.5047912  70.6641121  64.1618569  16.9068592
  70.2983307  65.2612467  15.9324746  71.6560773  62.0460068  14.9575235
  72.4786842  61.5720547  14.8354126  71.8998836  62.8250552  15.4573922
  70.2969007  65.0748327   5.2538137  71.0177370  65.4529580   4.7501854
  69.6734311  65.7937204   5.3573115  74.4400130  65.7793476   6.1896469
  74.6563744  66.6618114   5.8885298  73.9594197  65.3879689   5.4602111
  69.1799351  68.7379189  12.7667214  69.0343932  69.0519492  13.6591496
  68.7024555  69.3564089  12.2138113  71.0395734  65.7281737  12.8148104
  71.0257303  64.8322830  12.4780402  71.7568162  65.7352401  13.4486390
  72.8921865  66.1619077  14.8601231  72.6339643  67.0836148  14.8585561
  72.3606905  65.7649512  15.5501695  77.8368054  79.2669864   7.6391316
  78.0104931  78.7016287   6.8865169  78.3296945  80.0670759   7.4570806
  63.6545013  71.2784533  15.7054875  63.1098482  72.0544341  15.8375150
  64.5324363  71.6255338  15.5473997  70.4432630  64.6096117   8.0835674
  70.5648541  63.6812763   8.2826561  70.1534673  64.6234803   7.1713989
  73.3123821  62.2951028  11.2202394  73.3345517  62.3590361  10.2654373
  73.7291880  61.4555536  11.4142900  83.6907445  72.0306287   9.2581616
  84.1338591  71.2813612   8.8600739  82.8133955  72.0216424   8.8755348
  78.8243226  78.5836629   4.7388215  79.5194131  79.2043321   4.9575529
  79.1666376  77.7331980   5.0140593  64.4411035  70.4054430  18.5985032
  63.6992771  70.5537065  19.1849663  64.1203780  70.6662695  17.7351781
  80.7234649  76.0336334   6.2675545  81.2485973  76.3723607   5.5424865
  80.6357002  75.0983350   6.0838680  72.3854698  79.9470408  18.3965422
  72.6941824  79.7019555  19.2688122  73.1830180  80.1517046  17.9084292
  72.4075310  82.1008318  10.6270799  71.9680300  81.6084696  11.3203655
  73.1583427  81.5581285  10.3862874  64.8867649  78.2919858  10.6295427
  65.7125669  77.9923630  10.2494070  64.5361701  77.5227481  11.0785215
  69.8549182  77.6446327  12.6993100  69.2329191  76.9817032  12.3995328
  70.5254049  77.6707458  12.0166748  63.0876254  76.2106185  11.5884360
  62.2508162  75.7828359  11.4068362  63.0599900  76.4038628  12.5255152
  69.9273710  66.1228115  22.2925606  69.9761865  66.9990237  21.9103376
  70.4696224  65.5805508  21.7197250  80.4128555  76.6669238  21.5726743
  79.6224099  76.6493377  21.0331243  80.1761910  77.2057532  22.3275780
  80.5326430  73.5161704  18.8859472  80.5824435  73.3511712  19.8274995
  80.4240354  72.6488963  18.4957353  69.4162689  76.1950250   6.1751561
  69.5650809  76.8785714   5.5218234  70.2229133  76.1755340   6.6901017
  77.8230193  69.4992632  20.2018779  78.7240056  69.3599097  19.9102776
  77.8978167  69.6647087  21.1416956  72.1572998  66.8759487  19.0471965
  71.2876308  67.1693053  18.7754554  72.3932478  67.4599932  19.7679229
  82.0344627  75.9358646  19.1301493  81.7429436  76.2988626  19.9664954
  81.4216759  75.2225654  18.9514826  83.2340310  73.5011526  11.6504064
  84.0687201  73.9401330  11.8141624  83.3699438  73.0250179  10.8312309
  80.2831815  71.0591260  17.5981551  80.7585937  71.2518907  16.7900403
  79.3597381  71.1150446  17.3524935  67.1715322  72.2215428   7.1812630
  66.9261364  71.3177758   7.3792840  67.3411237  72.2232578   6.2392108
  74.8612032  63.0939104  16.5637385  75.3793976  63.8300131  16.2383874
  74.5067165  63.4003097  17.3984144  66.4410970  67.9543785   4.6798791
  65.7480215  68.0288140   4.0238827  66.1962722  67.1904129   5.2020308
  75.1124626  59.5139386  12.0838282  75.3926380  58.8462576  12.7098709
  75.8975233  59.7068482  11.5712946  72.9158095  78.6898380   3.6463308
  72.3432062  79.3088568   3.1933780  73.4890888  79.2397742   4.1803230
  78.9833484  67.9357020  15.8309857  79.9350907  68.0355118  15.8522081
  78.8136935  67.1435289  16.3407941  77.0047864  65.0212604  16.0169258
  76.4097796  65.3017616  15.3215747  76.7197561  65.5106505  16.7885999
  76.1355354  78.9735531   4.7771891  77.0686028  78.9081092   4.9804766
  76.0478567  79.8091797   4.3186423  78.7643371  78.2901401   1.7375838
  78.6857003  77.9561264   2.6311596  79.5853038  78.7823169   1.7367310
  81.4621562  71.1563140  14.9452157  81.4297882  70.2179141  15.1311841
  82.0722186  71.2347177  14.2117982  73.3004893  70.0259193   0.9879361
  74.2463998  69.8965401   1.0567779  72.9219138  69.2873855   1.4648789
  81.6116051  67.9474184  14.9910440  81.0955099  67.1632640  14.8040369
  82.4955999  67.6192900  15.1556959  79.2726778  61.6915199  10.9506253
  79.0751599  61.3830287  11.8349585  79.8826483  62.4176838  11.0804182
  87.2798112  72.2179147  14.0858194  88.0101501  71.9564435  14.6465897
  86.6705058  71.4807869  14.1260262  85.3613409  70.3587010  14.6832645
  84.6346573  70.2242975  14.0749136  84.9460696  70.6663838  15.4889363
  73.1843586  74.0776939  22.4480018  74.1046595  74.2555538  22.6420064
  73.1493169  73.1332985  22.2959717  71.4847810  67.9509170   0.9234246
  70.5779266  67.6542282   0.9996960  71.7623791  67.6538988   0.0568532
  62.4025751  69.2715533  11.3733292  62.0828535  68.4180841  11.0807666
  61.8559179  69.4864111  12.1291260  66.1805658  71.9877974  15.0902799
  66.3991668  72.9195082  15.1090833  66.5931432  71.6285948  15.8757603
  73.1009876  62.4946059   7.0778487  72.2910604  62.1493144   7.4533733
  73.7894293  62.1853603   7.6666099  75.0300424  61.5724106   8.7002784
  75.5831463  61.9919559   9.3592807  75.2670511  60.6459854   8.7425740
  71.0533524  67.5611180  24.4805548  70.9530250  68.5105537  24.4117639
  70.8355066  67.2329419  23.6081618  70.2546595  64.8096105   1.0646225
  71.1165759  65.1351003   1.3242043  70.4396939  64.0227601   0.5519291
  62.2714011  72.8918444  13.3426414  61.5777482  72.4772397  12.8296368
  63.0187002  72.9338981  12.7459833  78.4079231  63.6824631   8.2081448
  77.8277900  64.3409435   7.8259501  78.1415164  62.8601976   7.7968866
  76.8582798  63.0829689  10.4102769  77.3582576  63.1946223   9.6017087
  77.5018406  62.7790742  11.0503577  70.9164794  70.9908319  23.2970609
  70.4331875  71.7908679  23.5034499  71.0025733  71.0016263  22.3438053
  64.1850753  72.8236698  11.2192429  64.1621441  72.9224385  10.2674312
  64.4951390  73.6701849  11.5409595  66.8438131  74.8812853  15.3339043
  67.7981385  74.8496796  15.2668975  66.6450655  74.4203477  16.1489269
  67.4337513  73.4513969  17.9009841  68.2530402  73.9458048  17.9244678
  67.7074321  72.5345937  17.8727408  77.1904109  65.8424722   7.2637796
  76.3029964  66.1274372   7.0457991  77.6058098  65.6818485   6.4165073
  80.5418646  65.8671243  10.9792136  81.3179036  66.3567695  11.2516753
  79.8166780  66.2929297  11.4364005  82.9791204  66.5798862  12.0366076
  83.5735695  66.3394598  11.3259385  83.0517788  65.8605992  12.6639613
  65.1988360  80.4232473  12.3509241  65.0642828  79.6632874  11.7847239
  64.7820422  81.1473373  11.8838030  76.3347323  75.6069396   1.3585816
  77.0383173  75.8119399   1.9743472  75.6109972  76.1746158   1.6234900
  77.1645133  71.3579258   7.4788087  77.1080335  71.8147809   6.6395719
  77.7173476  70.5969942   7.3010929  80.9749939  67.1468989   8.3038206
  80.7186873  66.7465625   9.1346414  80.3502807  67.8612783   8.1788345
  85.2862277  69.8865063  10.8109498  84.7261835  69.9558252  11.5841060
  84.6805780  69.7106047  10.0908994  68.3557486  81.3201790  12.5627684
  68.2389870  82.2647222  12.4606374  67.5349932  81.0175351  12.9513483
  78.2434020  76.0451925   3.4084276  79.0779624  75.6133124   3.2261751
  78.0818363  75.8733939   4.3361171  77.8979912  72.5484039   4.7740616
  77.8428716  72.3828310   3.8329060  77.2725968  73.2560072   4.9302806
  62.6872427  67.7852103  18.6002038  63.3331291  67.2751057  19.0889263
  62.4789579  68.5220785  19.1745463  75.2125820  74.8532951  24.0994179
  76.0816979  75.0273603  23.7380813  74.7332571  75.6727367  23.9769908
  71.2076038  62.0492148   4.3525934  71.1954708  62.9933988   4.5094205
  72.0999460  61.8662293   4.0585395  69.3812000  81.9730052  15.7783612
  70.2839247  82.0053662  16.0950107  69.1549370  81.0430503  15.7929948
  71.1365602  80.7261038  12.4393691  70.1861233  80.7262900  12.3258063
  71.4398088  79.9793773  11.9229725  75.0228157  58.6434924   8.6071871
  74.2560553  58.0893411   8.7528553  75.4338862  58.7156793   9.4686023
  67.0269918  64.9319720  22.6977052  67.8901380  64.5756525  22.9080377
  66.4535329  64.5933615  23.3852457  86.8718295  86.5621577  13.5039453
  87.5096705  86.4428324  12.8002793  86.7539138  87.5102421  13.5627405
  83.6808002  86.5149005  13.4400978  83.3426513  86.3990069  12.5521513
  84.5497770  86.1140170  13.4201984  79.5394817  88.3684481   9.4297869
  78.9759682  88.2774418   8.6614157  79.4247212  87.5484386   9.9100361
  84.1627785  87.6683856  19.3987183  84.1516425  87.2736655  18.5267687
  84.3248424  86.9349929  19.9920955  77.0859249  89.8635673  12.2682089
  77.8780541  89.5226497  11.8528389  77.3255899  89.9730648  13.1884243
  85.1194376  92.0355449   4.7412334  84.4682356  92.6209529   4.3546348
  85.9138739  92.5661644   4.8007371  79.0450003  89.1244586   5.1399468
  79.8180879  88.5773573   5.0012344  79.3975402  89.9888835   5.3513930
  80.8835046  90.4520968  18.3466367  80.5924912  91.3566599  18.2313034
  81.5192030  90.4937496  19.0610437  81.8091253  87.8297817  14.9367727
  82.4054825  87.6053839  14.2224690  81.8666224  87.0882562  15.5393175
  81.3816281  85.2837252   2.7717918  81.6341802  84.7618773   2.0101381
  80.4440840  85.1203398   2.8744602  86.4259564  84.2873030  10.5792661
  87.2122653  83.8692454  10.2283078  86.6898268  85.1919123  10.7474310
  86.5969641  89.7245881   5.2781318  85.9615474  89.7980507   5.9902223
  86.2667048  90.3139480   4.6000397  91.8267991  84.2248264  11.4825640
  92.5593163  83.6547480  11.7163469  91.0707347  83.8369864  11.9232145
  81.1012570  87.1865358   4.9742293  80.9848828  86.5110261   5.6423377
  81.2114830  86.6997732   4.1574446  83.4444111  86.6475505   8.6788982
  83.0802318  86.1206126   9.3901904  84.3011227  86.2573974   8.5055468
  89.3493411  77.9369838  15.9420248  89.0176736  78.8065249  15.7181463
  88.7539025  77.6206122  16.6214279  83.0849598  81.6765405   3.6750331
  83.2524000  82.5445641   4.0420802  82.8946767  81.8392687   2.7511620
  85.8424931  90.1382384  15.3416161  85.5425654  91.0407423  15.2331968
  85.4975990  89.8714567  16.1937314  79.2937412  86.5896181  11.3752866
  78.3687909  86.4572395  11.5830557  79.5421826  87.3690400  11.8722808
  89.2422075  82.6564924  13.0213598  88.3338952  82.5880332  12.7272359
  89.1909670  83.1336869  13.8495424  83.0638819  84.1323062   4.6596998
  82.9438444  84.5780113   5.4982478  82.3691407  84.4808380   4.1010536
  76.6546223  86.2329454  12.2096655  76.7838605  86.4863933  13.1236066
  75.9743675  86.8257162  11.8901310  80.8245711  96.9026704   8.3087129
  80.7469740  97.8534529   8.3875609  80.2207354  96.5572577   8.9662055
  83.3162940  84.0754570  20.9648496  82.5396274  84.6348490  20.9551360
  83.9553503  84.5611352  21.4863366  91.1083721  80.8581362  14.7991472
  90.4658101  81.1513895  14.1531267  90.6038650  80.7434283  15.6044669
  88.7623885  84.6044536   5.4877332  89.6741741  84.8371922   5.3125029
  88.2533532  85.1881580   4.9252410  81.5709313  86.8840023  20.5266463
  82.3123997  87.4225067  20.2501286  80.8646298  87.5106312  20.6838015
  87.0464652  89.0269163  19.1238624  87.4548008  88.5851574  18.3793257
  86.3241914  88.4521791  19.3772817  83.3995722  83.9641770  16.4972181
  84.2456918  84.3881184  16.6406830  83.3394360  83.3075394  17.1910744
  87.3693467  89.5870354  12.8790913  86.7402329  89.7516068  12.1766981
  86.9819129  90.0011964  13.6501877  91.2482699  90.5224792  10.2335277
  90.5633737  90.9023693   9.6832310  91.3326548  91.1320118  10.9667225
  86.5495168  81.6246138  18.1553355  86.3056100  82.3788199  17.6187630
  86.8255098  82.0031486  18.9900602  88.5033631  88.1684751  16.8330620
  88.7150526  88.8116511  16.1565001  88.4563379  87.3347067  16.3652550
  86.1059859  80.7802571  13.7367193  85.2444339  81.0783825  14.0283930
  86.1322294  80.9972970  12.8048225  82.9221429  89.3244762  10.1440998
  83.3859774  89.6032465   9.3545621  82.6578227  88.4228207   9.9614089
  79.8145510  88.8716244  13.0820761  80.3846867  89.3003512  12.4438246
  80.4053622  88.5898828  13.7804947  81.8590315  85.4467914   6.9530563
  82.5614358  85.8988958   7.4204490  81.5270943  84.8051733   7.5810456
  80.3070676  84.0379671  21.3281773  79.6769337  84.7195952  21.5617170
  80.2006764  83.9262753  20.3834911  75.6015649  83.7051467  12.2547697
  74.8114703  83.9608996  11.7787808  76.0926896  84.5199805  12.3599737
  89.6179458  91.0456706  15.0052978  90.4396902  90.6436894  14.7235659
  89.6141861  90.9424940  15.9569094  77.5530394  84.0696046   9.2131174
  76.7561558  84.1814741   9.7314669  77.3255986  84.4082699   8.3472064
  83.3836062  90.5940750  17.1613688  83.4480494  91.0561157  17.9971860
  82.6746986  89.9638114  17.2895998  73.8853352  83.9581958  14.6862688
  74.1361390  84.8428967  14.9520264  74.4212900  83.7786559  13.9137780
  97.7085452  87.3895455  11.3537949  96.9549160  86.8202853  11.1981954
  97.8432993  87.3558119  12.3008584  83.0984080  92.2608857   7.0292669
  82.9629754  93.1060393   7.4577516  83.6393892  92.4628135   6.2658602
  79.5851419  78.3400437  23.6907024  79.1918365  77.7866635  24.3654668
  80.4017560  78.6511015  24.0813541  76.5513477  89.7784295   7.6020594
  77.0637998  90.5727545   7.7526158  77.2036190  89.0810586   7.5354195
  78.3608362  92.8950051   9.6843347  78.5374990  93.8168016   9.4964331
  79.1565195  92.5808471  10.1137727  82.5019380  79.7558316  21.2827280
  83.2429094  80.3565469  21.2031743  82.7337303  79.0135954  20.7245323
  77.6460718  84.9414683  19.5605510  77.5314233  84.0399940  19.8612609
  76.7905236  85.1878380  19.2090327  84.7252556  92.8832424  21.1593011
  84.2816410  92.0968802  20.8413915  85.3869770  93.0711574  20.4936901
  79.4839677  94.4128225  15.6853689  80.0347102  94.2845288  14.9130683
  78.6451153  94.7123114  15.3348582  86.8233794  93.1635223  19.1874412
  86.8052269  93.9844105  18.6954681  87.7453714  93.0389299  19.4124553
  83.2806848  90.6779353  20.0297920  83.8135185  89.9167641  19.7997228
  82.7520929  90.3853005  20.7722075  86.4476543  75.7839419  15.5591562
  86.1040813  76.6741061  15.4830673  86.8155506  75.5941077  14.6961147
  74.5162394  88.1072949   8.3780164  75.3537616  88.5169958   8.1613872
  74.6940661  87.1672392   8.3480358  86.4126826  85.7748030   4.0663997
  85.8973449  86.5452635   4.3052385  86.1404134  85.1013166   4.6897059
  83.9973937  80.6197731   9.1249236  83.1415533  80.2304581   8.9454874
  84.4100889  80.6989692   8.2649021  85.5273084  78.1544074  13.5240795
  85.0237879  78.1174209  12.7108601  85.8203690  79.0636817  13.5837452
  81.7715969  78.2382804  12.5306977  82.6368966  78.0425612  12.1712866
  81.8393478  78.0093156  13.4576334  91.3861100  88.5280385   6.0017171
  90.6090543  88.1891544   5.5572333  92.0652581  88.5333008   5.3272136
  86.2013129  83.6475122   5.8923778  85.8963265  83.9621271   6.7433922
  87.1543571  83.7256542   5.9351111  84.6459561  89.8065345   7.5416732
  84.1180922  89.0718105   7.2289970  84.1447064  90.5840022   7.2956701
  89.6252407  88.0014366  12.6583779  88.9676081  88.6913627  12.7463907
  90.4292806  88.3910798  13.0017765  79.3778288  80.4685012   9.9023344
  79.9522040  80.2460193   9.1696537  79.9649271  80.5373706  10.6551945
  88.4357866  86.3558739  10.7087720  88.9489747  86.9888730  11.2109430
  89.0859090  85.7559934  10.3431080  79.7047876  82.4989473   3.9219229
  78.8685188  82.8364159   4.2428504  79.5652645  82.3638453   2.9846366
  81.6800956  77.3426261   8.6298413  81.0265369  77.0275278   8.0055028
  81.6381430  76.7202001   9.3558236  82.7912161  87.6245556   0.5451705
  81.8839223  87.3934809   0.7442854  83.2883193  86.8283175   0.7325687
  85.6980240  96.3343063   3.4648391  85.0241939  96.6374760   4.0733349
  86.0846062  97.1372143   3.1153849  84.9138697  83.8308194  12.9546061
  83.9961258  84.0523141  12.7967749  85.3298840  83.9054505  12.0957768
  85.6973744  85.2299610   8.0848741  86.4445563  85.7421007   7.7755863
  85.9665334  84.9083663   8.9453135  83.9700395  87.7258151   5.0675695
  83.0611614  87.4417183   5.1648165  83.9995478  88.1457229   4.2079002
  89.2019662  91.3364740   8.8366863  88.7481989  90.4955650   8.8932053
  88.5713629  91.9726138   9.1741643  88.1452581  82.2656726  10.0667530
  87.4075338  81.7534112  10.3977773  88.3979355  81.8257108   9.2550807
  87.6452601  93.1741237   9.7716681  87.9375576  93.7346294   9.0529047
  88.1551222  93.4669798  10.5269840  88.2464209  75.0432978  10.6609300
  88.5523086  74.1830342  10.3735215  88.9716814  75.6350598  10.4608294
  74.5388565  85.4463665   9.0490898  74.3412965  84.8533025   8.3241964
  73.9835229  85.1415875   9.7666836  82.5185289  85.3386771  11.1685491
  82.5733898  84.3860608  11.0927967  81.7076491  85.4946210  11.6526789
  83.6676482  89.2666894   2.4063774  83.2295912  88.5502753   1.9469411
  84.4086923  89.4943009   1.8448865  80.4577648  83.9563831   8.9275870
  79.6445514  84.2558001   9.3341062  80.9536643  83.5619520   9.6450352
  82.6086226  93.9521588  10.8610134  82.5662405  94.1782434   9.9318666
  83.5248925  93.7184962  11.0095935  86.0551860  84.4205655  17.7590764
  86.4101248  84.6477129  18.6185229  86.7023991  84.7524032  17.1368019
  91.7849597  87.5424091   8.4640093  91.6467496  87.7325687   7.5361282
  91.4285816  88.3043474   8.9208144  79.9491723  81.5282186  14.5437105
  80.5891103  81.3870946  13.8460068  79.1169254  81.2416700  14.1675707
  91.8118977  89.6100618  13.4751364  92.2455483  89.5175907  14.3234418
  92.5250557  89.5858119  12.8371380  80.7252027  90.8284617  10.6572097
  81.5192626  90.3334937  10.4554672  80.0143720  90.3002480  10.2939803
  85.5446872  93.2102712  15.0084465  85.5983894  93.7793649  15.7762181
  84.6761653  93.3804597  14.6438502  77.0334791  84.9727699   6.7331850
  76.1032379  84.9112154   6.9501812  77.1292263  84.4503651   5.9368491
  76.9520340  81.4982511   9.3210091  77.2127157  82.4127845   9.2119252
  77.7737512  81.0306954   9.4706704  78.4245265  82.9120269  16.4908916
  79.0968318  82.7037631  15.8421565  77.5975052  82.7142355  16.0514148
  92.6734526  89.6524319  16.0084249  92.8670416  90.5570129  16.2543524
  92.5735144  89.1931738  16.8422834  84.3270837  79.5382210  18.5074577
  83.6798752  80.2372159  18.4139053  85.0971852  79.9718353  18.8750825
  87.7349635  89.8031062  21.5825130  87.5835141  89.5741613  20.6655214
  87.7254314  90.7601663  21.5956475  84.5034971  87.3762974  16.5671397
  85.4327031  87.5274134  16.3940364  84.0826001  87.4646995  15.7120043
  83.3023303  91.4013639  14.3369934  83.1634389  91.0332423  15.2095872
  82.5137899  91.9161278  14.1653892  83.8971455  96.5022735   5.6795471
  84.0723211  96.0310779   6.4941093  83.2104243  97.1288502   5.9076731
  84.8528518  90.7795242  11.7258772  84.5178351  90.7396012  12.6216422
  84.3532464  90.1139957  11.2529182  78.8272762  86.1862872  17.2511353
  78.6892560  85.4543110  17.8522892  79.7377686  86.0971772  16.9695541
  87.7887710  88.1251276   1.9995832  87.1716881  87.3998104   1.9028884
  87.3204198  88.8860636   1.6562906  81.4555063  85.8982831  16.7395033
  82.1654681  85.2576023  16.6981651  81.4124371  86.1495726  17.6621214
  89.4441842  92.8350184  19.6601612  89.3854388  92.1509404  18.9932195
  89.8461360  93.5769174  19.2082238  80.1683997  82.8848049  18.5590672
  79.6321354  82.4338787  19.2112269  79.5800705  83.0193958  17.8161137
  78.4632540  99.6512098  12.4535331  78.7029139 100.2830622  13.1314349
  77.6201737  99.3000138  12.7400690  79.5786256  82.3436700   1.1217136
  78.7015722  82.2225501   0.7579383  80.0544009  81.5522778   0.8696025
  89.4459249  90.7989768  17.8915592  88.5586028  90.4615690  18.0141990
  90.0157800  90.0672799  18.1284357  71.0988396  87.1313860  11.2158643
  71.7859436  86.8175590  10.6279658  70.9436525  88.0355225  10.9425894
  75.9023118  82.0204056  15.6443667  75.8181307  81.4129726  14.9094077
  75.0805825  82.5113075  15.6453163  82.9760402  95.4591221  14.8576835
  82.9030574  96.2646192  15.3696139  82.5337795  95.6583186  14.0324856
  82.7650182  94.6962991   8.3679656  81.9817704  95.2384671   8.4617881
  83.4642927  95.2136970   8.7673898  86.0746832  80.5057620  11.0113862
  86.5715532  79.7527582  10.6914932  85.3033813  80.5421937  10.4457071
  93.9276589  86.2097986  12.6532153  93.9166466  87.0922701  12.2826086
  93.0593969  85.8569536  12.4586690  85.4359086  95.3578055  17.0134993
  86.1487058  95.9925519  16.9410895  84.9449114  95.4541921  16.1974995
  87.1576613  89.2629307   8.5852285  86.2232891  89.3830770   8.4156989
  87.3353281  88.3601774   8.3212295  82.6581801  82.6475003  10.7385546
  82.2879588  82.0946043  11.4266452  83.1540893  82.0433136  10.1860546
  90.5449164  85.1046627   9.1202319  91.0109616  85.9374618   9.0462622
  90.9956665  84.6391608   9.8247578  80.4870999  93.1072498  17.8340564
  81.1880459  93.7408981  17.9869959  80.0166114  93.4487230  17.0736204
  88.6125395  91.4490448   6.1188471  88.8885239  91.3347042   7.0282345
  87.7429894  91.0507933   6.0800644  88.5165827  77.4727213  13.1593221
  87.6028907  77.7031440  13.3275428  88.9458928  77.5565658  14.0107253
  88.2872285  85.6617105  15.6593115  87.6343735  85.9093013  15.0045567
  88.6652665  84.8481244  15.3255592  85.2479459  95.6976799   9.7621285
  85.4301854  94.8798455  10.2249037  86.0712445  95.9144491   9.3246175
  85.5821625  94.6244984   7.0236333  86.1109391  94.1137438   6.4106496
  85.8449844  94.3087514   7.8881866  84.3359858  86.4036917  22.1459152
  83.6600495  86.3031046  22.8161527  85.1587492  86.2476130  22.6095149
  76.0838717  92.6408853  14.7671667  76.6692154  91.8952541  14.8999571
  75.8863556  92.9512810  15.6508331  78.9377373  95.6760100   9.7834109
  78.2687748  96.1606228   9.2998149  78.7990242  95.9229321  10.6977488
  70.6756372  85.2114453  13.4876110  70.7140472  84.6778044  14.2813228
  70.1696665  84.6849659  12.8687087  83.0782641  97.7103844  16.3816768
  83.6300949  97.8735465  17.1465853  83.4188835  98.3008282  15.7096793
  78.0547134  80.0578994  16.9838652  78.1188461  80.9193825  16.5716050
  77.9914255  79.4452995  16.2511011  77.5299407  82.1302126  20.6311687
  78.1571446  81.7479204  21.2449211  76.6727326  81.9116328  20.9967379
  87.9293515  92.5365101  22.2365422  88.4733419  93.1495060  21.7420377
  87.3480360  93.0944680  22.7532435  74.3064950  83.9378555   6.5630042
  74.6018391  83.0289234   6.5097095  73.4052985  83.9166295   6.2411044
  86.2151028  95.6585819  13.3680450  86.0902168  94.8575559  12.8591395
  86.8730120  96.1532013  12.8794420  77.8359197  82.0134552  12.5457590
  77.1145782  82.6270520  12.4065063  78.6252452  82.5492317  12.4674236
  88.2785937  93.4594840  14.9960000  87.3316272  93.3400191  14.9238327
  88.6268710  92.5717338  15.0786261  80.6385510  79.3488978  18.8198242
  81.1619912  79.5951275  19.5824551  80.4197843  80.1809013  18.4001379
  76.0352791  81.6192653   6.6869367  75.7065497  80.7390032   6.5044473
  76.3892162  81.5640322   7.5745756  85.2832370  93.2547556  11.1964352
  85.1357333  92.3264263  11.3771922  86.1085864  93.2767647  10.7121427
  79.1494614  81.9065623   7.0544844  79.4890687  82.4351544   6.3323453
  79.5966735  82.2446029   7.8303411  88.8866492  94.0776115  12.2829225
  89.8113039  93.8718976  12.1453676  88.7181795  93.8292516  13.1918566
  81.8438055  80.2902674  16.5047912  81.5034876  79.4910487  16.9068592
  81.1377062  80.5904384  15.9324746  82.4954527  77.3751986  14.9575235
  83.3180596  76.9012464  14.8354126  82.7392591  78.1542470  15.4573922
  81.1362762  80.4040244   5.2538137  81.8571124  80.7821497   4.7501854
  80.5128066  81.1229121   5.3573115  85.2793884  81.1085393   6.1896469
  85.4957499  81.9910031   5.8885298  84.7987952  80.7171607   5.4602111
  80.0193106  84.0671107  12.7667214  79.8737687  84.3811410  13.6591496
  79.5418309  84.6856007  12.2138113  81.8789489  81.0573655  12.8148104
  81.8651057  80.1614748  12.4780402  82.5961917  81.0644318  13.4486390
  83.7315619  81.4910995  14.8601231  83.4733397  82.4128066  14.8585561
  83.2000660  81.0941429  15.5501695  88.6761808  94.5961782   7.6391316
  88.8498686  94.0308204   6.8865169  89.1690699  95.3962677   7.4570806
  74.4938768  86.6076451  15.7054875  73.9492236  87.3836259  15.8375150
  75.3718118  86.9547256  15.5473997  81.2826385  79.9388035   8.0835674
  81.4042296  79.0104681   8.2826561  80.9928427  79.9526721   7.1713989
  84.1517575  77.6242945  11.2202394  84.1739272  77.6882278  10.2654373
  84.5685634  76.7847454  11.4142900  94.5301199  87.3598205   9.2581616
  94.9732345  86.6105530   8.8600739  93.6527710  87.3508341   8.8755348
  89.6636981  93.9128546   4.7388215  90.3587885  94.5335239   4.9575529
  90.0060131  93.0623898   5.0140593  75.2804790  85.7346347  18.5985032
  74.5386526  85.8828983  19.1849663  74.9597534  85.9954613  17.7351781
  91.5628404  91.3628252   6.2675545  92.0879728  91.7015525   5.5424865
  91.4750756  90.4275267   6.0838680  83.2248452  95.2762326  18.3965422
  83.5335579  95.0311472  19.2688122  84.0223935  95.4808964  17.9084292
  83.2469065  97.4300235  10.6270799  82.8074055  96.9376614  11.3203655
  83.9977181  96.8873203  10.3862874  75.7261404  93.6211776  10.6295427
  76.5519423  93.3215548  10.2494070  75.3755456  92.8519398  11.0785215
  80.6942937  92.9738244  12.6993100  80.0722946  92.3108949  12.3995328
  81.3647804  92.9999376  12.0166748  73.9270009  91.5398103  11.5884360
  73.0901917  91.1120277  11.4068362  73.8993654  91.7330546  12.5255152
  80.7667464  81.4520032  22.2925606  80.8155620  82.3282155  21.9103376
  81.3089978  80.9097425  21.7197250  91.2522310  91.9961156  21.5726743
  90.4617854  91.9785294  21.0331243  91.0155664  92.5349449  22.3275780
  91.3720185  88.8453622  18.8859472  91.4218190  88.6803629  19.8274995
  91.2634108  87.9780881  18.4957353  80.2556444  91.5242168   6.1751561
  80.4044564  92.2077632   5.5218234  81.0622887  91.5047258   6.6901017
  88.6623947  84.8284550  20.2018779  89.5633810  84.6891015  19.9102776
  88.7371922  84.9939005  21.1416956  82.9966753  82.2051405  19.0471965
  82.1270062  82.4984971  18.7754554  83.2326233  82.7891850  19.7679229
  92.8738382  91.2650563  19.1301493  92.5823190  91.6280544  19.9664954
  92.2610513  90.5517572  18.9514826  94.0734064  88.8303443  11.6504064
  94.9080955  89.2693247  11.8141624  94.2093193  88.3542096  10.8312309
  91.1225570  86.3883178  17.5981551  91.5979692  86.5810824  16.7900403
  90.1991135  86.4442364  17.3524935  78.0109077  87.5507345   7.1812630
  77.7655119  86.6469675   7.3792840  78.1804991  87.5524496   6.2392108
  85.7005786  78.4231022  16.5637385  86.2187730  79.1592049  16.2383874
  85.3460919  78.7295015  17.3984144  77.2804724  83.2835703   4.6798791
  76.5873969  83.3580058   4.0238827  77.0356476  82.5196046   5.2020308
  85.9518381  74.8431304  12.0838282  86.2320134  74.1754493  12.7098709
  86.7368988  75.0360400  11.5712946  83.7551849  94.0190298   3.6463308
  83.1825816  94.6380485   3.1933780  84.3284643  94.5689660   4.1803230
  89.8227239  83.2648938  15.8309857  90.7744662  83.3647036  15.8522081
  89.6530689  82.4727207  16.3407941  87.8441618  80.3504521  16.0169258
  87.2491551  80.6309534  15.3215747  87.5591315  80.8398422  16.7885999
  86.9749109  94.3027448   4.7771891  87.9079782  94.2373010   4.9804766
  86.8872322  95.1383715   4.3186423  89.6037126  93.6193319   1.7375838
  89.5250757  93.2853182   2.6311596  90.4246792  94.1115086   1.7367310
  92.3015317  86.4855058  14.9452157  92.2691637  85.5471059  15.1311841
  92.9115940  86.5639095  14.2117982  84.1398648  85.3551111   0.9879361
  85.0857752  85.2257319   1.0567779  83.7612893  84.6165773   1.4648789
  92.4509805  83.2766101  14.9910440  91.9348854  82.4924558  14.8040369
  93.3349754  82.9484818  15.1556959  90.1120532  77.0207117  10.9506253
  89.9145353  76.7122205  11.8349585  90.7220238  77.7468756  11.0804182
  98.1191867  87.5471065  14.0858194  98.8495255  87.2856353  14.6465897
  97.5098812  86.8099787  14.1260262  96.2007164  85.6878927  14.6832645
  95.4740327  85.5534892  14.0749136  95.7854451  85.9955756  15.4889363
  84.0237340  89.4068857  22.4480018  84.9440350  89.5847456  22.6420064
  83.9886923  88.4624902  22.2959717  82.3241565  83.2801087   0.9234246
  81.4173020  82.9834200   0.9996960  82.6017546  82.9830905   0.0568532
  73.2419505  84.6007451  11.3733292  72.9222289  83.7472759  11.0807666
  72.6952933  84.8156029  12.1291260  77.0199413  87.3169892  15.0902799
  77.2385422  88.2486999  15.1090833  77.4325187  86.9577866  15.8757603
  83.9403630  77.8237977   7.0778487  83.1304359  77.4785062   7.4533733
  84.6288047  77.5145521   7.6666099  85.8694179  76.9016024   8.7002784
  86.4225217  77.3211477   9.3592807  86.1064265  75.9751772   8.7425740
  81.8927278  82.8903097  24.4805548  81.7924005  83.8397454  24.4117639
  81.6748820  82.5621336  23.6081618  81.0940349  80.1388022   1.0646225
  81.9559513  80.4642921   1.3242043  81.2790694  79.3519518   0.5519291
  73.1107765  88.2210362  13.3426414  72.4171237  87.8064315  12.8296368
  73.8580756  88.2630899  12.7459833  89.2472986  79.0116549   8.2081448
  88.6671655  79.6701353   7.8259501  88.9808919  78.1893893   7.7968866
  87.6976552  78.4121607  10.4102769  88.1976331  78.5238141   9.6017087
  88.3412160  78.1082659  11.0503577  81.7558548  86.3200236  23.2970609
  81.2725630  87.1200596  23.5034499  81.8419487  86.3308181  22.3438053
  75.0244508  88.1528616  11.2192429  75.0015196  88.2516303  10.2674312
  75.3345144  88.9993767  11.5409595  77.6831886  90.2104771  15.3339043
  78.6375139  90.1788713  15.2668975  77.4844409  89.7495395  16.1489269
  78.2731268  88.7805887  17.9009841  79.0924157  89.2749966  17.9244678
  78.5468075  87.8637855  17.8727408  88.0297864  81.1716639   7.2637796
  87.1423719  81.4566290   7.0457991  88.4451853  81.0110403   6.4165073
  91.3812400  81.1963160  10.9792136  92.1572790  81.6859613  11.2516753
  90.6560534  81.6221214  11.4364005  93.8184959  81.9090779  12.0366076
  94.4129449  81.6686515  11.3259385  93.8911542  81.1897910  12.6639613
  76.0382114  95.7524390  12.3509241  75.9036582  94.9924791  11.7847239
  75.6214177  96.4765290  11.8838030  87.1741077  90.9361314   1.3585816
  87.8776927  91.1411316   1.9743472  86.4503726  91.5038076   1.6234900
  88.0038888  86.6871175   7.4788087  87.9474089  87.1439727   6.6395719
  88.5567230  85.9261860   7.3010929  91.8143694  82.4760907   8.3038206
  91.5580628  82.0757543   9.1346414  91.1896562  83.1904701   8.1788345
  96.1256031  85.2156980  10.8109498  95.5655589  85.2850170  11.5841060
  95.5199535  85.0397965  10.0908994  79.1951240  96.6493707  12.5627684
  79.0783624  97.5939140  12.4606374  78.3743686  96.3467269  12.9513483
  89.0827775  91.3743843   3.4084276  89.9173379  90.9425042   3.2261751
  88.9212118  91.2025857   4.3361171  88.7373667  87.8775956   4.7740616
  88.6822471  87.7120228   3.8329060  88.1119722  88.5851989   4.9302806
  73.5266182  83.1144021  18.6002038  74.1725046  82.6042975  19.0889263
  73.3183333  83.8512702  19.1745463  86.0519574  90.1824868  24.0994179
  86.9210734  90.3565521  23.7380813  85.5726326  91.0019285  23.9769908
  82.0469792  77.3784065   4.3525934  82.0348462  78.3225905   4.5094205
  82.9393214  77.1954211   4.0585395  80.2205754  97.3021969  15.7783612
  81.1233001  97.3345580  16.0950107  79.9943124  96.3722420  15.7929948
  81.9759356  96.0552956  12.4393691  81.0254987  96.0554817  12.3258063
  82.2791843  95.3085690  11.9229725  85.8621912  73.9726842   8.6071871
  85.0954308  73.4185329   8.7528553  86.2732617  74.0448711   9.4686023
  77.8663673  80.2611638  22.6977052  78.7295134  79.9048443  22.9080377
  77.2929084  79.9225533  23.3852457  97.7112050 101.8913494  13.5039453
  98.3490460 101.7720242  12.8002793  97.5932893 102.8394338  13.5627405
  94.5201756 101.8440922  13.4400978  94.1820268 101.7281987  12.5521513
  95.3891524 101.4432087  13.4201984  90.3788572 103.6976399   9.4297869
  89.8153437 103.6066336   8.6614157  90.2640967 102.8776303   9.9100361
  95.0021539 102.9975774  19.3987183  94.9910180 102.6028572  18.5267687
  95.1642179 102.2641847  19.9920955  87.9253004 105.1927590  12.2682089
  88.7174296 104.8518415  11.8528389  88.1649654 105.3022565  13.1884243
  89.8843758 104.4536504   5.1399468  90.6574634 103.9065491   5.0012344
  90.2369157 105.3180753   5.3513930  91.7228800 105.7812886  18.3466367
  91.4318666 106.6858517  18.2313034  92.3585785 105.8229414  19.0610437
  92.6485007 103.1589734  14.9367727  93.2448579 102.9345757  14.2224690
  92.7059979 102.4174480  15.5393175  92.2210036 100.6129170   2.7717918
  92.4735556 100.0910691   2.0101381  91.2834595 100.4495315   2.8744602
  97.2653318  99.6164948  10.5792661  98.0516408  99.1984371  10.2283078
  97.5292023 100.5211040  10.7474310 102.6661745  99.5540181  11.4825640
 103.3986917  98.9839398  11.7163469 101.9101101  99.1661782  11.9232145
  91.9406324 102.5157276   4.9742293  91.8242582 101.8402179   5.6423377
  92.0508584 102.0289650   4.1574446  94.2837865 101.9767423   8.6788982
  93.9196072 101.4498044   9.3901904  95.1404981 101.5865892   8.5055468
 100.1887166  93.2661755  15.9420248  99.8570491  94.1357166  15.7181463
  99.5932779  92.9498039  16.6214279  93.9243352  97.0057322   3.6750331
  94.0917755  97.8737559   4.0420802  93.7340521  97.1684604   2.7511620
  96.6818685 105.4674301  15.3416161  96.3819408 106.3699340  15.2331968
  96.3369745 105.2006485  16.1937314  90.1331167 101.9188098  11.3752866
  89.2081663 101.7864312  11.5830557  90.3815580 102.6982317  11.8722808
 100.0815829  97.9856842  13.0213598  99.1732706  97.9172250  12.7272359
 100.0303425  98.4628787  13.8495424  93.9032573  99.4614980   4.6596998
  93.7832198  99.9072031   5.4982478  93.2085161  99.8100298   4.1010536
  87.4939978 101.5621372  12.2096655  87.6232359 101.8155851  13.1236066
  86.8137429 102.1549080  11.8901310  91.6639465 112.2318622   8.3087129
  91.5863495 113.1826447   8.3875609  91.0601109 111.8864494   8.9662055
  94.1556695  99.4046487  20.9648496  93.3790029  99.9640407  20.9551360
  94.7947258  99.8903270  21.4863366 101.9477476  96.1873280  14.7991472
 101.3051856  96.4805813  14.1531267 101.4432404  96.0726200  15.6044669
  99.6017639  99.9336453   5.4877332 100.5135495 100.1663840   5.3125029
  99.0927286 100.5173497   4.9252410  92.4103067 102.2131941  20.5266463
  93.1517752 102.7516985  20.2501286  91.7040053 102.8398229  20.6838015
  97.8858407 104.3561081  19.1238624  98.2941763 103.9143492  18.3793257
  97.1635668 103.7813709  19.3772817  94.2389477  99.2933688  16.4972181
  95.0850672  99.7173101  16.6406830  94.1788115  98.6367312  17.1910744
  98.2087222 104.9162272  12.8790913  97.5796084 105.0807986  12.1766981
  97.8212884 105.3303881  13.6501877 102.0876453 105.8516709  10.2335277
 101.4027492 106.2315611   9.6832310 102.1720303 106.4612036  10.9667225
  97.3888922  96.9538056  18.1553355  97.1449854  97.7080117  17.6187630
  97.6648853  97.3323404  18.9900602  99.3427385 103.4976669  16.8330620
  99.5544280 104.1408428  16.1565001  99.2957133 102.6638985  16.3652550
  96.9453614  96.1094489  13.7367193  96.0838093  96.4075743  14.0283930
  96.9716049  96.3264888  12.8048225  93.7615183 104.6536680  10.1440998
  94.2253529 104.9324383   9.3545621  93.4971981 103.7520124   9.9614089
  90.6539264 104.2008161  13.0820761  91.2240622 104.6295430  12.4438246
  91.2447376 103.9190746  13.7804947  92.6984069 100.7759832   6.9530563
  93.4008113 101.2280876   7.4204490  92.3664698 100.1343651   7.5810456
  91.1464431  99.3671589  21.3281773  90.5163092 100.0487870  21.5617170
  91.0400519  99.2554670  20.3834911  86.4409403  99.0343385  12.2547697
  85.6508457  99.2900913  11.7787808  86.9320651  99.8491723  12.3599737
 100.4573213 106.3748624  15.0052978 101.2790657 105.9728811  14.7235659
 100.4535616 106.2716858  15.9569094  88.3924149  99.3987964   9.2131174
  87.5955312  99.5106658   9.7314669  88.1649741  99.7374616   8.3472064
  94.2229816 105.9232667  17.1613688  94.2874249 106.3853074  17.9971860
  93.5140740 105.2930032  17.2895998  84.7247106  99.2873875  14.6862688
  84.9755145 100.1720885  14.9520264  85.2606655  99.1078477  13.9137780
 108.5479206 102.7187372  11.3537949 107.7942914 102.1494770  11.1981954
 108.6826747 102.6850037  12.3008584  93.9377834 107.5900775   7.0292669
  93.8023509 108.4352310   7.4577516  94.4787647 107.7920052   6.2658602
  90.4245174  93.6692355  23.6907024  90.0312119  93.1158553  24.3654668
  91.2411314  93.9802933  24.0813541  87.3907231 105.1076213   7.6020594
  87.9031752 105.9019463   7.7526158  88.0429944 104.4102503   7.5354195
  89.2002116 108.2241969   9.6843347  89.3768744 109.1459934   9.4964331
  89.9958950 107.9100388  10.1137727  93.3413135  95.0850234  21.2827280
  94.0822848  95.6857387  21.2031743  93.5731058  94.3427871  20.7245323
  88.4854473 100.2706601  19.5605510  88.3707988  99.3691858  19.8612609
  87.6298990 100.5170298  19.2090327  95.5646310 108.2124341  21.1593011
  95.1210165 107.4260720  20.8413915  96.2263524 108.4003492  20.4936901
  90.3233432 109.7420143  15.6853689  90.8740857 109.6137206  14.9130683
  89.4844908 110.0415032  15.3348582  97.6627549 108.4927141  19.1874412
  97.6446024 109.3136022  18.6954681  98.5847469 108.3681216  19.4124553
  94.1200603 106.0071271  20.0297920  94.6528939 105.2459559  19.7997228
  93.5914684 105.7144922  20.7722075  97.2870298  91.1131337  15.5591562
  96.9434567  92.0032978  15.4830673  97.6549260  90.9232994  14.6961147
  85.3556148 103.4364867   8.3780164  86.1931370 103.8461875   8.1613872
  85.5334416 102.4964309   8.3480358  97.2520580 101.1039948   4.0663997
  96.7367204 101.8744552   4.3052385  96.9797889 100.4305084   4.6897059
  94.8367691  95.9489648   9.1249236  93.9809288  95.5596499   8.9454874
  95.2494643  96.0281609   8.2649021  96.3666838  93.4835992  13.5240795
  95.8631634  93.4466127  12.7108601  96.6597445  94.3928734  13.5837452
  92.6109724  93.5674721  12.5306977  93.4762721  93.3717530  12.1712866
  92.6787233  93.3385073  13.4576334  97.0406884  98.9767040   5.8923778
  96.7357019  99.2913189   6.7433922  97.9937326  99.0548460   5.9351111
  95.4853315 105.1357263   7.5416732  94.9574677 104.4010023   7.2289970
  94.9840818 105.9131939   7.2956701 100.4646161 103.3306284  12.6583779
  99.8069836 104.0205545  12.7463907 101.2686561 103.7202716  13.0017765
  90.2172043  95.7976929   9.9023344  90.7915795  95.5752111   9.1696537
  90.8043025  95.8665624  10.6551945  99.2751620 101.6850656  10.7087720
  99.7883502 102.3180648  11.2109430  99.9252844 101.0851852  10.3431080
  90.5441630  97.8281390   3.9219229  89.7078942  98.1656077   4.2428504
  90.4046400  97.6930370   2.9846366  92.5194711  92.6718178   8.6298413
  91.8659123  92.3567195   8.0055028  92.4775185  92.0493919   9.3558236
  95.7532451  99.1600112  12.9546061  94.8355012  99.3815059  12.7967749
  96.1692595  99.2346422  12.0957768  96.5367499 100.5591528   8.0848741
  97.2839318 101.0712925   7.7755863  96.8059088 100.2375580   8.9453135
  94.8094149 103.0550068   5.0675695  93.9005368 102.7709101   5.1648165
  94.8389233 103.4749147   4.2079002 100.0413416 106.6656658   8.8366863
  99.5875744 105.8247568   8.8932053  99.4107383 107.3018056   9.1741643
  98.9846336  97.5948644  10.0667530  98.2469093  97.0826030  10.3977773
  99.2373110  97.1549025   9.2550807  98.4846356 108.5033154   9.7716681
  98.7769330 109.0638212   9.0529047  98.9944976 108.7961715  10.5269840
  99.0857963  90.3724896  10.6609300  99.3916840  89.5122259  10.3735215
  99.8110568  90.9642516  10.4608294  85.3782319 100.7755582   9.0490898
  85.1806719 100.1824943   8.3241964  84.8228983 100.4707793   9.7666836
  93.3579043 100.6678689  11.1685491  93.4127653  99.7152525  11.0927967
  92.5470245 100.8238128  11.6526789  91.2971403  99.2855749   8.9275870
  90.4839268  99.5849919   9.3341062  91.7930397  98.8911437   9.6450352
  93.4479981 109.2813506  10.8610134  93.4056160 109.5074352   9.9318666
  94.3642680 109.0476880  11.0095935  96.8945615  99.7497573  17.7590764
  97.2495002  99.9769046  18.6185229  97.5417746 100.0815950  17.1368019
 102.6243352 102.8716009   8.4640093 102.4861250 103.0617605   7.5361282
 102.2679570 103.6335392   8.9208144  90.7885478  96.8574104  14.5437105
  91.4284857  96.7162863  13.8460068  89.9563008  96.5708617  14.1675707
 102.6512731 104.9392536  13.4751364 103.0849238 104.8467825  14.3234418
 103.3644312 104.9150036  12.8371380  91.5645782 106.1576535  10.6572097
  92.3586380 105.6626855  10.4554672  90.8537474 105.6294398  10.2939803
  96.3840626 108.5394630  15.0084465  96.4377648 109.1085566  15.7762181
  95.5155407 108.7096515  14.6438502  87.8728545 100.3019616   6.7331850
  86.9426133 100.2404072   6.9501812  87.9686017  99.7795569   5.9368491
  87.7914094  96.8274429   9.3210091  88.0520911  97.7419762   9.2119252
  88.6131266  96.3598872   9.4706704  89.2639019  98.2412186  16.4908916
  89.9362073  98.0329548  15.8421565  88.4368806  98.0434272  16.0514148
 103.5128281 104.9816237  16.0084249 103.7064171 105.8862047  16.2543524
 103.4128899 104.5223656  16.8422834  95.1664591  94.8674127  18.5074577
  94.5192507  95.5664077  18.4139053  95.9365607  95.3010271  18.8750825
  98.5743389 105.1322979  21.5825130  98.4228896 104.9033531  20.6655214
  98.5648069 106.0893581  21.5956475  95.3428726 102.7054892  16.5671397
  96.2720786 102.8566052  16.3940364  94.9219756 102.7938913  15.7120043
  94.1417058 106.7305557  14.3369934  94.0028143 106.3624341  15.2095872
  93.3531654 107.2453196  14.1653892  95.6922273 106.1087159  11.7258772
  95.3572105 106.0687929  12.6216422  95.1926218 105.4431875  11.2529182
  89.6666517 101.5154789  17.2511353  89.5286315 100.7835028  17.8522892
  90.5771440 101.4263689  16.9695541  92.2948817 101.2274749  16.7395033
  93.0048436 100.5867941  16.6981651  92.2518126 101.4787643  17.6621214
 100.2835596 108.1642102  19.6601612 100.2248142 107.4801322  18.9932195
 100.6855114 108.9061092  19.2082238  91.0077751  98.2139966  18.5590672
  90.4715108  97.7630705  19.2112269  90.4194460  98.3485875  17.8161137
  89.3026295 114.9804016  12.4535331  89.5422893 115.6122540  13.1314349
  88.4595491 114.6292056  12.7400690  90.4180010  97.6728618   1.1217136
  89.5409477  97.5517419   0.7579383  90.8937763  96.8814696   0.8696025
 100.2853003 106.1281686  17.8915592  99.3979782 105.7907608  18.0141990
 100.8551554 105.3964717  18.1284357  81.9382150 102.4605778  11.2158643
  82.6253190 102.1467508  10.6279658  81.7830279 103.3647142  10.9425894
  86.7416873  97.3495974  15.6443667  86.6575061  96.7421644  14.9094077
  85.9199579  97.8404992  15.6453163  93.8154157 110.7883138  14.8576835
  93.7424328 111.5938110  15.3696139  93.3731550 110.9875104  14.0324856
  93.6043936 110.0254908   8.3679656  92.8211458 110.5676588   8.4617881
  94.3036682 110.5428888   8.7673898  96.9140586  95.8349538  11.0113862
  97.4109286  95.0819500  10.6914932  96.1427568  95.8713854  10.4457071
 104.7670344 101.5389903  12.6532153 104.7560220 102.4214619  12.2826086
 103.8987723 101.1861454  12.4586690  96.2752840 110.6869972  17.0134993
  96.9880812 111.3217437  16.9410895  95.7842869 110.7833838  16.1974995
  97.9970367 104.5921225   8.5852285  97.0626646 104.7122687   8.4156989
  98.1747036 103.6893692   8.3212295  93.4975555  97.9766921  10.7385546
  93.1273343  97.4237961  11.4266452  93.9934648  97.3725054  10.1860546
 101.3842919 100.4338544   9.1202319 101.8503371 101.2666536   9.0462622
 101.8350419  99.9683526   9.8247578  91.3264754 108.4364416  17.8340564
  92.0274213 109.0700899  17.9869959  90.8559869 108.7779147  17.0736204
  99.3559581  92.8019131  13.1593221  98.4422661  93.0323358  13.3275428
  99.7852683  92.8857575  14.0107253  99.1266040 100.9909023  15.6593115
  98.4737490 101.2384931  15.0045567  99.5046420 100.1773161  15.3255592
  96.0873214 111.0268716   9.7621285  96.2695608 110.2090372  10.2249037
  96.9106200 111.2436409   9.3246175  95.1753613 101.7328834  22.1459152
  94.4994250 101.6322964  22.8161527  95.9981247 101.5768048  22.6095149
  86.9232472 107.9700771  14.7671667  87.5085909 107.2244459  14.8999571
  86.7257310 108.2804727  15.6508331  89.7771127 111.0052018   9.7834109
  89.1081502 111.4898146   9.2998149  89.6383997 111.2521239  10.6977488
  81.5150127 100.5406371  13.4876110  81.5534226 100.0069962  14.2813228
  81.0090419 100.0141576  12.8687087  93.9176396 113.0395762  16.3816768
  94.4694704 113.2027383  17.1465853  94.2582589 113.6300199  15.7096793
  88.8940889  95.3870911  16.9838652  88.9582215  96.2485742  16.5716050
  88.8308009  94.7744913  16.2511011  88.3693161  97.4594044  20.6311687
  88.9965200  97.0771121  21.2449211  87.5121080  97.2408246  20.9967379
  98.7687270 107.8657019  22.2365422  99.3127174 108.4786977  21.7420377
  98.1874115 108.4236598  22.7532435  85.1458704  99.2670473   6.5630042
  85.4412145  98.3581152   6.5097095  84.2446740  99.2458213   6.2411044
  97.0544783 110.9877737  13.3680450  96.9295922 110.1867477  12.8591395
  97.7123874 111.4823931  12.8794420  88.6752951  97.3426470  12.5457590
  87.9539537  97.9562437  12.4065063  89.4646207  97.8784234  12.4674236
  99.1179691 108.7886757  14.9960000  98.1710027 108.6692108  14.9238327
  99.4662464 107.9009255  15.0786261  91.4779265  94.6780896  18.8198242
  92.0013666  94.9243193  19.5824551  91.2591598  95.5100931  18.4001379
  86.8746546  96.9484571   6.6869367  86.5459252  96.0681950   6.5044473
  87.2285916  96.8932239   7.5745756  96.1226125 108.5839473  11.1964352
  95.9751087 107.6556181  11.3771922  96.9479618 108.6059564  10.7121427
  89.9888369  97.2357541   7.0544844  90.3284441  97.7643462   6.3323453
  90.4360489  97.5737947   7.8303411  99.7260246 109.4068032  12.2829225
 100.6506794 109.2010894  12.1453676  99.5575550 109.1584433  13.1918566
  92.6831810  95.6194591  16.5047912  92.3428630  94.8202404  16.9068592
  91.9770816  95.9196302  15.9324746  93.3348282  92.7043904  14.9575235
  94.1574351  92.2304382  14.8354126  93.5786345  93.4834387  15.4573922
  91.9756516  95.7332162   5.2538137  92.6964879  96.1113415   4.7501854
  91.3521820  96.4521039   5.3573115  96.1187639  96.4377311   6.1896469
  96.3351253  97.3201949   5.8885298  95.6381706  96.0463525   5.4602111
  90.8586860  99.3963024  12.7667214  90.7131441  99.7103327  13.6591496
  90.3812064 100.0147925  12.2138113  92.7183243  96.3865572  12.8148104
  92.7044812  95.4906666  12.4780402  93.4355671  96.3936236  13.4486390
  94.5709374  96.8202913  14.8601231  94.3127152  97.7419983  14.8585561
  94.0394414  96.4233347  15.5501695  85.3332522 101.9368369  15.7054875
  84.7885991 102.7128177  15.8375150  86.2111872 102.2839173  15.5473997
  92.1220139  95.2679953   8.0835674  92.2436050  94.3396599   8.2826561
  91.8322181  95.2818639   7.1713989  94.9911330  92.9534863  11.2202394
  95.0133026  93.0174196  10.2654373  95.4079389  92.1139372  11.4142900
 105.3694954 102.6890123   9.2581616 105.8126100 101.9397448   8.8600739
 104.4921464 102.6800259   8.8755348  86.1198544 101.0638265  18.5985032
  85.3780280 101.2120900  19.1849663  85.7991289 101.3246531  17.7351781
  94.0642207 110.6054243  18.3965422  94.3729333 110.3603390  19.2688122
  94.8617689 110.8100882  17.9084292  94.0862819 112.7592153  10.6270799
  93.6467809 112.2668532  11.3203655  94.8370936 112.2165121  10.3862874
  86.5655158 108.9503694  10.6295427  87.3913178 108.6507466  10.2494070
  86.2149210 108.1811316  11.0785215  91.5336691 108.3030162  12.6993100
  90.9116700 107.6400867  12.3995328  92.2041558 108.3291294  12.0166748
  84.7663763 106.8690020  11.5884360  83.9295671 106.4412195  11.4068362
  84.7387408 107.0622464  12.5255152  91.6061219  96.7811950  22.2925606
  91.6549374  97.6574073  21.9103376  92.1483733  96.2389343  21.7197250
 102.0916064 107.3253073  21.5726743 101.3011608 107.3077212  21.0331243
 101.8549419 107.8641367  22.3275780 102.2113939 104.1745540  18.8859472
 102.2611944 104.0095547  19.8274995 102.1027863 103.3072799  18.4957353
  91.0950198 106.8534085   6.1751561  91.2438318 107.5369550   5.5218234
  91.9016642 106.8339175   6.6901017  99.5017702 100.1576468  20.2018779
 100.4027565 100.0182932  19.9102776  99.5765676 100.3230922  21.1416956
  93.8360507  97.5343322  19.0471965  92.9663817  97.8276888  18.7754554
  94.0719987  98.1183767  19.7679229 103.7132136 106.5942481  19.1301493
 103.4216945 106.9572462  19.9664954 103.1004268 105.8809489  18.9514826
 104.9127819 104.1595361  11.6504064 105.7474710 104.5985165  11.8141624
 105.0486947 103.6834014  10.8312309 101.9619324 101.7175096  17.5981551
 102.4373446 101.9102742  16.7900403 101.0384890 101.7734282  17.3524935
  88.8502831 102.8799263   7.1812630  88.6048873 101.9761593   7.3792840
  89.0198746 102.8816413   6.2392108  96.5399541  93.7522939  16.5637385
  97.0581485  94.4883966  16.2383874  96.1854674  94.0586933  17.3984144
  88.1198479  98.6127621   4.6798791  87.4267724  98.6871975   4.0238827
  87.8750230  97.8487964   5.2020308  96.7912135  90.1723222  12.0838282
  97.0713889  89.5046411  12.7098709  97.5762742  90.3652317  11.5712946
 100.6620993  98.5940856  15.8309857 101.6138416  98.6938954  15.8522081
 100.4924444  97.8019124  16.3407941  98.6835373  95.6796439  16.0169258
  98.0885305  95.9601452  15.3215747  98.3985070  96.1690340  16.7885999
 103.1409071 101.8146976  14.9452157 103.1085391 100.8762976  15.1311841
 103.7509695 101.8931012  14.2117982 103.2903560  98.6058019  14.9910440
 102.7742608  97.8216476  14.8040369 104.1743508  98.2776736  15.1556959
 100.9514287  92.3499035  10.9506253 100.7539108  92.0414123  11.8349585
 101.5613992  93.0760673  11.0804182 108.9585621 102.8762982  14.0858194
 109.6889010 102.6148270  14.6465897 108.3492567 102.1391704  14.1260262
 107.0400918 101.0170845  14.6832645 106.3134082 100.8826810  14.0749136
 106.6248205 101.3247674  15.4889363  94.8631095 104.7360775  22.4480018
  95.7834104 104.9139374  22.6420064  94.8280678 103.7916820  22.2959717
  93.1635319  98.6093005   0.9234246  92.2566775  98.3126118   0.9996960
  93.4411300  98.3122823   0.0568532  84.0813260  99.9299368  11.3733292
  83.7616044  99.0764676  11.0807666  83.5346688 100.1447946  12.1291260
  87.8593167 102.6461809  15.0902799  88.0779177 103.5778917  15.1090833
  88.2718941 102.2869784  15.8757603  94.7797385  93.1529895   7.0778487
  93.9698113  92.8076980   7.4533733  95.4681802  92.8437438   7.6666099
  96.7087933  92.2307941   8.7002784  97.2618972  92.6503395   9.3592807
  96.9458020  91.3043690   8.7425740  92.7321033  98.2195015  24.4805548
  92.6317759  99.1689372  24.4117639  92.5142575  97.8913254  23.6081618
  91.9334104  95.4679940   1.0646225  92.7953268  95.7934838   1.3242043
  92.1184448  94.6811436   0.5519291  83.9501520 103.5502280  13.3426414
  83.2564991 103.1356233  12.8296368  84.6974511 103.5922816  12.7459833
 100.0866740  94.3408467   8.2081448  99.5065409  94.9993271   7.8259501
  99.8202673  93.5185811   7.7968866  98.5370307  93.7413524  10.4102769
  99.0370085  93.8530059   9.6017087  99.1805915  93.4374577  11.0503577
  92.5952303 101.6492154  23.2970609  92.1119384 102.4492514  23.5034499
  92.6813242 101.6600099  22.3438053  85.8638262 103.4820534  11.2192429
  85.8408950 103.5808221  10.2674312  86.1738899 104.3285684  11.5409595
  88.5225640 105.5396689  15.3339043  89.4768894 105.5080631  15.2668975
  88.3238164 105.0787312  16.1489269  89.1125022 104.1097805  17.9009841
  89.9317911 104.6041883  17.9244678  89.3861830 103.1929773  17.8727408
  98.8691618  96.5008557   7.2637796  97.9817473  96.7858208   7.0457991
  99.2845607  96.3402320   6.4165073 102.2206155  96.5255078  10.9792136
 102.9966545  97.0151530  11.2516753 101.4954289  96.9513132  11.4364005
 104.6578713  97.2382697  12.0366076 105.2523204  96.9978433  11.3259385
 104.7305297  96.5189828  12.6639613  86.8775869 111.0816308  12.3509241
  86.7430337 110.3216709  11.7847239  86.4607931 111.8057208  11.8838030
  98.8432642 102.0163093   7.4788087  98.7867844 102.4731644   6.6395719
  99.3960985 101.2553777   7.3010929 102.6537448  97.8052825   8.3038206
 102.3974382  97.4049460   9.1346414 102.0290316  98.5196619   8.1788345
 106.9649786 100.5448898  10.8109498 106.4049344 100.6142087  11.5841060
 106.3593289 100.3689883  10.0908994  90.0344995 111.9785625  12.5627684
  89.9177379 112.9231058  12.4606374  89.2137441 111.6759187  12.9513483
  84.3659936  98.4435939  18.6002038  85.0118800  97.9334892  19.0889263
  84.1577088  99.1804620  19.1745463  96.8913329 105.5116786  24.0994179
  97.7604488 105.6857438  23.7380813  96.4120080 106.3311203  23.9769908
  92.8863547  92.7075983   4.3525934  92.8742217  93.6517823   4.5094205
  93.7786969  92.5246129   4.0585395  91.0599509 112.6313887  15.7783612
  91.9626756 112.6637497  16.0950107  90.8336879 111.7014338  15.7929948
  92.8153111 111.3844874  12.4393691  91.8648742 111.3846735  12.3258063
  93.1185597 110.6377608  11.9229725  96.7015666  89.3018760   8.6071871
  95.9348062  88.7477246   8.7528553  97.1126371  89.3740629   9.4686023
  88.7057427  95.5903556  22.6977052  89.5688889  95.2340360  22.9080377
  88.1322838  95.2517450  23.3852457 105.8415294 118.3267692  19.3987183
 105.8303934 117.9320490  18.5267687 106.0035933 117.5933764  19.9920955
 102.5622555 121.1104804  18.3466367 102.2712421 122.0150434  18.2313034
 103.1979539 121.1521331  19.0610437 111.0280920 108.5953673  15.9420248
 110.6964245 109.4649084  15.7181463 110.4326534 108.2789957  16.6214279
 104.9950449 114.7338405  20.9648496 104.2183783 115.2932325  20.9551360
 105.6341012 115.2195188  21.4863366 103.2496822 117.5423858  20.5266463
 103.9911506 118.0808902  20.2501286 102.5433807 118.1690147  20.6838015
 105.0783231 114.6225605  16.4972181 105.9244427 115.0465019  16.6406830
 105.0181869 113.9659230  17.1910744 108.2282677 112.2829974  18.1553355
 107.9843609 113.0372034  17.6187630 108.5042607 112.6615321  18.9900602
 101.9858185 114.6963506  21.3281773 101.3556846 115.3779787  21.5617170
 101.8794273 114.5846588  20.3834911  97.2803158 114.3635302  12.2547697
  96.4902212 114.6192831  11.7787808  97.7714405 115.1783640  12.3599737
  95.5640861 114.6165793  14.6862688  95.8148899 115.5012803  14.9520264
  96.1000409 114.4370394  13.9137780 101.2638928 108.9984272  23.6907024
 100.8705874 108.4450471  24.3654668 102.0805069 109.3094851  24.0813541
 104.1806889 110.4142151  21.2827280 104.9216603 111.0149304  21.2031743
 104.4124812 109.6719789  20.7245323  99.3248227 115.5998519  19.5605510
  99.2101742 114.6983776  19.8612609  98.4692745 115.8462215  19.2090327
 106.4040065 123.5416259  21.1593011 105.9603919 122.7552637  20.8413915
 107.0657279 123.7295409  20.4936901 104.9594357 121.3363188  20.0297920
 105.4922694 120.5751476  19.7997228 104.4308438 121.0436840  20.7722075
 108.1264052 106.4423254  15.5591562 107.7828322 107.3324896  15.4830673
 108.4943015 106.2524912  14.6961147 107.2060593 108.8127909  13.5240795
 106.7025388 108.7758045  12.7108601 107.4991199 109.7220652  13.5837452
 103.4503478 108.8966639  12.5306977 104.3156475 108.7009448  12.1712866
 103.5180987 108.6676991  13.4576334 107.7339369 115.0789491  17.7590764
 108.0888757 115.3060964  18.6185229 108.3811500 115.4107868  17.1368019
 101.6279232 112.1866022  14.5437105 102.2678612 112.0454781  13.8460068
 100.7956763 111.9000535  14.1675707 100.1032774 113.5704104  16.4908916
 100.7755827 113.3621466  15.8421565  99.2762560 113.3726190  16.0514148
 106.0058346 110.1966045  18.5074577 105.3586261 110.8955995  18.4139053
 106.7759361 110.6302189  18.8750825 109.4137144 120.4614897  21.5825130
 109.2622650 120.2325449  20.6655214 109.4041823 121.4185498  21.5956475
 100.5060271 116.8446707  17.2511353 100.3680069 116.1126946  17.8522892
 101.4165195 116.7555607  16.9695541 103.1342572 116.5566666  16.7395033
 103.8442190 115.9159858  16.6981651 103.0911880 116.8079561  17.6621214
 101.8471506 113.5431884  18.5590672 101.3108863 113.0922623  19.2112269
 101.2588214 113.6777793  17.8161137  97.5810627 112.6787892  15.6443667
  97.4968816 112.0713561  14.9094077  96.7593333 113.1696910  15.6453163
 110.1953336 108.1311049  13.1593221 109.2816416 108.3615276  13.3275428
 110.6246437 108.2149493  14.0107253 106.0147367 117.0620752  22.1459152
 105.3388004 116.9614881  22.8161527 106.8375001 116.9059966  22.6095149
  92.3543881 115.8698289  13.4876110  92.3927981 115.3361879  14.2813228
  91.8484174 115.3433494  12.8687087  99.7334643 110.7162829  16.9838652
  99.7975970 111.5777660  16.5716050  99.6701764 110.1036831  16.2511011
  99.2086916 112.7885962  20.6311687  99.8358955 112.4063039  21.2449211
  98.3514835 112.5700164  20.9967379 109.6081024 123.1948937  22.2365422
 110.1520928 123.8078895  21.7420377 109.0267869 123.7528515  22.7532435
  99.5146706 112.6718387  12.5457590  98.7933291 113.2854355  12.4065063
 100.3039961 113.2076152  12.4674236 102.3173019 110.0072814  18.8198242
 102.8407421 110.2535110  19.5824551 102.0985352 110.8392849  18.4001379
 103.5225564 110.9486509  16.5047912 103.1822385 110.1494322  16.9068592
 102.8164570 111.2488220  15.9324746 104.1742036 108.0335821  14.9575235
 104.9968105 107.5596300  14.8354126 104.4180100 108.8126305  15.4573922
 103.5576998 111.7157490  12.8148104 103.5438566 110.8198583  12.4780402
 104.2749426 111.7228154  13.4486390 105.4103128 112.1494830  14.8601231
 105.1520906 113.0711901  14.8585561 104.8788169 111.7525265  15.5501695
  96.1726277 117.2660286  15.7054875  95.6279745 118.0420094  15.8375150
  97.0505627 117.6131091  15.5473997  96.9592299 116.3930183  18.5985032
  96.2174035 116.5412818  19.1849663  96.6385043 116.6538448  17.7351781
 102.4454973 112.1103868  22.2925606 102.4943129 112.9865990  21.9103376
 102.9877487 111.5681261  21.7197250 110.3411456 115.4868385  20.2018779
 111.2421319 115.3474850  19.9102776 110.4159431 115.6522840  21.1416956
 104.6754262 112.8635240  19.0471965 103.8057571 113.1568806  18.7754554
 104.9113742 113.4475685  19.7679229 107.3793295 109.0814857  16.5637385
 107.8975239 109.8175884  16.2383874 107.0248428 109.3878850  17.3984144
 107.6305890 105.5015140  12.0838282 107.9107643 104.8338329  12.7098709
 108.4156497 105.6944235  11.5712946 109.5229127 111.0088357  16.0169258
 108.9279060 111.2893369  15.3215747 109.2378824 111.4982258  16.7885999
 105.7024849 120.0652692  22.4480018 106.6227859 120.2431291  22.6420064
 105.6674432 119.1208738  22.2959717  94.9207014 115.2591286  11.3733292
  94.6009798 114.4056594  11.0807666  94.3740442 115.4739864  12.1291260
  98.6986922 117.9753727  15.0902799  98.9172931 118.9070835  15.1090833
  99.1112696 117.6161701  15.8757603 103.5714787 113.5486933  24.4805548
 103.4711514 114.4981290  24.4117639 103.3536329 113.2205172  23.6081618
  94.7895274 118.8794197  13.3426414  94.0958746 118.4648150  12.8296368
  95.5368265 118.9214734  12.7459833 103.4346057 116.9784072  23.2970609
 102.9513139 117.7784432  23.5034499 103.5206996 116.9892016  22.3438053
  99.9518777 119.4389722  17.9009841 100.7711666 119.9333801  17.9244678
 100.2255584 118.5221690  17.8727408  95.2053691 113.7727856  18.6002038
  95.8512555 113.2626810  19.0889263  94.9970842 114.5096538  19.1745463
 107.7307083 120.8408704  24.0994179 108.5998243 121.0149356  23.7380813
 107.2513835 121.6603120  23.9769908  99.5451182 110.9195473  22.6977052
 100.4082643 110.5632278  22.9080377  98.9716593 110.5809368  23.3852457
 112.1032683 124.3276190  23.6907024 111.7099628 123.7742388  24.3654668
 112.9198823 124.6386768  24.0813541  73.3234031  49.3454061   6.1232490
  73.3122672  48.9506860   5.2512994  73.4854671  48.6120134   6.7166262
  70.0441293  52.1291173   5.0711674  69.7531159  53.0336804   4.9558340
  70.6798277  52.1707701   5.7855744  75.0031178  51.8152589   2.0661468
  74.7031901  52.7177627   1.9577275  74.6582237  51.5484772   2.9182621
  72.4769187  45.7524774   7.6893802  71.7002521  46.3118695   7.6796667
  73.1159750  46.2381557   8.2108672  70.7315560  48.5610228   7.2511769
  71.4730244  49.0995272   6.9746593  70.0252545  49.1876517   7.4083321
  76.2070899  50.7039368   5.8483931  76.6154255  50.2621779   5.1038563
  75.4848161  50.1291996   6.1018124  75.7101415  43.3016343   4.8798661
  75.4662346  44.0558404   4.3432937  75.9861345  43.6801691   5.7145909
  77.6639877  49.8454956   3.5575927  77.8756773  50.4886716   2.8810308
  77.6169626  49.0117272   3.0897857  69.4676923  45.7149876   8.0527079
  68.8375584  46.3966157   8.2862476  69.3613011  45.6032958   7.1080218
  78.7785705  52.7226911   1.7298284  79.6003149  52.3207098   1.4480966
  78.7748108  52.6195145   2.6814400  72.5442309  52.2710954   3.8858995
  72.6086741  52.7331362   4.7217167  71.8353233  51.6408319   4.0141305
  86.8691698  49.0665660  -1.9216744  86.1155407  48.4973058  -2.0772740
  87.0039240  49.0328324  -0.9746109  68.7457666  40.0170642  10.4152330
  68.3524612  39.4636840  11.0899975  69.5623806  40.3281220  10.8058848
  73.8858803  54.5602628   7.8838317  73.4422657  53.7739007   7.5659222
  74.5476016  54.7481779   7.2182208  68.6445924  56.0898430   2.4098996
  69.1953349  55.9615493   1.6375990  67.8057400  56.3893319   2.0593889
  75.9840041  54.8405428   5.9119719  75.9658516  55.6614309   5.4199988
  76.9059961  54.7159504   6.1369860  72.4413095  52.3549558   6.7543227
  72.9741432  51.5937846   6.5242535  71.9127176  52.0623210   7.4967381
  75.2158107  46.0975860   4.4836070  75.5707495  46.3247333   5.3430536
  75.8630238  46.4294237   3.8613325  80.9725223  51.2870823   0.1996671
  81.4061730  51.1946112   1.0479725  81.6856804  51.2628324  -0.4383313
  74.7053118  54.8872917   1.7329771  74.7590141  55.4563854   2.5007487
  73.8367900  55.0574802   1.3683808  81.8340773  51.3294524   2.7329556
  82.0276663  52.2340334   2.9788831  81.7341391  50.8701943   3.5668141
  76.8955882  51.4801267   8.3070437  76.7441388  51.2511818   7.3900520
  76.8860561  52.4371868   8.3201782  73.6641218  49.0533179   3.2916703
  74.5933278  49.2044339   3.1185670  73.2432248  49.1417200   2.4365350
  72.4629550  53.0783844   1.0615241  72.3240636  52.7102628   1.9341179
  71.6744146  53.5931483   0.8899199  78.6048088  54.5120389   6.3846919
  78.5460635  53.8279609   5.7177502  79.0067607  55.2539379   5.9327545
  67.6238787  61.3282303  -0.8219363  67.8635385  61.9600827  -0.1440344
  66.7807984  60.9770343  -0.5354003  78.6065496  52.4759973   4.6160898
  77.7192274  52.1385895   4.7387297  79.1764047  51.7443004   4.8529664
  72.1366649  57.1361425   1.5822141  72.0636820  57.9416397   2.0941446
  71.6944042  57.3353391   0.7570163  74.5965333  57.0348259   3.7380300
  75.3093305  57.6695724   3.6656202  74.1055361  57.1312125   2.9220302
  69.6477246  54.7842703   4.5585871  70.3486706  55.4179186   4.7115265
  69.1772361  55.1257434   3.7981510  77.4478532  47.3387310   2.3838421
  76.7949982  47.5863218   1.7290874  77.8258912  46.5251449   2.0500899
  73.4966105  48.0807121   8.8704458  72.8206742  47.9801251   9.5406834
  74.3193739  47.9246335   9.3340456  72.2388888  59.3874049   3.1062074
  72.7907196  59.5505670   3.8711160  72.5795081  59.9778487   2.4342099
  77.0899762  54.2135306   8.9610729  77.6339666  54.8265265   8.4665684
  76.5086607  54.7714885   9.4777742  75.3757275  57.3356024   0.0925757
  75.2508415  56.5345764  -0.4163298  76.0336366  57.8302218  -0.3960273
  77.4392184  55.1365045   1.7205307  76.4922519  55.0170396   1.6483633
  77.7874957  54.2487543   1.8031568  78.0472739  55.7546319  -0.9925468
  78.9719286  55.5489181  -1.1301017  77.8788042  55.5062721  -0.0836127
  72.3854699  56.9532530   5.1210729  72.6941826  56.7081677   5.9933428
  73.1830181  57.1579169   4.6329599  72.4075311  59.1070440  -2.6483895
  71.9680302  58.6146819  -1.9551038  73.1583428  58.5643408  -2.8891819
  69.9273711  43.1290237   9.0170913  69.9761866  44.0052360   8.6348683
  70.4696225  42.5867630   8.4442556  80.4128557  53.6731360   8.2972050
  79.6224100  53.6555499   7.7576549  80.1761911  54.2119654   9.0521087
  80.5326432  50.5223827   5.6104779  80.5824437  50.3573834   6.5520301
  80.4240355  49.6551086   5.2202659  77.8230194  46.5054755   6.9264085
  78.7240057  46.3661220   6.6348083  77.8978169  46.6709210   7.8662263
  82.0344629  52.9420768   5.8546800  81.7429437  53.3050749   6.6910261
  81.4216760  52.2287777   5.6760132  83.2340311  50.5073648  -1.6250630
  84.0687202  50.9463452  -1.4613069  83.3699440  50.0312301  -2.4442384
  80.2831817  48.0653383   4.3226858  80.7585938  48.2581029   3.5145710
  79.3597382  48.1212569   4.0770242  78.9833486  44.9419143   2.5555164
  79.9350909  45.0417241   2.5767388  78.8136936  44.1497412   3.0653248
  81.4621564  48.1625263   1.6697463  81.4297884  47.2241263   1.8557147
  82.0722187  48.2409299   0.9363288  87.2798113  49.2241270   0.8103500
  88.0101502  48.9626558   1.3711204  86.6705059  48.4869992   0.8505568
  85.3613411  47.3649132   1.4077951  84.6346574  47.2305097   0.7994443
  84.9460697  47.6725961   2.2134669  73.1843587  51.0839062   9.1725324
  74.1046596  51.2617661   9.3665371  73.1493170  50.1395107   9.0205024
  71.0533525  44.5673302  11.2050854  70.9530252  45.5167659  11.1362946
  70.8355067  44.2391541  10.3326925  70.9164795  47.9970441  10.0215916
  70.4331877  48.7970801  10.2279805  71.0025734  48.0078386   9.0683360
  67.4337514  50.4576092   4.6255148  68.2530403  50.9520171   4.6489985
  67.7074322  49.5408060   4.5972715  68.3557487  58.3263912  -0.7127010
  68.2389871  59.2709345  -0.8148319  67.5349933  58.0237474  -0.3241210
  75.2125821  51.8595073  10.8239485  76.0816981  52.0335726  10.4626120
  74.7332572  52.6789490  10.7015215  69.3812001  58.9792174   2.5028919
  70.2839248  59.0115785   2.8195414  69.1549371  58.0492625   2.5175255
  71.1365603  57.7323161  -0.8361003  70.1861234  57.7325022  -0.9496630
  71.4398089  56.9855895  -1.3524968  67.0269920  41.9381843   9.4222359
  67.8901381  41.5818648   9.6325683  66.4535330  41.5995738  10.1097763
  86.8718297  63.5683699   0.2284760  87.5096707  63.4490447  -0.4751900
  86.7539140  64.5164543   0.2872712  83.6808003  63.5211127   0.1646285
  83.3426514  63.4052192  -0.7233181  84.5497771  63.1202292   0.1447291
  79.5394819  65.3746604  -3.8456824  78.9759684  65.2836541  -4.6140537
  79.4247214  64.5546508  -3.3654332  84.1627786  64.6745979   6.1232490
  84.1516427  64.2798777   5.2512994  84.3248425  63.9412052   6.7166262
  77.0859251  66.8697795  -1.0072604  77.8780542  66.5288620  -1.4226305
  77.3255901  66.9792770  -0.0870451  85.1194377  69.0417571  -8.5342360
  84.4682357  69.6271652  -8.9208346  85.9138740  69.5723766  -8.4747322
  79.0450004  66.1306709  -8.1355225  79.8180880  65.5835696  -8.2742349
  79.3975403  66.9950958  -7.9240764  80.8835047  67.4583091   5.0711674
  80.5924913  68.3628722   4.9558340  81.5192031  67.4999618   5.7855744
  81.8091254  64.8359939   1.6613034  82.4054826  64.6115962   0.9469997
  81.8666225  64.0944685   2.2638482  86.4259565  61.2935153  -2.6962032
  87.2122654  60.8754576  -3.0471615  86.6898269  62.1981245  -2.5280384
  86.5969642  66.7308003  -7.9973375  85.9615475  66.8042630  -7.2852471
  86.2667049  67.3201602  -8.6754296  91.8267992  61.2310386  -1.7929054
  92.5593164  60.6609603  -1.5591224  91.0707348  60.8431987  -1.3522548
  81.1012571  64.1927481  -8.3012400  80.9848829  63.5172384  -7.6331316
  81.2114831  63.7059855  -9.1180247  83.4444112  63.6537628  -4.5965711
  83.0802319  63.1268249  -3.8852790  84.3011228  63.2636097  -4.7699226
  89.3493413  54.9431960   2.6665555  89.0176737  55.8127371   2.4426770
  88.7539026  54.6268244   3.3459585  85.8424932  67.1444506   2.0661468
  85.5425655  68.0469545   1.9577275  85.4975992  66.8776690   2.9182621
  79.2937414  63.5958303  -1.9001828  78.3687910  63.4634517  -1.6924136
  79.5421827  64.3752522  -1.4031885  89.2422076  59.6627047  -0.2541095
  88.3338953  59.5942455  -0.5482334  89.1909672  60.1398991   0.5740731
  76.6546225  63.2391577  -1.0658039  76.7838606  63.4926056  -0.1518627
  75.9743676  63.8319285  -1.3853384  80.8245712  73.9088827  -4.9667565
  80.7469742  74.8596652  -4.8879084  80.2207356  73.5634699  -4.3092638
  83.3162942  61.0816692   7.6893802  82.5396276  61.6410612   7.6796667
  83.9553505  61.5673475   8.2108672  91.1083722  57.8643485   1.5236779
  90.4658103  58.1576018   0.8776574  90.6038651  57.7496405   2.3289976
  88.7623886  61.6106658  -7.7877362  89.6741742  61.8434045  -7.9629664
  88.2533533  62.1943702  -8.3502283  81.5709314  63.8902145   7.2511769
  82.3123998  64.4287189   6.9746593  80.8646299  64.5168434   7.4083321
  87.0464654  66.0331286   5.8483931  87.4548010  65.5913696   5.1038563
  86.3241915  65.4583913   6.1018124  83.3995724  60.9703893   3.2217488
  84.2456919  61.3943306   3.3652137  83.3394361  60.3137517   3.9156051
  87.3693468  66.5932477  -0.3963780  86.7402331  66.7578191  -1.0987712
  86.9819130  67.0074086   0.3747184  91.2482700  67.5286914  -3.0419416
  90.5633738  67.9085816  -3.5922383  91.3326549  68.1382241  -2.3087469
  86.5495169  58.6308261   4.8798661  86.3056101  59.3850322   4.3432937
  86.8255100  59.0093609   5.7145909  88.5033632  65.1746873   3.5575927
  88.7150527  65.8178633   2.8810308  88.4563380  64.3409190   3.0897857
  86.1059861  57.7864694   0.4612499  85.2444340  58.0845948   0.7529237
  86.1322295  58.0035093  -0.4706468  82.9221430  66.3306885  -3.1313695
  83.3859776  66.6094588  -3.9209073  82.6578228  65.4290329  -3.3140604
  79.8145511  65.8778366  -0.1933932  80.3846868  66.3065635  -0.8316447
  80.4053623  65.5960951   0.5050254  81.8590316  62.4530037  -6.3224130
  82.5614360  62.9051081  -5.8550204  81.5270945  61.8113856  -5.6944237
  80.3070678  61.0441794   8.0527079  79.6769338  61.7258074   8.2862476
  80.2006766  60.9324875   7.1080218  75.6015650  60.7113590  -1.0206996
  74.8114704  60.9671118  -1.4966886  76.0926898  61.5261928  -0.9154956
  89.6179460  68.0518829   1.7298284  90.4396903  67.6499016   1.4480966
  89.6141863  67.9487063   2.6814400  77.5530396  61.0758169  -4.0623520
  76.7561559  61.1876863  -3.5440024  77.3255988  61.4144821  -4.9282629
  83.3836063  67.6002872   3.8858995  83.4480496  68.0623279   4.7217167
  82.6746987  66.9700237   4.0141305  73.8853353  60.9644080   1.4107994
  74.1361392  61.8491090   1.6765570  74.4212902  60.7848682   0.6383086
  97.7085453  64.3957577  -1.9216744  96.9549161  63.8264975  -2.0772740
  97.8432994  64.3620242  -0.9746109  83.0984081  69.2670980  -6.2462025
  82.9629756  70.1122515  -5.8177177  83.6393893  69.4690257  -7.0096091
  79.5851420  55.3462559  10.4152330  79.1918366  54.7928758  11.0899975
  80.4017561  55.6573138  10.8058848  76.5513478  66.7846418  -5.6734100
  77.0637999  67.5789668  -5.5228535  77.2036191  66.0872708  -5.7400498
  78.3608363  69.9012174  -3.5911347  78.5374991  70.8230139  -3.7790363
  79.1565196  69.5870593  -3.1616967  82.5019381  56.7620439   8.0072587
  83.2429095  57.3627592   7.9277049  82.7337304  56.0198076   7.4490630
  77.6460719  61.9476806   6.2850817  77.5314235  61.0462063   6.5857916
  76.7905237  62.1940503   5.9335633  84.7252557  69.8894546   7.8838317
  84.2816411  69.1030925   7.5659222  85.3869771  70.0773697   7.2182208
  79.4839678  71.4190348   2.4098996  80.0347104  71.2907411   1.6375990
  78.6451154  71.7185237   2.0593889  86.8233795  70.1697346   5.9119719
  86.8052271  70.9906227   5.4199988  87.7453715  70.0451421   6.1369860
  83.2806849  67.6841476   6.7543227  83.8135186  66.9229764   6.5242535
  82.7520931  67.3915127   7.4967381  86.4476544  52.7901542   2.2836869
  86.1040814  53.6803183   2.2075979  86.8155507  52.6003199   1.4206454
  74.5162395  65.1135072  -4.8974529  75.3537617  65.5232080  -5.1140821
  74.6940663  64.1734514  -4.9274335  86.4126827  62.7810153  -9.2090696
  85.8973451  63.5514757  -8.9702309  86.1404136  62.1075289  -8.5857635
  83.9973938  57.6259853  -4.1505458  83.1415534  57.2366704  -4.3299819
  84.4100890  57.7051814  -5.0105672  85.5273085  55.1606197   0.2486102
  85.0237880  55.1236332  -0.5646093  85.8203692  56.0698939   0.3082759
  81.7715971  55.2444926  -0.7447716  82.6368967  55.0487735  -1.1041827
  81.8393480  55.0155278   0.1821640  91.3861101  65.5342507  -7.2737523
  90.6090544  65.1953667  -7.7182361  92.0652582  65.5395130  -7.9482558
  86.2013130  60.6537245  -7.3830915  85.8963266  60.9683394  -6.5320772
  87.1543572  60.7318665  -7.3403582  84.6459562  66.8127468  -5.7337961
  84.1180924  66.0780228  -6.0464724  84.1447065  67.5902144  -5.9797993
  89.6252408  65.0076489  -0.6170915  88.9676083  65.6975750  -0.5290786
  90.4292807  65.3972920  -0.2736928  79.3778290  57.4747134  -3.3731350
  79.9522042  57.2522316  -4.1058157  79.9649272  57.5435829  -2.6202748
  88.4357867  63.3620861  -2.5666973  88.9489749  63.9950853  -2.0645263
  89.0859091  62.7622057  -2.9323613  85.6980241  73.3405185  -9.8106302
  85.0241940  73.6436882  -9.2021344  86.0846063  74.1434266 -10.1600845
  84.9138698  60.8370317  -0.3208632  83.9961259  61.0585264  -0.4786944
  85.3298841  60.9116627  -1.1796925  85.6973746  62.2361732  -5.1905952
  86.4445565  62.7483130  -5.4998830  85.9665335  61.9145785  -4.3301559
  83.9700396  64.7320273  -8.2078998  83.0611615  64.4479306  -8.1106528
  83.9995480  65.1519352  -9.0675691  89.2019663  68.3426863  -4.4387830
  88.7481990  67.5017773  -4.3822640  88.5713630  68.9788261  -4.1013050
  88.1452583  59.2718849  -3.2087163  87.4075340  58.7596235  -2.8776920
  88.3979356  58.8319230  -4.0203886  87.6452602  70.1803359  -3.5038012
  87.9375577  70.7408416  -4.2225647  88.1551223  70.4731920  -2.7484853
  88.2464210  52.0495101  -2.6145394  88.5523087  51.1892464  -2.9019479
  88.9716815  52.6412721  -2.8146400  74.5388566  62.4525787  -4.2263796
  74.3412966  61.8595148  -4.9512729  73.9835230  62.1477997  -3.5087857
  82.5185290  62.3448894  -2.1069203  82.5733900  61.3922730  -2.1826726
  81.7076492  62.5008333  -1.6227904  83.6676484  66.2729017 -10.8690919
  83.2295913  65.5564876 -11.3285282  84.4086924  66.5005132 -11.4305828
  80.4577650  60.9625954  -4.3478824  79.6445515  61.2620124  -3.9413632
  80.9536644  60.5681642  -3.6304341  82.6086228  70.9583710  -2.4144559
  82.5662406  71.1844557  -3.3436027  83.5248926  70.7247085  -2.2658758
  86.0551861  61.4267778   4.4836070  86.4101249  61.6539251   5.3430536
  86.7023993  61.7586155   3.8613325  91.7849598  64.5486214  -4.8114601
  91.6467497  64.7387810  -5.7393412  91.4285817  65.3105597  -4.3546550
  79.9491724  58.5344309   1.2682411  80.5891104  58.3933068   0.5705375
  79.1169255  58.2478822   0.8921013  91.8118978  66.6162741   0.1996671
  92.2455485  66.5238030   1.0479725  92.5250559  66.5920241  -0.4383313
  80.7252028  67.8346739  -2.6182596  81.5192627  67.3397060  -2.8200021
  80.0143721  67.3064603  -2.9814891  85.5446873  70.2164835   1.7329771
  85.5983895  70.7855771   2.5007487  84.6761654  70.3866720   1.3683808
  76.9520341  58.5044634  -3.9544602  77.2127158  59.4189967  -4.0635442
  77.7737513  58.0369077  -3.8047989  78.4245266  59.9182391   3.2154223
  79.0968320  59.7099753   2.5666871  77.5975053  59.7204477   2.7759455
  92.6734528  66.6586442   2.7329556  92.8670418  67.5632252   2.9788831
  92.5735146  66.1993861   3.5668141  84.3270838  56.5444332   5.2319883
  83.6798753  57.2434282   5.1384360  85.0971854  56.9780476   5.5996132
  87.7349636  66.8093184   8.3070437  87.5835143  66.5803736   7.3900520
  87.7254316  67.7663786   8.3201782  84.5034973  64.3825097   3.2916703
  85.4327033  64.5336257   3.1185670  84.0826003  64.4709118   2.4365350
  83.3023304  68.4075761   1.0615241  83.1634390  68.0394546   1.9341179
  82.5137901  68.9223401   0.8899199  83.8971456  73.5084858  -7.5959223
  84.0723212  73.0372901  -6.7813600  83.2104244  74.1350624  -7.3677962
  84.8528520  67.7857364  -1.5495921  84.5178352  67.7458134  -0.6538272
  84.3532465  67.1202080  -2.0225511  78.8272763  63.1924994   3.9756660
  78.6892561  62.4605233   4.5768199  79.7377687  63.1033894   3.6940847
  87.7887711  65.1313398 -11.2758862  87.1716882  64.4060227 -11.3725809
  87.3204200  65.8922759 -11.6191788  81.4555064  62.9044953   3.4640339
  82.1654683  62.2638146   3.4226958  81.4124372  63.1557848   4.3866520
  89.4441843  69.8412307   6.3846919  89.3854389  69.1571527   5.7177502
  89.8461361  70.5831297   5.9327545  80.1683998  59.8910171   5.2835979
  79.6321355  59.4400910   5.9357575  79.5800707  60.0256080   4.5406443
  78.4632542  76.6574221  -0.8219363  78.7029140  77.2892745  -0.1440344
  77.6201738  76.3062261  -0.5354003  89.4459250  67.8051891   4.6160898
  88.5586029  67.4677813   4.7387297  90.0157801  67.0734922   4.8529664
  71.0988397  64.1375983  -2.0596050  71.7859437  63.8237713  -2.6475035
  70.9436526  65.0417347  -2.3328799  75.9023119  59.0266179   2.3688973
  75.8181308  58.4191849   1.6339383  75.0805826  59.5175197   2.3698470
  82.9760404  72.4653343   1.5822141  82.9030575  73.2708315   2.0941446
  82.5337797  72.6645309   0.7570163  82.7650183  71.7025113  -4.9075037
  81.9817705  72.2446793  -4.8136812  83.4642928  72.2199093  -4.5080796
  86.0746833  57.5119743  -2.2640832  86.5715533  56.7589705  -2.5839761
  85.3033815  57.5484059  -2.8297622  93.9276591  63.2160108  -0.6222540
  93.9166467  64.0984824  -0.9928607  93.0593970  62.8631659  -0.8168003
  85.4359087  72.3640177   3.7380300  86.1487059  72.9987642   3.6656202
  84.9449116  72.4604043   2.9220302  87.1576614  66.2691430  -4.6902408
  86.2232893  66.3892892  -4.8597704  87.3353282  65.3663897  -4.9542398
  82.6581802  59.6537126  -2.5369147  82.2879590  59.1008166  -1.8488241
  83.1540894  59.0495259  -3.0894147  90.5449165  62.1108749  -4.1552374
  91.0109617  62.9436741  -4.2292071  90.9956666  61.6453731  -3.4507116
  80.4871001  70.1134621   4.5585871  81.1880460  70.7471104   4.7115265
  80.0166116  70.4549352   3.7981510  88.6125396  68.4552570  -7.1566222
  88.8885240  68.3409165  -6.2472348  87.7429895  68.0570055  -7.1954049
  88.5165828  54.4789336  -0.1161473  87.6028908  54.7093563   0.0520734
  88.9458929  54.5627780   0.7352560  88.2872287  62.6679228   2.3838421
  87.6343737  62.9155136   1.7290874  88.6652666  61.8543366   2.0500899
  85.2479460  72.7038921  -3.5133408  85.4301855  71.8860577  -3.0505656
  86.0712446  72.9206613  -3.9508518  85.5821626  71.6307106  -6.2518360
  86.1109392  71.1199561  -6.8648198  85.8449845  71.3149637  -5.3872827
  84.3359860  63.4099039   8.8704458  83.6600497  63.3093168   9.5406834
  85.1587493  63.2538253   9.3340456  76.0838719  69.6470976   1.4916974
  76.6692155  68.9014664   1.6244878  75.8863557  69.9574932   2.3753638
  78.9377374  72.6822223  -3.4920584  78.2687749  73.1668351  -3.9756544
  78.7990244  72.9291443  -2.5777205  70.6756373  62.2176576   0.2121417
  70.7140473  61.6840167   1.0058535  70.1696666  61.6911781  -0.4067606
  83.0782642  74.7165967   3.1062074  83.6300950  74.8797588   3.8711160
  83.4188836  75.3070404   2.4342099  78.0547136  57.0641116   3.7083959
  78.1188462  57.9255947   3.2961357  77.9914256  56.4515118   2.9756318
  77.5299408  59.1364249   7.3556993  78.1571447  58.7541326   7.9694518
  76.6727327  58.9178451   7.7212686  87.9293517  69.5427224   8.9610729
  88.4733421  70.1557182   8.4665684  87.3480362  70.1006802   9.4777742
  86.2151030  72.6647942   0.0925757  86.0902169  71.8637682  -0.4163298
  86.8730121  73.1594135  -0.3960273  77.8359198  59.0196675  -0.7297103
  77.1145784  59.6332642  -0.8689630  78.6252454  59.5554439  -0.8080457
  88.2785938  70.4656962   1.7205307  87.3316274  70.3462313   1.6483633
  88.6268711  69.5779460   1.8031568  80.6385511  56.3551101   5.5443549
  81.1619913  56.6013398   6.3069858  80.4197845  57.1871136   5.1246686
  85.2832371  70.2609678  -2.0790341  85.1357334  69.3326386  -1.8982771
  86.1085865  70.2829769  -2.5633266  88.8866493  71.0838237  -0.9925468
  89.8113041  70.8781098  -1.1301017  88.7181797  70.8354638  -0.0836127
  81.8438057  57.2964796   3.2293219  81.5034877  56.4972609   3.6313899
  81.1377063  57.5966507   2.6570052  82.4954528  54.3814109   1.6820542
  83.3180598  53.9074587   1.5599432  82.7392592  55.1604592   2.1819228
  80.0193107  61.0733229  -0.5087479  79.8737688  61.3873532   0.3836802
  79.5418311  61.6918130  -1.0616581  81.8789490  58.0635777  -0.4606590
  81.8651059  57.1676871  -0.7974292  82.5961918  58.0706441   0.1731696
  83.7315621  58.4973117   1.5846538  83.4733399  59.4190188   1.5830868
  83.2000661  58.1003552   2.2747002  88.6761809  71.6023905  -5.6363377
  88.8498687  71.0370327  -6.3889524  89.1690701  72.4024799  -5.8183887
  74.4938769  63.6138574   2.4300182  73.9492237  64.3898382   2.5620456
  75.3718119  63.9609378   2.2719303  84.1517576  54.6305068  -2.0552300
  84.1739273  54.6944401  -3.0100320  84.5685635  53.7909577  -1.8611794
  94.5301201  64.3660328  -4.0173077  94.9732347  63.6167653  -4.4153954
  93.6527711  64.3570464  -4.3999345  89.6636982  70.9190669  -8.5366479
  90.3587887  71.5397362  -8.3179164  90.0060132  70.0686020  -8.2614101
  75.2804791  62.7408470   5.3230339  74.5386527  62.8891105   5.9094969
  74.9597535  63.0016736   4.4597088  91.5628405  68.3690375  -7.0079148
  92.0879729  68.7077647  -7.7329828  91.4750758  67.4337390  -7.1916013
  83.2248454  72.2824448   5.1210729  83.5335580  72.0373595   5.9933428
  84.0223936  72.4871087   4.6329599  83.2469066  74.4362358  -2.6483895
  82.8074056  73.9438736  -1.9551038  83.9977183  73.8935325  -2.8891819
  75.7261405  70.6273899  -2.6459267  76.5519425  70.3277671  -3.0260623
  75.3755457  69.8581521  -2.1969478  80.6942938  69.9800367  -0.5761593
  80.0722947  69.3171072  -0.8759365  81.3647805  70.0061499  -1.2587945
  73.9270010  68.5460225  -1.6870333  73.0901918  68.1182399  -1.8686332
  73.8993655  68.7392668  -0.7499542  80.7667465  58.4582155   9.0170913
  80.8155621  59.3344278   8.6348683  81.3089980  57.9159548   8.4442556
  91.2522311  69.0023278   8.2972050  90.4617855  68.9847417   7.7576549
  91.0155666  69.5411572   9.0521087  91.3720186  65.8515745   5.6104779
  91.4218191  65.6865752   6.5520301  91.2634110  64.9843004   5.2202659
  80.2556445  68.5304290  -7.1003132  80.4044565  69.2139755  -7.7536460
  81.0622888  68.5109380  -6.5853677  88.6623949  61.8346673   6.9264085
  89.5633811  61.6953137   6.6348083  88.7371923  62.0001127   7.8662263
  82.9966754  59.2113527   5.7717272  82.1270063  59.5047093   5.4999860
  83.2326234  59.7953972   6.4924535  92.8738383  68.2712686   5.8546800
  92.5823191  68.6342667   6.6910261  92.2610514  67.5579694   5.6760132
  94.0734065  65.8365566  -1.6250630  94.9080957  66.2755370  -1.4613069
  94.2093194  65.3604219  -2.4442384  91.1225571  63.3945301   4.3226858
  91.5979693  63.5872947   3.5145710  90.1991137  63.4504486   4.0770242
  78.0109078  64.5569468  -6.0942064  77.7655120  63.6531798  -5.8961853
  78.1804992  64.5586618  -7.0362586  85.7005788  55.4293144   3.2882692
  86.2187732  56.1654171   2.9629181  85.3460920  55.7357138   4.1229451
  85.9518382  51.8493427  -1.1916411  86.2320136  51.1816616  -0.5655985
  86.7368989  52.0422522  -1.7041748  83.7551850  71.0252421  -9.6291385
  83.1825817  71.6442608 -10.0820913  84.3284644  71.5751782  -9.0951463
  89.8227240  60.2711061   2.5555164  90.7744663  60.3709158   2.5767388
  89.6530691  59.4789329   3.0653248  87.8441620  57.3566644   2.7414565
  87.2491552  57.6371657   2.0461053  87.5591316  57.8460545   3.5131306
  86.9749110  71.3089571  -8.4982803  87.9079783  71.2435132  -8.2949927
  86.8872323  72.1445838  -8.9568270  89.6037127  70.6255441 -11.5378855
  89.5250758  70.2915305 -10.6443097  90.4246794  71.1177209 -11.5387383
  92.3015318  63.4917180   1.6697463  92.2691638  62.5533181   1.8557147
  92.9115942  63.5701217   0.9363288  92.4509807  60.2828224   1.7155747
  91.9348855  59.4986681   1.5285675  93.3349755  59.9546940   1.8802266
  90.1120533  54.0269239  -2.3248441  89.9145355  53.7184328  -1.4405109
  90.7220239  54.7530878  -2.1950511  98.1191868  64.5533187   0.8103500
  98.8495256  64.2918475   1.3711204  97.5098813  63.8161909   0.8505568
  96.2007165  62.6941050   1.4077951  95.4740329  62.5597015   0.7994443
  95.7854452  63.0017878   2.2134669  84.0237341  66.4130980   9.1725324
  84.9440351  66.5909579   9.3665371  83.9886924  65.4687025   9.0205024
  73.2419506  61.6069573  -1.9021401  72.9222291  60.7534881  -2.1947027
  72.6952935  61.8218151  -1.1463434  77.0199414  64.3232014   1.8148106
  77.2385424  65.2549122   1.8336139  77.4325188  63.9639989   2.6002909
  85.8694180  53.9078146  -4.5751909  86.4225219  54.3273600  -3.9161886
  86.1064266  52.9813894  -4.5328953  81.8927279  59.8965220  11.2050854
  81.7924006  60.8459577  11.1362946  81.6748821  59.5683459  10.3326925
  73.1107766  65.2272485   0.0671721  72.4171238  64.8126438  -0.4458325
  73.8580757  65.2693021  -0.5294860  89.2472987  56.0178671  -5.0673245
  88.6671656  56.6763476  -5.4495193  88.9808920  55.1956016  -5.4785828
  87.6976554  55.4183729  -2.8651925  88.1976332  55.5300264  -3.6737606
  88.3412161  55.1144782  -2.2251116  81.7558549  63.3262359  10.0215916
  81.2725631  64.1262719  10.2279805  81.8419488  63.3370304   9.0683360
  75.0244509  65.1590738  -2.0562264  75.0015197  65.2578426  -3.0080381
  75.3345145  66.0055889  -1.7345098  77.6831887  67.2166894   2.0584350
  78.6375140  67.1850836   1.9914281  77.4844410  66.7557517   2.8734576
  78.2731269  65.7868010   4.6255148  79.0924158  66.2812088   4.6489985
  78.5468077  64.8699978   4.5972715  88.0297865  58.1778762  -6.0116897
  87.1423720  58.4628412  -6.2296702  88.4451854  58.0172525  -6.8589620
  91.3812401  58.2025283  -2.2962558  92.1572791  58.6921735  -2.0237941
  90.6560535  58.6283337  -1.8390688  93.8184960  58.9152902  -1.2388617
  94.4129451  58.6748638  -1.9495309  93.8911544  58.1960033  -0.6115081
  76.0382116  72.7586513  -0.9245452  75.9036584  71.9986914  -1.4907454
  75.6214178  73.4827413  -1.3916663  87.1741079  67.9423437 -11.9168877
  87.8776929  68.1473439 -11.3011221  86.4503727  68.5100198 -11.6519793
  88.0038889  63.6933298  -5.7966607  87.9474090  64.1501849  -6.6358974
  88.5567231  62.9323982  -5.9743764  91.8143695  59.4823030  -4.9716487
  91.5580629  59.0819665  -4.1408280  91.1896563  60.1966824  -5.0966348
  96.1256033  62.2219103  -2.4645196  95.5655591  62.2912292  -1.6913634
  95.5199536  62.0460088  -3.1845700  79.1951241  73.6555830  -0.7127010
  79.0783626  74.6001263  -0.8148319  78.3743688  73.3529392  -0.3241210
  89.0827776  68.3805966  -9.8670417  89.9173380  67.9487164 -10.0492942
  88.9212119  68.2087979  -8.9393522  88.7373668  64.8838079  -8.5014078
  88.6822472  64.7182350  -9.4425633  88.1119723  65.5914112  -8.3451888
  73.5266183  60.1206143   5.3247345  74.1725047  59.6105097   5.8134570
  73.3183334  60.8574825   5.8990770  86.0519575  67.1886991  10.8239485
  86.9210735  67.3627643  10.4626120  85.5726327  68.0081408  10.7015215
  80.2205756  74.3084092   2.5028919  81.1233002  74.3407702   2.8195414
  79.9943126  73.3784543   2.5175255  81.9759358  73.0615078  -0.8361003
  81.0254989  73.0616940  -0.9496630  82.2791844  72.3147813  -1.3524968
  77.8663674  57.2673760   9.4222359  78.7295136  56.9110565   9.6325683
  77.2929085  56.9287655  10.1097763  97.7112051  78.8975617   0.2284760
  98.3490461  78.7782364  -0.4751900  97.5932894  79.8456461   0.2872712
  94.5201757  78.8503045   0.1646285  94.1820269  78.7344110  -0.7233181
  95.3891526  78.4494210   0.1447291  90.3788573  80.7038521  -3.8456824
  89.8153438  80.6128458  -4.6140537  90.2640968  79.8838426  -3.3654332
  95.0021540  80.0037897   6.1232490  94.9910181  79.6090695   5.2512994
  95.1642180  79.2703969   6.7166262  87.9253005  82.1989713  -1.0072604
  88.7174297  81.8580538  -1.4226305  88.1649655  82.3084688  -0.0870451
  89.8843759  81.4598626  -8.1355225  90.6574635  80.9127613  -8.2742349
  90.2369158  82.3242876  -7.9240764  91.7228802  82.7875008   5.0711674
  91.4318668  83.6920639   4.9558340  92.3585786  82.8291536   5.7855744
  92.6485008  80.1651857   1.6613034  93.2448581  79.9407879   0.9469997
  92.7059980  79.4236602   2.2638482  92.2210037  77.6191292 -10.5036775
  92.4735557  77.0972814 -11.2653312  91.2834596  77.4557438 -10.4010092
  97.2653320  76.6227071  -2.6962032  98.0516409  76.2046494  -3.0471615
  97.5292024  77.5273163  -2.5280384 102.6661747  76.5602304  -1.7929054
 103.3986919  75.9901521  -1.5591224 101.9101102  76.1723904  -1.3522548
  91.9406326  79.5219398  -8.3012400  91.8242584  78.8464302  -7.6331316
  92.0508585  79.0351772  -9.1180247  94.2837866  78.9829545  -4.5965711
  93.9196074  78.4560166  -3.8852790  95.1404982  78.5928014  -4.7699226
 100.1887167  70.2723878   2.6665555  99.8570492  71.1419289   2.4426770
  99.5932780  69.9560162   3.3459585  93.9243353  74.0119445  -9.6004363
  94.0917756  74.8799682  -9.2333892  93.7340523  74.1746727 -10.5243073
  96.6818687  82.4736424   2.0661468  96.3819410  83.3761463   1.9577275
  96.3369746  82.2068607   2.9182621  90.1331168  78.9250221  -1.9001828
  89.2081665  78.7926435  -1.6924136  90.3815581  79.7044440  -1.4031885
 100.0815830  74.9918964  -0.2541095  99.1732708  74.9234373  -0.5482334
 100.0303426  75.4690909   0.5740731  93.9032574  76.4677103  -8.6157696
  93.7832200  76.9134153  -7.7772215  93.2085163  76.8162420  -9.1744158
  87.4939979  78.5683494  -1.0658039  87.6232360  78.8217973  -0.1518627
  86.8137430  79.1611202  -1.3853384  91.6639466  89.2380744  -4.9667565
  91.5863496  90.1888569  -4.8879084  91.0601110  88.8926617  -4.3092638
  94.1556696  76.4108610   7.6893802  93.3790030  76.9702530   7.6796667
  94.7947259  76.8965393   8.2108672 101.9477477  73.1935403   1.5236779
 101.3051857  73.4867936   0.8776574 101.4432405  73.0788323   2.3289976
  99.6017640  76.9398576  -7.7877362 100.5135497  77.1725963  -7.9629664
  99.0927288  77.5235620  -8.3502283  92.4103068  79.2194063   7.2511769
  93.1517753  79.7579107   6.9746593  91.7040054  79.8460352   7.4083321
  97.8858408  81.3623204   5.8483931  98.2941764  80.9205614   5.1038563
  97.1635670  80.7875831   6.1018124  94.2389478  76.2995810   3.2217488
  95.0850673  76.7235224   3.3652137  94.1788116  75.6429435   3.9156051
  98.2087223  81.9224394  -0.3963780  97.5796085  82.0870108  -1.0987712
  97.8212885  82.3366004   0.3747184 102.0876455  82.8578832  -3.0419416
 101.4027493  83.2377733  -3.5922383 102.1720304  83.4674159  -2.3087469
  97.3888924  73.9600179   4.8798661  97.1449855  74.7142239   4.3432937
  97.6648854  74.3385526   5.7145909  99.3427386  80.5038791   3.5575927
  99.5544282  81.1470551   2.8810308  99.2957135  79.6701108   3.0897857
  96.9453615  73.1156612   0.4612499  96.0838094  73.4137865   0.7529237
  96.9716050  73.3327011  -0.4706468  93.7615185  81.6598802  -3.1313695
  94.2253530  81.9386505  -3.9209073  93.4971983  80.7582247  -3.3140604
  90.6539266  81.2070284  -0.1933932  91.2240623  81.6357552  -0.8316447
  91.2447378  80.9252869   0.5050254  92.6984071  77.7821955  -6.3224130
  93.4008114  78.2342998  -5.8550204  92.3664699  77.1405774  -5.6944237
  91.1464432  76.3733711   8.0527079  90.5163093  77.0549992   8.2862476
  91.0400520  76.2616793   7.1080218  86.4409405  76.0405507  -1.0206996
  85.6508459  76.2963036  -1.4966886  86.9320652  76.8553845  -0.9154956
 100.4573214  83.3810747   1.7298284 101.2790658  82.9790934   1.4480966
 100.4535617  83.2778981   2.6814400  88.3924150  76.4050087  -4.0623520
  87.5955313  76.5168781  -3.5440024  88.1649742  76.7436739  -4.9282629
  94.2229818  82.9294790   3.8858995  94.2874250  83.3915197   4.7217167
  93.5140742  82.2992155   4.0141305  84.7247108  76.2935998   1.4107994
  84.9755146  77.1783008   1.6765570  85.2606656  76.1140599   0.6383086
 108.5479207  79.7249495  -1.9216744 107.7942916  79.1556893  -2.0772740
 108.6826748  79.6912160  -0.9746109  93.9377835  84.5962897  -6.2462025
  93.8023510  85.4414433  -5.8177177  94.4787648  84.7982175  -7.0096091
  90.4245175  70.6754477  10.4152330  90.0312121  70.1220676  11.0899975
  91.2411315  70.9865056  10.8058848  87.3907233  82.1138335  -5.6734100
  87.9031753  82.9081586  -5.5228535  88.0429946  81.4164626  -5.7400498
  89.2002117  85.2304092  -3.5911347  89.3768746  86.1522056  -3.7790363
  89.9958951  84.9162511  -3.1616967  93.3413136  72.0912356   8.0072587
  94.0822849  72.6919509   7.9277049  93.5731059  71.3489994   7.4490630
  88.4854474  77.2768724   6.2850817  88.3707989  76.3753981   6.5857916
  87.6298992  77.5232420   5.9335633  95.5646312  85.2186464   7.8838317
  95.1210166  84.4322842   7.5659222  96.2263525  85.4065614   7.2182208
  90.3233433  86.7482265   2.4098996  90.8740858  86.6199329   1.6375990
  89.4844909  87.0477154   2.0593889  97.6627550  85.4989264   5.9119719
  97.6446025  86.3198145   5.4199988  98.5847470  85.3743339   6.1369860
  94.1200604  83.0133393   6.7543227  94.6528941  82.2521681   6.5242535
  93.5914685  82.7207045   7.4967381  97.2870299  68.1193459   2.2836869
  96.9434568  69.0095101   2.2075979  97.6549261  67.9295117   1.4206454
  85.3556149  80.4426990  -4.8974529  86.1931372  80.8523998  -5.1140821
  85.5334417  79.5026432  -4.9274335  97.2520582  78.1102070  -9.2090696
  96.7367205  78.8806675  -8.9702309  96.9797890  77.4367206  -8.5857635
  94.8367693  72.9551771  -4.1505458  93.9809289  72.5658621  -4.3299819
  95.2494644  73.0343732  -5.0105672  96.3666839  70.4898114   0.2486102
  95.8631635  70.4528250  -0.5646093  96.6597446  71.3990857   0.3082759
  92.6109725  70.5736844  -0.7447716  93.4762722  70.3779653  -1.1041827
  92.6787234  70.3447196   0.1821640  97.0406885  75.9829162  -7.3830915
  96.7357020  76.2975312  -6.5320772  97.9937327  76.0610582  -7.3403582
  95.4853317  82.1419386  -5.7337961  94.9574678  81.4072145  -6.0464724
  94.9840819  82.9194062  -5.9797993 100.4646163  80.3368406  -0.6170915
  99.8069837  81.0267668  -0.5290786 101.2686562  80.7264838  -0.2736928
  90.2172044  72.8039052  -3.3731350  90.7915796  72.5814233  -4.1058157
  90.8043027  72.8727746  -2.6202748  99.2751621  78.6912779  -2.5666973
  99.7883503  79.3242771  -2.0645263  99.9252845  78.0913974  -2.9323613
  90.5441631  74.8343513  -9.3535464  89.7078944  75.1718200  -9.0326190
  90.4046401  74.6992493 -10.2908327  92.5194712  69.6780301  -4.6456280
  91.8659124  69.3629318  -5.2699665  92.4775186  69.0556041  -3.9196457
  95.7532452  76.1662234  -0.3208632  94.8355014  76.3877181  -0.4786944
  96.1692596  76.2408545  -1.1796925  96.5367500  77.5653650  -5.1905952
  97.2839319  78.0775047  -5.4998830  96.8059090  77.2437703  -4.3301559
  94.8094150  80.0612191  -8.2078998  93.9005370  79.7771224  -8.1106528
  94.8389234  80.4811269  -9.0675691 100.0413418  83.6718780  -4.4387830
  99.5875745  82.8309690  -4.3822640  99.4107384  84.3080179  -4.1013050
  98.9846337  74.6010766  -3.2087163  98.2469094  74.0888153  -2.8776920
  99.2373111  74.1611148  -4.0203886  98.4846357  85.5095277  -3.5038012
  98.7769331  86.0700334  -4.2225647  98.9944977  85.8023838  -2.7484853
  99.0857965  67.3787018  -2.6145394  99.3916841  66.5184382  -2.9019479
  99.8110569  67.9704639  -2.8146400  85.3782321  77.7817705  -4.2263796
  85.1806720  77.1887066  -4.9512729  84.8228985  77.4769915  -3.5087857
  93.3579044  77.6740811  -2.1069203  93.4127654  76.7214648  -2.1826726
  92.5470246  77.8300251  -1.6227904  91.2971404  76.2917871  -4.3478824
  90.4839270  76.5912042  -3.9413632  91.7930398  75.8973560  -3.6304341
  93.4479982  86.2875628  -2.4144559  93.4056161  86.5136474  -3.3436027
  94.3642681  86.0539003  -2.2658758  96.8945616  76.7559696   4.4836070
  97.2495004  76.9831169   5.3430536  97.5417747  77.0878072   3.8613325
 102.6243353  79.8778132  -4.8114601 102.4861251  80.0679728  -5.7393412
 102.2679572  80.6397514  -4.3546550  90.7885479  73.8636227   1.2682411
  91.4284858  73.7224986   0.5705375  89.9563010  73.5770740   0.8921013
 102.6512732  81.9454659   0.1996671 103.0849239  81.8529948   1.0479725
 103.3644313  81.9212159  -0.4383313  91.5645783  83.1638657  -2.6182596
  92.3586381  82.6688977  -2.8200021  90.8537475  82.6356520  -2.9814891
  96.3840627  85.5456753   1.7329771  96.4377650  86.1147689   2.5007487
  95.5155409  85.7158638   1.3683808  87.8728546  77.3081739  -6.5422844
  86.9426134  77.2466194  -6.3252881  87.9686018  76.7857692  -7.3386202
  87.7914095  73.8336552  -3.9544602  88.0520913  74.7481885  -4.0635442
  88.6131268  73.3660994  -3.8047989  89.2639021  75.2474309   3.2154223
  89.9362074  75.0391671   2.5666871  88.4368807  75.0496395   2.7759455
 103.5128282  81.9878359   2.7329556 103.7064172  82.8924170   2.9788831
 103.4128900  81.5285778   3.5668141  95.1664593  71.8736250   5.2319883
  94.5192508  72.5726199   5.1384360  95.9365608  72.3072394   5.5996132
  98.5743391  82.1385102   8.3070437  98.4228897  81.9095654   7.3900520
  98.5648070  83.0955703   8.3201782  95.3428727  79.7117015   3.2916703
  96.2720787  79.8628174   3.1185670  94.9219757  79.8001035   2.4365350
  94.1417059  83.7367679   1.0615241  94.0028145  83.3686464   1.9341179
  93.3531655  84.2515319   0.8899199  95.6922274  83.1149282  -1.5495921
  95.3572107  83.0750052  -0.6538272  95.1926220  82.4493998  -2.0225511
  89.6666518  78.5216912   3.9756660  89.5286316  77.7897151   4.5768199
  90.5771441  78.4325812   3.6940847  92.2948819  78.2336871   3.4640339
  93.0048437  77.5930063   3.4226958  92.2518127  78.4849766   4.3866520
 100.2835597  85.1704225   6.3846919 100.2248143  84.4863445   5.7177502
 100.6855116  85.9123215   5.9327545  91.0077753  75.2202089   5.2835979
  90.4715110  74.7692828   5.9357575  90.4194461  75.3547998   4.5406443
  89.3026296  91.9866138  -0.8219363  89.5422894  92.6184663  -0.1440344
  88.4595493  91.6354178  -0.5354003  90.4180012  74.6790740 -12.1537558
  89.5409478  74.5579541 -12.5175311  90.8937765  73.8876819 -12.4058669
 100.2853005  83.1343808   4.6160898  99.3979783  82.7969730   4.7387297
 100.8551556  82.4026840   4.8529664  81.9382152  79.4667900  -2.0596050
  82.6253192  79.1529630  -2.6475035  81.7830280  80.3709265  -2.3328799
  86.7416874  74.3558097   2.3688973  86.6575063  73.7483766   1.6339383
  85.9199580  74.8467115   2.3698470  93.8154158  87.7945261   1.5822141
  93.7424329  88.6000232   2.0941446  93.3731551  87.9937227   0.7570163
  93.6043938  87.0317031  -4.9075037  92.8211460  87.5738711  -4.8136812
  94.3036683  87.5491010  -4.5080796  96.9140588  72.8411660  -2.2640832
  97.4109287  72.0881623  -2.5839761  96.1427569  72.8775977  -2.8297622
 104.7670345  78.5452026  -0.6222540 104.7560221  79.4276741  -0.9928607
 103.8987725  78.1923577  -0.8168003  96.2752842  87.6932095   3.7380300
  96.9880814  88.3279560   3.6656202  95.7842870  87.7895961   2.9220302
  97.9970368  81.5983348  -4.6902408  97.0626647  81.7184810  -4.8597704
  98.1747037  80.6955814  -4.9542398  93.4975556  74.9829043  -2.5369147
  93.1273344  74.4300084  -1.8488241  93.9934649  74.3787177  -3.0894147
 101.3842920  77.4400667  -4.1552374 101.8503372  78.2728658  -4.2292071
 101.8350420  76.9745648  -3.4507116  91.3264755  85.4426538   4.5585871
  92.0274215  86.0763021   4.7115265  90.8559870  85.7841270   3.7981510
  99.3559583  69.8081254  -0.1161473  98.4422662  70.0385481   0.0520734
  99.7852684  69.8919698   0.7352560  99.1266041  77.9971146   2.3838421
  98.4737491  78.2447053   1.7290874  99.5046421  77.1835284   2.0500899
  96.0873215  88.0330839  -3.5133408  96.2695609  87.2152495  -3.0505656
  96.9106201  88.2498531  -3.9508518  95.1753614  78.7390957   8.8704458
  94.4994251  78.6385086   9.5406834  95.9981248  78.5830171   9.3340456
  86.9232473  84.9762893   1.4916974  87.5085910  84.2306581   1.6244878
  86.7257312  85.2866850   2.3753638  89.7771128  88.0114141  -3.4920584
  89.1081504  88.4960268  -3.9756544  89.6383998  88.2583361  -2.5777205
  81.5150128  77.5468494   0.2121417  81.5534227  77.0132084   1.0058535
  81.0090421  77.0203699  -0.4067606  93.9176397  90.0457884   3.1062074
  94.4694705  90.2089506   3.8711160  94.2582590  90.6362322   2.4342099
  88.8940890  72.3933034   3.7083959  88.9582217  73.2547865   3.2961357
  88.8308010  71.7807036   2.9756318  88.3693163  74.4656167   7.3556993
  88.9965201  74.0833244   7.9694518  87.5121082  74.2470369   7.7212686
  98.7687271  84.8719142   8.9610729  99.3127175  85.4849100   8.4665684
  98.1874116  85.4298720   9.4777742  85.1458705  76.2732596  -6.7124652
  85.4412147  75.3643274  -6.7657598  84.2446741  76.2520335  -7.0343649
  97.0544784  87.9939860   0.0925757  96.9295924  87.1929600  -0.4163298
  97.7123875  88.4886053  -0.3960273  88.6752952  74.3488592  -0.7297103
  87.9539538  74.9624560  -0.8689630  89.4646208  74.8846357  -0.8080457
  99.1179693  85.7948880   1.7205307  98.1710028  85.6754231   1.6483633
  99.4662466  84.9071378   1.8031568  91.4779266  71.6843019   5.5443549
  92.0013668  71.9305315   6.3069858  91.2591599  72.5163054   5.1246686
  86.8746547  73.9546693  -6.5885327  86.5459253  73.0744072  -6.7710221
  87.2285918  73.8994362  -5.7008937  96.1226126  85.5901596  -2.0790341
  95.9751088  84.6618303  -1.8982771  96.9479619  85.6121687  -2.5633266
  89.9888370  74.2419663  -6.2209849  90.3284443  74.7705584  -6.9431241
  90.4360491  74.5800069  -5.4451282  99.7260248  86.4130155  -0.9925468
 100.6506795  86.2073016  -1.1301017  99.5575551  86.1646556  -0.0836127
  92.6831811  72.6256714   3.2293219  92.3428631  71.8264527   3.6313899
  91.9770817  72.9258425   2.6570052  93.3348283  69.7106026   1.6820542
  94.1574352  69.2366504   1.5599432  93.5786346  70.4896510   2.1819228
  91.9756517  72.7394285  -8.0216556  92.6964880  73.1175538  -8.5252839
  91.3521821  73.4583162  -7.9181578  96.1187640  73.4439434  -7.0858224
  96.3351255  74.3264072  -7.3869396  95.6381707  73.0525647  -7.8152582
  90.8586862  76.4025147  -0.5087479  90.7131442  76.7165450   0.3836802
  90.3812065  77.0210047  -1.0616581  92.7183244  73.3927695  -0.4606590
  92.7044813  72.4968788  -0.7974292  93.4355673  73.3998359   0.1731696
  94.5709375  73.8265035   1.5846538  94.3127153  74.7482106   1.5830868
  94.0394416  73.4295470   2.2747002  85.3332524  78.9430491   2.4300182
  84.7885992  79.7190299   2.5620456  86.2111874  79.2901296   2.2719303
  92.1220140  72.2742075  -5.1919020  92.2436052  71.3458721  -4.9928132
  91.8322183  72.2880761  -6.1040704  94.9911331  69.9596986  -2.0552300
  95.0133028  70.0236319  -3.0100320  95.4079390  69.1201494  -1.8611794
 105.3694955  79.6952245  -4.0173077 105.8126101  78.9459570  -4.4153954
 104.4921465  79.6862382  -4.3999345  86.1198546  78.0700388   5.3230339
  85.3780282  78.2183023   5.9094969  85.7991290  78.3308653   4.4597088
  94.0642208  87.6116366   5.1210729  94.3729335  87.3665513   5.9933428
  94.8617690  87.8163004   4.6329599  94.0862820  89.7654275  -2.6483895
  93.6467811  89.2730654  -1.9551038  94.8370937  89.2227243  -2.8891819
  86.5655159  85.9565816  -2.6459267  87.3913179  85.6569588  -3.0260623
  86.2149211  85.1873439  -2.1969478  91.5336692  85.3092285  -0.5761593
  90.9116702  84.6462990  -0.8759365  92.2041559  85.3353416  -1.2587945
  84.7663764  83.8752143  -1.6870333  83.9295673  83.4474317  -1.8686332
  84.7387410  84.0684586  -0.7499542  91.6061220  73.7874073   9.0170913
  91.6549375  74.6636195   8.6348683  92.1483734  73.2451466   8.4442556
 102.0916066  84.3315196   8.2972050 101.3011609  84.3139335   7.7576549
 101.8549420  84.8703490   9.0521087 102.2113941  81.1807662   5.6104779
 102.2611946  81.0157670   6.5520301 102.1027864  80.3134921   5.2202659
  91.0950199  83.8596208  -7.1003132  91.2438320  84.5431672  -7.7536460
  91.9016643  83.8401298  -6.5853677  99.5017703  77.1638590   6.9264085
 100.4027566  77.0245055   6.6348083  99.5765678  77.3293045   7.8662263
  93.8360508  74.5405445   5.7717272  92.9663818  74.8339011   5.4999860
  94.0719989  75.1245890   6.4924535 103.7132137  83.6004604   5.8546800
 103.4216946  83.9634584   6.6910261 103.1004269  82.8871612   5.6760132
 104.9127820  81.1657484  -1.6250630 105.7474711  81.6047288  -1.4613069
 105.0486949  80.6896137  -2.4442384 101.9619326  78.7237218   4.3226858
 102.4373447  78.9164865   3.5145710 101.0384891  78.7796404   4.0770242
  88.8502832  79.8861386  -6.0942064  88.6048874  78.9823716  -5.8961853
  89.0198747  79.8878536  -7.0362586  96.5399542  70.7585062   3.2882692
  97.0581486  71.4946089   2.9629181  96.1854675  71.0649055   4.1229451
  88.1198480  75.6189743  -8.5955902  87.4267725  75.6934098  -9.2515866
  87.8750232  74.8550087  -8.0734385  96.7912136  67.1785344  -1.1916411
  97.0713890  66.5108534  -0.5655985  97.5762743  67.3714440  -1.7041748
 100.6620995  75.6002978   2.5555164 101.6138418  75.7001076   2.5767388
 100.4924445  74.8081247   3.0653248  98.6835374  72.6858562   2.7414565
  98.0885306  72.9663574   2.0461053  98.3985071  73.1752463   3.5131306
 103.1409073  78.8209098   1.6697463 103.1085393  77.8825099   1.8557147
 103.7509696  78.8993135   0.9363288 103.2903561  75.6120142   1.7155747
 102.7742610  74.8278598   1.5285675 104.1743510  75.2838858   1.8802266
 100.9514288  69.3561157  -2.3248441 100.7539109  69.0476245  -1.4405109
 101.5613993  70.0822796  -2.1950511 108.9585622  79.8825105   0.8103500
 109.6889011  79.6210393   1.3711204 108.3492568  79.1453827   0.8505568
 107.0400919  78.0232968   1.4077951 106.3134083  77.8888932   0.7994443
 106.6248206  78.3309796   2.2134669  94.8631096  81.7422897   9.1725324
  95.7834105  81.9201496   9.3665371  94.8280679  80.7978943   9.0205024
  93.1635321  75.6155127 -12.3520447  92.2566776  75.3188240 -12.2757734
  93.4411302  75.3184946 -13.2186161  84.0813261  76.9361491  -1.9021401
  83.7616045  76.0826799  -2.1947027  83.5346689  77.1510069  -1.1463434
  87.8593168  79.6523932   1.8148106  88.0779178  80.5841040   1.8336139
  88.2718942  79.2931906   2.6002909  94.7797386  70.1592017  -6.1976206
  93.9698115  69.8139102  -5.8220960  95.4681803  69.8499561  -5.6088594
  96.7087935  69.2370064  -4.5751909  97.2618973  69.6565517  -3.9161886
  96.9458021  68.3105812  -4.5328953  92.7321034  75.2257138  11.2050854
  92.6317761  76.1751495  11.1362946  92.5142576  74.8975377  10.3326925
  91.9334105  72.4742063 -12.2108468  92.7953269  72.7996961 -11.9512651
  92.1184449  71.6873559 -12.7235402  83.9501521  80.5564402   0.0671721
  83.2564992  80.1418355  -0.4458325  84.6974512  80.5984939  -0.5294860
 100.0866742  71.3470589  -5.0673245  99.5065411  72.0055393  -5.4495193
  99.8202674  70.5247934  -5.4785828  98.5370308  70.7475647  -2.8651925
  99.0370086  70.8592181  -3.6737606  99.1805916  70.4436700  -2.2251116
  92.5952304  78.6554276  10.0215916  92.1119386  79.4554637  10.2279805
  92.6813243  78.6662221   9.0683360  85.8638263  80.4882656  -2.0562264
  85.8408952  80.5870343  -3.0080381  86.1738900  81.3347807  -1.7345098
  88.5225641  82.5458811   2.0584350  89.4768895  82.5142754   1.9914281
  88.3238165  82.0849435   2.8734576  89.1125023  81.1159927   4.6255148
  89.9317912  81.6104006   4.6489985  89.3861831  80.1991895   4.5972715
  98.8691620  73.5070680  -6.0116897  97.9817475  73.7920330  -6.2296702
  99.2845609  73.3464443  -6.8589620 102.2206156  73.5317201  -2.2962558
 102.9966546  74.0213653  -2.0237941 101.4954290  73.9575255  -1.8390688
 104.6578714  74.2444820  -1.2388617 105.2523205  74.0040556  -1.9495309
 104.7305298  73.5251950  -0.6115081  86.8775870  88.0878431  -0.9245452
  86.7430338  87.3278832  -1.4907454  86.4607932  88.8119331  -1.3916663
  98.8432643  79.0225215  -5.7966607  98.7867845  79.4793767  -6.6358974
  99.3960986  78.2615900  -5.9743764 102.6537449  74.8114947  -4.9716487
 102.3974384  74.4111583  -4.1408280 102.0290317  75.5258741  -5.0966348
 106.9649787  77.5511021  -2.4645196 106.4049345  77.6204210  -1.6913634
 106.3593291  77.3752005  -3.1845700  90.0344996  88.9847748  -0.7127010
  89.9177380  89.9293180  -0.8148319  89.2137442  88.6821309  -0.3241210
  84.3659938  75.4498061   5.3247345  85.0118801  74.9397015   5.8134570
  84.1577089  76.1866743   5.8990770  96.8913330  82.5178909  10.8239485
  97.7604490  82.6919561  10.4626120  96.4120081  83.3373325  10.7015215
  92.8863548  69.7138106  -8.9228759  92.8742218  70.6579946  -8.7660488
  93.7786970  69.5308251  -9.2169298  91.0599510  89.6376010   2.5028919
  91.9626757  89.6699620   2.8195414  90.8336880  88.7076461   2.5175255
  92.8153112  88.3906996  -0.8361003  91.8648743  88.3908858  -0.9496630
  93.1185598  87.6439731  -1.3524968  96.7015668  66.3080882  -4.6682822
  95.9348063  65.7539369  -4.5226140  97.1126373  66.3802751  -3.8068671
  88.7057429  72.5965678   9.4222359  89.5688890  72.2402483   9.6325683
  88.1322839  72.2579573  10.1097763 105.8415295  95.3329814   6.1232490
 105.8303936  94.9382613   5.2512994 106.0035934  94.5995887   6.7166262
 102.5622556  98.1166926   5.0711674 102.2712422  99.0212557   4.9558340
 103.1979540  98.1583454   5.7855744 111.0280922  85.6015796   2.6665555
 110.6964246  86.4711207   2.4426770 110.4326535  85.2852080   3.3459585
 104.9950451  91.7400527   7.6893802 104.2183785  92.2994448   7.6796667
 105.6341014  92.2257310   8.2108672 103.2496823  94.5485981   7.2511769
 103.9911507  95.0871025   6.9746593 102.5433808  95.1752270   7.4083321
 105.0783233  91.6287728   3.2217488 105.9244428  92.0527142   3.3652137
 105.0181870  90.9721352   3.9156051 108.2282678  89.2892096   4.8798661
 107.9843610  90.0434157   4.3432937 108.5042609  89.6677444   5.7145909
 101.9858187  91.7025629   8.0527079 101.3556847  92.3841910   8.2862476
 101.8794275  91.5908711   7.1080218  97.2803159  91.3697425  -1.0206996
  96.4902213  91.6254954  -1.4966886  97.7714407  92.1845763  -0.9154956
  95.5640862  91.6227915   1.4107994  95.8148901  92.5074925   1.6765570
  96.1000411  91.4432517   0.6383086 101.2638929  86.0046395  10.4152330
 100.8705875  85.4512593  11.0899975 102.0805070  86.3156973  10.8058848
 104.1806890  87.4204274   8.0072587 104.9216604  88.0211427   7.9277049
 104.4124813  86.6781912   7.4490630  99.3248228  92.6060641   6.2850817
  99.2101744  91.7045898   6.5857916  98.4692746  92.8524338   5.9335633
 106.4040066 100.5478381   7.8838317 105.9603920  99.7614760   7.5659222
 107.0657280 100.7357532   7.2182208 104.9594358  98.3425311   6.7543227
 105.4922695  97.5813599   6.5242535 104.4308440  98.0498963   7.4967381
 108.1264053  83.4485377   2.2836869 107.7828323  84.3387019   2.2075979
 108.4943016  83.2587035   1.4206454 107.2060594  85.8190032   0.2486102
 106.7025389  85.7820167  -0.5646093 107.4991201  86.7282775   0.3082759
 103.4503480  85.9028762  -0.7447716 104.3156476  85.7071570  -1.1041827
 103.5180989  85.6739114   0.1821640 107.7339370  92.0851613   4.4836070
 108.0888758  92.3123086   5.3430536 108.3811502  92.4169990   3.8613325
 101.6279233  89.1928144   1.2682411 102.2678613  89.0516903   0.5705375
 100.7956764  88.9062658   0.8921013 100.1032775  90.5766227   3.2154223
 100.7755829  90.3683589   2.5666871  99.2762562  90.3788313   2.7759455
 106.0058347  87.2028167   5.2319883 105.3586262  87.9018117   5.1384360
 106.7759363  87.6364311   5.5996132 109.4137145  97.4677020   8.3070437
 109.2622652  97.2387571   7.3900520 109.4041825  98.4247621   8.3201782
 100.5060272  93.8508830   3.9756660 100.3680070  93.1189068   4.5768199
 101.4165196  93.7617730   3.6940847 103.1342573  93.5628789   3.4640339
 103.8442192  92.9221981   3.4226958 103.0911881  93.8141684   4.3866520
 101.8471507  90.5494007   5.2835979 101.3108864  90.0984745   5.9357575
 101.2588216  90.6839916   4.5406443  97.5810628  89.6850014   2.3688973
  97.4968817  89.0775684   1.6339383  96.7593335  90.1759033   2.3698470
 110.1953337  85.1373171  -0.1161473 109.2816417  85.3677398   0.0520734
 110.6246438  85.2211616   0.7352560 106.0147369  94.0682874   8.8704458
 105.3388006  93.9677004   9.5406834 106.8375002  93.9122088   9.3340456
  92.3543882  92.8760411   0.2121417  92.3927982  92.3424002   1.0058535
  91.8484175  92.3495617  -0.4067606  99.7334645  87.7224952   3.7083959
  99.7975971  88.5839783   3.2961357  99.6701765  87.1098953   2.9756318
  99.2086917  89.7948084   7.3556993  99.8358956  89.4125162   7.9694518
  98.3514836  89.5762286   7.7212686 109.6081026 100.2011059   8.9610729
 110.1520930 100.8141018   8.4665684 109.0267871 100.7590638   9.4777742
  99.5146707  89.6780510  -0.7297103  98.7933293  90.2916478  -0.8689630
 100.3039963  90.2138275  -0.8080457 102.3173020  87.0134936   5.5443549
 102.8407422  87.2597233   6.3069858 102.0985354  87.8454971   5.1246686
 103.5225565  87.9548632   3.2293219 103.1822386  87.1556445   3.6313899
 102.8164572  88.2550342   2.6570052 104.1742037  85.0397944   1.6820542
 104.9968107  84.5658422   1.5599432 104.4180101  85.8188428   2.1819228
 103.5576999  88.7219613  -0.4606590 103.5438568  87.8260706  -0.7974292
 104.2749427  88.7290276   0.1731696 105.4103130  89.1556953   1.5846538
 105.1520907  90.0774023   1.5830868 104.8788170  88.7587387   2.2747002
  96.1726278  94.2722409   2.4300182  95.6279746  95.0482217   2.5620456
  97.0505628  94.6193213   2.2719303  96.9592300  93.3992305   5.3230339
  96.2174036  93.5474941   5.9094969  96.6385044  93.6600571   4.4597088
 102.4454974  89.1165990   9.0170913 102.4943130  89.9928113   8.6348683
 102.9877489  88.5743383   8.4442556 110.3411458  92.4930508   6.9264085
 111.2421320  92.3536973   6.6348083 110.4159432  92.6584963   7.8662263
 104.6754263  89.8697363   5.7717272 103.8057572  90.1630929   5.4999860
 104.9113743  90.4537808   6.4924535 107.3793297  86.0876980   3.2882692
 107.8975241  86.8238007   2.9629181 107.0248429  86.3940973   4.1229451
 107.6305891  82.5077262  -1.1916411 107.9107645  81.8400451  -0.5655985
 108.4156498  82.7006358  -1.7041748 109.5229129  88.0150479   2.7414565
 108.9279061  88.2955492   2.0461053 109.2378825  88.5044380   3.5131306
 105.7024850  97.0714815   9.1725324 106.6227860  97.2493414   9.3665371
 105.6674433  96.1270860   9.0205024  94.9207015  92.2653409  -1.9021401
  94.6009800  91.4118717  -2.1947027  94.3740444  92.4801987  -1.1463434
  98.6986923  94.9815850   1.8148106  98.9172933  95.9132957   1.8336139
  99.1112697  94.6223824   2.6002909 103.5714788  90.5549055  11.2050854
 103.4711515  91.5043412  11.1362946 103.3536330  90.2267294  10.3326925
  94.7895275  95.8856320   0.0671721  94.0958747  95.4710273  -0.4458325
  95.5368266  95.9276857  -0.5294860 103.4346058  93.9846194  10.0215916
 102.9513140  94.7846554  10.2279805 103.5206997  93.9954139   9.0683360
  99.9518778  96.4451845   4.6255148 100.7711667  96.9395924   4.6489985
 100.2255586  95.5283813   4.5972715  95.2053692  90.7789979   5.3247345
  95.8512556  90.2688933   5.8134570  94.9970843  91.5158660   5.8990770
 107.7307084  97.8470826  10.8239485 108.5998244  98.0211479  10.4626120
 107.2513836  98.6665243  10.7015215  99.5451183  87.9257596   9.4222359
 100.4082645  87.5694401   9.6325683  98.9716594  87.5871491  10.1097763
 112.1032684 101.3338313  10.4152330 111.7099630 100.7804511  11.0899975
 112.9198824 101.6448891  10.8058848  95.0021542  57.0100019  -7.1522203
  94.9910182  56.6152818  -8.0241700  95.1642181  56.2766092  -6.5588432
  91.7228803  59.7937131  -8.2043019  91.4318669  60.6982762  -8.3196353
  92.3585787  59.8353659  -7.4898950  96.6818688  59.4798547 -11.2093226
  96.3819411  60.3823585 -11.3177418  96.3369747  59.2130730 -10.3572073
  94.1556697  53.4170732  -5.5860891  93.3790032  53.9764653  -5.5958026
  94.7947260  53.9027515  -5.0646021  92.4103070  56.2256186  -6.0242924
  93.1517754  56.7641230  -6.3008100  91.7040055  56.8522474  -5.8671372
  97.8858409  58.3685326  -7.4270763  98.2941765  57.9267737  -8.1716130
  97.1635671  57.7937954  -7.1736570  97.3888925  50.9662301  -8.3956032
  97.1449857  51.7204362  -8.9321756  97.6648855  51.3447649  -7.5608785
  99.3427388  57.5100914  -9.7178766  99.5544283  58.1532674 -10.3944385
  99.2957136  56.6763230 -10.1856836  91.1464433  53.3795834  -5.2227614
  90.5163094  54.0612115  -4.9892217  91.0400521  53.2678916  -6.1674476
 100.4573215  60.3872869 -11.5456409 101.2790659  59.9853056 -11.8273727
 100.4535618  60.2841103 -10.5940293  94.2229819  59.9356912  -9.3895698
  94.2874251  60.3977320  -8.5537527  93.5140743  59.3054277  -9.2613389
  90.4245176  47.6816600  -2.8602363  90.0312122  47.1282798  -2.1854719
  91.2411317  47.9927178  -2.4695845  95.5646313  62.2248586  -5.3916376
  95.1210167  61.4384965  -5.7095472  96.2263527  62.4127737  -6.0572485
  90.3233434  63.7544388 -10.8655698  90.8740859  63.6261451 -11.6378704
  89.4844910  64.0539277 -11.2160805  97.6627551  62.5051386  -7.3634975
  97.6446026  63.3260267  -7.8554706  98.5847471  62.3805462  -7.1384834
  94.1200605  60.0195516  -6.5211466  94.6528942  59.2583804  -6.7512158
  93.5914686  59.7269168  -5.7787312  96.8945617  53.7621818  -8.7918623
  97.2495005  53.9893291  -7.9324157  97.5417748  54.0940195  -9.4141368
 102.6512734  58.9516781 -13.0758023 103.0849240  58.8592070 -12.2274969
 103.3644314  58.9274282 -13.7138007  96.3840629  62.5518875 -11.5424922
  96.4377651  63.1209812 -10.7747206  95.5155410  62.7220760 -11.9070885
 103.5128283  58.9940482 -10.5425137 103.7064173  59.8986292 -10.2965862
 103.4128901  58.5347901  -9.7086552  98.5743392  59.1447225  -4.9684257
  98.4228898  58.9157776  -5.8854173  98.5648071  60.1017826  -4.9552912
  95.3428728  56.7179137  -9.9837990  96.2720788  56.8690297 -10.1569023
  94.9219758  56.8063158 -10.8389344  94.1417060  60.7429802 -12.2139453
  94.0028146  60.3748586 -11.3413514  93.3531656  61.2577441 -12.3855495
 100.2835599  62.1766347  -6.8907775 100.2248145  61.4925567  -7.5577192
 100.6855117  62.9185337  -7.3427149  89.3026297  68.9928261 -14.0974056
  89.5422896  69.6246785 -13.4195037  88.4595494  68.6416301 -13.8108697
 100.2853006  60.1405931  -8.6593795  99.3979785  59.8031853  -8.5367396
 100.8551557  59.4088962  -8.4225030  93.8154159  64.8007383 -11.6932552
  93.7424331  65.6062355 -11.1813247  93.3731552  64.9999349 -12.5184531
  96.2752843  64.6994217  -9.5374393  96.9880815  65.3341682  -9.6098492
  95.7842871  64.7958083 -10.3534391  91.3264756  62.4488661  -8.7168822
  92.0274216  63.0825144  -8.5639428  90.8559871  62.7903392  -9.4773183
  99.1266042  55.0033268 -10.8916272  98.4737493  55.2509176 -11.5463819
  99.5046422  54.1897407 -11.2253795  95.1753615  55.7453079  -4.4050235
  94.4994252  55.6447209  -3.7347860  95.9981249  55.5892293  -3.9414238
  93.9176398  67.0520007 -10.1692619  94.4694706  67.2151628  -9.4043534
  94.2582592  67.6424445 -10.8412594  98.7687272  61.8781264  -4.3143965
  99.3127176  62.4911223  -4.8089010  98.1874117  62.4360843  -3.7976952
  97.0544785  65.0001982 -13.1828937  96.9295925  64.1991722 -13.6917991
  97.7123877  65.4948176 -13.6714967  99.1179694  62.8011002 -11.5549387
  98.1710029  62.6816354 -11.6271060  99.4662467  61.9133500 -11.4723125
  99.7260249  63.4192277 -14.2680162 100.6506796  63.2135139 -14.4055711
  99.5575552  63.1708679 -13.3590820  94.0642209  64.6178488  -8.1543965
  94.3729336  64.3727635  -7.2821265  94.8617692  64.8225127  -8.6425094
  94.0862822  66.7716398 -15.9238588  93.6467812  66.2792777 -15.2305731
  94.8370938  66.2289366 -16.1646513  91.6061221  50.7936195  -4.2583780
  91.6549377  51.6698318  -4.6406011  92.1483735  50.2513588  -4.8312137
 102.0916067  61.3377318  -4.9782643 101.3011611  61.3201457  -5.5178144
 101.8549421  61.8765612  -4.2233607 102.2113942  58.1869785  -7.6649915
 102.2611947  58.0219792  -6.7234392 102.1027865  57.3197044  -8.0552034
  99.5017704  54.1700713  -6.3490608 100.4027567  54.0307178  -6.6406610
  99.5765679  54.3355168  -5.4092431 103.7132139  60.6066726  -7.4207893
 103.4216947  60.9696707  -6.5844432 103.1004270  59.8933735  -7.5994561
 101.9619327  55.7299341  -8.9527835 102.4373449  55.9226987  -9.7608984
 101.0384892  55.7858527  -9.1984452 100.6620996  52.6065101 -10.7199530
 101.6138419  52.7063199 -10.6987306 100.4924446  51.8143370 -10.2101445
 103.1409074  55.8271221 -11.6057230 103.1085394  54.8887221 -11.4197546
 103.7509697  55.9055257 -12.3391405 107.0400921  55.0295090 -11.8676742
 106.3134084  54.8951055 -12.4760250 106.6248208  55.3371919 -11.0620024
  94.8631097  58.7485020  -4.1029369  95.7834107  58.9263619  -3.9089322
  94.8280680  57.8041065  -4.2549670  92.7321035  52.2319260  -2.0703839
  92.6317762  53.1813617  -2.1391748  92.5142577  51.9037499  -2.9427769
  92.5952305  55.6616399  -3.2538777  92.1119387  56.4616759  -3.0474888
  92.6813244  55.6724344  -4.2071333  89.1125025  58.1222050  -8.6499546
  89.9317914  58.6166129  -8.6264708  89.3861832  57.2054018  -8.6781978
  90.0344997  65.9909870 -13.9881703  89.9177381  66.9355303 -14.0903013
  89.2137443  65.6883432 -13.5995904  96.8913331  59.5241031  -2.4515208
  97.7604491  59.6981683  -2.8128573  96.4120083  60.3435448  -2.5739479
  91.0599511  66.6438132 -10.7725774  91.9626758  66.6761742 -10.4559280
  90.8336881  65.7138583 -10.7579439  92.8153113  65.3969119 -14.1115696
  91.8648744  65.3970980 -14.2251324  93.1185600  64.6501853 -14.6279661
  88.7057430  49.6027801  -3.8532334  89.5688891  49.2464606  -3.6429010
  88.1322841  49.2641696  -3.1656930 105.8415296  72.3391937  -7.1522203
 105.8303937  71.9444735  -8.0241700 106.0035936  71.6058010  -6.5588432
 102.5622557  75.1229049  -8.2043019 102.2712423  76.0274680  -8.3196353
 103.1979542  75.1645576  -7.4898950 111.0280923  62.6077918 -10.6089138
 110.6964248  63.4773329 -10.8327923 110.4326536  62.2914202  -9.9295108
 104.9950452  68.7462650  -5.5860891 104.2183786  69.3056570  -5.5958026
 105.6341015  69.2319433  -5.0646021 103.2496824  71.5548103  -6.0242924
 103.9911509  72.0933147  -6.3008100 102.5433810  72.1814392  -5.8671372
 105.0783234  68.6349851 -10.0537206 105.9244429  69.0589264  -9.9102557
 105.0181872  67.9783475  -9.3598642 108.2282679  66.2954219  -8.3956032
 107.9843611  67.0496280  -8.9321756 108.5042610  66.6739567  -7.5608785
 101.9858188  68.7087752  -5.2227614 101.3556849  69.3904032  -4.9892217
 101.8794276  68.5970833  -6.1674476  97.2803160  68.3759548 -14.2961690
  96.4902214  68.6317076 -14.7721579  97.7714408  69.1907885 -14.1909649
  95.5640863  68.6290038 -11.8646699  95.8148902  69.5137048 -11.5989123
  96.1000412  68.4494640 -12.6371607 101.2638931  63.0108517  -2.8602363
 100.8705876  62.4574716  -2.1854719 102.0805071  63.3219096  -2.4695845
 104.1806892  64.4266397  -5.2682106 104.9216605  65.0273550  -5.3477644
 104.4124815  63.6844034  -5.8264064  99.3248230  69.6122764  -6.9903877
  99.2101745  68.7108021  -6.6896778  98.4692747  69.8586461  -7.3419060
 106.4040067  77.5540504  -5.3916376 105.9603922  76.7676883  -5.7095472
 107.0657281  77.7419655  -6.0572485 104.9594360  75.3487434  -6.5211466
 105.4922696  74.5875722  -6.7512158 104.4308441  75.0561085  -5.7787312
 108.1264055  60.4547499 -10.9917825 107.7828324  61.3449141 -11.0678714
 108.4943017  60.2649157 -11.8548240 107.2060595  62.8252155 -13.0268591
 106.7025391  62.7882290 -13.8400786 107.4991202  63.7344897 -12.9671935
 103.4503481  62.9090884 -14.0202410 104.3156478  62.7133693 -14.3796520
 103.5180990  62.6801236 -13.0933053 107.7339372  69.0913736  -8.7918623
 108.0888759  69.3185209  -7.9324157 108.3811503  69.4232113  -9.4141368
 101.6279235  66.1990267 -12.0072282 102.2678614  66.0579026 -12.7049319
 100.7956765  65.9124780 -12.3833680 100.1032776  67.5828349 -10.0600471
 100.7755830  67.3745711 -10.7087822  99.2762563  67.3850435 -10.4995239
 106.0058348  64.2090290  -8.0434810 105.3586264  64.9080240  -8.1370334
 106.7759364  64.6426434  -7.6758562 109.4137146  74.4739142  -4.9684257
 109.2622653  74.2449694  -5.8854173 109.4041826  75.4309744  -4.9552912
 100.5060274  70.8570952  -9.2998034 100.3680072  70.1251191  -8.6986495
 101.4165197  70.7679852  -9.5813846 103.1342574  70.5690911  -9.8114354
 103.8442193  69.9284104  -9.8527736 103.0911883  70.8203806  -8.8888173
 101.8471508  67.5556129  -7.9918715 101.3108865  67.1046868  -7.3397118
 101.2588217  67.6902038  -8.7348250  97.5810630  66.6912137 -10.9065720
  97.4968818  66.0837807 -11.6415310  96.7593336  67.1821155 -10.9056224
 110.1953338  62.1435294 -13.3916166 109.2816418  62.3739521 -13.2233959
 110.6246440  62.2273738 -12.5402134 106.0147370  71.0744997  -4.4050235
 105.3388007  70.9739126  -3.7347860 106.8375004  70.9184211  -3.9414238
  92.3543884  69.8822534 -13.0633277  92.3927983  69.3486125 -12.2696158
  91.8484176  69.3557739 -13.6822299  99.7334646  64.7287074  -9.5670734
  99.7975972  65.5901905  -9.9793337  99.6701766  64.1161076 -10.2998376
  99.2086918  66.8010207  -5.9197700  99.8358957  66.4187284  -5.3060176
  98.3514837  66.5824409  -5.5542008 109.6081027  77.2073182  -4.3143965
 110.1520931  77.8203140  -4.8089010 109.0267872  77.7652760  -3.7976952
  99.5146708  66.6842633 -14.0051797  98.7933294  67.2978600 -14.1444323
 100.3039964  67.2200397 -14.0835151 102.3173022  64.0197059  -7.7311145
 102.8407424  64.2659356  -6.9684836 102.0985355  64.8517094  -8.1508008
 103.5225567  64.9610754 -10.0461474 103.1822387  64.1618567  -9.6440794
 102.8164573  65.2612465 -10.6184641 104.1742039  62.0460067 -11.5934151
 104.9968108  61.5720545 -11.7155261 104.4180102  62.8250550 -11.0935465
 103.5577000  65.7281735 -13.7361283 103.5438569  64.8322829 -14.0728985
 104.2749428  65.7352399 -13.1022997 105.4103131  66.1619075 -11.6908156
 105.1520909  67.0836146 -11.6923825 104.8788171  65.7649510 -11.0007692
  96.1726279  71.2784532 -10.8454512  95.6279748  72.0544340 -10.7134237
  97.0505629  71.6255336 -11.0035390  96.9592301  70.4054428  -7.9524355
  96.2174037  70.5537063  -7.3659724  96.6385046  70.6662693  -8.8157605
 102.4454976  66.1228113  -4.2583780 102.4943131  66.9990236  -4.6406011
 102.9877490  65.5805506  -4.8312137 110.3411459  69.4992630  -6.3490608
 111.2421322  69.3599095  -6.6406610 110.4159433  69.6647085  -5.4092431
 104.6754264  66.8759485  -7.5037422 103.8057574  67.1693051  -7.7754833
 104.9113744  67.4599930  -6.7830158 107.3793298  63.0939102  -9.9872001
 107.8975242  63.8300129 -10.3125513 107.0248431  63.4003095  -9.1525242
 109.5229130  65.0212602 -10.5340129 108.9279062  65.3017615 -11.2293640
 109.2378827  65.5106503  -9.7623388 105.7024852  74.0776937  -4.1029369
 106.6227861  74.2555537  -3.9089322 105.6674435  73.1332983  -4.2549670
  94.9207017  69.2715531 -15.1776094  94.6009801  68.4180839 -15.4701720
  94.3740445  69.4864109 -14.4218127  98.6986924  71.9877972 -11.4606588
  98.9172934  72.9195080 -11.4418554  99.1112698  71.6285947 -10.6751784
 103.5714790  67.5611178  -2.0703839 103.4711516  68.5105535  -2.1391748
 103.3536332  67.2329417  -2.9427769  94.7895277  72.8918443 -13.2082973
  94.0958748  72.4772395 -13.7213018  95.5368268  72.9338979 -13.8049554
 103.4346060  70.9908317  -3.2538777 102.9513141  71.7908677  -3.0474888
 103.5206999  71.0016262  -4.2071333  99.9518779  73.4513968  -8.6499546
 100.7711668  73.9458046  -8.6264708 100.2255587  72.5345936  -8.6781978
  95.2053693  67.7852101  -7.9507349  95.8512557  67.2751055  -7.4620124
  94.9970845  68.5220783  -7.3763923 107.7307086  74.8532949  -2.4515208
 108.5998245  75.0273601  -2.8128573 107.2513837  75.6727366  -2.5739479
  99.5451184  64.9319718  -3.8532334 100.4082646  64.5756523  -3.6429010
  98.9716595  64.5933613  -3.1656930 112.1032685  78.3400435  -2.8602363
 111.7099631  77.7866634  -2.1854719 112.9198826  78.6511014  -2.4695845
   5.1117949 122.5478062  77.8599104   5.8443121 121.9777279  78.0936933
   4.3557304 122.1599663  78.3005609   2.6343369 116.2599636  82.3193712
   2.3026694 117.1295047  82.0954927   2.0388983 115.9435920  82.9987743
   2.5272032 120.9794723  79.3987062   1.6188910 120.9110131  79.1045823
   2.4759628 121.4566667  80.2268888   4.3933679 119.1811161  81.1764936
   3.7508059 119.4743694  80.5304731   3.8888607 119.0664081  81.9818133
   2.0473843 122.9274334  71.8650795   2.9591699 123.1601721  71.6898493
   1.5383490 123.5111378  71.3025874   4.5332657 128.8454590  76.6108741
   3.8483695 129.2253492  76.0605774   4.6176506 129.4549917  77.3440688
   1.7883588 126.4914549  83.2104084   2.0000484 127.1346309  82.5338465
   1.7413337 125.6576866  82.7426014   2.9029416 129.3686505  81.3826441
   3.7246860 128.9666692  81.1009123   2.8991819 129.2654739  82.3342557
  10.9935409 125.7125253  77.7311413  10.2399118 125.1432651  77.5755417
  11.1282951 125.6787918  78.6782048   4.6711058 126.8510183  72.3790634
   3.8940501 126.5121343  71.9345796   5.3502539 126.8562806  71.7045599
   2.9102365 126.3244165  79.0357242   2.2526039 127.0143426  79.1237371
   3.7142764 126.7140596  79.3791229   1.7207824 124.6788537  77.0861184
   2.2339705 125.3118529  77.5882894   2.3709047 124.0789733  76.7204544
   2.4869620 129.6594539  75.2140327   2.0331947 128.8185449  75.2705517
   1.8563586 130.2955937  75.5515107   1.4302539 120.5886525  76.4440994
   0.6925296 120.0763911  76.7751237   1.6829313 120.1486906  75.6324271
   0.9302559 131.4971035  76.1490145   1.2225533 132.0576092  75.4302510
   1.4401180 131.7899596  76.9043304   1.5314167 113.3662777  77.0382763
   1.8373043 112.5060140  76.7508679   2.2566771 113.9580397  76.8381757
   5.0699555 125.8653890  74.8413556   4.9317453 126.0555486  73.9134746
   4.7135774 126.6273273  75.2981607   5.0968934 127.9330417  79.8524828
   5.5305441 127.8405706  80.7007882   5.8100515 127.9087917  79.2144844
   5.9584484 127.9754118  82.3857713   6.1520374 128.8799928  82.6316988
   5.8585102 127.5161537  83.2196298   1.0199593 128.1260860  87.9598594
   0.8685099 127.8971412  87.0428678   1.0104272 129.0831462  87.9729939
   1.0737668 126.4481075  68.3769295   0.4566838 125.7227903  68.2802348
   0.6054156 127.2090435  68.0336370   2.7291799 131.1579983  86.0375076
   2.6704346 130.4739203  85.3705659   3.1311318 131.8998973  85.5855702
   2.7309207 129.1219567  84.2689055   1.8435985 128.7845489  84.3915454
   3.3007758 128.3902598  84.5057821   7.2126547 124.5327784  79.0305617
   7.2016423 125.4152500  78.6599550   6.3443927 124.1799335  78.8360154
   3.8299122 123.4276425  75.4975783   4.2959574 124.2604417  75.4236086
   4.2806622 122.9621407  76.2021042   1.8975353 129.7720246  72.4961935
   2.1735197 129.6576841  73.4055809   1.0279852 129.3737731  72.4574108
   1.8015785 115.7957012  79.5366684   0.8878864 116.0261239  79.7048891
   2.2308886 115.8795456  80.3880717   1.5722243 123.9846904  82.0366578
   0.9193693 124.2322812  81.3819031   1.9502623 123.1711042  81.7029056
   1.2143473 130.8594900  88.6138886   1.7583377 131.4724858  88.1193841
   0.6330318 131.4174479  89.1305899   1.5635895 131.7824638  81.3733464
   0.6166230 131.6629989  81.3011790   1.9118668 130.8947136  81.4559725
   2.1716450 132.4005913  78.6602689   3.0962997 132.1948775  78.5227140
   2.0031753 132.1522314  79.5692030   1.9611766 132.9191581  74.0164780
   2.1348644 132.3538003  73.2638633   2.4540657 133.7192476  73.8344270
   7.8151157 125.6828004  75.6355080   8.2582303 124.9335329  75.2374203
   6.9377667 125.6738140  75.2528812   2.9486938 132.2358345  71.1161678
   3.6437843 132.8565038  71.3348993   3.2910089 131.3853696  71.3914056
   4.8478362 129.6858051  72.6449009   5.3729686 130.0245323  71.9198329
   4.7600714 128.7505066  72.4612144   4.5372268 130.3190954  87.9500207
   3.7467811 130.3015093  87.4104707   4.3005622 130.8579248  88.7049244
   4.6570143 127.1683421  85.2632936   4.7068148 127.0033428  86.2048458
   4.5484066 126.3010680  84.8730816   1.9473905 123.1514349  86.5792242
   2.8483768 123.0120813  86.2876240   2.0221880 123.3168803  87.5190420
   6.1588340 129.5880362  85.5074957   5.8673148 129.9510343  86.3438418
   5.5460471 128.8747370  85.3288289   7.3584022 127.1533242  78.0277527
   8.1930913 127.5923046  78.1915088   7.4943151 126.6771895  77.2085773
   4.4075528 124.7112977  83.9755015   4.8829649 124.9040623  83.1673867
   3.4841093 124.7672163  83.7298399   3.1077197 121.5878737  82.2083321
   4.0594620 121.6876834  82.2295545   2.9380647 120.7957005  82.7181405
   1.1291576 118.6734320  82.3942722   0.5341508 118.9539333  81.6989210
   0.8441273 119.1628221  83.1659463   2.8887083 131.9423117  68.1149302
   2.8100715 131.6082981  69.0085060   3.7096750 132.4344885  68.1140774
   5.5865275 124.8084856  81.3225620   5.5541595 123.8700857  81.5085304
   6.1965898 124.8868893  80.5891445   5.7359763 121.5995900  81.3683904
   5.2198812 120.8154357  81.1813833   6.6199712 121.2714617  81.5330423
   3.3970490 115.3436915  77.3279716   3.1995311 115.0352004  78.2123048
   4.0070196 116.0698554  77.4577646  11.4041824 125.8700863  80.4631657
  12.1345213 125.6086151  81.0239361  10.7948770 125.1329585  80.5033725
   9.4857122 124.0108726  81.0606108   8.7590285 123.8764691  80.4522600
   9.0704408 124.3185555  81.8662826   2.5322944 117.3346348  74.5854912
   1.9521613 117.9931152  74.2032964   2.2658876 116.5123692  74.1742329
   0.9826510 116.7351405  76.7876232   1.4826288 116.8467940  75.9790551
   1.6262118 116.4312458  77.4277041   1.3147822 119.4946438  73.6411260
   0.4273677 119.7796089  73.4231455   1.7301811 119.3340201  72.7938537
   4.6662358 119.5192959  77.3565599   5.4422748 120.0089411  77.6290216
   3.9410492 119.9451013  77.8137469   7.1034916 120.2320578  78.4139540
   7.6979407 119.9916314  77.7032848   7.1761500 119.5127709  79.0413076
   1.2888845 125.0100974  73.8561550   1.2324047 125.4669525  73.0169183
   1.8417188 124.2491658  73.6784393   5.0993651 120.7990706  74.6811670
   4.8430586 120.3987341  75.5119878   4.4746519 121.5134500  74.5561809
   9.4105989 123.5386779  77.1882961   8.8505547 123.6079968  77.9614523
   8.8049493 123.3627764  76.4682457   2.3677733 129.6973642  69.7857740
   3.2023336 129.2654840  69.6035215   2.2062075 129.5255655  70.7134635
   2.0223625 126.2005755  71.1514080   1.9672429 126.0350027  70.2102524
   1.3969680 126.9081788  71.3076269  15.9511703 137.8769980  77.8599104
  16.6836875 137.3069197  78.0936933  15.1951059 137.4891580  78.3005609
  13.4737124 131.5891554  82.3193712  13.1420448 132.4586965  82.0954927
  12.8782737 131.2727838  82.9987743   7.2093310 135.3287121  70.0523794
   7.3767712 136.1967358  70.4194266   7.0190479 135.4914403  69.1285084
  13.3665787 136.3086640  79.3987062  12.4582664 136.2402049  79.1045823
  13.3153383 136.7858585  80.2268888  15.2327433 134.5103079  81.1764936
  14.5901814 134.8035612  80.5304731  14.7282362 134.3955999  81.9818133
  10.6738880 135.2767855  84.5326819  10.4299812 136.0309915  83.9961094
  10.9498811 135.6553202  85.3674066  10.2303572 134.4324288  80.1140656
   9.3688051 134.7305541  80.4057394  10.2566006 134.6494687  79.1821689
  21.8329164 141.0417171  77.7311413  21.0792872 140.4724569  77.5755417
  21.9676705 141.0079836  78.6782048   3.7095131 131.9922153  90.0680488
   3.3162077 131.4388352  90.7428132   4.5261272 132.3032732  90.4587005
   6.6263092 133.4080032  87.6600744   7.3672806 134.0087185  87.5805207
   6.8581015 132.6657670  87.1018787  10.5720255 129.4361135  81.9365026
  10.2284525 130.3262777  81.8604136  10.9399218 129.2462793  81.0734611
   8.1217649 134.2719447  75.5022699   7.2659246 133.8826298  75.3228338
   8.5344601 134.3511408  74.6422485   9.6516796 131.8065790  79.9014259
   9.1481591 131.7695926  79.0882064   9.9447403 132.7158533  79.9610916
   5.8959682 131.8904520  78.9080441   6.7612678 131.6947329  78.5486330
   5.9637191 131.6614872  79.8349797  10.3256841 137.2996838  72.2697242
  10.0206977 137.6142988  73.1207385  11.2787283 137.3778258  72.3124575
   3.5022001 134.1206728  76.2796808   4.0765753 133.8981910  75.5470000
   4.0892983 134.1895423  77.0325409   5.8044668 130.9947977  75.0071877
   5.1509081 130.6796994  74.3828492   5.7625143 130.3723717  75.7331700
  12.2696294 135.9178442  76.4440994  11.5319051 135.4055829  76.7751237
  12.5223067 135.4778824  75.6324271  12.3707921 128.6954694  77.0382763
  12.6766798 127.8352058  76.7508679  13.0960526 129.2872315  76.8381757
   4.0735436 135.1803903  80.9210568   4.7134815 135.0392662  80.2233532
   3.2412966 134.8938416  80.5449170   8.4514549 133.1903926  84.8848041
   7.8042464 133.8893875  84.7912517   9.2215565 133.6240070  85.2524289
  10.1990544 134.1579336  77.3887325  10.6959244 133.4049299  77.0688396
   9.4277526 134.1943653  76.8230535   6.7825513 136.2996719  77.1159010
   6.4123301 135.7467760  77.8039916   7.2784605 135.6954853  76.5634010
  12.6409539 131.1248930  79.5366684  11.7272619 131.3553157  79.7048891
  13.0702641 131.2087374  80.3880717   2.1790847 133.7100710  83.3612116
   2.2432173 134.5715541  82.9489514   2.1157967 133.0974712  82.6284475
   4.7629222 133.0010695  85.1971706   5.2863624 133.2472991  85.9598015
   4.5441556 133.8330730  84.7774843   5.9681768 133.9424390  82.8821376
   5.6278588 133.1432203  83.2842056   5.2620774 134.2426101  82.3098209
   6.6198239 131.0273702  81.3348699   7.4424309 130.5534181  81.2127589
   6.8636303 131.8064186  81.8347385   5.2606474 134.0561961  71.6311601
   5.9814836 134.4343214  71.1275318   4.6371778 134.7750838  71.7346579
   9.4037597 134.7607110  72.5669933   9.6201211 135.6431748  72.2658761
   8.9231664 134.3693323  71.8375575   6.0033201 134.7095371  79.1921567
   5.9894770 133.8136464  78.8553865   6.7205629 134.7166035  79.8259853
   7.8559332 135.1432711  81.2374695   7.5977110 136.0649782  81.2359025
   7.3244372 134.7463146  81.9275159   5.4070097 133.5909751  74.4609137
   5.5286008 132.6626397  74.6600025   5.1172139 133.6048437  73.5487453
   8.2761287 131.2764662  77.5975857   8.2982984 131.3403995  76.6427837
   8.6929346 130.4369170  77.7916363  12.7867660 138.4806266  86.5792242
  13.6877522 138.3412731  86.2876240  12.8615634 138.6460721  87.5190420
   7.1210465 135.8573121  85.4245429   6.2513774 136.1506687  85.1528017
   7.3569945 136.4413566  86.1452692   9.8249499 132.0752738  82.9410849
  10.3431443 132.8113765  82.6157338   9.4704632 132.3816731  83.7757608
  10.0762093 128.4953020  78.4611746  10.3563847 127.8276210  79.0872172
  10.8612700 128.6882116  77.9486410  13.9470951 136.9170654  82.2083321
  14.8988374 137.0168752  82.2295545  13.7774402 136.1248923  82.7181405
  11.9685331 134.0026238  82.3942722  11.3735263 134.2831250  81.6989210
  11.6835027 134.4920139  83.1659463  16.5753518 136.9287818  81.3683904
  16.0592566 136.1446274  81.1813833  17.4593466 136.6006534  81.5330423
  14.2364244 130.6728833  77.3279716  14.0389066 130.3643921  78.2123048
  14.8463950 131.3990472  77.4577646  22.2435579 141.1992781  80.4631657
  22.9738967 140.9378069  81.0239361  21.6342524 140.4621503  80.5033725
  20.3250876 139.3400644  81.0606108  19.5984040 139.2056609  80.4522600
  19.9098163 139.6477472  81.8662826   8.0647343 131.4759693  73.4551951
   7.2548071 131.1306778  73.8307197   8.7531760 131.1667237  74.0439563
   9.9937891 130.5537740  75.0776248  10.5468930 130.9733193  75.7366271
  10.2307977 129.6273488  75.1199204   5.2184062 133.7909739  67.4419689
   6.0803226 134.1164637  67.7015506   5.4034406 133.0041235  66.9292755
  13.3716698 132.6638265  74.5854912  12.7915367 133.3223069  74.2032964
  13.1052631 131.8415610  74.1742329  11.8220265 132.0643323  76.7876232
  12.3220043 132.1759857  75.9790551  12.4655872 131.7604376  77.4277041
  12.1541576 134.8238356  73.6411260  11.2667431 135.1088006  73.4231455
  12.5695565 134.6632119  72.7938537  15.5056112 134.8484877  77.3565599
  16.2816502 135.3381329  77.6290216  14.7804246 135.2742931  77.8137469
  17.9428671 135.5612496  78.4139540  18.5373162 135.3208232  77.7032848
  18.0155255 134.8419626  79.0413076  15.9387406 136.1282623  74.6811670
  15.6824340 135.7279259  75.5119878  15.3140274 136.8426417  74.5561809
  20.2499744 138.8678697  77.1882961  19.6899302 138.9371886  77.9614523
  19.6443247 138.6919681  76.4682457   6.1713505 131.0305782  70.7299398
   6.1592175 131.9747622  70.8867669   7.0636927 130.8475927  70.4358859
   9.9865624 127.6248558  74.9845335   9.2198020 127.0707045  75.1302017
  10.3976329 127.6970427  75.8459486   1.9907385 133.9133354  89.0750516
   2.8538847 133.5570159  89.2853841   1.4172796 133.5747249  89.7625920
   5.1117950  99.5540185  64.5844410   5.8443122  98.9839402  64.8182240
   4.3557306  99.1661785  65.0250916   2.6343370  93.2661759  69.0439019
   2.3026695  94.1357170  68.8200234   2.0388984  92.9498043  69.7233049
   2.5272034  97.9856845  66.1232369   1.6188911  97.9172254  65.8291130
   2.4759629  98.4628790  66.9514194   4.3933680  96.1873284  67.9010243
   3.7508060  96.4805817  67.2550037   3.8888609  96.0726204  68.7063439
   2.0473844  99.9336457  58.5896102   2.9591700 100.1663843  58.4143800
   1.5383491 100.5173501  58.0271181   4.5332658 105.8516713  63.3354047
   3.8483696 106.2315614  62.7851081   4.6176507 106.4612040  64.0685995
   1.7883590 103.4976672  69.9349391   2.0000485 104.1408432  69.2583772
   1.7413338 102.6638989  69.4671321   2.9029418 106.3748627  68.1071748
   3.7246861 105.9728815  67.8254430   2.8991820 106.2716862  69.0587864
  10.9935411 102.7187376  64.4556720  10.2399119 102.1494774  64.3000724
  11.1282952 102.6850040  65.4027354   4.6711059 103.8572306  59.1035941
   3.8940502 103.5183465  58.6591103   5.3502540 103.8624929  58.4290906
   2.9102366 103.3306287  65.7602549   2.2526040 104.0205549  65.8482678
   3.7142765 103.7202719  66.1036535   1.7207825 101.6850660  63.8106491
   2.2339707 102.3180652  64.3128200   2.3709049 101.0851855  63.4449851
   2.4869621 106.6656661  61.9385633   2.0331948 105.8247571  61.9950824
   1.8563588 107.3018060  62.2760414   1.4302541  97.5948647  63.1686301
   0.6925297  97.0826034  63.4996543   1.6829314  97.1549029  62.3569578
   0.9302560 108.5033158  62.8735451   1.2225535 109.0638215  62.1547817
   1.4401181 108.7961719  63.6288611   1.5314168  90.3724899  63.7628070
   1.8373045  89.5122263  63.4753985   2.2566773  90.9642520  63.5627064
   5.0699556 102.8716013  61.5658863   4.9317455 103.0617608  60.6380052
   4.7135775 103.6335395  62.0226914   5.0968936 104.9392540  66.5770134
   5.5305442 104.8467829  67.4253188   5.8100516 104.9150040  65.9390150
   5.9584485 104.9816240  69.1103020   6.1520375 105.8862051  69.3562295
   5.8585103 104.5223659  69.9441605   1.0199594 105.1322983  74.6843900
   0.8685100 104.9033535  73.7673984   1.0104273 106.0893584  74.6975245
   1.0737669 103.4543197  55.1014602   0.4566840 102.7290025  55.0047655
   0.6054157 104.2152557  54.7581676   2.7291801 108.1642105  72.7620382
   2.6704347 107.4801326  72.0950965   3.1311319 108.9061095  72.3101008
   2.7309208 106.1281689  70.9934362   1.8435987 105.7907611  71.1160761
   3.3007759 105.3964721  71.2303127   7.2126548 101.5389907  65.7550924
   7.2016425 102.4214622  65.3844857   6.3443928 101.1861458  65.5605461
   3.8299123 100.4338548  62.2221090   4.2959575 101.2666539  62.1481392
   4.2806624  99.9683529  62.9266348   1.8975354 106.7782369  59.2207242
   2.1735198 106.6638964  60.1301116   1.0279853 106.3799854  59.1819415
   1.8015786  92.8019135  66.2611991   0.8878866  93.0323362  66.4294198
   2.2308887  92.8857579  67.1126023   1.5722244 100.9909027  68.7611885
   0.9193695 101.2384934  68.1064338   1.9502624 100.1773165  68.4274362
   1.2143475 107.8657023  75.3384193   1.7583379 108.4786981  74.8439147
   0.6330319 108.4236601  75.8551206   1.5635896 108.7886761  68.0978770
   0.6166231 108.6692112  68.0257097   1.9118669 107.9009259  68.1805032
   2.1716451 109.4068036  65.3847995   3.0962998 109.2010897  65.2472446
   2.0031754 109.1584437  66.2937337   1.9611767 109.9253703  60.7410087
   2.1348645 109.3600126  59.9883939   2.4540658 110.7254598  60.5589577
   7.8151158 102.6890126  62.3600387   8.2582304 101.9397451  61.9619510
   6.9377669 102.6800263  61.9774119   2.9486940 109.2420468  57.8406985
   3.6437844 109.8627160  58.0594300   3.2910090 108.3915819  58.1159363
   4.8478363 106.6920173  59.3694316   5.3729687 107.0307446  58.6443636
   4.7600715 105.7567188  59.1857450   4.5372269 107.3253077  74.6745514
   3.7467813 107.3077216  74.1350013   4.3005623 107.8641370  75.4294550
   4.6570144 104.1745543  71.9878242   4.7068149 104.0095551  72.9293765
   4.5484067 103.3072802  71.5976123   1.9473906 100.1576471  73.3037549
   2.8483769 100.0182936  73.0121547   2.0221881 100.3230926  74.2435726
   6.1588341 106.5942485  72.2320264   5.8673149 106.9572465  73.0683725
   5.5460472 105.8809493  72.0533596   7.3584023 104.1595364  64.7522834
   8.1930914 104.5985169  64.9160394   7.4943152 103.6834018  63.9331080
   4.4075529 101.7175099  70.7000322   4.8829651 101.9102746  69.8919173
   3.4841094 101.7734285  70.4543706   3.1077198  98.5940859  68.9328627
   4.0594621  98.6938957  68.9540851   2.9380648  97.8019128  69.4426712
   1.1291577  95.6796443  69.1188028   0.5341510  95.9601455  68.4234517
   0.8441274  96.1690344  69.8904769   2.8887085 108.9485240  54.8394608
   2.8100716 108.6145103  55.7330366   3.7096751 109.4407008  54.8386081
   5.5865276 101.8146979  68.0470927   5.5541596 100.8762980  68.2330611
   6.1965899 101.8931016  67.3136752   5.7359764  98.6058023  68.0929210
   5.2198813  97.8216479  67.9059139   6.6199713  98.2776739  68.2575730
   3.3970491  92.3499038  64.0525023   3.1995312  92.0414126  64.9368355
   4.0070197  93.0760677  64.1822953  11.4041826 102.8762986  67.1876964
  12.1345214 102.6148274  67.7484667  10.7948771 102.1391708  67.2279032
   9.4857123 101.0170849  67.7851415   8.7590286 100.8826813  67.1767907
   9.0704410 101.3247677  68.5908133   2.5322945  94.3408470  61.3100219
   1.9521614  94.9993274  60.9278271   2.2658878  93.5185815  60.8987636
   0.9826511  93.7413528  63.5121539   1.4826290  93.8530062  62.7035858
   1.6262119  93.4374581  64.1522347   1.3147823  96.5008561  60.3656567
   0.4273678  96.7858211  60.1476762   1.7301812  96.3402324  59.5183844
   4.6662359  96.5255081  64.0810906   5.4422749  97.0151534  64.3535523
   3.9410493  96.9513136  64.5382776   7.1034918  97.2382701  65.1384847
   7.6979409  96.9978437  64.4278155   7.1761501  96.5189831  65.7658383
   1.2888847 102.0163096  60.5806857   1.2324048 102.4731648  59.7414489
   1.8417189 101.2553781  60.4029700   5.0993653  97.8052828  61.4056976
   4.8430587  97.4049464  62.2365184   4.4746521  98.5196622  61.2807116
   9.4105990 100.5448902  63.9128268   8.8505548 100.6142091  64.6859830
   8.8049494 100.3689886  63.1927764   2.3677734 106.7035764  56.5103047
   3.2023338 106.2716963  56.3280522   2.2062077 106.5317778  57.4379941
   2.0223626 103.2067878  57.8759386   1.9672430 103.0412149  56.9347830
   1.3969681 103.9143911  58.0321576  10.9962009 117.2205415  66.6058224
  11.6340419 117.1012163  65.9021564  10.8782852 118.1686259  66.6646176
   7.8051715 117.1732844  66.5419748   7.4670227 117.0573908  65.6540283
   8.6741483 116.7724009  66.5220754   3.6638531 119.0268320  62.5316639
   3.1003396 118.9358257  61.7632927   3.5490926 118.2068224  63.0119132
   8.2871498 118.3267695  72.5005954   8.2760139 117.9320494  71.6286457
   8.4492138 117.5933768  73.0939725   1.2102963 120.5219512  65.3700860
   2.0024255 120.1810336  64.9547159   1.4499613 120.6314487  66.2903013
   9.2438090 122.6939288  57.8431104   8.5926069 123.2793368  57.4565118
  10.0382452 123.2245483  57.9026142   3.1693717 119.7828425  58.2418239
   3.9424593 119.2357412  58.1031114   3.5219116 120.6472674  58.4532700
   5.0078759 121.1104807  71.4485138   4.7168625 122.0150438  71.3331804
   5.6435744 121.1521335  72.1629207   5.9334966 118.4881656  68.0386497
   6.5298538 118.2637678  67.3243460   5.9909938 117.7466401  68.6411945
   5.5059995 115.9421091  55.8736688   5.7585515 115.4202612  55.1120151
   4.5684554 115.7787236  55.9763372  10.5503277 114.9456869  63.6811432
  11.3366367 114.5276293  63.3301849  10.8141982 115.8502962  63.8493080
  10.7213355 120.3829720  58.3800088  10.0859188 120.4564346  59.0920993
  10.3910761 120.9723318  57.7019168  15.9511705 114.8832103  64.5844410
  16.6836876 114.3131319  64.8182240  15.1951060 114.4953703  65.0250916
   5.2256283 117.8449197  58.0761063   5.1092541 117.1694100  58.7442148
   5.3358543 117.3581571  57.2593216   7.5687824 117.3059344  61.7807753
   7.2046031 116.7789965  62.4920674   8.4254940 116.9157813  61.6074238
  13.4737125 108.5953677  69.0439019  13.1420450 109.4649088  68.8200234
  12.8782738 108.2789961  69.7233049   7.2093311 112.3349244  56.7769101
   7.3767714 113.2029480  57.1439572   7.0190480 112.4976525  55.8530390
   9.9668644 120.7966223  68.4434932   9.6669367 121.6991261  68.3350739
   9.6219704 120.5298406  69.2956084   3.4181126 117.2480019  64.4771636
   2.4931622 117.1156234  64.6849328   3.6665539 118.0274239  64.9741578
  13.3665788 113.3148763  66.1232369  12.4582666 113.2464171  65.8291130
  13.3153384 113.7920708  66.9514194   7.1882532 114.7906901  57.7615768
   7.0682157 115.2363952  58.6001248   6.4935120 115.1392219  57.2029306
   4.9489424 127.5610543  61.4105899   4.8713454 128.5118368  61.4894380
   4.3451068 127.2156415  62.0680826   7.4406654 114.7338408  74.0667266
   6.6639988 115.2932329  74.0570131   8.0797217 115.2195191  74.5882136
  15.2327435 111.5165201  67.9010243  14.5901815 111.8097734  67.2550037
  14.7282363 111.4018122  68.7063439  12.8867598 115.2628374  58.5896102
  13.7985454 115.4955761  58.4143800  12.3777245 115.8465419  58.0271181
   5.6953026 117.5423862  73.6285233   6.4367711 118.0808906  73.3520057
   4.9890012 118.1690151  73.7856785  11.1708366 119.6853002  72.2257395
  11.5791722 119.2435413  71.4812027  10.4485627 119.1105630  72.4791587
   7.5239436 114.6225609  69.5990952   8.3700631 115.0465023  69.7425601
   7.4638074 113.9659233  70.2929515  11.4937181 120.2454193  65.9809683
  10.8646043 120.4099907  65.2785751  11.1062843 120.6595802  66.7520647
  15.3726412 121.1808631  63.3354047  14.6877451 121.5607532  62.7851081
  15.4570262 121.7903957  64.0685995  10.6738881 112.2829977  71.2572125
  10.4299813 113.0372038  70.7206401  10.9498812 112.6615325  72.0919372
  12.6277344 118.8268590  69.9349391  12.8394239 119.4700350  69.2583772
  12.5807092 117.9930906  69.4671321  10.2303573 111.4386410  66.8385963
   9.3688052 111.7367664  67.1302700  10.2566008 111.6556809  65.9066996
   7.0465142 119.9828601  63.2459769   7.5103488 120.2616304  62.4564391
   6.7821941 119.0812046  63.0632859   3.9389224 119.5300082  66.1839532
   4.5090581 119.9587351  65.5457016   4.5297335 119.2482667  66.8823717
   5.9834029 116.1051753  60.0549334   6.6858072 116.5572797  60.5223260
   5.6514657 115.4635572  60.6829227   4.4314390 114.6963510  74.4300543
   3.8013051 115.3779791  74.6635940   4.3250478 114.5846592  73.4853681
  13.7423172 121.7040545  68.1071748  14.5640616 121.3020732  67.8254430
  13.7385575 121.6008779  69.0587864   1.6774108 114.7279885  62.3149944
   0.8805271 114.8398579  62.8333440   1.4499700 115.0666537  61.4490834
   7.5079775 121.2524588  70.2632459   7.5724208 121.7144996  71.0990630
   6.7990699 120.6221953  70.3914768  21.8329165 118.0479294  64.4556720
  21.0792873 117.4786692  64.3000724  21.9676706 118.0141958  65.4027354
   7.2227793 122.9192696  60.1311439   7.0873468 123.7644232  60.5596287
   7.7637606 123.1211974  59.3677373   3.7095133 108.9984276  76.7925794
   3.3162078 108.4450474  77.4673438   4.5261273 109.3094854  77.1832312
   0.6757191 120.4368134  60.7039364   1.1881711 121.2311384  60.8544929
   1.3279903 119.7394424  60.6372965   2.4852075 123.5533890  62.7862117
   2.6618704 124.4751855  62.5983101   3.2808909 123.2392309  63.2156497
   6.6263094 110.4142155  74.3846051   7.3672807 111.0149308  74.3050513
   6.8581017 109.6719793  73.8264093   1.7704432 115.5998522  72.6624280
   1.6557947 114.6983779  72.9631379   0.9148950 115.8462219  72.3109097
   8.8496270 123.5416262  74.2611781   8.4060124 122.7552641  73.9432685
   9.5113483 123.7295413  73.5955672   3.6083391 125.0712064  68.7872460
   4.1590816 124.9429127  68.0149453   2.7694867 125.3706953  68.4367352
  10.9477508 123.8219062  72.2893182  10.9295983 124.6427943  71.7973451
  11.8697428 123.6973138  72.5143323   7.4050562 121.3363192  73.1316691
   7.9378899 120.5751480  72.9015999   6.8764643 121.0436844  73.8740845
  10.5720257 106.4423258  68.6610332  10.2284526 107.3324900  68.5849443
  10.9399219 106.2524915  67.7979917  10.5370539 116.4331869  57.1682768
  10.0217163 117.2036474  57.4071155  10.2647848 115.7597005  57.7915829
   8.1217650 111.2781570  62.2268006   7.2659247 110.8888420  62.0473645
   8.5344602 111.3573531  61.3667791   9.6516797 108.8127913  66.6259566
   9.1481593 108.7758048  65.8127371   9.9447404 109.7220656  66.6856222
   5.8959683 108.8966643  65.6325747   6.7612680 108.7009451  65.2731637
   5.9637192 108.6676994  66.5595104  15.5104814 119.1864224  59.1035941
  14.7334256 118.8475383  58.6591103  16.1896295 119.1916847  58.4290906
  10.3256843 114.3058961  58.9942549  10.0206978 114.6205110  59.8452692
  11.2787285 114.3840381  59.0369882   8.7703274 120.4649184  60.6435503
   8.2424636 119.7301944  60.3308740   8.2690777 121.2423861  60.3975471
  13.7496120 118.6598205  65.7602549  13.0919795 119.3497466  65.8482678
  14.5536520 119.0494637  66.1036535   3.5022002 111.1268851  63.0042114
   4.0765754 110.9044032  62.2715307   4.0892984 111.1957545  63.7570715
  12.5601579 117.0142578  63.8106491  13.0733461 117.6472569  64.3128200
  13.2102803 116.4143773  63.4449851   3.8291589 113.1573312  57.0237999
   2.9928901 113.4947998  57.3447274   3.6896359 113.0222291  56.0865136
   5.8044670 108.0010100  61.7317184   5.1509082 107.6859117  61.1073798
   5.7625144 107.3785840  62.4577007   6.9155875 118.2829395  53.6470476
   6.0082936 118.0518648  53.8461625   7.4126907 117.4867014  53.8344457
   9.8223953 126.9926902  56.5667162   9.1485652 127.2958599  57.1752120
  10.2089775 127.7955982  56.2172619   9.0382410 114.4892033  66.0564831
   8.1204971 114.7106980  65.8986519   9.4542554 114.5638344  65.1976539
   9.8217458 115.8883449  61.1867511  10.5689277 116.4004846  60.8774634
  10.0909047 115.5667501  62.0471905   8.0944108 118.3841989  58.1694466
   7.1855327 118.1001022  58.2666936   8.1239192 118.8041068  57.3097773
  13.3263375 121.9948579  61.9385633  12.8725703 121.1539489  61.9950824
  12.6957342 122.6309977  62.2760414  12.2696295 112.9240565  63.1686301
  11.5319052 112.4117951  63.4996543  12.5223069 112.4840947  62.3569578
  11.7696315 123.8325076  62.8735451  12.0619289 124.3930133  62.1547817
  12.2794935 124.1253637  63.6288611  12.3707922 105.7016817  63.7628070
  12.6766799 104.8414180  63.4753985  13.0960527 106.2934437  63.5627064
   6.6429002 115.9970610  64.2704261   6.6977612 115.0444446  64.1946738
   5.8320204 116.1530049  64.7545560   7.7920196 119.9250733  55.5082544
   7.3539626 119.2086592  55.0488182   8.5330637 120.1526848  54.9467636
   4.5821362 114.6147670  62.0294640   3.7689228 114.9141840  62.4359832
   5.0780356 114.2203359  62.7469122   6.7329940 124.6105427  63.9628905
   6.6906119 124.8366273  63.0337437   7.6492639 124.3768801  64.1114706
  10.1795574 115.0789494  70.8609534  10.5344961 115.3060967  71.7204000
  10.8267705 115.4107871  70.2386789  15.9093311 118.2007930  61.5658863
  15.7711209 118.3909526  60.6380052  15.5529529 118.9627313  62.0226914
   4.0735437 112.1866025  67.6455875   4.7134816 112.0454784  66.9478838
   3.2412967 111.9000539  67.2694477  15.9362690 120.2684457  66.5770134
  16.3699197 120.1759746  67.4253188  16.6494271 120.2441958  65.9390150
   4.8495741 121.4868456  63.7590867   5.6436339 120.9918776  63.5573442
   4.1387433 120.9586319  63.3958573   9.6690585 123.8686551  68.1103235
   9.7227607 124.4377488  68.8780951   8.8005367 124.0388436  67.7457272
   1.0764053 112.1566350  62.4228862   1.3370870 113.0711684  62.3138022
   1.8981226 111.6890793  62.5725475   2.5488979 113.5704108  69.5927686
   3.2212032 113.3621470  68.9440335   1.7218765 113.3726194  69.1532919
  16.7978240 120.3108158  69.1103020  16.9914130 121.2153968  69.3562295
  16.6978858 119.8515577  69.9441605   8.4514551 110.1966048  71.6093347
   7.8042466 110.8955998  71.5157824   9.2215566 110.6302192  71.9769595
  11.8593348 120.4614901  74.6843900  11.7078855 120.2325452  73.7673984
  11.8498028 121.4185502  74.6975245   8.6278685 118.0346813  69.6690167
   9.5570745 118.1857973  69.4959134   8.2069715 118.1230834  68.8138813
   7.4267017 122.0597478  67.4388705   7.2878102 121.6916262  68.3114643
   6.6381613 122.5745117  67.2672662   8.0215169 127.1606574  58.7814241
   8.1966924 126.6894617  59.5959864   7.3347957 127.7872340  59.0095502
   8.9772232 121.4379080  64.8277542   8.6422064 121.3979850  65.7235192
   8.4776177 120.7723796  64.3547953   2.9516476 116.8446710  70.3530123
   2.8136274 116.1126949  70.9541662   3.8621399 116.7555611  70.0714311
  11.9131423 118.7835115  55.1014602  11.2960594 118.0581943  55.0047655
  11.4447912 119.5444475  54.7581676   5.5798776 116.5566670  69.8413803
   6.2898395 115.9159862  69.8000422   5.5368085 116.8079565  70.7639984
  13.5685555 123.4934023  72.7620382  13.5098101 122.8093243  72.0950965
  13.9705073 124.2353013  72.3101008   4.2927710 113.5431888  71.6609443
   3.7565067 113.0922626  72.3131039   3.7044419 113.6777797  70.9179907
   2.5876254 130.3095937  65.5554101   2.8272852 130.9414461  66.2333120
   1.7445450 129.9583977  65.8419460   3.7029969 113.0020539  54.2235906
   2.8259436 112.8809340  53.8598153   4.1787722 112.2106617  53.9714795
  13.5702962 121.4573607  70.9934362  12.6829741 121.1199529  71.1160761
  14.1401513 120.7256638  71.2303127   7.1004116 126.1175059  67.9595605
   7.0274287 126.9230031  68.4714910   6.6581509 126.3167025  67.1343627
   6.8893895 125.3546829  61.4698427   6.1061417 125.8968510  61.5636651
   7.5886641 125.8720809  61.8692668  10.1990546 111.1641459  64.1132632
  10.6959245 110.4111421  63.7933702   9.4277527 111.2005776  63.5475841
  18.0520303 116.8681824  65.7550924  18.0410179 117.7506540  65.3844857
  17.1837682 116.5153375  65.5605461   9.5602799 126.0161893  70.1153764
  10.2730772 126.6509358  70.0429665   9.0692828 126.1125759  69.2993766
  11.2820326 119.9213146  61.6871056  10.3476605 120.0414609  61.5175760
  11.4596995 119.0185613  61.4231065   6.7825514 113.3058842  63.8404317
   6.4123302 112.7529882  64.5285222   7.2784607 112.7016975  63.2879317
  14.6692878 115.7630465  62.2221090  15.1353330 116.5958457  62.1481392
  15.1200378 115.2975447  62.9266348   4.6114713 123.7656337  70.9359335
   5.3124172 124.3992820  71.0888729   4.1409828 124.1071068  70.1754974
  12.7369109 122.1074287  59.2207242  13.0128953 121.9930881  60.1301116
  11.8673607 121.7091772  59.1819415  12.6409540 108.1311052  66.2611991
  11.7272620 108.3615279  66.4294198  13.0702642 108.2149496  67.1126023
  12.4115999 116.3200944  68.7611885  11.7587449 116.5676852  68.1064338
  12.7896379 115.5065083  68.4274362   9.3723173 126.3560638  62.8640055
   9.5545567 125.5382293  63.3267808  10.1956159 126.5728330  62.4264945
   9.7065338 125.2828823  60.1255104  10.2353105 124.7721277  59.5125266
   9.9693558 124.9671353  60.9900637   8.4603572 117.0620755  75.2477922
   7.7844209 116.9614885  75.9180297   9.2831206 116.9059969  75.7113919
   3.0621086 126.3343939  62.8852880   2.3931461 126.8190067  62.4016920
   2.9233956 126.5813160  63.7996258   7.2026355 128.3687683  69.4835538
   7.7544663 128.5319304  70.2484623   7.5432548 128.9592121  68.8115563
   2.1790848 110.7162833  70.0857423   2.2432174 111.5777664  69.6734821
   2.1157968 110.1036834  69.3529781   1.6543120 112.7885965  73.7330457
   2.2815159 112.4063043  74.3467981   0.7971039 112.5700167  74.0986150
  12.0537229 123.1948940  75.3384193  12.5977133 123.8078899  74.8439147
  11.4724074 123.7528519  75.8551206  10.3394742 126.3169658  66.4699220
  10.2145881 125.5159398  65.9610166  10.9973833 126.8115852  65.9813190
   1.9602910 112.6718391  65.6476360   1.2389496 113.2854359  65.5083834
   2.7496166 113.2076156  65.5693006  12.4029650 124.1178678  68.0978770
  11.4559986 123.9984030  68.0257097  12.7512423 123.2301177  68.1805032
   4.7629224 110.0072817  71.9217012   5.2863626 110.2535114  72.6843322
   4.5441557 110.8392852  71.5020150   9.4076084 123.9131395  64.2983123
   9.2601046 122.9848102  64.4790693  10.2329577 123.9351485  63.8140198
   3.2738328 112.5649462  60.1563615   3.6134400 113.0935383  59.4342223
   3.7210448 112.9029868  60.9322181  13.0110206 124.7359953  65.3847995
  13.9356753 124.5302815  65.2472446  12.8425509 124.4876355  66.2937337
   5.9681769 110.9486513  69.6066683   5.6278589 110.1494326  70.0087363
   5.2620775 111.2488223  69.0343516   6.6198241 108.0335825  68.0594006
   7.4424310 107.5596303  67.9372896   6.8636304 108.8126309  68.5592692
   5.2606475 111.0624083  58.3556907   5.9814838 111.4405336  57.8520624
   4.6371779 111.7812960  58.4591885   9.4037598 111.7669232  59.2915240
   9.6201212 112.6493870  58.9904068   8.9231665 111.3755446  58.5620882
   4.1436819 114.7254946  65.8685984   3.9981400 115.0395249  66.7610266
   3.6662023 115.3439846  65.3156883   6.0033202 111.7157494  65.9166874
   5.9894771 110.8198587  65.5799172   6.7205630 111.7228157  66.5505160
   7.8559333 112.1494834  67.9620001   7.5977111 113.0711904  67.9604332
   7.3244373 111.7525268  68.6520466  12.8005522 125.2545621  60.7410087
  12.9742399 124.6892043  59.9883939  13.2934413 126.0546516  60.5589577
   5.4070098 110.5971874  61.1854444   5.5286009 109.6688520  61.3845332
   5.1172141 110.6110560  60.2732760   8.2761289 108.2826784  64.3221164
   8.2982985 108.3466117  63.3673143   8.6929348 107.4431293  64.5161670
  18.6544913 118.0182044  62.3600387  19.0976059 117.2689369  61.9619510
  17.7771423 118.0092180  61.9774119  13.7880694 124.5712385  57.8406985
  14.4831599 125.1919078  58.0594300  14.1303844 123.7207737  58.1159363
  15.6872117 122.0212091  59.3694316  16.2123441 122.3599364  58.6443636
  15.5994470 121.0859106  59.1857450   7.3492166 125.9346164  71.4984192
   7.6579292 125.6895311  72.3706892   8.1467648 126.1392803  71.0103063
   7.3712778 128.0884074  63.7289569   6.9317768 127.5960453  64.4222426
   8.1220895 127.5457042  63.4881644   4.8186650 123.6322083  65.8011871
   4.1966660 122.9692788  65.5014099   5.4891517 123.6583215  65.1185518
   4.8911178 112.1103871  75.3944377   4.9399333 112.9865994  75.0122146
   5.4333692 111.5681264  74.8216020  15.3766023 122.6544994  74.6745514
  14.5861567 122.6369133  74.1350013  15.1399378 123.1933288  75.4294550
  15.4963898 119.5037461  71.9878242  15.5461903 119.3387468  72.9293765
  15.3877822 118.6364720  71.5976123   4.3800157 122.1826007  59.2770331
   4.5288278 122.8661471  58.6237004   5.1866601 122.1631097  59.7919787
  12.7867661 115.4868389  73.3037549  13.6877524 115.3474854  73.0121547
  12.8615635 115.6522844  74.2435726   7.1210466 112.8635244  72.1490735
   6.2513776 113.1568810  71.8773324   7.3569947 113.4475689  72.8697999
  16.9982095 121.9234402  72.2320264  16.7066904 122.2864383  73.0683725
  16.3854227 121.2101411  72.0533596  18.1977778 119.4887282  64.7522834
  19.0324669 119.9277086  64.9160394  18.3336906 119.0125935  63.9331080
  15.2469284 117.0467017  70.7000322  15.7223405 117.2394663  69.8919173
  14.3234849 117.1026203  70.4543706   2.1352790 118.2091184  60.2831400
   1.8898832 117.3053514  60.4811610   2.3048705 118.2108335  59.3410878
   9.8249500 109.0814861  69.6656156  10.3431444 109.8175887  69.3402644
   9.4704633 109.3878854  70.5002915   1.4048438 113.9419542  57.7817562
   0.7117683 114.0163897  57.1257598   1.1600190 113.1779885  58.3039079
  10.0762094 105.5015143  65.1857052  10.3563848 104.8338332  65.8117479
  10.8612701 105.6944239  64.6731716   7.8795563 124.6774137  56.7482079
   7.3069530 125.2964324  56.2952551   8.4528356 125.2273499  57.2822001
  13.9470953 113.9232777  68.9328627  14.8988375 114.0230875  68.9540851
  13.7774403 113.1311046  69.4426712  11.9685332 111.0088360  69.1188028
  11.3735264 111.2893373  68.4234517  11.6835029 111.4982261  69.8904769
  11.0992822 124.9611287  57.8790661  12.0323496 124.8956849  58.0823536
  11.0116035 125.7967554  57.4205194  13.7280839 124.2777157  54.8394608
  13.6494471 123.9437021  55.7330366  14.5490506 124.7698925  54.8386081
  16.4259030 117.1438897  68.0470927  16.3935350 116.2054897  68.2330611
  17.0359654 117.2222933  67.3136752   8.2642361 116.0134950  54.0898131
   9.2101466 115.8841158  54.1586549   7.8856606 115.2749612  54.5667559
  16.5753519 113.9349940  68.0929210  16.0592567 113.1508397  67.9059139
  17.4593467 113.6068657  68.2575730  14.2364246 107.6790956  64.0525023
  14.0389067 107.3706044  64.9368355  14.8463951 108.4052595  64.1822953
  22.2435580 118.2054904  67.1876964  22.9738969 117.9440192  67.7484667
  21.6342526 117.4683626  67.2279032  20.3250877 116.3462766  67.7851415
  19.5984041 116.2118731  67.1767907  19.9098164 116.6539595  68.5908133
   8.1481054 120.0652696  75.5498788   9.0684063 120.2431295  75.7438835
   8.1130637 119.1208741  75.3978487   6.4485278 113.9384926  54.0253016
   5.5416734 113.6418039  54.1015730   6.7261259 113.6414744  53.1587303
   1.1443126 117.9753731  68.1921569   1.3629136 118.9070838  68.2109603
   1.5568900 117.6161705  68.9776373   8.0647344 108.4821816  60.1797258
   7.2548072 108.1368901  60.5552504   8.7531761 108.1729360  60.7684869
   9.9937892 107.5599863  61.8021554  10.5468931 107.9795316  62.4611577
  10.2307979 106.6335611  61.8444510   6.0170992 113.5486936  77.5824318
   5.9167718 114.4981293  77.5136409   5.7992534 113.2205175  76.7100388
   5.2184063 110.7971861  54.1664996   6.0803227 111.1226760  54.4260813
   5.4034407 110.0103357  53.6538061  13.3716699 109.6700388  61.3100219
  12.7915368 110.3285192  60.9278271  13.1052632 108.8477732  60.8987636
  11.8220266 109.0705446  63.5121539  12.3220044 109.1821980  62.7035858
  12.4655874 108.7666498  64.1522347   5.8802262 116.9784075  76.3989380
   5.3969343 117.7784435  76.6053269   5.9663201 116.9892020  75.4456824
   1.8075599 120.8688610  68.4357814   2.7618853 120.8372552  68.3687745
   1.6088123 120.4079234  69.2508040   2.3974981 119.4389726  71.0028611
   3.2167870 119.9333805  71.0263449   2.6711789 118.5221694  70.9746179
  12.1541577 111.8300478  60.3656567  11.2667432 112.1150129  60.1476762
  12.5695567 111.6694242  59.5183844  15.5056114 111.8546999  64.0810906
  16.2816504 112.3443452  64.3535523  14.7804248 112.2805053  64.5382776
  17.9428672 112.5674618  65.1384847  18.5373163 112.3270354  64.4278155
  18.0155256 111.8481749  65.7658383  11.2984791 121.5945153  54.4604587
  12.0020641 121.7995155  55.0762242  10.5747440 122.1621915  54.7253670
  12.1282601 117.3455014  60.5806857  12.0717803 117.8023566  59.7414489
  12.6810944 116.5845699  60.4029700  15.9387407 113.1344746  61.4056976
  15.6824341 112.7341382  62.2365184  15.3140275 113.8488540  61.2807116
  20.2499745 115.8740819  63.9128268  19.6899303 115.9434009  64.6859830
  19.6443248 115.6981804  63.1927764   3.3194954 127.3077546  65.6646454
   3.2027338 128.2522979  65.5625144   2.4987400 127.0051108  66.0532253
  13.2071488 122.0327682  56.5103047  14.0417092 121.6008881  56.3280522
  13.0455831 121.8609696  57.4379941  12.8617380 118.5359795  57.8759386
  12.8066184 118.3704067  56.9347830  12.2363436 119.2435828  58.0321576
  10.1763288 120.8408707  77.2012949  11.0454447 121.0149360  76.8399584
   9.6970039 121.6603124  77.0788678   6.1713506 108.0367904  57.4544705
   6.1592176 108.9809744  57.6112975   7.0636928 107.8538050  57.1604166
   4.3449468 127.9605808  68.8802383   5.2476715 127.9929419  69.1968878
   4.1186838 127.0306259  68.8948718   6.1003070 126.7136795  65.5412461
   5.1498701 126.7138656  65.4276834   6.4035556 125.9669529  65.0248496
   9.9865625 104.6310681  61.7090641   9.2198021 104.0769168  61.8547324
  10.3976330 104.7032550  62.5704793   1.9907386 110.9195477  75.7995823
   2.8538848 110.5632282  76.0099147   1.4172797 110.5809372  76.4871227
  21.8355763 132.5497333  66.6058224  22.4734173 132.4304081  65.9021564
  21.7176606 133.4978177  66.6646176  18.6445470 132.5024761  66.5419748
  18.3063981 132.3865826  65.6540283  19.5135238 132.1015926  66.5220754
  14.5032285 134.3560238  62.5316639  13.9397151 134.2650175  61.7632927
  14.3884680 133.5360142  63.0119132  19.1265253 133.6559613  72.5005954
  19.1153893 133.2612411  71.6286457  19.2885892 132.9225686  73.0939725
  12.0496717 135.8511429  65.3700860  12.8418009 135.5102254  64.9547159
  12.2893367 135.9606404  66.2903013  20.0831844 138.0231205  57.8431104
  19.4319824 138.6085286  57.4565118  20.8776207 138.5537400  57.9026142
  14.0087471 135.1120343  58.2418239  14.7818347 134.5649330  58.1031114
  14.3612870 135.9764592  58.4532700  15.8472514 136.4396725  71.4485138
  15.5562380 137.3442356  71.3331804  16.4829498 136.4813252  72.1629207
  16.7728721 133.8173573  68.0386497  17.3692293 133.5929596  67.3243460
  16.8303692 133.0758319  68.6411945  16.3453749 131.2713009  55.8736688
  16.5979270 130.7494530  55.1120151  15.4078308 131.1079154  55.9763372
  21.3897032 130.2748787  63.6811432  22.1760121 129.8568210  63.3301849
  21.6535736 131.1794879  63.8493080  21.5607109 135.7121637  58.3800088
  20.9252942 135.7856264  59.0920993  21.2304516 136.3015236  57.7019168
  26.7905459 130.2124020  64.5844410  27.5230631 129.6423237  64.8182240
  26.0344815 129.8245621  65.0250916  16.0650038 133.1741115  58.0761063
  15.9486296 132.4986018  58.7442148  16.1752298 132.6873489  57.2593216
  18.4081579 132.6351262  61.7807753  18.0439786 132.1081883  62.4920674
  19.2648695 132.2449731  61.6074238  24.3130879 123.9245594  69.0439019
  23.9814204 124.7941005  68.8200234  23.7176493 123.6081878  69.7233049
  18.0487066 127.6641161  56.7769101  18.2161468 128.5321398  57.1439572
  17.8584235 127.8268443  55.8530390  20.8062399 136.1258140  68.4434932
  20.5063122 137.0283179  68.3350739  20.4613458 135.8590324  69.2956084
  14.2574880 132.5771937  64.4771636  13.3325377 132.4448151  64.6849328
  14.5059294 133.3566156  64.9741578  24.2059543 128.6440681  66.1232369
  23.2976420 128.5756089  65.8291130  24.1547138 129.1212625  66.9514194
  18.0276287 130.1198819  57.7615768  17.9075912 130.5655870  58.6001248
  17.3328875 130.4684137  57.2029306  11.6183691 132.2205211  65.3115425
  11.7476073 132.4739690  66.2254837  10.9381143 132.8132919  64.9920080
  18.2800408 130.0630326  74.0667266  17.5033743 130.6224246  74.0570131
  18.9190972 130.5487109  74.5882136  26.0721189 126.8457119  67.9010243
  25.4295569 127.1389652  67.2550037  25.5676118 126.7310039  68.7063439
  23.7261353 130.5920292  58.5896102  24.6379209 130.8247679  58.4143800
  23.2171000 131.1757336  58.0271181  16.5346781 132.8715779  73.6285233
  17.2761465 133.4100823  73.3520057  15.8283766 133.4982068  73.7856785
  22.0102120 135.0144920  72.2257395  22.4185476 134.5727330  71.4812027
  21.2879382 134.4397547  72.4791587  18.3633190 129.9517527  69.5990952
  19.2094386 130.3756940  69.7425601  18.3031828 129.2951151  70.2929515
  22.3330935 135.5746111  65.9809683  21.7039797 135.7391825  65.2785751
  21.9456597 135.9887720  66.7520647  26.2120167 136.5100548  63.3354047
  25.5271205 136.8899450  62.7851081  26.2964016 137.1195875  64.0685995
  21.5132636 127.6121895  71.2572125  21.2693568 128.3663956  70.7206401
  21.7892566 127.9907243  72.0919372  23.4671099 134.1560507  69.9349391
  23.6787994 134.7992267  69.2583772  23.4200847 133.3222824  69.4671321
  21.0697328 126.7678328  66.8385963  20.2081807 127.0659582  67.1302700
  21.0959762 126.9848727  65.9066996  17.8858897 135.3120519  63.2459769
  18.3497242 135.5908222  62.4564391  17.6215695 134.4103963  63.0632859
  14.7782978 134.8592000  66.1839532  15.3484335 135.2879269  65.5457016
  15.3691090 134.5774585  66.8823717  16.8227783 131.4343671  60.0549334
  17.5251826 131.8864715  60.5223260  16.4908411 130.7927490  60.6829227
  15.2708145 130.0255428  74.4300543  14.6406805 130.7071708  74.6635940
  15.1644232 129.9138509  73.4853681  10.5653117 129.6927224  65.3566467
   9.7752171 129.9484752  64.8806578  11.0564364 130.5075562  65.4618508
  24.5816927 137.0332463  68.1071748  25.4034370 136.6312650  67.8254430
  24.5779329 136.9300697  69.0587864  12.5167862 130.0571803  62.3149944
  11.7199026 130.1690497  62.8333440  12.2893455 130.3958455  61.4490834
  18.3473530 136.5816506  70.2632459  18.4117962 137.0436913  71.0990630
  17.6384454 135.9513871  70.3914768   8.8490820 129.9457714  67.7881458
   9.0998858 130.8304724  68.0539034   9.3850368 129.7662316  67.0156550
  32.6722920 133.3771211  64.4556720  31.9186628 132.8078609  64.3000724
  32.8070461 133.3433876  65.4027354  18.0621548 138.2484614  60.1311439
  17.9267222 139.0936149  60.5596287  18.6031360 138.4503891  59.3677373
  14.5488887 124.3276193  76.7925794  14.1555833 123.7742392  77.4673438
  15.3655028 124.6386772  77.1832312  11.5150945 135.7660052  60.7039364
  12.0275466 136.5603302  60.8544929  12.1673658 135.0686342  60.6372965
  17.4656848 125.7434073  74.3846051  18.2066562 126.3441226  74.3050513
  17.6974771 125.0011710  73.8264093  12.6098186 130.9290440  72.6624280
  12.4951701 130.0275697  72.9631379  11.7542704 131.1754137  72.3109097
  19.6890024 138.8708180  74.2611781  19.2453878 138.0844559  73.9432685
  20.3507238 139.0587331  73.5955672  21.7871262 139.1510980  72.2893182
  21.7689737 139.9719861  71.7973451  22.7091182 139.0265055  72.5143323
  18.2444316 136.6655110  73.1316691  18.7772653 135.9043398  72.9015999
  17.7158397 136.3728761  73.8740845  21.4114011 121.7715176  68.6610332
  21.0678281 122.6616817  68.5849443  21.7792974 121.5816833  67.7979917
   9.4799862 134.0948706  61.4798935  10.3175084 134.5045714  61.2632642
   9.6578129 133.1548148  61.4499128  21.3764294 131.7623787  57.1682768
  20.8610917 132.5328391  57.4071155  21.1041602 131.0888923  57.7915829
  18.9611405 126.6073487  62.2268006  18.1053001 126.2180338  62.0473645
  19.3738357 126.6865448  61.3667791  20.4910552 124.1419831  66.6259566
  19.9875347 124.1049966  65.8127371  20.7841158 125.0512573  66.6856222
  16.7353437 124.2258560  65.6325747  17.6006434 124.0301369  65.2731637
  16.8030946 123.9968912  66.5595104  26.3498568 134.5156141  59.1035941
  25.5728011 134.1767301  58.6591103  27.0290049 134.5208764  58.4290906
  21.1650597 129.6350879  58.9942549  20.8600733 129.9497028  59.8452692
  22.1181039 129.7132299  59.0369882  19.6097029 135.7941102  60.6435503
  19.0818390 135.0593862  60.3308740  19.1084532 136.5715778  60.3975471
  24.5889875 133.9890123  65.7602549  23.9313549 134.6789384  65.8482678
  25.3930274 134.3786554  66.1036535  14.3415757 126.4560768  63.0042114
  14.9159508 126.2335950  62.2715307  14.9286739 126.5249463  63.7570715
  23.3995334 132.3434495  63.8106491  23.9127215 132.9764487  64.3128200
  24.0496558 131.7435691  63.4449851  14.6685344 128.4865229  57.0237999
  13.8322656 128.8239916  57.3447274  14.5290113 128.3514209  56.0865136
  16.6438424 123.3302017  61.7317184  15.9902837 123.0151034  61.1073798
  16.6018898 122.7077758  62.4577007  17.7549629 133.6121312  53.6470476
  16.8476691 133.3810566  53.8461625  18.2520661 132.8158932  53.8344457
  19.8776165 129.8183951  66.0564831  18.9598726 130.0398898  65.8986519
  20.2936308 129.8930261  65.1976539  20.6611212 131.2175366  61.1867511
  21.4083031 131.7296764  60.8774634  20.9302802 130.8959419  62.0471905
  18.9337863 133.7133907  58.1694466  18.0249082 133.4292940  58.2666936
  18.9632946 134.1332986  57.3097773  24.1657130 137.3240497  61.9385633
  23.7119457 136.4831407  61.9950824  23.5351097 137.9601895  62.2760414
  23.1090050 128.2532483  63.1686301  22.3712806 127.7409869  63.4996543
  23.3616823 127.8132864  62.3569578  22.6090069 139.1616993  62.8735451
  22.9013044 139.7222050  62.1547817  23.1188690 139.4545554  63.6288611
  23.2101677 121.0308735  63.7628070  23.5160554 120.1706098  63.4753985
  23.9354282 121.6226355  63.5627064   9.5026033 131.4339421  62.1509668
   9.3050433 130.8408782  61.4260735   8.9472697 131.1291631  62.8685607
  17.4822757 131.3262528  64.2704261  17.5371366 130.3736364  64.1946738
  16.6713959 131.4821967  64.7545560  18.6313950 135.2542651  55.5082544
  18.1933380 134.5378510  55.0488182  19.3724391 135.4818766  54.9467636
  15.4215116 129.9439587  62.0294640  14.6082982 130.2433758  62.4359832
  15.9174111 129.5495276  62.7469122  17.5723694 139.9397344  63.9628905
  17.5299873 140.1658191  63.0337437  18.4886393 139.7060719  64.1114706
  21.0189328 130.4081412  70.8609534  21.3738716 130.6352885  71.7204000
  21.6661459 130.7399789  70.2386789  26.7487065 133.5299848  61.5658863
  26.6104964 133.7201444  60.6380052  26.3923284 134.2919231  62.0226914
  14.9129191 127.5157943  67.6455875  15.5528571 127.3746702  66.9478838
  14.0806722 127.2292456  67.2694477  26.7756445 135.5976375  66.5770134
  27.2092951 135.5051664  67.4253188  27.4888025 135.5733875  65.9390150
  15.6889495 136.8160373  63.7590867  16.4830094 136.3210694  63.5573442
  14.9781188 136.2878237  63.3958573  20.5084340 139.1978469  68.1103235
  20.5621362 139.7669405  68.8780951  19.6399121 139.3680354  67.7457272
  11.9972259 130.9603455  59.8350620  11.0669847 130.8987911  60.0520582
  12.0929731 130.4379408  59.0387261  11.9157808 127.4858268  62.4228862
  12.1764625 128.4003601  62.3138022  12.7374980 127.0182711  62.5725475
  13.3882733 128.8996025  69.5927686  14.0605786 128.6913387  68.9440335
  12.5612520 128.7018111  69.1532919  27.6371994 135.6400076  69.1103020
  27.8307884 136.5445886  69.3562295  27.5372612 135.1807495  69.9441605
  19.2908305 125.5257966  71.6093347  18.6436220 126.2247916  71.5157824
  20.0609320 125.9594110  71.9769595  22.6987103 135.7906818  74.6843900
  22.5472609 135.5617370  73.7673984  22.6891782 136.7477420  74.6975245
  19.4672439 133.3638731  69.6690167  20.3964499 133.5149891  69.4959134
  19.0463469 133.4522752  68.8138813  18.2660771 137.3889395  67.4388705
  18.1271857 137.0208180  68.3114643  17.4775367 137.9037035  67.2672662
  19.8165986 136.7670998  64.8277542  19.4815819 136.7271768  65.7235192
  19.3169932 136.1015714  64.3547953  13.7910230 132.1738628  70.3530123
  13.6530028 131.4418867  70.9541662  14.7015154 132.0847528  70.0714311
  22.7525178 134.1127032  55.1014602  22.1354349 133.3873861  55.0047655
  22.2841666 134.8736393  54.7581676  16.4192531 131.8858587  69.8413803
  17.1292149 131.2451780  69.8000422  16.3761839 132.1371482  70.7639984
  24.4079310 138.8225941  72.7620382  24.3491856 138.1385161  72.0950965
  24.8098828 139.5644931  72.3101008  15.1321465 128.8723805  71.6609443
  14.5958822 128.4214544  72.3131039  14.5438173 129.0069714  70.9179907
  14.5423724 128.3312457  54.2235906  13.6653190 128.2101258  53.8598153
  15.0181477 127.5398535  53.9714795  24.4096717 136.7865525  70.9934362
  23.5223496 136.4491447  71.1160761  24.9795268 136.0548556  71.2303127
   6.0625864 133.1189616  64.3177413   6.7496904 132.8051347  63.7298429
   5.9073993 134.0230981  64.0444665  10.8660586 128.0079813  68.7462437
  10.7818775 127.4005483  68.0112847  10.0443293 128.4988831  68.7471933
  21.0384300 126.4933377  64.1132632  21.5353000 125.7403339  63.7933702
  20.2671282 126.5297693  63.5475841  28.8914057 132.1973742  65.7550924
  28.8803934 133.0798458  65.3844857  28.0231437 131.8445293  65.5605461
  22.1214081 135.2505064  61.6871056  21.1870359 135.3706526  61.5175760
  22.2990749 134.3477531  61.4231065  17.6219269 128.6350760  63.8404317
  17.2517056 128.0821800  64.5285222  18.1178361 128.0308893  63.2879317
  25.5086632 131.0922383  62.2221090  25.9747084 131.9250375  62.1481392
  25.9594133 130.6267365  62.9266348  15.4508467 139.0948255  70.9359335
  16.1517927 139.7284738  71.0888729  14.9803582 139.4362986  70.1754974
  23.5762863 137.4366204  59.2207242  23.8522707 137.3222799  60.1301116
  22.7067362 137.0383689  59.1819415  23.4803295 123.4602970  66.2611991
  22.5666375 123.6907197  66.4294198  23.9096396 123.5441414  67.1126023
  23.2509753 131.6492862  68.7611885  22.5981204 131.8968769  68.1064338
  23.6290133 130.8357000  68.4274362  20.5459093 140.6120740  60.1255104
  21.0746859 140.1013195  59.5125266  20.8087312 140.2963271  60.9900637
  19.2997326 132.3912673  75.2477922  18.6237963 132.2906802  75.9180297
  20.1224960 132.2351887  75.7113919   5.6393840 131.1990210  66.5894881
   5.6777940 130.6653801  67.3831999   5.1334133 130.6725415  65.9705858
  13.0184602 126.0454750  70.0857423  13.0825929 126.9069581  69.6734821
  12.9551723 125.4328752  69.3529781  12.4936875 128.1177883  73.7330457
  13.1208914 127.7354960  74.3467981  11.6364794 127.8992085  74.0986150
  22.8930984 138.5240858  75.3384193  23.4370887 139.1370816  74.8439147
  22.3117828 139.0820436  75.8551206   9.2702418 129.9254312  59.6648812
   9.5655859 129.0164990  59.6115866   8.3690453 129.9042051  59.3429814
  12.7996665 128.0010309  65.6476360  12.0783250 128.6146276  65.5083834
  13.5889920 128.5368073  65.5693006  23.2423405 139.4470596  68.0978770
  22.2953740 139.3275947  68.0257097  23.5906178 138.5593094  68.1805032
  15.6022978 125.3364735  71.9217012  16.1257380 125.5827032  72.6843322
  15.3835311 126.1684770  71.5020150  10.9990259 127.6068410  59.7888137
  10.6702965 126.7265789  59.6063243  11.3529630 127.5516078  60.6764526
  20.2469838 139.2423312  64.2983123  20.0994801 138.3140020  64.4790693
  21.0723332 139.2643403  63.8140198  14.1132082 127.8941379  60.1563615
  14.4528155 128.4227301  59.4342223  14.5604203 128.2321786  60.9322181
  23.8503960 140.0651871  65.3847995  24.7750507 139.8594732  65.2472446
  23.6819263 139.8168272  66.2937337  16.8075523 126.2778430  69.6066683
  16.4672344 125.4786243  70.0087363  16.1014530 126.5780141  69.0343516
  17.4591995 123.3627743  68.0594006  18.2818064 122.8888221  67.9372896
  17.7030059 124.1418226  68.5592692  16.1000230 126.3916001  58.3556907
  16.8208592 126.7697254  57.8520624  15.4765534 127.1104878  58.4591885
  20.2431352 127.0961150  59.2915240  20.4594967 127.9785788  58.9904068
  19.7625420 126.7047363  58.5620882  14.9830574 130.0546863  65.8685984
  14.8375155 130.3687166  66.7610266  14.5055777 130.6731764  65.3156883
  16.8426957 127.0449411  65.9166874  16.8288525 126.1490505  65.5799172
  17.5599385 127.0520075  66.5505160  18.6953087 127.4786751  67.9620001
  18.4370865 128.4003822  67.9604332  18.1638128 127.0817186  68.6520466
  23.6399276 140.5837539  60.7410087  23.8136154 140.0183961  59.9883939
  24.1328167 141.3838433  60.5589577   9.4576236 132.5952208  68.8073646
   8.9129704 133.3712016  68.9393920  10.3355586 132.9423012  68.6492767
  16.2463853 125.9263792  61.1854444  16.3679764 124.9980438  61.3845332
  15.9565895 125.9402477  60.2732760  19.1155043 123.6118702  64.3221164
  19.1376740 123.6758035  63.3673143  19.5323102 122.7723211  64.5161670
  29.4938667 133.3473962  62.3600387  29.9369813 132.5981287  61.9619510
  28.6165178 133.3384098  61.9774119  24.6274449 139.9004303  57.8406985
  25.3225353 140.5210996  58.0594300  24.9697599 139.0499654  58.1159363
  10.2442258 131.7222104  71.7003802   9.5023994 131.8704739  72.2868433
   9.9235002 131.9830370  70.8370552  26.5265872 137.3504009  59.3694316
  27.0517196 137.6891281  58.6443636  26.4388224 136.4151024  59.1857450
  15.6580405 138.9614001  65.8011871  15.0360414 138.2984706  65.5014099
  16.3285272 138.9875133  65.1185518  15.7304932 127.4395789  75.3944377
  15.7793088 128.3157912  75.0122146  16.2727446 126.8973182  74.8216020
  26.2159778 137.9836912  74.6745514  25.4255322 137.9661051  74.1350013
  25.9793132 138.5225206  75.4294550  26.3357653 134.8329379  71.9878242
  26.3855658 134.6679386  72.9293765  26.2271576 133.9656638  71.5976123
  15.2193912 137.5117924  59.2770331  15.3682032 138.1953389  58.6237004
  16.0260355 137.4923014  59.7919787  23.6261415 130.8160307  73.3037549
  24.5271278 130.6766771  73.0121547  23.7009390 130.9814761  74.2435726
  17.9604221 128.1927161  72.1490735  17.0907530 128.4860727  71.8773324
  18.1963701 128.7767606  72.8697999  27.8375850 137.2526320  72.2320264
  27.5460658 137.6156301  73.0683725  27.2247981 136.5393328  72.0533596
  29.0371532 134.8179200  64.7522834  29.8718423 135.2569004  64.9160394
  29.1730661 134.3417853  63.9331080  26.0863038 132.3758935  70.7000322
  26.5617160 132.5686581  69.8919173  25.1628603 132.4318120  70.4543706
  12.9746545 133.5383102  60.2831400  12.7292587 132.6345432  60.4811610
  13.1442459 133.5400252  59.3410878  20.6643254 124.4106778  69.6656156
  21.1825198 125.1467805  69.3402644  20.3098387 124.7170772  70.5002915
  12.2442192 129.2711459  57.7817562  11.5511437 129.3455814  57.1257598
  11.9993944 128.5071803  58.3039079  20.9155849 120.8307061  65.1857052
  21.1957602 120.1630250  65.8117479  21.7006456 121.0236156  64.6731716
  18.7189317 140.0066055  56.7482079  18.1463284 140.6256242  56.2952551
  19.2922111 140.5565416  57.2822001  24.7864707 129.2524695  68.9328627
  25.7382130 129.3522792  68.9540851  24.6168157 128.4602963  69.4426712
  22.8079086 126.3380278  69.1188028  22.2129019 126.6185291  68.4234517
  22.5228783 126.8274179  69.8904769  21.9386577 140.2903205  57.8790661
  22.8717250 140.2248766  58.0823536  21.8509790 141.1259472  57.4205194
  24.5674594 139.6069075  54.8394608  24.4888225 139.2728939  55.7330366
  25.3884260 140.0990843  54.8386081  27.2652785 132.4730814  68.0470927
  27.2329105 131.5346815  68.2330611  27.8753408 132.5514851  67.3136752
  19.1036116 131.3426867  54.0898131  20.0495220 131.2133076  54.1586549
  18.7250361 130.6041529  54.5667559  27.4147273 129.2641858  68.0929210
  26.8986322 128.4800315  67.9059139  28.2987222 128.9360574  68.2575730
  25.0758000 123.0082873  64.0525023  24.8782821 122.6997962  64.9368355
  25.6857706 123.7344512  64.1822953  33.0829335 133.5346821  67.1876964
  33.8132723 133.2732109  67.7484667  32.4736280 132.7975543  67.2279032
  31.1644632 131.6754684  67.7851415  30.4377795 131.5410649  67.1767907
  30.7491919 131.9831512  68.5908133  18.9874808 135.3944614  75.5498788
  19.9077818 135.5723213  75.7438835  18.9524391 134.4500659  75.3978487
  17.2879033 129.2676844  54.0253016  16.3810488 128.9709957  54.1015730
  17.5655014 128.9706662  53.1587303   8.2056973 130.5883207  64.4752063
   7.8859758 129.7348515  64.1826437   7.6590401 130.8031785  65.2310030
  11.9836881 133.3045648  68.1921569  12.2022891 134.2362756  68.2109603
  12.3962655 132.9453623  68.9776373  18.9041099 123.8113734  60.1797258
  18.0941827 123.4660818  60.5552504  19.5925515 123.5021277  60.7684869
  20.8331647 122.8891780  61.8021554  21.3862685 123.3087234  62.4611577
  21.0701733 121.9627528  61.8444510  16.8564746 128.8778854  77.5824318
  16.7561473 129.8273211  77.5136409  16.6386288 128.5497093  76.7100388
  16.0577817 126.1263779  54.1664996  16.9196981 126.4518677  54.4260813
  16.2428162 125.3395275  53.6538061   8.0745233 134.2086119  66.4445184
   7.3808705 133.7940071  65.9315139   8.8218224 134.2506655  65.8478603
  24.2110454 124.9992305  61.3100219  23.6309123 125.6577110  60.9278271
  23.9446387 124.1769650  60.8987636  22.6614020 124.3997363  63.5121539
  23.1613799 124.5113898  62.7035858  23.3049628 124.0958416  64.1522347
  16.7196016 132.3075993  76.3989380  16.2363098 133.1076353  76.6053269
  16.8056955 132.3183938  75.4456824   9.9881976 134.1404372  64.3211199
   9.9652664 134.2392060  63.3693082  10.2982612 134.9869523  64.6428365
  12.6469354 136.1980528  68.4357814  13.6012607 136.1664470  68.3687745
  12.4481877 135.7371151  69.2508040  13.2368736 134.7681644  71.0028611
  14.0561625 135.2625722  71.0263449  13.5105543 133.8513612  70.9746179
  22.9935332 127.1592396  60.3656567  22.1061187 127.4442046  60.1476762
  23.4089321 126.9986159  59.5183844  26.3449868 127.1838917  64.0810906
  27.1210258 127.6735369  64.3535523  25.6198002 127.6096971  64.5382776
  28.7822427 127.8966536  65.1384847  29.3766917 127.6562272  64.4278155
  28.8549010 127.1773667  65.7658383  22.1378545 136.9237071  54.4604587
  22.8414396 137.1287073  55.0762242  21.4141194 137.4913832  54.7253670
  22.9676356 132.6746932  60.5806857  22.9111557 133.1315483  59.7414489
  23.5204698 131.9137616  60.4029700  26.7781162 128.4636664  61.4056976
  26.5218096 128.0633299  62.2365184  26.1534030 129.1780458  61.2807116
  31.0893499 131.2032737  63.9128268  30.5293057 131.2725926  64.6859830
  30.4837003 131.0273722  63.1927764  24.0465243 137.3619600  56.5103047
  24.8810847 136.9300798  56.3280522  23.8849586 137.1901613  57.4379941
  23.7011135 133.8651713  57.8759386  23.6459939 133.6995984  56.9347830
  23.0757190 134.5727746  58.0321576   8.4903650 129.1019777  71.7020808
   9.1362514 128.5918731  72.1908034   8.2820801 129.8388459  72.2764234
  21.0157042 136.1700625  77.2012949  21.8848202 136.3441277  76.8399584
  20.5363794 136.9895042  77.0788678  17.0107260 123.3659822  57.4544705
  16.9985930 124.3101662  57.6112975  17.9030682 123.1829967  57.1604166
  20.8259380 119.9602599  61.7090641  20.0591776 119.4061085  61.8547324
  21.2370085 120.0324467  62.5704793  12.8301141 126.2487394  75.7995823
  13.6932603 125.8924199  76.0099147  12.2566552 125.9101289  76.4871227
  37.6299214 145.5415938  64.5844410  38.3624385 144.9715155  64.8182240
  36.8738569 145.1537538  65.0250916  35.1524634 139.2537512  69.0439019
  34.8207959 140.1232923  68.8200234  34.5570247 138.9373796  69.7233049
  28.8880820 142.9933079  56.7769101  29.0555223 143.8613315  57.1439572
  28.6977989 143.1560361  55.8530390  35.0453297 143.9732598  66.1232369
  34.1370175 143.9048007  65.8291130  34.9940893 144.4504543  66.9514194
  36.9114944 142.1749037  67.9010243  36.2689324 142.4681570  67.2550037
  36.4069872 142.0601957  68.7063439  32.3526390 142.9413813  71.2572125
  32.1087322 143.6955873  70.7206401  32.6286321 143.3199160  72.0919372
  31.9091082 142.0970246  66.8385963  31.0475561 142.3951499  67.1302700
  31.9353517 142.3140645  65.9066996  43.5116674 148.7063129  64.4556720
  42.7580382 148.1370527  64.3000724  43.6464215 148.6725793  65.4027354
  25.3882642 139.6568111  76.7925794  24.9949587 139.1034310  77.4673438
  26.2048782 139.9678690  77.1832312  28.3050603 141.0725990  74.3846051
  29.0460316 141.6733143  74.3050513  28.5368526 140.3303628  73.8264093
  32.2507766 137.1007093  68.6610332  31.9072035 137.9908735  68.5849443
  32.6186728 136.9108751  67.7979917  29.8005159 141.9365405  62.2268006
  28.9446756 141.5472255  62.0473645  30.2132111 142.0157366  61.3667791
  31.3304306 139.4711748  66.6259566  30.8269102 139.4341883  65.8127371
  31.6234913 140.3804491  66.6856222  27.5747192 139.5550478  65.6325747
  28.4400189 139.3593287  65.2731637  27.6424701 139.3260830  66.5595104
  32.0044352 144.9642796  58.9942549  31.6994487 145.2788946  59.8452692
  32.9574794 145.0424216  59.0369882  25.1809511 141.7852686  63.0042114
  25.7553263 141.5627867  62.2715307  25.7680493 141.8541380  63.7570715
  27.4832179 138.6593935  61.7317184  26.8296591 138.3442952  61.1073798
  27.4412653 138.0369675  62.4577007  33.9483804 143.5824400  63.1686301
  33.2106561 143.0701787  63.4996543  34.2010578 143.1424782  62.3569578
  34.0495431 136.3600652  63.7628070  34.3554308 135.4998016  63.4753985
  34.7748036 136.9518273  63.5627064  25.7522946 142.8449861  67.6455875
  26.3922325 142.7038620  66.9478838  24.9200476 142.5584374  67.2694477
  30.1302060 140.8549884  71.6093347  29.4829975 141.5539833  71.5157824
  30.9003075 141.2886028  71.9769595  31.8778054 141.8225294  64.1132632
  32.3746754 141.0695257  63.7933702  31.1065036 141.8589611  63.5475841
  28.4613023 143.9642677  63.8404317  28.0910811 143.4113718  64.5285222
  28.9572116 143.3600811  63.2879317  34.3197049 138.7894888  66.2611991
  33.4060129 139.0199115  66.4294198  34.7490151 138.8733332  67.1126023
  23.8578357 141.3746668  70.0857423  23.9219683 142.2361499  69.6734821
  23.7945477 140.7620670  69.3529781  26.4416733 140.6656653  71.9217012
  26.9651135 140.9118949  72.6843322  26.2229066 141.4976688  71.5020150
  27.6469278 141.6070348  69.6066683  27.3066098 140.8078161  70.0087363
  26.9408284 141.9072059  69.0343516  28.2985750 138.6919660  68.0594006
  29.1211819 138.2180138  67.9372896  28.5423813 139.4710144  68.5592692
  26.9393984 141.7207919  58.3556907  27.6602347 142.0989172  57.8520624
  26.3159288 142.4396796  58.4591885  31.0825107 142.4253068  59.2915240
  31.2988721 143.3077706  58.9904068  30.6019174 142.0339281  58.5620882
  27.6820711 142.3741329  65.9166874  27.6682280 141.4782422  65.5799172
  28.3993139 142.3811993  66.5505160  29.5346842 142.8078669  67.9620001
  29.2764620 143.7295740  67.9604332  29.0031882 142.4109104  68.6520466
  27.0857607 141.2555709  61.1854444  27.2073518 140.3272355  61.3845332
  26.7959650 141.2694395  60.2732760  29.9548798 138.9410620  64.3221164
  29.9770494 139.0049953  63.3673143  30.3716857 138.1015128  64.5161670
  34.4655170 146.1452224  73.3037549  35.3665033 146.0058689  73.0121547
  34.5403144 146.3106679  74.2435726  28.7997975 143.5219079  72.1490735
  27.9301285 143.8152645  71.8773324  29.0357456 144.1059524  72.8697999
  31.5037009 139.7398696  69.6656156  32.0218953 140.4759723  69.3402644
  31.1492142 140.0462689  70.5002915  31.7549603 136.1598978  65.1857052
  32.0351357 135.4922167  65.8117479  32.5400210 136.3528074  64.6731716
  35.6258461 144.5816612  68.9328627  36.5775884 144.6814710  68.9540851
  35.4561912 143.7894881  69.4426712  33.6472841 141.6672196  69.1188028
  33.0522773 141.9477208  68.4234517  33.3622538 142.1566097  69.8904769
  38.2541028 144.5933776  68.0929210  37.7380076 143.8092232  67.9059139
  39.1380976 144.2652492  68.2575730  35.9151755 138.3374791  64.0525023
  35.7176576 138.0289879  64.9368355  36.5251460 139.0636430  64.1822953
  43.9223089 148.8638739  67.1876964  44.6526478 148.6024027  67.7484667
  43.3130035 148.1267461  67.2279032  42.0038386 147.0046602  67.7851415
  41.2771550 146.8702566  67.1767907  41.5885673 147.3123430  68.5908133
  29.7434853 139.1405651  60.1797258  28.9335581 138.7952736  60.5552504
  30.4319270 138.8313195  60.7684869  31.6725401 138.2183698  61.8021554
  32.2256440 138.6379151  62.4611577  31.9095488 137.2919446  61.8444510
  26.8971572 141.4555697  54.1664996  27.7590736 141.7810595  54.4260813
  27.0821916 140.6687193  53.6538061  35.0504208 140.3284223  61.3100219
  34.4702877 140.9869027  60.9278271  34.7840141 139.5061568  60.8987636
  33.5007775 139.7289281  63.5121539  34.0007553 139.8405815  62.7035858
  34.1443383 139.4250334  64.1522347  33.8329086 142.4884314  60.3656567
  32.9454941 142.7733964  60.1476762  34.2483075 142.3278077  59.5183844
  37.1843623 142.5130835  64.0810906  37.9604013 143.0027287  64.3535523
  36.4591757 142.9388889  64.5382776  39.6216181 143.2258454  65.1384847
  40.2160672 142.9854190  64.4278155  39.6942765 142.5065584  65.7658383
  37.6174916 143.7928581  61.4056976  37.3611850 143.3925217  62.2365184
  36.9927784 144.5072375  61.2807116  41.9287254 146.5324655  63.9128268
  41.3686812 146.6017844  64.6859830  41.3230757 146.3565639  63.1927764
  27.8501015 138.6951740  57.4544705  27.8379685 139.6393580  57.6112975
  28.7424437 138.5121885  57.1604166  31.6653134 135.2894516  61.7090641
  30.8985530 134.7353003  61.8547324  32.0763839 135.3616385  62.5704793
  23.6694895 141.5779312  75.7995823  24.5326357 141.2216117  76.0099147
  23.0960306 141.2393207  76.4871227   5.1117951  76.5602307  51.3089717
   5.8443123  75.9901524  51.5427546   4.3557307  76.1723908  51.7496222
   2.6343372  70.2723882  55.7684325   2.3026696  71.1419293  55.5445540
   2.0388985  69.9560166  56.4478356   2.5272035  74.9918968  52.8477675
   1.6188912  74.9234376  52.5536436   2.4759631  75.4690913  53.6759501
   4.3933681  73.1935406  54.6255549   3.7508062  73.4867939  53.9795344
   3.8888610  73.0788326  55.4308746   2.0473845  76.9398579  45.3141409
   2.9591701  77.1725966  45.1389106   1.5383492  77.5235624  44.7516487
   4.5332659  82.8578836  50.0599354   3.8483697  83.2377737  49.5096387
   4.6176509  83.4674162  50.7931302   1.7883591  80.5038795  56.6594697
   2.0000486  81.1470555  55.9829078   1.7413339  79.6701111  56.1916627
   2.9029419  83.3810750  54.8317055   3.7246863  82.9790937  54.5499736
   2.8991822  83.2778984  55.7833171  10.9935412  79.7249499  51.1802026
  10.2399120  79.1556897  51.0246031  11.1282953  79.6912163  52.1272661
   4.6711060  80.8634429  45.8281248   3.8940503  80.5245588  45.3836410
   5.3502541  80.8687052  45.1536213   2.9102367  80.3368410  52.4847856
   2.2526042  81.0267671  52.5727984   3.7142766  80.7264842  52.8281842
   1.7207826  78.6912782  50.5351797   2.2339708  79.3242774  51.0373507
   2.3709050  78.0913978  50.1695157   2.4869622  83.6718784  48.6630940
   2.0331949  82.8309694  48.7196130   1.8563589  84.3080182  49.0005720
   1.4302542  74.6010770  49.8931607   0.6925299  74.0888156  50.2241850
   1.6829315  74.1611152  49.0814884   0.9302561  85.5095281  49.5980758
   1.2225536  86.0700338  48.8793124   1.4401182  85.8023842  50.3533917
   1.5314169  67.3787022  50.4873377   1.8373046  66.5184385  50.1999292
   2.2566774  67.9704642  50.2872371   5.0699557  79.8778135  48.2904170
   4.9317456  80.0679731  47.3625359   4.7135776  80.6397518  48.7472221
   5.0968937  81.9454662  53.3015441   5.5305444  81.8529951  54.1498495
   5.8100518  81.9212163  52.6635457   5.9584487  81.9878363  55.8348326
   6.1520377  82.8924173  56.0807601   5.8585105  81.5285782  56.6686911
   1.0199595  82.1385106  61.4089207   0.8685102  81.9095657  60.4919291
   1.0104275  83.0955707  61.4220552   1.0737670  80.4605320  41.8259909
   0.4566841  79.7352148  41.7292961   0.6054159  81.2214680  41.4826983
   2.7291802  85.1704228  59.4865689   2.6704348  84.4863448  58.8196272
   3.1311320  85.9123218  59.0346315   2.7309209  83.1343812  57.7179669
   1.8435988  82.7969734  57.8406067   3.3007760  82.4026843  57.9548434
   7.2126550  78.5452029  52.4796230   7.2016426  79.4276745  52.1090163
   6.3443929  78.1923580  52.2850767   3.8299124  77.4400670  48.9466396
   4.2959577  78.2728662  48.8726699   4.2806625  76.9745652  49.6511655
   1.8975355  83.7844492  45.9452548   2.1735199  83.6701086  46.8546422
   1.0279854  83.3861976  45.9064721   1.8015787  69.8081257  52.9857298
   0.8878867  70.0385484  53.1539505   2.2308889  69.8919701  53.8371330
   1.5722246  77.9971149  55.4857192   0.9193696  78.2447057  54.8309644
   1.9502625  77.1835287  55.1519669   1.2143476  84.8719145  62.0629499
   1.7583380  85.4849104  61.5684454   0.6330321  85.4298724  62.5796512
   1.5635897  85.7948883  54.8224077   0.6166233  85.6754235  54.7502404
   1.9118670  84.9071381  54.9050338   2.1716452  86.4130158  52.1093302
   3.0963000  86.2073020  51.9717753   2.0031756  86.1646560  53.0182643
   1.9611768  86.9315826  47.4655393   2.1348646  86.3662248  46.7129246
   2.4540660  87.7316721  47.2834883   7.8151160  79.6952249  49.0845693
   8.2582306  78.9459574  48.6864816   6.9377670  79.6862385  48.7019425
   2.9486941  86.2482590  44.5652292   3.6437846  86.8689283  44.7839606
   3.2910091  85.3977941  44.8404670   4.8478364  83.6982296  46.0939622
   5.3729688  84.0369569  45.3688942   4.7600717  82.7629311  45.9102757
   4.5372270  84.3315199  61.3990820   3.7467814  84.3139338  60.8595320
   4.3005625  84.8703493  62.1539857   4.6570145  81.1807666  58.7123549
   4.7068150  81.0157673  59.6539072   4.5484069  80.3134925  58.3221430
   1.9473908  77.1638594  60.0282856   2.8483770  77.0245059  59.7366853
   2.0221882  77.3293049  60.9681033   6.1588342  83.6004607  58.9565570
   5.8673150  83.9634588  59.7929031   5.5460473  82.8871616  58.7778903
   7.3584024  81.1657487  51.4768141   8.1930916  81.6047291  51.6405701
   7.4943153  80.6896140  50.6576386   4.4075530  78.7237222  57.4245628
   4.8829652  78.9164868  56.6164480   3.4841096  78.7796408  57.1789012
   3.1077199  75.6002982  55.6573934   4.0594622  75.7001080  55.6786158
   2.9380650  74.8081251  56.1672018   1.1291579  72.6858565  55.8433335
   0.5341511  72.9663578  55.1479824   0.8441275  73.1752466  56.6150076
   2.8887086  85.9547362  41.5639915   2.8100717  85.6207226  42.4575673
   3.7096753  86.4469130  41.5631387   5.5865277  78.8209102  54.7716234
   5.5541597  77.8825102  54.9575918   6.1965901  78.8993138  54.0382059
   5.7359766  75.6120145  54.8174517   5.2198814  74.8278602  54.6304446
   6.6199714  75.2838862  54.9821036   3.3970492  69.3561161  50.7770330
   3.1995314  69.0476249  51.6613662   4.0070198  70.0822800  50.9068259
  11.4041827  79.8825109  53.9122271  12.1345215  79.6210397  54.4729974
  10.7948772  79.1453830  53.9524339   9.4857124  78.0232971  54.5096722
   8.7590288  77.8888936  53.9013213   9.0704411  78.3309800  55.3153440
   2.5322946  71.3470593  48.0345525   1.9521615  72.0055397  47.6523578
   2.2658879  70.5247937  47.6232943   0.9826513  70.7475650  50.2366846
   1.4826291  70.8592185  49.4281164   1.6262120  70.4436703  50.8767654
   1.3147824  73.5070683  47.0901873   0.4273679  73.7920334  46.8722068
   1.7301813  73.3464446  46.2429150   4.6662360  73.5317204  50.8056213
   5.4422750  74.0213657  51.0780830   3.9410495  73.9575258  51.2628082
   7.1034919  74.2444823  51.8630153   7.6979410  74.0040559  51.1523462
   7.1761503  73.5251954  52.4903690   1.2888848  79.0225219  47.3052164
   1.2324049  79.4793770  46.4659796   1.8417190  78.2615904  47.1275006
   5.0993654  74.8114951  48.1302283   4.8430588  74.4111587  48.9610491
   4.4746522  75.5258745  48.0052422   9.4105992  77.5511024  50.6373575
   8.8505550  77.6204213  51.4105137   8.8049495  77.3752009  49.9173071
   2.3677735  83.7097887  43.2348353   3.2023339  83.2779085  43.0525828
   2.2062078  83.5379901  44.1625248   2.0223627  80.2130000  44.6004693
   1.9672431  80.0474272  43.6593137   1.3969683  80.9206033  44.7566883
  10.9962010  94.2267538  53.3303530  11.6340420  94.1074285  52.6266870
  10.8782853  95.1748382  53.3891482   7.8051716  94.1794966  53.2665055
   7.4670228  94.0636031  52.3785590   8.6741485  93.7786131  53.2466061
   3.6638532  96.0330443  49.2561946   3.1003397  95.9420380  48.4878234
   3.5490927  95.2130347  49.7364438   8.2871499  95.3329818  59.2251260
   8.2760140  94.9382616  58.3531764   8.4492139  94.5995891  59.8185032
   1.2102964  97.5281634  52.0946166   2.0024256  97.1872459  51.6792466
   1.4499614  97.6376609  53.0148320   9.2438091  99.7001410  44.5676411
   8.5926071 100.2855491  44.1810425  10.0382454 100.2307605  44.6271448
   3.1693718  96.7890547  44.9663545   3.9424594  96.2419535  44.8276421
   3.5219117  97.6534797  45.1778007   5.0078761  98.1166930  58.1730444
   4.7168627  99.0212561  58.0577111   5.6435745  98.1583457  58.8874514
   5.9334967  95.4943778  54.7631804   6.5298540  95.2699801  54.0488767
   5.9909939  94.7528524  55.3657252   5.5059996  92.9483214  42.5981995
   5.7585517  92.4264735  41.8365458   4.5684555  92.7849359  42.7008679
  10.5503279  91.9518992  50.4056738  11.3366368  91.5338415  50.0547155
  10.8141983  92.8565084  50.5738387  10.7213356  97.3891842  45.1045395
  10.0859189  97.4626469  45.8166300  10.3910762  97.9785441  44.4264474
  15.9511706  91.8894225  51.3089717  16.6836878  91.3193442  51.5427546
  15.1951061  91.5015826  51.7496222   5.2256285  94.8511320  44.8006370
   5.1092543  94.1756223  45.4687454   5.3358544  94.3643693  43.9838523
   7.5687826  94.3121467  48.5053059   7.2046033  93.7852088  49.2165981
   8.4254941  93.9219936  48.3319545  13.4737126  85.6015799  55.7684325
  13.1420451  86.4711210  55.5445540  12.8782740  85.2852083  56.4478356
   7.2093312  89.3411366  43.5014408   7.3767715  90.2091603  43.8684879
   7.0190482  89.5038648  42.5775697   9.9668646  97.8028345  55.1680238
   9.6669369  98.7053384  55.0596045   9.6219705  97.5360528  56.0201391
   3.4181127  94.2542142  51.2016943   2.4931624  94.1218356  51.4094634
   3.6665540  95.0336361  51.6986885  13.3665789  90.3210885  52.8477675
  12.4582667  90.2526294  52.5536436  13.3153385  90.7982830  53.6759501
   7.1882533  91.7969024  44.4861075   7.0682159  92.2426075  45.3246555
   6.4935122  92.1454342  43.9274613   4.9489425 104.5672666  48.1351206
   4.8713455 105.5180491  48.2139686   4.3451069 104.2218538  48.7926132
   7.4406655  91.7400531  60.7912573   6.6639989  92.2994451  60.7815437
   8.0797218  92.2257314  61.3127443  15.2327436  88.5227324  54.6255549
  14.5901816  88.8159857  53.9795344  14.7282364  88.4080244  55.4308746
  12.8867600  92.2690497  45.3141409  13.7985456  92.5017884  45.1389106
  12.3777247  92.8527541  44.7516487   5.6953028  94.5485984  60.3530540
   6.4367712  95.0871028  60.0765363   4.9890013  95.1752273  60.5102092
  11.1708367  96.6915125  58.9502701  11.5791723  96.2497535  58.2057334
  10.4485629  96.1167752  59.2036894   7.5239437  91.6287732  56.3236258
   8.3700632  92.0527145  56.4670907   7.4638075  90.9721356  57.0174821
  11.4937182  97.2516315  52.7054990  10.8646044  97.4162030  52.0031058
  11.1062844  97.6657925  53.4765954  15.3726414  98.1870753  50.0599354
  14.6877452  98.5669655  49.5096387  15.4570263  98.7966080  50.7931302
  10.6738883  89.2892100  57.9817432  10.4299814  90.0434160  57.4451707
  10.9498813  89.6677448  58.8164679  12.6277345  95.8330712  56.6594697
  12.8394241  96.4762472  55.9829078  12.5807094  94.9993029  56.1916627
  10.2303574  88.4448533  53.5631270   9.3688053  88.7429787  53.8548007
  10.2566009  88.6618932  52.6312302   7.0465144  96.9890724  49.9705075
   7.5103489  97.2678427  49.1809698   6.7821942  96.0874168  49.7878166
   3.9389225  96.5362205  52.9084838   4.5090582  96.9649473  52.2702323
   4.5297337  96.2544790  53.6069024   5.9834030  93.1113876  46.7794640
   6.6858073  93.5634920  47.2468567   5.6514658  92.4697695  47.4074533
   4.4314391  91.7025633  61.1545850   3.8013052  92.3841913  61.3881247
   4.3250479  91.5908714  60.2098988  13.7423173  98.7102668  54.8317055
  14.5640617  98.3082855  54.5499736  13.7385576  98.6070902  55.7833171
   1.6774109  91.7342008  49.0395251   0.8805272  91.8460702  49.5578746
   1.4499701  92.0728660  48.1736141   7.5079777  98.2586711  56.9877765
   7.5724209  98.7207118  57.8235937   6.7990701  97.6284076  57.1160075
  21.8329166  95.0541416  51.1802026  21.0792875  94.4848814  51.0246031
  21.9676708  95.0204081  52.1272661   7.2227794  99.9254819  46.8556746
   7.0873469 100.7706354  47.2841593   7.7637607 100.1274096  46.0922679
   3.7095134  86.0046398  63.5171101   3.3162080  85.4512597  64.1918745
   4.5261274  86.3156977  63.9077618   0.6757192  97.4430257  47.4284671
   1.1881712  98.2373507  47.5790235   1.3279905  96.7456547  47.3618272
   2.4852076 100.5596013  49.5107424   2.6618705 101.4813978  49.3228408
   3.2808910 100.2454432  49.9401804   6.6263095  87.4204277  61.1091357
   7.3672808  88.0211431  61.0295820   6.8581018  86.6781915  60.5509400
   1.7704433  92.6060645  59.3869587   1.6557948  91.7045902  59.6876686
   0.9148951  92.8524342  59.0354404   8.8496271 100.5478385  60.9857088
   8.4060125  99.7614764  60.6677992   9.5113484 100.7357536  60.3200978
   3.6083392 102.0774187  55.5117766   4.1590817 101.9491250  54.7394760
   2.7694868 102.3769076  55.1612659  10.9477509 100.8281185  59.0138489
  10.9295984 101.6490066  58.5218758  11.8697429 100.7035260  59.2388630
   7.4050563  98.3425314  59.8561997   7.9378900  97.5813603  59.6261305
   6.8764644  98.0498966  60.5986152  10.5720258  83.4485380  55.3855639
  10.2284527  84.3387022  55.3094750  10.9399221  83.2587038  54.5225224
  10.5370541  93.4393992  43.8928074  10.0217164  94.2098596  44.1316462
  10.2647849  92.7659128  44.5161136   8.1217652  88.2843692  48.9513313
   7.2659248  87.8950543  48.7718951   8.5344603  88.3635653  48.0913098
   9.6516798  85.8190036  53.3504872   9.1481594  85.7820171  52.5372678
   9.9447405  86.7282778  53.4101529   5.8959684  85.9028765  52.3571054
   6.7612681  85.7071574  51.9976943   5.9637193  85.6739117  53.2840411
  15.5104815  96.1926346  45.8281248  14.7334258  95.8537506  45.3836410
  16.1896296  96.1978969  45.1536213  10.3256844  91.3121084  45.7187855
  10.0206979  91.6267233  46.5697999  11.2787286  91.3902504  45.7615188
   8.7703276  97.4711307  47.3680809   8.2424637  96.7364067  47.0554047
   8.2690778  98.2485983  47.1220778  13.7496122  95.6660327  52.4847856
  13.0919796  96.3559589  52.5727984  14.5536521  96.0556759  52.8281842
   3.5022003  88.1330973  49.7287421   4.0765755  87.9106155  48.9960614
   4.0892986  88.2019668  50.4816022  12.5601581  94.0204700  50.5351797
  13.0733462  94.6534692  51.0373507  13.2102804  93.4205896  50.1695157
   3.8291590  90.1635434  43.7483306   2.9928903  90.5010121  44.0692581
   3.6896360  90.0284414  42.8110443   5.8044671  85.0072222  48.4562490
   5.1509083  84.6921239  47.8319105   5.7625145  84.3847963  49.1822313
   6.9155876  95.2891517  40.3715782   6.0082938  95.0580771  40.5706931
   7.4126908  94.4929136  40.5589764   9.8223955 103.9989024  43.2912468
   9.1485654 104.3020721  43.8997426  10.2089777 104.8018105  42.9417926
   9.0382411  91.4954156  52.7810138   8.1204973  91.7169103  52.6231826
   9.4542555  91.5700466  51.9221845   9.8217459  92.8945571  47.9112818
  10.5689278  93.4066969  47.6019940  10.0909049  92.5729624  48.7717212
   8.0944109  95.3904112  44.8939772   7.1855329  95.1063145  44.9912242
   8.1239193  95.8103191  44.0343079  13.3263377  99.0010702  48.6630940
  12.8725704  98.1601611  48.7196130  12.6957343  99.6372100  49.0005720
  12.2696296  89.9302688  49.8931607  11.5319053  89.4180074  50.2241850
  12.5223070  89.4903069  49.0814884  11.7696316 100.8387198  49.5980758
  12.0619290 101.3992255  48.8793124  12.2794937 101.1315759  50.3533917
  12.3707924  82.7078940  50.4873377  12.6766800  81.8476303  50.1999292
  13.0960528  83.2996560  50.2872371   6.6429003  93.0032733  50.9949568
   6.6977613  92.0506569  50.9192044   5.8320205  93.1592172  51.4790866
   7.7920197  96.9312856  42.2327851   7.3539627  96.2148715  41.7733488
   8.5330638  97.1588971  41.6712942   4.5821363  91.6209792  48.7539947
   3.7689229  91.9203963  49.1605139   5.0780357  91.2265481  49.4714429
   6.7329941 101.6167549  50.6874211   6.6906120 101.8428396  49.7582743
   7.6492640 101.3830924  50.8360012  10.1795575  92.0851617  57.5854841
  10.5344963  92.3123090  58.4449306  10.8267706  92.4169994  56.9632096
  15.9093312  95.2070053  48.2904170  15.7711210  95.3971649  47.3625359
  15.5529531  95.9689436  48.7472221   4.0735438  89.1928148  54.3701182
   4.7134817  89.0516907  53.6724145   3.2412969  88.9062661  53.9939784
  15.9362691  97.2746580  53.3015441  16.3699198  97.1821869  54.1498495
  16.6494272  97.2504080  52.6635457   4.8495742  98.4930578  50.4836174
   5.6436340  97.9980899  50.2818749   4.1387434  97.9648441  50.1203880
   9.6690586 100.8748674  54.8348542   9.7227609 101.4439610  55.6026258
   8.8005368 101.0450559  54.4702579   1.0764054  89.1628473  49.1474168
   1.3370872  90.0773806  49.0383329   1.8981227  88.6952915  49.2970781
   2.5488980  90.5766230  56.3172993   3.2212033  90.3683592  55.6685642
   1.7218766  90.3788316  55.8778225  16.7978241  97.3170280  55.8348326
  16.9914131  98.2216091  56.0807601  16.6978859  96.8577700  56.6686911
   8.4514552  87.2028171  58.3338654   7.8042467  87.9018121  58.2403130
   9.2215567  87.6364315  58.7014902  11.8593350  97.4677023  61.4089207
  11.7078856  97.2387575  60.4919291  11.8498029  98.4247625  61.4220552
   8.6278686  95.0408936  56.3935474   9.5570746  95.1920096  56.2204441
   8.2069716  95.1292957  55.5384120   7.4267018  99.0659600  54.1634011
   7.2878104  98.6978385  55.0359949   6.6381614  99.5807240  53.9917969
   8.0215170 104.1668697  45.5059548   8.1966926 103.6956740  46.3205170
   7.3347958 104.7934463  45.7340808   8.9772233  98.4441203  51.5522849
   8.6422066  98.4041973  52.4480499   8.4776179  97.7785919  51.0793259
   2.9516477  93.8508833  57.0775430   2.8136275  93.1189072  57.6786969
   3.8621400  93.7617733  56.7959618  11.9131425  95.7897237  41.8259909
  11.2960595  95.0644066  41.7292961  11.4447913  96.5506598  41.4826983
   5.5798778  93.5628792  56.5659110   6.2898396  92.9221985  56.5245728
   5.5368086  93.8141687  57.4885291  13.5685556 100.4996146  59.4865689
  13.5098103  99.8155366  58.8196272  13.9705075 101.2415136  59.0346315
   4.2927712  90.5494010  58.3854749   3.7565069  90.0984749  59.0376346
   3.7044420  90.6839919  57.6425214   2.5876255 107.3158060  52.2799408
   2.8272853 107.9476584  52.9578426   1.7445452 106.9646100  52.5664767
   3.7029971  90.0082662  40.9481213   2.8259437  89.8871462  40.5843460
   4.1787724  89.2168740  40.6960102  13.5702964  98.4635730  57.7179669
  12.6829742  98.1261651  57.8406067  14.1401515  97.7318761  57.9548434
   7.1004117 103.1237182  54.6840912   7.0274289 103.9292154  55.1960216
   6.6581510 103.3229148  53.8588933   6.8893897 102.3608952  48.1943733
   6.1061419 102.9030632  48.2881958   7.5886642 102.8782932  48.5937975
  10.1990547  88.1703582  50.8377939  10.6959246  87.4173544  50.5179009
   9.4277528  88.2067898  50.2721148  18.0520304  93.8743947  52.4796230
  18.0410180  94.7568662  52.1090163  17.1837684  93.5215498  52.2850767
   9.5602801 103.0224016  56.8399070  10.2730773 103.6571481  56.7674972
   9.0692829 103.1187882  56.0239072  11.2820327  96.9275269  48.4116362
  10.3476606  97.0476731  48.2421066  11.4596996  96.0247736  48.1476372
   6.7825516  90.3120965  50.5649623   6.4123303  89.7592005  51.2530529
   7.2784608  89.7079098  50.0124623  14.6692879  92.7692588  48.9466396
  15.1353331  93.6020580  48.8726699  15.1200379  92.3037570  49.6511655
   4.6114714 100.7718460  57.6604641   5.3124174 101.4054942  57.8134036
   4.1409829 101.1133191  56.9000281  12.7369110  99.1136409  45.9452548
  13.0128954  98.9993004  46.8546422  11.8673609  98.7153894  45.9064721
  12.6409542  85.1373175  52.9857298  11.7272621  85.3677402  53.1539505
  13.0702643  85.2211619  53.8371330  12.4116000  93.3263067  55.4857192
  11.7587450  93.5738974  54.8309644  12.7896380  92.5127205  55.1519669
   9.3723174 103.3622760  49.5885362   9.5545568 102.5444416  50.0513114
  10.1956160 103.5790452  49.1510252   9.7065339 102.2890945  46.8500410
  10.2353106 101.7783400  46.2370573   9.9693559 101.9733475  47.7145943
   8.4603573  94.0682878  61.9723229   7.7844210  93.9677007  62.6425604
   9.2831207  93.9122092  62.4359226   3.0621087 103.3406062  49.6098186
   2.3931463 103.8252190  49.1262226   2.9233957 103.5875282  50.5241565
   7.2026356 105.3749805  56.2080845   7.7544664 105.5381427  56.9729930
   7.5432549 105.9654243  55.5360870   2.1790849  87.7224955  56.8102729
   2.2432176  88.5839786  56.3980127   2.1157969  87.1098957  56.0775088
   1.6543122  89.7948088  60.4575764   2.2815161  89.4125165  61.0713288
   0.7971041  89.5762290  60.8231456  12.0537230 100.2011063  62.0629499
  12.5977134 100.8141021  61.5684454  11.4724075 100.7590641  62.5796512
  10.3394743 103.3231781  53.1944527  10.2145883 102.5221521  52.6855472
  10.9973834 103.8177974  52.7058497   1.9602911  89.6780514  52.3721667
   1.2389497  90.2916481  52.2329140   2.7496167  90.2138278  52.2938313
  12.4029652 101.1240801  54.8224077  11.4559987 101.0046152  54.7502404
  12.7512425 100.2363299  54.9050338   4.7629225  87.0134940  58.6462319
   5.2863627  87.2597237  59.4088628   4.5441558  87.8454975  58.2265456
   9.4076085 100.9193517  51.0228429   9.2601047  99.9910225  51.2035999
  10.2329578 100.9413608  50.5385504   3.2738329  89.5711584  46.8808921
   3.6134402  90.0997506  46.1587530   3.7210450  89.9091991  47.6567488
  13.0110207 101.7422076  52.1093302  13.9356754 101.5364937  51.9717753
  12.8425510 101.4938477  53.0182643   5.9681770  87.9548635  56.3311989
   5.6278590  87.1556448  56.7332669   5.2620776  88.2550346  55.7588823
   6.6198242  85.0397948  54.7839312   7.4424311  84.5658426  54.6618203
   6.8636305  85.8188431  55.2837999   5.2606476  88.0686206  45.0802214
   5.9814839  88.4467459  44.5765931   4.6371780  88.7875083  45.1837192
   9.4037599  88.7731355  46.0160546   9.6201214  89.6555993  45.7149375
   8.9231666  88.3817568  45.2866188   4.1436821  91.7317068  52.5931291
   3.9981401  92.0457371  53.4855573   3.6662024  92.3501969  52.0402190
   6.0033204  88.7219616  52.6412181   5.9894772  87.8260709  52.3044479
   6.7205632  88.7290280  53.2750467   7.8559334  89.1556956  54.6865308
   7.5977112  90.0774027  54.6849638   7.3244375  88.7587391  55.3765772
  12.8005523 102.2607743  47.4655393  12.9742401 101.6954166  46.7129246
  13.2934414 103.0608638  47.2834883   5.4070099  87.6033996  47.9099751
   5.5286011  86.6750643  48.1090638   5.1172142  87.6172682  46.9978066
   8.2761290  85.2888907  51.0466471   8.2982987  85.3528240  50.0918450
   8.6929349  84.4493416  51.2406977  18.6544914  95.0244166  49.0845693
  19.0976060  94.2751492  48.6864816  17.7771424  95.0154303  48.7019425
  13.7880695 101.5774508  44.5652292  14.4831600 102.1981201  44.7839606
  14.1303846 100.7269859  44.8404670  15.6872119  99.0274213  46.0939622
  16.2123443  99.3661486  45.3688942  15.5994471  98.0921229  45.9102757
   7.3492167 102.9408287  58.2229499   7.6579294 102.6957434  59.0952199
   8.1467649 103.1454926  57.7348369   7.3712779 105.0946197  50.4534876
   6.9317770 104.6022575  51.1467732   8.1220896 104.5519164  50.2126951
   4.8186651 100.6384206  52.5257177   4.1966661  99.9754911  52.2259405
   5.4891518 100.6645338  51.8430825   4.8911179  89.1165994  62.1189683
   4.9399334  89.9928117  61.7367453   5.4333693  88.5743387  61.5461327
  15.3766025  99.6607117  61.3990820  14.5861568  99.6431256  60.8595320
  15.1399379 100.1995411  62.1539857  15.4963900  96.5099583  58.7123549
  15.5461905  96.3449591  59.6539072  15.3877823  95.6426842  58.3221430
   4.3800158  99.1888129  46.0015638   4.5288279  99.8723594  45.3482311
   5.1866602  99.1693219  46.5165094  12.7867662  92.4930511  60.0282856
  13.6877525  92.3536976  59.7366853  12.8615637  92.6584966  60.9681033
   7.1210467  89.8697366  58.8736042   6.2513777  90.1630932  58.6018631
   7.3569948  90.4537811  59.5943306  16.9982097  98.9296525  58.9565570
  16.7066905  99.2926506  59.7929031  16.3854228  98.2163533  58.7778903
  18.1977779  96.4949405  51.4768141  19.0324670  96.9339209  51.6405701
  18.3336908  96.0188058  50.6576386  15.2469285  94.0529140  57.4245628
  15.7223406  94.2456786  56.6164480  14.3234850  94.1088325  57.1789012
   2.1352791  95.2153307  47.0076707   1.8898833  94.3115637  47.2056917
   2.3048706  95.2170457  46.0656185   9.8249501  86.0876983  56.3901462
  10.3431445  86.8238010  56.0647951   9.4704634  86.3940976  57.2248221
   1.4048439  90.9481664  44.5062868   0.7117684  91.0226019  43.8502904
   1.1600191  90.1842008  45.0284385  10.0762095  82.5077266  51.9102359
  10.3563849  81.8400455  52.5362786  10.8612702  82.7006361  51.3977023
   7.8795564 101.6836260  43.4727385   7.3069531 102.3026447  43.0197857
   8.4528358 102.2335621  44.0067307  13.9470954  90.9294900  55.6573934
  14.8988377  91.0292997  55.6786158  13.7774404  90.1373168  56.1672018
  11.9685333  88.0150483  55.8433335  11.3735265  88.2955496  55.1479824
  11.6835030  88.5044384  56.6150076  11.0992824 101.9673410  44.6035968
  12.0323497 101.9018971  44.8068843  11.0116037 102.8029677  44.1450500
  13.7280840 101.2839280  41.5639915  13.6494472 100.9499144  42.4575673
  14.5490507 101.7761048  41.5631387  16.4259032  94.1501019  54.7716234
  16.3935352  93.2117020  54.9575918  17.0359655  94.2285056  54.0382059
   8.2642362  93.0197072  40.8143438   9.2101467  92.8903280  40.8831856
   7.8856607  92.2811734  41.2912866  16.5753520  90.9412063  54.8174517
  16.0592569  90.1570519  54.6304446  17.4593469  90.6130779  54.9821036
  14.2364247  84.6853078  50.7770330  14.0389068  84.3768167  51.6613662
  14.8463953  85.4114717  50.9068259  22.2435581  95.2117026  53.9122271
  22.9738970  94.9502314  54.4729974  21.6342527  94.4745748  53.9524339
  20.3250879  93.3524889  54.5096722  19.5984042  93.2180854  53.9013213
  19.9098165  93.6601717  55.3153440   8.1481055  97.0714818  62.2744095
   9.0684064  97.2493417  62.4684141   8.1130638  96.1270864  62.1223794
   6.4485280  90.9447049  40.7498323   5.5416735  90.6480161  40.8261037
   6.7261261  90.6476867  39.8832609   1.1443128  94.9815853  54.9166876
   1.3629137  95.9132961  54.9354910   1.5568901  94.6223828  55.7021680
   8.0647345  85.4883938  46.9042564   7.2548074  85.1431023  47.2797810
   8.7531762  85.1791482  47.4930176   9.9937894  84.5661985  48.5266861
  10.5468932  84.9857439  49.1856884  10.2307980  83.6397733  48.5689817
   6.0170993  90.5549059  64.3069625   5.9167720  91.5043416  64.2381716
   5.7992535  90.2267298  63.4345695   5.2184064  87.8033984  40.8910302
   6.0803228  88.1288882  41.1506120   5.4034408  87.0165480  40.3783368
  13.3716701  86.6762510  48.0345525  12.7915370  87.3347314  47.6523578
  13.1052633  85.8539855  47.6232943  11.8220267  86.0767568  50.2366846
  12.3220045  86.1884103  49.4281164  12.4655875  85.7728621  50.8767654
   5.8802263  93.9846198  63.1234686   5.3969345  94.7846558  63.3298576
   5.9663202  93.9954143  62.1702130   1.8075600  97.8750732  55.1603120
   2.7618854  97.8434675  55.0933052   1.6088124  97.4141356  55.9753346
   2.3974982  96.4451848  57.7273918   3.2167871  96.9395927  57.7508755
   2.6711790  95.5283817  57.6991485  12.1541579  88.8362601  47.0901873
  11.2667434  89.1212251  46.8722068  12.5695568  88.6756364  46.2429150
  15.5056115  88.8609122  50.8056213  16.2816505  89.3505574  51.0780830
  14.7804249  89.2867176  51.2628082  17.9428673  89.5736741  51.8630153
  18.5373164  89.3332477  51.1523462  18.0155257  88.8543872  52.4903690
  11.2984792  98.6007275  41.1849893  12.0020642  98.8057278  41.8007549
  10.5747441  99.1684037  41.4498977  12.1282602  94.3517137  47.3052164
  12.0717804  94.8085688  46.4659796  12.6810945  93.5907821  47.1275006
  15.9387408  90.1406869  48.1302283  15.6824343  89.7403504  48.9610491
  15.3140276  90.8550663  48.0052422  20.2499746  92.8802942  50.6373575
  19.6899304  92.9496131  51.4105137  19.6443250  92.7043926  49.9173071
   3.3194955 104.3139669  52.3891761   3.2027339 105.2585101  52.2870451
   2.4987401 104.0113230  52.7777560  13.2071490  99.0389805  43.2348353
  14.0417093  98.6071003  43.0525828  13.0455832  98.8671818  44.1625248
  12.8617382  95.5421918  44.6004693  12.8066186  95.3766189  43.6593137
  12.2363437  96.2497951  44.7566883  10.1763289  97.8470830  63.9258256
  11.0454449  98.0211482  63.5644890   9.6970040  98.6665247  63.8033985
   6.1713507  85.0430027  44.1790011   6.1592177  85.9871867  44.3358282
   7.0636929  84.8600172  43.8849472   4.3449469 104.9667931  55.6047689
   5.2476716 104.9991541  55.9214184   4.1186839 104.0368382  55.6194025
   6.1003071 103.7198917  52.2657768   5.1498702 103.7200779  52.1522140
   6.4035557 102.9731652  51.7493802   9.9865627  81.6372804  48.4335948
   9.2198022  81.0831290  48.5792630  10.3976332  81.7094672  49.2950100
   1.9907388  87.9257599  62.5241129   2.8538849  87.5694404  62.7344454
   1.4172798  87.5871494  63.2116534  21.8355765 109.5559456  53.3303530
  22.4734175 109.4366203  52.6266870  21.7176608 110.5040300  53.3891482
  18.6445471 109.5086884  53.2665055  18.3063982 109.3927949  52.3785590
  19.5135239 109.1078049  53.2466061  14.5032287 111.3622360  49.2561946
  13.9397152 111.2712297  48.4878234  14.3884682 110.5422265  49.7364438
  19.1265254 110.6621736  59.2251260  19.1153895 110.2674534  58.3531764
  19.2885893 109.9287808  59.8185032  12.0496719 112.8573552  52.0946166
  12.8418010 112.5164377  51.6792466  12.2893369 112.9668527  53.0148320
  20.0831845 115.0293328  44.5676411  19.4319825 115.6147408  44.1810425
  20.8776208 115.5599523  44.6271448  14.0087472 112.1182465  44.9663545
  14.7818348 111.5711452  44.8276421  14.3612871 112.9826714  45.1778007
  15.8472515 113.4458847  58.1730444  15.5562381 114.3504478  58.0577111
  16.4829499 113.4875375  58.8874514  16.7728722 110.8235696  54.7631804
  17.3692294 110.5991718  54.0488767  16.8303693 110.0820441  55.3657252
  16.3453750 108.2775131  42.5981995  16.5979271 107.7556653  41.8365458
  15.4078309 108.1141277  42.7008679  21.3897033 107.2810910  50.4056738
  22.1760122 106.8630333  50.0547155  21.6535737 108.1857002  50.5738387
  21.5607110 112.7183760  45.1045395  20.9252943 112.7918386  45.8166300
  21.2304517 113.3077359  44.4264474  26.7905460 107.2186143  51.3089717
  27.5230632 106.6485360  51.5427546  26.0344816 106.8307743  51.7496222
  16.0650039 110.1803237  44.8006370  15.9486297 109.5048141  45.4687454
  16.1752299 109.6935611  43.9838523  18.4081580 109.6413384  48.5053059
  18.0439787 109.1144005  49.2165981  19.2648696 109.2511853  48.3319545
  24.3130881 100.9307717  55.7684325  23.9814205 101.8003128  55.5445540
  23.7176494 100.6144001  56.4478356  18.0487067 104.6703284  43.5014408
  18.2161469 105.5383520  43.8684879  17.8584236 104.8330566  42.5775697
  20.8062400 113.1320263  55.1680238  20.5063123 114.0345302  55.0596045
  20.4613460 112.8652446  56.0201391  14.2574882 109.5834060  51.2016943
  13.3325378 109.4510274  51.4094634  14.5059295 110.3628279  51.6986885
  24.2059544 105.6502803  52.8477675  23.2976421 105.5818212  52.5536436
  24.1547140 106.1274748  53.6759501  18.0276288 107.1260942  44.4861075
  17.9075913 107.5717992  45.3246555  17.3328876 107.4746259  43.9274613
  11.6183693 109.2267333  52.0360732  11.7476074 109.4801812  52.9500143
  10.9381144 109.8195041  51.7165387  15.7883180 119.8964583  48.1351206
  15.7107210 120.8472408  48.2139686  15.1844824 119.5510456  48.7926132
  18.2800410 107.0692449  60.7912573  17.5033744 107.6286369  60.7815437
  18.9190973 107.5549232  61.3127443  26.0721190 103.8519241  54.6255549
  25.4295571 104.1451775  53.9795344  25.5676119 103.7372162  55.4308746
  23.7261354 107.5982415  45.3141409  24.6379210 107.8309801  45.1389106
  23.2171001 108.1819459  44.7516487  16.5346782 109.8777902  60.3530540
  17.2761466 110.4162946  60.0765363  15.8283767 110.5044191  60.5102092
  22.0102122 112.0207043  58.9502701  22.4185478 111.5789453  58.2057334
  21.2879383 111.4459670  59.2036894  18.3633192 106.9579649  56.3236258
  19.2094387 107.3819063  56.4670907  18.3031829 106.3013274  57.0174821
  22.3330936 112.5808233  52.7054990  21.7039799 112.7453947  52.0031058
  21.9456598 112.9949843  53.4765954  26.2120168 113.5162671  50.0599354
  25.5271206 113.8961572  49.5096387  26.2964018 114.1257998  50.7931302
  21.5132637 104.6184018  57.9817432  21.2693569 105.3726078  57.4451707
  21.7892568 104.9969365  58.8164679  23.4671100 111.1622630  56.6594697
  23.6787995 111.8054390  55.9829078  23.4200848 110.3284947  56.1916627
  21.0697329 103.7740451  53.5631270  20.2081808 104.0721704  53.8548007
  21.0959763 103.9910850  52.6312302  17.8858898 112.3182641  49.9705075
  18.3497244 112.5970344  49.1809698  17.6215696 111.4166086  49.7878166
  14.7782979 111.8654123  52.9084838  15.3484336 112.2941391  52.2702323
  15.3691091 111.5836707  53.6069024  16.8227784 108.4405794  46.7794640
  17.5251828 108.8926837  47.2468567  16.4908413 107.7989612  47.4074533
  15.2708146 107.0317550  61.1545850  14.6406806 107.7133831  61.3881247
  15.1644234 106.9200632  60.2098988  10.5653118 106.6989346  52.0811774
   9.7752172 106.9546875  51.6051885  11.0564366 107.5137684  52.1863814
  24.5816928 114.0394585  54.8317055  25.4034371 113.6374773  54.5499736
  24.5779331 113.9362820  55.7833171  12.5167864 107.0633926  49.0395251
  11.7199027 107.1752620  49.5578746  12.2893456 107.4020578  48.1736141
  18.3473531 113.5878629  56.9877765  18.4117964 114.0499036  57.8235937
  17.6384455 112.9575994  57.1160075   8.8490821 106.9519837  54.5126765
   9.0998860 107.8366847  54.7784341   9.3850370 106.7724438  53.7401857
  32.6722921 110.3833334  51.1802026  31.9186629 109.8140732  51.0246031
  32.8070462 110.3495998  52.1272661  18.0621549 115.2546736  46.8556746
  17.9267224 116.0998272  47.2841593  18.6031361 115.4566014  46.0922679
  14.5488889 101.3338316  63.5171101  14.1555834 100.7804515  64.1918745
  15.3655029 101.6448895  63.9077618  11.5150946 112.7722174  47.4284671
  12.0275467 113.5665425  47.5790235  12.1673659 112.0748465  47.3618272
  13.3245831 115.8887931  49.5107424  13.5012459 116.8105895  49.3228408
  14.1202664 115.5746350  49.9401804  17.4656849 102.7496195  61.1091357
  18.2066563 103.3503348  61.0295820  17.6974772 102.0073833  60.5509400
  12.6098188 107.9352562  59.3869587  12.4951703 107.0337820  59.6876686
  11.7542705 108.1816259  59.0354404  19.6890025 115.8770303  60.9857088
  19.2453879 115.0906681  60.6677992  20.3507239 116.0649453  60.3200978
  14.4477146 117.4066104  55.5117766  14.9984572 117.2783168  54.7394760
  13.6088622 117.7060993  55.1612659  21.7871263 116.1573103  59.0138489
  21.7689739 116.9781984  58.5218758  22.7091183 116.0327178  59.2388630
  18.2444317 113.6717232  59.8561997  18.7772654 112.9105520  59.6261305
  17.7158399 113.3790884  60.5986152  21.4114012  98.7777298  55.3855639
  21.0678282  99.6678940  55.3094750  21.7792975  98.5878956  54.5225224
   9.4799863 111.1010829  48.2044241  10.3175085 111.5107837  47.9877949
   9.6578131 110.1610271  48.1744435  21.3764295 108.7685909  43.8928074
  20.8610919 109.5390514  44.1316462  21.1041604 108.0951045  44.5161136
  18.9611406 103.6135610  48.9513313  18.1053003 103.2242460  48.7718951
  19.3738358 103.6927571  48.0913098  20.4910553 101.1481953  53.3504872
  19.9875348 101.1112088  52.5372678  20.7841160 102.0574696  53.4101529
  16.7353439 101.2320683  52.3571054  17.6006435 101.0363492  51.9976943
  16.8030948 101.0031035  53.2840411  26.3498569 111.5218264  45.8281248
  25.5728012 111.1829423  45.3836410  27.0290050 111.5270887  45.1536213
  21.1650598 106.6413001  45.7187855  20.8600734 106.9559150  46.5697999
  22.1181040 106.7194421  45.7615188  19.6097030 112.8003225  47.3680809
  19.0818392 112.0655984  47.0554047  19.1084533 113.5777901  47.1220778
  24.5889876 110.9952245  52.4847856  23.9313551 111.6851506  52.5727984
  25.3930275 111.3848677  52.8281842  14.3415758 103.4622891  49.7287421
  14.9159510 103.2398072  48.9960614  14.9286740 103.5311585  50.4816022
  23.3995335 109.3496618  50.5351797  23.9127217 109.9826610  51.0373507
  24.0496559 108.7497813  50.1695157  14.6685345 105.4927352  43.7483306
  13.8322657 105.8302038  44.0692581  14.5290115 105.3576332  42.8110443
  16.6438425 100.3364140  48.4562490  15.9902838 100.0213157  47.8319105
  16.6018900  99.7139880  49.1822313  17.7549630 110.6183435  40.3715782
  16.8476692 110.3872688  40.5706931  18.2520662 109.8221054  40.5589764
  20.6617709 119.3280942  43.2912468  19.9879408 119.6312639  43.8997426
  21.0483531 120.1310022  42.9417926  19.8776166 106.8246073  52.7810138
  18.9598727 107.0461020  52.6231826  20.2936309 106.8992384  51.9221845
  20.6611214 108.2237489  47.9112818  21.4083033 108.7358886  47.6019940
  20.9302803 107.9021542  48.7717212  18.9337864 110.7196030  44.8939772
  18.0249083 110.4355063  44.9912242  18.9632948 111.1395108  44.0343079
  24.1657131 114.3302619  48.6630940  23.7119458 113.4893529  48.7196130
  23.5351098 114.9664018  49.0005720  23.1090051 105.2594605  49.8931607
  22.3712808 104.7471991  50.2241850  23.3616824 104.8194987  49.0814884
  22.6090070 116.1679116  49.5980758  22.9013045 116.7284173  48.8793124
  23.1188691 116.4607677  50.3533917  23.2101678  98.0370857  50.4873377
  23.5160555  97.1768221  50.1999292  23.9354283  98.6288477  50.2872371
   9.5026034 108.4401544  48.8754975   9.3050434 107.8470905  48.1506041
   8.9472698 108.1353754  49.5930913  17.4822758 108.3324650  50.9949568
  17.5371368 107.3798487  50.9192044  16.6713960 108.4884089  51.4790866
  18.6313952 112.2604773  42.2327851  18.1933382 111.5440632  41.7733488
  19.3724392 112.4880888  41.6712942  15.4215118 106.9501710  48.7539947
  14.6082983 107.2495881  49.1605139  15.9174112 106.5557399  49.4714429
  17.5723696 116.9459467  50.6874211  17.5299874 117.1720313  49.7582743
  18.4886394 116.7122842  50.8360012  21.0189329 107.4143535  57.5854841
  21.3738717 107.6415008  58.4449306  21.6661461 107.7461911  56.9632096
  26.7487066 110.5361970  48.2904170  26.6104965 110.7263566  47.3625359
  26.3923285 111.2981353  48.7472221  14.9129193 104.5220066  54.3701182
  15.5528572 104.3808825  53.6724145  14.0806723 104.2354579  53.9939784
  26.7756446 112.6038497  53.3015441  27.2092953 112.5113787  54.1498495
  27.4888027 112.5795998  52.6635457  15.6889496 113.8222496  50.4836174
  16.4830095 113.3272816  50.2818749  14.9781189 113.2940359  50.1203880
  20.5084341 116.2040592  54.8348542  20.5621363 116.7731528  55.6026258
  19.6399122 116.3742477  54.4702579  11.9972260 107.9665578  46.5595927
  11.0669848 107.9050033  46.7765889  12.0929732 107.4441531  45.7632568
  11.9157809 104.4920391  49.1474168  12.1764626 105.4065724  49.0383329
  12.7374981 104.0244833  49.2970781  13.3882734 105.9058148  56.3172993
  14.0605788 105.6975510  55.6685642  12.5612521 105.7080234  55.8778225
  27.6371996 112.6462198  55.8348326  27.8307886 113.5508009  56.0807601
  27.5372614 112.1869617  56.6686911  19.2908306 102.5320089  58.3338654
  18.6436221 103.2310038  58.2403130  20.0609322 102.9656233  58.7014902
  22.6987104 112.7968941  61.4089207  22.5472611 112.5679493  60.4919291
  22.6891784 113.7539542  61.4220552  19.4672441 110.3700854  56.3935474
  20.3964501 110.5212013  56.2204441  19.0463471 110.4584874  55.5384120
  18.2660772 114.3951518  54.1634011  18.1271858 114.0270302  55.0359949
  17.4775369 114.9099157  53.9917969  18.8608924 119.4960614  45.5059548
  19.0360680 119.0248658  46.3205170  18.1741712 120.1226381  45.7340808
  19.8165988 113.7733121  51.5522849  19.4815820 113.7333891  52.4480499
  19.3169933 113.1077837  51.0793259  13.7910232 109.1800751  57.0775430
  13.6530029 108.4480990  57.6786969  14.7015155 109.0909651  56.7959618
  22.7525179 111.1189155  41.8259909  22.1354350 110.3935983  41.7292961
  22.2841668 111.8798515  41.4826983  16.4192532 108.8920710  56.5659110
  17.1292151 108.2513902  56.5245728  16.3761840 109.1433605  57.4885291
  24.4079311 115.8288063  59.4865689  24.3491857 115.1447284  58.8196272
  24.8098829 116.5707053  59.0346315  15.1321466 105.8785928  58.3854749
  14.5958823 105.4276666  59.0376346  14.5438175 106.0131837  57.6425214
  13.4270010 122.6449977  52.2799408  13.6666608 123.2768501  52.9578426
  12.5839206 122.2938017  52.5664767  14.5423725 105.3374579  40.9481213
  13.6653191 105.2163380  40.5843460  15.0181478 104.5460658  40.6960102
  24.4096718 113.7927647  57.7179669  23.5223497 113.4553569  57.8406067
  24.9795269 113.0610679  57.9548434   6.0625865 110.1251739  51.0422720
   6.7496905 109.8113469  50.4543735   5.9073994 111.0293104  50.7689971
  10.8660587 105.0141936  55.4707744  10.7818776 104.4067605  54.7358154
  10.0443294 105.5050954  55.4717240  17.9397872 118.4529100  54.6840912
  17.8668043 119.2584071  55.1960216  17.4975265 118.6521066  53.8588933
  17.7287651 117.6900870  48.1943733  16.9455173 118.2322550  48.2881958
  18.4280396 118.2074849  48.5937975  21.0384301 103.4995499  50.8377939
  21.5353001 102.7465462  50.5179009  20.2671283 103.5359816  50.2721148
  28.8914059 109.2035865  52.4796230  28.8803935 110.0860580  52.1090163
  28.0231438 108.8507416  52.2850767  20.3996555 118.3515934  56.8399070
  21.1124527 118.9863399  56.7674972  19.9086584 118.4479800  56.0239072
  22.1214082 112.2567186  48.4116362  21.1870361 112.3768649  48.2421066
  22.2990750 111.3539653  48.1476372  17.6219270 105.6412882  50.5649623
  17.2517058 105.0883923  51.2530529  18.1178362 105.0371016  50.0124623
  25.5086633 108.0984506  48.9466396  25.9747086 108.9312497  48.8726699
  25.9594134 107.6329487  49.6511655  15.4508469 116.1010377  57.6604641
  16.1517928 116.7346860  57.8134036  14.9803584 116.4425109  56.9000281
  23.5762864 114.4428327  45.9452548  23.8522708 114.3284922  46.8546422
  22.7067363 114.0445812  45.9064721  23.4803296 100.4665093  52.9857298
  22.5666376 100.6969320  53.1539505  23.9096398 100.5503537  53.8371330
  23.2509755 108.6554985  55.4857192  22.5981205 108.9030892  54.8309644
  23.6290134 107.8419123  55.1519669  20.2116928 118.6914678  49.5885362
  20.3939323 117.8736334  50.0513114  21.0349914 118.9082370  49.1510252
  20.5459094 117.6182863  46.8500410  21.0746860 117.1075318  46.2370573
  20.8087314 117.3025393  47.7145943  19.2997328 109.3974796  61.9723229
  18.6237965 109.2968925  62.6425604  20.1224961 109.2414009  62.4359226
  11.0476187 115.6346732  54.5935744  11.6329623 114.8890420  54.7263648
  10.8501025 115.9450689  55.4772408  13.9014842 118.6697980  49.6098186
  13.2325217 119.1544107  49.1262226  13.7627712 118.9167200  50.5241565
   5.6393841 108.2052332  53.3140187   5.6777941 107.6715923  54.1077305
   5.1334134 107.6787538  52.6951164  18.0420110 120.7041723  56.2080845
  18.5938418 120.8673345  56.9729930  18.3826304 121.2946161  55.5360870
  13.0184604 103.0516873  56.8102729  13.0825930 103.9131704  56.3980127
  12.9551724 102.4390875  56.0775088  12.4936876 105.1240006  60.4575764
  13.1208915 104.7417083  61.0713288  11.6364795 104.9054207  60.8231456
  22.8930985 115.5302981  62.0629499  23.4370889 116.1432939  61.5684454
  22.3117830 116.0882559  62.5796512   9.2702419 106.9316435  46.3894119
   9.5655860 106.0227113  46.3361172   8.3690455 106.9104174  46.0675121
  21.1788498 118.6523699  53.1944527  21.0539637 117.8513439  52.6855472
  21.8367589 119.1469892  52.7058497  12.7996666 105.0072431  52.3721667
  12.0783252 105.6208399  52.2329140  13.5889922 105.5430196  52.2938313
  23.2423406 116.4532719  54.8224077  22.2953742 116.3338070  54.7502404
  23.5906179 115.5655217  54.9050338  15.6022979 102.3426858  58.6462319
  16.1257381 102.5889154  59.4088628  15.3835313 103.1746892  58.2265456
  10.9990261 104.6130532  46.5133444  10.6702967 103.7327911  46.3308550
  11.3529631 104.5578201  47.4009833  20.2469839 116.2485435  51.0228429
  20.0994802 115.3202142  51.2035999  21.0723333 116.2705526  50.5385504
  14.1132084 104.9003502  46.8808921  14.4528156 105.4289423  46.1587530
  14.5604204 105.2383908  47.6567488  23.8503961 117.0713994  52.1093302
  24.7750509 116.8656855  51.9717753  23.6819265 116.8230395  53.0182643
  16.8075525 103.2840553  56.3311989  16.4672345 102.4848366  56.7332669
  16.1014531 103.5842264  55.7588823  17.4591996 100.3689865  54.7839312
  18.2818066  99.8950343  54.6618203  17.7030060 101.1480349  55.2837999
  16.1000231 103.3978124  45.0802214  16.8208593 103.7759376  44.5765931
  15.4765535 104.1167000  45.1837192  20.2431354 104.1023273  46.0160546
  20.4594968 104.9847911  45.7149375  19.7625421 103.7109486  45.2866188
  14.9830575 107.0608986  52.5931291  14.8375156 107.3749289  53.4855573
  14.5055779 107.6793886  52.0402190  16.8426958 104.0511534  52.6412181
  16.8288527 103.1552627  52.3044479  17.5599386 104.0582198  53.2750467
  18.6953089 104.4848874  54.6865308  18.4370867 105.4065945  54.6849638
  18.1638129 104.0879309  55.3765772  23.6399277 117.5899661  47.4655393
  23.8136155 117.0246084  46.7129246  24.1328169 118.3900556  47.2834883
   9.4576237 109.6014330  55.5318952   8.9129705 110.3774138  55.6639227
  10.3355587 109.9485135  55.3738074  16.2463854 102.9325914  47.9099751
  16.3679765 102.0042560  48.1090638  15.9565896 102.9464600  46.9978066
  19.1155044 100.6180825  51.0466471  19.1376741 100.6820158  50.0918450
  19.5323103  99.7785333  51.2406977  29.4938669 110.3536084  49.0845693
  29.9369815 109.6043409  48.6864816  28.6165179 110.3446220  48.7019425
  24.6274450 116.9066426  44.5652292  25.3225355 117.5273118  44.7839606
  24.9697600 116.0561777  44.8404670  10.2442259 108.7284227  58.4249109
   9.5023995 108.8766862  59.0113740   9.9235003 108.9892492  57.5615858
  26.5265873 114.3566131  46.0939622  27.0517197 114.6953404  45.3688942
  26.4388226 113.4213146  45.9102757  18.1885922 118.2700205  58.2229499
  18.4973048 118.0249352  59.0952199  18.9861404 118.4746843  57.7348369
  18.2106534 120.4238114  50.4534876  17.7711524 119.9314493  51.1467732
  18.9614651 119.8811082  50.2126951  10.6898873 116.6149655  50.4559504
  11.5156893 116.3153427  50.0758147  10.3392925 115.8457278  50.9049292
  15.6580406 115.9676123  52.5257177  15.0360415 115.3046828  52.2259405
  16.3285273 115.9937255  51.8430825   8.8907478 114.5335982  51.4148437
   8.0539386 114.1058156  51.2332439   8.8631123 114.7268425  52.3519229
  15.7304933 104.4457911  62.1189683  15.7793089 105.3220034  61.7367453
  16.2727448 103.9035305  61.5461327  26.2159779 114.9899035  61.3990820
  25.4255323 114.9723174  60.8595320  25.9793134 115.5287328  62.1539857
  26.3357654 111.8391501  58.7123549  26.3855659 111.6741509  59.6539072
  26.2271578 110.9718760  58.3221430  15.2193913 114.5180047  46.0015638
  15.3682033 115.2015511  45.3482311  16.0260356 114.4985137  46.5165094
  23.6261417 107.8222429  60.0282856  24.5271279 107.6828894  59.7366853
  23.7009391 107.9876884  60.9681033  17.9604222 105.1989284  58.8736042
  17.0907531 105.4922850  58.6018631  18.1963702 105.7829729  59.5943306
  27.8375851 114.2588443  58.9565570  27.5460659 114.6218423  59.7929031
  27.2247982 113.5455451  58.7778903  29.0371533 111.8241322  51.4768141
  29.8718425 112.2631126  51.6405701  29.1730662 111.3479976  50.6576386
  26.0863039 109.3821057  57.4245628  26.5617161 109.5748704  56.6164480
  25.1628605 109.4380243  57.1789012  12.9746546 110.5445224  47.0076707
  12.7292588 109.6407554  47.2056917  13.1442460 110.5462375  46.0656185
  20.6643256 101.4168901  56.3901462  21.1825200 102.1529928  56.0647951
  20.3098389 101.7232894  57.2248221  12.2442193 106.2773582  44.5062868
  11.5511438 106.3517937  43.8502904  11.9993945 105.5133926  45.0284385
  20.9155850  97.8369183  51.9102359  21.1957604  97.1692372  52.5362786
  21.7006457  98.0298279  51.3977023  18.7189318 117.0128177  43.4727385
  18.1463285 117.6318364  43.0197857  19.2922112 117.5627539  44.0067307
  24.7864708 106.2586817  55.6573934  25.7382131 106.3584915  55.6786158
  24.6168159 105.4665086  56.1672018  22.8079088 103.3442401  55.8433335
  22.2129020 103.6247413  55.1479824  22.5228784 103.8336301  56.6150076
  21.9386578 117.2965327  44.6035968  22.8717251 117.2310889  44.8068843
  21.8509791 118.1321594  44.1450500  24.5674595 116.6131198  41.5639915
  24.4888226 116.2791061  42.4575673  25.3884262 117.1052966  41.5631387
  27.2652786 109.4792937  54.7716234  27.2329106 108.5408938  54.9575918
  27.8753410 109.5576974  54.0382059  19.1036117 108.3488990  40.8143438
  20.0495222 108.2195198  40.8831856  18.7250362 107.6103652  41.2912866
  27.4147275 106.2703980  54.8174517  26.8986323 105.4862437  54.6304446
  28.2987223 105.9422697  54.9821036  25.0758001 100.0144996  50.7770330
  24.8782823  99.7060084  51.6613662  25.6857707 100.7406635  50.9068259
  33.0829336 110.5408944  53.9122271  33.8132724 110.2794232  54.4729974
  32.4736281 109.8037666  53.9524339  31.1644633 108.6816806  54.5096722
  30.4377797 108.5472771  53.9013213  30.7491920 108.9893635  55.3153440
  18.9874809 112.4006736  62.2744095  19.9077819 112.5785335  62.4684141
  18.9524392 111.4562781  62.1223794  17.2879034 106.2738966  40.7498323
  16.3810489 105.9772079  40.8261037  17.5655015 105.9768784  39.8832609
   8.2056974 107.5945330  51.1997369   7.8859759 106.7410638  50.9071743
   7.6590403 107.8093908  51.9555337  11.9836882 110.3107771  54.9166876
  12.2022892 111.2424879  54.9354910  12.3962656 109.9515745  55.7021680
  18.9041100 100.8175856  46.9042564  18.0941828 100.4722941  47.2797810
  19.5925517 100.5083400  47.4930176  20.8331648  99.8953903  48.5266861
  21.3862687 100.3149356  49.1856884  21.0701734  98.9689651  48.5689817
  16.8564747 105.8840977  64.3069625  16.7561474 106.8335334  64.2381716
  16.6386289 105.5559215  63.4345695  16.0577819 103.1325902  40.8910302
  16.9196983 103.4580800  41.1506120  16.2428163 102.3457398  40.3783368
   8.0745234 111.2148241  53.1690491   7.3808706 110.8002194  52.6560445
   8.8218225 111.2568778  52.5723910  24.2110455 102.0054428  48.0345525
  23.6309124 102.6639232  47.6523578  23.9446388 101.1831773  47.6232943
  22.6614022 101.4059486  50.2366846  23.1613800 101.5176020  49.4281164
  23.3049629 101.1020539  50.8767654  16.7196017 109.3138115  63.1234686
  16.2363099 110.1138476  63.3298576  16.8056956 109.3246060  62.1702130
   9.9881977 111.1466495  51.0456506   9.9652665 111.2454182  50.0938389
  10.2982613 111.9931646  51.3673672  12.6469355 113.2042650  55.1603120
  13.6012608 113.1726592  55.0933052  12.4481878 112.7433274  55.9753346
  13.2368737 111.7743766  57.7273918  14.0561626 112.2687845  57.7508755
  13.5105545 110.8575734  57.6991485  22.9935333 104.1654518  47.0901873
  22.1061188 104.4504169  46.8722068  23.4089322 104.0048282  46.2429150
  26.3449869 104.1901039  50.8056213  27.1210259 104.6797492  51.0780830
  25.6198003 104.6159094  51.2628082  28.7822428 104.9028659  51.8630153
  29.3766919 104.6624395  51.1523462  28.8549012 104.1835789  52.4903690
  11.0019584 118.7462270  52.1773318  10.8674052 117.9862670  51.6111316
  10.5851646 119.4703169  51.7102107  22.1378547 113.9299193  41.1849893
  22.8414397 114.1349196  41.8007549  21.4141195 114.4975955  41.4498977
  22.9676357 109.6809054  47.3052164  22.9111558 110.1377606  46.4659796
  23.5204699 108.9199739  47.1275006  26.7781163 105.4698786  48.1302283
  26.5218097 105.0695422  48.9610491  26.1534031 106.1842580  48.0052422
  31.0893501 108.2094860  50.6373575  30.5293059 108.2788049  51.4105137
  30.4837004 108.0335844  49.9173071  14.1588710 119.6431587  52.3891761
  14.0421094 120.5877019  52.2870451  13.3381156 119.3405148  52.7777560
  24.0465244 114.3681722  43.2348353  24.8810848 113.9362921  43.0525828
  23.8849587 114.1963736  44.1625248  23.7011136 110.8713836  44.6004693
  23.6459940 110.7058107  43.6593137  23.0757192 111.5789869  44.7566883
   8.4903651 106.1081900  58.4266115   9.1362515 105.5980854  58.9153340
   8.2820802 106.8450582  59.0009540  21.0157043 113.1762747  63.9258256
  21.8848203 113.3503400  63.5644890  20.5363795 113.9957164  63.8033985
  17.0107262 100.3721945  44.1790011  16.9985932 101.3163785  44.3358282
  17.9030684 100.1892090  43.8849472  15.1843224 120.2959848  55.6047689
  16.0870470 120.3283459  55.9214184  14.9580594 119.3660299  55.6194025
  16.9396826 119.0490835  52.2657768  15.9892457 119.0492697  52.1522140
  17.2429312 118.3023570  51.7493802  20.8259381  96.9664721  48.4335948
  20.0591777  96.4123208  48.5792630  21.2370086  97.0386590  49.2950100
  12.8301142 103.2549517  62.5241129  13.6932604 102.8986322  62.7344454
  12.2566553 102.9163412  63.2116534  32.6749519 124.8851373  53.3303530
  33.3127929 124.7658121  52.6266870  32.5570362 125.8332217  53.3891482
  29.4839225 124.8378802  53.2665055  29.1457737 124.7219866  52.3785590
  30.3528994 124.4369967  53.2466061  25.3426041 126.6914278  49.2561946
  24.7790906 126.6004215  48.4878234  25.2278436 125.8714182  49.7364438
  29.9659008 125.9913653  59.2251260  29.9547649 125.5966452  58.3531764
  30.1279648 125.2579726  59.8185032  22.8890473 128.1865470  52.0946166
  23.6811765 127.8456294  51.6792466  23.1287123 128.2960445  53.0148320
  30.9225600 130.3585246  44.5676411  30.2713580 130.9439326  44.1810425
  31.7169963 130.8891441  44.6271448  24.8481227 127.4474383  44.9663545
  25.6212103 126.9003370  44.8276421  25.2006626 128.3118632  45.1778007
  26.6866270 128.7750765  58.1730444  26.3956136 129.6796396  58.0577111
  27.3223254 128.8167293  58.8874514  27.6122476 126.1527614  54.7631804
  28.2086049 125.9283636  54.0488767  27.6697448 125.4112359  55.3657252
  27.1847505 123.6067049  42.5981995  27.4373025 123.0848570  41.8365458
  26.2472064 123.4433194  42.7008679  32.2290788 122.6102827  50.4056738
  33.0153877 122.1922250  50.0547155  32.4929492 123.5148919  50.5738387
  32.4000865 128.0475678  45.1045395  31.7646698 128.1210304  45.8166300
  32.0698271 128.6369276  44.4264474  37.6299215 122.5478060  51.3089717
  38.3624387 121.9777277  51.5427546  36.8738570 122.1599661  51.7496222
  26.9043794 125.5095155  44.8006370  26.7880052 124.8340058  45.4687454
  27.0146053 125.0227529  43.9838523  29.2475334 124.9705302  48.5053059
  28.8833542 124.4435923  49.2165981  30.1042450 124.5803771  48.3319545
  35.1524635 116.2599635  55.7684325  34.8207960 117.1295046  55.5445540
  34.5570248 115.9435919  56.4478356  28.8880821 119.9995202  43.5014408
  29.0555224 120.8675438  43.8684879  28.6977991 120.1622483  42.5775697
  31.6456155 128.4612181  55.1680238  31.3456878 129.3637219  55.0596045
  31.3007214 128.1944364  56.0201391  25.0968636 124.9125977  51.2016943
  24.1719133 124.7802192  51.4094634  25.3453049 125.6920197  51.6986885
  35.0453298 120.9794721  52.8477675  34.1370176 120.9110129  52.5536436
  34.9940894 121.4566666  53.6759501  28.8670042 122.4552859  44.4861075
  28.7469668 122.9009910  45.3246555  28.1722631 122.8038177  43.9274613
  22.4577447 124.5559251  52.0360732  22.5869828 124.8093730  52.9500143
  21.7774898 125.1486959  51.7165387  26.6276934 135.2256501  48.1351206
  26.5500964 136.1764326  48.2139686  26.0238578 134.8802373  48.7926132
  29.1194164 122.3984366  60.7912573  28.3427498 122.9578286  60.7815437
  29.7584727 122.8841149  61.3127443  36.9114945 119.1811159  54.6255549
  36.2689325 119.4743692  53.9795344  36.4069873 119.0664080  55.4308746
  34.5655108 122.9274332  45.3141409  35.4772965 123.1601719  45.1389106
  34.0564756 123.5111377  44.7516487  27.3740537 125.2069820  60.3530540
  28.1155221 125.7454864  60.0765363  26.6677522 125.8336108  60.5102092
  32.8495876 127.3498960  58.9502701  33.2579232 126.9081371  58.2057334
  32.1273138 126.7751588  59.2036894  29.2026946 122.2871567  56.3236258
  30.0488141 122.7110981  56.4670907  29.1425584 121.6305191  57.0174821
  33.1724691 127.9100151  52.7054990  32.5433553 128.0745865  52.0031058
  32.7850353 128.3241760  53.4765954  37.0513923 128.8454589  50.0599354
  36.3664961 129.2253490  49.5096387  37.1357772 129.4549915  50.7931302
  32.3526392 119.9475935  57.9817432  32.1087323 120.7017996  57.4451707
  32.6286322 120.3261283  58.8164679  34.3064854 126.4914548  56.6594697
  34.5181750 127.1346308  55.9829078  34.2594603 125.6576864  56.1916627
  31.9091083 119.1032368  53.5631270  31.0475562 119.4013622  53.8548007
  31.9353518 119.3202767  52.6312302  28.7252653 127.6474559  49.9705075
  29.1890998 127.9262262  49.1809698  28.4609451 126.7458003  49.7878166
  25.6176734 127.1946040  52.9084838  26.1878091 127.6233309  52.2702323
  26.2084846 126.9128625  53.6069024  27.6621539 123.7697711  46.7794640
  28.3645582 124.2218755  47.2468567  27.3302167 123.1281530  47.4074533
  26.1101900 122.3609468  61.1545850  25.4800561 123.0425749  61.3881247
  26.0037988 122.2492550  60.2098988  21.4046873 122.0281264  52.0811774
  20.6145927 122.2838792  51.6051885  21.8958120 122.8429602  52.1863814
  35.4210682 129.3686503  54.8317055  36.2428126 128.9666690  54.5499736
  35.4173085 129.2654737  55.7833171  23.3561618 122.3925843  49.0395251
  22.5592781 122.5044537  49.5578746  23.1287210 122.7312495  48.1736141
  29.1867286 128.9170546  56.9877765  29.2511718 129.3790954  57.8235937
  28.4778210 128.2867911  57.1160075  19.6884576 122.2811754  54.5126765
  19.9392614 123.1658764  54.7784341  20.2244124 122.1016356  53.7401857
  43.5116675 125.7125252  51.1802026  42.7580384 125.1432650  51.0246031
  43.6464217 125.6787916  52.1272661  28.9015303 130.5838654  46.8556746
  28.7660978 131.4290190  47.2841593  29.4425116 130.7857932  46.0922679
  25.3882643 116.6630234  63.5171101  24.9949589 116.1096432  64.1918745
  26.2048783 116.9740812  63.9077618  22.3544701 128.1014092  47.4284671
  22.8669221 128.8957342  47.5790235  23.0067414 127.4040382  47.3618272
  24.1639585 131.2179848  49.5107424  24.3406214 132.1397813  49.3228408
  24.9596419 130.9038267  49.9401804  28.3050604 118.0788113  61.1091357
  29.0460317 118.6795266  61.0295820  28.5368527 117.3365751  60.5509400
  23.4491942 123.2644480  59.3869587  23.3345457 122.3629737  59.6876686
  22.5936460 123.5108177  59.0354404  30.5283780 131.2062220  60.9857088
  30.0847634 130.4198599  60.6677992  31.1900993 131.3941371  60.3200978
  25.2870901 132.7358022  55.5117766  25.8378326 132.6075085  54.7394760
  24.4482377 133.0352911  55.1612659  32.6265018 131.4865020  59.0138489
  32.6083493 132.3073901  58.5218758  33.5484938 131.3619096  59.2388630
  29.0838072 129.0009150  59.8561997  29.6166409 128.2397438  59.6261305
  28.5552153 128.7082802  60.5986152  32.2507767 114.1069216  55.3855639
  31.9072036 114.9970857  55.3094750  32.6186730 113.9170873  54.5225224
  20.3193618 126.4302746  48.2044241  21.1568840 126.8399755  47.9877949
  20.4971885 125.4902188  48.1744435  32.2158050 124.0977827  43.8928074
  31.7004673 124.8682432  44.1316462  31.9435358 123.4242963  44.5161136
  29.8005161 118.9427528  48.9513313  28.9446757 118.5534378  48.7718951
  30.2132112 119.0219488  48.0913098  31.3304307 116.4773871  53.3504872
  30.8269103 116.4404006  52.5372678  31.6234914 117.3866614  53.4101529
  27.5747193 116.5612601  52.3571054  28.4400190 116.3655409  51.9976943
  27.6424702 116.3322952  53.2840411  37.1892324 126.8510182  45.8281248
  36.4121767 126.5121341  45.3836410  37.8683805 126.8562805  45.1536213
  32.0044353 121.9704919  45.7187855  31.6994488 122.2851068  46.5697999
  32.9574795 122.0486339  45.7615188  30.4490785 128.1295142  47.3680809
  29.9212146 127.3947902  47.0554047  29.9478287 128.9069819  47.1220778
  35.4283631 126.3244163  52.4847856  34.7707305 127.0143424  52.5727984
  36.2324030 126.7140595  52.8281842  25.1809512 118.7914809  49.7287421
  25.7553264 118.5689990  48.9960614  25.7680495 118.8603503  50.4816022
  34.2389089 124.6788535  50.5351797  34.7520971 125.3118527  51.0373507
  34.8890313 124.0789731  50.1695157  25.5079099 120.8219270  43.7483306
  24.6716412 121.1593956  44.0692581  25.3683869 120.6868249  42.8110443
  27.4832180 115.6656057  48.4562490  26.8296592 115.3505075  47.8319105
  27.4412654 115.0431798  49.1822313  28.5943385 125.9475353  40.3715782
  27.6870447 125.7164606  40.5706931  29.0914417 125.1512972  40.5589764
  31.5011464 134.6572860  43.2912468  30.8273162 134.9604556  43.8997426
  31.8877286 135.4601940  42.9417926  30.7169920 122.1537991  52.7810138
  29.7992482 122.3752938  52.6231826  31.1330064 122.2284301  51.9221845
  31.5004968 123.5529407  47.9112818  32.2476787 124.0650804  47.6019940
  31.7696558 123.2313459  48.7717212  29.7731618 126.0487947  44.8939772
  28.8642838 125.7646980  44.9912242  29.8026702 126.4687026  44.0343079
  35.0050886 129.6594537  48.6630940  34.5513213 128.8185447  48.7196130
  34.3744852 130.2955935  49.0005720  33.9483805 120.5886523  49.8931607
  33.2106562 120.0763909  50.2241850  34.2010579 120.1486905  49.0814884
  33.4483825 131.4971034  49.5980758  33.7406799 132.0576091  48.8793124
  33.9582446 131.7899595  50.3533917  34.0495433 113.3662775  50.4873377
  34.3554309 112.5060138  50.1999292  34.7748037 113.9580395  50.2872371
  20.3419789 123.7693462  48.8754975  20.1444188 123.1762822  48.1506041
  19.7866453 123.4645672  49.5930913  28.3216512 123.6616568  50.9949568
  28.3765122 122.7090404  50.9192044  27.5107714 123.8176007  51.4790866
  29.4707706 127.5896691  42.2327851  29.0327136 126.8732550  41.7733488
  30.2118147 127.8172806  41.6712942  26.2608872 122.2793628  48.7539947
  25.4476738 122.5787798  49.1605139  26.7567866 121.8849317  49.4714429
  28.4117450 132.2751385  50.6874211  28.3693629 132.5012231  49.7582743
  29.3280149 132.0414759  50.8360012  31.8583084 122.7435452  57.5854841
  32.2132472 122.9706925  58.4449306  32.5055215 123.0753829  56.9632096
  37.5880821 125.8653888  48.2904170  37.4498719 126.0555484  47.3625359
  37.2317040 126.6273271  48.7472221  25.7522947 119.8511983  54.3701182
  26.3922326 119.7100742  53.6724145  24.9200478 119.5646497  53.9939784
  37.6150200 127.9330415  53.3015441  38.0486707 127.8405704  54.1498495
  38.3281781 127.9087916  52.6635457  26.5283251 129.1514414  50.4836174
  27.3223849 128.6564734  50.2818749  25.8174943 128.6232277  50.1203880
  31.3478095 131.5332509  54.8348542  31.4015118 132.1023446  55.6026258
  30.4792877 131.7034394  54.4702579  22.8366014 123.2957495  46.5595927
  21.9063602 123.2341951  46.7765889  22.9323486 122.7733448  45.7632568
  22.7551563 119.8212308  49.1474168  23.0158381 120.7357642  49.0383329
  23.5768736 119.3536751  49.2970781  24.2276489 121.2350065  56.3172993
  24.8999542 121.0267428  55.6685642  23.4006275 121.0372151  55.8778225
  38.4765750 127.9754116  55.8348326  38.6701640 128.8799926  56.0807601
  38.3766368 127.5161535  56.6686911  30.1302061 117.8612006  58.3338654
  29.4829976 118.5601956  58.2403130  30.9003076 118.2948150  58.7014902
  33.5380859 128.1260859  61.4089207  33.3866365 127.8971410  60.4919291
  33.5285538 129.0831460  61.4220552  30.3066195 125.6992771  56.3935474
  31.2358255 125.8503931  56.2204441  29.8857225 125.7876792  55.5384120
  29.1054527 129.7243436  54.1634011  28.9665613 129.3562220  55.0359949
  28.3169123 130.2391075  53.9917969  29.7002679 134.8252532  45.5059548
  29.8754435 134.3540575  46.3205170  29.0135467 135.4518298  45.7340808
  30.6559742 129.1025038  51.5522849  30.3209575 129.0625808  52.4480499
  30.1563688 128.4369754  51.0793259  24.6303986 124.5092668  57.0775430
  24.4923784 123.7772907  57.6786969  25.5408909 124.4201569  56.7959618
  33.5918934 126.4481073  41.8259909  32.9748104 125.7227901  41.7292961
  33.1235422 127.2090433  41.4826983  27.2586287 124.2212628  56.5659110
  27.9685905 123.5805820  56.5245728  27.2155595 124.4725523  57.4885291
  35.2473065 131.1579981  59.4865689  35.1885612 130.4739201  58.8196272
  35.6492584 131.8998971  59.0346315  25.9715221 121.2077846  58.3854749
  25.4352578 120.7568584  59.0376346  25.3831929 121.3423754  57.6425214
  24.2663764 137.9741895  52.2799408  24.5060362 138.6060419  52.9578426
  23.4232961 137.6229935  52.5664767  25.3817480 120.6666497  40.9481213
  24.5046946 120.5455298  40.5843460  25.8575233 119.8752575  40.6960102
  35.2490473 129.1219565  57.7179669  34.3617251 128.7845487  57.8406067
  35.8189024 128.3902596  57.9548434  16.9019620 125.4543657  51.0422720
  17.5890660 125.1405387  50.4543735  16.7467748 126.3585021  50.7689971
  21.7054342 120.3433853  55.4707744  21.6212531 119.7359523  54.7358154
  20.8837048 120.8342872  55.4717240  28.7791626 133.7821017  54.6840912
  28.7061798 134.5875989  55.1960216  28.3369019 133.9812983  53.8588933
  28.5681406 133.0192787  48.1943733  27.7848928 133.5614468  48.2881958
  29.2674151 133.5366767  48.5937975  31.8778056 118.8287417  50.8377939
  32.3746755 118.0757379  50.5179009  31.1065037 118.8651734  50.2721148
  39.7307813 124.5327782  52.4796230  39.7197689 125.4152498  52.1090163
  38.8625193 124.1799333  52.2850767  31.2390310 133.6807851  56.8399070
  31.9518282 134.3155316  56.7674972  30.7480338 133.7771717  56.0239072
  32.9607836 127.5859104  48.4116362  32.0264115 127.7060567  48.2421066
  33.1384505 126.6831571  48.1476372  28.4613025 120.9704800  50.5649623
  28.0910812 120.4175840  51.2530529  28.9572117 120.3662933  50.0124623
  36.3480388 123.4276423  48.9466396  36.8140840 124.2604415  48.8726699
  36.7987888 122.9621405  49.6511655  26.2902223 131.4302295  57.6604641
  26.9911683 132.0638778  57.8134036  25.8197338 131.7717026  56.9000281
  34.4156619 129.7720245  45.9452548  34.6916463 129.6576839  46.8546422
  33.5461118 129.3737730  45.9064721  34.3197051 115.7957010  52.9857298
  33.4060130 116.0261237  53.1539505  34.7490152 115.8795454  53.8371330
  34.0903509 123.9846902  55.4857192  33.4374959 124.2322810  54.8309644
  34.4683889 123.1711041  55.1519669  31.0510683 134.0206596  49.5885362
  31.2333077 133.2028251  50.0513114  31.8743669 134.2374288  49.1510252
  31.3852848 132.9474781  46.8500410  31.9140615 132.4367235  46.2370573
  31.6481068 132.6317311  47.7145943  30.1391082 124.7266713  61.9723229
  29.4631719 124.6260843  62.6425604  30.9618716 124.5705927  62.4359226
  21.8869941 130.9638650  54.5935744  22.4723378 130.2182338  54.7263648
  21.6894780 131.2742607  55.4772408  24.7408596 133.9989897  49.6098186
  24.0718972 134.4836025  49.1262226  24.6021466 134.2459118  50.5241565
  16.4787596 123.5344250  53.3140187  16.5171695 123.0007841  54.1077305
  15.9727889 123.0079456  52.6951164  28.8813865 136.0333641  56.2080845
  29.4332173 136.1965262  56.9729930  29.2220058 136.6238079  55.5360870
  23.8578358 118.3808791  56.8102729  23.9219685 119.2423622  56.3980127
  23.7945478 117.7682792  56.0775088  23.3330631 120.4531923  60.4575764
  23.9602670 120.0709000  61.0713288  22.4758550 120.2346125  60.8231456
  33.7324739 130.8594898  62.0629499  34.2764643 131.4724857  61.5684454
  33.1511584 131.4174477  62.5796512  20.1096173 122.2608352  46.3894119
  20.4049615 121.3519031  46.3361172  19.2084209 122.2396092  46.0675121
  32.0182252 133.9815616  53.1944527  31.8933392 133.1805356  52.6855472
  32.6761343 134.4761810  52.7058497  23.6390420 120.3364349  52.3721667
  22.9177006 120.9500317  52.2329140  24.4283676 120.8722114  52.2938313
  34.0817161 131.7824636  54.8224077  33.1347496 131.6629988  54.7502404
  34.4299934 130.8947134  54.9050338  26.4416734 117.6718775  58.6462319
  26.9651136 117.9181072  59.4088628  26.2229067 118.5038810  58.2265456
  21.8384015 119.9422450  46.5133444  21.5096721 119.0619829  46.3308550
  22.1923386 119.8870119  47.4009833  31.0863594 131.5777353  51.0228429
  30.9388556 130.6494060  51.2035999  31.9117087 131.5997443  50.5385504
  24.9525838 120.2295420  46.8808921  25.2921911 120.7581341  46.1587530
  25.3997959 120.5675826  47.6567488  34.6897716 132.4005911  52.1093302
  35.6144263 132.1948773  51.9717753  34.5213019 132.1522313  53.0182643
  27.6469279 118.6132470  56.3311989  27.3066099 117.8140284  56.7332669
  26.9408285 118.9134181  55.7588823  28.2985751 115.6981783  54.7839312
  29.1211820 115.2242261  54.6618203  28.5423814 116.4772267  55.2837999
  26.9393985 118.7270041  45.0802214  27.6602348 119.1051294  44.5765931
  26.3159289 119.4458918  45.1837192  31.0825108 119.4315190  46.0160546
  31.2988723 120.3139828  45.7149375  30.6019175 119.0401404  45.2866188
  25.8224330 122.3900904  52.5931291  25.6768910 122.7041207  53.4855573
  25.3449533 123.0085804  52.0402190  27.6820712 119.3803452  52.6412181
  27.6682281 118.4844545  52.3044479  28.3993141 119.3874115  53.2750467
  29.5346843 119.8140792  54.6865308  29.2764621 120.7357862  54.6849638
  29.0031884 119.4171226  55.3765772  34.4793032 132.9191579  47.4655393
  34.6529909 132.3538001  46.7129246  34.9721923 133.7192474  47.2834883
  20.2969992 124.9306248  55.5318952  19.7523460 125.7066056  55.6639227
  21.1749342 125.2777052  55.3738074  27.0857608 118.2617832  47.9099751
  27.2073520 117.3334478  48.1090638  26.7959651 118.2756518  46.9978066
  29.9548799 115.9472742  51.0466471  29.9770496 116.0112075  50.0918450
  30.3716858 115.1077251  51.2406977  40.3332423 125.6828002  49.0845693
  40.7763569 124.9335327  48.6864816  39.4558933 125.6738138  48.7019425
  35.4668204 132.2358343  44.5652292  36.1619109 132.8565036  44.7839606
  35.8091355 131.3853694  44.8404670  21.0836014 124.0576144  58.4249109
  20.3417750 124.2058780  59.0113740  20.7628758 124.3184410  57.5615858
  37.3659628 129.6858049  46.0939622  37.8910952 130.0245322  45.3688942
  37.2781980 128.7505064  45.9102757  29.0279676 133.5992122  58.2229499
  29.3366803 133.3541269  59.0952199  29.8255158 133.8038761  57.7348369
  29.0500288 135.7530032  50.4534876  28.6105279 135.2606411  51.1467732
  29.8008405 135.2103000  50.2126951  21.5292627 131.9441573  50.4559504
  22.3550647 131.6445345  50.0758147  21.1786679 131.1749195  50.9049292
  26.4974160 131.2968041  52.5257177  25.8754170 130.6338746  52.2259405
  27.1679027 131.3229173  51.8430825  19.7301232 129.8627899  51.4148437
  18.8933141 129.4350074  51.2332439  19.7024878 130.0560343  52.3519229
  26.5698688 119.7749829  62.1189683  26.6186843 120.6511952  61.7367453
  27.1121202 119.2327222  61.5461327  37.0553534 130.3190952  61.3990820
  36.2649077 130.3015091  60.8595320  36.8186888 130.8579246  62.1539857
  37.1751409 127.1683419  58.7123549  37.2249414 127.0033426  59.6539072
  37.0665332 126.3010678  58.3221430  26.0587667 129.8471964  46.0015638
  26.2075788 130.5307429  45.3482311  26.8654111 129.8277055  46.5165094
  34.4655171 123.1514347  60.0282856  35.3665034 123.0120812  59.7366853
  34.5403146 123.3168802  60.9681033  28.7997976 120.5281202  58.8736042
  27.9301286 120.8214768  58.6018631  29.0357457 121.1121647  59.5943306
  38.6769606 129.5880360  58.9565570  38.3854414 129.9510341  59.7929031
  38.0641737 128.8747369  58.7778903  39.8765288 127.1533240  51.4768141
  40.7112179 127.5923044  51.6405701  40.0124417 126.6771893  50.6576386
  36.9256794 124.7112975  57.4245628  37.4010915 124.9040621  56.6164480
  36.0022359 124.7672161  57.1789012  23.8140300 125.8737142  47.0076707
  23.5686342 124.9699472  47.2056917  23.9836215 125.8754293  46.0656185
  31.5037010 116.7460818  56.3901462  32.0218954 117.4821845  56.0647951
  31.1492143 117.0524812  57.2248221  23.0835948 121.6065500  44.5062868
  22.3905193 121.6809855  43.8502904  22.8387700 120.8425843  45.0284385
  31.7549604 113.1661101  51.9102359  32.0351358 112.4984290  52.5362786
  32.5400211 113.3590197  51.3977023  29.5583073 132.3420095  43.4727385
  28.9857040 132.9610282  43.0197857  30.1315867 132.8919457  44.0067307
  35.6258463 121.5878735  55.6573934  36.5775886 121.6876833  55.6786158
  35.4561913 120.7957004  56.1672018  33.6472842 118.6734318  55.8433335
  33.0522774 118.9539331  55.1479824  33.3622539 119.1628219  56.6150076
  32.7780333 132.6257245  44.6035968  33.7111006 132.5602807  44.8068843
  32.6903546 133.4613512  44.1450500  35.4068349 131.9423115  41.5639915
  35.3281981 131.6082979  42.4575673  36.2278016 132.4344883  41.5631387
  38.1046541 124.8084855  54.7716234  38.0722861 123.8700855  54.9575918
  38.7147164 124.8868891  54.0382059  29.9429871 123.6780908  40.8143438
  30.8888976 123.5487116  40.8831856  29.5644116 122.9395570  41.2912866
  38.2541029 121.5995898  54.8174517  37.7380078 120.8154355  54.6304446
  39.1380978 121.2714615  54.9821036  35.9151756 115.3436914  50.7770330
  35.7176577 115.0352002  51.6613662  36.5251462 116.0698553  50.9068259
  43.9223090 125.8700862  53.9122271  44.6526479 125.6086150  54.4729974
  43.3130036 125.1329583  53.9524339  42.0038388 124.0108724  54.5096722
  41.2771551 123.8764689  53.9013213  41.5885674 124.3185553  55.3153440
  29.8268564 127.7298654  62.2744095  30.7471573 127.9077253  62.4684141
  29.7918147 126.7854699  62.1223794  28.1272789 121.6030884  40.7498323
  27.2204244 121.3063997  40.8261037  28.4048770 121.3060702  39.8832609
  19.0450729 122.9237247  51.1997369  18.7253513 122.0702556  50.9071743
  18.4984157 123.1385826  51.9555337  22.8230636 125.6399688  54.9166876
  23.0416646 126.5716796  54.9354910  23.2356410 125.2807663  55.7021680
  29.7434854 116.1467774  46.9042564  28.9335583 115.8014859  47.2797810
  30.4319271 115.8375318  47.4930176  31.6725403 115.2245821  48.5266861
  32.2256441 115.6441274  49.1856884  31.9095489 114.2981569  48.5689817
  27.6958502 121.2132894  64.3069625  27.5955229 122.1627251  64.2381716
  27.4780044 120.8851133  63.4345695  26.8971573 118.4617819  40.8910302
  27.7590737 118.7872718  41.1506120  27.0821917 117.6749315  40.3783368
  18.9138989 126.5440159  53.1690491  18.2202460 126.1294112  52.6560445
  19.6611980 126.5860695  52.5723910  35.0504210 117.3346346  48.0345525
  34.4702879 117.9931150  47.6523578  34.7840142 116.5123690  47.6232943
  33.5007776 116.7351403  50.2366846  34.0007554 116.8467938  49.4281164
  34.1443384 116.4312456  50.8767654  27.5589772 124.6430033  63.1234686
  27.0756854 125.4430393  63.3298576  27.6450711 124.6537978  62.1702130
  20.8275731 126.4758413  51.0456506  20.8046420 126.5746100  50.0938389
  21.1376368 127.3223564  51.3673672  23.4863109 128.5334568  55.1603120
  24.4406363 128.5018510  55.0933052  23.2875633 128.0725192  55.9753346
  24.0762491 127.1035684  57.7273918  24.8955380 127.5979762  57.7508755
  24.3499299 126.1867652  57.6991485  33.8329088 119.4946436  47.0901873
  32.9454943 119.7796087  46.8722068  34.2483077 119.3340200  46.2429150
  37.1843624 119.5192957  50.8056213  37.9604014 120.0089410  51.0780830
  36.4591758 119.9451011  51.2628082  39.6216182 120.2320576  51.8630153
  40.2160673 119.9916312  51.1523462  39.6942766 119.5127707  52.4903690
  21.8413338 134.0754187  52.1773318  21.7067806 133.3154588  51.6111316
  21.4245400 134.7995087  51.7102107  32.9772301 129.2591111  41.1849893
  33.6808151 129.4641113  41.8007549  32.2534950 129.8267873  41.4498977
  33.8070111 125.0100972  47.3052164  33.7505313 125.4669523  46.4659796
  34.3598454 124.2491657  47.1275006  37.6174917 120.7990704  48.1302283
  37.3611852 120.3987340  48.9610491  36.9927785 121.5134498  48.0052422
  41.9287255 123.5386777  50.6373575  41.3686813 123.6079966  51.4105137
  41.3230759 123.3627762  49.9173071  24.9982464 134.9723504  52.3891761
  24.8814848 135.9168937  52.2870451  24.1774910 134.6697066  52.7777560
  34.8858999 129.6973640  43.2348353  35.7204602 129.2654838  43.0525828
  34.7243341 129.5255654  44.1625248  34.5404891 126.2005753  44.6004693
  34.4853695 126.0350025  43.6593137  33.9150946 126.9081786  44.7566883
  19.3297406 121.4373818  58.4266115  19.9756269 120.9272772  58.9153340
  19.1214557 122.1742499  59.0009540  31.8550798 128.5054665  63.9258256
  32.7241958 128.6795317  63.5644890  31.3757549 129.3249082  63.8033985
  27.8501016 115.7013862  44.1790011  27.8379686 116.6455702  44.3358282
  28.7424438 115.5184008  43.8849472  26.0236978 135.6251766  55.6047689
  26.9264225 135.6575376  55.9214184  25.7974348 134.6952217  55.6194025
  27.7790580 134.3782753  52.2657768  26.8286211 134.3784614  52.1522140
  28.0823066 133.6315487  51.7493802  31.6653136 112.2956639  48.4335948
  30.8985531 111.7415126  48.5792630  32.0763841 112.3678508  49.2950100
  23.6694897 118.5841435  62.5241129  24.5326358 118.2278240  62.7344454
  23.0960307 118.2455330  63.2116534  43.5143274 140.2143291  53.3303530
  44.1521684 140.0950038  52.6266870  43.3964117 141.1624135  53.3891482
  40.3232980 140.1670719  53.2665055  39.9851491 140.0511784  52.3785590
  41.1922748 139.7661884  53.2466061  36.1819796 142.0206196  49.2561946
  35.6184661 141.9296133  48.4878234  36.0672191 141.2006100  49.7364438
  40.8052763 141.3205571  59.2251260  40.7941404 140.9258369  58.3531764
  40.9673402 140.5871644  59.8185032  33.7284228 143.5157387  52.0946166
  34.5205519 143.1748212  51.6792466  33.9680878 143.6252362  53.0148320
  41.7619354 145.6877163  44.5676411  41.1107334 146.2731244  44.1810425
  42.5563717 146.2183358  44.6271448  35.6874981 142.7766300  44.9663545
  36.4605857 142.2295288  44.8276421  36.0400380 143.6410550  45.1778007
  37.5260024 144.1042683  58.1730444  37.2349890 145.0088314  58.0577111
  38.1617008 144.1459210  58.8874514  38.4516231 141.4819531  54.7631804
  39.0479803 141.2575554  54.0488767  38.5091202 140.7404277  55.3657252
  38.0241259 138.9358967  42.5981995  38.2766780 138.4140488  41.8365458
  37.0865818 138.7725112  42.7008679  43.0684542 137.9394745  50.4056738
  43.8547631 137.5214168  50.0547155  43.3323246 138.8440837  50.5738387
  43.2394619 143.3767595  45.1045395  42.6040452 143.4502222  45.8166300
  42.9092026 143.9661194  44.4264474  48.4692969 137.8769978  51.3089717
  49.2018141 137.3069195  51.5427546  47.7132325 137.4891579  51.7496222
  37.7437548 140.8387073  44.8006370  37.6273806 140.1631976  45.4687454
  37.8539808 140.3519446  43.9838523  40.0869089 140.2997220  48.5053059
  39.7227296 139.7727841  49.2165981  40.9436205 139.9095689  48.3319545
  45.9918390 131.5891552  55.7684325  45.6601714 132.4586963  55.5445540
  45.3964003 131.2727836  56.4478356  39.7274576 135.3287119  43.5014408
  39.8948978 136.1967356  43.8684879  39.5371745 135.4914401  42.5775697
  42.4849909 143.7904098  55.1680238  42.1850632 144.6929137  55.0596045
  42.1400969 143.5236281  56.0201391  35.9362391 140.2417895  51.2016943
  35.0112887 140.1094109  51.4094634  36.1846804 141.0212114  51.6986885
  45.8847053 136.3086638  52.8477675  44.9763930 136.2402047  52.5536436
  45.8334649 136.7858583  53.6759501  39.7063797 137.7844777  44.4861075
  39.5863422 138.2301828  45.3246555  39.0116385 138.1330095  43.9274613
  33.2971202 139.8851169  52.0360732  33.4263583 140.1385648  52.9500143
  32.6168653 140.4778877  51.7165387  39.9587919 137.7276284  60.7912573
  39.1821253 138.2870204  60.7815437  40.5978482 138.2133067  61.3127443
  47.7508699 134.5103077  54.6255549  47.1083080 134.8035610  53.9795344
  47.2463628 134.3955997  55.4308746  45.4048863 138.2566250  45.3141409
  46.3166719 138.4893637  45.1389106  44.8958510 138.8403294  44.7516487
  38.2134291 140.5361737  60.3530540  38.9548975 141.0746781  60.0765363
  37.5071276 141.1628026  60.5102092  43.6889631 142.6790878  58.9502701
  44.0972987 142.2373288  58.2057334  42.9666892 142.1043505  59.2036894
  40.0420701 137.6163485  56.3236258  40.8881896 138.0402898  56.4670907
  39.9819338 136.9597109  57.0174821  44.0118445 143.2392068  52.7054990
  43.3827308 143.4037783  52.0031058  43.6244107 143.6533678  53.4765954
  47.8907677 144.1746506  50.0599354  47.2058715 144.5545408  49.5096387
  47.9751527 144.7841833  50.7931302  43.1920146 135.2767853  57.9817432
  42.9481078 136.0309914  57.4451707  43.4680077 135.6553201  58.8164679
  45.1458609 141.8206465  56.6594697  45.3575504 142.4638225  55.9829078
  45.0988357 140.9868782  56.1916627  42.7484838 134.4324286  53.5631270
  41.8869317 134.7305540  53.8548007  42.7747272 134.6494685  52.6312302
  39.5646407 142.9766477  49.9705075  40.0284753 143.2554180  49.1809698
  39.3003205 142.0749921  49.7878166  36.4570488 142.5237958  52.9084838
  37.0271845 142.9525226  52.2702323  37.0478600 142.2420543  53.6069024
  38.5015293 139.0989629  46.7794640  39.2039337 139.5510673  47.2468567
  38.1695922 138.4573448  47.4074533  36.9495655 137.6901386  61.1545850
  36.3194315 138.3717666  61.3881247  36.8431743 137.5784467  60.2098988
  32.2440627 137.3573182  52.0811774  31.4539681 137.6130710  51.6051885
  32.7351875 138.1721519  52.1863814  46.2604437 144.6978421  54.8317055
  47.0821880 144.2958608  54.5499736  46.2566840 144.5946655  55.7833171
  34.1955373 137.7217761  49.0395251  33.3986536 137.8336455  49.5578746
  33.9680965 138.0604413  48.1736141  40.0261040 144.2462464  56.9877765
  40.0905473 144.7082871  57.8235937  39.3171964 143.6159829  57.1160075
  30.5278330 137.6103672  54.5126765  30.7786369 138.4950682  54.7784341
  31.0637879 137.4308274  53.7401857  54.3510430 141.0417169  51.1802026
  53.5974138 140.4724567  51.0246031  54.4857971 141.0079834  52.1272661
  39.7409058 145.9130572  46.8556746  39.6054733 146.7582107  47.2841593
  40.2818870 146.1149849  46.0922679  36.2276397 131.9922151  63.5171101
  35.8343343 131.4388350  64.1918745  37.0442538 132.3032730  63.9077618
  33.1938455 143.4306010  47.4284671  33.7062976 144.2249260  47.5790235
  33.8461168 142.7332300  47.3618272  39.1444358 133.4080031  61.1091357
  39.8854072 134.0087184  61.0295820  39.3762281 132.6657668  60.5509400
  34.2885696 138.5936398  59.3869587  34.1739212 137.6921655  59.6876686
  33.4330214 138.8400095  59.0354404  41.3677534 146.5354138  60.9857088
  40.9241388 145.7490517  60.6677992  42.0294748 146.7233289  60.3200978
  43.4658772 146.8156938  59.0138489  43.4477248 147.6365819  58.5218758
  44.3878692 146.6911013  59.2388630  39.9231826 144.3301067  59.8561997
  40.4560163 143.5689356  59.6261305  39.3945908 144.0374719  60.5986152
  43.0901521 129.4361133  55.3855639  42.7465791 130.3262775  55.3094750
  43.4580484 129.2462791  54.5225224  31.1587372 141.7594664  48.2044241
  31.9962594 142.1691672  47.9877949  31.3365640 140.8194106  48.1744435
  43.0551804 139.4269745  43.8928074  42.5398428 140.1974349  44.1316462
  42.7829113 138.7534881  44.5161136  40.6398915 134.2719445  48.9513313
  39.7840512 133.8826296  48.7718951  41.0525867 134.3511406  48.0913098
  42.1698062 131.8065789  53.3504872  41.6662857 131.7695924  52.5372678
  42.4628669 132.7158531  53.4101529  38.4140948 131.8904518  52.3571054
  39.2793944 131.6947327  51.9976943  38.4818457 131.6614870  53.2840411
  48.0286078 142.1802099  45.8281248  47.2515521 141.8413259  45.3836410
  48.7077559 142.1854722  45.1536213  42.8438107 137.2996837  45.7187855
  42.5388243 137.6142986  46.5697999  43.7968549 137.3778257  45.7615188
  41.2884539 143.4587060  47.3680809  40.7605901 142.7239820  47.0554047
  40.7872042 144.2361736  47.1220778  46.2677385 141.6536080  52.4847856
  45.6101060 142.3435342  52.5727984  47.0717784 142.0432512  52.8281842
  36.0203267 134.1206726  49.7287421  36.5947019 133.8981908  48.9960614
  36.6074249 134.1895421  50.4816022  45.0782844 140.0080453  50.5351797
  45.5914726 140.6410445  51.0373507  45.7284068 139.4081649  50.1695157
  36.3472854 136.1511187  43.7483306  35.5110166 136.4885874  44.0692581
  36.2077624 136.0160167  42.8110443  38.3225934 130.9947975  48.4562490
  37.6690347 130.6796992  47.8319105  38.2806409 130.3723716  49.1822313
  39.4337139 141.2767270  40.3715782  38.5264201 141.0456524  40.5706931
  39.9308171 140.4804889  40.5589764  41.5563675 137.4829909  52.7810138
  40.6386236 137.7044856  52.6231826  41.9723818 137.5576219  51.9221845
  42.3398723 138.8821324  47.9112818  43.0870542 139.3942722  47.6019940
  42.6090312 138.5605377  48.7717212  40.6125373 141.3779865  44.8939772
  39.7036592 141.0938898  44.9912242  40.6420457 141.7978944  44.0343079
  45.8444640 144.9886455  48.6630940  45.3906967 144.1477364  48.7196130
  45.2138607 145.6247853  49.0005720  44.7877560 135.9178441  49.8931607
  44.0500317 135.4055827  50.2241850  45.0404333 135.4778822  49.0814884
  44.2877579 146.8262951  49.5980758  44.5800554 147.3868008  48.8793124
  44.7976200 147.1191512  50.3533917  44.8889187 128.6954693  50.4873377
  45.1948064 127.8352056  50.1999292  45.6141792 129.2872313  50.2872371
  31.1813543 139.0985379  48.8754975  30.9837943 138.5054740  48.1506041
  30.6260207 138.7937589  49.5930913  39.1610267 138.9908486  50.9949568
  39.2158877 138.0382322  50.9192044  38.3501469 139.1467925  51.4790866
  40.3101461 142.9188609  42.2327851  39.8720891 142.2024468  41.7733488
  41.0511901 143.1464724  41.6712942  37.1002627 137.6085545  48.7539947
  36.2870492 137.9079716  49.1605139  37.5961621 137.2141234  49.4714429
  39.2511205 147.6043302  50.6874211  39.2087383 147.8304149  49.7582743
  40.1673903 147.3706677  50.8360012  42.6976838 138.0727370  57.5854841
  43.0526226 138.2998843  58.4449306  43.3448970 138.4045747  56.9632096
  48.4274575 141.1945806  48.2904170  48.2892474 141.3847402  47.3625359
  48.0710794 141.9565189  48.7472221  36.5916701 135.1803901  54.3701182
  37.2316081 135.0392660  53.6724145  35.7594232 134.8938414  53.9939784
  48.4543955 143.2622333  53.3015441  48.8880462 143.1697622  54.1498495
  49.1675536 143.2379833  52.6635457  37.3677005 144.4806331  50.4836174
  38.1617604 143.9856652  50.2818749  36.6568698 143.9524195  50.1203880
  42.1871850 146.8624427  54.8348542  42.2408872 147.4315363  55.6026258
  41.3186631 147.0326312  54.4702579  33.6759769 138.6249413  46.5595927
  32.7457357 138.5633869  46.7765889  33.7717241 138.1025366  45.7632568
  33.5945318 135.1504226  49.1474168  33.8552135 136.0649559  49.0383329
  34.4162490 134.6828669  49.2970781  35.0670243 136.5641983  56.3172993
  35.7393297 136.3559345  55.6685642  34.2400030 136.3664069  55.8778225
  49.3159505 143.3046033  55.8348326  49.5095395 144.2091844  56.0807601
  49.2160123 142.8453453  56.6686911  40.9695815 133.1903924  58.3338654
  40.3223730 133.8893874  58.2403130  41.7396831 133.6240068  58.7014902
  44.3774613 143.4552776  61.4089207  44.2260120 143.2263328  60.4919291
  44.3679293 144.4123378  61.4220552  41.1459950 141.0284689  56.3935474
  42.0752010 141.1795849  56.2204441  40.7250980 141.1168710  55.5384120
  39.9448281 145.0535353  54.1634011  39.8059367 144.6854138  55.0359949
  39.1562878 145.5682993  53.9917969  41.4953497 144.4316956  51.5522849
  41.1603329 144.3917726  52.4480499  40.9957442 143.7661672  51.0793259
  35.4697740 139.8384586  57.0775430  35.3317538 139.1064825  57.6786969
  36.3802664 139.7493486  56.7959618  44.4312688 141.7772990  41.8259909
  43.8141859 141.0519819  41.7292961  43.9629177 142.5382351  41.4826983
  38.0980041 139.5504545  56.5659110  38.8079660 138.9097738  56.5245728
  38.0549349 139.8017440  57.4885291  46.0866820 146.4871899  59.4865689
  46.0279366 145.8031119  58.8196272  46.4886338 147.2290889  59.0346315
  36.8108975 136.5369763  58.3854749  36.2746332 136.0860502  59.0376346
  36.2225684 136.6715672  57.6425214  36.2211234 135.9958415  40.9481213
  35.3440700 135.8747216  40.5843460  36.6968987 135.2044493  40.6960102
  46.0884227 144.4511483  57.7179669  45.2011006 144.1137404  57.8406067
  46.6582778 143.7194514  57.9548434  27.7413374 140.7835574  51.0422720
  28.4284414 140.4697304  50.4543735  27.5861503 141.6876939  50.7689971
  32.5448096 135.6725771  55.4707744  32.4606285 135.0651441  54.7358154
  31.7230803 136.1634789  55.4717240  42.7171810 134.1579335  50.8377939
  43.2140510 133.4049297  50.5179009  41.9458792 134.1943651  50.2721148
  50.5701568 139.8619700  52.4796230  50.5591444 140.7444416  52.1090163
  49.7018947 139.5091251  52.2850767  43.8001591 142.9151022  48.4116362
  42.8657870 143.0352484  48.2421066  43.9778259 142.0123489  48.1476372
  39.3006779 136.2996718  50.5649623  38.9304567 135.7467758  51.2530529
  39.7965871 135.6954851  50.0124623  47.1874142 138.7568341  48.9466396
  47.6534594 139.5896333  48.8726699  47.6381643 138.2913323  49.6511655
  37.1295978 146.7594213  57.6604641  37.8305437 147.3930696  57.8134036
  36.6591093 147.1008944  56.9000281  45.2550373 145.1012162  45.9452548
  45.5310217 144.9868757  46.8546422  44.3854872 144.7029647  45.9064721
  45.1590805 131.1248928  52.9857298  44.2453885 131.3553155  53.1539505
  45.5883906 131.2087372  53.8371330  44.9297264 139.3138820  55.4857192
  44.2768714 139.5614727  54.8309644  45.3077643 138.5002958  55.1519669
  42.2246603 148.2766698  46.8500410  42.7534369 147.7659153  46.2370573
  42.4874822 147.9609229  47.7145943  40.9784837 140.0558631  61.9723229
  40.3025474 139.9552760  62.6425604  41.8012470 139.8997845  62.4359226
  27.3181350 138.8636168  53.3140187  27.3565450 138.3299758  54.1077305
  26.8121643 138.3371373  52.6951164  34.6972113 133.7100708  56.8102729
  34.7613439 134.5715539  56.3980127  34.6339233 133.0974710  56.0775088
  34.1724385 135.7823841  60.4575764  34.7996424 135.4000918  61.0713288
  33.3152304 135.5638043  60.8231456  44.5718494 146.1886816  62.0629499
  45.1158398 146.8016774  61.5684454  43.9905339 146.7466394  62.5796512
  30.9489928 137.5900270  46.3894119  31.2443369 136.6810948  46.3361172
  30.0477964 137.5688009  46.0675121  34.4784175 135.6656267  52.3721667
  33.7570761 136.2792234  52.2329140  35.2677431 136.2014031  52.2938313
  44.9210915 147.1116554  54.8224077  43.9741251 146.9921905  54.7502404
  45.2693688 146.2239052  54.9050338  37.2810488 133.0010693  58.6462319
  37.8044890 133.2472990  59.4088628  37.0622822 133.8330728  58.2265456
  32.6777770 135.2714368  46.5133444  32.3490476 134.3911747  46.3308550
  33.0317140 135.2162036  47.4009833  41.9257348 146.9069270  51.0228429
  41.7782311 145.9785978  51.2035999  42.7510842 146.9289361  50.5385504
  35.7919593 135.5587337  46.8808921  36.1315665 136.0873259  46.1587530
  36.2391713 135.8967744  47.6567488  45.5291470 147.7297829  52.1093302
  46.4538018 147.5240690  51.9717753  45.3606774 147.4814230  53.0182643
  38.4863034 133.9424388  56.3311989  38.1459854 133.1432201  56.7332669
  37.7802040 134.2426099  55.7588823  39.1379505 131.0273701  54.7839312
  39.9605575 130.5534179  54.6618203  39.3817569 131.8064184  55.2837999
  37.7787740 134.0561959  45.0802214  38.4996102 134.4343212  44.5765931
  37.1553044 134.7750836  45.1837192  41.9218863 134.7607108  46.0160546
  42.1382477 135.6431746  45.7149375  41.4412930 134.3693321  45.2866188
  36.6618084 137.7192821  52.5931291  36.5162665 138.0333124  53.4855573
  36.1843288 138.3377722  52.0402190  38.5214467 134.7095369  52.6412181
  38.5076036 133.8136463  52.3044479  39.2386895 134.7166033  53.2750467
  40.3740598 135.1432709  54.6865308  40.1158376 136.0649780  54.6849638
  39.8425638 134.7463144  55.3765772  45.3186786 148.2483497  47.4655393
  45.4923664 147.6829919  46.7129246  45.8115678 149.0484391  47.2834883
  31.1363746 140.2598166  55.5318952  30.5917214 141.0357974  55.6639227
  32.0143096 140.6068970  55.3738074  37.9251363 133.5909749  47.9099751
  38.0467274 132.6626396  48.1090638  37.6353405 133.6048435  46.9978066
  40.7942553 131.2764660  51.0466471  40.8164250 131.3403993  50.0918450
  41.2110612 130.4369169  51.2406977  51.1726178 141.0119919  49.0845693
  51.6157324 140.2627245  48.6864816  50.2952688 141.0030056  48.7019425
  46.3061959 147.5650261  44.5652292  47.0012864 148.1856954  44.7839606
  46.6485109 146.7145612  44.8404670  31.9229768 139.3868062  58.4249109
  31.1811504 139.5350697  59.0113740  31.6022512 139.6476327  57.5615858
  48.2053382 145.0149966  46.0939622  48.7304706 145.3537239  45.3688942
  48.1175735 144.0796982  45.9102757  37.3367915 146.6259959  52.5257177
  36.7147924 145.9630664  52.2259405  38.0072782 146.6521091  51.8430825
  37.4092442 135.1041747  62.1189683  37.4580598 135.9803870  61.7367453
  37.9514957 134.5619140  61.5461327  47.8947288 145.6482870  61.3990820
  47.1042832 145.6307009  60.8595320  47.6580643 146.1871164  62.1539857
  48.0145163 142.4975336  58.7123549  48.0643168 142.3325344  59.6539072
  47.9059087 141.6302595  58.3221430  36.8981422 145.1763882  46.0015638
  37.0469542 145.8599347  45.3482311  37.7047865 145.1568972  46.5165094
  45.3048926 138.4806264  60.0282856  46.2058788 138.3412729  59.7366853
  45.3796900 138.6460719  60.9681033  39.6391731 135.8573119  58.8736042
  38.7695040 136.1506685  58.6018631  39.8751211 136.4413564  59.5943306
  49.5163360 144.9172278  58.9565570  49.2248168 145.2802259  59.7929031
  48.9035491 144.2039286  58.7778903  50.7159042 142.4825158  51.4768141
  51.5505934 142.9214962  51.6405701  50.8518171 142.0063811  50.6576386
  47.7650548 140.0404893  57.4245628  48.2404670 140.2332539  56.6164480
  46.8416114 140.0964078  57.1789012  34.6534055 141.2029060  47.0076707
  34.4080097 140.2991390  47.2056917  34.8229969 141.2046210  46.0656185
  42.3430765 132.0752736  56.3901462  42.8612709 132.8113763  56.0647951
  41.9885897 132.3816729  57.2248221  33.9229702 136.9357417  44.5062868
  33.2298947 137.0101772  43.8502904  33.6781454 136.1717761  45.0284385
  42.5943359 128.4953019  51.9102359  42.8745113 127.8276208  52.5362786
  43.3793966 128.6882114  51.3977023  40.3976827 147.6712013  43.4727385
  39.8250794 148.2902200  43.0197857  40.9709621 148.2211374  44.0067307
  46.4652217 136.9170653  55.6573934  47.4169640 137.0168750  55.6786158
  46.2955668 136.1248921  56.1672018  44.4866597 134.0026236  55.8433335
  43.8916529 134.2831249  55.1479824  44.2016293 134.4920137  56.6150076
  43.6174087 147.9549163  44.6035968  44.5504760 147.8894724  44.8068843
  43.5297300 148.7905430  44.1450500  46.2462104 147.2715033  41.5639915
  46.1675735 146.9374897  42.4575673  47.0671771 147.7636801  41.5631387
  48.9440295 140.1376772  54.7716234  48.9116615 139.1992773  54.9575918
  49.5540919 140.2160809  54.0382059  40.7823626 139.0072825  40.8143438
  41.7282731 138.8779033  40.8831856  40.4037871 138.2687487  41.2912866
  49.0934784 136.9287816  54.8174517  48.5773832 136.1446272  54.6304446
  49.9774732 136.6006532  54.9821036  46.7545510 130.6728831  50.7770330
  46.5570332 130.3643920  51.6613662  47.3645216 131.3990470  50.9068259
  54.7616845 141.1992779  53.9122271  55.4920233 140.9378067  54.4729974
  54.1523790 140.4621501  53.9524339  52.8432142 139.3400642  54.5096722
  52.1165306 139.2056607  53.9013213  52.4279429 139.6477470  55.3153440
  40.6662318 143.0590571  62.2744095  41.5865328 143.2369170  62.4684141
  40.6311901 142.1146617  62.1223794  38.9666543 136.9322802  40.7498323
  38.0597998 136.6355914  40.8261037  39.2442524 136.6352620  39.8832609
  29.8844483 138.2529165  51.1997369  29.5647268 137.3994473  50.9071743
  29.3377912 138.4677743  51.9555337  33.6624391 140.9691606  54.9166876
  33.8810401 141.9008714  54.9354910  34.0750165 140.6099581  55.7021680
  40.5828609 131.4759691  46.9042564  39.7729337 131.1306776  47.2797810
  41.2713026 131.1667235  47.4930176  42.5119157 130.5537738  48.5266861
  43.0650196 130.9733192  49.1856884  42.7489243 129.6273486  48.5689817
  38.5352256 136.5424812  64.3069625  38.4348983 137.4919169  64.2381716
  38.3173798 136.2143051  63.4345695  37.7365328 133.7909737  40.8910302
  38.5984492 134.1164635  41.1506120  37.9215672 133.0041233  40.3783368
  29.7532743 141.8732077  53.1690491  29.0596215 141.4586029  52.6560445
  30.5005734 141.9152613  52.5723910  45.8897964 132.6638263  48.0345525
  45.3096633 133.3223067  47.6523578  45.6233897 131.8415608  47.6232943
  44.3401531 132.0643321  50.2366846  44.8401309 132.1759856  49.4281164
  44.9837138 131.7604374  50.8767654  38.3983526 139.9721951  63.1234686
  37.9150608 140.7722311  63.3298576  38.4844465 139.9829896  62.1702130
  31.6669486 141.8050330  51.0456506  31.6440174 141.9038018  50.0938389
  31.9770122 142.6515481  51.3673672  34.3256864 143.8626485  55.1603120
  35.2800117 143.8310428  55.0933052  34.1269387 143.4017109  55.9753346
  34.9156246 142.4327601  57.7273918  35.7349135 142.9271680  57.7508755
  35.1893054 141.5159570  57.6991485  44.6722842 134.8238354  47.0901873
  43.7848697 135.1088004  46.8722068  45.0876831 134.6632117  46.2429150
  48.0237378 134.8484875  50.8056213  48.7997768 135.3381327  51.0780830
  47.2985512 135.2742929  51.2628082  50.4609937 135.5612494  51.8630153
  51.0554428 135.3208230  51.1523462  50.5336521 134.8419625  52.4903690
  43.8166056 144.5883028  41.1849893  44.5201906 144.7933031  41.8007549
  43.0928704 145.1559790  41.4498977  44.6463866 140.3392890  47.3052164
  44.5899067 140.7961441  46.4659796  45.1992208 139.5783574  47.1275006
  48.4568672 136.1282622  48.1302283  48.2005606 135.7279257  48.9610491
  47.8321540 136.8426416  48.0052422  52.7681010 138.8678695  50.6373575
  52.2080568 138.9371884  51.4105137  52.1624513 138.6919679  49.9173071
  45.7252753 145.0265558  43.2348353  46.5598357 144.5946756  43.0525828
  45.5637096 144.8547571  44.1625248  45.3798645 141.5297671  44.6004693
  45.3247449 141.3641942  43.6593137  44.7544700 142.2373704  44.7566883
  30.1691160 136.7665735  58.4266115  30.8150024 136.2564689  58.9153340
  29.9608311 137.5034417  59.0009540  42.6944552 143.8346583  63.9258256
  43.5635712 144.0087235  63.5644890  42.2151304 144.6541000  63.8033985
  38.6894771 131.0305780  44.1790011  38.6773441 131.9747620  44.3358282
  39.5818193 130.8475925  43.8849472  42.5046890 127.6248557  48.4335948
  41.7379286 127.0707043  48.5792630  42.9157595 127.6970425  49.2950100
  34.5088651 133.9133352  62.5241129  35.3720113 133.5570157  62.7344454
  33.9354062 133.5747247  63.2116534  59.3086724 153.2061896  51.3089717
  60.0411896 152.6361113  51.5427546  58.5526079 152.8183496  51.7496222
  56.8312144 146.9183470  55.7684325  56.4995469 147.7878881  55.5445540
  56.2357757 146.6019754  56.4478356  50.5668330 150.6579037  43.5014408
  50.7342733 151.5259273  43.8684879  50.3765500 150.8206319  42.5775697
  56.7240807 151.6378556  52.8477675  55.8157685 151.5693965  52.5536436
  56.6728403 152.1150501  53.6759501  58.5902454 149.8394995  54.6255549
  57.9476834 150.1327528  53.9795344  58.0857382 149.7247915  55.4308746
  54.0313901 150.6059771  57.9817432  53.7874832 151.3601831  57.4451707
  54.3073831 150.9845118  58.8164679  53.5878592 149.7616204  53.5631270
  52.7263071 150.0597457  53.8548007  53.6141027 149.9786603  52.6312302
  65.1904184 156.3709087  51.1802026  64.4367893 155.8016485  51.0246031
  65.3251725 156.3371751  52.1272661  47.0670152 147.3214069  63.5171101
  46.6737098 146.7680268  64.1918745  47.8836292 147.6324648  63.9077618
  49.9838113 148.7371948  61.1091357  50.7247826 149.3379101  61.0295820
  50.2156036 147.9949586  60.5509400  53.9295276 144.7653051  55.3855639
  53.5859545 145.6554693  55.3094750  54.2974239 144.5754709  54.5225224
  51.4792670 149.6011363  48.9513313  50.6234266 149.2118213  48.7718951
  51.8919621 149.6803324  48.0913098  53.0091816 147.1357706  53.3504872
  52.5056612 147.0987841  52.5372678  53.3022423 148.0450449  53.4101529
  49.2534702 147.2196436  52.3571054  50.1187699 147.0239245  51.9976943
  49.3212211 146.9906788  53.2840411  53.6831862 152.6288754  45.7187855
  53.3781997 152.9434904  46.5697999  54.6362304 152.7070174  45.7615188
  46.8597021 149.4498644  49.7287421  47.4340773 149.2273825  48.9960614
  47.4468004 149.5187338  50.4816022  49.1619689 146.3239893  48.4562490
  48.5084101 146.0088910  47.8319105  49.1200163 145.7015633  49.1822313
  55.6271314 151.2470358  49.8931607  54.8894071 150.7347745  50.2241850
  55.8798088 150.8070740  49.0814884  55.7282942 144.0246610  50.4873377
  56.0341818 143.1643974  50.1999292  56.4535546 144.6164231  50.2872371
  47.4310456 150.5095819  54.3701182  48.0709835 150.3684578  53.6724145
  46.5987987 150.2230332  53.9939784  51.8089570 148.5195842  58.3338654
  51.1617485 149.2185791  58.2403130  52.5790585 148.9531986  58.7014902
  53.5565565 149.4871252  50.8377939  54.0534264 148.7341215  50.5179009
  52.7852546 149.5235569  50.2721148  50.1400533 151.6288635  50.5649623
  49.7698321 151.0759676  51.2530529  50.6359626 151.0246769  50.0124623
  55.9984560 146.4540846  52.9857298  55.0847639 146.6845073  53.1539505
  56.4277661 146.5379290  53.8371330  45.5365867 149.0392626  56.8102729
  45.6007194 149.9007457  56.3980127  45.4732987 148.4266628  56.0775088
  48.1204243 148.3302611  58.6462319  48.6438645 148.5764907  59.4088628
  47.9016576 149.1622646  58.2265456  49.3256788 149.2716306  56.3311989
  48.9853608 148.4724119  56.7332669  48.6195794 149.5718017  55.7588823
  49.9773260 146.3565618  54.7839312  50.7999329 145.8826096  54.6618203
  50.2211323 147.1356102  55.2837999  48.6181494 149.3853877  45.0802214
  49.3389857 149.7635129  44.5765931  47.9946798 150.1042753  45.1837192
  52.7612617 150.0899026  46.0160546  52.9776232 150.9723664  45.7149375
  52.2806684 149.6985239  45.2866188  49.3608221 150.0387287  52.6412181
  49.3469790 149.1428380  52.3044479  50.0780650 150.0457951  53.2750467
  51.2134352 150.4724627  54.6865308  50.9552130 151.3941698  54.6849638
  50.6819393 150.0755062  55.3765772  48.7645117 148.9201667  47.9099751
  48.8861029 147.9918313  48.1090638  48.4747160 148.9340353  46.9978066
  51.6336308 146.6056578  51.0466471  51.6558005 146.6695911  50.0918450
  52.0504367 145.7661086  51.2406977  56.1442680 153.8098182  60.0282856
  57.0452543 153.6704647  59.7366853  56.2190655 153.9752637  60.9681033
  50.4785485 151.1865037  58.8736042  49.6088795 151.4798603  58.6018631
  50.7144966 151.7705482  59.5943306  53.1824519 147.4044654  56.3901462
  53.7006463 148.1405681  56.0647951  52.8279652 147.7108647  57.2248221
  53.4337113 143.8244936  51.9102359  53.7138867 143.1568125  52.5362786
  54.2187720 144.0174032  51.3977023  57.3045972 152.2462570  55.6573934
  58.2563395 152.3460668  55.6786158  57.1349422 151.4540839  56.1672018
  55.3260351 149.3318154  55.8433335  54.7310283 149.6123166  55.1479824
  55.0410048 149.8212055  56.6150076  59.9328538 152.2579733  54.8174517
  59.4167587 151.4738190  54.6304446  60.8168487 151.9298450  54.9821036
  57.5939265 146.0020749  50.7770330  57.3964086 145.6935837  51.6613662
  58.2038970 146.7282388  50.9068259  65.6010599 156.5284697  53.9122271
  66.3313988 156.2669985  54.4729974  64.9917545 155.7913419  53.9524339
  63.6825896 154.6692559  54.5096722  62.9559060 154.5348524  53.9013213
  63.2673183 154.9769388  55.3153440  51.4222363 146.8051609  46.9042564
  50.6123092 146.4598694  47.2797810  52.1106780 146.4959153  47.4930176
  53.3512912 145.8829656  48.5266861  53.9043950 146.3025109  49.1856884
  53.5882998 144.9565404  48.5689817  48.5759082 149.1201655  40.8910302
  49.4378246 149.4456553  41.1506120  48.7609426 148.3333151  40.3783368
  56.7291719 147.9930181  48.0345525  56.1490388 148.6514985  47.6523578
  56.4627651 147.1707526  47.6232943  55.1795285 147.3935239  50.2366846
  55.6795063 147.5051773  49.4281164  55.8230893 147.0896292  50.8767654
  55.5116597 150.1530271  47.0901873  54.6242452 150.4379922  46.8722068
  55.9270586 149.9924035  46.2429150  58.8631133 150.1776792  50.8056213
  59.6391523 150.6673245  51.0780830  58.1379267 150.6034847  51.2628082
  61.3003691 150.8904412  51.8630153  61.8948182 150.6500148  51.1523462
  61.3730275 150.1711542  52.4903690  59.2962426 151.4574539  48.1302283
  59.0399361 151.0571175  48.9610491  58.6715294 152.1718333  48.0052422
  63.6074764 154.1970613  50.6373575  63.0474322 154.2663802  51.4105137
  63.0018268 154.0211597  49.9173071  49.5288525 146.3597698  44.1790011
  49.5167195 147.3039538  44.3358282  50.4211947 146.1767843  43.8849472
  53.3440645 142.9540474  48.4335948  52.5773040 142.3998961  48.5792630
  53.7551350 143.0262343  49.2950100  45.3482406 149.2425270  62.5241129
  46.2113867 148.8862075  62.7344454  44.7747816 148.9039165  63.2116534
   5.1117953  53.5664430  38.0335023   5.8443124  52.9963647  38.2672853
   4.3557308  53.1786031  38.4741529   2.6343373  47.2786004  42.4929632
   2.3026698  48.1481415  42.2690847   2.0388986  46.9622288  43.1723662
   2.5272036  51.9981090  39.5722982   1.6188914  51.9296499  39.2781743
   2.4759632  52.4753035  40.4004808   4.3933683  50.1997529  41.3500856
   3.7508063  50.4930062  40.7040651   3.8888611  50.0850449  42.1554053
   2.0473846  53.9460702  32.0386715   2.9591702  54.1788089  31.8634413
   1.5383493  54.5297746  31.4761794   4.5332660  59.8640958  36.7844661
   3.8483699  60.2439860  36.2341694   4.6176510  60.4736285  37.5176608
   1.7883592  57.5100917  43.3840004   2.0000487  58.1532677  42.7074385
   1.7413340  56.6763234  42.9161934   2.9029420  60.3872873  41.5562361
   3.7246864  59.9853060  41.2745043   2.8991823  60.2841107  42.5078477
  10.9935413  56.7311621  37.9047333  10.2399121  56.1619019  37.7491337
  11.1282954  56.6974286  38.8517968   4.6711062  57.8696551  32.5526554
   3.8940504  57.5307711  32.1081716   5.3502543  57.8749174  31.8781519
   2.9102368  57.3430532  39.2093162   2.2526043  58.0329794  39.2973291
   3.7142768  57.7326964  39.5527149   1.7207827  55.6974905  37.2597104
   2.2339709  56.3304897  37.7618814   2.3709051  55.0976101  36.8940464
   2.4869623  60.6780906  35.3876247   2.0331951  59.8371816  35.4441437
   1.8563590  61.3142305  35.7251027   1.4302543  51.6072893  36.6176914
   0.6925300  51.0950279  36.9487157   1.6829317  51.1673274  35.8060191
   0.9302563  62.5157403  36.3226065   1.2225537  63.0762460  35.6038430
   1.4401183  62.8085964  37.0779224   1.5314170  44.3849145  37.2118683
   1.8373047  43.5246508  36.9244598   2.2566775  44.9766765  37.0117677
   5.0699559  56.8840258  35.0149476   4.9317457  57.0741854  34.0870665
   4.7135777  57.6459641  35.4717527   5.0968938  58.9516785  40.0260748
   5.5305445  58.8592074  40.8743802   5.8100519  58.9274285  39.3880764
   5.9584488  58.9940485  42.5593633   6.1520378  59.8986296  42.8052908
   5.8585106  58.5347904  43.3932218   1.0199596  59.1447228  48.1334514
   0.8685103  58.9157780  47.2164597   1.0104276  60.1017830  48.1465859
   1.0737671  57.4667442  28.5505215   0.4566842  56.7414270  28.4538268
   0.6054160  58.2276803  28.2072289   2.7291803  62.1766351  46.2110996
   2.6704349  61.4925571  45.5441579   3.1311322  62.9185341  45.7591622
   2.7309210  60.1405935  44.4424975   1.8435989  59.8031856  44.5651374
   3.3007761  59.4088966  44.6793741   7.2126551  55.5514152  39.2041537
   7.2016427  56.4338867  38.8335470   6.3443930  55.1985703  39.0096074
   3.8299126  54.4462793  35.6711703   4.2959578  55.2790785  35.5972006
   4.2806626  53.9807775  36.3756961   1.8975357  60.7906614  32.6697855
   2.1735201  60.6763209  33.5791729   1.0279855  60.3924099  32.6310028
   1.8015788  46.8143380  39.7102604   0.8878868  47.0447607  39.8784811
   2.2308890  46.8981824  40.5616637   1.5722247  55.0033272  42.2102498
   0.9193697  55.2509179  41.5554951   1.9502627  54.1897410  41.8764976
   1.2143477  61.8781268  48.7874806   1.7583381  62.4911226  48.2929761
   0.6330322  62.4360846  49.3041819   1.5635898  62.8011006  41.5469384
   0.6166234  62.6816357  41.4747710   1.9118671  61.9133504  41.6295645
   2.1716454  63.4192281  38.8338609   3.0963001  63.2135142  38.6963060
   2.0031757  63.1708682  39.7427950   1.9611770  63.9377948  34.1900700
   2.1348647  63.3724371  33.4374553   2.4540661  64.7378843  34.0080190
   7.8151161  56.7014371  35.8091000   8.2582307  55.9521697  35.4110123
   6.9377671  56.6924508  35.4264732   2.9486942  63.2544713  31.2897598
   3.6437847  63.8751405  31.5084913   3.2910092  62.4040064  31.5649976
   4.8478365  60.7044418  32.8184929   5.3729689  61.0431691  32.0934249
   4.7600718  59.7691434  32.6348064   4.5372271  61.3377322  48.1236127
   3.7467815  61.3201461  47.5840626   4.3005626  61.8765616  48.8785164
   4.6570146  58.1869788  45.4368856   4.7068151  58.0219796  46.3784378
   4.5484070  57.3197047  45.0466736   1.9473909  54.1700716  46.7528162
   2.8483772  54.0307181  46.4612160   2.0221883  54.3355171  47.6926340
   6.1588343  60.6066730  45.6810877   5.8673152  60.9696710  46.5174338
   5.5460475  59.8933738  45.5024209   7.3584026  58.1719610  38.2013447
   8.1930917  58.6109414  38.3651008   7.4943154  57.6958263  37.3821693
   4.4075532  55.7299344  44.1490935   4.8829653  55.9226991  43.3409787
   3.4841097  55.7858530  43.9034319   3.1077201  52.6065105  42.3819241
   4.0594623  52.7063202  42.4031465   2.9380651  51.8143373  42.8917325
   1.1291580  49.6920688  42.5678642   0.5341512  49.9725701  41.8725130
   0.8441277  50.1814589  43.3395383   2.8887087  62.9609485  28.2885222
   2.8100719  62.6269349  29.1820980   3.7096754  63.4531253  28.2876694
   5.5865278  55.8271224  41.4961540   5.5541598  54.8887225  41.6821224
   6.1965902  55.9055261  40.7627365   5.7359767  52.6182268  41.5419824
   5.2198815  51.8340724  41.3549752   6.6199715  52.2900984  41.7066343
   3.3970494  46.3623283  37.5015636   3.1995315  46.0538371  38.3858968
   4.0070199  47.0884922  37.6313566  11.4041828  56.8887231  40.6367577
  12.1345217  56.6272519  41.1975281  10.7948774  56.1515953  40.6769645
   9.4857125  55.0295094  41.2342028   8.7590289  54.8951059  40.6258520
   9.0704412  55.3371922  42.0398746   2.5322947  48.3532715  34.7590832
   1.9521616  49.0117519  34.3768884   2.2658880  47.5310060  34.3478249
   0.9826514  47.7537773  36.9612152   1.4826292  47.8654308  36.1526471
   1.6262122  47.4498826  37.6012961   1.3147825  50.5132806  33.8147180
   0.4273680  50.7982456  33.5967375   1.7301815  50.3526569  32.9674457
   4.6662362  50.5379327  37.5301519   5.4422752  51.0275779  37.8026136
   3.9410496  50.9637381  37.9873389   7.1034920  51.2506946  38.5875460
   7.6979411  51.0102682  37.8768768   7.1761504  50.5314076  39.2148996
   1.2888849  56.0287342  34.0297470   1.2324051  56.4855893  33.1905103
   1.8417192  55.2678026  33.8520313   5.0993655  51.8177073  34.8547590
   4.8430589  51.4173709  35.6855797   4.4746523  52.5320867  34.7297729
   9.4105993  54.5573147  37.3618881   8.8505551  54.6266336  38.1350443
   8.8049496  54.3814131  36.6418377   2.3677736  60.7160010  29.9593660
   3.2023340  60.2841208  29.7771135   2.2062079  60.5442023  30.8870555
   2.0223629  57.2192123  31.3249999   1.9672432  57.0536394  30.3838444
   1.3969684  57.9268156  31.4812189  10.9962011  71.2329661  40.0548837
  11.6340421  71.1136408  39.3512177  10.8782854  72.1810505  40.1136789
   7.8051718  71.1857089  39.9910362   7.4670229  71.0698153  39.1030896
   8.6741486  70.7848254  39.9711368   3.6638533  73.0392565  35.9807253
   3.1003399  72.9482502  35.2123540   3.5490928  72.2192470  36.4609745
   8.2871501  72.3391941  45.9496567   8.2760141  71.9444739  45.0777071
   8.4492140  71.6058013  46.5430339   1.2102965  74.5343757  38.8191473
   2.0024257  74.1934581  38.4037772   1.4499615  74.6438732  39.7393626
   9.2438092  76.7063533  31.2921717   8.5926072  77.2917613  30.9055731
  10.0382455  77.2369728  31.3516755   3.1693719  73.7952670  31.6908852
   3.9424595  73.2481657  31.5521728   3.5219118  74.6596919  31.9023313
   5.0078762  75.1229052  44.8975751   4.7168628  76.0274683  44.7822417
   5.6435746  75.1645580  45.6119821   5.9334969  72.5005901  41.4877111
   6.5298541  72.2761923  40.7734074   5.9909940  71.7590646  42.0902559
   5.5059997  69.9545336  29.3227302   5.7585518  69.4326857  28.5610765
   4.5684556  69.7911482  29.4253985  10.5503280  68.9581115  37.1302045
  11.3366369  68.5400538  36.7792462  10.8141984  69.8627207  37.2983693
  10.7213357  74.3953965  31.8290702  10.0859190  74.4688591  32.5411606
  10.3910764  74.9847564  31.1509781  15.9511707  68.8956348  38.0335023
  16.6836879  68.3255565  38.2672853  15.1951063  68.5077948  38.4741529
   5.2256286  71.8573442  31.5251677   5.1092544  71.1818346  32.1932761
   5.3358546  71.3705816  30.7083830   7.5687827  71.3183589  35.2298366
   7.2046034  70.7914210  35.9411287   8.4254943  70.9282058  35.0564851
  13.4737127  62.6077922  42.4929632  13.1420452  63.4773333  42.2690847
  12.8782741  62.2914206  43.1723662   7.2093314  66.3473489  30.2259714
   7.3767716  67.2153725  30.5930185   7.0190483  66.5100771  29.3021004
   9.9668647  74.8090468  41.8925545   9.6669370  75.7115507  41.7841352
   9.6219706  74.5422651  42.7446698   3.4181128  71.2604265  37.9262249
   2.4931625  71.1280479  38.1339941   3.6665542  72.0398484  38.4232192
  13.3665791  67.3273008  39.5722982  12.4582668  67.2588416  39.2781743
  13.3153386  67.8044953  40.4004808   7.1882535  68.8031146  31.2106381
   7.0682160  69.2488197  32.0491862   6.4935123  69.1516464  30.6519919
   4.9489427  81.5734788  34.8596512   4.8713456  82.5242613  34.9384993
   4.3451070  81.2280661  35.5171439   7.4406656  68.7462654  47.5157879
   6.6639991  69.3056574  47.5060744   8.0797220  69.2319437  48.0372749
  15.2327437  65.5289446  41.3500856  14.5901817  65.8221980  40.7040651
  14.7282366  65.4142367  42.1554053  12.8867601  69.2752620  32.0386715
  13.7985457  69.5080006  31.8634413  12.3777248  69.8589664  31.4761794
   5.6953029  71.5548107  47.0775846   6.4367713  72.0933151  46.8010670
   4.9890014  72.1814396  47.2347398  11.1708368  73.6977247  45.6748008
  11.5791724  73.2559658  44.9302640  10.4485630  73.1229875  45.9282201
   7.5239438  68.6349854  43.0481565   8.3700634  69.0589268  43.1916214
   7.4638076  67.9783479  43.7420128  11.4937183  74.2578438  39.4300297
  10.8646046  74.4224152  38.7276365  11.1062845  74.6720048  40.2011261
  15.3726415  75.1932876  36.7844661  14.6877453  75.5731777  36.2341694
  15.4570264  75.8028203  37.5176608  10.6738884  66.2954223  44.7062738
  10.4299816  67.0496283  44.1697014  10.9498814  66.6739570  45.5409986
  12.6277347  72.8392835  43.3840004  12.8394242  73.4824595  42.7074385
  12.5807095  72.0055151  42.9161934  10.2303576  65.4510656  40.2876576
   9.3688055  65.7491909  40.5793314  10.2566010  65.6681054  39.3557609
   7.0465145  73.9952846  36.6950382   7.5103490  74.2740549  35.9055004
   6.7821943  73.0936291  36.5123473   3.9389226  73.5424328  39.6330145
   4.5090583  73.9711596  38.9947630   4.5297338  73.2606912  40.3314331
   5.9834031  70.1175999  33.5039947   6.6858074  70.5697042  33.9713873
   5.6514660  69.4759817  34.1319840   4.4314393  68.7087755  47.8791156
   3.8013053  69.3904036  48.1126553   4.3250480  68.5970837  46.9344295
  13.7423175  75.7164790  41.5562361  14.5640618  75.3144978  41.2745043
  13.7385577  75.6133025  42.5078477   1.6774110  68.7404130  35.7640557
   0.8805274  68.8522825  36.2824053   1.4499703  69.0790783  34.8981448
   7.5079778  75.2648834  43.7123072   7.5724210  75.7269241  44.5481244
   6.7990702  74.6346199  43.8405382  21.8329168  72.0603539  37.9047333
  21.0792876  71.4910937  37.7491337  21.9676709  72.0266203  38.8517968
   7.2227796  76.9316941  33.5802052   7.0873470  77.7768477  34.0086900
   7.7637608  77.1336219  32.8167986   3.7095135  63.0108521  50.2416407
   3.3162081  62.4574720  50.9164052   4.5261276  63.3219099  50.6322925
   0.6757193  74.4492379  34.1529977   1.1881714  75.2435629  34.3035542
   1.3279906  73.7518670  34.0863579   2.4852078  77.5658135  36.2352730
   2.6618706  78.4876100  36.0473714   3.2808911  77.2516555  36.6647110
   6.6263096  64.4266400  47.8336664   7.3672810  65.0273553  47.7541126
   6.8581019  63.6844038  47.2754707   1.7704434  69.6122767  46.1114894
   1.6557949  68.7108025  46.4121993   0.9148952  69.8586464  45.7599710
   8.8496272  77.5540508  47.7102394   8.4060126  76.7676886  47.3923299
   9.5113486  77.7419658  47.0446285   3.6083393  79.0836309  42.2363073
   4.1590818  78.9553373  41.4640067   2.7694869  79.3831198  41.8857966
  10.9477510  77.8343308  45.7383796  10.9295985  78.6552189  45.2464065
  11.8697430  77.7097383  45.9633937   7.4050564  75.3487437  46.5807304
   7.9378901  74.5875725  46.3506612   6.8764645  75.0561089  47.3231458
  10.5720259  60.4547503  42.1100946  10.2284529  61.3449145  42.0340056
  10.9399222  60.2649161  41.2470531  10.5370542  70.4456114  30.6173381
  10.0217165  71.2160719  30.8561768  10.2647850  69.7721250  31.2406442
   8.1217653  65.2905815  35.6758619   7.2659249  64.9012665  35.4964258
   8.5344605  65.3697776  34.8158405   9.6516800  62.8252158  40.0750179
   9.1481595  62.7882293  39.2617984   9.9447406  63.7344901  40.1346836
   5.8959685  62.9090888  39.0816361   6.7612682  62.7133697  38.7222250
   5.9637194  62.6801240  40.0085717  15.5104816  73.1988469  32.5526554
  14.7334259  72.8599628  32.1081716  16.1896297  73.2041092  31.8781519
  10.3256845  68.3183206  32.4433162  10.0206981  68.6329355  33.2943305
  11.2787287  68.3964626  32.4860495   8.7703277  74.4773430  34.0926116
   8.2424639  73.7426189  33.7799353   8.2690780  75.2548106  33.8466084
  13.7496123  72.6722450  39.2093162  13.0919797  73.3621711  39.2973291
  14.5536522  73.0618882  39.5527149   3.5022005  65.1393096  36.4532727
   4.0765756  64.9168277  35.7205920   4.0892987  65.2081790  37.2061329
  12.5601582  71.0266823  37.2597104  13.0733464  71.6596815  37.7618814
  13.2102806  70.4268018  36.8940464   3.8291592  67.1697557  30.4728613
   2.9928904  67.5072243  30.7937887   3.6896361  67.0346537  29.5355750
   5.8044672  62.0134345  35.1807797   5.1509085  61.6983362  34.5564412
   5.7625146  61.3910085  35.9067620   6.9155877  72.2953640  27.0961089
   6.0082939  72.0642893  27.2952238   7.4126909  71.4991259  27.2835071
   9.8223956  81.0051147  30.0157775   9.1485655  81.3082844  30.6242733
  10.2089778  81.8080227  29.6663232   9.0382413  68.5016278  39.5055445
   8.1204974  68.7231225  39.3477133   9.4542556  68.5762589  38.6467152
   9.8217460  69.9007694  34.6358125  10.5689279  70.4129091  34.3265247
  10.0909050  69.5791747  35.4962518   8.0944111  72.3966235  31.6185079
   7.1855330  72.1125267  31.7157549   8.1239194  72.8165313  30.7588386
  13.3263378  76.0072824  35.3876247  12.8725705  75.1663734  35.4441437
  12.6957345  76.6434223  35.7251027  12.2696298  66.9364810  36.6176914
  11.5319054  66.4242196  36.9487157  12.5223071  66.4965192  35.8060191
  11.7696317  77.8449321  36.3226065  12.0619292  78.4054378  35.6038430
  12.2794938  78.1377882  37.0779224  12.3707925  59.7141062  37.2118683
  12.6766802  58.8538426  36.9244598  13.0960530  60.3058682  37.0117677
   6.6429005  70.0094855  37.7194874   6.6977614  69.0568692  37.6437351
   5.8320207  70.1654294  38.2036173   7.7920198  73.9374978  28.9573158
   7.3539628  73.2210837  28.4978795   8.5330639  74.1651093  28.3958249
   4.5821365  68.6271915  35.4785253   3.7689230  68.9266086  35.8850445
   5.0780359  68.2327604  36.1959736   6.7329942  78.6229672  37.4119518
   6.6906121  78.8490518  36.4828050   7.6492641  78.3893047  37.5605319
  10.1795576  69.0913739  44.3100147  10.5344964  69.3185213  45.1694613
  10.8267707  69.4232116  43.6877402  15.9093313  72.2132175  35.0149476
  15.7711212  72.4033771  34.0870665  15.5529532  72.9751558  35.4717527
   4.0735439  66.1990271  41.0946488   4.7134819  66.0579030  40.3969452
   3.2412970  65.9124784  40.7185090  15.9362693  74.2808702  40.0260748
  16.3699199  74.1883991  40.8743802  16.6494273  74.2566203  39.3880764
   4.8495743  75.4992701  37.2081481   5.6436342  75.0043021  37.0064056
   4.1387436  74.9710564  36.8449186   9.6690588  77.8810796  41.5593848
   9.7227610  78.4501733  42.3271564   8.8005369  78.0512682  41.1947885
   1.0764056  66.1690596  35.8719475   1.3370873  67.0835929  35.7628636
   1.8981228  65.7015038  36.0216088   2.5488981  67.5828353  43.0418300
   3.2212034  67.3745715  42.3930948   1.7218768  67.3850439  42.6023532
  16.7978242  74.3232403  42.5593633  16.9914132  75.2278214  42.8052908
  16.6978860  73.8639822  43.3932218   8.4514553  64.2090294  45.0583960
   7.8042468  64.9080243  44.9648437   9.2215568  64.6426438  45.4260209
  11.8593351  74.4739146  48.1334514  11.7078857  74.2449697  47.2164597
  11.8498030  75.4309747  48.1465859   8.6278687  72.0471059  43.1180780
   9.5570747  72.1982218  42.9449747   8.2069717  72.1355079  42.2629427
   7.4267019  76.0721723  40.8879318   7.2878105  75.7040507  41.7605256
   6.6381615  76.5869362  40.7163276   8.0215171  81.1730819  32.2304854
   8.1966927  80.7018863  33.0450477   7.3347959  81.7996586  32.4586115
   8.9772234  75.4503326  38.2768156   8.6422067  75.4104096  39.1725805
   8.4776180  74.7848042  37.8038566   2.9516478  70.8570956  43.8020737
   2.8136276  70.1251194  44.4032276   3.8621402  70.7679856  43.5204924
  11.9131426  72.7959360  28.5505215  11.2960597  72.0706188  28.4538268
  11.4447914  73.5568720  28.2072289   5.5798779  70.5690915  43.2904416
   6.2898397  69.9284107  43.2491035   5.5368087  70.8203810  44.2130597
  13.5685558  77.5058268  46.2110996  13.5098104  76.8217488  45.5441579
  13.9705076  78.2477258  45.7591622   4.2927713  67.5556133  45.1100056
   3.7565070  67.1046871  45.7621652   3.7044421  67.6902042  44.3670520
   2.5876256  84.3220182  39.0044714   2.8272855  84.9538706  39.6823733
   1.7445453  83.9708222  39.2910074   3.7029972  67.0144784  27.6726520
   2.8259438  66.8933585  27.3088766   4.1787725  66.2230863  27.4205408
  13.5702965  75.4697852  44.4424975  12.6829744  75.1323774  44.5651374
  14.1401516  74.7380884  44.6793741   7.1004118  80.1299305  41.4086218
   7.0274290  80.9354276  41.9205523   6.6581511  80.3291270  40.5834240
   6.8893898  79.3671075  34.9189040   6.1061420  79.9092755  35.0127265
   7.5886643  79.8845054  35.3183281  10.1990548  65.1765704  37.5623245
  10.6959248  64.4235666  37.2424316   9.4277530  65.2130021  36.9966455
  18.0520305  70.8806070  39.2041537  18.0410182  71.7630785  38.8335470
  17.1837685  70.5277620  39.0096074   9.5602802  80.0286139  43.5644377
  10.2730774  80.6633603  43.4920279   9.0692830  80.1250005  42.7484379
  11.2820329  73.9337391  35.1361669  10.3476607  74.0538854  34.9666373
  11.4596997  73.0309858  34.8721679   6.7825517  67.3183087  37.2894930
   6.4123304  66.7654127  37.9775836   7.2784609  66.7141221  36.7369930
  14.6692880  69.7754711  35.6711703  15.1353332  70.6082702  35.5972006
  15.1200381  69.3099692  36.3756961   4.6114715  77.7780582  44.3849948
   5.3124175  78.4117065  44.5379342   4.1409830  78.1195314  43.6245587
  12.7369111  76.1198532  32.6697855  13.0128955  76.0055126  33.5791729
  11.8673610  75.7216017  32.6310028  12.6409543  62.1435298  39.7102604
  11.7272623  62.3739524  39.8784811  13.0702644  62.2273742  40.5616637
  12.4116001  70.3325190  42.2102498  11.7587452  70.5801097  41.5554951
  12.7896381  69.5189328  41.8764976   9.3723175  80.3684883  36.3130669
   9.5545570  79.5506539  36.7758421  10.1956161  80.5852575  35.8755559
   9.7065341  79.2953068  33.5745717  10.2353107  78.7845522  32.9615879
   9.9693560  78.9795598  34.4391250   8.4603574  71.0745001  48.6968535
   7.7844211  70.9739130  49.3670911   9.2831208  70.9184214  49.1604533
   3.0621089  80.3468185  36.3343493   2.3931464  80.8314312  35.8507533
   2.9233958  80.5937405  37.2486872   7.2026357  82.3811928  42.9326151
   7.7544665  82.5443550  43.6975237   7.5432551  82.9716366  42.2606176
   2.1790850  64.7287078  43.5348036   2.2432177  65.5901909  43.1225434
   2.1157971  64.1161080  42.8020395   1.6543123  66.8010210  47.1821070
   2.2815162  66.4187288  47.7958595   0.7971042  66.5824412  47.5476763
  12.0537232  77.2073186  48.7874806  12.5977136  77.8203144  48.2929761
  11.4724076  77.7652764  49.3041819  10.3394744  80.3293904  39.9189834
  10.2145884  79.5283643  39.4100779  10.9973836  80.8240097  39.4303804
   1.9602913  66.6842636  39.0966974   1.2389498  67.2978604  38.9574447
   2.7496168  67.2200401  39.0183620  12.4029653  78.1302924  41.5469384
  11.4559988  78.0108275  41.4747710  12.7512426  77.2425422  41.6295645
   4.7629226  64.0197063  45.3707626   5.2863628  64.2659359  46.1333935
   4.5441560  64.8517097  44.9510763   9.4076086  77.9255640  37.7473736
   9.2601049  76.9972347  37.9281306  10.2329580  77.9475731  37.2630811
   3.2738330  66.5773707  33.6054228   3.6134403  67.1059628  32.8832836
   3.7210451  66.9154113  34.3812795  13.0110208  78.7484199  38.8338609
  13.9356755  78.5427060  38.6963060  12.8425511  78.5000600  39.7427950
   5.9681771  64.9610758  43.0557296   5.6278592  64.1618571  43.4577976
   5.2620778  65.2612469  42.4834129   6.6198243  62.0460070  41.5084619
   7.4424312  61.5720548  41.3863509   6.8636307  62.8250554  42.0083305
   5.2606478  65.0748329  31.8047521   5.9814840  65.4529581  31.3011238
   4.6371782  65.7937205  31.9082499   9.4037600  65.7793478  32.7405853
   9.6201215  66.6618115  32.4394681   8.9231668  65.3879691  32.0111495
   4.1436822  68.7379191  39.3176598   3.9981403  69.0519494  40.2100879
   3.6662026  69.3564091  38.7647496   6.0033205  65.7281739  39.3657487
   5.9894774  64.8322832  39.0289785   6.7205633  65.7352403  39.9995773
   7.8559335  66.1619079  41.4110615   7.5977113  67.0836150  41.4094945
   7.3244376  65.7649513  42.1011079  12.8005524  79.2669866  34.1900700
  12.9742402  78.7016289  33.4374553  13.2934415  80.0670761  34.0080190
   5.4070101  64.6096119  34.6345057   5.5286012  63.6812765  34.8335945
   5.1172143  64.6234805  33.7223373   8.2761291  62.2951029  37.7711777
   8.2982988  62.3590363  36.8163757   8.6929350  61.4555538  37.9652283
  18.6544915  72.0306289  35.8091000  19.0976061  71.2813614  35.4110123
  17.7771426  72.0216425  35.4264732  13.7880697  78.5836630  31.2897598
  14.4831601  79.2043323  31.5084913  14.1303847  77.7331982  31.5649976
  15.6872120  76.0336336  32.8184929  16.2123444  76.3723609  32.0934249
  15.5994472  75.0983351  32.6348064   7.3492169  79.9470410  44.9474806
   7.6579295  79.7019556  45.8197505   8.1467651  80.1517048  44.4593676
   7.3712781  82.1008319  37.1780182   6.9317771  81.6084698  37.8713039
   8.1220898  81.5581287  36.9372258   4.8186653  77.6446328  39.2502484
   4.1966662  76.9817033  38.9504712   5.4891520  77.6707460  38.5676132
   4.8911180  66.1228116  48.8434990   4.9399336  66.9990239  48.4612760
   5.4333694  65.5805509  48.2706633  15.3766026  76.6669240  48.1236127
  14.5861570  76.6493379  47.5840626  15.1399380  77.2057533  48.8785164
  15.4963901  73.5161706  45.4368856  15.5461906  73.3511713  46.3784378
  15.3877824  72.6488965  45.0466736   4.3800160  76.1950252  32.7260945
   4.5288280  76.8785716  32.0727617   5.1866603  76.1755342  33.2410400
  12.7867663  69.4992634  46.7528162  13.6877526  69.3599099  46.4612160
  12.8615638  69.6647089  47.6926340   7.1210469  66.8759489  45.5981349
   6.2513778  67.1693055  45.3263937   7.3569949  67.4599934  46.3188612
  16.9982098  75.9358648  45.6810877  16.7066906  76.2988628  46.5174338
  16.3854229  75.2225656  45.5024209  18.1977780  73.5011527  38.2013447
  19.0324671  73.9401331  38.3651008  18.3336909  73.0250181  37.3821693
  15.2469286  71.0591262  44.1490935  15.7223408  71.2518908  43.3409787
  14.3234851  71.1150448  43.9034319   2.1352793  72.2215429  33.7322013
   1.8898835  71.3177759  33.9302224   2.3048707  72.2232580  32.7901491
   9.8249503  63.0939106  43.1146769  10.3431446  63.8300133  42.7893258
   9.4704635  63.4003099  43.9493528   1.4048440  67.9543787  31.2308175
   0.7117685  68.0288142  30.5748211   1.1600192  67.1904131  31.7529692
  10.0762097  59.5139388  38.6347666  10.3563850  58.8462577  39.2608092
  10.8612704  59.7068484  38.1222329   7.8795565  78.6898382  30.1972692
   7.3069532  79.3088569  29.7443164   8.4528359  79.2397744  30.7312614
  13.9470955  67.9357022  42.3819241  14.8988378  68.0355120  42.4031465
  13.7774405  67.1435291  42.8917325  11.9685334  65.0212605  42.5678642
  11.3735267  65.3017618  41.8725130  11.6835031  65.5106506  43.3395383
  11.0992825  78.9735532  31.3281274  12.0323498  78.9081094  31.5314150
  11.0116038  79.8091799  30.8695807  13.7280842  78.2901403  28.2885222
  13.6494473  77.9561266  29.1820980  14.5490508  78.7823171  28.2876694
  16.4259033  71.1563142  41.4961540  16.3935353  70.2179143  41.6821224
  17.0359656  71.2347179  40.7627365   8.2642364  70.0259195  27.5388744
   9.2101468  69.8965403  27.6077162   7.8856609  69.2873857  28.0158173
  16.5753521  67.9474185  41.5419824  16.0592570  67.1632642  41.3549752
  17.4593470  67.6192902  41.7066343  14.2364248  61.6915201  37.5015636
  14.0389069  61.3830289  38.3858968  14.8463954  62.4176840  37.6313566
  22.2435583  72.2179149  40.6367577  22.9738971  71.9564437  41.1975281
  21.6342528  71.4807871  40.6769645  20.3250880  70.3587011  41.2342028
  19.5984043  70.2242976  40.6258520  19.9098167  70.6663840  42.0398746
   8.1481056  74.0776941  48.9989401   9.0684066  74.2555540  49.1929448
   8.1130639  73.1332986  48.8469101   6.4485281  67.9509171  27.4743630
   5.5416736  67.6542284  27.5506343   6.7261262  67.6538989  26.6077916
   1.1443129  71.9877976  41.6412183   1.3629139  72.9195084  41.6600216
   1.5568903  71.6285950  42.4266986   8.0647347  62.4946061  33.6287871
   7.2548075  62.1493146  34.0043117   8.7531763  62.1853605  34.2175483
   9.9937895  61.5724108  35.2512168  10.5468933  61.9919561  35.9102191
  10.2307981  60.6459856  35.2935124   6.0170994  67.5611181  51.0314931
   5.9167721  68.5105538  50.9627023   5.7992536  67.2329420  50.1591002
   5.2184065  64.8096107  27.6155609   6.0803229  65.1351005  27.8751426
   5.4034410  64.0227602  27.1028675  13.3716702  63.6824633  34.7590832
  12.7915371  64.3409437  34.3768884  13.1052635  62.8601978  34.3478249
  11.8220268  63.0829691  36.9612152  12.3220047  63.1946225  36.1526471
  12.4655876  62.7790744  37.6012961   5.8802264  70.9908320  49.8479993
   5.3969346  71.7908680  50.0543882   5.9663203  71.0016265  48.8947437
   1.8075602  74.8812855  41.8848427   2.7618855  74.8496797  41.8178358
   1.6088125  74.4203479  42.6998653   2.3974984  73.4513971  44.4519225
   3.2167873  73.9458050  44.4754062   2.6711791  72.5345939  44.4236792
  12.1541580  65.8424723  33.8147180  11.2667435  66.1274374  33.5967375
  12.5695569  65.6818487  32.9674457  15.5056116  65.8671244  37.5301519
  16.2816506  66.3567697  37.8026136  14.7804250  66.2929299  37.9873389
  17.9428675  66.5798864  38.5875460  18.5373166  66.3394600  37.8768768
  18.0155258  65.8605994  39.2148996  11.2984793  75.6069398  27.9095200
  12.0020644  75.8119401  28.5252856  10.5747442  76.1746160  28.1744284
  12.1282604  71.3579259  34.0297470  12.0717805  71.8147811  33.1905103
  12.6810946  70.5969944  33.8520313  15.9387410  67.1468991  34.8547590
  15.6824344  66.7465627  35.6855797  15.3140278  67.8612785  34.7297729
  20.2499747  69.8865064  37.3618881  19.6899305  69.9558254  38.1350443
  19.6443251  69.7106049  36.6418377   3.3194956  81.3201792  39.1137067
   3.2027340  82.2647224  39.0115758   2.4987403  81.0175353  39.5022867
  13.2071491  76.0451927  29.9593660  14.0417095  75.6133126  29.7771135
  13.0455834  75.8733941  30.8870555  12.8617383  72.5484041  31.3249999
  12.8066187  72.3828312  30.3838444  12.2363438  73.2560073  31.4812189
  10.1763290  74.8532952  50.6503562  11.0454450  75.0273605  50.2890197
   9.6970042  75.6727369  50.5279292   6.1713508  62.0492150  30.9035318
   6.1592178  62.9933989  31.0603589   7.0636930  61.8662295  30.6094779
   4.3449470  81.9730053  42.3292996   5.2476717  82.0053664  42.6459491
   4.1186840  81.0430504  42.3439332   6.1003072  80.7261040  38.9903074
   5.1498703  80.7262902  38.8767447   6.4035559  79.9793775  38.4739109
   9.9865628  58.6434926  35.1581255   9.2198024  58.0893413  35.3037937
  10.3976333  58.7156795  36.0195406   1.9907389  64.9319722  49.2486436
   2.8538851  64.5756527  49.4589760   1.4172800  64.5933617  49.9361840
  21.8355766  86.5621578  40.0548837  22.4734176  86.4428326  39.3512177
  21.7176609  87.5102422  40.1136789  18.6445472  86.5149006  39.9910362
  18.3063984  86.3990071  39.1030896  19.5135240  86.1140172  39.9711368
  14.5032288  88.3684483  35.9807253  13.9397153  88.2774420  35.2123540
  14.3884683  87.5484387  36.4609745  19.1265255  87.6683858  45.9496567
  19.1153896  87.2736656  45.0777071  19.2885895  86.9349931  46.5430339
  12.0496720  89.8635674  38.8191473  12.8418012  89.5226499  38.4037772
  12.2893370  89.9730650  39.7393626  20.0831847  92.0355451  31.2921717
  19.4319826  92.6209531  30.9055731  20.8776209  92.5661645  31.3516755
  14.0087474  89.1244588  31.6908852  14.7818350  88.5773575  31.5521728
  14.3612873  89.9888837  31.9023313  15.8472516  90.4520970  44.8975751
  15.5562382  91.3566601  44.7822417  16.4829501  90.4937498  45.6119821
  16.7728723  87.8297819  41.4877111  17.3692295  87.6053841  40.7734074
  16.8303695  87.0882564  42.0902559  16.3453752  85.2837254  29.3227302
  16.5979272  84.7618775  28.5610765  15.4078311  85.1203399  29.4253985
  21.3897034  84.2873032  37.1302045  22.1760124  83.8692455  36.7792462
  21.6535739  85.1919124  37.2983693  21.5607112  89.7245883  31.8290702
  20.9252945  89.7980509  32.5411606  21.2304518  90.3139481  31.1509781
  26.7905462  84.2248265  38.0335023  27.5230633  83.6547482  38.2672853
  26.0344817  83.8369866  38.4741529  16.0650040  87.1865360  31.5251677
  15.9486298  86.5110263  32.1932761  16.1752300  86.6997734  30.7083830
  18.4081581  86.6475507  35.2298366  18.0439788  86.1206128  35.9411287
  19.2648697  86.2573976  35.0564851  24.3130882  77.9369840  42.4929632
  23.9814207  78.8065250  42.2690847  23.7176495  77.6206124  43.1723662
  18.0487068  81.6765407  30.2259714  18.2161471  82.5445643  30.5930185
  17.8584237  81.8392688  29.3021004  20.8062401  90.1382386  41.8925545
  20.5063124  91.0407424  41.7841352  20.4613461  89.8714569  42.7446698
  14.2574883  86.5896182  37.9262249  13.3325379  86.4572396  38.1339941
  14.5059296  87.3690402  38.4232192  24.2059545  82.6564926  39.5722982
  23.2976423  82.5880334  39.2781743  24.1547141  83.1336871  40.4004808
  18.0276289  84.1323064  31.2106381  17.9075914  84.5780115  32.0491862
  17.3328877  84.4808382  30.6519919  11.6183694  86.2329456  38.7606038
  11.7476075  86.4863935  39.6745450  10.9381145  86.8257164  38.4410693
  15.7883181  96.9026706  34.8596512  15.7107211  97.8534531  34.9384993
  15.1844825  96.5572578  35.5171439  18.2800411  84.0754571  47.5157879
  17.5033745  84.6348491  47.5060744  18.9190974  84.5611354  48.0372749
  26.0721192  80.8581364  41.3500856  25.4295572  81.1513897  40.7040651
  25.5676120  80.7434284  42.1554053  23.7261355  84.6044537  32.0386715
  24.6379211  84.8371924  31.8634413  23.2171002  85.1881581  31.4761794
  16.5346783  86.8840025  47.0775846  17.2761468  87.4225069  46.8010670
  15.8283769  87.5106313  47.2347398  22.0102123  89.0269165  45.6748008
  22.4185479  88.5851576  44.9302640  21.2879384  88.4521793  45.9282201
  18.3633193  83.9641772  43.0481565  19.2094388  84.3881185  43.1916214
  18.3031831  83.3075396  43.7420128  22.3330938  89.5870356  39.4300297
  21.7039800  89.7516070  38.7276365  21.9456600  90.0011965  40.2011261
  26.2120169  90.5224794  36.7844661  25.5271208  90.9023695  36.2341694
  26.2964019  91.1320120  37.5176608  21.5132638  81.6246140  44.7062738
  21.2693570  82.3788201  44.1697014  21.7892569  82.0031488  45.5409986
  23.4671101  88.1684753  43.3840004  23.6787996  88.8116512  42.7074385
  23.4200849  87.3347069  42.9161934  21.0697330  80.7802573  40.2876576
  20.2081809  81.0783827  40.5793314  21.0959765  80.9972972  39.3557609
  17.8858899  89.3244764  36.6950382  18.3497245  89.6032467  35.9055004
  17.6215698  88.4228208  36.5123473  14.7782981  88.8716245  39.6330145
  15.3484338  89.3003514  38.9947630  15.3691092  88.5898830  40.3314331
  16.8227786  85.4467916  33.5039947  17.5251829  85.8988960  33.9713873
  16.4908414  84.8051735  34.1319840  15.2708147  84.0379673  47.8791156
  14.6406808  84.7195954  48.1126553  15.1644235  83.9262754  46.9344295
  10.5653119  83.7051469  38.8057081   9.7752173  83.9608997  38.3297191
  11.0564367  84.5199807  38.9109121  24.5816929  91.0456708  41.5562361
  25.4034373  90.6436895  41.2745043  24.5779332  90.9424942  42.5078477
  12.5167865  84.0696048  35.7640557  11.7199028  84.1814742  36.2824053
  12.2893457  84.4082700  34.8981448  18.3473532  90.5940751  43.7123072
  18.4117965  91.0561159  44.5481244  17.6384456  89.9638116  43.8405382
   8.8490822  83.9581959  41.2372071   9.0998861  84.8428969  41.5029647
   9.3850371  83.7786561  40.4647163  32.6722922  87.3895457  37.9047333
  31.9186630  86.8202855  37.7491337  32.8070463  87.3558121  38.8517968
  18.0621550  92.2608859  33.5802052  17.9267225  93.1060395  34.0086900
  18.6031363  92.4628136  32.8167986  14.5488890  78.3400439  50.2416407
  14.1555835  77.7866637  50.9164052  15.3655030  78.6511017  50.6322925
  11.5150948  89.7784297  34.1529977  12.0275468  90.5727547  34.3035542
  12.1673660  89.0810587  34.0863579  13.3245832  92.8950053  36.2352730
  13.5012461  93.8168018  36.0473714  14.1202666  92.5808472  36.6647110
  17.4656851  79.7558318  47.8336664  18.2066564  80.3565471  47.7541126
  17.6974774  79.0135956  47.2754707  12.6098189  84.9414685  46.1114894
  12.4951704  84.0399942  46.4121993  11.7542707  85.1878382  45.7599710
  19.6890027  92.8832425  47.7102394  19.2453881  92.0968804  47.3923299
  20.3507240  93.0711576  47.0446285  14.4477148  94.4128227  42.2363073
  14.9984573  94.2845290  41.4640067  13.6088624  94.7123116  41.8857966
  21.7871265  93.1635225  45.7383796  21.7689740  93.9844106  45.2464065
  22.7091185  93.0389300  45.9633937  18.2444319  90.6779355  46.5807304
  18.7772656  89.9167643  46.3506612  17.7158400  90.3853007  47.3231458
  21.4114014  75.7839421  42.1100946  21.0678283  76.6741062  42.0340056
  21.7792976  75.5941078  41.2470531   9.4799864  88.1072951  34.9289548
  10.3175086  88.5169960  34.7123256   9.6578132  87.1672393  34.8989742
  21.3764296  85.7748032  30.6173381  20.8610920  86.5452636  30.8561768
  21.1041605  85.1013168  31.2406442  18.9611407  80.6197733  35.6758619
  18.1053004  80.2304583  35.4964258  19.3738359  80.6989693  34.8158405
  20.4910554  78.1544076  40.0750179  19.9875350  78.1174211  39.2617984
  20.7841161  79.0636819  40.1346836  16.7353440  78.2382806  39.0816361
  17.6006437  78.0425614  38.7222250  16.8030949  78.0093157  40.0085717
  26.3498571  88.5280386  32.5526554  25.5728013  88.1891546  32.1081716
  27.0290052  88.5333010  31.8781519  21.1650600  83.6475124  32.4433162
  20.8600735  83.9621273  33.2943305  22.1181042  83.7256544  32.4860495
  19.6097031  89.8065347  34.0926116  19.0818393  89.0718107  33.7799353
  19.1084534  90.5840024  33.8466084  24.5889877  88.0014368  39.2093162
  23.9313552  88.6913629  39.2973291  25.3930277  88.3910800  39.5527149
  14.3415759  80.4685013  36.4532727  14.9159511  80.2460195  35.7205920
  14.9286741  80.5373708  37.2061329  23.3995336  86.3558740  37.2597104
  23.9127218  86.9888732  37.7618814  24.0496560  85.7559936  36.8940464
  14.6685346  82.4989475  30.4728613  13.8322658  82.8364161  30.7937887
  14.5290116  82.3638454  29.5355750  16.6438427  77.3426262  35.1807797
  15.9902839  77.0275280  34.5564412  16.6018901  76.7202003  35.9067620
  17.7549632  87.6245557  27.0961089  16.8476693  87.3934811  27.2952238
  18.2520664  86.8283177  27.2835071  20.6617710  96.3343065  30.0157775
  19.9879409  96.6374761  30.6242733  21.0483532  97.1372145  29.6663232
  19.8776167  83.8308196  39.5055445  18.9598728  84.0523143  39.3477133
  20.2936311  83.9054506  38.6467152  20.6611215  85.2299612  34.6358125
  21.4083034  85.7421009  34.3265247  20.9302804  84.9083664  35.4962518
  18.9337865  87.7258152  31.6185079  18.0249084  87.4417185  31.7157549
  18.9632949  88.1457231  30.7588386  24.1657132  91.3364742  35.3876247
  23.7119460  90.4955652  35.4441437  23.5351099  91.9726140  35.7251027
  23.1090052  82.2656728  36.6176914  22.3712809  81.7534114  36.9487157
  23.3616826  81.8257109  35.8060191  22.6090072  93.1741239  36.3226065
  22.9013046  93.7346296  35.6038430  23.1188692  93.4669800  37.0779224
  23.2101679  75.0432980  37.2118683  23.5160556  74.1830343  36.9244598
  23.9354284  75.6350600  37.0117677   9.5026035  85.4463666  35.6000281
   9.3050435  84.8533027  34.8751348   8.9472699  85.1415877  36.3176220
  17.4822759  85.3386773  37.7194874  17.5371369  84.3860609  37.6437351
  16.6713961  85.4946212  38.2036173  18.6313953  89.2666896  28.9573158
  18.1933383  88.5502755  28.4978795  19.3724394  89.4943011  28.3958249
  15.4215119  83.9563833  35.4785253  14.6082985  84.2558003  35.8850445
  15.9174113  83.5619521  36.1959736  17.5723697  93.9521590  37.4119518
  17.5299876  94.1782436  36.4828050  18.4886396  93.7184964  37.5605319
  21.0189331  84.4205657  44.3100147  21.3738718  84.6477130  45.1694613
  21.6661462  84.7524034  43.6877402  26.7487068  87.5424093  35.0149476
  26.6104966  87.7325689  34.0870665  26.3923286  88.3043476  35.4717527
  14.9129194  81.5282188  41.0946488  15.5528573  81.3870947  40.3969452
  14.0806724  81.2416702  40.7185090  26.7756447  89.6100620  40.0260748
  27.2092954  89.5175909  40.8743802  27.4888028  89.5858121  39.3880764
  15.6889498  90.8284619  37.2081481  16.4830096  90.3334939  37.0064056
  14.9781190  90.3002482  36.8449186  20.5084342  93.2102714  41.5593848
  20.5621364  93.7793650  42.3271564  19.6399124  93.3804599  41.1947885
  11.9972261  84.9727700  33.2841233  11.0669849  84.9112156  33.5011196
  12.0929733  84.4503653  32.4877875  11.9157810  81.4982513  35.8719475
  12.1764627  82.4127846  35.7628636  12.7374983  81.0306956  36.0216088
  13.3882736  82.9120270  43.0418300  14.0605789  82.7037633  42.3930948
  12.5612522  82.7142356  42.6023532  27.6371997  89.6524321  42.5593633
  27.8307887  90.5570131  42.8052908  27.5372615  89.1931740  43.3932218
  19.2908308  79.5382211  45.0583960  18.6436223  80.2372161  44.9648437
  20.0609323  79.9718355  45.4260209  22.6987105  89.8031063  48.1334514
  22.5472612  89.5741615  47.2164597  22.6891785  90.7601665  48.1465859
  19.4672442  87.3762976  43.1180780  20.3964502  87.5274136  42.9449747
  19.0463472  87.4646997  42.2629427  18.2660774  91.4013641  40.8879318
  18.1271859  91.0332425  41.7605256  17.4775370  91.9161280  40.7163276
  18.8608926  96.5022737  32.2304854  19.0360681  96.0310780  33.0450477
  18.1741714  97.1288503  32.4586115  19.8165989  90.7795243  38.2768156
  19.4815821  90.7396013  39.1725805  19.3169934  90.1139959  37.8038566
  13.7910233  86.1862873  43.8020737  13.6530031  85.4543112  44.4032276
  14.7015156  86.0971773  43.5204924  22.7525180  88.1251278  28.5505215
  22.1354351  87.3998106  28.4538268  22.2841669  88.8860638  28.2072289
  16.4192533  85.8982833  43.2904416  17.1292152  85.2576025  43.2491035
  16.3761842  86.1495728  44.2130597  24.4079312  92.8350186  46.2110996
  24.3491858  92.1509406  45.5441579  24.8098831  93.5769176  45.7591622
  15.1321467  82.8848051  45.1100056  14.5958824  82.4338789  45.7621652
  14.5438176  83.0193959  44.3670520  13.4270011  99.6512100  39.0044714
  13.6666609 100.2830624  39.6823733  12.5839207  99.3000140  39.2910074
  14.5423726  82.3436702  27.6726520  13.6653193  82.2225503  27.3088766
  15.0181479  81.5522780  27.4205408  24.4096719  90.7989770  44.4424975
  23.5223498  90.4615692  44.5651374  24.9795270  90.0672801  44.6793741
   6.0625867  87.1313862  37.7668027   6.7496906  86.8175592  37.1789042
   5.9073995  88.0355226  37.4935278  10.8660589  82.0204058  42.1953050
  10.7818777  81.4129728  41.4603460  10.0443295  82.5113077  42.1962547
  17.9397873  95.4591222  41.4086218  17.8668044  96.2646194  41.9205523
  17.4975266  95.6583188  40.5834240  17.7287652  94.6962992  34.9189040
  16.9455174  95.2384673  35.0127265  18.4280398  95.2136972  35.3183281
  21.0384303  80.5057622  37.5623245  21.5353002  79.7527584  37.2424316
  20.2671284  80.5421938  36.9966455  28.8914060  86.2097987  39.2041537
  28.8803936  87.0922703  38.8335470  28.0231439  85.8569538  39.0096074
  20.3996556  95.3578056  43.5644377  21.1124529  95.9925521  43.4920279
  19.9086585  95.4541922  42.7484379  22.1214083  89.2629309  35.1361669
  21.1870362  89.3830771  34.9666373  22.2990752  88.3601776  34.8721679
  17.6219271  82.6475005  37.2894930  17.2517059  82.0946045  37.9775836
  18.1178364  82.0433138  36.7369930  25.5086635  85.1046628  35.6711703
  25.9747087  85.9374620  35.5972006  25.9594135  84.6391610  36.3756961
  15.4508470  93.1072500  44.3849948  16.1517929  93.7408983  44.5379342
  14.9803585  93.4487231  43.6245587  23.5762866  91.4490450  32.6697855
  23.8522710  91.3347044  33.5791729  22.7067364  91.0507934  32.6310028
  23.4803297  77.4727215  39.7102604  22.5666377  77.7031442  39.8784811
  23.9096399  77.5565659  40.5616637  23.2509756  85.6617107  42.2102498
  22.5981206  85.9093015  41.5554951  23.6290136  84.8481245  41.8764976
  20.2116930  95.6976800  36.3130669  20.3939324  94.8798456  36.7758421
  21.0349916  95.9144493  35.8755559  20.5459095  94.6244986  33.5745717
  21.0746862  94.1137440  32.9615879  20.8087315  94.3087516  34.4391250
  19.2997329  86.4036918  48.6968535  18.6237966  86.3031048  49.3670911
  20.1224963  86.2476132  49.1604533  11.0476188  92.6408855  41.3181051
  11.6329625  91.8952543  41.4508955  10.8501026  92.9512812  42.2017715
  13.9014843  95.6760102  36.3343493  13.2325218  96.1606230  35.8507533
  13.7627713  95.9229323  37.2486872   5.6393843  85.2114455  40.0385494
   5.6777942  84.6778046  40.8322612   5.1334135  84.6849661  39.4196471
  18.0420112  97.7103846  42.9326151  18.5938420  97.8735467  43.6975237
  18.3826305  98.3008284  42.2606176  13.0184605  80.0578996  43.5348036
  13.0825931  80.9193826  43.1225434  12.9551725  79.4452997  42.8020395
  12.4936877  82.1302128  47.1821070  13.1208916  81.7479205  47.7958595
  11.6364796  81.9116330  47.5476763  22.8930986  92.5365103  48.7874806
  23.4370890  93.1495062  48.2929761  22.3117831  93.0944682  49.3041819
   9.2702420  83.9378557  33.1139425   9.5655861  83.0289236  33.0606479
   8.3690456  83.9166297  32.7920428  21.1788499  95.6585821  39.9189834
  21.0539638  94.8575561  39.4100779  21.8367590  96.1532015  39.4303804
  12.7996667  82.0134554  39.0966974  12.0783253  82.6270521  38.9574447
  13.5889923  82.5492319  39.0183620  23.2423407  93.4594841  41.5469384
  22.2953743  93.3400193  41.4747710  23.5906180  92.5717339  41.6295645
  15.6022981  79.3488980  45.3707626  16.1257383  79.5951277  46.1333935
  15.3835314  80.1809015  44.9510763  10.9990262  81.6192655  33.2378750
  10.6702968  80.7390034  33.0553856  11.3529632  81.5640324  34.1255140
  20.2469841  93.2547558  37.7473736  20.0994803  92.3264265  37.9281306
  21.0723334  93.2767648  37.2630811  14.1132085  81.9065625  33.6054228
  14.4528157  82.4351546  32.8832836  14.5604205  82.2446031  34.3812795
  23.8503963  94.0776116  38.8338609  24.7750510  93.8718978  38.6963060
  23.6819266  93.8292517  39.7427950  16.8075526  80.2902675  43.0557296
  16.4672346  79.4910488  43.4577976  16.1014532  80.5904386  42.4834129
  17.4591998  77.3751988  41.5084619  18.2818067  76.9012466  41.3863509
  17.7030061  78.1542472  42.0083305  16.1000232  80.4040246  31.8047521
  16.8208595  80.7821499  31.3011238  15.4765536  81.1229123  31.9082499
  20.2431355  81.1085395  32.7405853  20.4594969  81.9910033  32.4394681
  19.7625422  80.7171609  32.0111495  14.9830576  84.0671108  39.3176598
  14.8375157  84.3811412  40.2100879  14.5055780  84.6856009  38.7647496
  16.8426959  81.0573656  39.3657487  16.8288528  80.1614750  39.0289785
  17.5599387  81.0644320  39.9995773  18.6953090  81.4910997  41.4110615
  18.4370868  82.4128067  41.4094945  18.1638130  81.0941431  42.1011079
  23.6399279  94.5961784  34.1900700  23.8136156  94.0308206  33.4374553
  24.1328170  95.3962679  34.0080190   9.4576239  86.6076453  42.2564259
   8.9129707  87.3836261  42.3884533  10.3355588  86.9547257  42.0983380
  16.2463855  79.9388037  34.6345057  16.3679766  79.0104683  34.8335945
  15.9565898  79.9526723  33.7223373  19.1155046  77.6242947  37.7711777
  19.1376742  77.6882280  36.8163757  19.5323105  76.7847456  37.9652283
  29.4938670  87.3598207  35.8091000  29.9369816  86.6105532  35.4110123
  28.6165180  87.3508343  35.4264732  24.6274451  93.9128548  31.2897598
  25.3225356  94.5335241  31.5084913  24.9697601  93.0623899  31.5649976
  10.2442260  85.7346349  45.1494416   9.5023996  85.8828984  45.7359046
   9.9235005  85.9954615  44.2861165  26.5265874  91.3628254  32.8184929
  27.0517198  91.7015526  32.0934249  26.4388227  90.4275269  32.6348064
  18.1885923  95.2762327  44.9474806  18.4973049  95.0311474  45.8197505
  18.9861405  95.4808966  44.4593676  18.2106535  97.4300237  37.1780182
  17.7711525  96.9376616  37.8713039  18.9614652  96.8873205  36.9372258
  10.6898874  93.6211778  37.1804810  11.5156894  93.3215550  36.8003454
  10.3392926  92.8519400  37.6294599  15.6580407  92.9738246  39.2502484
  15.0360417  92.3108951  38.9504712  16.3285274  92.9999378  38.5676132
   8.8907479  91.5398104  38.1393744   8.0539387  91.1120279  37.9577745
   8.8631125  91.7330548  39.0764535  15.7304935  81.4520034  48.8434990
  15.7793090  82.3282157  48.4612760  16.2727449  80.9097427  48.2706633
  26.2159780  91.9961157  48.1236127  25.4255324  91.9785296  47.5840626
  25.9793135  92.5349451  48.8785164  26.3357655  88.8453624  45.4368856
  26.3855660  88.6803631  46.3784378  26.2271579  87.9780883  45.0466736
  15.2193914  91.5242169  32.7260945  15.3682035  92.2077634  32.0727617
  16.0260358  91.5047259  33.2410400  23.6261418  84.8284552  46.7528162
  24.5271281  84.6891017  46.4612160  23.7009392  84.9939007  47.6926340
  17.9604223  82.2051406  45.5981349  17.0907533  82.4984973  45.3263937
  18.1963704  82.7891851  46.3188612  27.8375852  91.2650565  45.6810877
  27.5460661  91.6280546  46.5174338  27.2247984  90.5517574  45.5024209
  29.0371535  88.8303445  38.2013447  29.8718426  89.2693249  38.3651008
  29.1730663  88.3542098  37.3821693  26.0863041  86.3883180  44.1490935
  26.5617162  86.5810826  43.3409787  25.1628606  86.4442366  43.9034319
  12.9746547  87.5507347  33.7322013  12.7292589  86.6469677  33.9302224
  13.1442462  87.5524497  32.7901491  20.6643257  78.4231023  43.1146769
  21.1825201  79.1592050  42.7893258  20.3098390  78.7295017  43.9493528
  12.2442195  83.2835705  31.2308175  11.5511440  83.3580060  30.5748211
  11.9993947  82.5196048  31.7529692  20.9155851  74.8431306  38.6347666
  21.1957605  74.1754495  39.2608092  21.7006458  75.0360402  38.1222329
  18.7189320  94.0190300  30.1972692  18.1463287  94.6380487  29.7443164
  19.2922113  94.5689662  30.7312614  24.7864710  83.2648940  42.3819241
  25.7382132  83.3647038  42.4031465  24.6168160  82.4727208  42.8917325
  22.8079089  80.3504523  42.5678642  22.2129021  80.6309536  41.8725130
  22.5228786  80.8398424  43.3395383  21.9386579  94.3027450  31.3281274
  22.8717253  94.2373012  31.5314150  21.8509792  95.1383717  30.8695807
  24.5674596  93.6193320  28.2885222  24.4888228  93.2853184  29.1820980
  25.3884263  94.1115088  28.2876694  27.2652787  86.4855060  41.4961540
  27.2329107  85.5471060  41.6821224  27.8753411  86.5639096  40.7627365
  19.1036118  85.3551113  27.5388744  20.0495223  85.2257321  27.6077162
  18.7250363  84.6165775  28.0158173  27.4147276  83.2766103  41.5419824
  26.8986324  82.4924560  41.3549752  28.2987224  82.9484820  41.7066343
  25.0758003  77.0207119  37.5015636  24.8782824  76.7122207  38.3858968
  25.6857708  77.7468758  37.6313566  33.0829337  87.5471066  40.6367577
  33.8132726  87.2856355  41.1975281  32.4736283  86.8099788  40.6769645
  31.1644634  85.6878929  41.2342028  30.4377798  85.5534894  40.6258520
  30.7491921  85.9955758  42.0398746  18.9874811  89.4068859  48.9989401
  19.9077820  89.5847458  49.1929448  18.9524394  88.4624904  48.8469101
  17.2879035  83.2801089  27.4743630  16.3810491  82.9834202  27.5506343
  17.5655016  82.9830907  26.6077916   8.2056976  84.6007452  37.9242676
   7.8859760  83.7472761  37.6317050   7.6590404  84.8156031  38.6800643
  11.9836883  87.3169893  41.6412183  12.2022893  88.2487001  41.6600216
  12.3962657  86.9577868  42.4266986  18.9041101  77.8237979  33.6287871
  18.0941829  77.4785064  34.0043117  19.5925518  77.5145522  34.2175483
  20.8331649  76.9016026  35.2512168  21.3862688  77.3211479  35.9102191
  21.0701736  75.9751774  35.2935124  16.8564749  82.8903099  51.0314931
  16.7561475  83.8397456  50.9627023  16.6386291  82.5621338  50.1591002
  16.0577820  80.1388024  27.6155609  16.9196984  80.4642923  27.8751426
  16.2428164  79.3519520  27.1028675   8.0745236  88.2210364  39.8935798
   7.3808707  87.8064317  39.3805752   8.8218227  88.2630900  39.2969217
  24.2110456  79.0116551  34.7590832  23.6309125  79.6701355  34.3768884
  23.9446389  78.1893895  34.3478249  22.6614023  78.4121608  36.9612152
  23.1613801  78.5238143  36.1526471  23.3049631  78.1082661  37.6012961
  16.7196019  86.3200238  49.8479993  16.2363100  87.1200598  50.0543882
  16.8056958  86.3308183  48.8947437   9.9881978  88.1528618  37.7701813
   9.9652666  88.2516305  36.8183696  10.2982615  88.9993768  38.0918979
  12.6469356  90.2104773  41.8848427  13.6012610  90.1788715  41.8178358
  12.4481880  89.7495396  42.6998653  13.2368738  88.7805889  44.4519225
  14.0561627  89.2749967  44.4754062  13.5105546  87.8637857  44.4236792
  22.9935334  81.1716641  33.8147180  22.1061189  81.4566292  33.5967375
  23.4089324  81.0110404  32.9674457  26.3449871  81.1963162  37.5301519
  27.1210261  81.6859614  37.8026136  25.6198005  81.6221216  37.9873389
  28.7822429  81.9090781  38.5875460  29.3766920  81.6686517  37.8768768
  28.8549013  81.1897912  39.2148996  11.0019585  95.7524392  38.9018625
  10.8674053  94.9924793  38.3356623  10.5851647  96.4765292  38.4347414
  22.1378548  90.9361316  27.9095200  22.8414398  91.1411318  28.5252856
  21.4141197  91.5038078  28.1744284  22.9676358  86.6871177  34.0297470
  22.9111560  87.1439728  33.1905103  23.5204701  85.9261862  33.8520313
  26.7781164  82.4760909  34.8547590  26.5218098  82.0757545  35.6855797
  26.1534032  83.1904703  34.7297729  31.0893502  85.2156982  37.3618881
  30.5293060  85.2850171  38.1350443  30.4837005  85.0397967  36.6418377
  14.1588711  96.6493709  39.1137067  14.0421095  97.5939142  39.0115758
  13.3381157  96.3467271  39.5022867  24.0465245  91.3743845  29.9593660
  24.8810849  90.9425043  29.7771135  23.8849588  91.2025859  30.8870555
  23.7011137  87.8775958  31.3249999  23.6459941  87.7120230  30.3838444
  23.0757193  88.5851991  31.4812189   8.4903652  83.1144023  45.1511422
   9.1362516  82.6042977  45.6398647   8.2820804  83.8512704  45.7254847
  21.0157045  90.1824870  50.6503562  21.8848204  90.3565522  50.2890197
  20.5363796  91.0019287  50.5279292  17.0107263  77.3784067  30.9035318
  16.9985933  78.3225907  31.0603589  17.9030685  77.1954213  30.6094779
  15.1843225  97.3021971  42.3292996  16.0870472  97.3345581  42.6459491
  14.9580595  96.3722422  42.3439332  16.9396827  96.0552958  38.9903074
  15.9892458  96.0554819  38.8767447  17.2429313  95.3085692  38.4739109
  20.8259382  73.9726844  35.1581255  20.0591778  73.4185331  35.3037937
  21.2370087  74.0448713  36.0195406  12.8301143  80.2611640  49.2486436
  13.6932605  79.9048445  49.4589760  12.2566554  79.9225535  49.9361840
  32.6749520 101.8913496  40.0548837  33.3127930 101.7720243  39.3512177
  32.5570363 102.8394340  40.1136789  29.4839227 101.8440924  39.9910362
  29.1457738 101.7281989  39.1030896  30.3528995 101.4432089  39.9711368
  25.3426042 103.6976401  35.9807253  24.7790908 103.6066337  35.2123540
  25.2278437 102.8776305  36.4609745  29.9659010 102.9975776  45.9496567
  29.9547650 102.6028574  45.0777071  30.1279649 102.2641848  46.5430339
  22.8890474 105.1927592  38.8191473  23.6811766 104.8518417  38.4037772
  23.1287124 105.3022567  39.7393626  30.9225601 107.3647368  31.2921717
  30.2713581 107.9501449  30.9055731  31.7169964 107.8953563  31.3516755
  24.8481228 104.4536505  31.6908852  25.6212104 103.9065492  31.5521728
  25.2006627 105.3180755  31.9023313  26.6866271 105.7812888  44.8975751
  26.3956137 106.6858519  44.7822417  27.3223255 105.8229415  45.6119821
  27.6122478 103.1589736  41.4877111  28.2086050 102.9345759  40.7734074
  27.6697449 102.4174482  42.0902559  27.1847506 100.6129172  29.3227302
  27.4373027 100.0910693  28.5610765  26.2472065 100.4495317  29.4253985
  32.2290789  99.6164950  37.1302045  33.0153878  99.1984373  36.7792462
  32.4929493 100.5211042  37.2983693  32.4000866 105.0537800  31.8290702
  31.7646699 105.1272427  32.5411606  32.0698273 105.6431399  31.1509781
  37.6299216  99.5540183  38.0335023  38.3624388  98.9839400  38.2672853
  36.8738572  99.1661784  38.4741529  26.9043795 102.5157277  31.5251677
  26.7880053 101.8402181  32.1932761  27.0146055 102.0289651  30.7083830
  29.2475336 101.9767425  35.2298366  28.8833543 101.4498046  35.9411287
  30.1042452 101.5865894  35.0564851  35.1524636  93.2661757  42.4929632
  34.8207961  94.1357168  42.2690847  34.5570250  92.9498041  43.1723662
  28.8880823  97.0057324  30.2259714  29.0555225  97.8737561  30.5930185
  28.6977992  97.1684606  29.3021004  31.6456156 105.4674303  41.8925545
  31.3456879 106.3699342  41.7841352  31.3007215 105.2006486  42.7446698
  25.0968637 101.9188100  37.9262249  24.1719134 101.7864314  38.1339941
  25.3453051 102.6982319  38.4232192  35.0453300  97.9856843  39.5722982
  34.1370177  97.9172252  39.2781743  34.9940895  98.4628788  40.4004808
  28.8670044  99.4614982  31.2106381  28.7469669  99.9072033  32.0491862
  28.1722632  99.8100299  30.6519919  22.4577448 101.5621374  38.7606038
  22.5869830 101.8155853  39.6745450  21.7774900 102.1549082  38.4410693
  26.6276936 112.2318624  34.8596512  26.5500965 113.1826449  34.9384993
  26.0238579 111.8864496  35.5171439  29.1194165  99.4046489  47.5157879
  28.3427500  99.9640409  47.5060744  29.7584729  99.8903272  48.0372749
  36.9114946  96.1873282  41.3500856  36.2689326  96.4805815  40.7040651
  36.4069875  96.0726202  42.1554053  34.5655110  99.9336455  32.0386715
  35.4772966 100.1663842  31.8634413  34.0564757 100.5173499  31.4761794
  27.3740538 102.2131942  47.0775846  28.1155222 102.7516986  46.8010670
  26.6677523 102.8398231  47.2347398  32.8495877 104.3561083  45.6748008
  33.2579233 103.9143493  44.9302640  32.1273139 103.7813710  45.9282201
  29.2026947  99.2933690  43.0481565  30.0488143  99.7173103  43.1916214
  29.1425585  98.6367314  43.7420128  33.1724692 104.9162273  39.4300297
  32.5433555 105.0807988  38.7276365  32.7850354 105.3303883  40.2011261
  37.0513924 105.8516711  36.7844661  36.3664962 106.2315613  36.2341694
  37.1357773 106.4612038  37.5176608  32.3526393  96.9538058  44.7062738
  32.1087325  97.7080118  44.1697014  32.6286323  97.3323406  45.5409986
  34.3064856 103.4976670  43.3840004  34.5181751 104.1408430  42.7074385
  34.2594604 102.6638987  42.9161934  31.9091085  96.1094491  40.2876576
  31.0475564  96.4075744  40.5793314  31.9353519  96.3264890  39.3557609
  28.7252654 104.6536681  36.6950382  29.1890999 104.9324384  35.9055004
  28.4609452 103.7520126  36.5123473  25.6176735 104.2008163  39.6330145
  26.1878092 104.6295431  38.9947630  26.2084847 103.9190748  40.3314331
  27.6621540 100.7759834  33.5039947  28.3645583 101.2280878  33.9713873
  27.3302168 100.1343653  34.1319840  26.1101902  99.3671590  47.8791156
  25.4800562 100.0487871  48.1126553  26.0037989  99.2554672  46.9344295
  21.4046874  99.0343387  38.8057081  20.6145928  99.2900915  38.3297191
  21.8958121  99.8491724  38.9109121  35.4210684 106.3748626  41.5562361
  36.2428127 105.9728813  41.2745043  35.4173086 106.2716860  42.5078477
  23.3561619  99.3987966  35.7640557  22.5592783  99.5106660  36.2824053
  23.1287212  99.7374618  34.8981448  29.1867287 105.9232669  43.7123072
  29.2511719 106.3853076  44.5481244  28.4778211 105.2930034  43.8405382
  19.6884577  99.2873877  41.2372071  19.9392615 100.1720887  41.5029647
  20.2244125  99.1078479  40.4647163  43.5116677 102.7187374  37.9047333
  42.7580385 102.1494772  37.7491337  43.6464218 102.6850039  38.8517968
  28.9015305 107.5900776  33.5802052  28.7660979 108.4352312  34.0086900
  29.4425117 107.7920054  32.8167986  25.3882644  93.6692356  50.2416407
  24.9949590  93.1158555  50.9164052  26.2048785  93.9802935  50.6322925
  22.3544702 105.1076215  34.1529977  22.8669223 105.9019465  34.3035542
  23.0067415 104.4102505  34.0863579  24.1639587 108.2241971  36.2352730
  24.3406215 109.1459936  36.0473714  24.9596420 107.9100390  36.6647110
  28.3050605  95.0850235  47.8336664  29.0460319  95.6857389  47.7541126
  28.5368528  94.3427873  47.2754707  23.4491943 100.2706603  46.1114894
  23.3345458  99.3691860  46.4121993  22.5936461 100.5170299  45.7599710
  30.5283781 108.2124343  47.7102394  30.0847635 107.4260722  47.3923299
  31.1900995 108.4003494  47.0446285  25.2870902 109.7420145  42.2363073
  25.8378327 109.6137208  41.4640067  24.4482378 110.0415034  41.8857966
  32.6265019 108.4927143  45.7383796  32.6083494 109.3136024  45.2464065
  33.5484939 108.3681218  45.9633937  29.0838073 106.0071272  46.5807304
  29.6166410 105.2459561  46.3506612  28.5552154 105.7144924  47.3231458
  32.2507768  91.1131338  42.1100946  31.9072038  92.0032980  42.0340056
  32.6186731  90.9232996  41.2470531  20.3193619 103.4364869  34.9289548
  21.1568841 103.8461877  34.7123256  20.4971886 102.4964311  34.8989742
  32.2158051 101.1039949  30.6173381  31.7004674 101.8744554  30.8561768
  31.9435359 100.4305086  31.2406442  29.8005162  95.9489650  35.6758619
  28.9446758  95.5596501  35.4964258  30.2132114  96.0281611  34.8158405
  31.3304309  93.4835994  40.0750179  30.8269104  93.4466129  39.2617984
  31.6234915  94.3928736  40.1346836  27.5747194  93.5674723  39.0816361
  28.4400191  93.3717532  38.7222250  27.6424703  93.3385075  40.0085717
  37.1892325 103.8572304  32.5526554  36.4121768 103.5183464  32.1081716
  37.8683806 103.8624927  31.8781519  32.0044354  98.9767042  32.4433162
  31.6994490  99.2913191  33.2943305  32.9574796  99.0548461  32.4860495
  30.4490786 105.1357265  34.0926116  29.9212147 104.4010024  33.7799353
  29.9478289 105.9131941  33.8466084  35.4283632 103.3306285  39.2093162
  34.7707306 104.0205547  39.2973291  36.2324031 103.7202717  39.5527149
  25.1809514  95.7976931  36.4532727  25.7553265  95.5752113  35.7205920
  25.7680496  95.8665626  37.2061329  34.2389091 101.6850658  37.2597104
  34.7520972 102.3180650  37.7618814  34.8890315 101.0851854  36.8940464
  25.5079101  97.8281392  30.4728613  24.6716413  98.1656079  30.7937887
  25.3683870  97.6930372  29.5355750  27.4832181  92.6718180  35.1807797
  26.8296594  92.3567197  34.5564412  27.4412655  92.0493921  35.9067620
  28.5943386 102.9537475  27.0961089  27.6870448 102.7226729  27.2952238
  29.0914418 102.1575094  27.2835071  31.5011465 111.6634982  30.0157775
  30.8273164 111.9666679  30.6242733  31.8877287 112.4664063  29.6663232
  30.7169922  99.1600114  39.5055445  29.7992483  99.3815061  39.3477133
  31.1330065  99.2346424  38.6467152  31.5004969 100.5591529  34.6358125
  32.2476788 101.0712927  34.3265247  31.7696559 100.2375582  35.4962518
  29.7731620 103.0550070  31.6185079  28.8642839 102.7709103  31.7157549
  29.8026703 103.4749149  30.7588386  35.0050887 106.6656660  35.3876247
  34.5513214 105.8247569  35.4441437  34.3744854 107.3018058  35.7251027
  33.9483807  97.5948646  36.6176914  33.2106563  97.0826032  36.9487157
  34.2010580  97.1549027  35.8060191  33.4483826 108.5033156  36.3226065
  33.7406801 109.0638213  35.6038430  33.9582447 108.7961717  37.0779224
  34.0495434  90.3724898  37.2118683  34.3554311  89.5122261  36.9244598
  34.7748039  90.9642518  37.0117677  20.3419790 100.7755584  35.6000281
  20.1444190 100.1824945  34.8751348  19.7866454 100.4707794  36.3176220
  28.3216514 100.6678691  37.7194874  28.3765123  99.7152527  37.6437351
  27.5107716 100.8238130  38.2036173  29.4707707 104.5958814  28.9573158
  29.0327137 103.8794673  28.4978795  30.2118148 104.8234929  28.3958249
  26.2608873  99.2855750  35.4785253  25.4476739  99.5849921  35.8850445
  26.7567868  98.8911439  36.1959736  28.4117451 109.2813507  37.4119518
  28.3693630 109.5074354  36.4828050  29.3280150 109.0476882  37.5605319
  31.8583085  99.7497575  44.3100147  32.2132473  99.9769048  45.1694613
  32.5055216 100.0815952  43.6877402  37.5880822 102.8716011  35.0149476
  37.4498721 103.0617607  34.0870665  37.2317041 103.6335394  35.4717527
  25.7522948  96.8574106  41.0946488  26.3922328  96.7162865  40.3969452
  24.9200479  96.5708619  40.7185090  37.6150202 104.9392538  40.0260748
  38.0486708 104.8467827  40.8743802  38.3281782 104.9150038  39.3880764
  26.5283252 106.1576536  37.2081481  27.3223851 105.6626856  37.0064056
  25.8174945 105.6294399  36.8449186  31.3478097 108.5394632  41.5593848
  31.4015119 109.1085568  42.3271564  30.4792878 108.7096517  41.1947885
  22.8366016 100.3019618  33.2841233  21.9063604 100.2404074  33.5011196
  22.9323488  99.7795571  32.4877875  22.7551565  96.8274431  35.8719475
  23.0158382  97.7419764  35.7628636  23.5768737  96.3598873  36.0216088
  24.2276490  98.2412188  43.0418300  24.8999543  98.0329550  42.3930948
  23.4006277  98.0434274  42.6023532  38.4765751 104.9816238  42.5593633
  38.6701641 105.8862049  42.8052908  38.3766369 104.5223657  43.3932218
  30.1302062  94.8674129  45.0583960  29.4829977  95.5664079  44.9648437
  30.9003077  95.3010273  45.4260209  33.5380860 105.1322981  48.1334514
  33.3866366 104.9033533  47.2164597  33.5285539 106.0893583  48.1465859
  30.3066196 102.7054894  43.1180780  31.2358256 102.8566053  42.9449747
  29.8857226 102.7938915  42.2629427  29.1054528 106.7305558  40.8879318
  28.9665614 106.3624343  41.7605256  28.3169124 107.2453198  40.7163276
  29.7002680 111.8314655  32.2304854  29.8754436 111.3602698  33.0450477
  29.0135468 112.4580421  32.4586115  30.6559743 106.1087161  38.2768156
  30.3209576 106.0687931  39.1725805  30.1563689 105.4431877  37.8038566
  24.6303987 101.5154791  43.8020737  24.4923785 100.7835030  44.4032276
  25.5408911 101.4263691  43.5204924  33.5918935 103.4543195  28.5505215
  32.9748106 102.7290023  28.4538268  33.1235423 104.2152556  28.2072289
  27.2586288 101.2274750  43.2904416  27.9685906 100.5867943  43.2491035
  27.2155596 101.4787645  44.2130597  35.2473067 108.1642104  46.2110996
  35.1885613 107.4801324  45.5441579  35.6492585 108.9061094  45.7591622
  25.9715222  98.2139968  45.1100056  25.4352579  97.7630707  45.7621652
  25.3831930  98.3485877  44.3670520  24.2663765 114.9804018  39.0044714
  24.5060364 115.6122542  39.6823733  23.4232962 114.6292058  39.2910074
  25.3817481  97.6728620  27.6726520  24.5046947  97.5517420  27.3088766
  25.8575234  96.8814698  27.4205408  35.2490474 106.1281688  44.4424975
  34.3617253 105.7907609  44.5651374  35.8189025 105.3964719  44.6793741
  16.9019621 102.4605779  37.7668027  17.5890661 102.1467509  37.1789042
  16.7467750 103.3647144  37.4935278  21.7054343  97.3495976  42.1953050
  21.6212532  96.7421645  41.4603460  20.8837050  97.8404994  42.1962547
  28.7791627 110.7883140  41.4086218  28.7061799 111.5938111  41.9205523
  28.3369020 110.9875106  40.5834240  28.5681407 110.0254910  34.9189040
  27.7848929 110.5676590  35.0127265  29.2674152 110.5428890  35.3183281
  31.8778057  95.8349539  37.5623245  32.3746757  95.0819502  37.2424316
  31.1065039  95.8713856  36.9966455  39.7307814 101.5389905  39.2041537
  39.7197691 102.4214620  38.8335470  38.8625194 101.1861456  39.0096074
  31.2390311 110.6869974  43.5644377  31.9518283 111.3217439  43.4920279
  30.7480339 110.7833840  42.7484379  32.9607838 104.5921227  35.1361669
  32.0264116 104.7122689  34.9666373  33.1384506 103.6893693  34.8721679
  28.4613026  97.9766922  37.2894930  28.0910813  97.4237963  37.9775836
  28.9572118  97.3725056  36.7369930  36.3480389 100.4338546  35.6711703
  36.8140841 101.2666538  35.5972006  36.7987890  99.9683528  36.3756961
  26.2902224 108.4364417  44.3849948  26.9911684 109.0700900  44.5379342
  25.8197339 108.7779149  43.6245587  34.4156620 106.7782367  32.6697855
  34.6916464 106.6638962  33.5791729  33.5461119 106.3799852  32.6310028
  34.3197052  92.8019133  39.7102604  33.4060132  93.0323360  39.8784811
  34.7490153  92.8857577  40.5616637  34.0903510 100.9909025  42.2102498
  33.4374961 101.2384932  41.5554951  34.4683890 100.1773163  41.8764976
  31.0510684 111.0268718  36.3130669  31.2333079 110.2090374  36.7758421
  31.8743670 111.2436410  35.8755559  31.3852850 109.9536903  33.5745717
  31.9140616 109.4429358  32.9615879  31.6481069 109.6379433  34.4391250
  30.1391083 101.7328836  48.6968535  29.4631720 101.6322965  49.3670911
  30.9618717 101.5768050  49.1604533  21.8869942 107.9700773  41.3181051
  22.4723379 107.2244460  41.4508955  21.6894781 108.2804729  42.2017715
  24.7408598 111.0052020  36.3343493  24.0718973 111.4898148  35.8507533
  24.6021467 111.2521240  37.2486872  16.4787597 100.5406373  40.0385494
  16.5171697 100.0069963  40.8322612  15.9727890 100.0141578  39.4196471
  28.8813866 113.0395763  42.9326151  29.4332174 113.2027385  43.6975237
  29.2220060 113.6300201  42.2606176  23.8578359  95.3870913  43.5348036
  23.9219686  96.2485744  43.1225434  23.7945480  94.7744915  42.8020395
  23.3330632  97.4594046  47.1821070  23.9602671  97.0771123  47.7958595
  22.4758551  97.2408248  47.5476763  33.7324741 107.8657021  48.7874806
  34.2764645 108.4786979  48.2929761  33.1511585 108.4236599  49.3041819
  20.1096175  99.2670475  33.1139425  20.4049616  98.3581153  33.0606479
  19.2084210  99.2458214  32.7920428  32.0182253 110.9877739  39.9189834
  31.8933393 110.1867479  39.4100779  32.6761345 111.4823932  39.4303804
  23.6390422  97.3426471  39.0966974  22.9177007  97.9562439  38.9574447
  24.4283677  97.8784236  39.0183620  34.0817162 108.7886759  41.5469384
  33.1347497 108.6692110  41.4747710  34.4299935 107.9009257  41.6295645
  26.4416735  94.6780898  45.3707626  26.9651137  94.9243194  46.1333935
  26.2229069  95.5100933  44.9510763  21.8384016  96.9484573  33.2378750
  21.5096722  96.0681951  33.0553856  22.1923387  96.8932241  34.1255140
  31.0863595 108.5839475  37.7473736  30.9388558 107.6556183  37.9281306
  31.9117089 108.6059566  37.2630811  24.9525839  97.2357542  33.6054228
  25.2921912  97.7643464  32.8832836  25.3997960  97.5737948  34.3812795
  34.6897717 109.4068034  38.8338609  35.6144264 109.2010895  38.6963060
  34.5213020 109.1584435  39.7427950  27.6469280  95.6194593  43.0557296
  27.3066101  94.8202406  43.4577976  26.9408287  95.9196304  42.4834129
  28.2985752  92.7043905  41.5084619  29.1211821  92.2304384  41.3863509
  28.5423816  93.4834389  42.0083305  26.9393987  95.7332164  31.8047521
  27.6602349  96.1113417  31.3011238  26.3159291  96.4521041  31.9082499
  31.0825109  96.4377313  32.7405853  31.2988724  97.3201951  32.4394681
  30.6019177  96.0463526  32.0111495  25.8224331  99.3963026  39.3176598
  25.6768912  99.7103329  40.2100879  25.3449534 100.0147926  38.7647496
  27.6820714  96.3865574  39.3657487  27.6682282  95.4906667  39.0289785
  28.3993142  96.3936238  39.9995773  29.5346844  96.8202914  41.4110615
  29.2764622  97.7419985  41.4094945  29.0031885  96.4233349  42.1011079
  34.4793033 109.9253701  34.1900700  34.6529911 109.3600124  33.4374553
  34.9721924 110.7254596  34.0080190  20.2969993 101.9368371  42.2564259
  19.7523461 102.7128178  42.3884533  21.1749343 102.2839175  42.0983380
  27.0857610  95.2679954  34.6345057  27.2073521  94.3396601  34.8335945
  26.7959652  95.2818640  33.7223373  29.9548800  92.9534865  37.7711777
  29.9770497  93.0174198  36.8163757  30.3716859  92.1139373  37.9652283
  40.3332424 102.6890124  35.8091000  40.7763570 101.9397450  35.4110123
  39.4558935 102.6800261  35.4264732  35.4668206 109.2420466  31.2897598
  36.1619110 109.8627159  31.5084913  35.8091356 108.3915817  31.5649976
  21.0836015 101.0638267  45.1494416  20.3417751 101.2120902  45.7359046
  20.7628759 101.3246532  44.2861165  37.3659629 106.6920171  32.8184929
  37.8910953 107.0307444  32.0934249  37.2781981 105.7567187  32.6348064
  29.0279678 110.6054245  44.9474806  29.3366804 110.3603392  45.8197505
  29.8255160 110.8100883  44.4593676  29.0500290 112.7592155  37.1780182
  28.6105280 112.2668533  37.8713039  29.8008407 112.2165122  36.9372258
  21.5292629 108.9503696  37.1804810  22.3550648 108.6507467  36.8003454
  21.1786681 108.1811318  37.6294599  26.4974162 108.3030164  39.2502484
  25.8754171 107.6400869  38.9504712  27.1679029 108.3291296  38.5676132
  19.7301234 106.8690022  38.1393744  18.8933142 106.4412196  37.9577745
  19.7024879 107.0622465  39.0764535  26.5698689  96.7811952  48.8434990
  26.6186845  97.6574075  48.4612760  27.1121203  96.2389345  48.2706633
  37.0553535 107.3253075  48.1236127  36.2649079 107.3077214  47.5840626
  36.8186889 107.8641369  48.8785164  37.1751410 104.1745541  45.4368856
  37.2249415 104.0095549  46.3784378  37.0665333 103.3072800  45.0466736
  26.0587669 106.8534087  32.7260945  26.2075789 107.5369551  32.0727617
  26.8654112 106.8339177  33.2410400  34.4655172 100.1576469  46.7528162
  35.3665035 100.0182934  46.4612160  34.5403147 100.3230924  47.6926340
  28.7997978  97.5343324  45.5981349  27.9301287  97.8276890  45.3263937
  29.0357458  98.1183769  46.3188612  38.6769607 106.5942483  45.6810877
  38.3854415 106.9572463  46.5174338  38.0641738 105.8809491  45.5024209
  39.8765289 104.1595363  38.2013447  40.7112180 104.5985167  38.3651008
  40.0124418 103.6834016  37.3821693  36.9256795 101.7175098  44.1490935
  37.4010917 101.9102744  43.3409787  36.0022360 101.7734283  43.9034319
  23.8140302 102.8799265  33.7322013  23.5686344 101.9761595  33.9302224
  23.9836216 102.8816415  32.7901491  31.5037011  93.7522941  43.1146769
  32.0218955  94.4883968  42.7893258  31.1492144  94.0586934  43.9493528
  23.0835949  98.6127622  31.2308175  22.3905194  98.6871977  30.5748211
  22.8387701  97.8487966  31.7529692  31.7549606  90.1723224  38.6347666
  32.0351359  89.5046413  39.2608092  32.5400213  90.3652319  38.1222329
  29.5583074 109.3482218  30.1972692  28.9857041 109.9672405  29.7443164
  30.1315868 109.8981579  30.7312614  35.6258464  98.5940858  42.3819241
  36.5775887  98.6938955  42.4031465  35.4561914  97.8019126  42.8917325
  33.6472843  95.6796441  42.5678642  33.0522776  95.9601454  41.8725130
  33.3622540  96.1690342  43.3395383  32.7780334 109.6319368  31.3281274
  33.7111007 109.5664929  31.5314150  32.6903547 110.4675635  30.8695807
  35.4068351 108.9485238  28.2885222  35.3281982 108.6145102  29.1820980
  36.2278017 109.4407006  28.2876694  38.1046542 101.8146977  41.4961540
  38.0722862 100.8762978  41.6821224  38.7147165 101.8931014  40.7627365
  29.9429873 100.6843030  27.5388744  30.8888977 100.5549238  27.6077162
  29.5644118  99.9457692  28.0158173  38.2541030  98.6058021  41.5419824
  37.7380079  97.8216477  41.3549752  39.1380979  98.2776737  41.7066343
  35.9151757  92.3499036  37.5015636  35.7176578  92.0414124  38.3858968
  36.5251463  93.0760675  37.6313566  43.9223092 102.8762984  40.6367577
  44.6526480 102.6148272  41.1975281  43.3130037 102.1391706  40.6769645
  42.0038389 101.0170847  41.2342028  41.2771552 100.8826812  40.6258520
  41.5885676 101.3247675  42.0398746  29.8268565 104.7360776  48.9989401
  30.7471575 104.9139375  49.1929448  29.7918148 103.7916822  48.8469101
  28.1272790  98.6093007  27.4743630  27.2204245  98.3126119  27.5506343
  28.4048771  98.3122825  26.6077916  19.0450730  99.9299370  37.9242676
  18.7253515  99.0764678  37.6317050  18.4984158 100.1447948  38.6800643
  22.8230638 102.6461811  41.6412183  23.0416648 103.5778919  41.6600216
  23.2356412 102.2869785  42.4266986  29.7434856  93.1529896  33.6287871
  28.9335584  92.8076981  34.0043117  30.4319272  92.8437440  34.2175483
  31.6725404  92.2307943  35.2512168  32.2256442  92.6503397  35.9102191
  31.9095490  91.3043691  35.2935124  27.6958503  98.2195017  51.0314931
  27.5955230  99.1689374  50.9627023  27.4780045  97.8913256  50.1591002
  26.8971574  95.4679942  27.6155609  27.7590738  95.7934840  27.8751426
  27.0821919  94.6811438  27.1028675  18.9138990 103.5502282  39.8935798
  18.2202462 103.1356234  39.3805752  19.6611981 103.5922818  39.2969217
  35.0504211  94.3408468  34.7590832  34.4702880  94.9993272  34.3768884
  34.7840144  93.5185813  34.3478249  33.5007777  93.7413526  36.9612152
  34.0007556  93.8530061  36.1526471  34.1443385  93.4374579  37.6012961
  27.5589773 101.6492156  49.8479993  27.0756855 102.4492516  50.0543882
  27.6450712 101.6600101  48.8947437  20.8275733 103.4820535  37.7701813
  20.8046421 103.5808223  36.8183696  21.1376369 104.3285686  38.0918979
  23.4863111 105.5396690  41.8848427  24.4406364 105.5080633  41.8178358
  23.2875634 105.0787314  42.6998653  24.0762493 104.1097806  44.4519225
  24.8955382 104.6041885  44.4754062  24.3499300 103.1929775  44.4236792
  33.8329089  96.5008559  33.8147180  32.9454944  96.7858209  33.5967375
  34.2483078  96.3402322  32.9674457  37.1843625  96.5255080  37.5301519
  37.9604015  97.0151532  37.8026136  36.4591759  96.9513134  37.9873389
  39.6216184  97.2382699  38.5875460  40.2160674  96.9978435  37.8768768
  39.6942767  96.5189829  39.2148996  21.8413339 111.0816310  38.9018625
  21.7067807 110.3216711  38.3356623  21.4245402 111.8057210  38.4347414
  32.9772302 106.2653233  27.9095200  33.6808153 106.4703236  28.5252856
  32.2534951 106.8329995  28.1744284  33.8070113 102.0163095  34.0297470
  33.7505314 102.4731646  33.1905103  34.3598455 101.2553779  33.8520313
  37.6174919  97.8052827  34.8547590  37.3611853  97.4049462  35.6855797
  36.9927787  98.5196620  34.7297729  41.9287256 100.5448900  37.3618881
  41.3686814 100.6142089  38.1350443  41.3230760 100.3689884  36.6418377
  24.9982465 111.9785627  39.1137067  24.8814849 112.9231059  39.0115758
  24.1774912 111.6759188  39.5022867  34.8859000 106.7035763  29.9593660
  35.7204604 106.2716961  29.7771135  34.7243343 106.5317776  30.8870555
  34.5404892 103.2067876  31.3249999  34.4853696 103.0412147  30.3838444
  33.9150947 103.9143909  31.4812189  19.3297407  98.4435940  45.1511422
  19.9756271  97.9334894  45.6398647  19.1214558  99.1804622  45.7254847
  31.8550799 105.5116788  50.6503562  32.7241959 105.6857440  50.2890197
  31.3757551 106.3311205  50.5279292  27.8501017  92.7075985  30.9035318
  27.8379687  93.6517825  31.0603589  28.7424439  92.5246130  30.6094779
  26.0236979 112.6313889  42.3292996  26.9264226 112.6637499  42.6459491
  25.7974349 111.7014340  42.3439332  27.7790581 111.3844875  38.9903074
  26.8286212 111.3846737  38.8767447  28.0823068 110.6377610  38.4739109
  31.6653137  89.3018762  35.1581255  30.8985533  88.7477248  35.3037937
  32.0763842  89.3740630  36.0195406  23.6694898  95.5903557  49.2486436
  24.5326360  95.2340362  49.4589760  23.0960309  95.2517452  49.9361840
  43.5143275 117.2205414  40.0548837  44.1521685 117.1012161  39.3512177
  43.3964118 118.1686258  40.1136789  40.3232981 117.1732842  39.9910362
  39.9851493 117.0573907  39.1030896  41.1922749 116.7724007  39.9711368
  36.1819797 119.0268318  35.9807253  35.6184662 118.9358255  35.2123540
  36.0672192 118.2068223  36.4609745  40.8052764 118.3267694  45.9496567
  40.7941405 117.9320492  45.0777071  40.9673404 117.5933766  46.5430339
  33.7284229 120.5219510  38.8191473  34.5205521 120.1810334  38.4037772
  33.9680879 120.6314485  39.7393626  41.7619356 122.6939286  31.2921717
  41.1107335 123.2793366  30.9055731  42.5563718 123.2245481  31.3516755
  35.6874983 119.7828423  31.6908852  36.4605859 119.2357410  31.5521728
  36.0400382 120.6472672  31.9023313  37.5260025 121.1104805  44.8975751
  37.2349891 122.0150436  44.7822417  38.1617010 121.1521333  45.6119821
  38.4516232 118.4881654  41.4877111  39.0479804 118.2637676  40.7734074
  38.5091204 117.7466399  42.0902559  38.0241261 115.9421089  29.3227302
  38.2766781 115.4202610  28.5610765  37.0865820 115.7787235  29.4253985
  43.0684543 114.9456868  37.1302045  43.8547633 114.5276291  36.7792462
  43.3323248 115.8502960  37.2983693  43.2394621 120.3829718  31.8290702
  42.6040454 120.4564344  32.5411606  42.9092027 120.9723317  31.1509781
  48.4692971 114.8832101  38.0335023  49.2018142 114.3131318  38.2672853
  47.7132326 114.4953701  38.4741529  37.7437549 117.8449195  31.5251677
  37.6273807 117.1694099  32.1932761  37.8539809 117.3581569  30.7083830
  40.0869090 117.3059342  35.2298366  39.7227297 116.7789963  35.9411287
  40.9436206 116.9157811  35.0564851  45.9918391 108.5953675  42.4929632
  45.6601716 109.4649086  42.2690847  45.3964004 108.2789959  43.1723662
  39.7274577 112.3349242  30.2259714  39.8948980 113.2029478  30.5930185
  39.5371746 112.4976524  29.3021004  42.4849910 120.7966221  41.8925545
  42.1850633 121.6991260  41.7841352  42.1400970 120.5298404  42.7446698
  35.9362392 117.2480018  37.9262249  35.0112888 117.1156232  38.1339941
  36.1846805 118.0274237  38.4232192  45.8847054 113.3148761  39.5722982
  44.9763932 113.2464169  39.2781743  45.8334650 113.7920706  40.4004808
  39.7063798 114.7906899  31.2106381  39.5863423 115.2363950  32.0491862
  39.0116386 115.1392217  30.6519919  33.2971203 116.8913291  38.7606038
  33.4263584 117.1447770  39.6745450  32.6168654 117.4840999  38.4410693
  37.4670690 127.5610541  34.8596512  37.3894720 128.5118366  34.9384993
  36.8632334 127.2156414  35.5171439  39.9587920 114.7338407  47.5157879
  39.1821254 115.2932327  47.5060744  40.5978483 115.2195190  48.0372749
  47.7508701 111.5165199  41.3500856  47.1083081 111.8097733  40.7040651
  47.2463629 111.4018120  42.1554053  45.4048864 115.2628373  32.0386715
  46.3166720 115.4955759  31.8634413  44.8958511 115.8465417  31.4761794
  38.2134292 117.5423860  47.0775846  38.9548977 118.0808904  46.8010670
  37.5071278 118.1690149  47.2347398  43.6889632 119.6853000  45.6748008
  44.0972988 119.2435411  44.9302640  42.9666893 119.1105628  45.9282201
  40.0420702 114.6225607  43.0481565  40.8881897 115.0465021  43.1916214
  39.9819340 113.9659232  43.7420128  44.0118447 120.2454191  39.4300297
  43.3827309 120.4099905  38.7276365  43.6244109 120.6595801  40.2011261
  47.8907678 121.1808629  36.7844661  47.2058717 121.5607530  36.2341694
  47.9751528 121.7903956  37.5176608  43.1920147 112.2829976  44.7062738
  42.9481079 113.0372036  44.1697014  43.4680078 112.6615323  45.5409986
  45.1458610 118.8268588  43.3840004  45.3575505 119.4700348  42.7074385
  45.0988358 117.9930905  42.9161934  42.7484839 111.4386409  40.2876576
  41.8869318 111.7367662  40.5793314  42.7747274 111.6556808  39.3557609
  39.5646408 119.9828599  36.6950382  40.0284754 120.2616302  35.9055004
  39.3003207 119.0812044  36.5123473  36.4570489 119.5300081  39.6330145
  37.0271847 119.9587349  38.9947630  37.0478601 119.2482665  40.3314331
  38.5015294 116.1051752  33.5039947  39.2039338 116.5572795  33.9713873
  38.1695923 115.4635570  34.1319840  36.9495656 114.6963508  47.8791156
  36.3194317 115.3779789  48.1126553  36.8431744 114.5846590  46.9344295
  32.2440628 114.3635304  38.8057081  31.4539682 114.6192833  38.3297191
  32.7351876 115.1783642  38.9109121  46.2604438 121.7040543  41.5562361
  47.0821882 121.3020731  41.2745043  46.2566841 121.6008778  42.5078477
  34.1955374 114.7279883  35.7640557  33.3986537 114.8398578  36.2824053
  33.9680966 115.0666536  34.8981448  40.0261041 121.2524587  43.7123072
  40.0905474 121.7144994  44.5481244  39.3171965 120.6221952  43.8405382
  30.5278331 114.6165795  41.2372071  30.7786370 115.5012805  41.5029647
  31.0637880 114.4370396  40.4647163  54.3510431 118.0479292  37.9047333
  53.5974139 117.4786690  37.7491337  54.4857972 118.0141956  38.8517968
  39.7409059 122.9192694  33.5802052  39.6054734 123.7644230  34.0086900
  40.2818872 123.1211972  32.8167986  36.2276399 108.9984274  50.2416407
  35.8343344 108.4450473  50.9164052  37.0442539 109.3094852  50.6322925
  33.1938456 120.4368132  34.1529977  33.7062977 121.2311382  34.3035542
  33.8461169 119.7394423  34.0863579  35.0033341 123.5533888  36.2352730
  35.1799970 124.4751853  36.0473714  35.7990175 123.2392308  36.6647110
  39.1444360 110.4142153  47.8336664  39.8854073 111.0149306  47.7541126
  39.3762283 109.6719791  47.2754707  34.2885698 115.5998520  46.1114894
  34.1739213 114.6983778  46.4121993  33.4330215 115.8462217  45.7599710
  41.3677535 123.5416261  47.7102394  40.9241390 122.7552639  47.3923299
  42.0294749 123.7295411  47.0446285  36.1264657 125.0712062  42.2363073
  36.6772082 124.9429126  41.4640067  35.2876133 125.3706951  41.8857966
  43.4658774 123.8219061  45.7383796  43.4477249 124.6427942  45.2464065
  44.3878694 123.6973136  45.9633937  39.9231828 121.3363190  46.5807304
  40.4560165 120.5751478  46.3506612  39.3945909 121.0436842  47.3231458
  43.0901523 106.4423256  42.1100946  42.7465792 107.3324898  42.0340056
  43.4580485 106.2524914  41.2470531  31.1587373 118.7656787  34.9289548
  31.9962595 119.1753795  34.7123256  31.3365641 117.8256229  34.8989742
  43.0551805 116.4331867  30.6173381  42.5398429 117.2036472  30.8561768
  42.7829114 115.7597003  31.2406442  40.6398916 111.2781568  35.6758619
  39.7840513 110.8888418  35.4964258  41.0525868 111.3573529  34.8158405
  42.1698063 108.8127911  40.0750179  41.6662859 108.7758046  39.2617984
  42.4628670 109.7220654  40.1346836  38.4140949 108.8966641  39.0816361
  39.2793946 108.7009450  38.7222250  38.4818458 108.6676993  40.0085717
  48.0286080 119.1864222  32.5526554  47.2515522 118.8475381  32.1081716
  48.7077560 119.1916845  31.8781519  42.8438109 114.3058959  32.4433162
  42.5388244 114.6205108  33.2943305  43.7968551 114.3840379  32.4860495
  41.2884540 120.4649183  34.0926116  40.7605902 119.7301942  33.7799353
  40.7872043 121.2423859  33.8466084  46.2677386 118.6598203  39.2093162
  45.6101061 119.3497464  39.2973291  47.0717786 119.0494635  39.5527149
  36.0203268 111.1268849  36.4532727  36.5947020 110.9044030  35.7205920
  36.6074250 111.1957543  37.2061329  45.0782845 117.0142576  37.2597104
  45.5914727 117.6472568  37.7618814  45.7284069 116.4143771  36.8940464
  36.3472855 113.1573310  30.4728613  35.5110167 113.4947996  30.7937887
  36.2077625 113.0222290  29.5355750  38.3225936 108.0010098  35.1807797
  37.6690348 107.6859115  34.5564412  38.2806410 107.3785838  35.9067620
  39.4337141 118.2829393  27.0961089  38.5264202 118.0518646  27.2952238
  39.9308173 117.4867012  27.2835071  42.3405219 126.9926900  30.0157775
  41.6666918 127.2958597  30.6242733  42.7271041 127.7955980  29.6663232
  41.5563676 114.4892031  39.5055445  40.6386237 114.7106978  39.3477133
  41.9723820 114.5638342  38.6467152  42.3398724 115.8883447  34.6358125
  43.0870543 116.4004844  34.3265247  42.6090313 115.5667500  35.4962518
  40.6125374 118.3841988  31.6185079  39.7036593 118.1001021  31.7157549
  40.6420458 118.8041066  30.7588386  45.8444641 121.9948577  35.3876247
  45.3906969 121.1539487  35.4441437  45.2138608 122.6309976  35.7251027
  44.7877561 112.9240563  36.6176914  44.0500318 112.4117949  36.9487157
  45.0404335 112.4840945  35.8060191  44.2877581 123.8325074  36.3226065
  44.5800555 124.3930131  35.6038430  44.7976201 124.1253635  37.0779224
  44.8889188 105.7016815  37.2118683  45.1948065 104.8414179  36.9244598
  45.6141793 106.2934435  37.0117677  31.1813544 116.1047502  35.6000281
  30.9837944 115.5116863  34.8751348  30.6260208 115.7999712  36.3176220
  39.1610268 115.9970608  37.7194874  39.2158878 115.0444445  37.6437351
  38.3501470 116.1530047  38.2036173  40.3101462 119.9250731  28.9573158
  39.8720892 119.2086590  28.4978795  41.0511903 120.1526846  28.3958249
  37.1002628 114.6147668  35.4785253  36.2870494 114.9141839  35.8850445
  37.5961622 114.2203357  36.1959736  39.2511206 124.6105425  37.4119518
  39.2087385 124.8366271  36.4828050  40.1673905 124.3768800  37.5605319
  42.6976840 115.0789493  44.3100147  43.0526227 115.3060966  45.1694613
  43.3448971 115.4107869  43.6877402  48.4274577 118.2007928  35.0149476
  48.2892475 118.3909524  34.0870665  48.0710795 118.9627311  35.4717527
  36.5916703 112.1866024  41.0946488  37.2316082 112.0454783  40.3969452
  35.7594233 111.9000537  40.7185090  48.4543956 120.2684455  40.0260748
  48.8880463 120.1759745  40.8743802  49.1675537 120.2441956  39.3880764
  37.3677007 121.4868454  37.2081481  38.1617605 120.9918774  37.0064056
  36.6568699 120.9586317  36.8449186  42.1871851 123.8686550  41.5593848
  42.2408873 124.4377486  42.3271564  41.3186632 124.0388435  41.1947885
  33.6759770 115.6311536  33.2841233  32.7457358 115.5695991  33.5011196
  33.7717242 115.1087488  32.4877875  33.5945319 112.1566349  35.8719475
  33.8552136 113.0711682  35.7628636  34.4162491 111.6890791  36.0216088
  35.0670245 113.5704106  43.0418300  35.7393298 113.3621468  42.3930948
  34.2400031 113.3726192  42.6023532  49.3159506 120.3108156  42.5593633
  49.5095396 121.2153967  42.8052908  49.2160124 119.8515575  43.3932218
  40.9695817 110.1966047  45.0583960  40.3223732 110.8955996  44.9648437
  41.7396832 110.6302191  45.4260209  44.3774614 120.4614899  48.1334514
  44.2260121 120.2325451  47.2164597  44.3679294 121.4185500  48.1465859
  41.1459951 118.0346812  43.1180780  42.0752011 118.1857971  42.9449747
  40.7250981 118.1230832  42.2629427  39.9448283 122.0597476  40.8879318
  39.8059368 121.6916260  41.7605256  39.1562879 122.5745115  40.7163276
  40.5396435 127.1606572  32.2304854  40.7148190 126.6894616  33.0450477
  39.8529223 127.7872339  32.4586115  41.4953498 121.4379079  38.2768156
  41.1603330 121.3979849  39.1725805  40.9957443 120.7723795  37.8038566
  35.4697742 116.8446709  43.8020737  35.3317540 116.1126948  44.4032276
  36.3802665 116.7555609  43.5204924  44.4312689 118.7835113  28.5505215
  43.8141860 118.0581941  28.4538268  43.9629178 119.5444473  28.2072289
  38.0980042 116.5566668  43.2904416  38.8079661 115.9159860  43.2491035
  38.0549351 116.8079563  44.2130597  46.0866821 123.4934021  46.2110996
  46.0279367 122.8093241  45.5441579  46.4886339 124.2353011  45.7591622
  36.8108976 113.5431886  45.1100056  36.2746333 113.0922624  45.7621652
  36.2225685 113.6777795  44.3670520  35.1057520 130.3095935  39.0044714
  35.3454118 130.9414459  39.6823733  34.2626716 129.9583975  39.2910074
  36.2211235 113.0020537  27.6726520  35.3440702 112.8809338  27.3088766
  36.6968988 112.2106616  27.4205408  46.0884228 121.4573605  44.4424975
  45.2011007 121.1199527  44.5651374  46.6582779 120.7256637  44.6793741
  27.7413375 117.7897697  37.7668027  28.4284415 117.4759427  37.1789042
  27.5861504 118.6939062  37.4935278  32.5448098 112.6787894  42.1953050
  32.4606286 112.0713563  41.4603460  31.7230804 113.1696912  42.1962547
  39.6185382 126.1175058  41.4086218  39.5455553 126.9230029  41.9205523
  39.1762775 126.3167023  40.5834240  39.4075161 125.3546828  34.9189040
  38.6242683 125.8968508  35.0127265  40.1067907 125.8720807  35.3183281
  42.7171811 111.1641457  37.5623245  43.2140511 110.4111419  37.2424316
  41.9458793 111.2005774  36.9966455  50.5701569 116.8681823  39.2041537
  50.5591445 117.7506538  38.8335470  49.7018948 116.5153373  39.0096074
  42.0784065 126.0161892  43.5644377  42.7912037 126.6509357  43.4920279
  41.5874094 126.1125758  42.7484379  43.8001592 119.9213144  35.1361669
  42.8657871 120.0414607  34.9666373  43.9778261 119.0185611  34.8721679
  39.3006780 113.3058840  37.2894930  38.9304568 112.7529881  37.9775836
  39.7965873 112.7016974  36.7369930  47.1874144 115.7630464  35.6711703
  47.6534596 116.5958455  35.5972006  47.6381644 115.2975445  36.3756961
  37.1295979 123.7656335  44.3849948  37.8305438 124.3992818  44.5379342
  36.6591094 124.1071067  43.6245587  45.2550375 122.1074285  32.6697855
  45.5310219 121.9930880  33.5791729  44.3854873 121.7091770  32.6310028
  45.1590806 108.1311051  39.7102604  44.2453886 108.3615277  39.8784811
  45.5883908 108.2149495  40.5616637  44.9297265 116.3200943  42.2102498
  44.2768715 116.5676850  41.5554951  45.3077645 115.5065081  41.8764976
  41.8904439 126.3560636  36.3130669  42.0726833 125.5382292  36.7758421
  42.7137425 126.5728328  35.8755559  42.2246604 125.2828821  33.5745717
  42.7534371 124.7721275  32.9615879  42.4874824 124.9671351  34.4391250
  40.9784838 117.0620754  48.6968535  40.3025475 116.9614883  49.3670911
  41.8012472 116.9059967  49.1604533  32.7263697 123.2992690  41.3181051
  33.3117134 122.5536378  41.4508955  32.5288535 123.6096647  42.2017715
  35.5802352 126.3343938  36.3343493  34.9112727 126.8190065  35.8507533
  35.4415222 126.5813158  37.2486872  27.3181352 115.8698290  40.0385494
  27.3565451 115.3361881  40.8322612  26.8121644 115.3433496  39.4196471
  39.7207621 128.3687681  42.9326151  40.2725929 128.5319303  43.6975237
  40.0613814 128.9592119  42.2606176  34.6972114 110.7162831  43.5348036
  34.7613440 111.5777662  43.1225434  34.6339234 110.1036833  42.8020395
  34.1724386 112.7885963  47.1821070  34.7996425 112.4063041  47.7958595
  33.3152305 112.5700165  47.5476763  44.5718495 123.1948939  48.7874806
  45.1158399 123.8078897  48.2929761  43.9905340 123.7528517  49.3041819
  30.9489929 114.5962393  33.1139425  31.2443370 113.6873071  33.0606479
  30.0477965 114.5750132  32.7920428  42.8576008 126.3169657  39.9189834
  42.7327147 125.5159396  39.4100779  43.5155099 126.8115850  39.4303804
  34.4784176 112.6718389  39.0966974  33.7570762 113.2854357  38.9574447
  35.2677432 113.2076154  39.0183620  44.9210916 124.1178677  41.5469384
  43.9741252 123.9984028  41.4747710  45.2693689 123.2301175  41.6295645
  37.2810490 110.0072816  45.3707626  37.8044892 110.2535112  46.1333935
  37.0622823 110.8392850  44.9510763  32.6777771 112.2776490  33.2378750
  32.3490477 111.3973869  33.0553856  33.0317141 112.2224159  34.1255140
  41.9257350 123.9131393  37.7473736  41.7782312 122.9848100  37.9281306
  42.7510843 123.9351484  37.2630811  35.7919594 112.5649460  33.6054228
  36.1315666 113.0935381  32.8832836  36.2391714 112.9029866  34.3812795
  45.5291471 124.7359952  38.8338609  46.4538019 124.5302813  38.6963060
  45.3606775 124.4876353  39.7427950  38.4863035 110.9486511  43.0557296
  38.1459855 110.1494324  43.4577976  37.7802041 111.2488222  42.4834129
  39.1379507 108.0335823  41.5084619  39.9605576 107.5596301  41.3863509
  39.3817570 108.8126307  42.0083305  37.7787741 111.0624082  31.8047521
  38.4996104 111.4405334  31.3011238  37.1553045 111.7812958  31.9082499
  41.9218864 111.7669231  32.7405853  42.1382478 112.6493868  32.4394681
  41.4412931 111.3755444  32.0111495  36.6618085 114.7254944  39.3176598
  36.5162666 115.0395247  40.2100879  36.1843289 115.3439844  38.7647496
  38.5214468 111.7157492  39.3657487  38.5076037 110.8198585  39.0289785
  39.2386896 111.7228156  39.9995773  40.3740599 112.1494832  41.4110615
  40.1158377 113.0711903  41.4094945  39.8425639 111.7525267  42.1011079
  45.3186788 125.2545619  34.1900700  45.4923665 124.6892042  33.4374553
  45.8115679 126.0546514  34.0080190  31.1363748 117.2660288  42.2564259
  30.5917216 118.0420096  42.3884533  32.0143097 117.6131093  42.0983380
  37.9251364 110.5971872  34.6345057  38.0467275 109.6688518  34.8335945
  37.6353407 110.6110558  33.7223373  40.7942555 108.2826783  37.7711777
  40.8164251 108.3466116  36.8163757  41.2110614 107.4431291  37.9652283
  51.1726179 118.0182042  35.8091000  51.6157325 117.2689367  35.4110123
  50.2952689 118.0092178  35.4264732  46.3061960 124.5712384  31.2897598
  47.0012865 125.1919076  31.5084913  46.6485110 123.7207735  31.5649976
  31.9229769 116.3930184  45.1494416  31.1811505 116.5412820  45.7359046
  31.6022514 116.6538450  44.2861165  48.2053383 122.0212089  32.8184929
  48.7304707 122.3599362  32.0934249  48.1175736 121.0859104  32.6348064
  39.8673432 125.9346163  44.9474806  40.1760558 125.6895309  45.8197505
  40.6648914 126.1392801  44.4593676  39.8894044 128.0884072  37.1780182
  39.4499034 127.5960451  37.8713039  40.6402161 127.5457040  36.9372258
  32.3686383 124.2795613  37.1804810  33.1944403 123.9799385  36.8003454
  32.0180435 123.5103236  37.6294599  37.3367916 123.6322081  39.2502484
  36.7147925 122.9692786  38.9504712  38.0072783 123.6583213  38.5676132
  30.5694988 122.1981940  38.1393744  29.7326896 121.7704114  37.9577745
  30.5418634 122.3914383  39.0764535  37.4092444 112.1103869  48.8434990
  37.4580599 112.9865992  48.4612760  37.9514958 111.5681262  48.2706633
  47.8947289 122.6544993  48.1236127  47.1042833 122.6369132  47.5840626
  47.6580644 123.1933286  48.8785164  48.0145164 119.5037459  45.4368856
  48.0643169 119.3387467  46.3784378  47.9059088 118.6364718  45.0466736
  36.8981423 122.1826005  32.7260945  37.0469543 122.8661469  32.0727617
  37.7047867 122.1631095  33.2410400  45.3048927 115.4868387  46.7528162
  46.2058790 115.3474852  46.4612160  45.3796901 115.6522842  47.6926340
  39.6391732 112.8635242  45.5981349  38.7695042 113.1568808  45.3263937
  39.8751213 113.4475687  46.3188612  49.5163361 121.9234401  45.6810877
  49.2248170 122.2864381  46.5174338  48.9035493 121.2101409  45.5024209
  50.7159044 119.4887280  38.2013447  51.5505935 119.9277084  38.3651008
  50.8518172 119.0125934  37.3821693  47.7650549 117.0467015  44.1490935
  48.2404671 117.2394662  43.3409787  46.8416115 117.1026201  43.9034319
  34.6534056 118.2091182  33.7322013  34.4080098 117.3053512  33.9302224
  34.8229971 118.2108333  32.7901491  42.3430766 109.0814859  43.1146769
  42.8612710 109.8175886  42.7893258  41.9885899 109.3878852  43.9493528
  33.9229704 113.9419540  31.2308175  33.2298949 114.0163895  30.5748211
  33.6781456 113.1779884  31.7529692  42.5943360 105.5015141  38.6347666
  42.8745114 104.8338330  39.2608092  43.3793967 105.6944237  38.1222329
  40.3976829 124.6774135  30.1972692  39.8250796 125.2964322  29.7443164
  40.9709622 125.2273497  30.7312614  46.4652218 113.9232775  42.3819241
  47.4169641 114.0230873  42.4031465  46.2955669 113.1311044  42.8917325
  44.4866598 111.0088359  42.5678642  43.8916530 111.2893371  41.8725130
  44.2016295 111.4982259  43.3395383  43.6174088 124.9611285  31.3281274
  44.5504762 124.8956847  31.5314150  43.5297301 125.7967552  30.8695807
  46.2462105 124.2777156  28.2885222  46.1675737 123.9437019  29.1820980
  47.0671772 124.7698924  28.2876694  48.9440296 117.1438895  41.4961540
  48.9116616 116.2054896  41.6821224  49.5540920 117.2222932  40.7627365
  40.7823627 116.0134948  27.5388744  41.7282732 115.8841156  27.6077162
  40.4037872 115.2749610  28.0158173  49.0934785 113.9349938  41.5419824
  48.5773833 113.1508395  41.3549752  49.9774733 113.6068655  41.7066343
  46.7545512 107.6790954  37.5015636  46.5570333 107.3706042  38.3858968
  47.3645217 108.4052593  37.6313566  54.7616846 118.2054902  40.6367577
  55.4920235 117.9440190  41.1975281  54.1523792 117.4683624  40.6769645
  52.8432143 116.3462764  41.2342028  52.1165307 116.2118729  40.6258520
  52.4279430 116.6539593  42.0398746  40.6662320 120.0652694  48.9989401
  41.5865329 120.2431293  49.1929448  40.6311903 119.1208739  48.8469101
  38.9666544 113.9384924  27.4743630  38.0598000 113.6418037  27.5506343
  39.2442525 113.6414742  26.6077916  29.8844485 115.2591288  37.9242676
  29.5647269 114.4056596  37.6317050  29.3377913 115.4739866  38.6800643
  33.6624392 117.9753729  41.6412183  33.8810402 118.9070837  41.6600216
  34.0750166 117.6161703  42.4266986  40.5828610 108.4821814  33.6287871
  39.7729338 108.1368899  34.0043117  41.2713027 108.1729358  34.2175483
  42.5119158 107.5599861  35.2512168  43.0650197 107.9795314  35.9102191
  42.7489245 106.6335609  35.2935124  38.5352258 113.5486935  51.0314931
  38.4348984 114.4981291  50.9627023  38.3173800 113.2205173  50.1591002
  37.7365329 110.7971860  27.6155609  38.5984493 111.1226758  27.8751426
  37.9215673 110.0103355  27.1028675  29.7532745 118.8794199  39.8935798
  29.0596216 118.4648152  39.3805752  30.5005736 118.9214736  39.2969217
  45.8897965 109.6700386  34.7590832  45.3096634 110.3285190  34.3768884
  45.6233898 108.8477731  34.3478249  44.3401532 109.0705444  36.9612152
  44.8401310 109.1821978  36.1526471  44.9837140 108.7666497  37.6012961
  38.3983528 116.9784073  49.8479993  37.9150609 117.7784433  50.0543882
  38.4844467 116.9892018  48.8947437  31.6669487 118.8112453  37.7701813
  31.6440175 118.9100140  36.8183696  31.9770124 119.6577604  38.0918979
  34.3256865 120.8688608  41.8848427  35.2800119 120.8372550  41.8178358
  34.1269389 120.4079232  42.6998653  34.9156247 119.4389724  44.4519225
  35.7349136 119.9333803  44.4754062  35.1893055 118.5221692  44.4236792
  44.6722843 111.8300476  33.8147180  43.7848698 112.1150127  33.5967375
  45.0876832 111.6694240  32.9674457  48.0237380 111.8546997  37.5301519
  48.7997770 112.3443450  37.8026136  47.2985514 112.2805052  37.9873389
  50.4609938 112.5674617  38.5875460  51.0554429 112.3270353  37.8768768
  50.5336522 111.8481747  39.2148996  32.6807094 126.4108228  38.9018625
  32.5461562 125.6508628  38.3356623  32.2639156 127.1349127  38.4347414
  43.8166057 121.5945151  27.9095200  44.5201907 121.7995154  28.5252856
  43.0928706 122.1621913  28.1744284  44.6463867 117.3455012  34.0297470
  44.5899069 117.8023564  33.1905103  45.1992210 116.5845697  33.8520313
  48.4568673 113.1344744  34.8547590  48.2005607 112.7341380  35.6855797
  47.8321541 113.8488538  34.7297729  52.7681011 115.8740817  37.3618881
  52.2080569 115.9434007  38.1350443  52.1624514 115.6981802  36.6418377
  35.8376220 127.3077545  39.1137067  35.7208604 128.2522977  39.0115758
  35.0168666 127.0051106  39.5022867  45.7252754 122.0327680  29.9593660
  46.5598358 121.6008879  29.7771135  45.5637097 121.8609694  30.8870555
  45.3798646 118.5359794  31.3249999  45.3247450 118.3704065  30.3838444
  44.7544702 119.2435826  31.4812189  30.1691161 113.7727858  45.1511422
  30.8150025 113.2626812  45.6398647  29.9608313 114.5096540  45.7254847
  42.6944554 120.8408705  50.6503562  43.5635713 121.0149358  50.2890197
  42.2151305 121.6603122  50.5279292  38.6894772 108.0367903  30.9035318
  38.6773442 108.9809743  31.0603589  39.5818194 107.8538048  30.6094779
  36.8630734 127.9605806  42.3292996  37.7657981 127.9929417  42.6459491
  36.6368104 127.0306257  42.3439332  38.6184336 126.7136793  38.9903074
  37.6679967 126.7138655  38.8767447  38.9216822 125.9669528  38.4739109
  42.5046891 104.6310679  35.1581255  41.7379287 104.0769166  35.3037937
  42.9157596 104.7032548  36.0195406  34.5088652 110.9195475  49.2486436
  35.3720114 110.5632280  49.4589760  33.9354063 110.5809370  49.9361840
  54.3537029 132.5497331  40.0548837  54.9915439 132.4304079  39.3512177
  54.2357872 133.4978175  40.1136789  51.1626736 132.5024759  39.9910362
  50.8245247 132.3865824  39.1030896  52.0316504 132.1015925  39.9711368
  47.0213551 134.3560236  35.9807253  46.4578416 134.2650173  35.2123540
  46.9065946 133.5360140  36.4609745  51.6446519 133.6559611  45.9496567
  51.6335159 133.2612409  45.0777071  51.8067158 132.9225684  46.5430339
  44.5677983 135.8511428  38.8191473  45.3599275 135.5102252  38.4037772
  44.8074633 135.9606403  39.7393626  52.6013110 138.0231204  31.2921717
  51.9501090 138.6085284  30.9055731  53.3957473 138.5537399  31.3516755
  46.5268737 135.1120341  31.6908852  47.2999613 134.5649328  31.5521728
  46.8794136 135.9764590  31.9023313  48.3653780 136.4396723  44.8975751
  48.0743646 137.3442354  44.7822417  49.0010764 136.4813251  45.6119821
  49.2909987 133.8173572  41.4877111  49.8873559 133.5929594  40.7734074
  49.3484958 133.0758317  42.0902559  48.8635015 131.2713007  29.3227302
  49.1160536 130.7494528  28.5610765  47.9259574 131.1079152  29.4253985
  53.9078298 130.2748785  37.1302045  54.6941387 129.8568208  36.7792462
  54.1717002 131.1794877  37.2983693  54.0788375 135.7121636  31.8290702
  53.4434208 135.7856262  32.5411606  53.7485782 136.3015234  31.1509781
  59.3086725 130.2124018  38.0335023  60.0411897 129.6423235  38.2672853
  58.5526081 129.8245619  38.4741529  48.5831304 133.1741113  31.5251677
  48.4667562 132.4986016  32.1932761  48.6933564 132.6873487  30.7083830
  50.9262845 132.6351260  35.2298366  50.5621052 132.1081881  35.9411287
  51.7829961 132.2449729  35.0564851  56.8312145 123.9245593  42.4929632
  56.4995470 124.7941004  42.2690847  56.2357759 123.6081877  43.1723662
  50.5668332 127.6641160  30.2259714  50.7342734 128.5321396  30.5930185
  50.3765501 127.8268441  29.3021004  53.3243665 136.1258139  41.8925545
  53.0244388 137.0283177  41.7841352  52.9794724 135.8590322  42.7446698
  46.7756146 132.5771935  37.9262249  45.8506643 132.4448149  38.1339941
  47.0240560 133.3566155  38.4232192  56.7240809 128.6440679  39.5722982
  55.8157686 128.5756087  39.2781743  56.6728404 129.1212624  40.4004808
  50.5457553 130.1198817  31.2106381  50.4257178 130.5655868  32.0491862
  49.8510141 130.4684135  30.6519919  44.1364957 132.2205209  38.7606038
  44.2657339 132.4739688  39.6745450  43.4562409 132.8132917  38.4410693
  48.3064445 142.8902459  34.8596512  48.2288474 143.8410284  34.9384993
  47.7026088 142.5448331  35.5171439  50.7981674 130.0630324  47.5157879
  50.0215009 130.6224244  47.5060744  51.4372238 130.5487107  48.0372749
  58.5902455 126.8457117  41.3500856  57.9476835 127.1389650  40.7040651
  58.0857384 126.7310037  42.1554053  56.2442619 130.5920290  32.0386715
  57.1560475 130.8247677  31.8634413  55.7352266 131.1757335  31.4761794
  49.0528047 132.8715778  47.0775846  49.7942731 133.4100822  46.8010670
  48.3465032 133.4982066  47.2347398  54.5283386 135.0144918  45.6748008
  54.9366742 134.5727329  44.9302640  53.8060648 134.4397546  45.9282201
  50.8814456 129.9517525  43.0481565  51.7275652 130.3756938  43.1916214
  50.8213094 129.2951149  43.7420128  54.8512201 135.5746109  39.4300297
  54.2221063 135.7391823  38.7276365  54.4637863 135.9887718  40.2011261
  58.7301433 136.5100547  36.7844661  58.0452471 136.8899448  36.2341694
  58.8145282 137.1195873  37.5176608  54.0313902 127.6121893  44.7062738
  53.7874834 128.3663954  44.1697014  54.3073832 127.9907241  45.5409986
  55.9852365 134.1560506  43.3840004  56.1969260 134.7992266  42.7074385
  55.9382113 133.3222822  42.9161934  53.5878594 126.7678326  40.2876576
  52.7263073 127.0659580  40.5793314  53.6141028 126.9848725  39.3557609
  50.4040163 135.3120517  36.6950382  50.8678508 135.5908220  35.9055004
  50.1396961 134.4103961  36.5123473  47.2964244 134.8591998  39.6330145
  47.8665601 135.2879267  38.9947630  47.8872356 134.5774583  40.3314331
  49.3409049 131.4343669  33.5039947  50.0433092 131.8864713  33.9713873
  49.0089677 130.7927488  34.1319840  47.7889410 130.0255426  47.8791156
  47.1588071 130.7071707  48.1126553  47.6825498 129.9138507  46.9344295
  43.0834383 129.6927222  38.8057081  42.2933437 129.9484750  38.3297191
  43.5745630 130.5075560  38.9109121  57.0998192 137.0332461  41.5562361
  57.9215636 136.6312648  41.2745043  57.0960595 136.9300695  42.5078477
  45.0349128 130.0571801  35.7640557  44.2380292 130.1690495  36.2824053
  44.8074721 130.3958453  34.8981448  50.8654796 136.5816504  43.7123072
  50.9299228 137.0436912  44.5481244  50.1565720 135.9513869  43.8405382
  41.3672086 129.9457712  41.2372071  41.6180124 130.8304722  41.5029647
  41.9031634 129.7662314  40.4647163  65.1904186 133.3771210  37.9047333
  64.4367894 132.8078608  37.7491337  65.3251727 133.3433874  38.8517968
  50.5802814 138.2484612  33.5802052  50.4448488 139.0936148  34.0086900
  51.1212626 138.4503889  32.8167986  47.0670153 124.3276192  50.2416407
  46.6737099 123.7742390  50.9164052  47.8836294 124.6386770  50.6322925
  44.0332211 135.7660050  34.1529977  44.5456732 136.5603300  34.3035542
  44.6854924 135.0686340  34.0863579  45.8427096 138.8825806  36.2352730
  46.0193724 139.8043771  36.0473714  46.6383929 138.5684225  36.6647110
  49.9838114 125.7434071  47.8336664  50.7247828 126.3441224  47.7541126
  50.2156037 125.0011709  47.2754707  45.1279452 130.9290438  46.1114894
  45.0132967 130.0275695  46.4121993  44.2723970 131.1754135  45.7599710
  52.2071290 138.8708178  47.7102394  51.7635144 138.0844557  47.3923299
  52.8688504 139.0587329  47.0446285  46.9658411 140.4003980  42.2363073
  47.5165836 140.2721043  41.4640067  46.1269887 140.6998869  41.8857966
  54.3052528 139.1510978  45.7383796  54.2871003 139.9719859  45.2464065
  55.2272448 139.0265053  45.9633937  50.7625582 136.6655108  46.5807304
  51.2953919 135.9043396  46.3506612  50.2339663 136.3728760  47.3231458
  53.9295277 121.7715174  42.1100946  53.5859547 122.6616815  42.0340056
  54.2974240 121.5816831  41.2470531  41.9981128 134.0948704  34.9289548
  42.8356350 134.5045713  34.7123256  42.1759395 133.1548146  34.8989742
  53.8945560 131.7623785  30.6173381  53.3792183 132.5328389  30.8561768
  53.6222868 131.0888921  31.2406442  51.4792671 126.6073486  35.6758619
  50.6234267 126.2180336  35.4964258  51.8919623 126.6865446  34.8158405
  53.0091818 124.1419829  40.0750179  52.5056613 124.1049964  39.2617984
  53.3022424 125.0512572  40.1346836  49.2534703 124.2258559  39.0816361
  50.1187700 124.0301367  38.7222250  49.3212212 123.9968910  40.0085717
  58.8679834 134.5156139  32.5526554  58.0909277 134.1767299  32.1081716
  59.5471315 134.5208763  31.8781519  53.6831863 129.6350877  32.4433162
  53.3781999 129.9497026  33.2943305  54.6362305 129.7132297  32.4860495
  52.1278295 135.7941100  34.0926116  51.5999656 135.0593860  33.7799353
  51.6265798 136.5715777  33.8466084  57.1071141 133.9890121  39.2093162
  56.4494815 134.6789382  39.2973291  57.9111540 134.3786553  39.5527149
  46.8597023 126.4560767  36.4532727  47.4340774 126.2335948  35.7205920
  47.4468005 126.5249461  37.2061329  55.9176600 132.3434493  37.2597104
  56.4308481 132.9764485  37.7618814  56.5677824 131.7435689  36.8940464
  47.1866610 128.4865228  30.4728613  46.3503922 128.8239914  30.7937887
  47.0471379 128.3514207  29.5355750  49.1619690 123.3302015  35.1807797
  48.5084103 123.0151033  34.5564412  49.1200164 122.7077756  35.9067620
  50.2730895 133.6121311  27.0961089  49.3657957 133.3810564  27.2952238
  50.7701927 132.8158930  27.2835071  53.1798974 142.3218818  30.0157775
  52.5060673 142.6250514  30.6242733  53.5664796 143.1247898  29.6663232
  52.3957431 129.8183949  39.5055445  51.4779992 130.0398896  39.3477133
  52.8117574 129.8930259  38.6467152  53.1792478 131.2175365  34.6358125
  53.9264297 131.7296762  34.3265247  53.4484068 130.8959417  35.4962518
  51.4519129 133.7133905  31.6185079  50.5430348 133.4292938  31.7157549
  51.4814212 134.1332984  30.7588386  56.6838396 137.3240495  35.3876247
  56.2300723 136.4831405  35.4441437  56.0532363 137.9601893  35.7251027
  55.6271315 128.2532481  36.6176914  54.8894072 127.7409867  36.9487157
  55.8798089 127.8132863  35.8060191  55.1271335 139.1616992  36.3226065
  55.4194310 139.7222049  35.6038430  55.6369956 139.4545553  37.0779224
  55.7282943 121.0308733  37.2118683  56.0341820 120.1706096  36.9244598
  56.4535548 121.6226353  37.0117677  42.0207299 131.4339419  35.6000281
  41.8231699 130.8408780  34.8751348  41.4653963 131.1291630  36.3176220
  50.0004023 131.3262526  37.7194874  50.0552632 130.3736362  37.6437351
  49.1895225 131.4821965  38.2036173  51.1495216 135.2542649  28.9573158
  50.7114646 134.5378508  28.4978795  51.8905657 135.4818764  28.3958249
  47.9396382 129.9439586  35.4785253  47.1264248 130.2433756  35.8850445
  48.4355377 129.5495274  36.1959736  50.0904960 139.9397343  37.4119518
  50.0481139 140.1658189  36.4828050  51.0067659 139.7060717  37.5605319
  53.5370594 130.4081410  44.3100147  53.8919982 130.6352883  45.1694613
  54.1842725 130.7399787  43.6877402  59.2668331 133.5299846  35.0149476
  59.1286230 133.7201442  34.0870665  58.9104550 134.2919229  35.4717527
  47.4310457 127.5157941  41.0946488  48.0709837 127.3746700  40.3969452
  46.5987988 127.2292455  40.7185090  59.2937711 135.5976373  40.0260748
  59.7274217 135.5051662  40.8743802  60.0069291 135.5733874  39.3880764
  48.2070761 136.8160372  37.2081481  49.0011360 136.3210692  37.0064056
  47.4962454 136.2878235  36.8449186  53.0265606 139.1978467  41.5593848
  53.0802628 139.7669404  42.3271564  52.1580387 139.3680352  41.1947885
  44.5153525 130.9603453  33.2841233  43.5851113 130.8987909  33.5011196
  44.6110997 130.4379406  32.4877875  44.4339074 127.4858266  35.8719475
  44.6945891 128.4003599  35.7628636  45.2556246 127.0182709  36.0216088
  45.9063999 128.8996023  43.0418300  46.5787052 128.6913386  42.3930948
  45.0793786 128.7018109  42.6023532  60.1553260 135.6400074  42.5593633
  60.3489150 136.5445884  42.8052908  60.0553878 135.1807493  43.3932218
  51.8089571 125.5257964  45.0583960  51.1617486 126.2247914  44.9648437
  52.5790586 125.9594108  45.4260209  55.2168369 135.7906816  48.1334514
  55.0653875 135.5617368  47.2164597  55.2073048 136.7477418  48.1465859
  51.9853705 133.3638729  43.1180780  52.9145765 133.5149889  42.9449747
  51.5644735 133.4522750  42.2629427  50.7842037 137.3889394  40.8879318
  50.6453123 137.0208178  41.7605256  49.9956633 137.9037033  40.7163276
  51.3790189 142.4898490  32.2304854  51.5541945 142.0186533  33.0450477
  50.6922977 143.1164256  32.4586115  52.3347252 136.7670996  38.2768156
  51.9997085 136.7271766  39.1725805  51.8351198 136.1015712  37.8038566
  46.3091496 132.1738626  43.8020737  46.1711294 131.4418865  44.4032276
  47.2196420 132.0847526  43.5204924  55.2706444 134.1127031  28.5505215
  54.6535615 133.3873859  28.4538268  54.8022932 134.8736391  28.2072289
  48.9373797 131.8858586  43.2904416  49.6473415 131.2451778  43.2491035
  48.8943105 132.1371481  44.2130597  56.9260576 138.8225939  46.2110996
  56.8673122 138.1385159  45.5441579  57.3280094 139.5644929  45.7591622
  47.6502731 128.8723804  45.1100056  47.1140088 128.4214542  45.7621652
  47.0619439 129.0069712  44.3670520  45.9451274 145.6387853  39.0044714
  46.1847873 146.2706377  39.6823733  45.1020471 145.2875893  39.2910074
  47.0604990 128.3312455  27.6726520  46.1834456 128.2101256  27.3088766
  47.5362743 127.5398533  27.4205408  56.9277983 136.7865523  44.4424975
  56.0404762 136.4491445  44.5651374  57.4976534 136.0548554  44.6793741
  38.5807130 133.1189615  37.7668027  39.2678170 132.8051345  37.1789042
  38.4255259 134.0230979  37.4935278  43.3841852 128.0079811  42.1953050
  43.3000041 127.4005481  41.4603460  42.5624559 128.4988830  42.1962547
  50.4579136 141.4466975  41.4086218  50.3849308 142.2521947  41.9205523
  50.0156529 141.6458941  40.5834240  50.2468916 140.6838745  34.9189040
  49.4636438 141.2260426  35.0127265  50.9461661 141.2012725  35.3183281
  53.5565566 126.4933375  37.5623245  54.0534266 125.7403337  37.2424316
  52.7852547 126.5297691  36.9966455  61.4095323 132.1973740  39.2041537
  61.3985200 133.0798456  38.8335470  60.5412703 131.8445291  39.0096074
  52.9177820 141.3453809  43.5644377  53.6305792 141.9801274  43.4920279
  52.4267848 141.4417675  42.7484379  54.6395347 135.2505062  35.1361669
  53.7051625 135.3706524  34.9666373  54.8172015 134.3477529  34.8721679
  50.1400535 128.6350758  37.2894930  49.7698322 128.0821798  37.9775836
  50.6359627 128.0308891  36.7369930  58.0267898 131.0922381  35.6711703
  58.4928350 131.9250373  35.5972006  58.4775399 130.6267363  36.3756961
  47.9689733 139.0948253  44.3849948  48.6699193 139.7284736  44.5379342
  47.4984848 139.4362984  43.6245587  56.0944129 137.4366203  32.6697855
  56.3703973 137.3222797  33.5791729  55.2248628 137.0383687  32.6310028
  55.9984561 123.4602968  39.7102604  55.0847641 123.6907195  39.8784811
  56.4277662 123.5441412  40.5616637  55.7691019 131.6492860  42.2102498
  55.1162470 131.8968768  41.5554951  56.1471399 130.8356998  41.8764976
  52.7298193 141.6852553  36.3130669  52.9120588 140.8674209  36.7758421
  53.5531179 141.9020246  35.8755559  53.0640359 140.6120739  33.5745717
  53.5928125 140.1013193  32.9615879  53.3268578 140.2963269  34.4391250
  51.8178592 132.3912671  48.6968535  51.1419229 132.2906801  49.3670911
  52.6406226 132.2351885  49.1604533  43.5657451 138.6284608  41.3181051
  44.1510888 137.8828296  41.4508955  43.3682290 138.9388565  42.2017715
  46.4196107 141.6635855  36.3343493  45.7506482 142.1481983  35.8507533
  46.2808976 141.9105076  37.2486872  38.1575106 131.1990208  40.0385494
  38.1959206 130.6653799  40.8322612  37.6515399 130.6725414  39.4196471
  50.5601375 143.6979599  42.9326151  51.1119683 143.8611220  43.6975237
  50.9007569 144.2884037  42.2606176  45.5365868 126.0454749  43.5348036
  45.6007195 126.9069579  43.1225434  45.4732989 125.4328750  42.8020395
  45.0118141 128.1177881  47.1821070  45.6390180 127.7354958  47.7958595
  44.1546060 127.8992083  47.5476763  55.4112250 138.5240856  48.7874806
  55.9552153 139.1370815  48.2929761  54.8299094 139.0820435  49.3041819
  41.7883684 129.9254310  33.1139425  42.0837125 129.0164989  33.0606479
  40.8871719 129.9042050  32.7920428  53.6969762 141.6461574  39.9189834
  53.5720902 140.8451314  39.4100779  54.3548854 142.1407768  39.4303804
  45.3177931 128.0010307  39.0966974  44.5964516 128.6146275  38.9574447
  46.1071186 128.5368072  39.0183620  55.7604671 139.4470594  41.5469384
  54.8135006 139.3275946  41.4747710  56.1087444 138.5593092  41.6295645
  48.1204244 125.3364733  45.3707626  48.6438646 125.5827030  46.1333935
  47.9016577 126.1684768  44.9510763  43.5171525 127.6068408  33.2378750
  43.1884231 126.7265787  33.0553856  43.8710896 127.5516077  34.1255140
  52.7651104 139.2423311  37.7473736  52.6176067 138.3140018  37.9281306
  53.5904598 139.2643401  37.2630811  46.6313348 127.8941378  33.6054228
  46.9709421 128.4227299  32.8832836  47.0785469 128.2321784  34.3812795
  56.3685226 140.0651869  38.8338609  57.2931773 139.8594731  38.6963060
  56.2000529 139.8168271  39.7427950  49.3256789 126.2778428  43.0557296
  48.9853610 125.4786241  43.4577976  48.6195796 126.5780139  42.4834129
  49.9773261 123.3627741  41.5084619  50.7999330 122.8888219  41.3863509
  50.2211325 124.1418225  42.0083305  48.6181496 126.3915999  31.8047521
  49.3389858 126.7697252  31.3011238  47.9946800 127.1104876  31.9082499
  52.7612618 127.0961148  32.7405853  52.9776233 127.9785786  32.4394681
  52.2806686 126.7047362  32.0111495  47.5011840 130.0546861  39.3176598
  47.3556421 130.3687165  40.2100879  47.0237043 130.6731762  38.7647496
  49.3608223 127.0449409  39.3657487  49.3469791 126.1490503  39.0289785
  50.0780651 127.0520073  39.9995773  51.2134353 127.4786750  41.4110615
  50.9552131 128.4003820  41.4094945  50.6819394 127.0817184  42.1011079
  56.1580542 140.5837537  34.1900700  56.3317420 140.0183959  33.4374553
  56.6509433 141.3838432  34.0080190  41.9757502 132.5952206  42.2564259
  41.4310970 133.3712014  42.3884533  42.8536852 132.9423010  42.0983380
  48.7645119 125.9263790  34.6345057  48.8861030 124.9980436  34.8335945
  48.4747161 125.9402476  33.7223373  51.6336309 123.6118700  37.7711777
  51.6558006 123.6758033  36.8163757  52.0504368 122.7723209  37.9652283
  62.0119933 133.3473960  35.8091000  62.4551079 132.5981285  35.4110123
  61.1346444 133.3384096  35.4264732  57.1455715 139.9004301  31.2897598
  57.8406619 140.5210994  31.5084913  57.4878865 139.0499652  31.5649976
  42.7623524 131.7222102  45.1494416  42.0205260 131.8704737  45.7359046
  42.4416268 131.9830368  44.2861165  59.0447138 137.3504007  32.8184929
  59.5698462 137.6891279  32.0934249  58.9569490 136.4151022  32.6348064
  50.7067186 141.2638080  44.9474806  51.0154313 141.0187227  45.8197505
  51.5042669 141.4684719  44.4593676  50.7287799 143.4175990  37.1780182
  50.2892789 142.9252369  37.8713039  51.4795916 142.8748958  36.9372258
  43.2080138 139.6087531  37.1804810  44.0338157 139.3091303  36.8003454
  42.8574190 138.8395153  37.6294599  48.1761671 138.9613999  39.2502484
  47.5541680 138.2984704  38.9504712  48.8466538 138.9875131  38.5676132
  41.4088743 137.5273857  38.1393744  40.5720651 137.0996032  37.9577745
  41.3812388 137.7206301  39.0764535  48.2486198 127.4395787  48.8434990
  48.2974354 128.3157910  48.4612760  48.7908712 126.8973180  48.2706633
  58.7341044 137.9836910  48.1236127  57.9436588 137.9661049  47.5840626
  58.4974398 138.5225204  48.8785164  58.8538919 134.8329377  45.4368856
  58.9036924 134.6679384  46.3784378  58.7452842 133.9656636  45.0466736
  47.7375178 137.5117922  32.7260945  47.8863298 138.1953387  32.0727617
  48.5441621 137.4923012  33.2410400  56.1442681 130.8160305  46.7528162
  57.0452544 130.6766770  46.4612160  56.2190656 130.9814760  47.6926340
  50.4785487 128.1927160  45.5981349  49.6088796 128.4860726  45.3263937
  50.7144967 128.7767605  46.3188612  60.3557116 137.2526318  45.6810877
  60.0641924 137.6156299  46.5174338  59.7429247 136.5393327  45.5024209
  61.5552798 134.8179198  38.2013447  62.3899689 135.2569002  38.3651008
  61.6911927 134.3417851  37.3821693  58.6044304 132.3758933  44.1490935
  59.0798426 132.5686579  43.3409787  57.6809869 132.4318119  43.9034319
  45.4927811 133.5383100  33.7322013  45.2473853 132.6345430  33.9302224
  45.6623725 133.5400251  32.7901491  53.1824520 124.4106776  43.1146769
  53.7006464 125.1467803  42.7893258  52.8279653 124.7170770  43.9493528
  44.7623458 129.2711458  31.2308175  44.0692703 129.3455813  30.5748211
  44.5175210 128.5071801  31.7529692  53.4337115 120.8307059  38.6347666
  53.7138868 120.1630248  39.2608092  54.2187722 121.0236155  38.1222329
  51.2370583 140.0066053  30.1972692  50.6644550 140.6256240  29.7443164
  51.8103377 140.5565415  30.7312614  57.3045973 129.2524693  42.3819241
  58.2563396 129.3522791  42.4031465  57.1349423 128.4602962  42.8917325
  55.3260352 126.3380276  42.5678642  54.7310285 126.6185289  41.8725130
  55.0410049 126.8274177  43.3395383  54.4567843 140.2903203  31.3281274
  55.3898516 140.2248765  31.5314150  54.3691056 141.1259470  30.8695807
  57.0855860 139.6069073  28.2885222  57.0069491 139.2728937  29.1820980
  57.9065526 140.0990841  28.2876694  59.7834051 132.4730813  41.4961540
  59.7510371 131.5346813  41.6821224  60.3934674 132.5514849  40.7627365
  51.6217382 131.3426866  27.5388744  52.5676486 131.2133074  27.6077162
  51.2431627 130.6041528  28.0158173  59.9328539 129.2641856  41.5419824
  59.4167588 128.4800313  41.3549752  60.8168488 128.9360573  41.7066343
  57.5939266 123.0082872  37.5015636  57.3964087 122.6997960  38.3858968
  58.2038972 123.7344511  37.6313566  65.6010601 133.5346820  40.6367577
  66.3313989 133.2732108  41.1975281  64.9917546 132.7975541  40.6769645
  63.6825898 131.6754682  41.2342028  62.9559061 131.5410647  40.6258520
  63.2673185 131.9831511  42.0398746  51.5056074 135.3944612  48.9989401
  52.4259084 135.5723211  49.1929448  51.4705657 134.4500657  48.8469101
  49.8060299 129.2676842  27.4743630  48.8991754 128.9709955  27.5506343
  50.0836280 128.9706660  26.6077916  40.7238239 130.5883205  37.9242676
  40.4041024 129.7348514  37.6317050  40.1771667 130.8031784  38.6800643
  44.5018147 133.3045646  41.6412183  44.7204156 134.2362754  41.6600216
  44.9143921 132.9453621  42.4266986  51.4222365 123.8113732  33.6287871
  50.6123093 123.4660817  34.0043117  52.1106781 123.5021275  34.2175483
  53.3512913 122.8891779  35.2512168  53.9043951 123.3087232  35.9102191
  53.5882999 121.9627527  35.2935124  49.3746012 128.8778852  51.0314931
  49.2742739 129.8273209  50.9627023  49.1567554 128.5497091  50.1591002
  48.5759083 126.1263777  27.6155609  49.4378247 126.4518676  27.8751426
  48.7609428 125.3395273  27.1028675  40.5926499 134.2086117  39.8935798
  39.8989971 133.7940070  39.3805752  41.3399490 134.2506653  39.2969217
  56.7291720 124.9992304  34.7590832  56.1490389 125.6577108  34.3768884
  56.4627653 124.1769648  34.3478249  55.1795286 124.3997361  36.9612152
  55.6795065 124.5113896  36.1526471  55.8230894 124.0958414  37.6012961
  49.2377282 132.3075991  49.8479993  48.7544364 133.1076351  50.0543882
  49.3238221 132.3183936  48.8947437  42.5063242 134.1404371  37.7701813
  42.4833930 134.2392058  36.8183696  42.8163878 134.9869521  38.0918979
  45.1650620 136.1980526  41.8848427  46.1193873 136.1664468  41.8178358
  44.9663143 135.7371149  42.6998653  45.7550002 134.7681642  44.4519225
  46.5742891 135.2625720  44.4754062  46.0286809 133.8513610  44.4236792
  55.5116598 127.1592394  33.8147180  54.6242453 127.4442045  33.5967375
  55.9270587 126.9986157  32.9674457  58.8631134 127.1838915  37.5301519
  59.6391524 127.6735368  37.8026136  58.1379268 127.6096969  37.9873389
  61.3003693 127.8966534  38.5875460  61.8948183 127.6562270  37.8768768
  61.3730276 127.1773665  39.2148996  43.5200848 141.7400145  38.9018625
  43.3855316 140.9800546  38.3356623  43.1032911 142.4641045  38.4347414
  54.6559811 136.9237069  27.9095200  55.3595661 137.1287071  28.5252856
  53.9322460 137.4913831  28.1744284  55.4857622 132.6746930  34.0297470
  55.4292823 133.1315481  33.1905103  56.0385964 131.9137615  33.8520313
  59.2962428 128.4636662  34.8547590  59.0399362 128.0633298  35.6855797
  58.6715296 129.1780456  34.7297729  63.6074765 131.2032735  37.3618881
  63.0474323 131.2725924  38.1350443  63.0018269 131.0273720  36.6418377
  46.6769974 142.6369462  39.1137067  46.5602358 143.5814895  39.0115758
  45.8562421 142.3343024  39.5022867  56.5646509 137.3619598  29.9593660
  57.3992113 136.9300796  29.7771135  56.4030852 137.1901612  30.8870555
  56.2192401 133.8651711  31.3249999  56.1641205 133.6995983  30.3838444
  55.5938456 134.5727744  31.4812189  41.0084916 129.1019776  45.1511422
  41.6543780 128.5918730  45.6398647  40.8002067 129.8388457  45.7254847
  53.5338308 136.1700623  50.6503562  54.4029468 136.3441275  50.2890197
  53.0545060 136.9895040  50.5279292  49.5288526 123.3659820  30.9035318
  49.5167196 124.3101660  31.0603589  50.4211948 123.1829966  30.6094779
  47.7024488 143.2897724  42.3292996  48.6051735 143.3221334  42.6459491
  47.4761858 142.3598175  42.3439332  49.4578090 142.0428711  38.9903074
  48.5073721 142.0430572  38.8767447  49.7610577 141.2961445  38.4739109
  53.3440646 119.9602597  35.1581255  52.5773042 119.4061084  35.3037937
  53.7551351 120.0324466  36.0195406  45.3482407 126.2487393  49.2486436
  46.2113869 125.8924198  49.4589760  44.7747818 125.9101288  49.9361840
  65.1930784 147.8789249  40.0548837  65.8309194 147.7595996  39.3512177
  65.0751627 148.8270093  40.1136789  62.0020490 147.8316677  39.9910362
  61.6639002 147.7157742  39.1030896  62.8710258 147.4307842  39.9711368
  57.8607306 149.6852154  35.9807253  57.2972171 149.5942091  35.2123540
  57.7459701 148.8652058  36.4609745  62.4840273 148.9851529  45.9496567
  62.4728914 148.5904327  45.0777071  62.6460913 148.2517602  46.5430339
  55.4071738 151.1803345  38.8191473  56.1993030 150.8394170  38.4037772
  55.6468388 151.2898320  39.7393626  63.4406865 153.3523121  31.2921717
  62.7894844 153.9377202  30.9055731  64.2351227 153.8829316  31.3516755
  57.3662492 150.4412258  31.6908852  58.1393368 149.8941246  31.5521728
  57.7187891 151.3056508  31.9023313  59.2047534 151.7688641  44.8975751
  58.9137400 152.6734272  44.7822417  59.8404519 151.8105168  45.6119821
  60.1303741 149.1465489  41.4877111  60.7267313 148.9221512  40.7734074
  60.1878713 148.4050235  42.0902559  59.7028770 146.6004925  29.3227302
  59.9554290 146.0786446  28.5610765  58.7653329 146.4371070  29.4253985
  64.7472052 145.6040703  37.1302045  65.5335142 145.1860126  36.7792462
  65.0110757 146.5086795  37.2983693  64.9182130 151.0413553  31.8290702
  64.2827963 151.1148180  32.5411606  64.5879536 151.6307152  31.1509781
  70.1480479 145.5415936  38.0335023  70.8805651 144.9715153  38.2672853
  69.3919835 145.1537537  38.4741529  59.4225058 148.5033031  31.5251677
  59.3061316 147.8277934  32.1932761  59.5327318 148.0165404  30.7083830
  61.7656599 147.9643178  35.2298366  61.4014806 147.4373799  35.9411287
  62.6223715 147.5741647  35.0564851  67.6705900 139.2537510  42.4929632
  67.3389225 140.1232921  42.2690847  67.0751513 138.9373794  43.1723662
  61.4062086 142.9933077  30.2259714  61.5736489 143.8613314  30.5930185
  61.2159255 143.1560359  29.3021004  64.1637419 151.4550056  41.8925545
  63.8638142 152.3575095  41.7841352  63.8188479 151.1882239  42.7446698
  57.6149901 147.9063853  37.9262249  56.6900397 147.7740067  38.1339941
  57.8634314 148.6858072  38.4232192  67.5634563 143.9732596  39.5722982
  66.6551440 143.9048005  39.2781743  67.5122159 144.4504541  40.4004808
  61.3851307 145.4490735  31.2106381  61.2650932 145.8947786  32.0491862
  60.6903895 145.7976052  30.6519919  54.9758712 147.5497127  38.7606038
  55.1051093 147.8031606  39.6745450  54.2956163 148.1424835  38.4410693
  61.6375429 145.3922242  47.5157879  60.8608763 145.9516162  47.5060744
  62.2765992 145.8779025  48.0372749  69.4296210 142.1749035  41.3500856
  68.7870590 142.4681568  40.7040651  68.9251138 142.0601955  42.1554053
  67.0836373 145.9212208  32.0386715  67.9954229 146.1539595  31.8634413
  66.5746020 146.5049252  31.4761794  59.8921801 148.2007695  47.0775846
  60.6336486 148.7392739  46.8010670  59.1858787 148.8273984  47.2347398
  65.3677141 150.3436836  45.6748008  65.7760497 149.9019246  44.9302640
  64.6454402 149.7689463  45.9282201  61.7208211 145.2809443  43.0481565
  62.5669406 145.7048856  43.1916214  61.6606849 144.6243067  43.7420128
  65.6905956 150.9038026  39.4300297  65.0614818 151.0683741  38.7276365
  65.3031618 151.3179636  40.2011261  69.5695187 151.8392464  36.7844661
  68.8846226 152.2191366  36.2341694  69.6539037 152.4487791  37.5176608
  64.8707656 142.9413811  44.7062738  64.6268588 143.6955871  44.1697014
  65.1467587 143.3199159  45.5409986  66.8246119 149.4852423  43.3840004
  67.0363014 150.1284183  42.7074385  66.7775867 148.6514740  42.9161934
  64.4272348 142.0970244  40.2876576  63.5656827 142.3951498  40.5793314
  64.4534783 142.3140643  39.3557609  61.2433917 150.6412435  36.6950382
  61.7072263 150.9200138  35.9055004  60.9790716 149.7395879  36.5123473
  58.1357998 150.1883916  39.6330145  58.7059356 150.6171184  38.9947630
  58.7266110 149.9066501  40.3314331  60.1802803 146.7635587  33.5039947
  60.8826847 147.2156631  33.9713873  59.8483432 146.1219406  34.1319840
  58.6283165 145.3547344  47.8791156  57.9981826 146.0363624  48.1126553
  58.5219253 145.2430425  46.9344295  53.9228137 145.0219140  38.8057081
  53.1327191 145.2776668  38.3297191  54.4139385 145.8367477  38.9109121
  67.9391947 152.3624379  41.5562361  68.7609391 151.9604566  41.2745043
  67.9354350 152.2592613  42.5078477  55.8742883 145.3863719  35.7640557
  55.0774046 145.4982413  36.2824053  55.6468475 145.7250371  34.8981448
  61.7048550 151.9108422  43.7123072  61.7692983 152.3728829  44.5481244
  60.9959474 151.2805787  43.8405382  52.2065840 145.2749630  41.2372071
  52.4573879 146.1596640  41.5029647  52.7425389 145.0954232  40.4647163
  76.0297940 148.7063127  37.9047333  75.2761648 148.1370525  37.7491337
  76.1645481 148.6725792  38.8517968  61.4196568 153.5776530  33.5802052
  61.2842243 154.4228065  34.0086900  61.9606381 153.7795807  32.8167986
  57.9063908 139.6568109  50.2416407  57.5130853 139.1034308  50.9164052
  58.7230048 139.9678688  50.6322925  54.8725965 151.0951968  34.1529977
  55.3850486 151.8895218  34.3035542  55.5248678 150.3978258  34.0863579
  60.8231869 141.0725988  47.8336664  61.5641582 141.6733142  47.7541126
  61.0549792 140.3303626  47.2754707  55.9673207 146.2582356  46.1114894
  55.8526722 145.3567613  46.4121993  55.1117724 146.5046052  45.7599710
  63.0465044 154.2000096  47.7102394  62.6028899 153.4136475  47.3923299
  63.7082258 154.3879247  47.0446285  65.1446283 154.4802896  45.7383796
  65.1264758 155.3011777  45.2464065  66.0666203 154.3556971  45.9633937
  61.6019337 151.9947025  46.5807304  62.1347673 151.2335314  46.3506612
  61.0733418 151.7020677  47.3231458  64.7689032 137.1007091  42.1100946
  64.4253301 137.9908733  42.0340056  65.1367994 136.9108749  41.2470531
  52.8374882 149.4240622  34.9289548  53.6750104 149.8337630  34.7123256
  53.0153150 148.4840064  34.8989742  64.7339314 147.0915703  30.6173381
  64.2185938 147.8620307  30.8561768  64.4616623 146.4180839  31.2406442
  62.3186425 141.9365403  35.6758619  61.4628022 141.5472254  35.4964258
  62.7313377 142.0157364  34.8158405  63.8485572 139.4711747  40.0750179
  63.3450368 139.4341882  39.2617984  64.1416179 140.3804489  40.1346836
  60.0928458 139.5550476  39.0816361  60.9581455 139.3593285  38.7222250
  60.1605967 139.3260828  40.0085717  69.7073589 149.8448057  32.5526554
  68.9303031 149.5059217  32.1081716  70.3865069 149.8500680  31.8781519
  64.5225618 144.9642795  32.4433162  64.2175753 145.2788944  33.2943305
  65.4756060 145.0424214  32.4860495  62.9672049 151.1233018  34.0926116
  62.4393411 150.3885777  33.7799353  62.4659552 151.9007694  33.8466084
  67.9464895 149.3182038  39.2093162  67.2888570 150.0081300  39.2973291
  68.7505295 149.7078470  39.5527149  57.6990777 141.7852684  36.4532727
  58.2734529 141.5627866  35.7205920  58.2861759 141.8541379  37.2061329
  66.7570354 147.6726411  37.2597104  67.2702236 148.3056403  37.7618814
  67.4071578 147.0727607  36.8940464  58.0260364 143.8157145  30.4728613
  57.1897676 144.1531832  30.7937887  57.8865134 143.6806125  29.5355750
  60.0013445 138.6593933  35.1807797  59.3477857 138.3442950  34.5564412
  59.9593919 138.0369674  35.9067620  61.1124650 148.9413228  27.0961089
  60.2051711 148.7102482  27.2952238  61.6095682 148.1450847  27.2835071
  63.2351185 145.1475867  39.5055445  62.3173746 145.3690814  39.3477133
  63.6511329 145.2222177  38.6467152  64.0186233 146.5467282  34.6358125
  64.7658052 147.0588680  34.3265247  64.2877822 146.2251335  35.4962518
  62.2912883 149.0425823  31.6185079  61.3824102 148.7584856  31.7157549
  62.3207967 149.4624902  30.7588386  67.5232150 152.6532413  35.3876247
  67.0694478 151.8123322  35.4441437  66.8926117 153.2893811  35.7251027
  66.4665070 143.5824399  36.6176914  65.7287827 143.0701785  36.9487157
  66.7191844 143.1424780  35.8060191  65.9665090 154.4908909  36.3226065
  66.2588064 155.0513966  35.6038430  66.4763710 154.7837470  37.0779224
  66.5676697 136.3600651  37.2118683  66.8735574 135.4998014  36.9244598
  67.2929302 136.9518271  37.0117677  52.8601053 146.7631337  35.6000281
  52.6625453 146.1700698  34.8751348  52.3047717 146.4583547  36.3176220
  60.8397777 146.6554444  37.7194874  60.8946387 145.7028280  37.6437351
  60.0288979 146.8113883  38.2036173  61.9888971 150.5834567  28.9573158
  61.5508401 149.8670426  28.4978795  62.7299412 150.8110682  28.3958249
  58.7790137 145.2731503  35.4785253  57.9658003 145.5725674  35.8850445
  59.2749131 144.8787192  36.1959736  60.9298715 155.2689260  37.4119518
  60.8874894 155.4950107  36.4828050  61.8461414 155.0352635  37.5605319
  64.3764349 145.7373328  44.3100147  64.7313736 145.9644801  45.1694613
  65.0236480 146.0691705  43.6877402  70.1062086 148.8591764  35.0149476
  69.9679984 149.0493360  34.0870665  69.7498304 149.6211147  35.4717527
  58.2704212 142.8449859  41.0946488  58.9103591 142.7038618  40.3969452
  57.4381742 142.5584372  40.7185090  70.1331465 150.9268291  40.0260748
  70.5667972 150.8343580  40.8743802  70.8463046 150.9025791  39.3880764
  59.0464516 152.1452289  37.2081481  59.8405114 151.6502609  37.0064056
  58.3356208 151.6170152  36.8449186  63.8659360 154.5270385  41.5593848
  63.9196382 155.0961321  42.3271564  62.9974141 154.6972270  41.1947885
  55.3547279 146.2895371  33.2841233  54.4244867 146.2279827  33.5011196
  55.4504751 145.7671324  32.4877875  55.2732828 142.8150184  35.8719475
  55.5339645 143.7295517  35.7628636  56.0950000 142.3474626  36.0216088
  56.7457753 144.2287941  43.0418300  57.4180807 144.0205303  42.3930948
  55.9187540 144.0310027  42.6023532  70.9947015 150.9691991  42.5593633
  71.1882905 151.8737802  42.8052908  70.8947633 150.5099410  43.3932218
  62.6483325 140.8549882  45.0583960  62.0011241 141.5539832  44.9648437
  63.4184341 141.2886026  45.4260209  66.0562123 151.1198734  48.1334514
  65.9047630 150.8909286  47.2164597  66.0466803 152.0769336  48.1465859
  62.8247460 148.6930647  43.1180780  63.7539520 148.8441807  42.9449747
  62.4038490 148.7814668  42.2629427  61.6235792 152.7181311  40.8879318
  61.4846877 152.3500096  41.7605256  60.8350388 153.2328951  40.7163276
  63.1741007 152.0962914  38.2768156  62.8390839 152.0563684  39.1725805
  62.6744952 151.4307630  37.8038566  57.1485251 147.5030544  43.8020737
  57.0105049 146.7710783  44.4032276  58.0590174 147.4139444  43.5204924
  66.1100198 149.4418948  28.5505215  65.4929369 148.7165777  28.4538268
  65.6416687 150.2028309  28.2072289  59.7767551 147.2150503  43.2904416
  60.4867170 146.5743696  43.2491035  59.7336860 147.4663398  44.2130597
  67.7654330 154.1517857  46.2110996  67.7066876 153.4677077  45.5441579
  68.1673848 154.8936847  45.7591622  58.4896485 144.2015721  45.1100056
  57.9533842 143.7506460  45.7621652  57.9013194 144.3361630  44.3670520
  57.8998744 143.6604373  27.6726520  57.0228211 143.5393173  27.3088766
  58.3756497 142.8690451  27.4205408  67.7671737 152.1157441  44.4424975
  66.8798516 151.7783362  44.5651374  68.3370288 151.3840472  44.6793741
  49.4200884 148.4481532  37.7668027  50.1071924 148.1343262  37.1789042
  49.2649013 149.3522897  37.4935278  54.2235607 143.3371729  42.1953050
  54.1393795 142.7297399  41.4603460  53.4018313 143.8280747  42.1962547
  64.3959320 141.8225292  37.5623245  64.8928020 141.0695255  37.2424316
  63.6246302 141.8589609  36.9966455  72.2489078 147.5265658  39.2041537
  72.2378954 148.4090373  38.8335470  71.3806457 147.1737209  39.0096074
  65.4789101 150.5796980  35.1361669  64.5445380 150.6998442  34.9666373
  65.6565770 149.6769446  34.8721679  60.9794289 143.9642675  37.2894930
  60.6092077 143.4113716  37.9775836  61.4753382 143.3600809  36.7369930
  68.8661653 146.4214299  35.6711703  69.3322105 147.2542291  35.5972006
  69.3169153 145.9559281  36.3756961  58.8083488 154.4240171  44.3849948
  59.5092947 155.0576653  44.5379342  58.3378603 154.7654902  43.6245587
  66.9337884 152.7658120  32.6697855  67.2097728 152.6514715  33.5791729
  66.0642382 152.3675605  32.6310028  66.8378315 138.7894886  39.7102604
  65.9241395 139.0199113  39.8784811  67.2671417 138.8733330  40.5616637
  66.6084774 146.9784778  42.2102498  65.9556224 147.2260685  41.5554951
  66.9865154 146.1648916  41.8764976  63.9034113 155.9412656  33.5745717
  64.4321880 155.4305111  32.9615879  64.1662333 155.6255186  34.4391250
  62.6572347 147.7204589  48.6968535  61.9812984 147.6198718  49.3670911
  63.4799981 147.5643803  49.1604533  48.9968861 146.5282126  40.0385494
  49.0352960 145.9945716  40.8322612  48.4909153 146.0017331  39.4196471
  56.3759623 141.3746666  43.5348036  56.4400949 142.2361497  43.1225434
  56.3126743 140.7620668  42.8020395  55.8511895 143.4469799  47.1821070
  56.4783934 143.0646876  47.7958595  54.9939814 143.2284001  47.5476763
  66.2506004 153.8532774  48.7874806  66.7945908 154.4662732  48.2929761
  65.6692849 154.4112352  49.3041819  52.6277438 145.2546228  33.1139425
  52.9230879 144.3456906  33.0606479  51.7265474 145.2333967  32.7920428
  56.1571685 143.3302224  39.0966974  55.4358271 143.9438192  38.9574447
  56.9464941 143.8659989  39.0183620  66.5998425 154.7762512  41.5469384
  65.6528761 154.6567863  41.4747710  66.9481198 153.8885010  41.6295645
  58.9597999 140.6656651  45.3707626  59.4832401 140.9118948  46.1333935
  58.7410332 141.4976686  44.9510763  54.3565280 142.9360326  33.2378750
  54.0277986 142.0557704  33.0553856  54.7104650 142.8807994  34.1255140
  63.6044859 154.5715228  37.7473736  63.4569821 153.6431936  37.9281306
  64.4298352 154.5935319  37.2630811  57.4707103 143.2233295  33.6054228
  57.8103175 143.7519217  32.8832836  57.9179223 143.5613701  34.3812795
  67.2078980 155.3943787  38.8338609  68.1325528 155.1886648  38.6963060
  67.0394284 155.1460188  39.7427950  60.1650544 141.6070346  43.0557296
  59.8247364 140.8078159  43.4577976  59.4589550 141.9072057  42.4834129
  60.8167016 138.6919659  41.5084619  61.6393085 138.2180137  41.3863509
  61.0605079 139.4710142  42.0083305  59.4575250 141.7207917  31.8047521
  60.1783613 142.0989170  31.3011238  58.8340554 142.4396794  31.9082499
  63.6006373 142.4253066  32.7405853  63.8169987 143.3077704  32.4394681
  63.1200440 142.0339279  32.0111495  58.3405594 145.3838779  39.3176598
  58.1950175 145.6979082  40.2100879  57.8630798 146.0023679  38.7647496
  60.2001977 142.3741327  39.3657487  60.1863546 141.4782420  39.0289785
  60.9174405 142.3811991  39.9995773  62.0528108 142.8078667  41.4110615
  61.7945886 143.7295738  41.4094945  61.5213148 142.4109102  42.1011079
  66.9974297 155.9129454  34.1900700  67.1711174 155.3475877  33.4374553
  67.4903188 156.7130349  34.0080190  52.8151256 147.9244124  42.2564259
  52.2704725 148.7003932  42.3884533  53.6930606 148.2714928  42.0983380
  59.6038873 141.2555707  34.6345057  59.7254784 140.3272354  34.8335945
  59.3140916 141.2694393  33.7223373  62.4730064 138.9410618  37.7711777
  62.4951760 139.0049951  36.8163757  62.8898123 138.1015126  37.9652283
  72.8513688 148.6765877  35.8091000  73.2944834 147.9273203  35.4110123
  71.9740198 148.6676014  35.4264732  67.9849469 155.2296219  31.2897598
  68.6800374 155.8502912  31.5084913  68.3272619 154.3791570  31.5649976
  53.6017278 147.0514020  45.1494416  52.8599014 147.1996655  45.7359046
  53.2810023 147.3122285  44.2861165  69.8840892 152.6795924  32.8184929
  70.4092216 153.0183197  32.0934249  69.7963245 151.7442940  32.6348064
  59.0155425 154.2905917  39.2502484  58.3935434 153.6276622  38.9504712
  59.6860292 154.3167049  38.5676132  59.0879953 142.7687705  48.8434990
  59.1368108 143.6449828  48.4612760  59.6302467 142.2265098  48.2706633
  69.5734798 153.3128828  48.1236127  68.7830342 153.2952967  47.5840626
  69.3368153 153.8517122  48.8785164  69.6932673 150.1621294  45.4368856
  69.7430678 149.9971302  46.3784378  69.5846597 149.2948553  45.0466736
  58.5768932 152.8409840  32.7260945  58.7257052 153.5245304  32.0727617
  59.3835376 152.8214930  33.2410400  66.9836436 146.1452222  46.7528162
  67.8846299 146.0058687  46.4612160  67.0584410 146.3106677  47.6926340
  61.3179241 143.5219077  45.5981349  60.4482551 143.8152643  45.3263937
  61.5538721 144.1059522  46.3188612  71.1950870 152.5818236  45.6810877
  70.9035679 152.9448216  46.5174338  70.5823002 151.8685244  45.5024209
  72.3946553 150.1471116  38.2013447  73.2293444 150.5860920  38.3651008
  72.5305681 149.6709769  37.3821693  69.4438058 147.7050851  44.1490935
  69.9192180 147.8978497  43.3409787  68.5203624 147.7610036  43.9034319
  56.3321565 148.8675018  33.7322013  56.0867607 147.9637348  33.9302224
  56.5017480 148.8692168  32.7901491  64.0218275 139.7398694  43.1146769
  64.5400219 140.4759721  42.7893258  63.6673408 140.0462687  43.9493528
  55.6017213 144.6003375  31.2308175  54.9086458 144.6747730  30.5748211
  55.3568965 143.8363719  31.7529692  64.2730869 136.1598977  38.6347666
  64.5532623 135.4922166  39.2608092  65.0581476 136.3528072  38.1222329
  62.0764338 155.3357971  30.1972692  61.5038305 155.9548158  29.7443164
  62.6497131 155.8857332  30.7312614  68.1439727 144.5816611  42.3819241
  69.0957150 144.6814708  42.4031465  67.9743178 143.7894879  42.8917325
  66.1654107 141.6672194  42.5678642  65.5704039 141.9477207  41.8725130
  65.8803804 142.1566095  43.3395383  65.2961597 155.6195121  31.3281274
  66.2292271 155.5540682  31.5314150  65.2084810 156.4551388  30.8695807
  67.9249614 154.9360991  28.2885222  67.8463246 154.6020855  29.1820980
  68.7459281 155.4282759  28.2876694  70.6227805 147.8022730  41.4961540
  70.5904125 146.8638731  41.6821224  71.2328429 147.8806767  40.7627365
  62.4611136 146.6718783  27.5388744  63.4070241 146.5424991  27.6077162
  62.0825381 145.9333445  28.0158173  70.7722294 144.5933774  41.5419824
  70.2561342 143.8092230  41.3549752  71.6562242 144.2652490  41.7066343
  68.4333021 138.3374789  37.5015636  68.2357842 138.0289878  38.3858968
  69.0432726 139.0636428  37.6313566  76.4404355 148.8638737  40.6367577
  77.1707744 148.6024025  41.1975281  75.8311301 148.1267459  40.6769645
  74.5219652 147.0046600  41.2342028  73.7952816 146.8702565  40.6258520
  74.1066939 147.3123428  42.0398746  62.3449829 150.7236529  48.9989401
  63.2652838 150.9015128  49.1929448  62.3099412 149.7792575  48.8469101
  60.6454053 144.5968760  27.4743630  59.7385509 144.3001872  27.5506343
  60.9230034 144.2998578  26.6077916  51.5631994 145.9175123  37.9242676
  51.2434778 145.0640431  37.6317050  51.0165422 146.1323701  38.6800643
  55.3411901 148.6337564  41.6412183  55.5597911 149.5654672  41.6600216
  55.7537675 148.2745539  42.4266986  62.2616119 139.1405649  33.6287871
  61.4516847 138.7952734  34.0043117  62.9500536 138.8313193  34.2175483
  64.1906667 138.2183696  35.2512168  64.7437706 138.6379150  35.9102191
  64.4276754 137.2919444  35.2935124  60.2139767 144.2070770  51.0314931
  60.1136493 145.1565127  50.9627023  59.9961309 143.8789009  50.1591002
  59.4152838 141.4555695  27.6155609  60.2772002 141.7810593  27.8751426
  59.6003182 140.6687191  27.1028675  51.4320254 149.5378035  39.8935798
  50.7383725 149.1231987  39.3805752  52.1793245 149.5798571  39.2969217
  67.5685474 140.3284221  34.7590832  66.9884143 140.9869025  34.3768884
  67.3021407 139.5061566  34.3478249  66.0189041 139.7289279  36.9612152
  66.5188819 139.8405814  36.1526471  66.6624649 139.4250332  37.6012961
  60.0771037 147.6367909  49.8479993  59.5938118 148.4368269  50.0543882
  60.1631976 147.6475854  48.8947437  53.3456996 149.4696288  37.7701813
  53.3227684 149.5683976  36.8183696  53.6557633 150.3161439  38.0918979
  56.0044374 151.5272443  41.8848427  56.9587628 151.4956386  41.8178358
  55.8056898 151.0663067  42.6998653  56.5943756 150.0973559  44.4519225
  57.4136645 150.5917638  44.4754062  56.8680564 149.1805528  44.4236792
  66.3510352 142.4884312  33.8147180  65.4636207 142.7733962  33.5967375
  66.7664341 142.3278075  32.9674457  69.7024889 142.5130833  37.5301519
  70.4785279 143.0027285  37.8026136  68.9773023 142.9388887  37.9873389
  72.1397447 143.2258452  38.5875460  72.7341938 142.9854188  37.8768768
  72.2124031 142.5065583  39.2148996  65.4953566 152.2528986  27.9095200
  66.1989416 152.4578989  28.5252856  64.7716215 152.8205748  28.1744284
  66.3251376 148.0038848  34.0297470  66.2686578 148.4607399  33.1905103
  66.8779719 147.2429532  33.8520313  70.1356182 143.7928580  34.8547590
  69.8793116 143.3925215  35.6855797  69.5109050 144.5072373  34.7297729
  74.4468520 146.5324653  37.3618881  73.8868078 146.6017842  38.1350443
  73.8412023 146.3565637  36.6418377  67.4040263 152.6911516  29.9593660
  68.2385867 152.2592714  29.7771135  67.2424606 152.5193529  30.8870555
  67.0586155 149.1943629  31.3249999  67.0034959 149.0287900  30.3838444
  66.4332211 149.9019662  31.4812189  51.8478670 144.4311693  45.1511422
  52.4937534 143.9210647  45.6398647  51.6395822 145.1680375  45.7254847
  64.3732063 151.4992541  50.6503562  65.2423222 151.6733193  50.2890197
  63.8938814 152.3186958  50.5279292  60.3682281 138.6951738  30.9035318
  60.3560951 139.6393578  31.0603589  61.2605703 138.5121883  30.6094779
  64.1834400 135.2894515  35.1581255  63.4166796 134.7353001  35.3037937
  64.5945105 135.3616383  36.0195406  56.1876161 141.5779310  49.2486436
  57.0507623 141.2216115  49.4589760  55.6141572 141.2393205  49.9361840
  80.9874234 160.8707854  38.0335023  81.7199406 160.3007071  38.2672853
  80.2313590 160.4829454  38.4741529  78.5099654 154.5829428  42.4929632
  78.1782979 155.4524839  42.2690847  77.9145268 154.2665712  43.1723662
  72.2455841 158.3224995  30.2259714  72.4130243 159.1905231  30.5930185
  72.0553010 158.4852277  29.3021004  78.4028318 159.3024514  39.5722982
  77.4945195 159.2339923  39.2781743  78.3515913 159.7796459  40.4004808
  80.2689964 157.5040952  41.3500856  79.6264344 157.7973486  40.7040651
  79.7644893 157.3893873  42.1554053  75.7101411 158.2705729  44.7062738
  75.4662343 159.0247789  44.1697014  75.9861341 158.6491076  45.5409986
  75.2666102 157.4262162  40.2876576  74.4050582 157.7243415  40.5793314
  75.2928537 157.6432561  39.3557609  86.8691695 164.0355045  37.9047333
  86.1155403 163.4662443  37.7491337  87.0039236 164.0017709  38.8517968
  68.7457662 154.9860027  50.2416407  68.3524608 154.4326226  50.9164052
  69.5623803 155.2970606  50.6322925  71.6625623 156.4017906  47.8336664
  72.4035337 157.0025059  47.7541126  71.8943546 155.6595544  47.2754707
  75.6082786 152.4299009  42.1100946  75.2647056 153.3200651  42.0340056
  75.9761749 152.2400667  41.2470531  73.1580180 157.2657321  35.6758619
  72.3021776 156.8764171  35.4964258  73.5707132 157.3449282  34.8158405
  74.6879327 154.8003664  40.0750179  74.1844122 154.7633799  39.2617984
  74.9809933 155.7096407  40.1346836  70.9322212 154.8842394  39.0816361
  71.7975209 154.6885203  38.7222250  70.9999721 154.6552746  40.0085717
  75.3619372 160.2934712  32.4433162  75.0569508 160.6080861  33.2943305
  76.3149814 160.3716132  32.4860495  68.5384531 157.1144602  36.4532727
  69.1128283 156.8919783  35.7205920  69.1255514 157.1833296  37.2061329
  70.8407199 153.9885851  35.1807797  70.1871612 153.6734868  34.5564412
  70.7987673 153.3661591  35.9067620  77.3058824 158.9116316  36.6176914
  76.5681581 158.3993702  36.9487157  77.5585598 158.4716698  35.8060191
  77.4070452 151.6892568  37.2118683  77.7129329 150.8289932  36.9244598
  78.1323057 152.2810188  37.0117677  69.1097966 158.1741777  41.0946488
  69.7497346 158.0330536  40.3969452  68.2775497 157.8876290  40.7185090
  73.4877080 156.1841800  45.0583960  72.8404995 156.8831749  44.9648437
  74.2578095 156.6177944  45.4260209  75.2353075 157.1517210  37.5623245
  75.7321775 156.3987172  37.2424316  74.4640056 157.1881527  36.9966455
  71.8188044 159.2934593  37.2894930  71.4485831 158.7405634  37.9775836
  72.3147136 158.6892727  36.7369930  77.6772070 154.1186804  39.7102604
  76.7635150 154.3491031  39.8784811  78.1065171 154.2025248  40.5616637
  67.2153377 156.7038584  43.5348036  67.2794704 157.5653415  43.1225434
  67.1520498 156.0912586  42.8020395  69.7991753 155.9948569  45.3707626
  70.3226155 156.2410865  46.1333935  69.5804086 156.8268603  44.9510763
  71.0044298 156.9362264  43.0557296  70.6641119 156.1370077  43.4577976
  70.2983305 157.2363975  42.4834129  71.6560770 154.0211576  41.5084619
  72.4786839 153.5472054  41.3863509  71.8998834 154.8002060  42.0083305
  70.2969005 157.0499835  31.8047521  71.0177367 157.4281087  31.3011238
  69.6734309 157.7688711  31.9082499  74.4400127 157.7544984  32.7405853
  74.6563742 158.6369621  32.4394681  73.9594195 157.3631197  32.0111495
  71.0395732 157.7033245  39.3657487  71.0257300 156.8074338  39.0289785
  71.7568160 157.7103909  39.9995773  72.8921862 158.1370585  41.4110615
  72.6339640 159.0587656  41.4094945  72.3606903 157.7401020  42.1011079
  70.4432628 156.5847625  34.6345057  70.5648539 155.6564271  34.8335945
  70.1534670 156.5986311  33.7223373  73.3123818 154.2702536  37.7711777
  73.3345515 154.3341869  36.8163757  73.7291877 153.4307044  37.9652283
  77.8230190 161.4744140  46.7528162  78.7240053 161.3350605  46.4612160
  77.8978165 161.6398595  47.6926340  72.1572996 158.8510995  45.5981349
  71.2876305 159.1444561  45.3263937  72.3932476 159.4351440  46.3188612
  74.8612029 155.0690612  43.1146769  75.3793973 155.8051639  42.7893258
  74.5067162 155.3754605  43.9493528  75.1124624 151.4890894  38.6347666
  75.3926377 150.8214083  39.2608092  75.8975231 151.6819990  38.1222329
  78.9833482 159.9108528  42.3819241  79.9350905 160.0106626  42.4031465
  78.8136932 159.1186797  42.8917325  77.0047861 156.9964112  42.5678642
  76.4097794 157.2769124  41.8725130  76.7197558 157.4858012  43.3395383
  81.6116048 159.9225691  41.5419824  81.0955097 159.1384148  41.3549752
  82.4955997 159.5944408  41.7066343  79.2726775 153.6666707  37.5015636
  79.0751596 153.3581795  38.3858968  79.8826481 154.3928346  37.6313566
  87.2798110 164.1930655  40.6367577  88.0101498 163.9315943  41.1975281
  86.6705055 163.4559377  40.6769645  85.3613407 162.3338517  41.2342028
  84.6346570 162.1994482  40.6258520  84.9460694 162.6415346  42.0398746
  73.1009873 154.4697567  33.6287871  72.2910602 154.1244652  34.0043117
  73.7894290 154.1605111  34.2175483  75.0300422 153.5475614  35.2512168
  75.5831460 153.9671067  35.9102191  75.2670508 152.6211362  35.2935124
  70.2546592 156.7847613  27.6155609  71.1165756 157.1102511  27.8751426
  70.4396937 155.9979108  27.1028675  78.4079229 155.6576139  34.7590832
  77.8277898 156.3160943  34.3768884  78.1415162 154.8353484  34.3478249
  76.8582795 155.0581197  36.9612152  77.3582574 155.1697731  36.1526471
  77.5018403 154.7542250  37.6012961  77.1904107 157.8176229  33.8147180
  76.3029962 158.1025880  33.5967375  77.6058096 157.6569993  32.9674457
  80.5418643 157.8422750  37.5301519  81.3179033 158.3319203  37.8026136
  79.8166777 158.2680805  37.9873389  82.9791202 158.5550370  38.5875460
  83.5735692 158.3146106  37.8768768  83.0517785 157.8357500  39.2148996
  80.9749937 159.1220497  34.8547590  80.7186871 158.7217133  35.6855797
  80.3502805 159.8364291  34.7297729  85.2862274 161.8616570  37.3618881
  84.7261832 161.9309760  38.1350443  84.6805778 161.6857555  36.6418377
  71.2076035 154.0243656  30.9035318  71.1954705 154.9685496  31.0603589
  72.0999457 153.8413801  30.6094779  75.0228155 150.6186432  35.1581255
  74.2560551 150.0644919  35.3037937  75.4338860 150.6908301  36.0195406
  67.0269916 156.9071228  49.2486436  67.8901377 156.5508033  49.4589760
  66.4535327 156.5685123  49.9361840   8.2871502  49.3454063  32.6741874
   8.2760143  48.9506861  31.8022377   8.4492141  48.6120136  33.2675645
   5.0078763  52.1291175  31.6221058   4.7168629  53.0336806  31.5067724
   5.6435747  52.1707703  32.3365127   9.9668648  51.8152590  28.6170851
   9.6669371  52.7177629  28.5086659   9.6219708  51.5484774  29.4692004
   7.4406658  45.7524776  34.2403186   6.6639992  46.3118696  34.2306051
   8.0797221  46.2381559  34.7618056   5.6953030  48.5610230  33.8021153
   6.4367714  49.0995274  33.5255977   4.9890016  49.1876518  33.9592705
  11.1708370  50.7039370  32.3993315  11.5791726  50.2621781  31.6547947
  10.4485631  50.1291998  32.6527507  10.6738885  43.3016345  31.4308045
  10.4299817  44.0558406  30.8942321  10.9498816  43.6801693  32.2655292
  12.6277348  49.8454958  30.1085311  12.8394243  50.4886717  29.4319692
  12.5807096  49.0117274  29.6407241   4.4314394  45.7149878  34.6036463
   3.8013054  46.3966159  34.8371860   4.3250482  45.6032959  33.6589601
  13.7423176  52.7226913  28.2807668  14.5640620  52.3207100  27.9990350
  13.7385579  52.6195147  29.2323784   7.5079779  52.2710956  30.4368379
   7.5724212  52.7331363  31.2726550   6.7990703  51.6408321  30.5650688
  21.8329169  49.0665661  24.6292639  21.0792877  48.4973060  24.4736644
  21.9676710  49.0328326  25.5763274   3.7095137  40.0170644  36.9661714
   3.3162082  39.4636842  37.6409358   4.5261277  40.3281222  37.3568232
   8.8496273  54.5602630  34.4347701   8.4060127  53.7739009  34.1168605
   9.5113487  54.7481781  33.7691592   3.6083394  56.0898432  28.9608379
   4.1590820  55.9615495  28.1885373   2.7694870  56.3893321  28.6103272
  10.9477511  54.8405430  32.4629102  10.9295987  55.6614311  31.9709371
  11.8697431  54.7159505  32.6879243   7.4050566  52.3549560  33.3052611
   7.9378902  51.5937848  33.0751919   6.8764647  52.0623211  34.0476765
  10.1795577  46.0975862  31.0345454  10.5344965  46.3247335  31.8939920
  10.8267709  46.4294239  30.4122709  15.9362694  51.2870825  26.7506054
  16.3699201  51.1946114  27.5989108  16.6494275  51.2628325  26.1126070
   9.6690589  54.8872919  28.2839155   9.7227611  55.4563855  29.0516871
   8.8005370  55.0574804  27.9193192  16.7978244  51.3294526  29.2838940
  16.9914134  52.2340336  29.5298215  16.6978862  50.8701945  30.1177525
  11.8593352  51.4801268  34.8579820  11.7078859  51.2511820  33.9409904
  11.8498032  52.4371870  34.8711165   8.6278689  49.0533181  29.8426087
   9.5570749  49.2044341  29.6695054   8.2069719  49.1417202  28.9874733
   7.4267020  53.0783846  27.6124624   7.2878106  52.7102630  28.4850563
   6.6381617  53.5931485  27.4408582  13.5685559  54.5120391  32.9356302
  13.5098105  53.8279611  32.2686885  13.9705077  55.2539381  32.4836928
   2.5876258  61.3282305  25.7290021   2.8272856  61.9600829  26.4069040
   1.7445454  60.9770345  26.0155380  13.5702966  52.4759975  31.1670282
  12.6829745  52.1385897  31.2896681  14.1401517  51.7443006  31.4039047
   7.1004120  57.1361427  28.1331525   7.0274291  57.9416399  28.6450830
   6.6581513  57.3353393  27.3079546   9.5602803  57.0348261  30.2889684
  10.2730775  57.6695726  30.2165585   9.0692832  57.1312127  29.4729686
   4.6114717  54.7842705  31.1095255   5.3124176  55.4179188  31.2624649
   4.1409832  55.1257436  30.3490894  12.4116003  47.3387312  28.9347805
  11.7587453  47.5863220  28.2800258  12.7896382  46.5251450  28.6010282
   8.4603576  48.0807123  35.4213842   7.7844213  47.9801253  36.0916217
   9.2831209  47.9246337  35.8849839   7.2026358  59.3874051  29.6571458
   7.7544667  59.5505672  30.4220543   7.5432552  59.9778488  28.9851483
  12.0537233  54.2135308  35.5120112  12.5977137  54.8265266  35.0175067
  11.4724078  54.7714887  36.0287125  10.3394746  57.3356026  26.6435140
  10.2145885  56.5345766  26.1346086  10.9973837  57.8302220  26.1549110
  12.4029654  55.1365046  28.2714690  11.4559990  55.0170397  28.1993017
  12.7512427  54.2487544  28.3540952  13.0110209  55.7546321  25.5583915
  13.9356757  55.5489183  25.4208366  12.8425513  55.5062722  26.4673257
   7.3492170  56.9532532  31.6720112   7.6579296  56.7081679  32.5442812
   8.1467652  57.1579171  31.1838983   7.3712782  59.1070442  23.9025489
   6.9317772  58.6146821  24.5958346   8.1220899  58.5643410  23.6617564
   4.8911181  43.1290239  35.5680297   4.9399337  44.0052362  35.1858066
   5.4333696  42.5867632  34.9951940  15.3766027  53.6731362  34.8481434
  14.5861571  53.6555501  34.3085933  15.1399382  54.2119656  35.6030470
  15.4963902  50.5223829  32.1614162  15.5461907  50.3573836  33.1029685
  15.3877826  49.6551088  31.7712043  12.7867665  46.5054757  33.4773469
  13.6877527  46.3661222  33.1857467  12.8615639  46.6709211  34.4171646
  16.9982099  52.9420770  32.4056184  16.7066907  53.3050751  33.2419645
  16.3854230  52.2287778  32.2269516  18.1977781  50.5073650  24.9258754
  19.0324673  50.9463454  25.0896314  18.3336910  50.0312303  24.1067000
  15.2469287  48.0653385  30.8736242  15.7223409  48.2581031  30.0655093
  14.3234853  48.1212571  30.6279625  13.9470956  44.9419145  29.1064547
  14.8988379  45.0417243  29.1276771  13.7774407  44.1497413  29.6162632
  16.4259034  48.1625265  28.2206847  16.3935354  47.2241265  28.4066531
  17.0359658  48.2409301  27.4872672  22.2435584  49.2241271  27.3612884
  22.9738972  48.9626560  27.9220587  21.6342529  48.4869993  27.4014952
  20.3250881  47.3649134  27.9587335  19.5984045  47.2305099  27.3503827
  19.9098168  47.6725963  28.7644053   8.1481057  51.0839064  35.7234708
   9.0684067  51.2617663  35.9174755   8.1130641  50.1395109  35.5714407
   6.0170995  44.5673304  37.7560238   5.9167722  45.5167661  37.6872329
   5.7992537  44.2391543  36.8836308   5.8802265  47.9970443  36.5725300
   5.3969347  48.7970803  36.7789189   5.9663204  48.0078388  35.6192744
   2.3974985  50.4576094  31.1764531   3.2167874  50.9520172  31.1999369
   2.6711793  49.5408062  31.1482099   3.3194958  58.3263914  25.8382374
   3.2027342  59.2709347  25.7361064   2.4987404  58.0237476  26.2268173
  10.1763291  51.8595075  37.3748869  11.0454451  52.0335727  37.0135504
   9.6970043  52.6789492  37.2524598   4.3449472  58.9792176  29.0538303
   5.2476718  59.0115786  29.3704797   4.1186842  58.0492627  29.0684638
   6.1003074  57.7323163  25.7148381   5.1498705  57.7325024  25.6012753
   6.4035560  56.9855897  25.1984416   1.9907390  41.9381845  35.9731743
   2.8538852  41.5818649  36.1835067   1.4172801  41.5995739  36.6607147
  21.8355767  63.5683701  26.7794144  22.4734177  63.4490448  26.0757484
  21.7176610  64.5164545  26.8382096  18.6445473  63.5211129  26.7155668
  18.3063985  63.4052194  25.8276203  19.5135242  63.1202294  26.6956674
  14.5032289  65.3746605  22.7052559  13.9397154  65.2836542  21.9368847
  14.3884684  64.5546510  23.1855052  19.1265256  64.6745981  32.6741874
  19.1153897  64.2798779  31.8022377  19.2885896  63.9412053  33.2675645
  12.0496721  66.8697797  25.5436780  12.8418013  66.5288622  25.1283079
  12.2893371  66.9792772  26.4638933  20.0831848  69.0417573  18.0167024
  19.4319828  69.6271654  17.6301038  20.8776211  69.5723768  18.0762062
  14.0087475  66.1306710  18.4154158  14.7818351  65.5835697  18.2767034
  14.3612874  66.9950960  18.6268620  15.8472518  67.4583093  31.6221058
  15.5562384  68.3628723  31.5067724  16.4829502  67.4999620  32.3365127
  16.7728724  64.8359941  28.2122417  17.3692297  64.6115964  27.4979380
  16.8303696  64.0944687  28.8147865  21.3897036  61.2935155  23.8547352
  22.1760125  60.8754578  23.5037769  21.6535740  62.1981247  24.0229000
  21.5607113  66.7308005  18.5536008  20.9252946  66.8042632  19.2656913
  21.2304519  67.3201604  17.8755088  26.7905463  61.2310388  24.7580330
  27.5230635  60.6609605  24.9918160  26.0344818  60.8431988  25.1986836
  16.0650042  64.1927482  18.2496983  15.9486300  63.5172386  18.9178068
  16.1752301  63.7059856  17.4329136  18.4081583  63.6537630  21.9543673
  18.0439790  63.1268250  22.6656594  19.2648698  63.2636099  21.7810158
  24.3130883  54.9431962  29.2174939  23.9814208  55.8127373  28.9936154
  23.7176497  54.6268246  29.8968969  20.8062403  67.1444508  28.6170851
  20.5063126  68.0469547  28.5086659  20.4613462  66.8776691  29.4692004
  14.2574884  63.5958305  24.6507556  13.3325381  63.4634519  24.8585248
  14.5059297  64.3752524  25.1477498  24.2059546  59.6627048  26.2968289
  23.2976424  59.5942457  26.0027050  24.1547142  60.1398993  27.1250114
  11.6183695  63.2391578  25.4851345  11.7476076  63.4926057  26.3990757
  10.9381146  63.8319286  25.1656000  15.7883182  73.9088828  21.5841819
  15.7107212  74.8596654  21.6630300  15.1844826  73.5634701  22.2416745
  18.2800412  61.0816694  34.2403186  17.5033746  61.6410614  34.2306051
  18.9190975  61.5673477  34.7618056  26.0721193  57.8643487  28.0746163
  25.4295573  58.1576020  27.4285957  25.5676121  57.7496407  28.8799359
  23.7261357  61.6106660  18.7632022  24.6379213  61.8434047  18.5879719
  23.2171004  62.1943704  18.2007101  16.5346785  63.8902147  33.8021153
  17.2761469  64.4287191  33.5255977  15.8283770  64.5168436  33.9592705
  22.0102124  66.0331288  32.3993315  22.4185480  65.5913698  31.6547947
  21.2879386  65.4583915  32.6527507  18.3633194  60.9703894  29.7726871
  19.2094389  61.3943308  29.9161520  18.3031832  60.3137519  30.4665435
  22.3330939  66.5932478  26.1545603  21.7039801  66.7578192  25.4521671
  21.9456601  67.0074088  26.9256567  26.2120171  67.5286916  23.5089967
  25.5271209  67.9085818  22.9587000  26.2964020  68.1382243  24.2421915
  21.5132640  58.6308263  31.4308045  21.2693571  59.3850323  30.8942321
  21.7892570  59.0093610  32.2655292  23.4671102  65.1746875  30.1085311
  23.6787998  65.8178635  29.4319692  23.4200851  64.3409192  29.6407241
  21.0697331  57.7864696  27.0121883  20.2081810  58.0845949  27.3038620
  21.0959766  58.0035095  26.0802915  17.8858901  66.3306886  23.4195688
  18.3497246  66.6094589  22.6300311  17.6215699  65.4290331  23.2368779
  14.7782982  65.8778368  26.3575452  15.3484339  66.3065636  25.7192936
  15.3691094  65.5960953  27.0559637  16.8227787  62.4530039  20.2285254
  17.5251830  62.9051082  20.6959180  16.4908415  61.8113858  20.8565147
  15.2708148  61.0441795  34.6036463  14.6406809  61.7258076  34.8371860
  15.1644236  60.9324877  33.6589601  10.5653121  60.7113591  25.5302387
   9.7752175  60.9671120  25.0542498  11.0564368  61.5261929  25.6354428
  24.5816930  68.0518831  28.2807668  25.4034374  67.6499018  27.9990350
  24.5779333  67.9487065  29.2323784  12.5167866  61.0758171  22.4885864
  11.7199029  61.1876865  23.0069360  12.2893458  61.4144823  21.6226754
  18.3473534  67.6002874  30.4368379  18.4117966  68.0623281  31.2726550
  17.6384458  66.9700239  30.5650688   8.8490824  60.9644082  27.9617378
   9.0998862  61.8491092  28.2274954   9.3850372  60.7848683  27.1892470
  32.6722923  64.3957579  24.6292639  31.9186632  63.8264977  24.4736644
  32.8070465  64.3620244  25.5763274  18.0621551  69.2670981  20.3047359
  17.9267226  70.1122517  20.7332207  18.6031364  69.4690259  19.5413293
  14.5488891  55.3462561  36.9661714  14.1555837  54.7928760  37.6409358
  15.3655031  55.6573140  37.3568232  11.5150949  66.7846419  20.8775284
  12.0275469  67.5789670  21.0280849  12.1673662  66.0872710  20.8108885
  13.3245833  69.9012176  22.9598037  13.5012462  70.8230140  22.7719021
  14.1202667  69.5870595  23.3892417  17.4656852  56.7620440  34.5581971
  18.2066565  57.3627593  34.4786433  17.6974775  56.0198078  34.0000013
  12.6098190  61.9476808  32.8360200  12.4951705  61.0462065  33.1367299
  11.7542708  62.1940504  32.4845017  19.6890028  69.8894548  34.4347701
  19.2453882  69.1030926  34.1168605  20.3507241  70.0773698  33.7691592
  14.4477149  71.4190350  28.9608379  14.9984574  71.2907413  28.1885373
  13.6088625  71.7185239  28.6103272  21.7871266  70.1697348  32.4629102
  21.7689741  70.9906229  31.9709371  22.7091186  70.0451423  32.6879243
  18.2444320  67.6841477  33.3052611  18.7772657  66.9229766  33.0751919
  17.7158401  67.3915129  34.0476765  21.4114015  52.7901543  28.8346252
  21.0678284  53.6803185  28.7585363  21.7792978  52.6003201  27.9715837
   9.4799866  65.1135074  21.6534854  10.3175088  65.5232082  21.4368562
   9.6578133  64.1734516  21.6235048  21.3764298  62.7810154  17.3418687
  20.8610921  63.5514759  17.5807075  21.1041606  62.1075291  17.9651749
  18.9611409  57.6259855  22.4003926  18.1053005  57.2366706  22.2209564
  19.3738360  57.7051816  21.5403711  20.4910555  55.1606198  26.7995486
  19.9875351  55.1236334  25.9863291  20.7841162  56.0698941  26.8592142
  16.7353441  55.2444928  25.8061667  17.6006438  55.0487737  25.4467557
  16.8030950  55.0155280  26.7331024  26.3498572  65.5342509  19.2771861
  25.5728015  65.1953669  18.8327023  27.0290053  65.5395132  18.6026826
  21.1650601  60.6537246  19.1678469  20.8600736  60.9683396  20.0188612
  22.1181043  60.7318666  19.2105802  19.6097033  66.8127470  20.8171423
  19.0818394  66.0780229  20.5044660  19.1084535  67.5902146  20.5711391
  24.5889879  65.0076490  25.9338469  23.9313553  65.6975752  26.0218598
  25.3930278  65.3972922  26.2772455  14.3415760  57.4747136  23.1778034
  14.9159512  57.2522318  22.4451227  14.9286743  57.5435831  23.9306635
  23.3995338  63.3620863  23.9842411  23.9127219  63.9950855  24.4864120
  24.0496561  62.7622058  23.6185771  20.6617712  73.3405187  16.7403082
  19.9879411  73.6436884  17.3488040  21.0483534  74.1434268  16.3908539
  19.8776168  60.8370319  26.2300751  18.9598730  61.0585266  26.0722439
  20.2936312  60.9116629  25.3712458  20.6611216  62.2361734  21.3603431
  21.4083035  62.7483131  21.0510553  20.9302806  61.9145787  22.2207825
  18.9337866  64.7320275  18.3430386  18.0249086  64.4479308  18.4402855
  18.9632950  65.1519354  17.4833693  24.1657134  68.3426864  22.1121553
  23.7119461  67.5017774  22.1686744  23.5351100  68.9788263  22.4496333
  23.1090053  59.2718850  23.3422221  22.3712810  58.7596237  23.6732463
  23.3616827  58.8319232  22.5305498  22.6090073  70.1803361  23.0471371
  22.9013047  70.7408418  22.3283737  23.1188694  70.4731922  23.8024531
  23.2101681  52.0495102  23.9363990  23.5160557  51.1892466  23.6489905
  23.9354285  52.6412723  23.7362984   9.5026037  62.4525789  22.3245588
   9.3050437  61.8595150  21.5996654   8.9472701  62.1477999  23.0421527
  17.4822760  62.3448896  24.4440181  17.5371370  61.3922732  24.3682658
  16.6713962  62.5008335  24.9281479  18.6313954  66.2729019  15.6818464
  18.1933384  65.5564878  15.2224102  19.3724395  66.5005133  15.1203556
  15.4215120  60.9625955  22.2030560  14.6082986  61.2620126  22.6095752
  15.9174114  60.5681644  22.9205042  17.5723698  70.9583712  24.1364825
  17.5299877  71.1844559  23.2073357  18.4886397  70.7247087  24.2850626
  21.0189332  61.4267780  31.0345454  21.3738720  61.6539253  31.8939920
  21.6661463  61.7586157  30.4122709  26.7487069  64.5486216  21.7394783
  26.6104967  64.7387812  20.8115972  26.3923288  65.3105598  22.1962834
  14.9129195  58.5344311  27.8191795  15.5528574  58.3933070  27.1214758
  14.0806726  58.2478824  27.4430397  26.7756448  66.6162743  26.7506054
  27.2092955  66.5238032  27.5989108  27.4888029  66.5920243  26.1126070
  15.6889499  67.8346741  23.9326787  16.4830097  67.3397061  23.7309362
  14.9781191  67.3064604  23.5694493  20.5084343  70.2164837  28.2839155
  20.5621366  70.7855773  29.0516871  19.6399125  70.3866722  27.9193192
  11.9157811  58.5044636  22.5964782  12.1764629  59.4189969  22.4873942
  12.7374984  58.0369078  22.7461394  13.3882737  59.9182393  29.7663606
  14.0605790  59.7099755  29.1176255  12.5612523  59.7204479  29.3268838
  27.6371998  66.6586443  29.2838940  27.8307888  67.5632254  29.5298215
  27.5372616  66.1993862  30.1177525  19.2908309  56.5444334  31.7829267
  18.6436224  57.2434284  31.6893743  20.0609324  56.9780478  32.1505515
  22.6987107  66.8093186  34.8579820  22.5472613  66.5803738  33.9409904
  22.6891786  67.7663787  34.8711165  19.4672443  64.3825099  29.8426087
  20.3964503  64.5336258  29.6695054  19.0463473  64.4709120  28.9874733
  18.2660775  68.4075763  27.6124624  18.1271861  68.0394548  28.4850563
  17.4775371  68.9223403  27.4408582  18.8608927  73.5084860  18.9550161
  19.0360683  73.0372903  19.7695784  18.1741715  74.1350626  19.1831422
  19.8165990  67.7857366  25.0013462  19.4815823  67.7458136  25.8971112
  19.3169936  67.1202082  24.5283872  13.7910234  63.1924996  30.5266043
  13.6530032  62.4605235  31.1277582  14.7015158  63.1033896  30.2450231
  22.7525182  65.1313400  15.2750522  22.1354352  64.4060228  15.1783575
  22.2841670  65.8922761  14.9317596  16.4192535  62.9044955  30.0149723
  17.1292153  62.2638147  29.9736341  16.3761843  63.1557850  30.9375904
  24.4079313  69.8412309  32.9356302  24.3491860  69.1571529  32.2686885
  24.8098832  70.5831299  32.4836928  15.1321469  59.8910173  31.8345362
  14.5958826  59.4400912  32.4866959  14.5438177  60.0256082  31.0915827
  13.4270012  76.6574222  25.7290021  13.6666610  77.2892747  26.4069040
  12.5839209  76.3062262  26.0155380  24.4096721  67.8051893  31.1670282
  23.5223499  67.4677814  31.2896681  24.9795272  67.0734924  31.4039047
   6.0625868  64.1375984  24.4913333   6.7496908  63.8237714  23.9034349
   5.9073996  65.0417349  24.2180585  10.8660590  59.0266181  28.9198357
  10.7818779  58.4191850  28.1848767  10.0443296  59.5175199  28.9207853
  17.9397874  72.4653345  28.1331525  17.8668046  73.2708316  28.6450830
  17.4975267  72.6645311  27.3079546  17.7287654  71.7025115  21.6434347
  16.9455176  72.2446795  21.7372571  18.4280399  72.2199095  22.0428588
  21.0384304  57.5119744  24.2868552  21.5353003  56.7589707  23.9669622
  20.2671285  57.5484061  23.7211761  28.8914061  63.2160110  25.9286844
  28.8803937  64.0984825  25.5580777  28.0231441  62.8631661  25.7341381
  20.3996558  72.3640179  30.2889684  21.1124530  72.9987644  30.2165585
  19.9086586  72.4604045  29.4729686  22.1214084  66.2691432  21.8606975
  21.1870363  66.3892894  21.6911680  22.2990753  65.3663898  21.5966985
  17.6219273  59.6537127  24.0140237  17.2517060  59.1008168  24.7021142
  18.1178365  59.0495261  23.4615237  25.5086636  62.1108751  22.3957010
  25.9747088  62.9436742  22.3217312  25.9594136  61.6453732  23.1002268
  15.4508471  70.1134622  31.1095255  16.1517931  70.7471105  31.2624649
  14.9803586  70.4549354  30.3490894  23.5762867  68.4552572  19.3943162
  23.8522711  68.3409167  20.3037036  22.7067366  68.0570057  19.3555335
  23.4803299  54.4789338  26.4347911  22.5666378  54.7093565  26.6030118
  23.9096400  54.5627782  27.2861943  23.2509757  62.6679230  28.9347805
  22.5981207  62.9155137  28.2800258  23.6290137  61.8543368  28.6010282
  20.2116931  72.7038923  23.0375975  20.3939325  71.8860579  23.5003728
  21.0349917  72.9206615  22.6000865  20.5459096  71.6307108  20.2991024
  21.0746863  71.1199563  19.6861186  20.8087316  71.3149638  21.1636557
  19.2997330  63.4099041  35.4213842  18.6237967  63.3093170  36.0916217
  20.1224964  63.2538255  35.8849839  11.0476189  69.6470977  28.0426357
  11.6329626  68.9014665  28.1754261  10.8501028  69.9574934  28.9263021
  13.9014844  72.6822225  23.0588800  13.2325220  73.1668352  22.5752840
  13.7627714  72.9291445  23.9732178   5.6393844  62.2176578  26.7630800
   5.6777943  61.6840168  27.5567919   5.1334137  61.6911783  26.1441778
  18.0420113  74.7165968  29.6571458  18.5938421  74.8797590  30.4220543
  18.3826306  75.3070406  28.9851483  13.0184606  57.0641118  30.2593343
  13.0825933  57.9255949  29.8470740  12.9551726  56.4515120  29.5265701
  12.4936879  59.1364251  33.9066377  13.1208918  58.7541328  34.5203901
  11.6364798  58.9178453  34.2722069  22.8930987  69.5427226  35.5120112
  23.4370891  70.1557184  35.0175067  22.3117832  70.1006804  36.0287125
  21.1788500  72.6647944  26.6435140  21.0539640  71.8637684  26.1346086
  21.8367591  73.1594137  26.1549110  12.7996668  59.0196676  25.8212280
  12.0783254  59.6332644  25.6819754  13.5889924  59.5554441  25.7428926
  23.2423409  70.4656964  28.2714690  22.2953744  70.3462315  28.1993017
  23.5906182  69.5779462  28.3540952  15.6022982  56.3551103  32.0952932
  16.1257384  56.6013399  32.8579241  15.3835315  57.1871138  31.6756069
  20.2469842  70.2609680  24.4719042  20.0994804  69.3326388  24.6526613
  21.0723335  70.2829771  23.9876118  23.8503964  71.0838239  25.5583915
  24.7750511  70.8781100  25.4208366  23.6819267  70.8354640  26.4673257
  16.8075527  57.2964798  29.7802603  16.4672347  56.4972611  30.1823283
  16.1014533  57.5966509  29.2079436  17.4591999  54.3814110  28.2329926
  18.2818068  53.9074589  28.1108816  17.7030062  55.1604594  28.7328612
  14.9830578  61.0733231  26.0421904  14.8375158  61.3873534  26.9346186
  14.5055781  61.6918131  25.4892803  16.8426961  58.0635779  26.0902794
  16.8288529  57.1676872  25.7535092  17.5599389  58.0706443  26.7241080
  18.6953091  58.4973119  28.1355921  18.4370869  59.4190190  28.1340252
  18.1638132  58.1003554  28.8256385  23.6399280  71.6023906  20.9146007
  23.8136158  71.0370329  20.1619859  24.1328171  72.4024801  20.7325497
   9.4576240  63.6138575  28.9809566   8.9129708  64.3898383  29.1129840
  10.3355590  63.9609380  28.8228687  19.1155047  54.6305070  24.4957084
  19.1376744  54.6944403  23.5409063  19.5323106  53.7909578  24.6897590
  29.4938671  64.3660329  22.5336306  29.9369817  63.6167655  22.1355430
  28.6165181  64.3570466  22.1510038  24.6274452  70.9190671  18.0142905
  25.3225357  71.5397363  18.2330220  24.9697603  70.0686022  18.2895283
  10.2442262  62.7408472  31.8739722   9.5023998  62.8891107  32.4604353
   9.9235006  63.0016737  31.0106472  26.5265876  68.3690376  19.5430236
  27.0517200  68.7077649  18.8179556  26.4388228  67.4337392  19.3593370
  18.1885924  72.2824450  31.6720112  18.4973051  72.0373597  32.5442812
  18.9861406  72.4871088  31.1838983  18.2106536  74.4362360  23.9025489
  17.7711527  73.9438738  24.5958346  18.9614653  73.8935327  23.6617564
  10.6898875  70.6273900  23.9050117  11.5156895  70.3277672  23.5248761
  10.3392927  69.8581523  24.3539906  15.6580408  69.9800369  25.9747791
  15.0360418  69.3171074  25.6750018  16.3285275  70.0061501  25.2921438
   8.8907480  68.5460227  24.8639051   8.0539389  68.1182401  24.6823052
   8.8631126  68.7392670  25.8009842  15.7304936  58.4582157  35.5680297
  15.7793091  59.3344279  35.1858066  16.2727450  57.9159550  34.9951940
  26.2159782  69.0023280  34.8481434  25.4255325  68.9847419  34.3085933
  25.9793136  69.5411574  35.6030470  26.3357657  65.8515746  32.1614162
  26.3855662  65.6865754  33.1029685  26.2271580  64.9843005  31.7712043
  15.2193915  68.5304292  19.4506251  15.3682036  69.2139756  18.7972924
  16.0260359  68.5109382  19.9655707  23.6261419  61.8346674  33.4773469
  24.5271282  61.6953139  33.1857467  23.7009394  62.0001129  34.4171646
  17.9604224  59.2113529  32.3226655  17.0907534  59.5047095  32.0509244
  18.1963705  59.7953974  33.0433919  27.8375854  68.2712688  32.4056184
  27.5460662  68.6342668  33.2419645  27.2247985  67.5579696  32.2269516
  29.0371536  65.8365568  24.9258754  29.8718427  66.2755372  25.0896314
  29.1730665  65.3604221  24.1067000  26.0863042  63.3945302  30.8736242
  26.5617163  63.5872949  30.0655093  25.1628607  63.4504488  30.6279625
  12.9746548  64.5569470  20.4567320  12.7292590  63.6531800  20.6547530
  13.1442463  64.5586620  19.5146798  20.6643258  55.4293146  29.8392076
  21.1825202  56.1654173  29.5138564  20.3098391  55.7357139  30.6738835
  20.9155852  51.8493429  25.3592972  21.1957606  51.1816618  25.9853399
  21.7006459  52.0422524  24.8467636  18.7189321  71.0252422  16.9217999
  18.1463288  71.6442610  16.4688470  19.2922115  71.5751784  17.4557921
  24.7864711  60.2711063  29.1064547  25.7382134  60.3709160  29.1276771
  24.6168161  59.4789331  29.6162632  22.8079090  57.3566646  29.2923948
  22.2129022  57.6371658  28.5970437  22.5228787  57.8460547  30.0640689
  21.9386581  71.3089573  18.0526581  22.8717254  71.2435134  18.2559456
  21.8509794  72.1445839  17.5941114  24.5674597  70.6255443  15.0130528
  24.4888229  70.2915307  15.9066286  25.3884264  71.1177211  15.0122001
  27.2652789  63.4917182  28.2206847  27.2329109  62.5533183  28.4066531
  27.8753412  63.5701219  27.4872672  27.4147277  60.2828226  28.2665130
  26.8986326  59.4986682  28.0795059  28.2987226  59.9546942  28.4311650
  25.0758004  54.0269241  24.2260943  24.8782825  53.7184329  25.1104275
  25.6857710  54.7530880  24.3558873  33.0829338  64.5533189  27.3612884
  33.8132727  64.2918477  27.9220587  32.4736284  63.8161911  27.4014952
  31.1644636  62.6941052  27.9587335  30.4377799  62.5597017  27.3503827
  30.7491922  63.0017880  28.7644053  18.9874812  66.4130981  35.7234708
  19.9077821  66.5909580  35.9174755  18.9524395  65.4687027  35.5714407
   8.2056977  61.6069575  24.6487983   7.8859761  60.7534883  24.3562357
   7.6590405  61.8218153  25.4045950  11.9836885  64.3232016  28.3657489
  12.2022894  65.2549124  28.3845523  12.3962658  63.9639990  29.1512293
  20.8331651  53.9078148  21.9757474  21.3862689  54.3273602  22.6347497
  21.0701737  52.9813896  22.0180430  16.8564750  59.8965222  37.7560238
  16.7561477  60.8459579  37.6872329  16.6386292  59.5683461  36.8836308
   8.0745237  65.2272486  26.6181104   7.3808708  64.8126439  26.1051059
   8.8218228  65.2693023  26.0214523  24.2110458  56.0178673  21.4836138
  23.6309127  56.6763477  21.1014191  23.9446390  55.1956018  21.0723556
  22.6614024  55.4183731  23.6857459  23.1613802  55.5300266  22.8771778
  23.3049632  55.1144784  24.3258267  16.7196020  63.3262361  36.5725300
  16.2363102  64.1262721  36.7789189  16.8056959  63.3370305  35.6192744
   9.9881979  65.1590740  24.4947119   9.9652668  65.2578428  23.5429002
  10.2982616  66.0055891  24.8164285  12.6469357  67.2166895  28.6093734
  13.6012611  67.1850838  28.5423665  12.4481881  66.7557519  29.4243959
  13.2368739  65.7868011  31.1764531  14.0561628  66.2812090  31.1999369
  13.5105547  64.8699979  31.1482099  22.9935336  58.1778764  20.5392487
  22.1061191  58.4628414  20.3212681  23.4089325  58.0172527  19.6919764
  26.3449872  58.2025285  24.2546826  27.1210262  58.6921737  24.5271443
  25.6198006  58.6283339  24.7118695  28.7822430  58.9152904  25.3120767
  29.3766921  58.6748640  24.6014075  28.8549014  58.1960034  25.9394303
  11.0019586  72.7586515  25.6263931  10.8674054  71.9986916  25.0601929
  10.5851648  73.4827415  25.1592720  22.1378549  67.9423438  14.6340507
  22.8414399  68.1473441  15.2498162  21.4141198  68.5100200  14.8989590
  22.9676359  63.6933300  20.7542777  22.9111561  64.1501851  19.9150409
  23.5204702  62.9323984  20.5765620  26.7781165  59.4823031  21.5792896
  26.5218100  59.0819667  22.4101104  26.1534033  60.1966825  21.4543036
  31.0893503  62.2219105  24.0864188  30.5293061  62.2912294  24.8595750
  30.4837007  62.0460089  23.3663684  14.1588712  73.6555832  25.8382374
  14.0421096  74.6001264  25.7361064  13.3381158  73.3529393  26.2268173
  24.0465247  68.3805968  16.6838967  24.8810850  67.9487166  16.5016442
  23.8849589  68.2087981  17.6115861  23.7011139  64.8838081  18.0495306
  23.6459943  64.7182352  17.1083750  23.0757194  65.5914114  18.2057496
   8.4903654  60.1206145  31.8756728   9.1362517  59.6105099  32.3643953
   8.2820805  60.8574827  32.4500154  21.0157046  67.1886993  37.3748869
  21.8848206  67.3627645  37.0135504  20.5363797  68.0081410  37.2524598
  15.1843226  74.3084094  29.0538303  16.0870473  74.3407704  29.3704797
  14.9580596  73.3784545  29.0684638  16.9396828  73.0615080  25.7148381
  15.9892459  73.0616942  25.6012753  17.2429314  72.3147815  25.1984416
  12.8301145  57.2673762  35.9731743  13.6932606  56.9110567  36.1835067
  12.2566555  56.9287657  36.6607147  32.6749522  78.8975619  26.7794144
  33.3127932  78.7782366  26.0757484  32.5570365  79.8456463  26.8382096
  29.4839228  78.8503047  26.7155668  29.1457739  78.7344111  25.8276203
  30.3528996  78.4494212  26.6956674  25.3426044  80.7038523  22.7052559
  24.7790909  80.6128460  21.9368847  25.2278439  79.8838428  23.1855052
  29.9659011  80.0037898  32.6741874  29.9547652  79.6090697  31.8022377
  30.1279650  79.2703971  33.2675645  22.8890476  82.1989715  25.5436780
  23.6811767  81.8580539  25.1283079  23.1287126  82.3084690  26.4638933
  30.9225602  84.3709491  18.0167024  30.2713582  84.9563571  17.6301038
  31.7169965  84.9015686  18.0762062  24.8481229  81.4598628  18.4154158
  25.6212106  80.9127615  18.2767034  25.2006628  82.3242877  18.6268620
  26.6866272  82.7875010  31.6221058  26.3956138  83.6920641  31.5067724
  27.3223256  82.8291538  32.3365127  27.6122479  80.1651859  28.2122417
  28.2086051  79.9407881  27.4979380  27.6697450  79.4236604  28.8147865
  27.1847507  77.6191294  16.0472608  27.4373028  77.0972815  15.2856071
  26.2472066  77.4557440  16.1499292  32.2290790  76.6227072  23.8547352
  33.0153879  76.2046496  23.5037769  32.4929494  77.5273165  24.0229000
  32.4000867  82.0599923  18.5536008  31.7646700  82.1334549  19.2656913
  32.0698274  82.6493522  17.8755088  37.6299217  76.5602306  24.7580330
  38.3624389  75.9901522  24.9918160  36.8738573  76.1723906  25.1986836
  26.9043796  79.5219400  18.2496983  26.7880054  78.8464303  18.9178068
  27.0146056  79.0351774  17.4329136  29.2475337  78.9829547  21.9543673
  28.8833544  78.4560168  22.6656594  30.1042453  78.5928016  21.7810158
  35.1524638  70.2723880  29.2174939  34.8207962  71.1419291  28.9936154
  34.5570251  69.9560164  29.8968969  28.8880824  74.0119447  16.9505021
  29.0555226  74.8799683  17.3175492  28.6977993  74.1746729  16.0266310
  31.6456157  82.4736426  28.6170851  31.3456880  83.3761465  28.5086659
  31.3007217  82.2068609  29.4692004  25.0968639  78.9250223  24.6507556
  24.1719135  78.7926437  24.8585248  25.3453052  79.7044442  25.1477498
  35.0453301  74.9918966  26.2968289  34.1370178  74.9234374  26.0027050
  34.9940897  75.4690911  27.1250114  28.8670045  76.4677104  17.9351688
  28.7469670  76.9134155  18.7737168  28.1722633  76.8162422  17.3765226
  22.4577450  78.5683496  25.4851345  22.5869831  78.8217975  26.3990757
  21.7774901  79.1611204  25.1656000  26.6276937  89.2380746  21.5841819
  26.5500967  90.1888571  21.6630300  26.0238581  88.8926619  22.2416745
  29.1194167  76.4108612  34.2403186  28.3427501  76.9702532  34.2306051
  29.7584730  76.8965395  34.7618056  36.9114947  73.1935404  28.0746163
  36.2689328  73.4867938  27.4285957  36.4069876  73.0788325  28.8799359
  34.5655111  76.9398578  18.7632022  35.4772967  77.1725964  18.5879719
  34.0564758  77.5235622  18.2007101  27.3740539  79.2194065  33.8021153
  28.1155223  79.7579109  33.5255977  26.6677524  79.8460354  33.9592705
  32.8495879  81.3623205  32.3993315  33.2579235  80.9205616  31.6547947
  32.1273140  80.7875833  32.6527507  29.2026949  76.2995812  29.7726871
  30.0488144  76.7235226  29.9161520  29.1425586  75.6429436  30.4665435
  33.1724693  81.9224396  26.1545603  32.5433556  82.0870110  25.4521671
  32.7850355  82.3366006  26.9256567  37.0513925  82.8578834  23.5089967
  36.3664963  83.2377735  22.9587000  37.1357775  83.4674161  24.2421915
  32.3526394  73.9600181  31.4308045  32.1087326  74.7142241  30.8942321
  32.6286325  74.3385528  32.2655292  34.3064857  80.5038793  30.1085311
  34.5181752  81.1470553  29.4319692  34.2594605  79.6701109  29.6407241
  31.9091086  73.1156614  27.0121883  31.0475565  73.4137867  27.3038620
  31.9353520  73.3327012  26.0802915  28.7252655  81.6598804  23.4195688
  29.1891001  81.9386507  22.6300311  28.4609453  80.7582249  23.2368779
  25.6176736  81.2070286  26.3575452  26.1878093  81.6357554  25.7192936
  26.2084848  80.9252870  27.0559637  27.6621541  77.7821956  20.2285254
  28.3645585  78.2343000  20.6959180  27.3302170  77.1405775  20.8565147
  26.1101903  76.3733713  34.6036463  25.4800563  77.0549994  34.8371860
  26.0037991  76.2616795  33.6589601  21.4046875  76.0405509  25.5302387
  20.6145929  76.2963038  25.0542498  21.8958123  76.8553847  25.6354428
  35.4210685  83.3810748  28.2807668  36.2428128  82.9790936  27.9990350
  35.4173088  83.2778982  29.2323784  23.3561621  76.4050088  22.4885864
  22.5592784  76.5168783  23.0069360  23.1287213  76.7436741  21.6226754
  29.1867288  82.9294792  30.4368379  29.2511721  83.3915199  31.2726550
  28.4778212  82.2992157  30.5650688  19.6884578  76.2936000  27.9617378
  19.9392617  77.1783009  28.2274954  20.2244127  76.1140601  27.1892470
  43.5116678  79.7249497  24.6292639  42.7580386  79.1556895  24.4736644
  43.6464219  79.6912161  25.5763274  28.9015306  84.5962899  20.3047359
  28.7660981  85.4414435  20.7332207  29.4425118  84.7982177  19.5413293
  25.3882646  70.6754479  36.9661714  24.9949591  70.1220677  37.6409358
  26.2048786  70.9865057  37.3568232  22.3544703  82.1138337  20.8775284
  22.8669224  82.9081587  21.0280849  23.0067416  81.4164628  20.8108885
  24.1639588  85.2304093  22.9598037  24.3406216  86.1522058  22.7719021
  24.9596421  84.9162513  23.3892417  28.3050606  72.0912358  34.5581971
  29.0460320  72.6919511  34.4786433  28.5368529  71.3489996  34.0000013
  23.4491945  77.2768725  32.8360200  23.3345460  76.3753983  33.1367299
  22.5936462  77.5232422  32.4845017  30.5283782  85.2186466  34.4347701
  30.0847636  84.4322844  34.1168605  31.1900996  85.4065616  33.7691592
  25.2870903  86.7482267  28.9608379  25.8378329  86.6199331  28.1885373
  24.4482379  87.0477156  28.6103272  32.6265020  85.4989266  32.4629102
  32.6083496  86.3198147  31.9709371  33.5484940  85.3743341  32.6879243
  29.0838074  83.0133395  33.3052611  29.6166411  82.2521683  33.0751919
  28.5552156  82.7207047  34.0476765  32.2507769  68.1193461  28.8346252
  31.9072039  69.0095103  28.7585363  32.6186732  67.9295119  27.9715837
  20.3193620  80.4426991  21.6534854  21.1568842  80.8524000  21.4368562
  20.4971888  79.5026434  21.6235048  32.2158052  78.1102072  17.3418687
  31.7004676  78.8806677  17.5807075  31.9435361  77.4367208  17.9651749
  29.8005163  72.9551773  22.4003926  28.9446760  72.5658623  22.2209564
  30.2132115  73.0343734  21.5403711  31.3304310  70.4898116  26.7995486
  30.8269105  70.4528251  25.9863291  31.6234917  71.3990859  26.8592142
  27.5747196  70.5736846  25.8061667  28.4400192  70.3779655  25.4467557
  27.6424705  70.3447198  26.7331024  37.1892326  80.8634427  19.2771861
  36.4121769  80.5245586  18.8327023  37.8683807  80.8687050  18.6026826
  32.0044355  75.9829164  19.1678469  31.6994491  76.2975313  20.0188612
  32.9574797  76.0610584  19.2105802  30.4490787  82.1419387  20.8171423
  29.9212149  81.4072147  20.5044660  29.9478290  82.9194064  20.5711391
  35.4283633  80.3368408  25.9338469  34.7707308  81.0267669  26.0218598
  36.2324032  80.7264840  26.2772455  25.1809515  72.8039054  23.1778034
  25.7553267  72.5814235  22.4451227  25.7680497  72.8727748  23.9306635
  34.2389092  78.6912781  23.9842411  34.7520974  79.3242772  24.4864120
  34.8890316  78.0913976  23.6185771  25.5079102  74.8343515  17.1973919
  24.6716414  75.1718201  17.5183194  25.3683872  74.6992495  16.2601056
  27.4832183  69.6780303  21.9053104  26.8296595  69.3629320  21.2809718
  27.4412657  69.0556043  22.6312926  28.5943387  79.9599598  13.8206396
  27.6870449  79.7288851  14.0197545  29.0914419  79.1637217  14.0080377
  31.5011466  88.6697105  16.7403082  30.8273165  88.9728802  17.3488040
  31.8877288  89.4726185  16.3908539  30.7169923  76.1662236  26.2300751
  29.7992484  76.3877183  26.0722439  31.1330066  76.2408547  25.3712458
  31.5004971  77.5653652  21.3603431  32.2476790  78.0775049  21.0510553
  31.7696560  77.2437705  22.2207825  29.7731621  80.0612193  18.3430386
  28.8642840  79.7771225  18.4402855  29.8026705  80.4811271  17.4833693
  35.0050888  83.6718782  22.1121553  34.5513215  82.8309692  22.1686744
  34.3744855  84.3080180  22.4496333  33.9483808  74.6010768  23.3422221
  33.2106565  74.0888154  23.6732463  34.2010581  74.1611150  22.5305498
  33.4483827  85.5095279  23.0471371  33.7406802  86.0700336  22.3283737
  33.9582448  85.8023840  23.8024531  34.0495435  67.3787020  23.9363990
  34.3554312  66.5184384  23.6489905  34.7748040  67.9704640  23.7362984
  20.3419791  77.7817707  22.3245588  20.1444191  77.1887067  21.5996654
  19.7866455  77.4769917  23.0421527  28.3216515  77.6740813  24.4440181
  28.3765125  76.7214650  24.3682658  27.5107717  77.8300252  24.9281479
  29.4707709  81.6020936  15.6818464  29.0327139  80.8856795  15.2224102
  30.2118149  81.8297051  15.1203556  26.2608875  76.2917873  22.2030560
  25.4476740  76.5912044  22.6095752  26.7567869  75.8973562  22.9205042
  28.4117453  86.2875630  24.1364825  28.3693631  86.5136476  23.2073357
  29.3280152  86.0539004  24.2850626  31.8583086  76.7559697  31.0345454
  32.2132474  76.9831171  31.8939920  32.5055218  77.0878074  30.4122709
  37.5880823  79.8778133  21.7394783  37.4498722  80.0679729  20.8115972
  37.2317042  80.6397516  22.1962834  25.7522950  73.8636228  27.8191795
  26.3922329  73.7224988  27.1214758  24.9200480  73.5770742  27.4430397
  37.6150203  81.9454660  26.7506054  38.0486710  81.8529949  27.5989108
  38.3281784  81.9212161  26.1126070  26.5283253  83.1638659  23.9326787
  27.3223852  82.6688979  23.7309362  25.8174946  82.6356522  23.5694493
  31.3478098  85.5456754  28.2839155  31.4015120  86.1147691  29.0516871
  30.4792879  85.7158639  27.9193192  22.8366017  77.3081741  20.0086540
  21.9063605  77.2466196  20.2256502  22.9323489  76.7857693  19.2123181
  22.7551566  73.8336553  22.5964782  23.0158383  74.7481887  22.4873942
  23.5768738  73.3660996  22.7461394  24.2276491  75.2474311  29.7663606
  24.8999545  75.0391673  29.1176255  23.4006278  75.0496397  29.3268838
  38.4765753  81.9878361  29.2838940  38.6701643  82.8924171  29.5298215
  38.3766371  81.5285780  30.1177525  30.1302063  71.8736252  31.7829267
  29.4829978  72.5726201  31.6893743  30.9003079  72.3072395  32.1505515
  33.5380861  82.1385104  34.8579820  33.3866368  81.9095655  33.9409904
  33.5285541  83.0955705  34.8711165  30.3066198  79.7117016  29.8426087
  31.2358258  79.8628176  29.6695054  29.8857228  79.8001037  28.9874733
  29.1054529  83.7367681  27.6124624  28.9665615  83.3686465  28.4850563
  28.3169126  84.2515320  27.4408582  29.7002681  88.8376777  18.9550161
  29.8754437  88.3664821  19.7695784  29.0135469  89.4642544  19.1831422
  30.6559745  83.1149284  25.0013462  30.3209577  83.0750054  25.8971112
  30.1563690  82.4494000  24.5283872  24.6303989  78.5216914  30.5266043
  24.4923786  77.7897152  31.1277582  25.5408912  78.4325814  30.2450231
  33.5918936  80.4605318  15.2750522  32.9748107  79.7352146  15.1783575
  33.1235425  81.2214678  14.9317596  27.2586289  78.2336873  30.0149723
  27.9685908  77.5930065  29.9736341  27.2155597  78.4849768  30.9375904
  35.2473068  85.1704226  32.9356302  35.1885614  84.4863446  32.2686885
  35.6492586  85.9123216  32.4836928  25.9715223  75.2202091  31.8345362
  25.4352580  74.7692829  32.4866959  25.3831932  75.3548000  31.0915827
  24.2663767  91.9866140  25.7290021  24.5060365  92.6184664  26.4069040
  23.4232963  91.6354180  26.0155380  25.3817482  74.6790742  14.3971826
  24.5046948  74.5579543  14.0334073  25.8575235  73.8876821  14.1450715
  35.2490475  83.1343810  31.1670282  34.3617254  82.7969732  31.2896681
  35.8189026  82.4026841  31.4039047  16.9019622  79.4667902  24.4913333
  17.5890662  79.1529632  23.9034349  16.7467751  80.3709267  24.2180585
  21.7054344  74.3558099  28.9198357  21.6212533  73.7483768  28.1848767
  20.8837051  74.8467117  28.9207853  28.7791629  87.7945263  28.1331525
  28.7061800  88.6000234  28.6450830  28.3369022  87.9937228  27.3079546
  28.5681408  87.0317033  21.6434347  27.7848930  87.5738713  21.7372571
  29.2674153  87.5491012  22.0428588  31.8778058  72.8411662  24.2868552
  32.3746758  72.0881624  23.9669622  31.1065040  72.8775979  23.7211761
  39.7307816  78.5452028  25.9286844  39.7197692  79.4276743  25.5580777
  38.8625195  78.1923578  25.7341381  31.2390312  87.6932097  30.2889684
  31.9518284  88.3279561  30.2165585  30.7480341  87.7895963  29.4729686
  32.9607839  81.5983349  21.8606975  32.0264118  81.7184812  21.6911680
  33.1384507  80.6955816  21.5966985  28.4613027  74.9829045  24.0140237
  28.0910815  74.4300085  24.7021142  28.9572119  74.3787179  23.4615237
  36.3480390  77.4400669  22.3957010  36.8140843  78.2728660  22.3217312
  36.7987891  76.9745650  23.1002268  26.2902226  85.4426540  31.1095255
  26.9911685  86.0763023  31.2624649  25.8197341  85.7841272  30.3490894
  34.4156621  83.7844490  19.3943162  34.6916465  83.6701084  20.3037036
  33.5461120  83.3861975  19.3555335  34.3197053  69.8081256  26.4347911
  33.4060133  70.0385482  26.6030118  34.7490155  69.8919700  27.2861943
  34.0903512  77.9971148  28.9347805  33.4374962  78.2447055  28.2800258
  34.4683891  77.1835286  28.6010282  31.0510685  88.0330841  23.0375975
  31.2333080  87.2152497  23.5003728  31.8743671  88.2498533  22.6000865
  31.3852851  86.9599026  20.2991024  31.9140617  86.4491480  19.6861186
  31.6481071  86.6441556  21.1636557  30.1391085  78.7390959  35.4213842
  29.4631722  78.6385088  36.0916217  30.9618718  78.5830172  35.8849839
  21.8869944  84.9762895  28.0426357  22.4723380  84.2306583  28.1754261
  21.6894782  85.2866852  28.9263021  24.7408599  88.0114143  23.0588800
  24.0718974  88.4960270  22.5752840  24.6021469  88.2583363  23.9732178
  16.4787598  77.5468495  26.7630800  16.5171698  77.0132086  27.5567919
  15.9727891  77.0203701  26.1441778  28.8813867  90.0457886  29.6571458
  29.4332175  90.2089508  30.4220543  29.2220061  90.6362324  28.9851483
  23.8578361  72.3933036  30.2593343  23.9219687  73.2547867  29.8470740
  23.7945481  71.7807037  29.5265701  23.3330633  74.4656168  33.9066377
  23.9602672  74.0833246  34.5203901  22.4758552  74.2470370  34.2722069
  33.7324742  84.8719144  35.5120112  34.2764646  85.4849102  35.0175067
  33.1511587  85.4298722  36.0287125  20.1096176  76.2732597  19.8384732
  20.4049617  75.3643276  19.7851785  19.2084212  76.2520337  19.5165734
  32.0182255  87.9939862  26.6435140  31.8933394  87.1929601  26.1346086
  32.6761346  88.4886055  26.1549110  23.6390423  74.3488594  25.8212280
  22.9177009  74.9624562  25.6819754  24.4283679  74.8846359  25.7428926
  34.0817163  85.7948882  28.2714690  33.1347499  85.6754233  28.1993017
  34.4299936  84.9071380  28.3540952  26.4416736  71.6843021  32.0952932
  26.9651138  71.9305317  32.8579241  26.2229070  72.5163055  31.6756069
  21.8384018  73.9546695  19.9624057  21.5096724  73.0744074  19.7799163
  22.1923388  73.8994364  20.8500446  31.0863596  85.5901598  24.4719042
  30.9388559  84.6618305  24.6526613  31.9117090  85.6121689  23.9876118
  24.9525841  74.2419665  20.3299535  25.2921913  74.7705586  19.6078143
  25.3997961  74.5800071  21.1058101  34.6897718  86.4130157  25.5583915
  35.6144266  86.2073018  25.4208366  34.5213022  86.1646558  26.4673257
  27.6469282  72.6256716  29.7802603  27.3066102  71.8264529  30.1823283
  26.9408288  72.9258426  29.2079436  28.2985753  69.7106028  28.2329926
  29.1211823  69.2366506  28.1108816  28.5423817  70.4896512  28.7328612
  26.9393988  72.7394287  18.5292827  27.6602350  73.1175539  18.0256544
  26.3159292  73.4583163  18.6327805  31.0825111  73.4439435  19.4651160
  31.2988725  74.3264073  19.1639988  30.6019178  73.0525649  18.7356802
  25.8224332  76.4025149  26.0421904  25.6768913  76.7165452  26.9346186
  25.3449536  77.0210049  25.4892803  27.6820715  73.3927697  26.0902794
  27.6682284  72.4968790  25.7535092  28.3993143  73.3998360  26.7241080
  29.5346846  73.8265037  28.1355921  29.2764624  74.7482108  28.1340252
  29.0031886  73.4295471  28.8256385  34.4793034  86.9315824  20.9146007
  34.6529912  86.3662247  20.1619859  34.9721926  87.7316719  20.7325497
  20.2969994  78.9430493  28.9809566  19.7523462  79.7190301  29.1129840
  21.1749344  79.2901298  28.8228687  27.0857611  72.2742077  21.3590364
  27.2073522  71.3458723  21.5581252  26.7959653  72.2880763  20.4468679
  29.9548801  69.9596987  24.4957084  29.9770498  70.0236321  23.5409063
  30.3716860  69.1201496  24.6897590  40.3332426  79.6952247  22.5336306
  40.7763572  78.9459572  22.1355430  39.4558936  79.6862383  22.1510038
  35.4668207  86.2482588  18.0142905  36.1619112  86.8689281  18.2330220
  35.8091357  85.3977940  18.2895283  21.0836016  78.0700389  31.8739722
  20.3417752  78.2183025  32.4604353  20.7628760  78.3308655  31.0106472
  37.3659630  83.6982294  19.5430236  37.8910954  84.0369567  18.8179556
  37.2781983  82.7629309  19.3593370  29.0279679  87.6116368  31.6720112
  29.3366805  87.3665514  32.5442812  29.8255161  87.8163006  31.1838983
  29.0500291  89.7654277  23.9025489  28.6105281  89.2730656  24.5958346
  29.8008408  89.2227245  23.6617564  21.5292630  85.9565818  23.9050117
  22.3550650  85.6569590  23.5248761  21.1786682  85.1873441  24.3539906
  26.4974163  85.3092286  25.9747791  25.8754172  84.6462991  25.6750018
  27.1679030  85.3353418  25.2921438  19.7301235  83.8752145  24.8639051
  18.8933143  83.4474319  24.6823052  19.7024880  84.0684588  25.8009842
  26.5698690  73.7874074  35.5680297  26.6186846  74.6636197  35.1858066
  27.1121205  73.2451467  34.9951940  37.0553536  84.3315198  34.8481434
  36.2649080  84.3139336  34.3085933  36.8186891  84.8703491  35.6030470
  37.1751411  81.1807664  32.1614162  37.2249416  81.0157671  33.1029685
  37.0665335  80.3134923  31.7712043  26.0587670  83.8596210  19.4506251
  26.2075790  84.5431674  18.7972924  26.8654113  83.8401300  19.9655707
  34.4655174  77.1638592  33.4773469  35.3665036  77.0245057  33.1857467
  34.5403148  77.3293047  34.4171646  28.7997979  74.5405447  32.3226655
  27.9301288  74.8339013  32.0509244  29.0357459  75.1245892  33.0433919
  38.6769608  83.6004605  32.4056184  38.3854416  83.9634586  33.2419645
  38.0641739  82.8871614  32.2269516  39.8765290  81.1657485  24.9258754
  40.7112182  81.6047289  25.0896314  40.0124419  80.6896138  24.1067000
  36.9256796  78.7237220  30.8736242  37.4010918  78.9164866  30.0655093
  36.0022362  78.7796406  30.6279625  23.8140303  79.8861387  20.4567320
  23.5686345  78.9823717  20.6547530  23.9836217  79.8878538  19.5146798
  31.5037013  70.7585064  29.8392076  32.0218957  71.4946091  29.5138564
  31.1492146  71.0649057  30.6738835  23.0835950  75.6189745  17.9553482
  22.3905195  75.6934100  17.2993517  22.8387702  74.8550089  18.4774998
  31.7549607  67.1785346  25.3592972  32.0351361  66.5108535  25.9853399
  32.5400214  67.3714442  24.8467636  29.5583075  86.3544340  16.9217999
  28.9857042  86.9734527  16.4688470  30.1315869  86.9043702  17.4557921
  35.6258465  75.6002980  29.1064547  36.5775888  75.7001078  29.1276771
  35.4561916  74.8081249  29.6162632  33.6472845  72.6858563  29.2923948
  33.0522777  72.9663576  28.5970437  33.3622541  73.1752464  30.0640689
  32.7780335  86.6381490  18.0526581  33.7111008  86.5727052  18.2559456
  32.6903548  87.4737757  17.5941114  35.4068352  85.9547361  15.0130528
  35.3281983  85.6207224  15.9066286  36.2278019  86.4469129  15.0122001
  38.1046543  78.8209100  28.2206847  38.0722863  77.8825101  28.4066531
  38.7147167  78.8993137  27.4872672  29.9429874  77.6905153  14.2634051
  30.8888979  77.5611361  14.3322469  29.5644119  76.9519815  14.7403479
  38.2541032  75.6120143  28.2665130  37.7380080  74.8278600  28.0795059
  39.1380980  75.2838860  28.4311650  35.9151758  69.3561159  24.2260943
  35.7176580  69.0476247  25.1104275  36.5251464  70.0822798  24.3558873
  43.9223093  79.8825107  27.3612884  44.6526481  79.6210395  27.9220587
  43.3130038  79.1453829  27.4014952  42.0038390  78.0232969  27.9587335
  41.2771554  77.8888934  27.3503827  41.5885677  78.3309798  28.7644053
  29.8268566  81.7422899  35.7234708  30.7471576  81.9201498  35.9174755
  29.7918149  80.7978944  35.5714407  28.1272791  75.6155129  14.1988936
  27.2204246  75.3188242  14.2751650  28.4048772  75.3184947  13.3323223
  19.0450731  76.9361493  24.6487983  18.7253516  76.0826801  24.3562357
  18.4984160  77.1510071  25.4045950  22.8230639  79.6523934  28.3657489
  23.0416649  80.5841041  28.3845523  23.2356413  79.2931908  29.1512293
  29.7434857  70.1592019  20.3533178  28.9335585  69.8139104  20.7288424
  30.4319274  69.8499563  20.9420789  31.6725405  69.2370066  21.9757474
  32.2256444  69.6565519  22.6347497  31.9095491  68.3105814  22.0180430
  27.6958504  75.2257139  37.7560238  27.5955231  76.1751496  37.6872329
  27.4780046  74.8975378  36.8836308  26.8971576  72.4742064  14.3400915
  27.7590740  72.7996963  14.5996733  27.0821920  71.6873560  13.8273981
  18.9138991  80.5564404  26.6181104  18.2202463  80.1418357  26.1051059
  19.6611982  80.5984941  26.0214523  35.0504212  71.3470591  21.4836138
  34.4702881  72.0055395  21.1014191  34.7840145  70.5247936  21.0723556
  33.5007779  70.7475649  23.6857459  34.0007557  70.8592183  22.8771778
  34.1443386  70.4436701  24.3258267  27.5589774  78.6554278  36.5725300
  27.0756856  79.4554638  36.7789189  27.6450713  78.6662223  35.6192744
  20.8275734  80.4882658  24.4947119  20.8046422  80.5870345  23.5429002
  21.1376370  81.3347809  24.8164285  23.4863112  82.5458813  28.6093734
  24.4406365  82.5142755  28.5423665  23.2875635  82.0849437  29.4243959
  24.0762494  81.1159929  31.1764531  24.8955383  81.6104008  31.1999369
  24.3499302  80.1991897  31.1482099  33.8329090  73.5070681  20.5392487
  32.9454945  73.7920332  20.3212681  34.2483079  73.3464445  19.6919764
  37.1843626  73.5317202  24.2546826  37.9604016  74.0213655  24.5271443
  36.4591760  73.9575256  24.7118695  39.6216185  74.2444822  25.3120767
  40.2160676  74.0040557  24.6014075  39.6942769  73.5251952  25.9394303
  21.8413341  88.0878432  25.6263931  21.7067809  87.3278833  25.0601929
  21.4245403  88.8119332  25.1592720  32.9772304  83.2715356  14.6340507
  33.6808154  83.4765358  15.2498162  32.2534952  83.8392118  14.8989590
  33.8070114  79.0225217  20.7542777  33.7505315  79.4793769  19.9150409
  34.3598456  78.2615902  20.5765620  37.6174920  74.8114949  21.5792896
  37.3611854  74.4111585  22.4101104  36.9927788  75.5258743  21.4543036
  41.9287258  77.5511022  24.0864188  41.3686816  77.6204212  24.8595750
  41.3230761  77.3752007  23.3663684  24.9982467  88.9847749  25.8382374
  24.8814851  89.9293182  25.7361064  24.1774913  88.6821311  26.2268173
  34.8859001  83.7097885  16.6838967  35.7204605  83.2779084  16.5016442
  34.7243344  83.5379899  17.6115861  34.5404893  80.2129999  18.0495306
  34.4853697  80.0474270  17.1083750  33.9150949  80.9206031  18.2057496
  19.3297408  75.4498063  31.8756728  19.9756272  74.9397017  32.3643953
  19.1214559  76.1866745  32.4500154  31.8550800  82.5178910  37.3748869
  32.7241960  82.6919563  37.0135504  31.3757552  83.3373327  37.2524598
  27.8501019  69.7138108  17.6280624  27.8379689  70.6579947  17.7848895
  28.7424441  69.5308253  17.3340086  26.0236981  89.6376011  29.0538303
  26.9264227  89.6699622  29.3704797  25.7974351  88.7076462  29.0684638
  27.7790583  88.3906998  25.7148381  26.8286214  88.3908860  25.6012753
  28.0823069  87.6439732  25.1984416  31.6653138  66.3080884  21.8826561
  30.8985534  65.7539371  22.0283244  32.0763843  66.3802753  22.7440713
  23.6694899  72.5965680  35.9731743  24.5326361  72.2402485  36.1835067
  23.0960310  72.2579575  36.6607147  43.5143276  94.2267536  26.7794144
  44.1521686  94.1074284  26.0757484  43.3964119  95.1748380  26.8382096
  40.3232982  94.1794964  26.7155668  39.9851494  94.0636029  25.8276203
  41.1922751  93.7786130  26.6956674  36.1819798  96.0330441  22.7052559
  35.6184663  95.9420378  21.9368847  36.0672193  95.2130345  23.1855052
  40.8052765  95.3329816  32.6741874  40.7941406  94.9382614  31.8022377
  40.9673405  94.5995889  33.2675645  33.7284230  97.5281632  25.5436780
  34.5205522  97.1872457  25.1283079  33.9680880  97.6376607  26.4638933
  41.7619357  99.7001409  18.0167024  41.1107337 100.2855489  17.6301038
  42.5563720 100.2307603  18.0762062  35.6874984  96.7890546  18.4154158
  36.4605860  96.2419533  18.2767034  36.0400383  97.6534795  18.6268620
  37.5260027  98.1166928  31.6221058  37.2349893  99.0212559  31.5067724
  38.1617011  98.1583456  32.3365127  38.4516233  95.4943776  28.2122417
  39.0479806  95.2699799  27.4979380  38.5091205  94.7528522  28.8147865
  38.0241262  92.9483212  16.0472608  38.2766782  92.4264733  15.2856071
  37.0865821  92.7849357  16.1499292  43.0684545  91.9518990  23.8547352
  43.8547634  91.5338413  23.5037769  43.3323249  92.8565082  24.0229000
  43.2394622  97.3891840  18.5536008  42.6040455  97.4626467  19.2656913
  42.9092028  97.9785439  17.8755088  48.4692972  91.8894223  24.7580330
  49.2018144  91.3193440  24.9918160  47.7132327  91.5015824  25.1986836
  37.7437551  94.8511318  18.2496983  37.6273809  94.1756221  18.9178068
  37.8539810  94.3643692  17.4329136  40.0869091  94.3121465  21.9543673
  39.7227299  93.7852086  22.6656594  40.9436207  93.9219934  21.7810158
  45.9918392  85.6015797  29.2174939  45.6601717  86.4711208  28.9936154
  45.3964006  85.2852081  29.8968969  39.7274578  89.3411365  16.9505021
  39.8948981  90.2091601  17.3175492  39.5371748  89.5038646  16.0266310
  42.4849912  97.8028343  28.6170851  42.1850635  98.7053382  28.5086659
  42.1400971  97.5360527  29.4692004  35.9362393  94.2542140  24.6507556
  35.0112890  94.1218354  24.8585248  36.1846806  95.0336360  25.1477498
  45.8847055  90.3210884  26.2968289  44.9763933  90.2526292  26.0027050
  45.8334651  90.7982829  27.1250114  39.7063799  91.7969022  17.9351688
  39.5863425  92.2426073  18.7737168  39.0116388  92.1454340  17.3765226
  33.2971204  93.8975414  25.4851345  33.4263585  94.1509893  26.3990757
  32.6168655  94.4903122  25.1656000  37.4670691 104.5672664  21.5841819
  37.3894721 105.5180489  21.6630300  36.8632335 104.2218536  22.2416745
  39.9587921  91.7400529  34.2403186  39.1821255  92.2994449  34.2306051
  40.5978484  92.2257312  34.7618056  47.7508702  88.5227322  28.0746163
  47.1083082  88.8159855  27.4285957  47.2463630  88.4080242  28.8799359
  45.4048865  92.2690495  18.7632022  46.3166722  92.5017882  18.5879719
  44.8958513  92.8527539  18.2007101  38.2134294  94.5485983  33.8021153
  38.9548978  95.0871027  33.5255977  37.5071279  95.1752271  33.9592705
  43.6889633  96.6915123  32.3993315  44.0972989  96.2497534  31.6547947
  42.9666895  96.1167751  32.6527507  40.0420703  91.6287730  29.7726871
  40.8881898  92.0527143  29.9161520  39.9819341  90.9721354  30.4665435
  44.0118448  97.2516314  26.1545603  43.3827310  97.4162028  25.4521671
  43.6244110  97.6657923  26.9256567  47.8907680  98.1870752  23.5089967
  47.2058718  98.5669653  22.9587000  47.9751529  98.7966078  24.2421915
  43.1920149  89.2892098  31.4308045  42.9481080  90.0434159  30.8942321
  43.4680079  89.6677446  32.2655292  45.1458611  95.8330711  30.1085311
  45.3575507  96.4762470  29.4319692  45.0988360  94.9993027  29.6407241
  42.7484840  88.4448531  27.0121883  41.8869319  88.7429785  27.3038620
  42.7747275  88.6618930  26.0802915  39.5646410  96.9890722  23.4195688
  40.0284755  97.2678425  22.6300311  39.3003208  96.0874166  23.2368779
  36.4570491  96.5362203  26.3575452  37.0271848  96.9649472  25.7192936
  37.0478603  96.2544788  27.0559637  38.5015296  93.1113874  20.2285254
  39.2039339  93.5634918  20.6959180  38.1695924  92.4697693  20.8565147
  36.9495657  91.7025631  34.6036463  36.3194318  92.3841912  34.8371860
  36.8431745  91.5908712  33.6589601  32.2440630  91.3697427  25.5302387
  31.4539684  91.6254955  25.0542498  32.7351877  92.1845765  25.6354428
  46.2604439  98.7102666  28.2807668  47.0821883  98.3082853  27.9990350
  46.2566842  98.6070900  29.2323784  34.1955375  91.7342006  22.4885864
  33.3986538  91.8460700  23.0069360  33.9680967  92.0728658  21.6226754
  40.0261043  98.2586709  30.4368379  40.0905475  98.7207117  31.2726550
  39.3171967  97.6284074  30.5650688  30.5278333  91.6227917  27.9617378
  30.7786371  92.5074927  28.2274954  31.0637881  91.4432519  27.1892470
  54.3510432  95.0541414  24.6292639  53.5974141  94.4848813  24.4736644
  54.4857974  95.0204079  25.5763274  39.7409060  99.9254817  20.3047359
  39.6054735 100.7706352  20.7332207  40.2818873 100.1274094  19.5413293
  36.2276400  86.0046397  36.9661714  35.8343346  85.4512595  37.6409358
  37.0442540  86.3156975  37.3568232  33.1938458  97.4430255  20.8775284
  33.7062978  98.2373505  21.0280849  33.8461171  96.7456545  20.8108885
  35.0033342 100.5596011  22.9598037  35.1799971 101.4813976  22.7719021
  35.7990176 100.2454430  23.3892417  39.1444361  87.4204276  34.5581971
  39.8854074  88.0211429  34.4786433  39.3762284  86.6781913  34.0000013
  34.2885699  92.6060643  32.8360200  34.1739214  91.7045900  33.1367299
  33.4330217  92.8524340  32.4845017  41.3677537 100.5478383  34.4347701
  40.9241391  99.7614762  34.1168605  42.0294750 100.7357534  33.7691592
  36.1264658 102.0774185  28.9608379  36.6772083 101.9491248  28.1885373
  35.2876134 102.3769074  28.6103272  43.4658775 100.8281183  32.4629102
  43.4477250 101.6490064  31.9709371  44.3878695 100.7035258  32.6879243
  39.9231829  98.3425313  33.3052611  40.4560166  97.5813601  33.0751919
  39.3945910  98.0498964  34.0476765  43.0901524  83.4485379  28.8346252
  42.7465793  84.3387020  28.7585363  43.4580487  83.2587036  27.9715837
  31.1587375  95.7718909  21.6534854  31.9962597  96.1815917  21.4368562
  31.3365642  94.8318351  21.6235048  43.0551807  93.4393990  17.3418687
  42.5398430  94.2098594  17.5807075  42.7829115  92.7659126  17.9651749
  40.6398918  88.2843691  22.4003926  39.7840514  87.8950541  22.2209564
  41.0525869  88.3635651  21.5403711  42.1698064  85.8190034  26.7995486
  41.6662860  85.7820169  25.9863291  42.4628671  86.7282777  26.8592142
  38.4140950  85.9028764  25.8061667  39.2793947  85.7071572  25.4467557
  38.4818459  85.6739115  26.7331024  48.0286081  96.1926344  19.2771861
  47.2515524  95.8537504  18.8327023  48.7077562  96.1978968  18.6026826
  42.8438110  91.3121082  19.1678469  42.5388245  91.6267231  20.0188612
  43.7968552  91.3902502  19.2105802  41.2884542  97.4711305  20.8171423
  40.7605903  96.7364065  20.5044660  40.7872044  98.2485982  20.5711391
  46.2677388  95.6660326  25.9338469  45.6101062  96.3559587  26.0218598
  47.0717787  96.0556758  26.2772455  36.0203269  88.1330971  23.1778034
  36.5947021  87.9106153  22.4451227  36.6074252  88.2019666  23.9306635
  45.0782846  94.0204698  23.9842411  45.5914728  94.6534690  24.4864120
  45.7284070  93.4205894  23.6185771  36.3472856  90.1635432  17.1973919
  35.5110169  90.5010119  17.5183194  36.2077626  90.0284412  16.2601056
  38.3225937  85.0072220  21.9053104  37.6690349  84.6921238  21.2809718
  38.2806411  84.3847961  22.6312926  39.4337142  95.2891515  13.8206396
  38.5264204  95.0580769  14.0197545  39.9308174  94.4929135  14.0080377
  42.3405221 103.9989023  16.7403082  41.6666919 104.3020719  17.3488040
  42.7271043 104.8018103  16.3908539  41.5563677  91.4954154  26.2300751
  40.6386239  91.7169101  26.0722439  41.9723821  91.5700464  25.3712458
  42.3398725  92.8945570  21.3603431  43.0870544  93.4066967  21.0510553
  42.6090315  92.5729622  22.2207825  40.6125375  95.3904110  18.3430386
  39.7036595  95.1063143  18.4402855  40.6420459  95.8103189  17.4833693
  45.8444643  99.0010700  22.1121553  45.3906970  98.1601610  22.1686744
  45.2138609  99.6372098  22.4496333  44.7877562  89.9302686  23.3422221
  44.0500319  89.4180072  23.6732463  45.0404336  89.4903067  22.5305498
  44.2877582 100.8387196  23.0471371  44.5800556 101.3992254  22.3283737
  44.7976203 101.1315757  23.8024531  44.8889190  82.7078938  23.9363990
  45.1948066  81.8476301  23.6489905  45.6141794  83.2996558  23.7362984
  31.1813546  93.1109624  22.3245588  30.9837945  92.5178985  21.5996654
  30.6260210  92.8061835  23.0421527  39.1610269  93.0032731  24.4440181
  39.2158879  92.0506567  24.3682658  38.3501471  93.1592170  24.9281479
  40.3101463  96.9312854  15.6818464  39.8720893  96.2148713  15.2224102
  41.0511904  97.1588969  15.1203556  37.1002629  91.6209791  22.2030560
  36.2870495  91.9203961  22.6095752  37.5961623  91.2265479  22.9205042
  39.2511207 101.6167548  24.1364825  39.2087386 101.8428394  23.2073357
  40.1673906 101.3830922  24.2850626  42.6976841  92.0851615  31.0345454
  43.0526229  92.3123088  31.8939920  43.3448972  92.4169992  30.4122709
  48.4274578  95.2070051  21.7394783  48.2892476  95.3971647  20.8115972
  48.0710797  95.9689434  22.1962834  36.5916704  89.1928146  27.8191795
  37.2316083  89.0516905  27.1214758  35.7594235  88.9062660  27.4430397
  48.4543957  97.2746578  26.7506054  48.8880464  97.1821867  27.5989108
  49.1675538  97.2504078  26.1126070  37.3677008  98.4930577  23.9326787
  38.1617606  97.9980897  23.7309362  36.6568700  97.9648440  23.5694493
  42.1871852 100.8748672  28.2839155  42.2408875 101.4439608  29.0516871
  41.3186634 101.0450557  27.9193192  33.6759771  92.6373658  20.0086540
  32.7457359  92.5758114  20.2256502  33.7717243  92.1149611  19.2123181
  33.5945320  89.1628471  22.5964782  33.8552138  90.0773804  22.4873942
  34.4162493  88.6952914  22.7461394  35.0670246  90.5766228  29.7663606
  35.7393299  90.3683590  29.1176255  34.2400032  90.3788314  29.3268838
  49.3159507  97.3170279  29.2838940  49.5095397  98.2216089  29.5298215
  49.2160125  96.8577698  30.1177525  40.9695818  87.2028169  31.7829267
  40.3223733  87.9018119  31.6893743  41.7396833  87.6364313  32.1505515
  44.3774616  97.4677021  34.8579820  44.2260122  97.2387573  33.9409904
  44.3679295  98.4247623  34.8711165  41.1459952  95.0408934  29.8426087
  42.0752012  95.1920094  29.6695054  40.7250982  95.1292955  28.9874733
  39.9448284  99.0659599  27.6124624  39.8059370  98.6978383  28.4850563
  39.1562880  99.5807238  27.4408582  40.5396436 104.1668695  18.9550161
  40.7148192 103.6956738  19.7695784  39.8529224 104.7934461  19.1831422
  41.4953499  98.4441201  25.0013462  41.1603332  98.4041971  25.8971112
  40.9957445  97.7785917  24.5283872  35.4697743  93.8508831  30.5266043
  35.3317541  93.1189070  31.1277582  36.3802666  93.7617731  30.2450231
  44.4312691  95.7897236  15.2750522  43.8141861  95.0644064  15.1783575
  43.9629179  96.5506596  14.9317596  38.0980044  93.5628791  30.0149723
  38.8079662  92.9221983  29.9736341  38.0549352  93.8141685  30.9375904
  46.0866822 100.4996144  32.9356302  46.0279369  99.8155364  32.2686885
  46.4886341 101.2415134  32.4836928  36.8108978  90.5494009  31.8345362
  36.2746335  90.0984747  32.4866959  36.2225686  90.6839917  31.0915827
  35.1057521 107.3158058  25.7290021  35.3454119 107.9476582  26.4069040
  34.2626718 106.9646098  26.0155380  36.2211237  90.0082660  14.3971826
  35.3440703  89.8871461  14.0334073  36.6968990  89.2168738  14.1450715
  46.0884230  98.4635728  31.1670282  45.2011008  98.1261650  31.2896681
  46.6582781  97.7318759  31.4039047  27.7413377  94.7959820  24.4913333
  28.4284417  94.4821550  23.9034349  27.5861505  95.7001184  24.2180585
  32.5448099  89.6850016  28.9198357  32.4606288  89.0775686  28.1848767
  31.7230805  90.1759035  28.9207853  39.6185383 103.1237180  28.1331525
  39.5455555 103.9292152  28.6450830  39.1762776 103.3229146  27.3079546
  39.4075163 102.3608950  21.6434347  38.6242685 102.9030630  21.7372571
  40.1067908 102.8782930  22.0428588  42.7171813  88.1703580  24.2868552
  43.2140512  87.4173542  23.9669622  41.9458794  88.2067896  23.7211761
  50.5701570  93.8743945  25.9286844  50.5591446  94.7568661  25.5580777
  49.7018950  93.5215496  25.7341381  42.0784067 103.0224014  30.2889684
  42.7912039 103.6571479  30.2165585  41.5874095 103.1187880  29.4729686
  43.8001593  96.9275267  21.8606975  42.8657872  97.0476729  21.6911680
  43.9778262  96.0247734  21.5966985  39.3006782  90.3120963  24.0140237
  38.9304569  89.7592003  24.7021142  39.7965874  89.7079096  23.4615237
  47.1874145  92.7692586  22.3957010  47.6534597  93.6020578  22.3217312
  47.6381645  92.3037568  23.1002268  37.1295980 100.7718458  31.1095255
  37.8305440 101.4054941  31.2624649  36.6591095 101.1133189  30.3490894
  45.2550376  99.1136408  19.3943162  45.5310220  98.9993002  20.3037036
  44.3854875  98.7153892  19.3555335  45.1590808  85.1373173  26.4347911
  44.2453887  85.3677400  26.6030118  45.5883909  85.2211617  27.2861943
  44.9297266  93.3263065  28.9347805  44.2768716  93.5738973  28.2800258
  45.3077646  92.5127203  28.6010282  41.8904440 103.3622758  23.0375975
  42.0726834 102.5444414  23.5003728  42.7137426 103.5790451  22.6000865
  42.2246605 102.2890943  20.2991024  42.7534372 101.7783398  19.6861186
  42.4874825 101.9733474  21.1636557  40.9784839  94.0682876  35.4213842
  40.3025476  93.9677006  36.0916217  41.8012473  93.9122090  35.8849839
  32.7263698 100.3054813  28.0426357  33.3117135  99.5598501  28.1754261
  32.5288537 100.6158770  28.9263021  35.5802353 103.3406060  23.0588800
  34.9112729 103.8252188  22.5752840  35.4415223 103.5875281  23.9732178
  27.3181353  92.8760413  26.7630800  27.3565452  92.3424004  27.5567919
  26.8121646  92.3495619  26.1441778  39.7207622 105.3749804  29.6571458
  40.2725930 105.5381425  30.4220543  40.0613815 105.9654242  28.9851483
  34.6972115  87.7224954  30.2593343  34.7613442  88.5839784  29.8470740
  34.6339235  87.1098955  29.5265701  34.1724388  89.7948086  33.9066377
  34.7996427  89.4125163  34.5203901  33.3152307  89.5762288  34.2722069
  44.5718496 100.2011061  35.5120112  45.1158400 100.8141019  35.0175067
  43.9905341 100.7590640  36.0287125  30.9489930  91.6024515  19.8384732
  31.2443372  90.6935194  19.7851785  30.0477966  91.5812255  19.5165734
  42.8576009 103.3231779  26.6435140  42.7327149 102.5221519  26.1346086
  43.5155100 103.8177973  26.1549110  34.4784177  89.6780512  25.8212280
  33.7570763  90.2916479  25.6819754  35.2677433  90.2138277  25.7428926
  44.9210918 101.1240799  28.2714690  43.9741253 101.0046150  28.1993017
  45.2693691 100.2363297  28.3540952  37.2810491  87.0134938  32.0952932
  37.8044893  87.2597235  32.8579241  37.0622824  87.8454973  31.6756069
  32.6777772  89.2838613  19.9624057  32.3490478  88.4035992  19.7799163
  33.0317143  89.2286282  20.8500446  41.9257351 100.9193516  24.4719042
  41.7782313  99.9910223  24.6526613  42.7510844 100.9413606  23.9876118
  35.7919595  89.5711583  20.3299535  36.1315668  90.0997504  19.6078143
  36.2391716  89.9091989  21.1058101  45.5291473 101.7422074  25.5583915
  46.4538020 101.5364936  25.4208366  45.3606776 101.4938475  26.4673257
  38.4863036  87.9548633  29.7802603  38.1459856  87.1556446  30.1823283
  37.7802042  88.2550344  29.2079436  39.1379508  85.0397946  28.2329926
  39.9605577  84.5658424  28.1108816  39.3817571  85.8188430  28.7328612
  37.7787742  88.0686204  18.5292827  38.4996105  88.4467457  18.0256544
  37.1553046  88.7875081  18.6327805  41.9218865  88.7731353  19.4651160
  42.1382480  89.6555991  19.1639988  41.4412932  88.3817567  18.7356802
  36.6618087  91.7317066  26.0421904  36.5162667  92.0457369  26.9346186
  36.1843290  92.3501967  25.4892803  38.5214469  88.7219614  26.0902794
  38.5076038  87.8260708  25.7535092  39.2386898  88.7290278  26.7241080
  40.3740600  89.1556955  28.1355921  40.1158378  90.0774025  28.1340252
  39.8425641  88.7587389  28.8256385  45.3186789 102.2607742  20.9146007
  45.4923666 101.6954164  20.1619859  45.8115680 103.0608637  20.7325497
  31.1363749  94.2722411  28.9809566  30.5917217  95.0482219  29.1129840
  32.0143099  94.6193215  28.8228687  37.9251365  87.6033995  21.3590364
  38.0467277  86.6750641  21.5581252  37.6353408  87.6172681  20.4468679
  40.7942556  85.2888905  24.4957084  40.8164253  85.3528238  23.5409063
  41.2110615  84.4493414  24.6897590  51.1726180  95.0244165  22.5336306
  51.6157326  94.2751490  22.1355430  50.2952690  95.0154301  22.1510038
  46.3061961 101.5774506  18.0142905  47.0012866 102.1981199  18.2330220
  46.6485112 100.7269857  18.2895283  31.9229771  93.3992307  31.8739722
  31.1811507  93.5474942  32.4604353  31.6022515  93.6600573  31.0106472
  48.2053385  99.0274212  19.5430236  48.7304709  99.3661484  18.8179556
  48.1175737  98.0921227  19.3593370  39.8673433 102.9408285  31.6720112
  40.1760560 102.6957432  32.5442812  40.6648915 103.1454924  31.1838983
  39.8894045 105.0946195  23.9025489  39.4499036 104.6022574  24.5958346
  40.6402162 104.5519163  23.6617564  32.3686384 101.2857736  23.9050117
  33.1944404 100.9861508  23.5248761  32.0180436 100.5165358  24.3539906
  37.3367917 100.6384204  25.9747791  36.7147927  99.9754909  25.6750018
  38.0072784 100.6645336  25.2921438  30.5694989  99.2044062  24.8639051
  29.7326898  98.7766237  24.6823052  30.5418635  99.3976506  25.8009842
  37.4092445  89.1165992  35.5680297  37.4580600  89.9928115  35.1858066
  37.9514959  88.5743385  34.9951940  47.8947291  99.6607115  34.8481434
  47.1042834  99.6431254  34.3085933  47.6580645 100.1995409  35.6030470
  48.0145166  96.5099582  32.1614162  48.0643171  96.3449589  33.1029685
  47.9059089  95.6426841  31.7712043  36.8981424  99.1888127  19.4506251
  37.0469545  99.8723592  18.7972924  37.7047868  99.1693217  19.9655707
  45.3048928  92.4930510  33.4773469  46.2058791  92.3536975  33.1857467
  45.3796903  92.6584965  34.4171646  39.6391733  89.8697364  32.3226655
  38.7695043  90.1630930  32.0509244  39.8751214  90.4537809  33.0433919
  49.5163363  98.9296523  32.4056184  49.2248171  99.2926504  33.2419645
  48.9035494  98.2163531  32.2269516  50.7159045  96.4949403  24.9258754
  51.5505936  96.9339207  25.0896314  50.8518174  96.0188056  24.1067000
  47.7650551  94.0529138  30.8736242  48.2404672  94.2456784  30.0655093
  46.8416116  94.1088324  30.6279625  34.6534057  95.2153305  20.4567320
  34.4080099  94.3115635  20.6547530  34.8229972  95.2170455  19.5146798
  42.3430767  86.0876981  29.8392076  42.8612711  86.8238008  29.5138564
  41.9885900  86.3940975  30.6738835  33.9229705  90.9481663  17.9553482
  33.2298950  91.0226018  17.2993517  33.6781457  90.1842006  18.4774998
  42.5943361  82.5077264  25.3592972  42.8745115  81.8400453  25.9853399
  43.3793968  82.7006360  24.8467636  40.3976830 101.6836258  16.9217999
  39.8250797 102.3026445  16.4688470  40.9709624 102.2335619  17.4557921
  46.4652220  90.9294898  29.1064547  47.4169643  91.0292996  29.1276771
  46.2955670  90.1373166  29.6162632  44.4866599  88.0150481  29.2923948
  43.8916531  88.2955494  28.5970437  44.2016296  88.5044382  30.0640689
  43.6174090 101.9673408  18.0526581  44.5504763 101.9018970  18.2559456
  43.5297303 102.8029675  17.5941114  46.2462106 101.2839278  15.0130528
  46.1675738 100.9499142  15.9066286  47.0671773 101.7761046  15.0122001
  48.9440298  94.1501018  28.2206847  48.9116618  93.2117018  28.4066531
  49.5540921  94.2285054  27.4872672  40.7823628  93.0197071  14.2634051
  41.7282733  92.8903279  14.3322469  40.4037873  92.2811732  14.7403479
  49.0934786  90.9412061  28.2665130  48.5773835  90.1570518  28.0795059
  49.9774735  90.6130778  28.4311650  46.7545513  84.6853077  24.2260943
  46.5570334  84.3768165  25.1104275  47.3645219  85.4114715  24.3558873
  54.7616847  95.2117024  27.3612884  55.4920236  94.9502313  27.9220587
  54.1523793  94.4745746  27.4014952  52.8432145  93.3524887  27.9587335
  52.1165308  93.2180852  27.3503827  52.4279431  93.6601716  28.7644053
  40.6662321  97.0714817  35.7234708  41.5865330  97.2493416  35.9174755
  40.6311904  96.1270862  35.5714407  38.9666546  90.9447047  14.1988936
  38.0598001  90.6480160  14.2751650  39.2442527  90.6476865  13.3323223
  29.8844486  92.2653410  24.6487983  29.5647270  91.4118719  24.3562357
  29.3377914  92.4801988  25.4045950  33.6624393  94.9815851  28.3657489
  33.8810403  95.9132959  28.3845523  34.0750167  94.6223826  29.1512293
  40.5828611  85.4883937  20.3533178  39.7729340  85.1431022  20.7288424
  41.2713028  85.1791480  20.9420789  42.5119160  84.5661983  21.9757474
  43.0650198  84.9857437  22.6347497  42.7489246  83.6397732  22.0180430
  38.5352259  90.5549057  37.7560238  38.4348986  91.5043414  37.6872329
  38.3173801  90.2267296  36.8836308  37.7365330  87.8033982  14.3400915
  38.5984494  88.1288880  14.5996733  37.9215674  87.0165478  13.8273981
  29.7532746  95.8856322  26.6181104  29.0596217  95.4710275  26.1051059
  30.5005737  95.9276858  26.0214523  45.8897967  86.6762509  21.4836138
  45.3096636  87.3347313  21.1014191  45.6233899  85.8539853  21.0723556
  44.3401533  86.0767566  23.6857459  44.8401311  86.1884101  22.8771778
  44.9837141  85.7728619  24.3258267  38.3983529  93.9846196  36.5725300
  37.9150611  94.7846556  36.7789189  38.4844468  93.9954141  35.6192744
  31.6669488  95.8174576  24.4947119  31.6440177  95.9162263  23.5429002
  31.9770125  96.6639726  24.8164285  34.3256866  97.8750731  28.6093734
  35.2800120  97.8434673  28.5423665  34.1269390  97.4141354  29.4243959
  34.9156248  96.4451847  31.1764531  35.7349137  96.9395925  31.1999369
  35.1893056  95.5283815  31.1482099  44.6722845  88.8362599  20.5392487
  43.7848700  89.1212250  20.3212681  45.0876834  88.6756362  19.6919764
  48.0237381  88.8609120  24.2546826  48.7997771  89.3505572  24.5271443
  47.2985515  89.2867174  24.7118695  50.4609939  89.5736739  25.3120767
  51.0554430  89.3332475  24.6014075  50.5336523  88.8543870  25.9394303
  32.6807095 103.4170350  25.6263931  32.5461563 102.6570751  25.0601929
  32.2639157 104.1411250  25.1592720  43.8166058  98.6007274  14.6340507
  44.5201908  98.8057276  15.2498162  43.0928707  99.1684036  14.8989590
  44.6463868  94.3517135  20.7542777  44.5899070  94.8085686  19.9150409
  45.1992211  93.5907820  20.5765620  48.4568674  90.1406867  21.5792896
  48.2005609  89.7403502  22.4101104  47.8321542  90.8550661  21.4543036
  52.7681012  92.8802940  24.0864188  52.2080570  92.9496129  24.8595750
  52.1624516  92.7043925  23.3663684  35.8376221 104.3139667  25.8382374
  35.7208605 105.2585100  25.7361064  35.0168667 104.0113229  26.2268173
  45.7252756  99.0389803  16.6838967  46.5598359  98.6071001  16.5016442
  45.5637098  98.8671817  17.6115861  45.3798648  95.5421916  18.0495306
  45.3247452  95.3766188  17.1083750  44.7544703  96.2497949  18.2057496
  30.1691163  90.7789981  31.8756728  30.8150026  90.2688935  32.3643953
  29.9608314  91.5158662  32.4500154  42.6944555  97.8470828  37.3748869
  43.5635715  98.0211480  37.0135504  42.2151306  98.6665245  37.2524598
  38.6894773  85.0430025  17.6280624  38.6773443  85.9871865  17.7848895
  39.5818195  84.8600171  17.3340086  36.8630735 104.9667929  29.0538303
  37.7657982 104.9991539  29.3704797  36.6368105 104.0368380  29.0684638
  38.6184337 103.7198916  25.7148381  37.6679968 103.7200777  25.6012753
  38.9216823 102.9731650  25.1984416  42.5046893  81.6372802  21.8826561
  41.7379288  81.0831289  22.0283244  42.9157598  81.7094671  22.7440713
  34.5088654  87.9257598  35.9731743  35.3720115  87.5694402  36.1835067
  33.9354064  87.5871492  36.6607147  54.3537031 109.5559454  26.7794144
  54.9915441 109.4366201  26.0757484  54.2357874 110.5040298  26.8382096
  51.1626737 109.5086882  26.7155668  50.8245248 109.3927947  25.8276203
  52.0316505 109.1078047  26.6956674  47.0213553 111.3622359  22.7052559
  46.4578418 111.2712295  21.9368847  46.9065948 110.5422263  23.1855052
  51.6446520 110.6621734  32.6741874  51.6335161 110.2674532  31.8022377
  51.8067159 109.9287806  33.2675645  44.5677985 112.8573550  25.5436780
  45.3599276 112.5164375  25.1283079  44.8074635 112.9668525  26.4638933
  52.6013111 115.0293326  18.0167024  51.9501091 115.6147407  17.6301038
  53.3957474 115.5599521  18.0762062  46.5268738 112.1182463  18.4154158
  47.2999614 111.5711450  18.2767034  46.8794137 112.9826713  18.6268620
  48.3653781 113.4458846  31.6221058  48.0743647 114.3504476  31.5067724
  49.0010765 113.4875373  32.3365127  49.2909988 110.8235694  28.2122417
  49.8873560 110.5991717  27.4979380  49.3484959 110.0820440  28.8147865
  48.8635016 108.2775129  16.0472608  49.1160537 107.7556651  15.2856071
  47.9259575 108.1141275  16.1499292  53.9078299 107.2810908  23.8547352
  54.6941388 106.8630331  23.5037769  54.1717003 108.1857000  24.0229000
  54.0788376 112.7183758  18.5536008  53.4434209 112.7918385  19.2656913
  53.7485783 113.3077357  17.8755088  59.3086726 107.2186141  24.7580330
  60.0411898 106.6485358  24.9918160  58.5526082 106.8307741  25.1986836
  48.5831305 110.1803235  18.2496983  48.4667563 109.5048139  18.9178068
  48.6933565 109.6935609  17.4329136  50.9262846 109.6413383  21.9543673
  50.5621053 109.1144004  22.6656594  51.7829962 109.2511852  21.7810158
  56.8312147 100.9307715  29.2174939  56.4995471 101.8003126  28.9936154
  56.2357760 100.6143999  29.8968969  50.5668333 104.6703282  16.9505021
  50.7342735 105.5383519  17.3175492  50.3765502 104.8330564  16.0266310
  53.3243666 113.1320261  28.6170851  53.0244389 114.0345300  28.5086659
  52.9794726 112.8652444  29.4692004  46.7756148 109.5834058  24.6507556
  45.8506644 109.4510272  24.8585248  47.0240561 110.3628277  25.1477498
  56.7240810 105.6502801  26.2968289  55.8157687 105.5818210  26.0027050
  56.6728406 106.1274746  27.1250114  50.5457554 107.1260940  17.9351688
  50.4257179 107.5717990  18.7737168  49.8510142 107.4746257  17.3765226
  44.1364959 109.2267332  25.4851345  44.2657340 109.4801810  26.3990757
  43.4562410 109.8195040  25.1656000  48.3064446 119.8964581  21.5841819
  48.2288476 120.8472407  21.6630300  47.7026090 119.5510454  22.2416745
  50.7981676 107.0692447  34.2403186  50.0215010 107.6286367  34.2306051
  51.4372239 107.5549230  34.7618056  58.5902456 103.8519240  28.0746163
  57.9476837 104.1451773  27.4285957  58.0857385 103.7372160  28.8799359
  56.2442620 107.5982413  18.7632022  57.1560476 107.8309800  18.5879719
  55.7352267 108.1819457  18.2007101  49.0528048 109.8777900  33.8021153
  49.7942732 110.4162944  33.5255977  48.3465033 110.5044189  33.9592705
  54.5283388 112.0207041  32.3993315  54.9366744 111.5789451  31.6547947
  53.8060649 111.4459668  32.6527507  50.8814458 106.9579648  29.7726871
  51.7275653 107.3819061  29.9161520  50.8213095 106.3013272  30.4665435
  54.8512202 112.5808231  26.1545603  54.2221065 112.7453945  25.4521671
  54.4637864 112.9949841  26.9256567  58.7301434 113.5162669  23.5089967
  58.0452472 113.8961571  22.9587000  58.8145284 114.1257996  24.2421915
  54.0313903 104.6184016  31.4308045  53.7874835 105.3726076  30.8942321
  54.3073834 104.9969363  32.2655292  55.9852366 111.1622628  30.1085311
  56.1969261 111.8054388  29.4319692  55.9382114 110.3284945  29.6407241
  53.5878595 103.7740449  27.0121883  52.7263074 104.0721702  27.3038620
  53.6141029 103.9910848  26.0802915  50.4040164 112.3182639  23.4195688
  50.8678510 112.5970342  22.6300311  50.1396962 111.4166084  23.2368779
  47.2964245 111.8654121  26.3575452  47.8665602 112.2941389  25.7192936
  47.8872357 111.5836706  27.0559637  49.3409050 108.4405792  20.2285254
  50.0433094 108.8926835  20.6959180  49.0089679 107.7989611  20.8565147
  47.7889412 107.0317548  34.6036463  47.1588072 107.7133829  34.8371860
  47.6825500 106.9200630  33.6589601  43.0834384 106.6989344  25.5302387
  42.2933438 106.9546873  25.0542498  43.5745632 107.5137682  25.6354428
  57.0998194 114.0394584  28.2807668  57.9215637 113.6374771  27.9990350
  57.0960597 113.9362818  29.2323784  45.0349130 107.0633924  22.4885864
  44.2380293 107.1752618  23.0069360  44.8074722 107.4020576  21.6226754
  50.8654797 113.5878627  30.4368379  50.9299230 114.0499034  31.2726550
  50.1565721 112.9575992  30.5650688  41.3672087 106.9519835  27.9617378
  41.6180126 107.8366845  28.2274954  41.9031636 106.7724436  27.1892470
  65.1904187 110.3833332  24.6292639  64.4367895 109.8140730  24.4736644
  65.3251728 110.3495997  25.5763274  50.5802815 115.2546734  20.3047359
  50.4448490 116.0998270  20.7332207  51.1212627 115.4566012  19.5413293
  47.0670154 101.3338314  36.9661714  46.6737100 100.7804513  37.6409358
  47.8836295 101.6448893  37.3568232  44.0332212 112.7722172  20.8775284
  44.5456733 113.5665423  21.0280849  44.6854925 112.0748463  20.8108885
  45.8427097 115.8887929  22.9598037  46.0193725 116.8105893  22.7719021
  46.6383930 115.5746348  23.3892417  49.9838115 102.7496193  34.5581971
  50.7247829 103.3503347  34.4786433  50.2156038 102.0073831  34.0000013
  45.1279453 107.9352561  32.8360200  45.0132969 107.0337818  33.1367299
  44.2723971 108.1816257  32.4845017  52.2071291 115.8770301  34.4347701
  51.7635145 115.0906680  34.1168605  52.8688505 116.0649451  33.7691592
  46.9658412 117.4066103  28.9608379  47.5165838 117.2783166  28.1885373
  46.1269888 117.7060992  28.6103272  54.3052529 116.1573101  32.4629102
  54.2871005 116.9781982  31.9709371  55.2272449 116.0327176  32.6879243
  50.7625583 113.6717230  33.3052611  51.2953920 112.9105519  33.0751919
  50.2339665 113.3790882  34.0476765  53.9295278  98.7777296  28.8346252
  53.5859548  99.6678938  28.7585363  54.2974241  98.5878954  27.9715837
  41.9981129 111.1010827  21.6534854  42.8356351 111.5107835  21.4368562
  42.1759397 110.1610269  21.6235048  53.8945561 108.7685907  17.3418687
  53.3792185 109.5390512  17.5807075  53.6222870 108.0951044  17.9651749
  51.4792672 103.6135608  22.4003926  50.6234269 103.2242459  22.2209564
  51.8919624 103.6927569  21.5403711  53.0091819 101.1481951  26.7995486
  52.5056614 101.1112087  25.9863291  53.3022426 102.0574694  26.8592142
  49.2534705 101.2320681  25.8061667  50.1187701 101.0363490  25.4467557
  49.3212214 101.0031033  26.7331024  58.8679835 111.5218262  19.2771861
  58.0909278 111.1829422  18.8327023  59.5471316 111.5270885  18.6026826
  53.6831864 106.6413000  19.1678469  53.3782000 106.9559149  20.0188612
  54.6362306 106.7194419  19.2105802  52.1278296 112.8003223  20.8171423
  51.5999658 112.0655982  20.5044660  51.6265799 113.5777899  20.5711391
  57.1071142 110.9952243  25.9338469  56.4494817 111.6851505  26.0218598
  57.9111541 111.3848675  26.2772455  46.8597024 103.4622889  23.1778034
  47.4340776 103.2398071  22.4451227  47.4468006 103.5311584  23.9306635
  55.9176601 109.3496616  23.9842411  56.4308483 109.9826608  24.4864120
  56.5677825 108.7497812  23.6185771  47.1866611 105.4927350  17.1973919
  46.3503923 105.8302037  17.5183194  47.0471381 105.3576330  16.2601056
  49.1619691 100.3364138  21.9053104  48.5084104 100.0213155  21.2809718
  49.1200166  99.7139878  22.6312926  50.2730896 110.6183433  13.8206396
  49.3657958 110.3872687  14.0197545  50.7701928 109.8221052  14.0080377
  53.1798975 119.3280940  16.7403082  52.5060674 119.6312637  17.3488040
  53.5664797 120.1310021  16.3908539  52.3957432 106.8246072  26.2300751
  51.4779993 107.0461019  26.0722439  52.8117575 106.8992382  25.3712458
  53.1792480 108.2237487  21.3603431  53.9264299 108.7358884  21.0510553
  53.4484069 107.9021540  22.2207825  51.4519130 110.7196028  18.3430386
  50.5430349 110.4355061  18.4402855  51.4814214 111.1395107  17.4833693
  56.6838397 114.3302617  22.1121553  56.2300724 113.4893527  22.1686744
  56.0532364 114.9664016  22.4496333  55.6271317 105.2594604  23.3422221
  54.8894074 104.7471990  23.6732463  55.8798090 104.8194985  22.5305498
  55.1271336 116.1679114  23.0471371  55.4194311 116.7284171  22.3283737
  55.6369957 116.4607675  23.8024531  55.7282944  98.0370856  23.9363990
  56.0341821  97.1768219  23.6489905  56.4535549  98.6288476  23.7362984
  42.0207300 108.4401542  22.3245588  41.8231700 107.8470903  21.5996654
  41.4653964 108.1353752  23.0421527  50.0004024 108.3324649  24.4440181
  50.0552634 107.3798485  24.3682658  49.1895226 108.4884088  24.9281479
  51.1495218 112.2604772  15.6818464  50.7114648 111.5440631  15.2224102
  51.8905658 112.4880886  15.1203556  47.9396384 106.9501708  22.2030560
  47.1264249 107.2495879  22.6095752  48.4355378 106.5557397  22.9205042
  50.0904962 116.9459465  24.1364825  50.0481140 117.1720312  23.2073357
  51.0067660 116.7122840  24.2850626  53.5370595 107.4143533  31.0345454
  53.8919983 107.6415006  31.8939920  54.1842727 107.7461910  30.4122709
  59.2668332 110.5361969  21.7394783  59.1286231 110.7263565  20.8115972
  58.9104551 111.2981351  22.1962834  47.4310458 104.5220064  27.8191795
  48.0709838 104.3808823  27.1214758  46.5987989 104.2354577  27.4430397
  59.2937712 112.6038496  26.7506054  59.7274219 112.5113785  27.5989108
  60.0069293 112.5795996  26.1126070  48.2070762 113.8222494  23.9326787
  49.0011361 113.3272814  23.7309362  47.4962455 113.2940357  23.5694493
  53.0265607 116.2040590  28.2839155  53.0802629 116.7731526  29.0516871
  52.1580388 116.3742475  27.9193192  44.5153526 107.9665576  20.0086540
  43.5851114 107.9050031  20.2256502  44.6110998 107.4441529  19.2123181
  44.4339075 104.4920389  22.5964782  44.6945892 105.4065722  22.4873942
  45.2556247 104.0244831  22.7461394  45.9064000 105.9058146  29.7663606
  46.5787054 105.6975508  29.1176255  45.0793787 105.7080232  29.3268838
  60.1553262 112.6462196  29.2838940  60.3489152 113.5508007  29.5298215
  60.0553880 112.1869615  30.1177525  51.8089572 102.5320087  31.7829267
  51.1617487 103.2310037  31.6893743  52.5790588 102.9656231  32.1505515
  55.2168370 112.7968939  34.8579820  55.0653877 112.5679491  33.9409904
  55.2073050 113.7539541  34.8711165  51.9853707 110.3700852  29.8426087
  52.9145767 110.5212011  29.6695054  51.5644737 110.4584873  28.9874733
  50.7842038 114.3951516  27.6124624  50.6453124 114.0270301  28.4850563
  49.9956635 114.9099156  27.4408582  51.3790190 119.4960613  18.9550161
  51.5541946 119.0248656  19.7695784  50.6922978 120.1226379  19.1831422
  52.3347254 113.7733119  25.0013462  51.9997086 113.7333889  25.8971112
  51.8351199 113.1077835  24.5283872  46.3091498 109.1800749  30.5266043
  46.1711295 108.4480988  31.1277582  47.2196421 109.0909649  30.2450231
  55.2706445 111.1189153  15.2750522  54.6535616 110.3935981  15.1783575
  54.8022934 111.8798514  14.9317596  48.9373798 108.8920708  30.0149723
  49.6473417 108.2513900  29.9736341  48.8943106 109.1433603  30.9375904
  56.9260577 115.8288062  32.9356302  56.8673123 115.1447282  32.2686885
  57.3280095 116.5707052  32.4836928  47.6502732 105.8785926  31.8345362
  47.1140089 105.4276665  32.4866959  47.0619441 106.0131835  31.0915827
  45.9451276 122.6449975  25.7290021  46.1847874 123.2768500  26.4069040
  45.1020472 122.2938015  26.0155380  47.0604991 105.3374578  14.3971826
  46.1834457 105.2163378  14.0334073  47.5362744 104.5460656  14.1450715
  56.9277984 113.7927646  31.1670282  56.0404763 113.4553567  31.2896681
  57.4976535 113.0610677  31.4039047  38.5807131 110.1251737  24.4913333
  39.2678171 109.8113467  23.9034349  38.4255260 111.0293102  24.2180585
  43.3841853 105.0141934  28.9198357  43.3000042 104.4067603  28.1848767
  42.5624560 105.5050952  28.9207853  50.4579138 118.4529098  28.1331525
  50.3849309 119.2584069  28.6450830  50.0156531 118.6521064  27.3079546
  50.2468917 117.6900868  21.6434347  49.4636439 118.2322548  21.7372571
  50.9461662 118.2074848  22.0428588  53.5565567 103.4995497  24.2868552
  54.0534267 102.7465460  23.9669622  52.7852549 103.5359814  23.7211761
  61.4095325 109.2035863  25.9286844  61.3985201 110.0860578  25.5580777
  60.5412704 108.8507414  25.7341381  52.9177821 118.3515932  30.2889684
  53.6305793 118.9863397  30.2165585  52.4267850 118.4479798  29.4729686
  54.6395348 112.2567185  21.8606975  53.7051627 112.3768647  21.6911680
  54.8172016 111.3539651  21.5966985  50.1400536 105.6412880  24.0140237
  49.7698324 105.0883921  24.7021142  50.6359628 105.0371014  23.4615237
  58.0267899 108.0984504  22.3957010  58.4928351 108.9312496  22.3217312
  58.4775400 107.6329485  23.1002268  47.9689735 116.1010375  31.1095255
  48.6699194 116.7346858  31.2624649  47.4984850 116.4425107  30.3490894
  56.0944130 114.4428325  19.3943162  56.3703974 114.3284920  20.3037036
  55.2248629 114.0445810  19.3555335  55.9984562 100.4665091  26.4347911
  55.0847642 100.6969318  26.6030118  56.4277664 100.5503535  27.2861943
  55.7691021 108.6554983  28.9347805  55.1162471 108.9030890  28.2800258
  56.1471400 107.8419121  28.6010282  52.7298194 118.6914676  23.0375975
  52.9120589 117.8736332  23.5003728  53.5531180 118.9082368  22.6000865
  53.0640360 117.6182861  20.2991024  53.5928126 117.1075316  19.6861186
  53.3268579 117.3025391  21.1636557  51.8178594 109.3974794  35.4213842
  51.1419231 109.2968923  36.0916217  52.6406227 109.2414008  35.8849839
  43.5657453 115.6346730  28.0426357  44.1510889 114.8890418  28.1754261
  43.3682291 115.9450687  28.9263021  46.4196108 118.6697978  23.0588800
  45.7506483 119.1544105  22.5752840  46.2808978 118.9167198  23.9732178
  38.1575107 108.2052331  26.7630800  38.1959207 107.6715921  27.5567919
  37.6515400 107.6787536  26.1441778  50.5601376 120.7041721  29.6571458
  51.1119684 120.8673343  30.4220543  50.9007570 121.2946159  28.9851483
  45.5365870 103.0516871  30.2593343  45.6007196 103.9131702  29.8470740
  45.4732990 102.4390873  29.5265701  45.0118142 105.1240004  33.9066377
  45.6390181 104.7417081  34.5203901  44.1546061 104.9054206  34.2722069
  55.4112251 115.5302979  35.5120112  55.9552155 116.1432937  35.0175067
  54.8299096 116.0882557  36.0287125  41.7883685 106.9316433  19.8384732
  42.0837126 106.0227111  19.7851785  40.8871721 106.9104172  19.5165734
  53.6969764 118.6523697  26.6435140  53.5720903 117.8513437  26.1346086
  54.3548855 119.1469890  26.1549110  45.3177932 105.0072429  25.8212280
  44.5964518 105.6208397  25.6819754  46.1071188 105.5430194  25.7428926
  55.7604672 116.4532717  28.2714690  54.8135008 116.3338068  28.1993017
  56.1087445 115.5655215  28.3540952  48.1204245 102.3426856  32.0952932
  48.6438647 102.5889152  32.8579241  47.9016579 103.1746891  31.6756069
  43.5171527 104.6130530  19.9624057  43.1884233 103.7327909  19.7799163
  43.8710897 104.5578199  20.8500446  52.7651105 116.2485433  24.4719042
  52.6176068 115.3202141  24.6526613  53.5904599 116.2705524  23.9876118
  46.6313350 104.9003500  20.3299535  46.9709422 105.4289422  19.6078143
  47.0785470 105.2383906  21.1058101  56.3685227 117.0713992  25.5583915
  57.2931775 116.8656853  25.4208366  56.2000531 116.8230393  26.4673257
  49.3256791 103.2840551  29.7802603  48.9853611 102.4848364  30.1823283
  48.6195797 103.5842262  29.2079436  49.9773262 100.3689863  28.2329926
  50.7999332  99.8950342  28.1108816  50.2211326 101.1480347  28.7328612
  48.6181497 103.3978122  18.5292827  49.3389859 103.7759375  18.0256544
  47.9946801 104.1166999  18.6327805  52.7612620 104.1023271  19.4651160
  52.9776234 104.9847909  19.1639988  52.2806687 103.7109484  18.7356802
  47.5011841 107.0608984  26.0421904  47.3556422 107.3749287  26.9346186
  47.0237045 107.6793884  25.4892803  49.3608224 104.0511532  26.0902794
  49.3469793 103.1552625  25.7535092  50.0780652 104.0582196  26.7241080
  51.2134355 104.4848872  28.1355921  50.9552133 105.4065943  28.1340252
  50.6819395 104.0879307  28.8256385  56.1580543 117.5899659  20.9146007
  56.3317421 117.0246082  20.1619859  56.6509435 118.3900554  20.7325497
  41.9757503 109.6014328  28.9809566  41.4310971 110.3774136  29.1129840
  42.8536853 109.9485133  28.8228687  48.7645120 102.9325912  21.3590364
  48.8861031 102.0042559  21.5581252  48.4747162 102.9464598  20.4468679
  51.6336310 100.6180823  24.4957084  51.6558007 100.6820156  23.5409063
  52.0504369  99.7785331  24.6897590  62.0119935 110.3536082  22.5336306
  62.4551081 109.6043408  22.1355430  61.1346445 110.3446219  22.1510038
  57.1455716 116.9066424  18.0142905  57.8406621 117.5273116  18.2330220
  57.4878866 116.0561775  18.2895283  42.7623525 108.7284225  31.8739722
  42.0205261 108.8766860  32.4604353  42.4416269 108.9892490  31.0106472
  59.0447139 114.3566129  19.5430236  59.5698463 114.6953402  18.8179556
  58.9569492 113.4213145  19.3593370  50.7067188 118.2700203  31.6720112
  51.0154314 118.0249350  32.5442812  51.5042670 118.4746841  31.1838983
  50.7287800 120.4238113  23.9025489  50.2892790 119.9314491  24.5958346
  51.4795917 119.8811080  23.6617564  43.2080139 116.6149653  23.9050117
  44.0338159 116.3153425  23.5248761  42.8574191 115.8457276  24.3539906
  48.1761672 115.9676122  25.9747791  47.5541681 115.3046827  25.6750018
  48.8466539 115.9937254  25.2921438  41.4088744 114.5335980  24.8639051
  40.5720652 114.1058154  24.6823052  41.3812389 114.7268423  25.8009842
  48.2486199 104.4457910  35.5680297  48.2974355 105.3220033  35.1858066
  48.7908714 103.9035303  34.9951940  58.7341045 114.9899033  34.8481434
  57.9436589 114.9723172  34.3085933  58.4974400 115.5287327  35.6030470
  58.8538920 111.8391499  32.1614162  58.9036925 111.6741507  33.1029685
  58.7452844 110.9718758  31.7712043  47.7375179 114.5180045  19.4506251
  47.8863299 115.2015509  18.7972924  48.5441622 114.4985135  19.9655707
  56.1442683 107.8222427  33.4773469  57.0452545 107.6828892  33.1857467
  56.2190657 107.9876882  34.4171646  50.4785488 105.1989282  32.3226655
  49.6088797 105.4922848  32.0509244  50.7144968 105.7829727  33.0433919
  60.3557117 114.2588441  32.4056184  60.0641925 114.6218421  33.2419645
  59.7429248 113.5455449  32.2269516  61.5552799 111.8241321  24.9258754
  62.3899691 112.2631125  25.0896314  61.6911928 111.3479974  24.1067000
  58.6044305 109.3821055  30.8736242  59.0798427 109.5748702  30.0655093
  57.6809871 109.4380241  30.6279625  45.4927812 110.5445223  20.4567320
  45.2473854 109.6407553  20.6547530  45.6623726 110.5462373  19.5146798
  53.1824522 101.4168899  29.8392076  53.7006466 102.1529926  29.5138564
  52.8279655 101.7232892  30.6738835  44.7623459 106.2773580  17.9553482
  44.0692704 106.3517935  17.2993517  44.5175211 105.5133924  18.4774998
  53.4337116  97.8369182  25.3592972  53.7138870  97.1692371  25.9853399
  54.2187723  98.0298277  24.8467636  51.2370584 117.0128175  16.9217999
  50.6644551 117.6318363  16.4688470  51.8103378 117.5627537  17.4557921
  57.3045974 106.2586816  29.1064547  58.2563397 106.3584913  29.1276771
  57.1349425 105.4665084  29.6162632  55.3260354 103.3442399  29.2923948
  54.7310286 103.6247411  28.5970437  55.0410050 103.8336300  30.0640689
  54.4567844 117.2965326  18.0526581  55.3898517 117.2310887  18.2559456
  54.3691057 118.1321592  17.5941114  57.0855861 116.6131196  15.0130528
  57.0069492 116.2791060  15.9066286  57.9065528 117.1052964  15.0122001
  59.7834052 109.4792935  28.2206847  59.7510372 108.5408936  28.4066531
  60.3934676 109.5576972  27.4872672  51.6217383 108.3488988  14.2634051
  52.5676488 108.2195196  14.3322469  51.2431628 107.6103650  14.7403479
  59.9328541 106.2703979  28.2665130  59.4167589 105.4862435  28.0795059
  60.8168489 105.9422695  28.4311650  57.5939267 100.0144994  24.2260943
  57.3964089  99.7060082  25.1104275  58.2038973 100.7406633  24.3558873
  65.6010602 110.5408942  27.3612884  66.3313990 110.2794230  27.9220587
  64.9917547 109.8037664  27.4014952  63.6825899 108.6816805  27.9587335
  62.9559063 108.5472770  27.3503827  63.2673186 108.9893633  28.7644053
  51.5056075 112.4006734  35.7234708  52.4259085 112.5785333  35.9174755
  51.4705658 111.4562780  35.5714407  49.8060300 106.2738965  14.1988936
  48.8991755 105.9772077  14.2751650  50.0836281 105.9768783  13.3323223
  40.7238240 107.5945328  24.6487983  40.4041025 106.7410636  24.3562357
  40.1771669 107.8093906  25.4045950  44.5018148 110.3107769  28.3657489
  44.7204158 111.2424877  28.3845523  44.9143922 109.9515743  29.1512293
  51.4222366 100.8175854  20.3533178  50.6123094 100.4722939  20.7288424
  52.1106783 100.5083398  20.9420789  53.3512914  99.8953901  21.9757474
  53.9043953 100.3149355  22.6347497  53.5883000  98.9689649  22.0180430
  49.3746013 105.8840975  37.7560238  49.2742740 106.8335332  37.6872329
  49.1567555 105.5559214  36.8836308  48.5759085 103.1325900  14.3400915
  49.4378249 103.4580798  14.5996733  48.7609429 102.3457396  13.8273981
  40.5926500 111.2148240  26.6181104  39.8989972 110.8002192  26.1051059
  41.3399491 111.2568776  26.0214523  56.7291721 102.0054426  21.4836138
  56.1490390 102.6639230  21.1014191  56.4627654 101.1831771  21.0723556
  55.1795288 101.4059484  23.6857459  55.6795066 101.5176019  22.8771778
  55.8230895 101.1020537  24.3258267  49.2377283 109.3138114  36.5725300
  48.7544365 110.1138474  36.7789189  49.3238222 109.3246058  35.6192744
  42.5063243 111.1466493  24.4947119  42.4833931 111.2454181  23.5429002
  42.8163879 111.9931644  24.8164285  45.1650621 113.2042648  28.6093734
  46.1193874 113.1726591  28.5423665  44.9663144 112.7433272  29.4243959
  45.7550003 111.7743764  31.1764531  46.5742892 112.2687843  31.1999369
  46.0286811 110.8575733  31.1482099  55.5116599 104.1654517  20.5392487
  54.6242454 104.4504167  20.3212681  55.9270588 104.0048280  19.6919764
  58.8631135 104.1901038  24.2546826  59.6391525 104.6797490  24.5271443
  58.1379269 104.6159092  24.7118695  61.3003694 104.9028657  25.3120767
  61.8948185 104.6624393  24.6014075  61.3730278 104.1835787  25.9394303
  43.5200850 118.7462268  25.6263931  43.3855318 117.9862669  25.0601929
  43.1032912 119.4703168  25.1592720  54.6559813 113.9299191  14.6340507
  55.3595663 114.1349194  15.2498162  53.9322461 114.4975953  14.8989590
  55.4857623 109.6809053  20.7542777  55.4292824 110.1377604  19.9150409
  56.0385965 108.9199737  20.5765620  59.2962429 105.4698784  21.5792896
  59.0399363 105.0695420  22.4101104  58.6715297 106.1842578  21.4543036
  63.6074767 108.2094858  24.0864188  63.0474325 108.2788047  24.8595750
  63.0018270 108.0335842  23.3663684  46.6769975 119.6431585  25.8382374
  46.5602360 120.5877017  25.7361064  45.8562422 119.3405146  26.2268173
  56.5646510 114.3681721  16.6838967  57.3992114 113.9362919  16.5016442
  56.4030853 114.1963734  17.6115861  56.2192402 110.8713834  18.0495306
  56.1641206 110.7058105  17.1083750  55.5938457 111.5789867  18.2057496
  41.0084917 106.1081898  31.8756728  41.6543781 105.5980852  32.3643953
  40.8002068 106.8450580  32.4500154  53.5338309 113.1762746  37.3748869
  54.4029469 113.3503398  37.0135504  53.0545061 113.9957163  37.2524598
  49.5288528 100.3721943  17.6280624  49.5167198 101.3163783  17.7848895
  50.4211950 100.1892088  17.3340086  47.7024490 120.2959847  29.0538303
  48.6051736 120.3283457  29.3704797  47.4761860 119.3660298  29.0684638
  49.4578092 119.0490833  25.7148381  48.5073723 119.0492695  25.6012753
  49.7610578 118.3023568  25.1984416  53.3440647  96.9664719  21.8826561
  52.5773043  96.4123206  22.0283244  53.7551352  97.0386588  22.7440713
  45.3482408 103.2549515  35.9731743  46.2113870 102.8986320  36.1835067
  44.7747819 102.9163410  36.6607147  65.1930785 124.8851372  26.7794144
  65.8309195 124.7658119  26.0757484  65.0751628 125.8332216  26.8382096
  62.0020491 124.8378800  26.7155668  61.6639003 124.7219864  25.8276203
  62.8710260 124.4369965  26.6956674  57.8607307 126.6914276  22.7052559
  57.2972172 126.6004213  21.9368847  57.7459702 125.8714181  23.1855052
  62.4840274 125.9913651  32.6741874  62.4728915 125.5966450  31.8022377
  62.6460914 125.2579724  33.2675645  55.4071739 128.1865468  25.5436780
  56.1993031 127.8456292  25.1283079  55.6468389 128.2960443  26.4638933
  63.4406866 130.3585244  18.0167024  62.7894846 130.9439324  17.6301038
  64.2351229 130.8891439  18.0762062  57.3662493 127.4474381  18.4154158
  58.1393369 126.9003368  18.2767034  57.7187892 128.3118630  18.6268620
  59.2047536 128.7750763  31.6221058  58.9137402 129.6796394  31.5067724
  59.8404520 128.8167291  32.3365127  60.1303742 126.1527612  28.2122417
  60.7267315 125.9283634  27.4979380  60.1878714 125.4112357  28.8147865
  59.7028771 123.6067047  16.0472608  59.9554291 123.0848568  15.2856071
  58.7653330 123.4433193  16.1499292  64.7472054 122.6102826  23.8547352
  65.5335143 122.1922249  23.5037769  65.0110758 123.5148918  24.0229000
  64.9182131 128.0475676  18.5536008  64.2827964 128.1210302  19.2656913
  64.5879537 128.6369275  17.8755088  70.1480481 122.5478059  24.7580330
  70.8805653 121.9777276  24.9918160  69.3919836 122.1599659  25.1986836
  59.4225060 125.5095153  18.2496983  59.3061318 124.8340056  18.9178068
  59.5327319 125.0227527  17.4329136  61.7656600 124.9705300  21.9543673
  61.4014808 124.4435921  22.6656594  62.6223716 124.5803769  21.7810158
  67.6705901 116.2599633  29.2174939  67.3389226 117.1295044  28.9936154
  67.0751514 115.9435917  29.8968969  61.4062087 119.9995200  16.9505021
  61.5736490 120.8675436  17.3175492  61.2159257 120.1622482  16.0266310
  64.1637421 128.4612179  28.6170851  63.8638144 129.3637218  28.5086659
  63.8188480 128.1944362  29.4692004  57.6149902 124.9125976  24.6507556
  56.6900399 124.7802190  24.8585248  57.8634315 125.6920195  25.1477498
  67.5634564 120.9794719  26.2968289  66.6551442 120.9110127  26.0027050
  67.5122160 121.4566664  27.1250114  61.3851308 122.4552857  17.9351688
  61.2650934 122.9009908  18.7737168  60.6903897 122.8038175  17.3765226
  54.9758713 124.5559249  25.4851345  55.1051094 124.8093728  26.3990757
  54.2956164 125.1486957  25.1656000  59.1458200 135.2256499  21.5841819
  59.0682230 136.1764324  21.6630300  58.5419844 134.8802372  22.2416745
  61.6375430 122.3984365  34.2403186  60.8608764 122.9578285  34.2306051
  62.2765993 122.8841148  34.7618056  69.4296211 119.1811157  28.0746163
  68.7870591 119.4743691  27.4285957  68.9251139 119.0664078  28.8799359
  67.0836374 122.9274331  18.7632022  67.9954231 123.1601717  18.5879719
  66.5746022 123.5111375  18.2007101  59.8921803 125.2069818  33.8021153
  60.6336487 125.7454862  33.5255977  59.1858788 125.8336107  33.9592705
  65.3677142 127.3498958  32.3993315  65.7760498 126.9081369  31.6547947
  64.6454404 126.7751586  32.6527507  61.7208212 122.2871565  29.7726871
  62.5669407 122.7110979  29.9161520  61.6606850 121.6305189  30.4665435
  65.6905957 127.9100149  26.1545603  65.0614819 128.0745863  25.4521671
  65.3031619 128.3241759  26.9256567  69.5695189 128.8454587  23.5089967
  68.8846227 129.2253488  22.9587000  69.6539038 129.4549914  24.2421915
  64.8707658 119.9475934  31.4308045  64.6268589 120.7017994  30.8942321
  65.1467588 120.3261281  32.2655292  66.8246120 126.4914546  30.1085311
  67.0363016 127.1346306  29.4319692  66.7775869 125.6576862  29.6407241
  64.4272349 119.1032367  27.0121883  63.5656828 119.4013620  27.3038620
  64.4534784 119.3202765  26.0802915  61.2433919 127.6474557  23.4195688
  61.7072264 127.9262260  22.6300311  60.9790717 126.7458002  23.2368779
  58.1358000 127.1946039  26.3575452  58.7059357 127.6233307  25.7192936
  58.7266112 126.9128623  27.0559637  60.1802805 123.7697709  20.2285254
  60.8826848 124.2218753  20.6959180  59.8483433 123.1281528  20.8565147
  58.6283166 122.3609466  34.6036463  57.9981827 123.0425747  34.8371860
  58.5219254 122.2492548  33.6589601  53.9228139 122.0281262  25.5302387
  53.1327193 122.2838791  25.0542498  54.4139386 122.8429600  25.6354428
  67.9391948 129.3686501  28.2807668  68.7609392 128.9666689  27.9990350
  67.9354351 129.2654735  29.2323784  55.8742884 122.3925841  22.4885864
  55.0774047 122.5044536  23.0069360  55.6468476 122.7312494  21.6226754
  61.7048552 128.9170545  30.4368379  61.7692984 129.3790952  31.2726550
  60.9959476 128.2867910  30.5650688  52.2065842 122.2811753  27.9617378
  52.4573880 123.1658763  28.2274954  52.7425390 122.1016354  27.1892470
  76.0297941 125.7125250  24.6292639  75.2761650 125.1432648  24.4736644
  76.1645482 125.6787914  25.5763274  61.4196569 130.5838652  20.3047359
  61.2842244 131.4290188  20.7332207  61.9606382 130.7857930  19.5413293
  57.9063909 116.6630232  36.9661714  57.5130855 116.1096431  37.6409358
  58.7230049 116.9740810  37.3568232  54.8725967 128.1014090  20.8775284
  55.3850487 128.8957340  21.0280849  55.5248680 127.4040381  20.8108885
  56.6820851 131.2179846  22.9598037  56.8587480 132.1397811  22.7719021
  57.4777685 130.9038266  23.3892417  60.8231870 118.0788111  34.5581971
  61.5641583 118.6795264  34.4786433  61.0549793 117.3365749  34.0000013
  55.9673208 123.2644478  32.8360200  55.8526723 122.3629736  33.1367299
  55.1117726 123.5108175  32.4845017  63.0465046 131.2062219  34.4347701
  62.6028900 130.4198597  34.1168605  63.7082259 131.3941369  33.7691592
  57.8052167 132.7358020  28.9608379  58.3559592 132.6075084  28.1885373
  56.9663643 133.0352909  28.6103272  65.1446284 131.4865019  32.4629102
  65.1264759 132.3073900  31.9709371  66.0666204 131.3619094  32.6879243
  61.6019338 129.0009148  33.3052611  62.1347675 128.2397436  33.0751919
  61.0733419 128.7082800  34.0476765  64.7689033 114.1069214  28.8346252
  64.4253302 114.9970856  28.7585363  65.1367996 113.9170872  27.9715837
  52.8374884 126.4302744  21.6534854  53.6750106 126.8399753  21.4368562
  53.0153151 125.4902187  21.6235048  64.7339316 124.0977825  17.3418687
  64.2185939 124.8682430  17.5807075  64.4616624 123.4242961  17.9651749
  62.3186427 118.9427526  22.4003926  61.4628023 118.5534376  22.2209564
  62.7313378 119.0219487  21.5403711  63.8485573 116.4773869  26.7995486
  63.3450369 116.4404004  25.9863291  64.1416180 117.3866612  26.8592142
  60.0928459 116.5612599  25.8061667  60.9581456 116.3655408  25.4467557
  60.1605968 116.3322951  26.7331024  69.7073590 126.8510180  19.2771861
  68.9303033 126.5121339  18.8327023  70.3865071 126.8562803  18.6026826
  64.5225619 121.9704917  19.1678469  64.2175754 122.2851066  20.0188612
  65.4756061 122.0486337  19.2105802  62.9672051 128.1295141  20.8171423
  62.4393412 127.3947900  20.5044660  62.4659553 128.9069817  20.5711391
  67.9464897 126.3244161  25.9338469  67.2888571 127.0143422  26.0218598
  68.7505296 126.7140593  26.2772455  57.6990778 118.7914807  23.1778034
  58.2734530 118.5689988  22.4451227  58.2861761 118.8603501  23.9306635
  66.7570355 124.6788534  23.9842411  67.2702237 125.3118526  24.4864120
  67.4071579 124.0789729  23.6185771  58.0260365 120.8219268  17.1973919
  57.1897678 121.1593954  17.5183194  57.8865135 120.6868248  16.2601056
  60.0013446 115.6656056  21.9053104  59.3477858 115.3505073  21.2809718
  59.9593920 115.0431796  22.6312926  61.1124651 125.9475351  13.8206396
  60.2051713 125.7164604  14.0197545  61.6095683 125.1512970  14.0080377
  64.0192730 134.6572858  16.7403082  63.3454428 134.9604555  17.3488040
  64.4058552 135.4601938  16.3908539  63.2351186 122.1537989  26.2300751
  62.3173748 122.3752936  26.0722439  63.6511330 122.2284300  25.3712458
  64.0186234 123.5529405  21.3603431  64.7658053 124.0650802  21.0510553
  64.2877824 123.2313458  22.2207825  62.2912884 126.0487946  18.3430386
  61.3824104 125.7646978  18.4402855  62.3207968 126.4687024  17.4833693
  67.5232152 129.6594535  22.1121553  67.0694479 128.8185445  22.1686744
  66.8926118 130.2955934  22.4496333  66.4665071 120.5886521  23.3422221
  65.7287828 120.0763907  23.6732463  66.7191845 120.1486903  22.5305498
  65.9665091 131.4971032  23.0471371  66.2588065 132.0576089  22.3283737
  66.4763711 131.7899593  23.8024531  66.5676699 113.3662773  23.9363990
  66.8735575 112.5060137  23.6489905  67.2929303 113.9580393  23.7362984
  52.8601055 123.7693460  22.3245588  52.6625454 123.1762820  21.5996654
  52.3047719 123.4645670  23.0421527  60.8397778 123.6616566  24.4440181
  60.8946388 122.7090403  24.3682658  60.0288980 123.8176005  24.9281479
  61.9888972 127.5896689  15.6818464  61.5508402 126.8732548  15.2224102
  62.7299413 127.8172804  15.1203556  58.7790138 122.2793626  22.2030560
  57.9658004 122.5787797  22.6095752  59.2749132 121.8849315  22.9205042
  60.9298716 132.2751383  24.1364825  60.8874895 132.5012229  23.2073357
  61.8461415 132.0414758  24.2850626  64.3764350 122.7435450  31.0345454
  64.7313738 122.9706924  31.8939920  65.0236481 123.0753827  30.4122709
  70.1062087 125.8653886  21.7394783  69.9679985 126.0555482  20.8115972
  69.7498306 126.6273269  22.1962834  58.2704213 119.8511982  27.8191795
  58.9103592 119.7100741  27.1214758  57.4381744 119.5646495  27.4430397
  70.1331466 127.9330413  26.7506054  70.5667973 127.8405702  27.5989108
  70.8463047 127.9087914  26.1126070  59.0464517 129.1514412  23.9326787
  59.8405115 128.6564732  23.7309362  58.3356209 128.6232275  23.5694493
  63.8659361 131.5332507  28.2839155  63.9196384 132.1023444  29.0516871
  62.9974143 131.7034393  27.9193192  55.3547280 123.2957494  20.0086540
  54.4244868 123.2341949  20.2256502  55.4504752 122.7733446  19.2123181
  55.2732829 119.8212307  22.5964782  55.5339647 120.7357640  22.4873942
  56.0950002 119.3536749  22.7461394  56.7457755 121.2350064  29.7663606
  57.4180808 121.0267426  29.1176255  55.9187541 121.0372150  29.3268838
  70.9947016 127.9754114  29.2838940  71.1882906 128.8799925  29.5298215
  70.8947634 127.5161533  30.1177525  62.6483327 117.8612005  31.7829267
  62.0011242 118.5601954  31.6893743  63.4184342 118.2948149  32.1505515
  66.0562125 128.1260857  34.8579820  65.9047631 127.8971408  33.9409904
  66.0466804 129.0831458  34.8711165  62.8247461 125.6992770  29.8426087
  63.7539521 125.8503929  29.6695054  62.4038491 125.7876790  28.9874733
  61.6235793 129.7243434  27.6124624  61.4846879 129.3562218  28.4850563
  60.8350389 130.2391073  27.4408582  62.2183945 134.8252530  18.9550161
  62.3935701 134.3540574  19.7695784  61.5316733 135.4518297  19.1831422
  63.1741008 129.1025037  25.0013462  62.8390841 129.0625807  25.8971112
  62.6744954 128.4369753  24.5283872  57.1485252 124.5092667  30.5266043
  57.0105050 123.7772905  31.1277582  58.0590175 124.4201567  30.2450231
  66.1100200 126.4481071  15.2750522  65.4929370 125.7227899  15.1783575
  65.6416688 127.2090431  14.9317596  59.7767553 124.2212626  30.0149723
  60.4867171 123.5805818  29.9736341  59.7336861 124.4725521  30.9375904
  67.7654331 131.1579979  32.9356302  67.7066877 130.4739199  32.2686885
  68.1673850 131.8998969  32.4836928  58.4896487 121.2077844  31.8345362
  57.9533844 120.7568582  32.4866959  57.9013195 121.3423753  31.0915827
  56.7845030 137.9741893  25.7290021  57.0241628 138.6060417  26.4069040
  55.9414227 137.6229933  26.0155380  57.8998746 120.6666495  14.3971826
  57.0228212 120.5455296  14.0334073  58.3756499 119.8752574  14.1450715
  67.7671739 129.1219563  31.1670282  66.8798517 128.7845485  31.2896681
  68.3370290 128.3902594  31.4039047  49.4200886 125.4543655  24.4913333
  50.1071926 125.1405385  23.9034349  49.2649014 126.3585020  24.2180585
  54.2235608 120.3433852  28.9198357  54.1393797 119.7359521  28.1848767
  53.4018314 120.8342870  28.9207853  61.2972892 133.7821016  28.1331525
  61.2243063 134.5875987  28.6450830  60.8550285 133.9812981  27.3079546
  61.0862672 133.0192786  21.6434347  60.3030194 133.5614466  21.7372571
  61.7855417 133.5366765  22.0428588  64.3959322 118.8287415  24.2868552
  64.8928021 118.0757377  23.9669622  63.6246303 118.8651732  23.7211761
  72.2489079 124.5327781  25.9286844  72.2378955 125.4152496  25.5580777
  71.3806459 124.1799331  25.7341381  63.7571576 133.6807850  30.2889684
  64.4699548 134.3155314  30.2165585  63.2661604 133.7771716  29.4729686
  65.4789102 127.5859102  21.8606975  64.5445381 127.7060565  21.6911680
  65.6565771 126.6831569  21.5966985  60.9794290 120.9704798  24.0140237
  60.6092078 120.4175838  24.7021142  61.4753383 120.3662932  23.4615237
  68.8661654 123.4276422  22.3957010  69.3322106 124.2604413  22.3217312
  69.3169154 122.9621403  23.1002268  58.8083489 131.4302293  31.1095255
  59.5092949 132.0638776  31.2624649  58.3378604 131.7717025  30.3490894
  66.9337885 129.7720243  19.3943162  67.2097729 129.6576837  20.3037036
  66.0642384 129.3737728  19.3555335  66.8378317 115.7957009  26.4347911
  65.9241396 116.0261235  26.6030118  67.2671418 115.8795453  27.2861943
  66.6084775 123.9846901  28.9347805  65.9556225 124.2322808  28.2800258
  66.9865155 123.1711039  28.6010282  63.5691949 134.0206594  23.0375975
  63.7514343 133.2028250  23.5003728  64.3924935 134.2374286  22.6000865
  63.9034114 132.9474779  20.2991024  64.4321881 132.4367233  19.6861186
  64.1662334 132.6317309  21.1636557  62.6572348 124.7266712  35.4213842
  61.9812985 124.6260841  36.0916217  63.4799982 124.5705925  35.8849839
  54.4051207 130.9638648  28.0426357  54.9904644 130.2182336  28.1754261
  54.2076046 131.2742605  28.9263021  57.2589862 133.9989896  23.0588800
  56.5900238 134.4836023  22.5752840  57.1202732 134.2459116  23.9732178
  48.9968862 123.5344248  26.7630800  49.0352961 123.0007839  27.5567919
  48.4909155 123.0079454  26.1441778  61.3995131 136.0333639  29.6571458
  61.9513439 136.1965261  30.4220543  61.7401324 136.6238077  28.9851483
  56.3759624 118.3808789  30.2593343  56.4400951 119.2423620  29.8470740
  56.3126744 117.7682791  29.5265701  55.8511897 120.4531921  33.9066377
  56.4783935 120.0708999  34.5203901  54.9939816 120.2346123  34.2722069
  66.2506005 130.8594897  35.5120112  66.7945909 131.4724855  35.0175067
  65.6692850 131.4174475  36.0287125  52.6277439 122.2608351  19.8384732
  52.9230881 121.3519029  19.7851785  51.7265475 122.2396090  19.5165734
  64.5363518 133.9815615  26.6435140  64.4114658 133.1805354  26.1346086
  65.1942609 134.4761808  26.1549110  56.1571686 120.3364347  25.8212280
  55.4358272 120.9500315  25.6819754  56.9464942 120.8722112  25.7428926
  66.5998427 131.7824635  28.2714690  65.6528762 131.6629986  28.1993017
  66.9481200 130.8947133  28.3540952  58.9598000 117.6718774  32.0952932
  59.4832402 117.9181070  32.8579241  58.7410333 118.5038808  31.6756069
  54.3565281 119.9422448  19.9624057  54.0277987 119.0619827  19.7799163
  54.7104652 119.8870117  20.8500446  63.6044860 131.5777351  24.4719042
  63.4569822 130.6494058  24.6526613  64.4298353 131.5997442  23.9876118
  57.4707104 120.2295418  20.3299535  57.8103177 120.7581339  19.6078143
  57.9179225 120.5675824  21.1058101  67.2078982 132.4005910  25.5583915
  68.1325529 132.1948771  25.4208366  67.0394285 132.1522311  26.4673257
  60.1650545 118.6132469  29.7802603  59.8247365 117.8140282  30.1823283
  59.4589551 118.9134180  29.2079436  60.8167017 115.6981781  28.2329926
  61.6393086 115.2242259  28.1108816  61.0605080 116.4772265  28.7328612
  59.4575251 118.7270040  18.5292827  60.1783614 119.1051292  18.0256544
  58.8340555 119.4458916  18.6327805  63.6006374 119.4315189  19.4651160
  63.8169989 120.3139826  19.1639988  63.1200441 119.0401402  18.7356802
  58.3405596 122.3900902  26.0421904  58.1950176 122.7041205  26.9346186
  57.8630799 123.0085802  25.4892803  60.2001978 119.3803450  26.0902794
  60.1863547 118.4844543  25.7535092  60.9174407 119.3874113  26.7241080
  62.0528109 119.8140790  28.1355921  61.7945887 120.7357861  28.1340252
  61.5213150 119.4171224  28.8256385  66.9974298 132.9191577  20.9146007
  67.1711175 132.3538000  20.1619859  67.4903189 133.7192472  20.7325497
  52.8151258 124.9306246  28.9809566  52.2704726 125.7066054  29.1129840
  53.6930608 125.2777051  28.8228687  59.6038874 118.2617830  21.3590364
  59.7254786 117.3334476  21.5581252  59.3140917 118.2756516  20.4468679
  62.4730065 115.9472740  24.4957084  62.4951762 116.0112074  23.5409063
  62.8898124 115.1077249  24.6897590  72.8513689 125.6828000  22.5336306
  73.2944835 124.9335325  22.1355430  71.9740199 125.6738136  22.1510038
  67.9849470 132.2358341  18.0142905  68.6800375 132.8565034  18.2330220
  68.3272621 131.3853693  18.2895283  53.6017280 124.0576142  31.8739722
  52.8599016 124.2058778  32.4604353  53.2810024 124.3184408  31.0106472
  69.8840894 129.6858047  19.5430236  70.4092218 130.0245320  18.8179556
  69.7963246 128.7505062  19.3593370  61.5460942 133.5992121  31.6720112
  61.8548069 133.3541267  32.5442812  62.3436424 133.8038759  31.1838983
  61.5681554 135.7530030  23.9025489  61.1286545 135.2606409  24.5958346
  62.3189671 135.2102998  23.6617564  54.0473893 131.9441571  23.9050117
  54.8731913 131.6445343  23.5248761  53.6967945 131.1749194  24.3539906
  59.0155426 131.2968039  25.9747791  58.3935436 130.6338744  25.6750018
  59.6860293 131.3229171  25.2921438  52.2482498 129.8627898  24.8639051
  51.4114407 129.4350072  24.6823052  52.2206144 130.0560341  25.8009842
  59.0879954 119.7749827  35.5680297  59.1368109 120.6511950  35.1858066
  59.6302468 119.2327220  34.9951940  69.5734800 130.3190951  34.8481434
  68.7830343 130.3015089  34.3085933  69.3368154 130.8579244  35.6030470
  69.6932675 127.1683417  32.1614162  69.7430680 127.0033424  33.1029685
  69.5846598 126.3010676  31.7712043  58.5768933 129.8471963  19.4506251
  58.7257054 130.5307427  18.7972924  59.3835377 129.8277053  19.9655707
  66.9836437 123.1514345  33.4773469  67.8846300 123.0120810  33.1857467
  67.0584412 123.3168800  34.4171646  61.3179242 120.5281200  32.3226655
  60.4482552 120.8214766  32.0509244  61.5538723 121.1121645  33.0433919
  71.1950871 129.5880359  32.4056184  70.9035680 129.9510339  33.2419645
  70.5823003 128.8747367  32.2269516  72.3946554 127.1533238  24.9258754
  73.2293445 127.5923042  25.0896314  72.5305683 126.6771892  24.1067000
  69.4438060 124.7112973  30.8736242  69.9192181 124.9040619  30.0655093
  68.5203625 124.7672159  30.6279625  56.3321566 125.8737140  20.4567320
  56.0867608 124.9699470  20.6547530  56.5017481 125.8754291  19.5146798
  64.0218276 116.7460817  29.8392076  64.5400220 117.4821844  29.5138564
  63.6673409 117.0524810  30.6738835  55.6017214 121.6065498  17.9553482
  54.9086459 121.6809853  17.2993517  55.3568966 120.8425842  18.4774998
  64.2730870 113.1661099  25.3592972  64.5532624 112.4984288  25.9853399
  65.0581477 113.3590195  24.8467636  62.0764339 132.3420093  16.9217999
  61.5038306 132.9610280  16.4688470  62.6497133 132.8919455  17.4557921
  68.1439729 121.5878733  29.1064547  69.0957152 121.6876831  29.1276771
  67.9743179 120.7957002  29.6162632  66.1654108 118.6734316  29.2923948
  65.5704040 118.9539329  28.5970437  65.8803805 119.1628217  30.0640689
  65.2961599 132.6257243  18.0526581  66.2292272 132.5602805  18.2559456
  65.2084811 133.4613510  17.5941114  67.9249615 131.9423114  15.0130528
  67.8463247 131.6082977  15.9066286  68.7459282 132.4344882  15.0122001
  70.6227807 124.8084853  28.2206847  70.5904127 123.8700854  28.4066531
  71.2328430 124.8868890  27.4872672  62.4611137 123.6780906  14.2634051
  63.4070242 123.5487114  14.3322469  62.0825382 122.9395568  14.7403479
  70.7722295 121.5995896  28.2665130  70.2561344 120.8154353  28.0795059
  71.6562244 121.2714613  28.4311650  68.4333022 115.3436912  24.2260943
  68.2357843 115.0352000  25.1104275  69.0432728 116.0698551  24.3558873
  76.4404356 125.8700860  27.3612884  77.1707745 125.6086148  27.9220587
  75.8311302 125.1329582  27.4014952  74.5219653 124.0108722  27.9587335
  73.7952817 123.8764687  27.3503827  74.1066940 124.3185551  28.7644053
  62.3449830 127.7298652  35.7234708  63.2652839 127.9077251  35.9174755
  62.3099413 126.7854697  35.5714407  60.6454055 121.6030882  14.1988936
  59.7385510 121.3063995  14.2751650  60.9230036 121.3060700  13.3323223
  51.5631995 122.9237246  24.6487983  51.2434779 122.0702554  24.3562357
  51.0165423 123.1385824  25.4045950  55.3411902 125.6399687  28.3657489
  55.5597912 126.5716795  28.3845523  55.7537676 125.2807661  29.1512293
  62.2616120 116.1467772  20.3533178  61.4516849 115.8014857  20.7288424
  62.9500537 115.8375316  20.9420789  64.1906669 115.2245819  21.9757474
  64.7437707 115.6441272  22.6347497  64.4276755 114.2981567  22.0180430
  60.2139768 121.2132892  37.7560238  60.1136495 122.1627249  37.6872329
  59.9961310 120.8851131  36.8836308  59.4152839 118.4617818  14.3400915
  60.2772003 118.7872716  14.5996733  59.6003183 117.6749313  13.8273981
  51.4320255 126.5440157  26.6181104  50.7383726 126.1294110  26.1051059
  52.1793246 126.5860694  26.0214523  67.5685476 117.3346344  21.4836138
  66.9884145 117.9931148  21.1014191  67.3021408 116.5123689  21.0723556
  66.0189042 116.7351402  23.6857459  66.5188820 116.8467936  22.8771778
  66.6624650 116.4312455  24.3258267  60.0771038 124.6430031  36.5725300
  59.5938120 125.4430391  36.7789189  60.1631977 124.6537976  35.6192744
  53.3456997 126.4758411  24.4947119  53.3227686 126.5746098  23.5429002
  53.6557634 127.3223562  24.8164285  56.0044375 128.5334566  28.6093734
  56.9587629 128.5018508  28.5423665  55.8056899 128.0725190  29.4243959
  56.5943757 127.1035682  31.1764531  57.4136646 127.5979761  31.1999369
  56.8680565 126.1867650  31.1482099  66.3510354 119.4946434  20.5392487
  65.4636209 119.7796085  20.3212681  66.7664343 119.3340198  19.6919764
  69.7024890 119.5192955  24.2546826  70.4785280 120.0089408  24.5271443
  68.9773024 119.9451010  24.7118695  72.1397448 120.2320575  25.3120767
  72.7341939 119.9916311  24.6014075  72.2124032 119.5127705  25.9394303
  54.3594604 134.0754185  25.6263931  54.2249072 133.3154586  25.0601929
  53.9426666 134.7995085  25.1592720  65.4953567 129.2591109  14.6340507
  66.1989417 129.4641112  15.2498162  64.7716216 129.8267871  14.8989590
  66.3251377 125.0100970  20.7542777  66.2686579 125.4669522  19.9150409
  66.8779720 124.2491655  20.5765620  70.1356183 120.7990702  21.5792896
  69.8793118 120.3987338  22.4101104  69.5109051 121.5134496  21.4543036
  74.4468521 123.5386775  24.0864188  73.8868079 123.6079965  24.8595750
  73.8412025 123.3627760  23.3663684  57.5163730 134.9723503  25.8382374
  57.3996114 135.9168935  25.7361064  56.6956176 134.6697064  26.2268173
  67.4040265 129.6973638  16.6838967  68.2385868 129.2654837  16.5016442
  67.2424607 129.5255652  17.6115861  67.0586157 126.2005752  18.0495306
  67.0034961 126.0350023  17.1083750  66.4332212 126.9081784  18.2057496
  51.8478672 121.4373816  31.8756728  52.4937535 120.9272770  32.3643953
  51.6395823 122.1742498  32.4500154  64.3732064 128.5054663  37.3748869
  65.2423224 128.6795316  37.0135504  63.8938815 129.3249080  37.2524598
  60.3682282 115.7013861  17.6280624  60.3560952 116.6455700  17.7848895
  61.2605704 115.5184006  17.3340086  58.5418244 135.6251764  29.0538303
  59.4445491 135.6575375  29.3704797  58.3155614 134.6952215  29.0684638
  60.2971846 134.3782751  25.7148381  59.3467477 134.3784613  25.6012753
  60.6004332 133.6315486  25.1984416  64.1834402 112.2956637  21.8826561
  63.4166797 111.7415124  22.0283244  64.5945107 112.3678506  22.7440713
  56.1876163 118.5841433  35.9731743  57.0507624 118.2278238  36.1835067
  55.6141573 118.2455328  36.6607147  76.0324540 140.2143289  26.7794144
  76.6702950 140.0950037  26.0757484  75.9145383 141.1624133  26.8382096
  72.8414246 140.1670717  26.7155668  72.5032757 140.0511782  25.8276203
  73.7104014 139.7661883  26.6956674  68.7001062 142.0206194  22.7052559
  68.1365927 141.9296131  21.9368847  68.5853457 141.2006098  23.1855052
  73.3234029 141.3205569  32.6741874  73.3122670 140.9258367  31.8022377
  73.4854668 140.5871642  33.2675645  66.2465494 143.5157385  25.5436780
  67.0386785 143.1748210  25.1283079  66.4862144 143.6252361  26.4638933
  68.2056247 142.7766299  18.4154158  68.9787123 142.2295286  18.2767034
  68.5581646 143.6410548  18.6268620  70.0441290 144.1042681  31.6221058
  69.7531156 145.0088312  31.5067724  70.6798274 144.1459209  32.3365127
  70.9697497 141.4819529  28.2122417  71.5661069 141.2575552  27.4979380
  71.0272468 140.7404275  28.8147865  70.5422525 138.9358965  16.0472608
  70.7948046 138.4140486  15.2856071  69.6047084 138.7725110  16.1499292
  75.5865808 137.9394743  23.8547352  76.3728897 137.5214166  23.5037769
  75.8504512 138.8440835  24.0229000  80.9874235 137.8769976  24.7580330
  81.7199407 137.3069193  24.9918160  80.2313591 137.4891577  25.1986836
  70.2618814 140.8387071  18.2496983  70.1455072 140.1631974  18.9178068
  70.3721074 140.3519445  17.4329136  72.6050355 140.2997218  21.9543673
  72.2408562 139.7727839  22.6656594  73.4617471 139.9095687  21.7810158
  78.5099656 131.5891550  29.2174939  78.1782980 132.4586961  28.9936154
  77.9145269 131.2727834  29.8968969  72.2455842 135.3287118  16.9505021
  72.4130244 136.1967354  17.3175492  72.0553011 135.4914399  16.0266310
  75.0031175 143.7904096  28.6170851  74.7031898 144.6929135  28.5086659
  74.6582235 143.5236280  29.4692004  68.4543657 140.2417893  24.6507556
  67.5294153 140.1094107  24.8585248  68.7028070 141.0212113  25.1477498
  78.4028319 136.3086637  26.2968289  77.4945196 136.2402045  26.0027050
  78.3515915 136.7858582  27.1250114  72.2245063 137.7844775  17.9351688
  72.1044688 138.2301826  18.7737168  71.5297651 138.1330093  17.3765226
  65.8152468 139.8851167  25.4851345  65.9444849 140.1385646  26.3990757
  65.1349919 140.4778875  25.1656000  69.9851955 150.5548417  21.5841819
  69.9075985 151.5056242  21.6630300  69.3813599 150.2094289  22.2416745
  72.4769185 137.7276282  34.2403186  71.7002519 138.2870202  34.2306051
  73.1159748 138.2133065  34.7618056  80.2689965 134.5103075  28.0746163
  79.6264346 134.8035608  27.4285957  79.7644894 134.3955995  28.8799359
  77.9230129 138.2566248  18.7632022  78.8347985 138.4893635  18.5879719
  77.4139776 138.8403292  18.2007101  70.7315557 140.5361736  33.8021153
  71.4730241 141.0746780  33.5255977  70.0252542 141.1628024  33.9592705
  76.2070897 142.6790876  32.3993315  76.6154253 142.2373287  31.6547947
  75.4848158 142.1043504  32.6527507  72.5601967 137.6163483  29.7726871
  73.4063162 138.0402896  29.9161520  72.5000604 136.9597107  30.4665435
  76.5299711 143.2392067  26.1545603  75.9008574 143.4037781  25.4521671
  76.1425373 143.6533676  26.9256567  80.4088943 144.1746505  23.5089967
  79.7239981 144.5545406  22.9587000  80.4932792 144.7841831  24.2421915
  75.7101412 135.2767851  31.4308045  75.4662344 136.0309912  30.8942321
  75.9861343 135.6553199  32.2655292  77.6639875 141.8206464  30.1085311
  77.8756770 142.4638223  29.4319692  77.6169623 140.9868780  29.6407241
  75.2666104 134.4324284  27.0121883  74.4050583 134.7305538  27.3038620
  75.2928538 134.6494683  26.0802915  72.0827673 142.9766475  23.4195688
  72.5466019 143.2554178  22.6300311  71.8184471 142.0749919  23.2368779
  68.9751754 142.5237956  26.3575452  69.5453111 142.9525225  25.7192936
  69.5659866 142.2420541  27.0559637  71.0196559 139.0989627  20.2285254
  71.7220603 139.5510671  20.6959180  70.6877188 138.4573446  20.8565147
  69.4676921 137.6901384  34.6036463  68.8375581 138.3717665  34.8371860
  69.3613009 137.5784465  33.6589601  64.7621893 137.3573180  25.5302387
  63.9720947 137.6130708  25.0542498  65.2533141 138.1721518  25.6354428
  78.7785703 144.6978419  28.2807668  79.6003146 144.2958606  27.9990350
  78.7748106 144.5946653  29.2323784  66.7136639 137.7217759  22.4885864
  65.9167802 137.8336453  23.0069360  66.4862231 138.0604411  21.6226754
  72.5442306 144.2462462  30.4368379  72.6086739 144.7082870  31.2726550
  71.8353230 143.6159827  30.5650688  63.0459596 137.6103670  27.9617378
  63.2967635 138.4950680  28.2274954  63.5819145 137.4308272  27.1892470
  86.8691696 141.0417167  24.6292639  86.1155404 140.4724566  24.4736644
  87.0039237 141.0079832  25.5763274  72.2590324 145.9130570  20.3047359
  72.1235999 146.7582106  20.7332207  72.8000136 146.1149847  19.5413293
  68.7457663 131.9922150  36.9661714  68.3524609 131.4388348  37.6409358
  69.5623804 132.3032728  37.3568232  65.7119721 143.4306008  20.8775284
  66.2244242 144.2249258  21.0280849  66.3642434 142.7332298  20.8108885
  67.5214606 146.5471764  22.9598037  67.6981234 147.4689729  22.7719021
  68.3171439 146.2330183  23.3892417  71.6625624 133.4080029  34.5581971
  72.4035338 134.0087182  34.4786433  71.8943547 132.6657667  34.0000013
  66.8066962 138.5936396  32.8360200  66.6920478 137.6921653  33.1367299
  65.9511480 138.8400093  32.4845017  73.8858800 146.5354136  34.4347701
  73.4422654 145.7490515  34.1168605  74.5476014 146.7233287  33.7691592
  68.6445921 148.0649938  28.9608379  69.1953347 147.9367001  28.1885373
  67.8057397 148.3644827  28.6103272  75.9840038 146.8156936  32.4629102
  75.9658514 147.6365817  31.9709371  76.9059958 146.6911011  32.6879243
  72.4413092 144.3301066  33.3052611  72.9741429 143.5689354  33.0751919
  71.9127174 144.0374718  34.0476765  75.6082787 129.4361132  28.8346252
  75.2647057 130.3262773  28.7585363  75.9761750 129.2462789  27.9715837
  63.6768638 141.7594662  21.6534854  64.5143860 142.1691670  21.4368562
  63.8546906 140.8194104  21.6235048  75.5733070 139.4269743  17.3418687
  75.0579694 140.1974347  17.5807075  75.3010379 138.7534879  17.9651749
  73.1580181 134.2719444  22.4003926  72.3021777 133.8826294  22.2209564
  73.5707133 134.3511404  21.5403711  74.6879328 131.8065787  26.7995486
  74.1844123 131.7695922  25.9863291  74.9809935 132.7158530  26.8592142
  70.9322214 131.8904517  25.8061667  71.7975210 131.6947325  25.4467557
  70.9999723 131.6614868  26.7331024  75.3619373 137.2996835  19.1678469
  75.0569509 137.6142984  20.0188612  76.3149815 137.3778255  19.2105802
  73.8065805 143.4587058  20.8171423  73.2787167 142.7239818  20.5044660
  73.3053308 144.2361735  20.5711391  78.7858651 141.6536079  25.9338469
  78.1282326 142.3435340  26.0218598  79.5899050 142.0432511  26.2772455
  68.5384533 134.1206724  23.1778034  69.1128285 133.8981906  22.4451227
  69.1255515 134.1895419  23.9306635  77.5964110 140.0080451  23.9842411
  78.1095992 140.6410443  24.4864120  78.2465334 139.4081647  23.6185771
  68.8654120 136.1511186  17.1973919  68.0291432 136.4885872  17.5183194
  68.7258890 136.0160165  16.2601056  70.8407200 130.9947973  21.9053104
  70.1871613 130.6796991  21.2809718  70.7987675 130.3723714  22.6312926
  74.0744941 137.4829907  26.2300751  73.1567502 137.7044854  26.0722439
  74.4905084 137.5576217  25.3712458  74.8579989 138.8821323  21.3603431
  75.6051808 139.3942720  21.0510553  75.1271578 138.5605375  22.2207825
  73.1306639 141.3779863  18.3430386  72.2217858 141.0938896  18.4402855
  73.1601723 141.7978942  17.4833693  78.3625906 144.9886453  22.1121553
  77.9088233 144.1477363  22.1686744  77.7319873 145.6247851  22.4496333
  77.3058826 135.9178439  23.3422221  76.5681583 135.4055825  23.6732463
  77.5585599 135.4778820  22.5305498  76.8058845 146.8262950  23.0471371
  77.0981820 147.3868007  22.3283737  77.3157466 147.1191511  23.8024531
  77.4070453 128.6954691  23.9363990  77.7129330 127.8352054  23.6489905
  78.1323058 129.2872311  23.7362984  63.6994809 139.0985377  22.3245588
  63.5019209 138.5054738  21.5996654  63.1441473 138.7937588  23.0421527
  71.6791533 138.9908484  24.4440181  71.7340143 138.0382320  24.3682658
  70.8682735 139.1467923  24.9281479  69.6183893 137.6085544  22.2030560
  68.8051758 137.9079714  22.6095752  70.1142887 137.2141232  22.9205042
  71.7692471 147.6043301  24.1364825  71.7268649 147.8304147  23.2073357
  72.6855169 147.3706675  24.2850626  75.2158104 138.0727368  31.0345454
  75.5707492 138.2998841  31.8939920  75.8630236 138.4045745  30.4122709
  80.9455841 141.1945804  21.7394783  80.8073740 141.3847400  20.8115972
  80.5892060 141.9565187  22.1962834  69.1097967 135.1803899  27.8191795
  69.7497347 135.0392658  27.1214758  68.2775498 134.8938413  27.4430397
  80.9725221 143.2622331  26.7506054  81.4061728 143.1697620  27.5989108
  81.6856802 143.2379832  26.1126070  69.8858271 144.4806330  23.9326787
  70.6798870 143.9856650  23.7309362  69.1749964 143.9524193  23.5694493
  74.7053116 146.8624425  28.2839155  74.7590138 147.4315361  29.0516871
  73.8367897 147.0326310  27.9193192  66.1941035 138.6249411  20.0086540
  65.2638623 138.5633867  20.2256502  66.2898507 138.1025364  19.2123181
  66.1126584 135.1504224  22.5964782  66.3733401 136.0649557  22.4873942
  66.9343756 134.6828667  22.7461394  67.5851509 136.5641981  29.7663606
  68.2574563 136.3559343  29.1176255  66.7581296 136.3664067  29.3268838
  81.8340771 143.3046032  29.2838940  82.0276661 144.2091842  29.5298215
  81.7341389 142.8453451  30.1177525  73.4877081 133.1903922  31.7829267
  72.8404996 133.8893872  31.6893743  74.2578097 133.6240066  32.1505515
  76.8955879 143.4552774  34.8579820  76.7441386 143.2263326  33.9409904
  76.8860559 144.4123376  34.8711165  73.6641216 141.0284687  29.8426087
  74.5933276 141.1795847  29.6695054  73.2432246 141.1168708  28.9874733
  72.4629547 145.0535352  27.6124624  72.3240633 144.6854136  28.4850563
  71.6744144 145.5682991  27.4408582  74.0134763 144.4316954  25.0013462
  73.6784595 144.3917724  25.8971112  73.5138708 143.7661670  24.5283872
  67.9879006 139.8384584  30.5266043  67.8498804 139.1064823  31.1277582
  68.8983930 139.7493484  30.2450231  70.6161307 139.5504544  30.0149723
  71.3260926 138.9097736  29.9736341  70.5730615 139.8017438  30.9375904
  78.6048086 146.4871897  32.9356302  78.5460632 145.8031117  32.2686885
  79.0067604 147.2290887  32.4836928  69.3290241 136.5369762  31.8345362
  68.7927598 136.0860500  32.4866959  68.7406950 136.6715670  31.0915827
  67.6238785 153.3033811  25.7290021  67.8635383 153.9352335  26.4069040
  66.7807981 152.9521851  26.0155380  68.7392500 135.9958413  14.3971826
  67.8621966 135.8747214  14.0334073  69.2150253 135.2044491  14.1450715
  78.6065493 144.4511481  31.1670282  77.7192272 144.1137403  31.2896681
  79.1764044 143.7194512  31.4039047  60.2594640 140.7835573  24.4913333
  60.9465680 140.4697303  23.9034349  60.1042769 141.6876937  24.2180585
  65.0629362 135.6725769  28.9198357  64.9787551 135.0651439  28.1848767
  64.2412069 136.1634788  28.9207853  72.1366647 149.1112933  28.1331525
  72.0636818 149.9167905  28.6450830  71.6944040 149.3104899  27.3079546
  71.9256426 148.3484703  21.6434347  71.1423948 148.8906383  21.7372571
  72.6249171 148.8658683  22.0428588  75.2353076 134.1579333  24.2868552
  75.7321776 133.4049295  23.9669622  74.4640058 134.1943649  23.7211761
  83.0882834 139.8619698  25.9286844  83.0772710 140.7444414  25.5580777
  82.2200213 139.5091249  25.7341381  74.5965330 149.0099767  30.2889684
  75.3093302 149.6447232  30.2165585  74.1055359 149.1063633  29.4729686
  76.3182857 142.9151020  21.8606975  75.3839136 143.0352482  21.6911680
  76.4959525 142.0123487  21.5966985  71.8188045 136.2996716  24.0140237
  71.4485833 135.7467756  24.7021142  72.3147137 135.6954849  23.4615237
  79.7055408 138.7568339  22.3957010  80.1715860 139.5896331  22.3217312
  80.1562909 138.2913321  23.1002268  69.6477244 146.7594211  31.1095255
  70.3486703 147.3930694  31.2624649  69.1772359 147.1008942  30.3490894
  77.6772071 131.1248926  26.4347911  76.7635151 131.3553153  26.6030118
  78.1065172 131.2087370  27.2861943  77.4478530 139.3138818  28.9347805
  76.7949980 139.5614726  28.2800258  77.8258909 138.5002956  28.6010282
  74.4085703 149.3498511  23.0375975  74.5908098 148.5320167  23.5003728
  75.2318689 149.5666204  22.6000865  73.4966103 140.0558629  35.4213842
  72.8206740 139.9552759  36.0916217  74.3193736 139.8997843  35.8849839
  65.2444962 146.2930566  28.0426357  65.8298398 145.5474254  28.1754261
  65.0469800 146.6034523  28.9263021  68.0983617 149.3281813  23.0588800
  67.4293992 149.8127941  22.5752840  67.9596487 149.5751034  23.9732178
  59.8362616 138.8636166  26.7630800  59.8746716 138.3299757  27.5567919
  59.3302909 138.3371372  26.1441778  72.2388885 151.3625557  29.6571458
  72.7907193 151.5257178  30.4220543  72.5795079 151.9529995  28.9851483
  67.2153379 133.7100707  30.2593343  67.2794705 134.5715537  29.8470740
  67.1520499 133.0974708  29.5265701  66.6905651 135.7823839  33.9066377
  67.3177690 135.4000916  34.5203901  65.8333570 135.5638041  34.2722069
  77.0899760 146.1886814  35.5120112  77.6339664 146.8016773  35.0175067
  76.5086605 146.7466393  36.0287125  63.4671194 137.5900268  19.8384732
  63.7624635 136.6810947  19.7851785  62.5659230 137.5688008  19.5165734
  75.3757273 149.3107532  26.6435140  75.2508412 148.5097272  26.1346086
  76.0336364 149.8053726  26.1549110  66.9965441 135.6656265  25.8212280
  66.2752027 136.2792232  25.6819754  67.7858697 136.2014030  25.7428926
  77.4392181 147.1116552  28.2714690  76.4922517 146.9921904  28.1993017
  77.7874954 146.2239050  28.3540952  69.7991754 133.0010691  32.0952932
  70.3226156 133.2472988  32.8579241  69.5804088 133.8330726  31.6756069
  65.1959036 135.2714366  19.9624057  64.8671742 134.3911745  19.7799163
  65.5498406 135.2162035  20.8500446  74.4438614 146.9069269  24.4719042
  74.2963577 145.9785976  24.6526613  75.2692108 146.9289359  23.9876118
  68.3100859 135.5587336  20.3299535  68.6496931 136.0873257  19.6078143
  68.7572979 135.8967742  21.1058101  78.0472736 147.7297827  25.5583915
  78.9719284 147.5240689  25.4208366  77.8788040 147.4814228  26.4673257
  71.0044299 133.9424386  29.7802603  70.6641120 133.1432199  30.1823283
  70.2983306 134.2426097  29.2079436  71.6560771 131.0273699  28.2329926
  72.4786841 130.5534177  28.1108816  71.8998835 131.8064183  28.7328612
  70.2969006 134.0561957  18.5292827  71.0177368 134.4343210  18.0256544
  69.6734310 134.7750834  18.6327805  74.4400129 134.7607106  19.4651160
  74.6563743 135.6431744  19.1639988  73.9594196 134.3693320  18.7356802
  69.1799350 137.7192819  26.0421904  69.0343931 138.0333122  26.9346186
  68.7024554 138.3377720  25.4892803  71.0395733 134.7095367  26.0902794
  71.0257302 133.8136461  25.7535092  71.7568161 134.7166031  26.7241080
  72.8921864 135.1432708  28.1355921  72.6339641 136.0649778  28.1340252
  72.3606904 134.7463142  28.8256385  63.6545012 140.2598164  28.9809566
  63.1098480 141.0357972  29.1129840  64.5324362 140.6068968  28.8228687
  70.4432629 133.5909748  21.3590364  70.5648540 132.6626394  21.5581252
  70.1534671 133.6048434  20.4468679  73.3123819 131.2764658  24.4957084
  73.3345516 131.3403991  23.5409063  73.7291878 130.4369167  24.6897590
  83.6907444 141.0119918  22.5336306  84.1338590 140.2627243  22.1355430
  82.8133954 141.0030054  22.1510038  64.4411034 139.3868060  31.8739722
  63.6992770 139.5350695  32.4604353  64.1203778 139.6476326  31.0106472
  72.3854697 148.9284038  31.6720112  72.6941823 148.6833185  32.5442812
  73.1830179 149.1330677  31.1838983  72.4075309 151.0821948  23.9025489
  71.9680299 150.5898327  24.5958346  73.1583426 150.5394916  23.6617564
  64.8867648 147.2733489  23.9050117  65.7125668 146.9737261  23.5248761
  64.5361700 146.5041111  24.3539906  69.8549181 146.6259957  25.9747791
  69.2329190 145.9630662  25.6750018  70.5254048 146.6521089  25.2921438
  63.0876253 145.1919815  24.8639051  62.2508161 144.7641990  24.6823052
  63.0599898 145.3852259  25.8009842  69.9273708 135.1041745  35.5680297
  69.9761864 135.9803868  35.1858066  70.4696223 134.5619138  34.9951940
  80.4128554 145.6482868  34.8481434  79.6224098 145.6307007  34.3085933
  80.1761909 146.1871162  35.6030470  80.5326429 142.4975335  32.1614162
  80.5824434 142.3325342  33.1029685  80.4240353 141.6302594  31.7712043
  69.4162688 145.1763880  19.4506251  69.5650808 145.8599345  18.7972924
  70.2229131 145.1568970  19.9655707  77.8230192 138.4806263  33.4773469
  78.7240054 138.3412728  33.1857467  77.8978166 138.6460718  34.4171646
  72.1572997 135.8573117  32.3226655  71.2876306 136.1506684  32.0509244
  72.3932477 136.4413562  33.0433919  82.0344626 144.9172276  32.4056184
  81.7429434 145.2802257  33.2419645  81.4216757 144.2039284  32.2269516
  83.2340308 142.4825156  24.9258754  84.0687200 142.9214960  25.0896314
  83.3699437 142.0063809  24.1067000  80.2831814 140.0404891  30.8736242
  80.7585936 140.2332537  30.0655093  79.3597380 140.0964077  30.6279625
  67.1715321 141.2029058  20.4567320  66.9261363 140.2991388  20.6547530
  67.3411235 141.2046208  19.5146798  74.8612031 132.0752734  29.8392076
  75.3793975 132.8113761  29.5138564  74.5067163 132.3816728  30.6738835
  66.4410968 136.9357416  17.9553482  65.7480213 137.0101771  17.2993517
  66.1962720 136.1717759  18.4774998  75.1124625 128.4953017  25.3592972
  75.3926379 127.8276206  25.9853399  75.8975232 128.6882113  24.8467636
  78.9833483 136.9170651  29.1064547  79.9350906 137.0168749  29.1276771
  78.8136934 136.1248919  29.6162632  77.0047863 134.0026234  29.2923948
  76.4097795 134.2831247  28.5970437  76.7197559 134.4920135  30.0640689
  81.4621561 140.1376771  28.2206847  81.4297881 139.1992771  28.4066531
  82.0722185 140.2160807  27.4872672  81.6116049 136.9287814  28.2665130
  81.0955098 136.1446271  28.0795059  82.4955998 136.6006531  28.4311650
  79.2726776 130.6728830  24.2260943  79.0751598 130.3643918  25.1104275
  79.8826482 131.3990469  24.3558873  87.2798111 141.1992777  27.3612884
  88.0101499 140.9378066  27.9220587  86.6705056 140.4621499  27.4014952
  85.3613408 139.3400640  27.9587335  84.6346572 139.2056605  27.3503827
  84.9460695 139.6477469  28.7644053  73.1843584 143.0590570  35.7234708
  74.1046594 143.2369169  35.9174755  73.1493167 142.1146615  35.5714407
  71.4847809 136.9322800  14.1988936  70.5779264 136.6355913  14.2751650
  71.7623790 136.6352618  13.3323223  62.4025749 138.2529163  24.6487983
  62.0828534 137.3994472  24.3562357  61.8559178 138.4677742  25.4045950
  66.1805657 140.9691604  28.3657489  66.3991667 141.9008712  28.3845523
  66.5931431 140.6099579  29.1512293  73.1009875 131.4759690  20.3533178
  72.2910603 131.1306775  20.7288424  73.7894292 131.1667233  20.9420789
  75.0300423 130.5537736  21.9757474  75.5831462 130.9733190  22.6347497
  75.2670509 129.6273485  22.0180430  71.0533522 136.5424810  37.7560238
  70.9530249 137.4919167  37.6872329  70.8355064 136.2143049  36.8836308
  70.2546594 133.7909735  14.3400915  71.1165758 134.1164634  14.5996733
  70.4396938 133.0041231  13.8273981  62.2714009 141.8732075  26.6181104
  61.5777481 141.4586028  26.1051059  63.0187000 141.9152611  26.0214523
  78.4079230 132.6638262  21.4836138  77.8277899 133.3223066  21.1014191
  78.1415163 131.8415606  21.0723556  76.8582796 132.0643319  23.6857459
  77.3582575 132.1759854  22.8771778  77.5018404 131.7604372  24.3258267
  70.9164792 139.9721949  36.5725300  70.4331874 140.7722309  36.7789189
  71.0025731 139.9829894  35.6192744  64.1850752 141.8050329  24.4947119
  64.1621440 141.9038016  23.5429002  64.4951388 142.6515479  24.8164285
  66.8438130 143.8626484  28.6093734  67.7981383 143.8310426  28.5423665
  66.6450653 143.4017107  29.4243959  67.4337512 142.4327600  31.1764531
  68.2530401 142.9271678  31.1999369  67.7074320 141.5159568  31.1482099
  77.1904108 134.8238352  20.5392487  76.3029963 135.1088003  20.3212681
  77.6058097 134.6632115  19.6919764  80.5418644 134.8484873  24.2546826
  81.3179034 135.3381325  24.5271443  79.8166778 135.2742927  24.7118695
  82.9791203 135.5612492  25.3120767  83.5735694 135.3208228  24.6014075
  83.0517787 134.8419623  25.9394303  65.1988359 149.4046103  25.6263931
  65.0642827 148.6446504  25.0601929  64.7820421 150.1287003  25.1592720
  77.1645132 140.3392888  20.7542777  77.1080333 140.7961439  19.9150409
  77.7173474 139.5783573  20.5765620  80.9749938 136.1282620  21.5792896
  80.7186872 135.7279255  22.4101104  80.3502806 136.8426414  21.4543036
  85.2862276 138.8678693  24.0864188  84.7261834 138.9371882  24.8595750
  84.6805779 138.6919678  23.3663684  68.3557484 150.3015420  25.8382374
  68.2389869 151.2460853  25.7361064  67.5349931 149.9988982  26.2268173
  62.6872426 136.7665734  31.8756728  63.3331290 136.2564688  32.3643953
  62.4789577 137.5034415  32.4500154  75.2125818 143.8346581  37.3748869
  76.0816978 144.0087233  37.0135504  74.7332570 144.6540998  37.2524598
  71.2076037 131.0305778  17.6280624  71.1954706 131.9747618  17.7848895
  72.0999459 130.8475924  17.3340086  69.3811999 150.9543682  29.0538303
  70.2839245 150.9867292  29.3704797  69.1549369 150.0244133  29.0684638
  71.1365601 149.7074669  25.7148381  70.1861232 149.7076530  25.6012753
  71.4398087 148.9607403  25.1984416  75.0228156 127.6248555  21.8826561
  74.2560552 127.0707042  22.0283244  75.4338861 127.6970424  22.7440713
  67.0269917 133.9133351  35.9731743  67.8901379 133.5570156  36.1835067
  66.4535328 133.5747245  36.6607147  84.1627783 156.6497487  32.6741874
  84.1516424 156.2550285  31.8022377  84.3248423 155.9163559  33.2675645
  80.8835045 159.4334599  31.6221058  80.5924910 160.3380229  31.5067724
  81.5192029 159.4751126  32.3365127  89.3493410 146.9183468  29.2174939
  89.0176735 147.7878879  28.9936154  88.7539023 146.6019752  29.8968969
  83.3162939 153.0568200  34.2403186  82.5396273 153.6162120  34.2306051
  83.9553502 153.5424983  34.7618056  81.5709311 155.8653653  33.8021153
  82.3123996 156.4038697  33.5255977  80.8646297 156.4919942  33.9592705
  83.3995721 152.9455401  29.7726871  84.2456916 153.3694814  29.9161520
  83.3394359 152.2889025  30.4665435  86.5495167 150.6059769  31.4308045
  86.3056098 151.3601829  30.8942321  86.8255097 150.9845116  32.2655292
  80.3070675 153.0193301  34.6036463  79.6769336 153.7009582  34.8371860
  80.2006763 152.9076383  33.6589601  75.6015648 152.6865098  25.5302387
  74.8114702 152.9422626  25.0542498  76.0926895 153.5013435  25.6354428
  73.8853351 152.9395588  27.9617378  74.1361389 153.8242598  28.2274954
  74.4212899 152.7600189  27.1892470  79.5851418 147.3214067  36.9661714
  79.1918364 146.7680266  37.6409358  80.4017558 147.6324646  37.3568232
  82.5019379 148.7371946  34.5581971  83.2429092 149.3379100  34.4786433
  82.7337302 147.9949584  34.0000013  77.6460717 153.9228314  32.8360200
  77.5314232 153.0213571  33.1367299  76.7905235 154.1692010  32.4845017
  84.7252555 161.8646054  34.4347701  84.2816409 161.0782433  34.1168605
  85.3869768 162.0525204  33.7691592  83.2806847 159.6592983  33.3052611
  83.8135184 158.8981272  33.0751919  82.7520928 159.3666635  34.0476765
  86.4476542 144.7653049  28.8346252  86.1040811 145.6554691  28.7585363
  86.8155504 144.5754707  27.9715837  85.5273082 147.1357705  26.7995486
  85.0237878 147.0987840  25.9863291  85.8203689 148.0450447  26.8592142
  81.7715968 147.2196434  25.8061667  82.6368965 147.0239243  25.4467557
  81.8393477 146.9906786  26.7331024  86.0551859 153.4019286  31.0345454
  86.4101247 153.6290759  31.8939920  86.7023990 153.7337663  30.4122709
  79.9491722 150.5095817  27.8191795  80.5891101 150.3684576  27.1214758
  79.1169253 150.2230330  27.4430397  78.4245264 151.8933899  29.7663606
  79.0968317 151.6851261  29.1176255  77.5975050 151.6955985  29.3268838
  84.3270836 148.5195840  31.7829267  83.6798751 149.2185790  31.6893743
  85.0971851 148.9531984  32.1505515  87.7349634 158.7844692  34.8579820
  87.5835140 158.5555244  33.9409904  87.7254313 159.7415294  34.8711165
  78.8272761 155.1676502  30.5266043  78.6892559 154.4356741  31.1277582
  79.7377684 155.0785402  30.2450231  81.4555062 154.8796461  30.0149723
  82.1654680 154.2389654  29.9736341  81.4124370 155.1309356  30.9375904
  80.1683996 151.8661679  31.8345362  79.6321353 151.4152418  32.4866959
  79.5800704 152.0007588  31.0915827  75.9023117 151.0017687  28.9198357
  75.8181306 150.3943356  28.1848767  75.0805823 151.4926705  28.9207853
  88.5165826 146.4540844  26.4347911  87.6028905 146.6845071  26.6030118
  88.9458927 146.5379288  27.2861943  84.3359857 155.3850547  35.4213842
  83.6600494 155.2844676  36.0916217  85.1587491 155.2289761  35.8849839
  70.6756371 154.1928084  26.7630800  70.7140470 153.6591674  27.5567919
  70.1696664 153.6663289  26.1441778  78.0547133 149.0392624  30.2593343
  78.1188460 149.9007455  29.8470740  77.9914253 148.4266626  29.5265701
  77.5299406 151.1115757  33.9066377  78.1571444 150.7292834  34.5203901
  76.6727325 150.8929959  34.2722069  87.9293514 161.5178732  35.5120112
  88.4733418 162.1308690  35.0175067  87.3480359 162.0758310  36.0287125
  77.8359195 150.9948182  25.8212280  77.1145781 151.6084150  25.6819754
  78.6252451 151.5305947  25.7428926  80.6385509 148.3302609  32.0952932
  81.1619911 148.5764905  32.8579241  80.4197842 149.1622644  31.6756069
  81.8438054 149.2716304  29.7802603  81.5034874 148.4724117  30.1823283
  81.1377060 149.5718015  29.2079436  82.4954526 146.3565616  28.2329926
  83.3180595 145.8826095  28.1108816  82.7392589 147.1356100  28.7328612
  81.8789487 150.0387285  26.0902794  81.8651056 149.1428378  25.7535092
  82.5961916 150.0457949  26.7241080  83.7315618 150.4724625  28.1355921
  83.4733396 151.3941696  28.1340252  83.2000659 150.0755060  28.8256385
  74.4938767 155.5890081  28.9809566  73.9492235 156.3649889  29.1129840
  75.3718117 155.9360886  28.8228687  75.2804789 154.7159978  31.8739722
  74.5386525 154.8642613  32.4604353  74.9597533 154.9768243  31.0106472
  80.7667463 150.4333663  35.5680297  80.8155618 151.3095786  35.1858066
  81.3089977 149.8911056  34.9951940  88.6623946 153.8098180  33.4773469
  89.5633809 153.6704645  33.1857467  88.7371921 153.9752635  34.4171646
  82.9966751 151.1865035  32.3226655  82.1270061 151.4798601  32.0509244
  83.2326232 151.7705480  33.0433919  85.7005785 147.4044652  29.8392076
  86.2187729 148.1405679  29.5138564  85.3460918 147.7108645  30.6738835
  85.9518379 143.8244935  25.3592972  86.2320133 143.1568124  25.9853399
  86.7368986 144.0174030  24.8467636  87.8441617 149.3318152  29.2923948
  87.2491549 149.6123165  28.5970437  87.5591314 149.8212053  30.0640689
  84.0237339 158.3882487  35.7234708  84.9440348 158.5661086  35.9174755
  83.9886922 157.4438533  35.5714407  73.2419504 153.5821081  24.6487983
  72.9222288 152.7286389  24.3562357  72.6952932 153.7969659  25.4045950
  77.0199411 156.2983522  28.3657489  77.2385421 157.2300630  28.3845523
  77.4325185 155.9391496  29.1512293  81.8927277 151.8716728  37.7560238
  81.7924004 152.8211085  37.6872329  81.6748819 151.5434967  36.8836308
  73.1107764 157.2023993  26.6181104  72.4171235 156.7877945  26.1051059
  73.8580755 157.2444529  26.0214523  81.7558547 155.3013867  36.5725300
  81.2725629 156.1014227  36.7789189  81.8419486 155.3121812  35.6192744
  78.2731266 157.7619517  31.1764531  79.0924155 158.2563596  31.1999369
  78.5468074 156.8451486  31.1482099  73.5266181 152.0957651  31.8756728
  74.1725044 151.5856605  32.3643953  73.3183332 152.8326333  32.4500154
  86.0519573 159.1638499  37.3748869  86.9210732 159.3379151  37.0135504
  85.5726324 159.9832916  37.2524598  77.8663672 149.2425268  35.9731743
  78.7295133 148.8862073  36.1835067  77.2929082 148.9039163  36.6607147
  90.4245172 162.6505985  36.9661714  90.0312118 162.0972184  37.6409358
  91.2411313 162.9616563  37.3568232  29.9659012  57.0100021  19.3987180
  29.9547653  56.6152819  18.5267684  30.1279652  56.2766094  19.9920952
  26.6866273  59.7937133  18.3466364  26.3956139  60.6982764  18.2313031
  27.3223258  59.8353660  19.0610434  31.6456158  59.4798548  15.3416158
  31.3456882  60.3823587  15.2331965  31.3007218  59.2130732  16.1937311
  29.1194168  53.4170734  20.9648493  28.3427502  53.9764654  20.9551357
  29.7584731  53.9027517  21.4863363  27.3740540  56.2256188  20.5266460
  28.1155225  56.7641231  20.2501283  26.6677526  56.8522476  20.6838011
  32.8495880  58.3685328  19.1238621  33.2579236  57.9267738  18.3793253
  32.1273141  57.7937955  19.3772814  32.3526395  50.9662303  18.1553352
  32.1087327  51.7204364  17.6187627  32.6286326  51.3447651  18.9900599
  34.3064858  57.5100915  16.8330617  34.5181753  58.1532675  16.1564998
  34.2594606  56.6763232  16.3652547  26.1101904  53.3795836  21.3281770
  25.4800565  54.0612117  21.5617166  26.0037992  53.2678917  20.3834908
  35.4210686  60.3872871  15.0052975  36.2428130  59.9853058  14.7235656
  35.4173089  60.2841105  15.9569090  29.1867289  59.9356914  17.1613685
  29.2511722  60.3977321  17.9971857  28.4778213  59.3054279  17.2895995
  43.5116679  56.7311619  11.3537946  42.7580387  56.1619017  11.1981951
  43.6464220  56.6974284  12.3008581  25.3882647  47.6816602  23.6907021
  24.9949592  47.1282800  24.3654665  26.2048787  47.9927180  24.0813538
  30.5283784  62.2248588  21.1593008  30.0847638  61.4384967  20.8413912
  31.1900997  62.4127739  20.4936898  25.2870905  63.7544390  15.6853686
  25.8378330  63.6261453  14.9130680  24.4482381  64.0539279  15.3348579
  32.6265022  62.5051388  19.1874409  32.6083497  63.3260269  18.6954678
  33.5484942  62.3805463  19.4124550  29.0838076  60.0195518  20.0297917
  29.6166413  59.2583806  19.7997225  28.5552157  59.7269169  20.7722072
  31.8583088  53.7621820  17.7590760  32.2132475  53.9893293  18.6185226
  32.5055219  54.0940197  17.1368016  37.6150204  58.9516783  13.4751361
  38.0486711  58.8592072  14.3234415  38.3281785  58.9274283  12.8371377
  31.3478099  62.5518877  15.0084462  31.4015121  63.1209813  15.7762177
  30.4792881  62.7220762  14.6438499  38.4765754  58.9940484  16.0084246
  38.6701644  59.8986294  16.2543521  38.3766372  58.5347903  16.8422831
  33.5380862  59.1447226  21.5825127  33.3866369  58.9157778  20.6655211
  33.5285542  60.1017828  21.5956472  30.3066199  56.7179139  16.5671393
  31.2358259  56.8690299  16.3940361  29.8857229  56.8063160  15.7120040
  29.1054531  60.7429803  14.3369931  28.9665616  60.3748588  15.2095869
  28.3169127  61.2577443  14.1653889  35.2473069  62.1766349  19.6601609
  35.1885615  61.4925569  18.9932192  35.6492588  62.9185339  19.2082235
  24.2663768  68.9928263  12.4535328  24.5060366  69.6246787  13.1314346
  23.4232964  68.6416303  12.7400687  35.2490476  60.1405933  17.8915589
  34.3617255  59.8031855  18.0141987  35.8189027  59.4088964  18.1284354
  28.7791630  64.8007385  14.8576832  28.7061801  65.6062357  15.3696136
  28.3369023  64.9999351  14.0324853  31.2390313  64.6994219  17.0134990
  31.9518286  65.3341684  16.9410892  30.7480342  64.7958085  16.1974992
  26.2902227  62.4488663  17.8340561  26.9911686  63.0825146  17.9869955
  25.8197342  62.7903394  17.0736200  34.0903513  55.0033270  15.6593112
  33.4374963  55.2509178  15.0045564  34.4683893  54.1897408  15.3255589
  30.1391086  55.7453081  22.1459149  29.4631723  55.6447210  22.8161524
  30.9618720  55.5892295  22.6095146  28.8813869  67.0520009  16.3816765
  29.4332177  67.2151630  17.1465850  29.2220062  67.6424446  15.7096789
  33.7324743  61.8781266  22.2365419  34.2764647  62.4911224  21.7420374
  33.1511588  62.4360845  22.7532432  32.0182256  65.0001984  13.3680447
  31.8933395  64.1991724  12.8591392  32.6761347  65.4948178  12.8794417
  34.0817164  62.8011004  14.9959997  33.1347500  62.6816355  14.9238324
  34.4299937  61.9133502  15.0786258  34.6897720  63.4192279  12.2829222
  35.6144267  63.2135141  12.1453673  34.5213023  63.1708680  13.1918563
  29.0279680  64.6178490  18.3965419  29.3366806  64.3727637  19.2688119
  29.8255162  64.8225129  17.9084289  29.0500292  66.7716400  10.6270796
  28.6105282  66.2792779  11.3203652  29.8008409  66.2289368  10.3862871
  26.5698692  50.7936197  22.2925603  26.6186847  51.6698320  21.9103373
  27.1121206  50.2513590  21.7197246  37.0553537  61.3377320  21.5726740
  36.2649081  61.3201459  21.0331240  36.8186892  61.8765614  22.3275777
  37.1751412  58.1869787  18.8859469  37.2249417  58.0219794  19.8274992
  37.0665336  57.3197046  18.4957350  34.4655175  54.1700715  20.2018776
  35.3665038  54.0307179  19.9102773  34.5403149  54.3355169  21.1416953
  38.6769609  60.6066728  19.1301490  38.3854418  60.9696709  19.9664951
  38.0641741  59.8933736  18.9514822  39.8765292  58.1719608  11.6504061
  40.7112183  58.6109412  11.8141621  40.0124420  57.6958261  10.8312306
  36.9256798  55.7299343  17.5981548  37.4010919  55.9226989  16.7900400
  36.0022363  55.7858529  17.3524932  35.6258467  52.6065103  15.8309854
  36.5775889  52.7063200  15.8522078  35.4561917  51.8143371  16.3407938
  38.1046544  55.8271223  14.9452154  38.0722864  54.8887223  15.1311837
  38.7147168  55.9055259  14.2117979  43.9223094  56.8887229  14.0858190
  44.6526483  56.6272517  14.6465894  43.3130040  56.1515951  14.1260258
  42.0038391  55.0295092  14.6832642  41.2771555  54.8951057  14.0749133
  41.5885678  55.3371921  15.4889360  29.8268568  58.7485022  22.4480015
  30.7471577  58.9263621  22.6420061  29.7918151  57.8041067  22.2959714
  27.6958506  52.2319262  24.4805545  27.5955232  53.1813619  24.4117636
  27.4780048  51.9037501  23.6081615  27.5589776  55.6616401  23.2970606
  27.0756857  56.4616761  23.5034495  27.6450715  55.6724346  22.3438050
  24.0762495  58.1222052  17.9009838  24.8955384  58.6166130  17.9244675
  24.3499303  57.2054020  17.8727405  24.9982468  65.9909872  12.5627681
  24.8814852  66.9355305  12.4606371  24.1774914  65.6883434  12.9513480
  31.8550802  59.5241033  24.0994175  32.7241961  59.6981685  23.7380810
  31.3757553  60.3435450  23.9769905  26.0236982  66.6438134  15.7783609
  26.9264229  66.6761744  16.0950104  25.7974352  65.7138585  15.7929945
  27.7790584  65.3969121  12.4393688  26.8286215  65.3970982  12.3258060
  28.0823070  64.6501855  11.9229722  23.6694900  49.6027803  22.6977049
  24.5326362  49.2464607  22.9080374  23.0960311  49.2641697  23.3852453
  43.5143277  71.2329659  13.5039450  44.1521687  71.1136406  12.8002790
  43.3964120  72.1810503  13.5627402  40.3232984  71.1857087  13.4400975
  39.9851495  71.0698152  12.5521510  41.1922752  70.7848252  13.4201981
  36.1819799  73.0392563   9.4297866  35.6184665  72.9482500   8.6614154
  36.0672194  72.2192468   9.9100358  40.8052767  72.3391939  19.3987180
  40.7941407  71.9444737  18.5267684  40.9673406  71.6058011  19.9920952
  33.7284231  74.5343755  12.2682086  34.5205523  74.1934580  11.8528386
  33.9680881  74.6438730  13.1884240  41.7619358  76.7063531   4.7412331
  41.1107338  77.2917612   4.3546345  42.5563721  77.2369726   4.8007368
  35.6874985  73.7952668   5.1399465  36.4605861  73.2481655   5.0012341
  36.0400384  74.6596918   5.3513926  37.5260028  75.1229051  18.3466364
  37.2349894  76.0274681  18.2313031  38.1617012  75.1645578  19.0610434
  38.4516235  72.5005899  14.9367724  39.0479807  72.2761921  14.2224687
  38.5091206  71.7590645  15.5393172  43.0684546  68.9581113  10.5792658
  43.8547635  68.5400536  10.2283075  43.3323250  69.8627205  10.7474307
  43.2394623  74.3953963   5.2781315  42.6040456  74.4688590   5.9902220
  42.9092030  74.9847562   4.6000394  48.4692973  68.8956346  11.4825637
  49.2018145  68.3255563  11.7163466  47.7132329  68.5077946  11.9232142
  37.7437552  71.8573440   4.9742290  37.6273810  71.1818344   5.6423374
  37.8539812  71.3705814   4.1574443  40.0869093  71.3183587   8.6788979
  39.7227300  70.7914208   9.3901901  40.9436209  70.9282057   8.5055465
  45.9918393  62.6077920  15.9420245  45.6601718  63.4773331  15.7181460
  45.3964007  62.2914204  16.6214276  42.4849913  74.8090466  15.3416158
  42.1850636  75.7115505  15.2331965  42.1400972  74.5422649  16.1937311
  35.9362394  71.2604263  11.3752862  35.0112891  71.1280477  11.5830554
  36.1846808  72.0398482  11.8722805  45.8847057  67.3273006  13.0213595
  44.9763934  67.2588415  12.7272356  45.8334652  67.8044951  13.8495421
  33.2971205  70.9037536  12.2096652  33.4263587  71.1572015  13.1236063
  32.6168657  71.4965244  11.8901307  37.4670693  81.5734786   8.3087126
  37.3894722  82.5242611   8.3875606  36.8632336  81.2280659   8.9662052
  39.9587922  68.7462652  20.9648493  39.1821257  69.3056572  20.9551357
  40.5978486  69.2319435  21.4863363  47.7508703  65.5289445  14.7991469
  47.1083083  65.8221978  14.1531264  47.2463632  65.4142365  15.6044666
  45.4048867  69.2752618   5.4877329  46.3166723  69.5080005   5.3125026
  44.8958514  69.8589662   4.9252407  38.2134295  71.5548105  20.5266460
  38.9548979  72.0933149  20.2501283  37.5071280  72.1814394  20.6838011
  43.6889634  73.6977246  19.1238621  44.0972990  73.2559656  18.3793253
  42.9666896  73.1229873  19.3772814  40.0420704  68.6349852  16.4972178
  40.8881900  69.0589266  16.6406827  39.9819342  67.9783477  17.1910741
  44.0118449  74.2578436  12.8790910  43.3827312  74.4224150  12.1766978
  43.6244111  74.6720046  13.6501874  47.8907681  75.1932874  10.2335274
  47.2058719  75.5731775   9.6832307  47.9751530  75.8028201  10.9667222
  43.1920150  66.2954221  18.1553352  42.9481082  67.0496281  17.6187627
  43.4680080  66.6739568  18.9900599  45.1458613  72.8392833  16.8330617
  45.3575508  73.4824593  16.1564998  45.0988361  72.0055150  16.3652547
  42.7484842  65.4510654  13.7367189  41.8869321  65.7491907  14.0283927
  42.7747276  65.6681053  12.8048222  39.5646411  73.9952844  10.1440995
  40.0284756  74.2740547   9.3545618  39.3003209  73.0936289   9.9614086
  36.4570492  73.5424326  13.0820758  37.0271849  73.9711594  12.4438243
  37.0478604  73.2606911  13.7804944  38.5015297  70.1175997   6.9530560
  39.2039340  70.5697040   7.4204487  38.1695925  69.4759816   7.5810453
  36.9495659  68.7087753  21.3281770  36.3194319  69.3904034  21.5617166
  36.8431746  68.5970835  20.3834908  32.2440631  68.3759549  12.2547694
  31.4539685  68.6317078  11.7787804  32.7351878  69.1907887  12.3599734
  46.2604441  75.7164789  15.0052975  47.0821884  75.3144976  14.7235656
  46.2566843  75.6133023  15.9569090  34.1955376  68.7404129   9.2131171
  33.3986540  68.8522823   9.7314666  33.9680969  69.0790781   8.3472061
  40.0261044  75.2648832  17.1613685  40.0905476  75.7269239  17.9971857
  39.3171968  74.6346197  17.2895995  30.5278334  68.6290040  14.6862685
  30.7786372  69.5137050  14.9520261  31.0637882  68.4494641  13.9137776
  54.3510434  72.0603537  11.3537946  53.5974142  71.4910935  11.1981951
  54.4857975  72.0266202  12.3008581  39.7409062  76.9316939   7.0292665
  39.6054736  77.7768475   7.4577513  40.2818874  77.1336217   6.2658599
  36.2276401  63.0108519  23.6907021  35.8343347  62.4574718  24.3654665
  37.0442542  63.3219098  24.0813538  33.1938459  74.4492377   7.6020591
  33.7062980  75.2435628   7.7526155  33.8461172  73.7518668   7.5354192
  35.0033344  77.5658134   9.6843344  35.1799972  78.4876098   9.4964328
  35.7990177  77.2516553  10.1137724  39.1444362  64.4266398  21.2827277
  39.8854076  65.0273551  21.2031740  39.3762285  63.6844036  20.7245320
  34.2885700  69.6122766  19.5605507  34.1739215  68.7108023  19.8612606
  33.4330218  69.8586462  19.2090323  41.3677538  77.5540506  21.1593008
  40.9241392  76.7676884  20.8413912  42.0294752  77.7419656  20.4936898
  36.1264659  79.0836307  15.6853686  36.6772084  78.9553371  14.9130680
  35.2876135  79.3831196  15.3348579  43.4658776  77.8343306  19.1874409
  43.4477251  78.6552187  18.6954678  44.3878696  77.7097381  19.4124550
  39.9231830  75.3487435  20.0297917  40.4560167  74.5875723  19.7997225
  39.3945911  75.0561087  20.7722072  43.0901525  60.4547501  15.5591559
  42.7465795  61.3449143  15.4830670  43.4580488  60.2649159  14.6961144
  31.1587376  72.7781032   8.3780161  31.9962598  73.1878040   8.1613869
  31.3365643  71.8380474   8.3480355  43.0551808  70.4456112   4.0663994
  42.5398431  71.2160717   4.3052381  42.7829116  69.7721249   4.6897055
  40.6398919  65.2905813   9.1249232  39.7840515  64.9012664   8.9454871
  41.0525871  65.3697774   8.2649018  42.1698066  62.8252156  13.5240792
  41.6662861  62.7882292  12.7108597  42.4628672  63.7344899  13.5837449
  38.4140951  62.9090886  12.5306974  39.2793948  62.7133695  12.1712863
  38.4818460  62.6801238  13.4576331  48.0286082  73.1988467   6.0017168
  47.2515525  72.8599626   5.5572330  48.7077563  73.2041090   5.3272133
  42.8438111  68.3183204   5.8923775  42.5388247  68.6329354   6.7433918
  43.7968553  68.3964624   5.9351108  41.2884543  74.4773428   7.5416729
  40.7605904  73.7426187   7.2289967  40.7872046  75.2548104   7.2956698
  46.2677389  72.6722448  12.6583776  45.6101063  73.3621710  12.7463904
  47.0717788  73.0618880  13.0017762  36.0203271  65.1393094   9.9023341
  36.5947022  64.9168276   9.1696534  36.6074253  65.2081789  10.6551942
  45.0782848  71.0266821  10.7087717  45.5914729  71.6596813  11.2109427
  45.7284072  70.4268016  10.3431077  42.3405222  81.0051145   3.4648388
  41.6666921  81.3082842   4.0733346  42.7271044  81.8080226   3.1153845
  41.5563679  68.5016276  12.9546058  40.6386240  68.7231223  12.7967746
  41.9723822  68.5762587  12.0957765  42.3398726  69.9007692   8.0848738
  43.0870545  70.4129089   7.7755860  42.6090316  69.5791745   8.9453132
  40.6125377  72.3966233   5.0675692  39.7036596  72.1125266   5.1648162
  40.6420460  72.8165311   4.2078999  45.8444644  76.0072822   8.8366860
  45.3906971  75.1663732   8.8932050  45.2138611  76.6434221   9.1741640
  44.7877564  66.9364808  10.0667527  44.0500320  66.4242195  10.3977770
  45.0404337  66.4965190   9.2550804  44.2877583  77.8449319   9.7716678
  44.5800558  78.4054376   9.0529044  44.7976204  78.1377880  10.5269837
  44.8889191  59.7141060  10.6609297  45.1948068  58.8538424  10.3735212
  45.6141796  60.3058681  10.4608291  31.1813547  70.1171747   9.0490895
  30.9837947  69.5241108   8.3241961  30.6260211  69.8123957   9.7666833
  39.1610271  70.0094853  11.1685488  39.2158880  69.0568690  11.0927964
  38.3501473  70.1654293  11.6526786  40.3101464  73.9374977   2.4063771
  39.8720894  73.2210835   1.9469408  41.0511905  74.1651091   1.8448862
  37.1002631  68.6271913   8.9275867  36.2870496  68.9266084   9.3341059
  37.5961625  68.2327602   9.6450349  39.2511208  78.6229670  10.8610131
  39.2087387  78.8490516   9.9318663  40.1673907  78.3893045  11.0095932
  42.6976842  69.0913738  17.7590760  43.0526230  69.3185211  18.6185226
  43.3448973  69.4232114  17.1368016  48.4274579  72.2132174   8.4640089
  48.2892478  72.4033770   7.5361279  48.0710798  72.9751556   8.9208141
  36.5916705  66.1990269  14.5437102  37.2316085  66.0579028  13.8460065
  35.7594236  65.9124782  14.1675703  48.4543959  74.2808701  13.4751361
  48.8880465  74.1883990  14.3234415  49.1675539  74.2566201  12.8371377
  37.3677009  75.4992699  10.6572094  38.1617608  75.0043019  10.4554669
  36.6568702  74.9710562  10.2939800  42.1871854  77.8810795  15.0084462
  42.2408876  78.4501731  15.7762177  41.3186635  78.0512680  14.6438499
  33.5945322  66.1690594   9.3210088  33.8552139  67.0835927   9.2119249
  34.4162494  65.7015036   9.4706701  35.0670247  67.5828351  16.4908913
  35.7393300  67.3745713  15.8421562  34.2400034  67.3850437  16.0514145
  49.3159508  74.3232401  16.0084246  49.5095398  75.2278212  16.2543521
  49.2160126  73.8639820  16.8422831  40.9695819  64.2090292  18.5074574
  40.3223734  64.9080241  18.4139050  41.7396834  64.6426436  18.8750822
  44.3774617  74.4739144  21.5825127  44.2260123  74.2449696  20.6655211
  44.3679296  75.4309745  21.5956472  41.1459953  72.0471057  16.5671393
  42.0752013  72.1982216  16.3940361  40.7250983  72.1355078  15.7120040
  39.9448285  76.0721721  14.3369931  39.8059371  75.7040506  15.2095869
  39.1562881  76.5869361  14.1653889  40.5396437  81.1730818   5.6795468
  40.7148193  80.7018861   6.4941090  39.8529225  81.7996584   5.9076728
  41.4953500  75.4503324  11.7258769  41.1603333  75.4104094  12.6216419
  40.9957446  74.7848040  11.2529179  35.4697744  70.8570954  17.2511350
  35.3317542  70.1251193  17.8522889  36.3802668  70.7679854  16.9695538
  44.4312692  72.7959358   1.9995828  43.8141863  72.0706186   1.9028881
  43.9629180  73.5568718   1.6562903  38.0980045  70.5690913  16.7395030
  38.8079663  69.9284105  16.6981648  38.0549353  70.8203808  17.6621210
  46.0866824  77.5058267  19.6601609  46.0279370  76.8217487  18.9932192
  46.4886342  78.2477257  19.2082235  36.8108979  67.5556131  18.5590669
  36.2746336  67.1046870  19.2112265  36.2225687  67.6902040  17.8161133
  35.1057522  84.3220180  12.4535328  35.3454121  84.9538705  13.1314346
  34.2626719  83.9708220  12.7400687  46.0884231  75.4697850  17.8915589
  45.2011010  75.1323772  18.0141987  46.6582782  74.7380882  18.1284354
  27.7413378  71.8021942  11.2158640  28.4284418  71.4883672  10.6279655
  27.5861507  72.7063307  10.9425891  32.5448100  66.6912139  15.6443664
  32.4606289  66.0837808  14.9094074  31.7230807  67.1821157  15.6453160
  39.6185384  80.1299303  14.8576832  39.5455556  80.9354274  15.3696136
  39.1762777  80.3291269  14.0324853  39.4075164  79.3671073   8.3679653
  38.6242686  79.9092753   8.4617878  40.1067909  79.8845053   8.7673894
  42.7171814  65.1765702  11.0113859  43.2140514  64.4235665  10.6914929
  41.9458796  65.2130019  10.4457068  50.5701571  70.8806068  12.6532150
  50.5591448  71.7630783  12.2826083  49.7018951  70.5277619  12.4586687
  42.0784068  80.0286137  17.0134990  42.7912040  80.6633602  16.9410892
  41.5874096  80.1250003  16.1974992  43.8001595  73.9337390   8.5852282
  42.8657873  74.0538852   8.4156986  43.9778263  73.0309856   8.3212292
  39.3006783  67.3183085  10.7385543  38.9304570  66.7654126  11.4266449
  39.7965875  66.7141219  10.1860543  47.1874146  69.7754709   9.1202316
  47.6534598  70.6082700   9.0462619  47.6381647  69.3099690   9.8247575
  37.1295981  77.7780580  17.8340561  37.8305441  78.4117063  17.9869955
  36.6591096  78.1195312  17.0736200  45.2550377  76.1198530   6.1188468
  45.5310221  76.0055125   7.0282342  44.3854876  75.7216015   6.0800641
  45.1590809  62.1435296  13.1593218  44.2453889  62.3739523  13.3275424
  45.5883910  62.2273740  14.0107250  44.9297267  70.3325188  15.6593112
  44.2768718  70.5801095  15.0045564  45.3077647  69.5189326  15.3255589
  41.8904441  80.3684881   9.7621282  42.0726836  79.5506537  10.2249034
  42.7137427  80.5852573   9.3246172  42.2246607  79.2953066   7.0236330
  42.7534373  78.7845521   6.4106492  42.4874826  78.9795596   7.8881863
  40.9784840  71.0744999  22.1459149  40.3025477  70.9739128  22.8161524
  41.8012474  70.9184213  22.6095146  32.7263699  77.3116935  14.7671664
  33.3117136  76.5660623  14.8999568  32.5288538  77.6220892  15.6508328
  35.5802355  80.3468183   9.7834106  34.9112730  80.8314310   9.2998146
  35.4415224  80.5937403  10.6977485  27.3181354  69.8822536  13.4876107
  27.3565454  69.3486126  14.2813225  26.8121647  69.3557741  12.8687084
  39.7207623  82.3811926  16.3816765  40.2725931  82.5443548  17.1465850
  40.0613817  82.9716364  15.7096789  34.6972116  64.7287076  16.9838649
  34.7613443  65.5901907  16.5716047  34.6339237  64.1161078  16.2511008
  34.1724389  66.8010209  20.6311684  34.7996428  66.4187286  21.2449208
  33.3152308  66.5824411  20.9967376  44.5718498  77.2073184  22.2365419
  45.1158402  77.8203142  21.7420374  43.9905342  77.7652762  22.7532432
  42.8576010  80.3293902  13.3680447  42.7327150  79.5283642  12.8591392
  43.5155102  80.8240095  12.8794417  34.4784179  66.6842634  12.5457587
  33.7570764  67.2978602  12.4065060  35.2677434  67.2200399  12.4674233
  44.9210919  78.1302922  14.9959997  43.9741254  78.0108273  14.9238324
  45.2693692  77.2425420  15.0786258  37.2810492  64.0197061  18.8198239
  37.8044894  64.2659357  19.5824548  37.0622826  64.8517096  18.4001376
  41.9257352  77.9255638  11.1964349  41.7782315  76.9972346  11.3771919
  42.7510846  77.9475729  10.7121424  45.5291474  78.7484197  12.2829222
  46.4538021  78.5427058  12.1453673  45.3606777  78.5000598  13.1918563
  38.4863037  64.9610756  16.5047909  38.1459858  64.1618569  16.9068589
  37.7802044  65.2612467  15.9324743  39.1379509  62.0460068  14.9575232
  39.9605578  61.5720547  14.8354123  39.3817573  62.8250552  15.4573919
  36.6618088  68.7379189  12.7667211  36.5162669  69.0519492  13.6591492
  36.1843291  69.3564089  12.2138110  38.5214471  65.7281737  12.8148101
  38.5076040  64.8322830  12.4780398  39.2386899  65.7352401  13.4486387
  40.3740601  66.1619077  14.8601228  40.1158379  67.0836148  14.8585558
  39.8425642  65.7649512  15.5501692  45.3186790  79.2669864   7.6391313
  45.4923668  78.7016287   6.8865166  45.8115681  80.0670759   7.4570803
  31.1363750  71.2784533  15.7054872  30.5917218  72.0544341  15.8375146
  32.0143100  71.6255338  15.5473994  40.7942557  62.2951028  11.2202390
  40.8164254  62.3590361  10.2654370  41.2110616  61.4555536  11.4142897
  51.1726181  72.0306287   9.2581613  51.6157327  71.2813612   8.8600736
  50.2952692  72.0216424   8.8755345  46.3061963  78.5836629   4.7388212
  47.0012867  79.2043321   4.9575526  46.6485113  77.7331980   5.0140589
  31.9229772  70.4054430  18.5985029  31.1811508  70.5537065  19.1849659
  31.6022516  70.6662695  17.7351778  48.2053386  76.0336334   6.2675542
  48.7304710  76.3723607   5.5424862  48.1175738  75.0983350   6.0838677
  39.8673435  79.9470408  18.3965419  40.1760561  79.7019555  19.2688119
  40.6648917  80.1517046  17.9084289  39.8894047  82.1008318  10.6270796
  39.4499037  81.6084696  11.3203652  40.6402164  81.5581285  10.3862871
  32.3686386  78.2919858  10.6295424  33.1944405  77.9923630  10.2494067
  32.0180438  77.5227481  11.0785212  37.3367919  77.6446327  12.6993097
  36.7147928  76.9817032  12.3995325  38.0072786  77.6707458  12.0166745
  30.5694991  76.2106185  11.5884357  29.7326899  75.7828359  11.4068358
  30.5418636  76.4038628  12.5255148  37.4092446  66.1228115  22.2925603
  37.4580602  66.9990237  21.9103373  37.9514960  65.5805508  21.7197246
  47.8947292  76.6669238  21.5726740  47.1042836  76.6493377  21.0331240
  47.6580646  77.2057532  22.3275777  48.0145167  73.5161704  18.8859469
  48.0643172  73.3511712  19.8274992  47.9059090  72.6488963  18.4957350
  36.8981426  76.1950250   6.1751558  37.0469546  76.8785714   5.5218231
  37.7047869  76.1755340   6.6901014  45.3048929  69.4992632  20.2018776
  46.2058792  69.3599097  19.9102773  45.3796904  69.6647087  21.1416953
  39.6391735  66.8759487  19.0471962  38.7695044  67.1693053  18.7754550
  39.8751215  67.4599932  19.7679226  49.5163364  75.9358646  19.1301490
  49.2248172  76.2988626  19.9664951  48.9035495  75.2225654  18.9514822
  50.7159046  73.5011526  11.6504061  51.5505937  73.9401330  11.8141621
  50.8518175  73.0250179  10.8312306  47.7650552  71.0591260  17.5981548
  48.2404674  71.2518907  16.7900400  46.8416117  71.1150446  17.3524932
  34.6534059  72.2215428   7.1812627  34.4080101  71.3177758   7.3792837
  34.8229973  72.2232578   6.2392105  42.3430768  63.0939104  16.5637382
  42.8612712  63.8300131  16.2383871  41.9885901  63.4003097  17.3984141
  42.5943363  59.5139386  12.0838279  42.8745116  58.8462576  12.7098705
  43.3793970  59.7068482  11.5712943  40.3976831  78.6898380   3.6463305
  39.8250798  79.3088568   3.1933777  40.9709625  79.2397742   4.1803227
  46.4652221  67.9357020  15.8309854  47.4169644  68.0355118  15.8522078
  46.2955671  67.1435289  16.3407938  44.4866600  65.0212604  16.0169255
  43.8916533  65.3017616  15.3215744  44.2016297  65.5106505  16.7885996
  43.6174091  78.9735531   4.7771887  44.5504764  78.9081092   4.9804763
  43.5297304  79.8091797   4.3186420  46.2462108  78.2901401   1.7375835
  46.1675739  77.9561264   2.6311593  47.0671774  78.7823169   1.7367307
  48.9440299  71.1563140  14.9452154  48.9116619  70.2179141  15.1311837
  49.5540922  71.2347177  14.2117979  49.0934787  67.9474184  14.9910437
  48.5773836  67.1632640  14.8040366  49.9774736  67.6192900  15.1556956
  46.7545514  61.6915199  10.9506250  46.5570335  61.3830287  11.8349581
  47.3645220  62.4176838  11.0804179  54.7616849  72.2179147  14.0858190
  55.4920237  71.9564435  14.6465894  54.1523794  71.4807869  14.1260258
  52.8432146  70.3587010  14.6832642  52.1165309  70.2242975  14.0749133
  52.4279433  70.6663838  15.4889360  40.6662322  74.0776939  22.4480015
  41.5865332  74.2555538  22.6420061  40.6311905  73.1332985  22.2959714
  29.8844487  69.2715533  11.3733289  29.5647272  68.4180841  11.0807663
  29.3377915  69.4864111  12.1291257  33.6624395  71.9877974  15.0902796
  33.8810405  72.9195082  15.1090830  34.0750169  71.6285948  15.8757600
  42.5119161  61.5724106   8.7002781  43.0650199  61.9919559   9.3592804
  42.7489247  60.6459854   8.7425737  38.5352260  67.5611180  24.4805545
  38.4348987  68.5105537  24.4117636  38.3173802  67.2329419  23.6081615
  29.7532747  72.8918444  13.3426411  29.0596219  72.4772397  12.8296365
  30.5005738  72.9338981  12.7459830  45.8897968  63.6824631   8.2081445
  45.3096637  64.3409435   7.8259498  45.6233901  62.8601976   7.7968863
  44.3401534  63.0829689  10.4102765  44.8401313  63.1946223   9.6017084
  44.9837142  62.7790742  11.0503574  38.3983530  70.9908319  23.2970606
  37.9150612  71.7908679  23.5034495  38.4844469  71.0016263  22.3438050
  31.6669490  72.8236698  11.2192426  31.6440178  72.9224385  10.2674309
  31.9770126  73.6701849  11.5409592  34.3256868  74.8812853  15.3339040
  35.2800121  74.8496796  15.2668972  34.1269391  74.4203477  16.1489266
  34.9156250  73.4513969  17.9009838  35.7349139  73.9458048  17.9244675
  35.1893057  72.5345937  17.8727405  44.6722846  65.8424722   7.2637793
  43.7848701  66.1274372   7.0457988  45.0876835  65.6818485   6.4165070
  48.0237382  65.8671243  10.9792133  48.7997772  66.3567695  11.2516749
  47.2985516  66.2929297  11.4364002  50.4609941  66.5798862  12.0366073
  51.0554431  66.3394598  11.3259381  50.5336524  65.8605992  12.6639610
  32.6807096  80.4232473  12.3509238  32.5461564  79.6632874  11.7847236
  32.2639159  81.1473373  11.8838027  43.8166059  75.6069396   1.3585813
  44.5201910  75.8119399   1.9743469  43.0928708  76.1746158   1.6234897
  44.6463870  71.3579258   7.4788084  44.5899071  71.8147809   6.6395716
  45.1992212  70.5969942   7.3010926  48.4568676  67.1468989   8.3038203
  48.2005610  66.7465625   9.1346411  47.8321544  67.8612783   8.1788342
  52.7681013  69.8865063  10.8109494  52.2080571  69.9558252  11.5841056
  52.1624517  69.7106047  10.0908991  35.8376222  81.3201790  12.5627681
  35.7208606  82.2647222  12.4606371  35.0168669  81.0175351  12.9513480
  45.7252757  76.0451925   3.4084273  46.5598361  75.6133124   3.2261748
  45.5637100  75.8733939   4.3361168  45.3798649  72.5484039   4.7740613
  45.3247453  72.3828310   3.8329057  44.7544704  73.2560072   4.9302802
  30.1691164  67.7852103  18.6002035  30.8150028  67.2751057  19.0889260
  29.9608315  68.5220785  19.1745460  42.6944556  74.8532951  24.0994175
  43.5635716  75.0273603  23.7380810  42.2151308  75.6727367  23.9769905
  36.8630736  81.9730052  15.7783609  37.7657983  82.0053662  16.0950104
  36.6368106  81.0430503  15.7929945  38.6184338  80.7261038  12.4393688
  37.6679969  80.7262900  12.3258060  38.9216825  79.9793773  11.9229722
  34.5088655  64.9319720  22.6977049  35.3720117  64.5756525  22.9080374
  33.9354066  64.5933615  23.3852453  54.3537032  86.5621577  13.5039450
  54.9915442  86.4428324  12.8002790  54.2357875  87.5102421  13.5627402
  51.1626738  86.5149005  13.4400975  50.8245250  86.3990069  12.5521510
  52.0316506  86.1140170  13.4201981  47.0213554  88.3684481   9.4297866
  46.4578419  88.2774418   8.6614154  46.9065949  87.5484386   9.9100358
  51.6446521  87.6683856  19.3987180  51.6335162  87.2736655  18.5267684
  51.8067161  86.9349929  19.9920952  44.5677986  89.8635673  12.2682086
  45.3599278  89.5226497  11.8528386  44.8074636  89.9730648  13.1884240
  52.6013113  92.0355449   4.7412331  51.9501092  92.6209529   4.3546345
  53.3957475  92.5661644   4.8007368  46.5268740  89.1244586   5.1399465
  47.2999616  88.5773573   5.0012341  46.8794139  89.9888835   5.3513926
  48.3653782  90.4520968  18.3466364  48.0743648  91.3566599  18.2313031
  49.0010767  90.4937496  19.0610434  49.2909989  87.8297817  14.9367724
  49.8873561  87.6053839  14.2224687  49.3484961  87.0882562  15.5393172
  48.8635018  85.2837252   2.7717915  49.1160538  84.7618773   2.0101378
  47.9259577  85.1203398   2.8744599  53.9078300  84.2873030  10.5792658
  54.6941390  83.8692454  10.2283075  54.1717005  85.1919123  10.7474307
  54.0788378  89.7245881   5.2781315  53.4434211  89.7980507   5.9902220
  53.7485784  90.3139480   4.6000394  59.3086728  84.2248264  11.4825637
  60.0411899  83.6547480  11.7163466  58.5526083  83.8369864  11.9232142
  48.5831306  87.1865358   4.9742290  48.4667564  86.5110261   5.6423374
  48.6933566  86.6997732   4.1574443  50.9262847  86.6475505   8.6788979
  50.5621054  86.1206126   9.3901901  51.7829963  86.2573974   8.5055465
  56.8312148  77.9369838  15.9420245  56.4995473  78.8065249  15.7181460
  56.2357761  77.6206122  16.6214276  50.5668334  81.6765405   3.6750328
  50.7342737  82.5445641   4.0420799  50.3765503  81.8392687   2.7511617
  53.3243667  90.1382384  15.3416158  53.0244390  91.0407423  15.2331965
  52.9794727  89.8714567  16.1937311  46.7756149  86.5896181  11.3752862
  45.8506645  86.4572395  11.5830554  47.0240562  87.3690400  11.8722805
  56.7240811  82.6564924  13.0213595  55.8157689  82.5880332  12.7272356
  56.6728407  83.1336869  13.8495421  50.5457555  84.1323062   4.6596995
  50.4257180  84.5780113   5.4982475  49.8510143  84.4808380   4.1010533
  44.1364960  86.2329454  12.2096652  44.2657341  86.4863933  13.1236063
  43.4562411  86.8257162  11.8901307  48.3064447  96.9026704   8.3087126
  48.2288477  97.8534529   8.3875606  47.7026091  96.5572577   8.9662052
  50.7981677  84.0754570  20.9648493  50.0215011  84.6348490  20.9551357
  51.4372240  84.5611352  21.4863363  58.5902458  80.8581362  14.7991469
  57.9476838  81.1513895  14.1531264  58.0857386  80.7434283  15.6044666
  56.2442621  84.6044536   5.4877329  57.1560477  84.8371922   5.3125026
  55.7352268  85.1881580   4.9252407  49.0528049  86.8840023  20.5266460
  49.7942734  87.4225067  20.2501283  48.3465035  87.5106312  20.6838011
  54.5283389  89.0269163  19.1238621  54.9366745  88.5851574  18.3793253
  53.8060650  88.4521791  19.3772814  50.8814459  83.9641770  16.4972178
  51.7275654  84.3881184  16.6406827  50.8213097  83.3075394  17.1910741
  54.8512204  89.5870354  12.8790910  54.2221066  89.7516068  12.1766978
  54.4637866  90.0011964  13.6501874  58.7301435  90.5224792  10.2335274
  58.0452474  90.9023693   9.6832307  58.8145285  91.1320118  10.9667222
  54.0313904  81.6246138  18.1553352  53.7874836  82.3788199  17.6187627
  54.3073835  82.0031486  18.9900599  55.9852367  88.1684751  16.8330617
  56.1969262  88.8116511  16.1564998  55.9382115  87.3347067  16.3652547
  53.5878596  80.7802571  13.7367189  52.7263075  81.0783825  14.0283927
  53.6141031  80.9972970  12.8048222  50.4040165  89.3244762  10.1440995
  50.8678511  89.6032465   9.3545618  50.1396964  88.4228207   9.9614086
  47.2964246  88.8716244  13.0820758  47.8665604  89.3003512  12.4438243
  47.8872358  88.5898828  13.7804944  49.3409051  85.4467914   6.9530560
  50.0433095  85.8988958   7.4204487  49.0089680  84.8051733   7.5810453
  47.7889413  84.0379671  21.3281770  47.1588074  84.7195952  21.5617166
  47.6825501  83.9262753  20.3834908  43.0834385  83.7051467  12.2547694
  42.2933439  83.9608996  11.7787804  43.5745633  84.5199805  12.3599734
  57.0998195  91.0456706  15.0052975  57.9215639  90.6436894  14.7235656
  57.0960598  90.9424940  15.9569090  45.0349131  84.0696046   9.2131171
  44.2380294  84.1814741   9.7314666  44.8074723  84.4082699   8.3472061
  50.8654798  90.5940750  17.1613685  50.9299231  91.0561157  17.9971857
  50.1565722  89.9638114  17.2895995  41.3672088  83.9581958  14.6862685
  41.6180127  84.8428967  14.9520261  41.9031637  83.7786559  13.9137776
  65.1904188  87.3895455  11.3537946  64.4367896  86.8202853  11.1981951
  65.3251729  87.3558119  12.3008581  50.5802816  92.2608857   7.0292665
  50.4448491  93.1060393   7.4577513  51.1212629  92.4628135   6.2658599
  47.0670156  78.3400437  23.6907021  46.6737101  77.7866635  24.3654665
  47.8836296  78.6511015  24.0813538  44.0332214  89.7784295   7.6020591
  44.5456734  90.5727545   7.7526155  44.6854926  89.0810586   7.5354192
  45.8427098  92.8950051   9.6843344  46.0193727  93.8168016   9.4964328
  46.6383932  92.5808471  10.1137724  49.9838117  79.7558316  21.2827277
  50.7247830  80.3565469  21.2031740  50.2156040  79.0135954  20.7245320
  45.1279455  84.9414683  19.5605507  45.0132970  84.0399940  19.8612606
  44.2723972  85.1878380  19.2090323  52.2071292  92.8832424  21.1593008
  51.7635147  92.0968802  20.8413912  52.8688506  93.0711574  20.4936898
  46.9658414  94.4128225  15.6853686  47.5165839  94.2845288  14.9130680
  46.1269890  94.7123114  15.3348579  54.3052531  93.1635223  19.1874409
  54.2871006  93.9844105  18.6954678  55.2272451  93.0389299  19.4124550
  50.7625585  90.6779353  20.0297917  51.2953922  89.9167641  19.7997225
  50.2339666  90.3853005  20.7722072  53.9295280  75.7839419  15.5591559
  53.5859549  76.6741061  15.4830670  54.2974242  75.5941077  14.6961144
  41.9981130  88.1072949   8.3780161  42.8356352  88.5169958   8.1613869
  42.1759398  87.1672392   8.3480355  53.8945562  85.7748030   4.0663994
  53.3792186  86.5452635   4.3052381  53.6222871  85.1013166   4.6897055
  51.4792673  80.6197731   9.1249232  50.6234270  80.2304581   8.9454871
  51.8919625  80.6989692   8.2649018  53.0091820  78.1544074  13.5240792
  52.5056616  78.1174209  12.7108597  53.3022427  79.0636817  13.5837449
  49.2534706  78.2382804  12.5306974  50.1187703  78.0425612  12.1712863
  49.3212215  78.0093156  13.4576331  58.8679837  88.5280385   6.0017168
  58.0909279  88.1891544   5.5572330  59.5471318  88.5333008   5.3272133
  53.6831866  83.6475122   5.8923775  53.3782001  83.9621271   6.7433918
  54.6362308  83.7256542   5.9351108  52.1278297  89.8065345   7.5416729
  51.5999659  89.0718105   7.2289967  51.6265800  90.5840022   7.2956698
  57.1071143  88.0014366  12.6583776  56.4494818  88.6913627  12.7463904
  57.9111543  88.3910798  13.0017762  46.8597025  80.4685012   9.9023341
  47.4340777  80.2460193   9.1696534  47.4468007  80.5373706  10.6551942
  55.9176602  86.3558739  10.7087717  56.4308484  86.9888730  11.2109427
  56.5677826  85.7559934  10.3431077  47.1866612  82.4989473   3.9219226
  46.3503924  82.8364159   4.2428501  47.0471382  82.3638453   2.9846363
  49.1619693  77.3426261   8.6298410  48.5084105  77.0275278   8.0055025
  49.1200167  76.7202001   9.3558233  50.2730898  87.6245556   0.5451702
  49.3657959  87.3934809   0.7442851  50.7701930  86.8283175   0.7325684
  53.1798976  96.3343063   3.4648388  52.5060675  96.6374760   4.0733346
  53.5664798  97.1372143   3.1153845  52.3957433  83.8308194  12.9546058
  51.4779994  84.0523141  12.7967746  52.8117577  83.9054505  12.0957765
  53.1792481  85.2299610   8.0848738  53.9264300  85.7421007   7.7755860
  53.4484070  84.9083663   8.9453132  51.4519131  87.7258151   5.0675692
  50.5430350  87.4417183   5.1648162  51.4814215  88.1457229   4.2078999
  56.6838398  91.3364740   8.8366860  56.2300726  90.4955650   8.8932050
  56.0532365  91.9726138   9.1741640  55.6271318  82.2656726  10.0667527
  54.8894075  81.7534112  10.3977770  55.8798092  81.8257108   9.2550804
  55.1271338  93.1741237   9.7716678  55.4194312  93.7346294   9.0529044
  55.6369958  93.4669798  10.5269837  55.7282945  75.0432978  10.6609297
  56.0341822  74.1830342  10.3735212  56.4535550  75.6350598  10.4608291
  42.0207301  85.4463665   9.0490895  41.8231701  84.8533025   8.3241961
  41.4653965  85.1415875   9.7666833  50.0004025  85.3386771  11.1685488
  50.0552635  84.3860608  11.0927964  49.1895227  85.4946210  11.6526786
  51.1495219  89.2666894   2.4063771  50.7114649  88.5502753   1.9469408
  51.8905660  89.4943009   1.8448862  47.9396385  83.9563831   8.9275867
  47.1264251  84.2558001   9.3341059  48.4355379  83.5619520   9.6450349
  50.0904963  93.9521588  10.8610131  50.0481142  94.1782434   9.9318663
  51.0067662  93.7184962  11.0095932  53.5370597  84.4205655  17.7590760
  53.8919984  84.6477129  18.6185226  54.1842728  84.7524032  17.1368016
  59.2668334  87.5424091   8.4640089  59.1286232  87.7325687   7.5361279
  58.9104552  88.3043474   8.9208141  47.4310460  81.5282186  14.5437102
  48.0709839  81.3870946  13.8460065  46.5987990  81.2416700  14.1675703
  59.2937713  89.6100618  13.4751361  59.7274220  89.5175907  14.3234415
  60.0069294  89.5858119  12.8371377  48.2070764  90.8284617  10.6572094
  49.0011362  90.3334937  10.4554669  47.4962456  90.3002480  10.2939800
  53.0265608  93.2102712  15.0084462  53.0802630  93.7793649  15.7762177
  52.1580389  93.3804597  14.6438499  44.5153527  84.9727699   6.7331847
  43.5851115  84.9112154   6.9501809  44.6110999  84.4503651   5.9368488
  44.4339076  81.4982511   9.3210088  44.6945893  82.4127845   9.2119249
  45.2556249  81.0306954   9.4706701  45.9064002  82.9120269  16.4908913
  46.5787055  82.7037631  15.8421562  45.0793788  82.7142355  16.0514145
  60.1553263  89.6524319  16.0084246  60.3489153  90.5570129  16.2543521
  60.0553881  89.1931738  16.8422831  51.8089574  79.5382210  18.5074574
  51.1617489  80.2372159  18.4139050  52.5790589  79.9718353  18.8750822
  55.2168371  89.8031062  21.5825127  55.0653878  89.5741613  20.6655211
  55.2073051  90.7601663  21.5956472  51.9853708  87.3762974  16.5671393
  52.9145768  87.5274134  16.3940361  51.5644738  87.4646995  15.7120040
  50.7842040  91.4013639  14.3369931  50.6453125  91.0332423  15.2095869
  49.9956636  91.9161278  14.1653889  51.3790192  96.5022735   5.6795468
  51.5541947  96.0310779   6.4941090  50.6922980  97.1288502   5.9076728
  52.3347255  90.7795242  11.7258769  51.9997087  90.7396012  12.6216419
  51.8351200  90.1139957  11.2529179  46.3091499  86.1862872  17.2511350
  46.1711297  85.4543110  17.8522889  47.2196422  86.0971772  16.9695538
  55.2706446  88.1251276   1.9995828  54.6535617  87.3998104   1.9028881
  54.8022935  88.8860636   1.6562903  48.9373799  85.8982831  16.7395030
  49.6473418  85.2576023  16.6981648  48.8943108  86.1495726  17.6621210
  56.9260578  92.8350184  19.6601609  56.8673124  92.1509404  18.9932192
  57.3280096  93.5769174  19.2082235  47.6502733  82.8848049  18.5590669
  47.1140090  82.4338787  19.2112265  47.0619442  83.0193958  17.8161133
  45.9451277  99.6512098  12.4535328  46.1847875 100.2830622  13.1314346
  45.1020473  99.3000138  12.7400687  47.0604992  82.3436700   1.1217133
  46.1834459  82.2225501   0.7579379  47.5362745  81.5522778   0.8696021
  56.9277985  90.7989768  17.8915589  56.0404764  90.4615690  18.0141987
  57.4976536  90.0672799  18.1284354  38.5807132  87.1313860  11.2158640
  39.2678172  86.8175590  10.6279655  38.4255261  88.0355225  10.9425891
  43.3841855  82.0204056  15.6443664  43.3000043  81.4129726  14.9094074
  42.5624561  82.5113075  15.6453160  50.4579139  95.4591221  14.8576832
  50.3849310  96.2646192  15.3696136  50.0156532  95.6583186  14.0324853
  50.2468918  94.6962991   8.3679653  49.4636440  95.2384671   8.4617878
  50.9461664  95.2136970   8.7673894  53.5565569  80.5057620  11.0113859
  54.0534268  79.7527582  10.6914929  52.7852550  80.5421937  10.4457068
  61.4095326  86.2097986  12.6532150  61.3985202  87.0922701  12.2826083
  60.5412705  85.8569536  12.4586687  52.9177822  95.3578055  17.0134990
  53.6305794  95.9925519  16.9410892  52.4267851  95.4541921  16.1974992
  54.6395349  89.2629307   8.5852282  53.7051628  89.3830770   8.4156986
  54.8172018  88.3601774   8.3212292  50.1400537  82.6475003  10.7385543
  49.7698325  82.0946043  11.4266449  50.6359630  82.0433136  10.1860543
  58.0267901  85.1046627   9.1202316  58.4928353  85.9374618   9.0462619
  58.4775401  84.6391608   9.8247575  47.9689736  93.1072498  17.8340561
  48.6699195  93.7408981  17.9869955  47.4984851  93.4487230  17.0736200
  56.0944132  91.4490448   6.1188468  56.3703976  91.3347042   7.0282342
  55.2248630  91.0507933   6.0800641  55.9984563  77.4727213  13.1593218
  55.0847643  77.7031440  13.3275424  56.4277665  77.5565658  14.0107250
  55.7691022  85.6617105  15.6593112  55.1162472  85.9093013  15.0045564
  56.1471402  84.8481244  15.3255589  52.7298196  95.6976799   9.7621282
  52.9120590  94.8798455  10.2249034  53.5531182  95.9144491   9.3246172
  53.0640361  94.6244984   7.0236330  53.5928128  94.1137438   6.4106492
  53.3268581  94.3087514   7.8881863  51.8178595  86.4036917  22.1459149
  51.1419232  86.3031046  22.8161524  52.6406229  86.2476130  22.6095146
  43.5657454  92.6408853  14.7671664  44.1510891  91.8952541  14.8999568
  43.3682292  92.9512810  15.6508328  46.4196109  95.6760100   9.7834106
  45.7506484  96.1606228   9.2998146  46.2808979  95.9229321  10.6977485
  38.1575109  85.2114453  13.4876107  38.1959208  84.6778044  14.2813225
  37.6515401  84.6849659  12.8687084  50.5601378  97.7103844  16.3816765
  51.1119686  97.8735465  17.1465850  50.9007571  98.3008282  15.7096789
  45.5365871  80.0578994  16.9838649  45.6007197  80.9193825  16.5716047
  45.4732991  79.4452995  16.2511008  45.0118143  82.1302126  20.6311684
  45.6390182  81.7479204  21.2449208  44.1546062  81.9116328  20.9967376
  55.4112252  92.5365101  22.2365419  55.9552156  93.1495060  21.7420374
  54.8299097  93.0944680  22.7532432  41.7883686  83.9378555   6.5630038
  42.0837127  83.0289234   6.5097092  40.8871722  83.9166295   6.2411041
  53.6969765  95.6585819  13.3680447  53.5720904  94.8575559  12.8591392
  54.3548856  96.1532013  12.8794417  45.3177933  82.0134552  12.5457587
  44.5964519  82.6270520  12.4065060  46.1071189  82.5492317  12.4674233
  55.7604673  93.4594840  14.9959997  54.8135009  93.3400191  14.9238324
  56.1087446  92.5717338  15.0786258  48.1204247  79.3488978  18.8198239
  48.6438649  79.5951275  19.5824548  47.9016580  80.1809013  18.4001376
  43.5171528  81.6192653   6.6869364  43.1884234  80.7390032   6.5044470
  43.8710898  81.5640322   7.5745753  52.7651107  93.2547556  11.1964349
  52.6176069  92.3264263  11.3771919  53.5904600  93.2767647  10.7121424
  46.6313351  81.9065623   7.0544841  46.9709423  82.4351544   6.3323450
  47.0785471  82.2446029   7.8303408  56.3685228  94.0776115  12.2829222
  57.2931776  93.8718976  12.1453673  56.2000532  93.8292516  13.1918563
  49.3256792  80.2902674  16.5047909  48.9853612  79.4910487  16.9068589
  48.6195798  80.5904384  15.9324743  49.9773264  77.3751986  14.9575232
  50.7999333  76.9012464  14.8354123  50.2211327  78.1542470  15.4573919
  48.6181498  80.4040244   5.2538134  49.3389861  80.7821497   4.7501851
  47.9946802  81.1229121   5.3573112  52.7612621  81.1085393   6.1896466
  52.9776235  81.9910031   5.8885295  52.2806688  80.7171607   5.4602108
  47.5011842  84.0671107  12.7667211  47.3556423  84.3811410  13.6591492
  47.0237046  84.6856007  12.2138110  49.3608225  81.0573655  12.8148101
  49.3469794  80.1614748  12.4780398  50.0780653  81.0644318  13.4486387
  51.2134356  81.4910995  14.8601228  50.9552134  82.4128066  14.8585558
  50.6819396  81.0941429  15.5501692  56.1580545  94.5961782   7.6391313
  56.3317422  94.0308204   6.8865166  56.6509436  95.3962677   7.4570803
  41.9757505  86.6076451  15.7054872  41.4310973  87.3836259  15.8375146
  42.8536854  86.9547256  15.5473994  48.7645121  79.9388035   8.0835671
  48.8861032  79.0104681   8.2826558  48.4747164  79.9526721   7.1713986
  51.6336312  77.6242945  11.2202390  51.6558008  77.6882278  10.2654370
  52.0504371  76.7847454  11.4142897  62.0119936  87.3598205   9.2581613
  62.4551082  86.6105530   8.8600736  61.1346446  87.3508341   8.8755345
  57.1455717  93.9128546   4.7388212  57.8406622  94.5335239   4.9575526
  57.4878867  93.0623898   5.0140589  42.7623526  85.7346347  18.5985029
  42.0205262  85.8828983  19.1849659  42.4416271  85.9954613  17.7351778
  59.0447140  91.3628252   6.2675542  59.5698464  91.7015525   5.5424862
  58.9569493  90.4275267   6.0838677  50.7067189  95.2762326  18.3965419
  51.0154315  95.0311472  19.2688119  51.5042671  95.4808964  17.9084289
  50.7287801  97.4300235  10.6270796  50.2892791  96.9376614  11.3203652
  51.4795918  96.8873203  10.3862871  43.2080140  93.6211776  10.6295424
  44.0338160  93.3215548  10.2494067  42.8574192  92.8519398  11.0785212
  48.1761673  92.9738244  12.6993097  47.5541682  92.3108949  12.3995325
  48.8466540  92.9999376  12.0166745  41.4088745  91.5398103  11.5884357
  40.5720653  91.1120277  11.4068358  41.3812391  91.7330546  12.5255148
  48.2486201  81.4520032  22.2925603  48.2974356  82.3282155  21.9103373
  48.7908715  80.9097425  21.7197246  58.7341046  91.9961156  21.5726740
  57.9436590  91.9785294  21.0331240  58.4974401  92.5349449  22.3275777
  58.8538921  88.8453622  18.8859469  58.9036926  88.6803629  19.8274992
  58.7452845  87.9780881  18.4957350  47.7375180  91.5242168   6.1751558
  47.8863300  92.2077632   5.5218231  48.5441624  91.5047258   6.6901014
  56.1442684  84.8284550  20.2018776  57.0452547  84.6891015  19.9102773
  56.2190658  84.9939005  21.1416953  50.4785489  82.2051405  19.0471962
  49.6088799  82.4984971  18.7754550  50.7144970  82.7891850  19.7679226
  60.3557118  91.2650563  19.1301490  60.0641927  91.6280544  19.9664951
  59.7429250  90.5517572  18.9514822  61.5552801  88.8303443  11.6504061
  62.3899692  89.2693247  11.8141621  61.6911929  88.3542096  10.8312306
  58.6044307  86.3883178  17.5981548  59.0798428  86.5810824  16.7900400
  57.6809872  86.4442364  17.3524932  45.4927813  87.5507345   7.1812627
  45.2473855  86.6469675   7.3792837  45.6623728  87.5524496   6.2392105
  53.1824523  78.4231022  16.5637382  53.7006467  79.1592049  16.2383871
  52.8279656  78.7295015  17.3984141  44.7623461  83.2835703   4.6798788
  44.0692706  83.3580058   4.0238824  44.5175213  82.5196046   5.2020305
  53.4337117  74.8431304  12.0838279  53.7138871  74.1754493  12.7098705
  54.2187724  75.0360400  11.5712943  51.2370586  94.0190298   3.6463305
  50.6644553  94.6380485   3.1933777  51.8103379  94.5689660   4.1803227
  57.3045976  83.2648938  15.8309854  58.2563398  83.3647036  15.8522078
  57.1349426  82.4727207  16.3407938  55.3260355  80.3504521  16.0169255
  54.7310287  80.6309534  15.3215744  55.0410052  80.8398422  16.7885996
  54.4567845  94.3027448   4.7771887  55.3898519  94.2373010   4.9804763
  54.3691058  95.1383715   4.3186420  57.0855862  93.6193319   1.7375835
  57.0069494  93.2853182   2.6311593  57.9065529  94.1115086   1.7367307
  59.7834053  86.4855058  14.9452154  59.7510373  85.5471059  15.1311837
  60.3934677  86.5639095  14.2117979  51.6217384  85.3551111   0.9879358
  52.5676489  85.2257319   1.0567776  51.2431629  84.6165773   1.4648786
  59.9328542  83.2766101  14.9910437  59.4167590  82.4924558  14.8040366
  60.8168490  82.9484818  15.1556956  57.5939269  77.0207117  10.9506250
  57.3964090  76.7122205  11.8349581  58.2038974  77.7468756  11.0804179
  65.6010603  87.5471065  14.0858190  66.3313992  87.2856353  14.6465894
  64.9917549  86.8099787  14.1260258  63.6825900  85.6878927  14.6832642
  62.9559064  85.5534892  14.0749133  63.2673187  85.9955756  15.4889360
  51.5056077  89.4068857  22.4480015  52.4259086  89.5847456  22.6420061
  51.4705660  88.4624902  22.2959714  49.8060301  83.2801087   0.9234243
  48.8991757  82.9834200   0.9996957  50.0836282  82.9830905   0.0568529
  40.7238242  84.6007451  11.3733289  40.4041026  83.7472759  11.0807663
  40.1771670  84.8156029  12.1291257  44.5018149  87.3169892  15.0902796
  44.7204159  88.2486999  15.1090830  44.9143923  86.9577866  15.8757600
  51.4222367  77.8237977   7.0778484  50.6123095  77.4785062   7.4533730
  52.1106784  77.5145521   7.6666096  53.3512915  76.9016024   8.7002781
  53.9043954  77.3211477   9.3592804  53.5883002  75.9751772   8.7425737
  49.3746015  82.8903097  24.4805545  49.2742741  83.8397454  24.4117636
  49.1567557  82.5621336  23.6081615  48.5759086  80.1388022   1.0646222
  49.4378250  80.4642921   1.3242039  48.7609430  79.3519518   0.5519288
  40.5926502  88.2210362  13.3426411  39.8989973  87.8064315  12.8296365
  41.3399493  88.2630899  12.7459830  56.7291722  79.0116549   8.2081445
  56.1490391  79.6701353   7.8259498  56.4627655  78.1893893   7.7968863
  55.1795289  78.4121607  10.4102765  55.6795067  78.5238141   9.6017084
  55.8230897  78.1082659  11.0503574  49.2377285  86.3200236  23.2970606
  48.7544366  87.1200596  23.5034495  49.3238224  86.3308181  22.3438050
  42.5063244  88.1528616  11.2192426  42.4833932  88.2516303  10.2674309
  42.8163881  88.9993767  11.5409592  45.1650622  90.2104771  15.3339040
  46.1193876  90.1788713  15.2668972  44.9663146  89.7495395  16.1489266
  45.7550004  88.7805887  17.9009838  46.5742893  89.2749966  17.9244675
  46.0286812  87.8637855  17.8727405  55.5116600  81.1716639   7.2637793
  54.6242455  81.4566290   7.0457988  55.9270589  81.0110403   6.4165070
  58.8631137  81.1963160  10.9792133  59.6391527  81.6859613  11.2516749
  58.1379271  81.6221214  11.4364002  61.3003695  81.9090779  12.0366073
  61.8948186  81.6686515  11.3259381  61.3730279  81.1897910  12.6639610
  43.5200851  95.7524390  12.3509238  43.3855319  94.9924791  11.7847236
  43.1032913  96.4765290  11.8838027  54.6559814  90.9361314   1.3585813
  55.3595664  91.1411316   1.9743469  53.9322463  91.5038076   1.6234897
  55.4857624  86.6871175   7.4788084  55.4292826  87.1439727   6.6395716
  56.0385967  85.9261860   7.3010926  59.2962430  82.4760907   8.3038203
  59.0399364  82.0757543   9.1346411  58.6715298  83.1904701   8.1788342
  63.6074768  85.2156980  10.8109494  63.0474326  85.2850170  11.5841056
  63.0018271  85.0397965  10.0908991  46.6769977  96.6493707  12.5627681
  46.5602361  97.5939140  12.4606371  45.8562423  96.3467269  12.9513480
  56.5646511  91.3743843   3.4084273  57.3992115  90.9425042   3.2261748
  56.4030854  91.2025857   4.3361168  56.2192403  87.8775956   4.7740613
  56.1641207  87.7120228   3.8329057  55.5938459  88.5851989   4.9302802
  41.0084918  83.1144021  18.6002035  41.6543782  82.6042975  19.0889260
  40.8002070  83.8512702  19.1745460  53.5338311  90.1824868  24.0994175
  54.4029470  90.3565521  23.7380810  53.0545062  91.0019285  23.9769905
  49.5288529  77.3784065   4.3525931  49.5167199  78.3225905   4.5094202
  50.4211951  77.1954211   4.0585392  47.7024491  97.3021969  15.7783609
  48.6051738  97.3345580  16.0950104  47.4761861  96.3722420  15.7929945
  49.4578093  96.0552956  12.4393688  48.5073724  96.0554817  12.3258060
  49.7610579  95.3085690  11.9229722  53.3440648  73.9726842   8.6071868
  52.5773044  73.4185329   8.7528550  53.7551353  74.0448711   9.4686020
  45.3482409  80.2611638  22.6977049  46.2113871  79.9048443  22.9080374
  44.7747820  79.9225533  23.3852453  65.1930786 101.8913494  13.5039450
  65.8309196 101.7720242  12.8002790  65.0751629 102.8394338  13.5627402
  62.0020493 101.8440922  13.4400975  61.6639004 101.7281987  12.5521510
  62.8710261 101.4432087  13.4201981  57.8607308 103.6976399   9.4297866
  57.2972173 103.6066336   8.6614154  57.7459703 102.8776303   9.9100358
  62.4840276 102.9975774  19.3987180  62.4728916 102.6028572  18.5267684
  62.6460915 102.2641847  19.9920952  55.4071740 105.1927590  12.2682086
  56.1993032 104.8518415  11.8528386  55.6468390 105.3022565  13.1884240
  63.4406867 107.3647366   4.7412331  62.7894847 107.9501447   4.3546345
  64.2351230 107.8953561   4.8007368  57.3662494 104.4536504   5.1399465
  58.1393370 103.9065491   5.0012341  57.7187893 105.3180753   5.3513926
  59.2047537 105.7812886  18.3466364  58.9137403 106.6858517  18.2313031
  59.8404521 105.8229414  19.0610434  60.1303744 103.1589734  14.9367724
  60.7267316 102.9345757  14.2224687  60.1878715 102.4174480  15.5393172
  59.7028772 100.6129170   2.7717915  59.9554293 100.0910691   2.0101378
  58.7653331 100.4495315   2.8744599  64.7472055  99.6164948  10.5792658
  65.5335144  99.1984371  10.2283075  65.0110759 100.5211040  10.7474307
  64.9182132 105.0537798   5.2781315  64.2827965 105.1272425   5.9902220
  64.5879539 105.6431397   4.6000394  70.1480482  99.5540181  11.4825637
  70.8805654  98.9839398  11.7163466  69.3919838  99.1661782  11.9232142
  59.4225061 102.5157276   4.9742290  59.3061319 101.8402179   5.6423374
  59.5327321 102.0289650   4.1574443  61.7656602 101.9767423   8.6788979
  61.4014809 101.4498044   9.3901901  62.6223718 101.5865892   8.5055465
  67.6705902  93.2661755  15.9420245  67.3389227  94.1357166  15.7181460
  67.0751516  92.9498039  16.6214276  61.4062089  97.0057322   3.6750328
  61.5736491  97.8737559   4.0420799  61.2159258  97.1684604   2.7511617
  64.1637422 105.4674301  15.3416158  63.8638145 106.3699340  15.2331965
  63.8188481 105.2006485  16.1937311  57.6149903 101.9188098  11.3752862
  56.6900400 101.7864312  11.5830554  57.8634317 102.6982317  11.8722805
  67.5634566  97.9856842  13.0213595  66.6551443  97.9172250  12.7272356
  67.5122161  98.4628787  13.8495421  61.3851310  99.4614980   4.6596995
  61.2650935  99.9072031   5.4982475  60.6903898  99.8100298   4.1010533
  54.9758714 101.5621372  12.2096652  55.1051096 101.8155851  13.1236063
  54.2956166 102.1549080  11.8901307  59.1458202 112.2318622   8.3087126
  59.0682231 113.1826447   8.3875606  58.5419845 111.8864494   8.9662052
  61.6375431  99.4046487  20.9648493  60.8608766  99.9640407  20.9551357
  62.2765995  99.8903270  21.4863363  69.4296212  96.1873280  14.7991469
  68.7870592  96.4805813  14.1531264  68.9251141  96.0726200  15.6044666
  67.0836376  99.9336453   5.4877329  67.9954232 100.1663840   5.3125026
  66.5746023 100.5173497   4.9252407  59.8921804 102.2131941  20.5266460
  60.6336488 102.7516985  20.2501283  59.1858789 102.8398229  20.6838011
  65.3677143 104.3561081  19.1238621  65.7760499 103.9143492  18.3793253
  64.6454405 103.7813709  19.3772814  61.7208213  99.2933688  16.4972178
  62.5669409  99.7173101  16.6406827  61.6606851  98.6367312  17.1910741
  65.6905958 104.9162272  12.8790910  65.0614820 105.0807986  12.1766978
  65.3031620 105.3303881  13.6501874  69.5695190 105.8516709  10.2335274
  68.8846228 106.2315611   9.6832307  69.6539039 106.4612036  10.9667222
  64.8707659  96.9538056  18.1553352  64.6268591  97.7080117  17.6187627
  65.1467589  97.3323404  18.9900599  66.8246122 103.4976669  16.8330617
  67.0363017 104.1408428  16.1564998  66.7775870 102.6638985  16.3652547
  64.4272351  96.1094489  13.7367189  63.5656830  96.4075743  14.0283927
  64.4534785  96.3264888  12.8048222  61.2433920 104.6536680  10.1440995
  61.7072265 104.9324383   9.3545618  60.9790718 103.7520124   9.9614086
  58.1358001 104.2008161  13.0820758  58.7059358 104.6295430  12.4438243
  58.7266113 103.9190746  13.7804944  60.1802806 100.7759832   6.9530560
  60.8826849 101.2280876   7.4204487  59.8483434 100.1343651   7.5810453
  58.6283168  99.3671589  21.3281770  57.9981828 100.0487870  21.5617166
  58.5219255  99.2554670  20.3834908  53.9228140  99.0343385  12.2547694
  53.1327194  99.2900913  11.7787804  54.4139387  99.8491723  12.3599734
  67.9391949 106.3748624  15.0052975  68.7609393 105.9728811  14.7235656
  67.9354352 106.2716858  15.9569090  55.8742885  99.3987964   9.2131171
  55.0774049  99.5106658   9.7314666  55.6468478  99.7374616   8.3472061
  61.7048553 105.9232667  17.1613685  61.7692985 106.3853074  17.9971857
  60.9959477 105.2930032  17.2895995  52.2065843  99.2873875  14.6862685
  52.4573881 100.1720885  14.9520261  52.7425391  99.1078477  13.9137776
  76.0297943 102.7187372  11.3537946  75.2761651 102.1494770  11.1981951
  76.1645484 102.6850037  12.3008581  61.4196571 107.5900775   7.0292665
  61.2842245 108.4352310   7.4577513  61.9606383 107.7920052   6.2658599
  57.9063910  93.6692355  23.6907021  57.5130856  93.1158553  24.3654665
  58.7230051  93.9802933  24.0813538  54.8725968 105.1076213   7.6020591
  55.3850489 105.9019463   7.7526155  55.5248681 104.4102503   7.5354192
  56.6820853 108.2241969   9.6843344  56.8587481 109.1459934   9.4964328
  57.4777686 107.9100388  10.1137724  60.8231871  95.0850234  21.2827277
  61.5641585  95.6857387  21.2031740  61.0549794  94.3427871  20.7245320
  55.9673209 100.2706601  19.5605507  55.8526724  99.3691858  19.8612606
  55.1117727 100.5170298  19.2090323  63.0465047 108.2124341  21.1593008
  62.6028901 107.4260720  20.8413912  63.7082261 108.4003492  20.4936898
  57.8052168 109.7420143  15.6853686  58.3559593 109.6137206  14.9130680
  56.9663644 110.0415032  15.3348579  65.1446285 108.4927141  19.1874409
  65.1264760 109.3136022  18.6954678  66.0666205 108.3681216  19.4124550
  61.6019339 106.0071271  20.0297917  62.1347676 105.2459559  19.7997225
  61.0733420 105.7144922  20.7722072  64.7689034  91.1131337  15.5591559
  64.4253304  92.0032978  15.4830670  65.1367997  90.9232994  14.6961144
  52.8374885 103.4364867   8.3780161  53.6750107 103.8461875   8.1613869
  53.0153152 102.4964309   8.3480355  64.7339317 101.1039948   4.0663994
  64.2185940 101.8744552   4.3052381  64.4616625 100.4305084   4.6897055
  62.3186428  95.9489648   9.1249232  61.4628024  95.5596499   8.9454871
  62.7313380  96.0281609   8.2649018  63.8485575  93.4835992  13.5240792
  63.3450370  93.4466127  12.7108597  64.1416181  94.3928734  13.5837449
  60.0928460  93.5674721  12.5306974  60.9581457  93.3717530  12.1712863
  60.1605969  93.3385073  13.4576331  69.7073591 103.8572302   6.0017168
  68.9303034 103.5183462   5.5572330  70.3865072 103.8624926   5.3272133
  64.5225620  98.9767040   5.8923775  64.2175756  99.2913189   6.7433918
  65.4756062  99.0548460   5.9351108  62.9672052 105.1357263   7.5416729
  62.4393413 104.4010023   7.2289967  62.4659555 105.9131939   7.2956698
  67.9464898 103.3306284  12.6583776  67.2888572 104.0205545  12.7463904
  68.7505297 103.7202716  13.0017762  57.6990780  95.7976929   9.9023341
  58.2734531  95.5752111   9.1696534  58.2861762  95.8665624  10.6551942
  66.7570357 101.6850656  10.7087717  67.2702238 102.3180648  11.2109427
  67.4071581 101.0851852  10.3431077  58.0260367  97.8281390   3.9219226
  57.1897679  98.1656077   4.2428501  57.8865136  97.6930370   2.9846363
  60.0013447  92.6718178   8.6298410  59.3477860  92.3567195   8.0055025
  59.9593921  92.0493919   9.3558233  61.1124652 102.9537473   0.5451702
  60.2051714 102.7226727   0.7442851  61.6095684 102.1575093   0.7325684
  64.0192731 111.6634981   3.4648388  63.3454430 111.9666677   4.0733346
  64.4058553 112.4664061   3.1153845  63.2351188  99.1600112  12.9546058
  62.3173749  99.3815059  12.7967746  63.6511331  99.2346422  12.0957765
  64.0186235 100.5591528   8.0848738  64.7658054 101.0712925   7.7755860
  64.2877825 100.2375580   8.9453132  62.2912886 103.0550068   5.0675692
  61.3824105 102.7709101   5.1648162  62.3207969 103.4749147   4.2078999
  67.5232153 106.6656658   8.8366860  67.0694480 105.8247568   8.8932050
  66.8926120 107.3018056   9.1741640  66.4665073  97.5948644  10.0667527
  65.7287829  97.0826030  10.3977770  66.7191846  97.1549025   9.2550804
  65.9665092 108.5033154   9.7716678  66.2588067 109.0638212   9.0529044
  66.4763713 108.7961715  10.5269837  66.5676700  90.3724896  10.6609297
  66.8735577  89.5122259  10.3735212  67.2929305  90.9642516  10.4608291
  52.8601056 100.7755582   9.0490895  52.6625456 100.1824943   8.3241961
  52.3047720 100.4707793   9.7666833  60.8397780 100.6678689  11.1685488
  60.8946389  99.7152525  11.0927964  60.0288982 100.8238128  11.6526786
  61.9888973 104.5958812   2.4063771  61.5508403 103.8794671   1.9469408
  62.7299414 104.8234927   1.8448862  58.7790139  99.2855749   8.9275867
  57.9658005  99.5849919   9.3341059  59.2749134  98.8911437   9.6450349
  60.9298717 109.2813506  10.8610131  60.8874896 109.5074352   9.9318663
  61.8461416 109.0476880  11.0095932  64.3764351  99.7497573  17.7590760
  64.7313739  99.9769046  18.6185226  65.0236482 100.0815950  17.1368016
  70.1062088 102.8716009   8.4640089  69.9679987 103.0617605   7.5361279
  69.7498307 103.6335392   8.9208141  58.2704214  96.8574104  14.5437102
  58.9103594  96.7162863  13.8460065  57.4381745  96.5708617  14.1675703
  70.1331468 104.9392536  13.4751361  70.5667974 104.8467825  14.3234415
  70.8463048 104.9150036  12.8371377  59.0464518 106.1576535  10.6572094
  59.8405117 105.6626855  10.4554669  58.3356211 105.6294398  10.2939800
  63.8659363 108.5394630  15.0084462  63.9196385 109.1085566  15.7762177
  62.9974144 108.7096515  14.6438499  55.3547282 100.3019616   6.7331847
  54.4244870 100.2404072   6.9501809  55.4504754  99.7795569   5.9368488
  55.2732831  96.8274429   9.3210088  55.5339648  97.7419762   9.2119249
  56.0950003  96.3598872   9.4706701  56.7457756  98.2412186  16.4908913
  57.4180809  98.0329548  15.8421562  55.9187543  98.0434272  16.0514145
  70.9947017 104.9816237  16.0084246  71.1882907 105.8862047  16.2543521
  70.8947635 104.5223656  16.8422831  62.6483328  94.8674127  18.5074574
  62.0011243  95.5664077  18.4139050  63.4184343  95.3010271  18.8750822
  66.0562126 105.1322979  21.5825127  65.9047632 104.9033531  20.6655211
  66.0466805 106.0893581  21.5956472  62.8247462 102.7054892  16.5671393
  63.7539522 102.8566052  16.3940361  62.4038492 102.7938913  15.7120040
  61.6235794 106.7305557  14.3369931  61.4846880 106.3624341  15.2095869
  60.8350390 107.2453196  14.1653889  62.2183946 111.8314653   5.6795468
  62.3935702 111.3602696   6.4941090  61.5316734 112.4580419   5.9076728
  63.1741009 106.1087159  11.7258769  62.8390842 106.0687929  12.6216419
  62.6744955 105.4431875  11.2529179  57.1485253 101.5154789  17.2511350
  57.0105051 100.7835028  17.8522889  58.0590177 101.4263689  16.9695538
  66.1100201 103.4543194   1.9995828  65.4929372 102.7290022   1.9028881
  65.6416689 104.2152554   1.6562903  59.7767554 101.2274749  16.7395030
  60.4867172 100.5867941  16.6981648  59.7336862 101.4787643  17.6621210
  67.7654333 108.1642102  19.6601609  67.7066879 107.4801322  18.9932192
  68.1673851 108.9061092  19.2082235  58.4896488  98.2139966  18.5590669
  57.9533845  97.7630705  19.2112265  57.9013196  98.3485875  17.8161133
  56.7845031 114.9804016  12.4535328  57.0241630 115.6122540  13.1314346
  55.9414228 114.6292056  12.7400687  57.8998747  97.6728618   1.1217133
  57.0228213  97.5517419   0.7579379  58.3756500  96.8814696   0.8696021
  67.7671740 106.1281686  17.8915589  66.8798519 105.7907608  18.0141987
  68.3370291 105.3964717  18.1284354  49.4200887 102.4605778  11.2158640
  50.1071927 102.1467508  10.6279655  49.2649016 103.3647142  10.9425891
  54.2235609  97.3495974  15.6443664  54.1393798  96.7421644  14.9094074
  53.4018316  97.8404992  15.6453160  61.2972893 110.7883138  14.8576832
  61.2243065 111.5938110  15.3696136  60.8550286 110.9875104  14.0324853
  61.0862673 110.0254908   8.3679653  60.3030195 110.5676588   8.4617878
  61.7855418 110.5428888   8.7673894  64.3959323  95.8349538  11.0113859
  64.8928023  95.0819500  10.6914929  63.6246305  95.8713854  10.4457068
  72.2489080 101.5389903  12.6532150  72.2378957 102.4214619  12.2826083
  71.3806460 101.1861454  12.4586687  63.7571577 110.6869972  17.0134990
  64.4699549 111.3217437  16.9410892  63.2661605 110.7833838  16.1974992
  65.4789104 104.5921225   8.5852282  64.5445382 104.7122687   8.4156986
  65.6565772 103.6893692   8.3212292  60.9794292  97.9766921  10.7385543
  60.6092079  97.4237961  11.4266449  61.4753384  97.3725054  10.1860543
  68.8661655 100.4338544   9.1202316  69.3322107 101.2666536   9.0462619
  69.3169156  99.9683526   9.8247575  58.8083490 108.4364416  17.8340561
  59.5092950 109.0700899  17.9869955  58.3378605 108.7779147  17.0736200
  66.9337886 106.7782365   6.1188468  67.2097730 106.6638960   7.0282342
  66.0642385 106.3799850   6.0800641  66.8378318  92.8019131  13.1593218
  65.9241398  93.0323358  13.3275424  67.2671419  92.8857575  14.0107250
  66.6084776 100.9909023  15.6593112  65.9556227 101.2384931  15.0045564
  66.9865156 100.1773161  15.3255589  63.5691950 111.0268716   9.7621282
  63.7514345 110.2090372  10.2249034  64.3924936 111.2436409   9.3246172
  63.9034116 109.9536901   7.0236330  64.4321882 109.4429356   6.4106492
  64.1662335 109.6379432   7.8881863  62.6572349 101.7328834  22.1459149
  61.9812986 101.6322964  22.8161524  63.4799983 101.5768048  22.6095146
  54.4051208 107.9700771  14.7671664  54.9904645 107.2244459  14.8999568
  54.2076047 108.2804727  15.6508328  57.2589864 111.0052018   9.7834106
  56.5900239 111.4898146   9.2998146  57.1202733 111.2521239  10.6977485
  48.9968863 100.5406371  13.4876107  49.0352963 100.0069962  14.2813225
  48.4909156 100.0141576  12.8687084  61.3995132 113.0395762  16.3816765
  61.9513440 113.2027383  17.1465850  61.7401326 113.6300199  15.7096789
  56.3759625  95.3870911  16.9838649  56.4400952  96.2485742  16.5716047
  56.3126746  94.7744913  16.2511008  55.8511898  97.4594044  20.6311684
  56.4783937  97.0771121  21.2449208  54.9939817  97.2408246  20.9967376
  66.2506007 107.8657019  22.2365419  66.7945910 108.4786977  21.7420374
  65.6692851 108.4236598  22.7532432  52.6277441  99.2670473   6.5630038
  52.9230882  98.3581152   6.5097092  51.7265476  99.2458213   6.2411041
  64.5363519 110.9877737  13.3680447  64.4114659 110.1867477  12.8591392
  65.1942611 111.4823931  12.8794417  56.1571688  97.3426470  12.5457587
  55.4358273  97.9562437  12.4065060  56.9464943  97.8784234  12.4674233
  66.5998428 108.7886757  14.9959997  65.6528763 108.6692108  14.9238324
  66.9481201 107.9009255  15.0786258  58.9598001  94.6780896  18.8198239
  59.4832403  94.9243193  19.5824548  58.7410334  95.5100931  18.4001376
  54.3565282  96.9484571   6.6869364  54.0277988  96.0681950   6.5044470
  54.7104653  96.8932239   7.5745753  63.6044861 108.5839473  11.1964349
  63.4569824 107.6556181  11.3771919  64.4298355 108.6059564  10.7121424
  57.4707105  97.2357541   7.0544841  57.8103178  97.7643462   6.3323450
  57.9179226  97.5737947   7.8303408  67.2078983 109.4068032  12.2829222
  68.1325530 109.2010894  12.1453673  67.0394286 109.1584433  13.1918563
  60.1650546  95.6194591  16.5047909  59.8247367  94.8202404  16.9068589
  59.4589553  95.9196302  15.9324743  60.8167018  92.7043904  14.9575232
  61.6393087  92.2304382  14.8354123  61.0605082  93.4834387  15.4573919
  59.4575253  95.7332162   5.2538134  60.1783615  96.1113415   4.7501851
  58.8340557  96.4521039   5.3573112  63.6006375  96.4377311   6.1896466
  63.8169990  97.3201949   5.8885295  63.1200443  96.0463525   5.4602108
  58.3405597  99.3963024  12.7667211  58.1950178  99.7103327  13.6591492
  57.8630800 100.0147925  12.2138110  60.2001980  96.3865572  12.8148101
  60.1863548  95.4906666  12.4780398  60.9174408  96.3936236  13.4486387
  62.0528110  96.8202913  14.8601228  61.7945888  97.7419983  14.8585558
  61.5213151  96.4233347  15.5501692  66.9974299 109.9253700   7.6391313
  67.1711177 109.3600122   6.8865166  67.4903190 110.7254595   7.4570803
  52.8151259 101.9368369  15.7054872  52.2704727 102.7128177  15.8375146
  53.6930609 102.2839173  15.5473994  59.6038876  95.2679953   8.0835671
  59.7254787  94.3396599   8.2826558  59.3140918  95.2818639   7.1713986
  62.4730066  92.9534863  11.2202390  62.4951763  93.0174196  10.2654370
  62.8898125  92.1139372  11.4142897  72.8513690 102.6890123   9.2581613
  73.2944836 101.9397448   8.8600736  71.9740201 102.6800259   8.8755345
  67.9849472 109.2420464   4.7388212  68.6800376 109.8627157   4.9575526
  68.3272622 108.3915815   5.0140589  53.6017281 101.0638265  18.5985029
  52.8599017 101.2120900  19.1849659  53.2810025 101.3246531  17.7351778
  69.8840895 106.6920170   6.2675542  70.4092219 107.0307442   5.5424862
  69.7963247 105.7567185   6.0838677  61.5460944 110.6054243  18.3965419
  61.8548070 110.3603390  19.2688119  62.3436426 110.8100882  17.9084289
  61.5681556 112.7592153  10.6270796  61.1286546 112.2668532  11.3203652
  62.3189673 112.2165121  10.3862871  54.0473895 108.9503694  10.6295424
  54.8731914 108.6507466  10.2494067  53.6967947 108.1811316  11.0785212
  59.0155428 108.3030162  12.6993097  58.3935437 107.6400867  12.3995325
  59.6860295 108.3291294  12.0166745  52.2482500 106.8690020  11.5884357
  51.4114408 106.4412195  11.4068358  52.2206145 107.0622464  12.5255148
  59.0879955  96.7811950  22.2925603  59.1368111  97.6574073  21.9103373
  59.6302469  96.2389343  21.7197246  69.5734801 107.3253073  21.5726740
  68.7830345 107.3077212  21.0331240  69.3368155 107.8641367  22.3275777
  69.6932676 104.1745540  18.8859469  69.7430681 104.0095547  19.8274992
  69.5846599 103.3072799  18.4957350  58.5768935 106.8534085   6.1751558
  58.7257055 107.5369550   5.5218231  59.3835378 106.8339175   6.6901014
  66.9836438 100.1576468  20.2018776  67.8846301 100.0182932  19.9102773
  67.0584413 100.3230922  21.1416953  61.3179244  97.5343322  19.0471962
  60.4482553  97.8276888  18.7754550  61.5538724  98.1183767  19.7679226
  71.1950873 106.5942481  19.1301490  70.9035681 106.9572462  19.9664951
  70.5823004 105.8809489  18.9514822  72.3946555 104.1595361  11.6504061
  73.2293446 104.5985165  11.8141621  72.5305684 103.6834014  10.8312306
  69.4438061 101.7175096  17.5981548  69.9192183 101.9102742  16.7900400
  68.5203626 101.7734282  17.3524932  56.3321568 102.8799263   7.1812627
  56.0867610 101.9761593   7.3792837  56.5017482 102.8816413   6.2392105
  64.0218277  93.7522939  16.5637382  64.5400221  94.4883966  16.2383871
  63.6673410  94.0586933  17.3984141  55.6017215  98.6127621   4.6798788
  54.9086460  98.6871975   4.0238824  55.3568967  97.8487964   5.2020305
  64.2730872  90.1723222  12.0838279  64.5532625  89.5046411  12.7098705
  65.0581479  90.3652317  11.5712943  62.0764340 109.3482216   3.6463305
  61.5038307 109.9672403   3.1933777  62.6497134 109.8981577   4.1803227
  68.1439730  98.5940856  15.8309854  69.0957153  98.6938954  15.8522078
  67.9743180  97.8019124  16.3407938  66.1654109  95.6796439  16.0169255
  65.5704042  95.9601452  15.3215744  65.8803806  96.1690340  16.7885996
  65.2961600 109.6319366   4.7771887  66.2292273 109.5664928   4.9804763
  65.2084813 110.4675633   4.3186420  67.9249617 108.9485236   1.7375835
  67.8463248 108.6145100   2.6311593  68.7459283 109.4407004   1.7367307
  70.6227808 101.8146976  14.9452154  70.5904128 100.8762976  15.1311837
  71.2328431 101.8931012  14.2117979  62.4611139 100.6843029   0.9879358
  63.4070243 100.5549237   1.0567776  62.0825384  99.9457690   1.4648786
  70.7722296  98.6058019  14.9910437  70.2561345  97.8216476  14.8040366
  71.6562245  98.2776736  15.1556956  68.4333023  92.3499035  10.9506250
  68.2357844  92.0414123  11.8349581  69.0432729  93.0760673  11.0804179
  76.4404358 102.8762982  14.0858190  77.1707746 102.6148270  14.6465894
  75.8311303 102.1391704  14.1260258  74.5219655 101.0170845  14.6832642
  73.7952818 100.8826810  14.0749133  74.1066942 101.3247674  15.4889360
  62.3449831 104.7360775  22.4480015  63.2652841 104.9139374  22.6420061
  62.3099414 103.7916820  22.2959714  60.6454056  98.6093005   0.9234243
  59.7385511  98.3126118   0.9996957  60.9230037  98.3122823   0.0568529
  51.5631996  99.9299368  11.3733289  51.2434781  99.0764676  11.0807663
  51.0165424 100.1447946  12.1291257  55.3411904 102.6461809  15.0902796
  55.5597914 103.5778917  15.1090830  55.7537678 102.2869784  15.8757600
  62.2616122  93.1529895   7.0778484  61.4516850  92.8076980   7.4533730
  62.9500538  92.8437438   7.6666096  64.1906670  92.2307941   8.7002781
  64.7437708  92.6503395   9.3592804  64.4276756  91.3043690   8.7425737
  60.2139769  98.2195015  24.4805545  60.1136496  99.1689372  24.4117636
  59.9961311  97.8913254  23.6081615  59.4152840  95.4679940   1.0646222
  60.2772004  95.7934838   1.3242039  59.6003185  94.6811436   0.5519288
  51.4320256 103.5502280  13.3426411  50.7383728 103.1356233  12.8296365
  52.1793247 103.5922816  12.7459830  67.5685477  94.3408467   8.2081445
  66.9884146  94.9993271   7.8259498  67.3021410  93.5185811   7.7968863
  66.0189043  93.7413524  10.4102765  66.5188822  93.8530059   9.6017084
  66.6624651  93.4374577  11.0503574  60.0771039 101.6492154  23.2970606
  59.5938121 102.4492514  23.5034495  60.1631978 101.6600099  22.3438050
  53.3456999 103.4820534  11.2192426  53.3227687 103.5808221  10.2674309
  53.6557635 104.3285684  11.5409592  56.0044377 105.5396689  15.3339040
  56.9587630 105.5080631  15.2668972  55.8056900 105.0787312  16.1489266
  56.5943759 104.1097805  17.9009838  57.4136648 104.6041883  17.9244675
  56.8680566 103.1929773  17.8727405  66.3510355  96.5008557   7.2637793
  65.4636210  96.7858208   7.0457988  66.7664344  96.3402320   6.4165070
  69.7024891  96.5255078  10.9792133  70.4785281  97.0151530  11.2516749
  68.9773025  96.9513132  11.4364002  72.1397450  97.2382697  12.0366073
  72.7341940  96.9978433  11.3259381  72.2124033  96.5189828  12.6639610
  54.3594605 111.0816308  12.3509238  54.2249073 110.3216709  11.7847236
  53.9426668 111.8057208  11.8838027  65.4953568 106.2653232   1.3585813
  66.1989419 106.4703234   1.9743469  64.7716217 106.8329994   1.6234897
  66.3251379 102.0163093   7.4788084  66.2686580 102.4731644   6.6395716
  66.8779721 101.2553777   7.3010926  70.1356185  97.8052825   8.3038203
  69.8793119  97.4049460   9.1346411  69.5109053  98.5196619   8.1788342
  74.4468522 100.5448898  10.8109494  73.8868080 100.6142087  11.5841056
  73.8412026 100.3689883  10.0908991  57.5163731 111.9785625  12.5627681
  57.3996115 112.9231058  12.4606371  56.6956178 111.6759187  12.9513480
  67.4040266 106.7035761   3.4084273  68.2385870 106.2716959   3.2261748
  67.2424609 106.5317775   4.3361168  67.0586158 103.2067874   4.7740613
  67.0034962 103.0412146   3.8329057  66.4332213 103.9143907   4.9302802
  51.8478673  98.4435939  18.6002035  52.4937537  97.9334892  19.0889260
  51.6395824  99.1804620  19.1745460  64.3732065 105.5116786  24.0994175
  65.2423225 105.6857438  23.7380810  63.8938817 106.3311203  23.9769905
  60.3682283  92.7075983   4.3525931  60.3560953  93.6517823   4.5094202
  61.2605705  92.5246129   4.0585392  58.5418245 112.6313887  15.7783609
  59.4445492 112.6637497  16.0950104  58.3155615 111.7014338  15.7929945
  60.2971847 111.3844874  12.4393688  59.3467478 111.3846735  12.3258060
  60.6004334 110.6377608  11.9229722  64.1834403  89.3018760   8.6071868
  63.4166799  88.7477246   8.7528550  64.5945108  89.3740629   9.4686020
  56.1876164  95.5903556  22.6977049  57.0507626  95.2340360  22.9080374
  55.6141575  95.2517450  23.3852453  76.0324541 117.2205412  13.5039450
  76.6702951 117.1012159  12.8002790  75.9145384 118.1686256  13.5627402
  72.8414247 117.1732840  13.4400975  72.5032759 117.0573905  12.5521510
  73.7104015 116.7724005  13.4201981  68.7001063 119.0268316   9.4297866
  68.1365928 118.9358253   8.6614154  68.5853458 118.2068221   9.9100358
  73.3234030 118.3267692  19.3987180  73.3122671 117.9320490  18.5267684
  73.4854670 117.5933764  19.9920952  66.2465495 120.5219508  12.2682086
  67.0386787 120.1810333  11.8528386  66.4862145 120.6314483  13.1884240
  68.2056249 119.7828421   5.1399465  68.9787125 119.2357408   5.0012341
  68.5581648 120.6472671   5.3513926  70.0441291 121.1104804  18.3466364
  69.7531157 122.0150434  18.2313031  70.6798276 121.1521331  19.0610434
  70.9697498 118.4881652  14.9367724  71.5661070 118.2637674  14.2224687
  71.0272470 117.7466398  15.5393172  70.5422527 115.9421087   2.7717915
  70.7948047 115.4202609   2.0101378  69.6047086 115.7787233   2.8744599
  75.5865809 114.9456866  10.5792658  76.3728899 114.5276289  10.2283075
  75.8504514 115.8502958  10.7474307  80.9874236 114.8832099  11.4825637
  81.7199408 114.3131316  11.7163466  80.2313592 114.4953699  11.9232142
  70.2618815 117.8449193   4.9742290  70.1455073 117.1694097   5.6423374
  70.3721075 117.3581567   4.1574443  72.6050356 117.3059340   8.6788979
  72.2408563 116.7789961   9.3901901  73.4617472 116.9157810   8.5055465
  78.5099657 108.5953673  15.9420245  78.1782982 109.4649084  15.7181460
  77.9145270 108.2789957  16.6214276  72.2455843 112.3349240   3.6750328
  72.4130246 113.2029477   4.0420799  72.0553012 112.4976522   2.7511617
  75.0031176 120.7966219  15.3416158  74.7031899 121.6991258  15.2331965
  74.6582236 120.5298402  16.1937311  68.4543658 117.2480016  11.3752862
  67.5294154 117.1156230  11.5830554  68.7028071 118.0274235  11.8722805
  78.4028320 113.3148759  13.0213595  77.4945198 113.2464168  12.7272356
  78.3515916 113.7920704  13.8495421  72.2245064 114.7906898   4.6596995
  72.1044689 115.2363948   5.4982475  71.5297652 115.1392215   4.1010533
  65.8152469 116.8913289  12.2096652  65.9444850 117.1447768  13.1236063
  65.1349920 117.4840997  11.8901307  69.9851956 127.5610539   8.3087126
  69.9075986 128.5118365   8.3875606  69.3813600 127.2156412   8.9662052
  72.4769186 114.7338405  20.9648493  71.7002520 115.2932325  20.9551357
  73.1159749 115.2195188  21.4863363  80.2689967 111.5165198  14.7991469
  79.6264347 111.8097731  14.1531264  79.7644895 111.4018118  15.6044666
  77.9230130 115.2628371   5.4877329  78.8347986 115.4955758   5.3125026
  77.4139777 115.8465415   4.9252407  70.7315558 117.5423858  20.5266460
  71.4730243 118.0808902  20.2501283  70.0252544 118.1690147  20.6838011
  76.2070898 119.6852999  19.1238621  76.6154254 119.2435409  18.3793253
  75.4848159 119.1105626  19.3772814  72.5601968 114.6225605  16.4972178
  73.4063163 115.0465019  16.6406827  72.5000606 113.9659230  17.1910741
  76.5299713 120.2454189  12.8790910  75.9008575 120.4099903  12.1766978
  76.1425375 120.6595799  13.6501874  80.4088944 121.1808627  10.2335274
  79.7239983 121.5607529   9.6832307  80.4932794 121.7903954  10.9667222
  75.7101413 112.2829974  18.1553352  75.4662345 113.0372034  17.6187627
  75.9861344 112.6615321  18.9900599  77.6639876 118.8268586  16.8330617
  77.8756771 119.4700346  16.1564998  77.6169624 117.9930903  16.3652547
  75.2666105 111.4386407  13.7367189  74.4050584 111.7367660  14.0283927
  75.2928540 111.6556806  12.8048222  72.0827674 119.9828597  10.1440995
  72.5466020 120.2616300   9.3545618  71.8184473 119.0812042   9.9614086
  68.9751755 119.5300079  13.0820758  69.5453113 119.9587347  12.4438243
  69.5659867 119.2482664  13.7804944  71.0196560 116.1051750   6.9530560
  71.7220604 116.5572793   7.4204487  70.6877189 115.4635569   7.5810453
  69.4676922 114.6963506  21.3281770  68.8375583 115.3779787  21.5617166
  69.3613010 114.5846588  20.3834908  64.7621894 114.3635302  12.2547694
  63.9720948 114.6192831  11.7787804  65.2533142 115.1783640  12.3599734
  78.7785704 121.7040542  15.0052975  79.6003148 121.3020729  14.7235656
  78.7748107 121.6008776  15.9569090  66.7136640 114.7279882   9.2131171
  65.9167803 114.8398576   9.7314666  66.4862232 115.0666534   8.3472061
  72.5442307 121.2524585  17.1613685  72.6086740 121.7144992  17.9971857
  71.8353231 120.6221950  17.2895995  63.0459597 114.6165793  14.6862685
  63.2967636 115.5012803  14.9520261  63.5819146 114.4370394  13.9137776
  86.8691697 118.0479290  11.3537946  86.1155405 117.4786688  11.1981951
  87.0039238 118.0141955  12.3008581  72.2590325 122.9192692   7.0292665
  72.1236000 123.7644228   7.4577513  72.8000138 123.1211970   6.2658599
  68.7457665 108.9984272  23.6907021  68.3524610 108.4450471  24.3654665
  69.5623805 109.3094851  24.0813538  65.7119722 120.4368130   7.6020591
  66.2244243 121.2311381   7.7526155  66.3642435 119.7394421   7.5354192
  67.5214607 123.5533887   9.6843344  67.6981236 124.4751851   9.4964328
  68.3171441 123.2392306  10.1137724  71.6625626 110.4142151  21.2827277
  72.4035339 111.0149304  21.2031740  71.8943549 109.6719789  20.7245320
  66.8066964 115.5998519  19.5605507  66.6920479 114.6983776  19.8612606
  65.9511481 115.8462215  19.2090323  73.8858801 123.5416259  21.1593008
  73.4422656 122.7552637  20.8413912  74.5476015 123.7295409  20.4936898
  68.6445923 125.0712060  15.6853686  69.1953348 124.9429124  14.9130680
  67.8057399 125.3706950  15.3348579  75.9840040 123.8219059  19.1874409
  75.9658515 124.6427940  18.6954678  76.9059960 123.6973134  19.4124550
  72.4413094 121.3363188  20.0297917  72.9741430 120.5751476  19.7997225
  71.9127175 121.0436840  20.7722072  75.6082789 106.4423254  15.5591559
  75.2647058 107.3324896  15.4830670  75.9761751 106.2524912  14.6961144
  63.6768639 118.7656785   8.3780161  64.5143861 119.1753793   8.1613869
  63.8546907 117.8256227   8.3480355  75.5733071 116.4331865   4.0663994
  75.0579695 117.2036470   4.3052381  75.3010380 115.7597002   4.6897055
  73.1580182 111.2781566   9.1249232  72.3021779 110.8888417   8.9454871
  73.5707134 111.3573527   8.2649018  74.6879329 108.8127909  13.5240792
  74.1844125 108.7758045  12.7108597  74.9809936 109.7220652  13.5837449
  70.9322215 108.8966639  12.5306974  71.7975212 108.7009448  12.1712863
  70.9999724 108.6676991  13.4576331  75.3619375 114.3058957   5.8923775
  75.0569510 114.6205107   6.7433918  76.3149817 114.3840377   5.9351108
  73.8065806 120.4649181   7.5416729  73.2787168 119.7301940   7.2289967
  73.3053309 121.2423857   7.2956698  78.7858652 118.6598201  12.6583776
  78.1282327 119.3497463  12.7463904  79.5899052 119.0494633  13.0017762
  68.5384534 111.1268847   9.9023341  69.1128286 110.9044029   9.1696534
  69.1255516 111.1957542  10.6551942  77.5964111 117.0142574  10.7087717
  78.1095993 117.6472566  11.2109427  78.2465335 116.4143769  10.3431077
  68.8654121 113.1573308   3.9219226  68.0291433 113.4947995   4.2428501
  68.7258891 113.0222288   2.9846363  70.8407202 108.0010096   8.6298410
  70.1871614 107.6859113   8.0055025  70.7987676 107.3785836   9.3558233
  74.0744942 114.4892030  12.9546058  73.1567503 114.7106977  12.7967746
  74.4905086 114.5638340  12.0957765  74.8579990 115.8883445   8.0848738
  75.6051809 116.4004842   7.7755860  75.1271579 115.5667498   8.9453132
  73.1306640 118.3841986   5.0675692  72.2217859 118.1001019   5.1648162
  73.1601724 118.8041064   4.2078999  78.3625907 121.9948575   8.8366860
  77.9088235 121.1539485   8.8932050  77.7319874 122.6309974   9.1741640
  77.3058827 112.9240561  10.0667527  76.5681584 112.4117948  10.3977770
  77.5585601 112.4840943   9.2550804  76.8058847 123.8325072   9.7716678
  77.0981821 124.3930129   9.0529044  77.3157467 124.1253633  10.5269837
  77.4070454 105.7016813  10.6609297  77.7129331 104.8414177  10.3735212
  78.1323059 106.2934434  10.4608291  63.6994810 116.1047500   9.0490895
  63.5019210 115.5116861   8.3241961  63.1441474 115.7999710   9.7666833
  71.6791534 115.9970607  11.1685488  71.7340144 115.0444443  11.0927964
  70.8682736 116.1530046  11.6526786  69.6183894 114.6147666   8.9275867
  68.8051760 114.9141837   9.3341059  70.1142888 114.2203355   9.6450349
  71.7692472 124.6105423  10.8610131  71.7268651 124.8366270   9.9318663
  72.6855171 124.3768798  11.0095932  75.2158106 115.0789491  17.7590760
  75.5707493 115.3060964  18.6185226  75.8630237 115.4107868  17.1368016
  80.9455843 118.2007927   8.4640089  80.8073741 118.3909523   7.5361279
  80.5892061 118.9627309   8.9208141  69.1097969 112.1866022  14.5437102
  69.7497348 112.0454781  13.8460065  68.2775499 111.9000535  14.1675703
  80.9725222 120.2684454  13.4751361  81.4061729 120.1759743  14.3234415
  81.6856803 120.2441954  12.8371377  69.8858273 121.4868452  10.6572094
  70.6798871 120.9918772  10.4554669  69.1749965 120.9586315  10.2939800
  74.7053117 123.8686548  15.0084462  74.7590139 124.4377484  15.7762177
  73.8367898 124.0388433  14.6438499  66.1941036 115.6311534   6.7331847
  65.2638624 115.5695989   6.9501809  66.2898508 115.1087487   5.9368488
  66.1126585 112.1566347   9.3210088  66.3733402 113.0711680   9.2119249
  66.9343757 111.6890789   9.4706701  67.5851510 113.5704104  16.4908913
  68.2574564 113.3621466  15.8421562  66.7581297 113.3726190  16.0514145
  81.8340772 120.3108154  16.0084246  82.0276662 121.2153965  16.2543521
  81.7341390 119.8515573  16.8422831  73.4877082 110.1966045  18.5074574
  72.8404998 110.8955995  18.4139050  74.2578098 110.6302189  18.8750822
  76.8955880 120.4614897  21.5825127  76.7441387 120.2325449  20.6655211
  76.8860560 121.4185498  21.5956472  73.6641217 118.0346810  16.5671393
  74.5933277 118.1857969  16.3940361  73.2432247 118.1230831  15.7120040
  72.4629549 122.0597474  14.3369931  72.3240634 121.6916259  15.2095869
  71.6744145 122.5745114  14.1653889  74.0134764 121.4379077  11.7258769
  73.6784596 121.3979847  12.6216419  73.5138709 120.7723793  11.2529179
  67.9879008 116.8446707  17.2511350  67.8498806 116.1126946  17.8522889
  68.8983931 116.7555607  16.9695538  70.6161308 116.5566666  16.7395030
  71.3260927 115.9159858  16.6981648  70.5730617 116.8079561  17.6621210
  78.6048087 123.4934020  19.6601609  78.5460633 122.8093240  18.9932192
  79.0067605 124.2353010  19.2082235  69.3290242 113.5431884  18.5590669
  68.7927599 113.0922623  19.2112265  68.7406951 113.6777793  17.8161133
  67.6238786 130.3095933  12.4535328  67.8635384 130.9414458  13.1314346
  66.7807982 129.9583973  12.7400687  68.7392501 113.0020536   1.1217133
  67.8621968 112.8809336   0.7579379  69.2150254 112.2106614   0.8696021
  78.6065494 121.4573604  17.8915589  77.7192273 121.1199525  18.0141987
  79.1764045 120.7256635  18.1284354  60.2594641 117.7897695  11.2158640
  60.9465681 117.4759425  10.6279655  60.1042770 118.6939060  10.9425891
  65.0629364 112.6787892  15.6443664  64.9787552 112.0713561  14.9094074
  64.2412070 113.1696910  15.6453160  72.1366648 126.1175056  14.8576832
  72.0636819 126.9230027  15.3696136  71.6944041 126.3167022  14.0324853
  71.9256427 125.3546826   8.3679653  71.1423949 125.8968506   8.4617878
  72.6249173 125.8720806   8.7673894  75.2353077 111.1641455  11.0113859
  75.7321777 110.4111418  10.6914929  74.4640059 111.2005772  10.4457068
  83.0882835 116.8681821  12.6532150  83.0772711 117.7506536  12.2826083
  82.2200214 116.5153372  12.4586687  74.5965331 126.0161890  17.0134990
  75.3093303 126.6509355  16.9410892  74.1055360 126.1125756  16.1974992
  76.3182858 119.9213143   8.5852282  75.3839137 120.0414605   8.4156986
  76.4959527 119.0185609   8.3212292  71.8188046 113.3058838  10.7385543
  71.4485834 112.7529879  11.4266449  72.3147139 112.7016972  10.1860543
  79.7055410 115.7630462   9.1202316  80.1715862 116.5958453   9.0462619
  80.1562910 115.2975443   9.8247575  69.6477245 123.7656333  17.8340561
  70.3486704 124.3992816  17.9869955  69.1772360 124.1071065  17.0736200
  77.6772072 108.1311049  13.1593218  76.7635152 108.3615276  13.3275424
  78.1065174 108.2149493  14.0107250  77.4478531 116.3200941  15.6593112
  76.7949981 116.5676848  15.0045564  77.8258911 115.5065079  15.3255589
  74.4085705 126.3560634   9.7621282  74.5908099 125.5382290  10.2249034
  75.2318691 126.5728326   9.3246172  73.4966104 117.0620752  22.1459149
  72.8206741 116.9614881  22.8161524  74.3193738 116.9059966  22.6095146
  65.2444963 123.2992688  14.7671664  65.8298400 122.5536376  14.8999568
  65.0469801 123.6096645  15.6508328  68.0983618 126.3343936   9.7834106
  67.4293993 126.8190063   9.2998146  67.9596488 126.5813156  10.6977485
  59.8362618 115.8698289  13.4876107  59.8746717 115.3361879  14.2813225
  59.3302910 115.3433494  12.8687084  72.2388887 128.3687679  16.3816765
  72.7907195 128.5319301  17.1465850  72.5795080 128.9592117  15.7096789
  67.2153380 110.7162829  16.9838649  67.2794706 111.5777660  16.5716047
  67.1520500 110.1036831  16.2511008  66.6905652 112.7885962  20.6311684
  67.3177691 112.4063039  21.2449208  65.8333571 112.5700164  20.9967376
  77.0899761 123.1948937  22.2365419  77.6339665 123.8078895  21.7420374
  76.5086606 123.7528515  22.7532432  63.4671195 114.5962391   6.5630038
  63.7624636 113.6873069   6.5097092  62.5659231 114.5750130   6.2411041
  75.3757274 126.3169655  13.3680447  75.2508413 125.5159395  12.8591392
  76.0336365 126.8115848  12.8794417  66.9965442 112.6718387  12.5457587
  66.2752028 113.2854355  12.4065060  67.7858698 113.2076152  12.4674233
  77.4392182 124.1178675  14.9959997  76.4922518 123.9984026  14.9238324
  77.7874955 123.2301173  15.0786258  69.7991756 110.0072814  18.8198239
  70.3226158 110.2535110  19.5824548  69.5804089 110.8392849  18.4001376
  65.1959037 112.2776488   6.6869364  64.8671743 111.3973867   6.5044470
  65.5498407 112.2224157   7.5745753  74.4438616 123.9131391  11.1964349
  74.2963578 122.9848099  11.3771919  75.2692109 123.9351482  10.7121424
  68.3100860 112.5649458   7.0544841  68.6496932 113.0935379   6.3323450
  68.7572980 112.9029864   7.8303408  78.0472737 124.7359950  12.2829222
  78.9719285 124.5302811  12.1453673  77.8788041 124.4876351  13.1918563
  71.0044301 110.9486509  16.5047909  70.6641121 110.1494322  16.9068589
  70.2983307 111.2488220  15.9324743  71.6560773 108.0335821  14.9575232
  72.4786842 107.5596300  14.8354123  71.8998836 108.8126305  15.4573919
  70.2969007 111.0624080   5.2538134  71.0177370 111.4405333   4.7501851
  69.6734311 111.7812957   5.3573112  74.4400130 111.7669229   6.1896466
  74.6563744 112.6493867   5.8885295  73.9594197 111.3755442   5.4602108
  69.1799351 114.7254942  12.7667211  69.0343932 115.0395245  13.6591492
  68.7024555 115.3439842  12.2138110  71.0395734 111.7157490  12.8148101
  71.0257303 110.8198583  12.4780398  71.7568162 111.7228154  13.4486387
  72.8921865 112.1494830  14.8601228  72.6339643 113.0711901  14.8585558
  72.3606905 111.7525265  15.5501692  63.6545013 117.2660286  15.7054872
  63.1098482 118.0420094  15.8375146  64.5324363 117.6131091  15.5473994
  70.4432630 110.5971870   8.0835671  70.5648541 109.6688516   8.2826558
  70.1534673 110.6110556   7.1713986  73.3123821 108.2826781  11.2202390
  73.3345517 108.3466114  10.2654370  73.7291880 107.4431289  11.4142897
  83.6907445 118.0182040   9.2581613  84.1338591 117.2689365   8.8600736
  82.8133955 118.0092177   8.8755345  64.4411035 116.3930183  18.5985029
  63.6992771 116.5412818  19.1849659  64.1203780 116.6538448  17.7351778
  72.3854698 125.9346161  18.3965419  72.6941824 125.6895308  19.2688119
  73.1830180 126.1392799  17.9084289  72.4075310 128.0884071  10.6270796
  71.9680300 127.5960449  11.3203652  73.1583427 127.5457038  10.3862871
  64.8867649 124.2795611  10.6295424  65.7125669 123.9799383  10.2494067
  64.5361701 123.5103234  11.0785212  69.8549182 123.6322080  12.6993097
  69.2329191 122.9692785  12.3995325  70.5254049 123.6583212  12.0166745
  63.0876254 122.1981938  11.5884357  62.2508162 121.7704112  11.4068358
  63.0599900 122.3914381  12.5255148  69.9273710 112.1103868  22.2925603
  69.9761865 112.9865990  21.9103373  70.4696224 111.5681261  21.7197246
  80.4128555 122.6544991  21.5726740  79.6224099 122.6369130  21.0331240
  80.1761910 123.1933285  22.3275777  80.5326430 119.5037457  18.8859469
  80.5824435 119.3387465  19.8274992  80.4240354 118.6364716  18.4957350
  69.4162689 122.1826003   6.1751558  69.5650809 122.8661467   5.5218231
  70.2229133 122.1631093   6.6901014  77.8230193 115.4868385  20.2018776
  78.7240056 115.3474850  19.9102773  77.8978167 115.6522840  21.1416953
  72.1572998 112.8635240  19.0471962  71.2876308 113.1568806  18.7754550
  72.3932478 113.4475685  19.7679226  82.0344627 121.9234399  19.1301490
  81.7429436 122.2864379  19.9664951  81.4216759 121.2101407  18.9514822
  83.2340310 119.4887279  11.6504061  84.0687201 119.9277083  11.8141621
  83.3699438 119.0125932  10.8312306  80.2831815 117.0467013  17.5981548
  80.7585937 117.2394660  16.7900400  79.3597381 117.1026199  17.3524932
  67.1715322 118.2091181   7.1812627  66.9261364 117.3053511   7.3792837
  67.3411237 118.2108331   6.2392105  74.8612032 109.0814857  16.5637382
  75.3793976 109.8175884  16.2383871  74.5067165 109.3878850  17.3984141
  66.4410970 113.9419538   4.6798788  65.7480215 114.0163893   4.0238824
  66.1962722 113.1779882   5.2020305  75.1124626 105.5015140  12.0838279
  75.3926380 104.8338329  12.7098705  75.8975233 105.6944235  11.5712943
  78.9833484 113.9232774  15.8309854  79.9350907 114.0230871  15.8522078
  78.8136935 113.1311042  16.3407938  77.0047864 111.0088357  16.0169255
  76.4097796 111.2893369  15.3215744  76.7197561 111.4982258  16.7885996
  81.4621562 117.1438893  14.9452154  81.4297882 116.2054894  15.1311837
  82.0722186 117.2222930  14.2117979  81.6116051 113.9349937  14.9910437
  81.0955099 113.1508393  14.8040366  82.4955999 113.6068653  15.1556956
  79.2726778 107.6790952  10.9506250  79.0751599 107.3706040  11.8349581
  79.8826483 108.4052591  11.0804179  87.2798112 118.2054900  14.0858190
  88.0101501 117.9440188  14.6465894  86.6705058 117.4683622  14.1260258
  85.3613409 116.3462763  14.6832642  84.6346573 116.2118728  14.0749133
  84.9460696 116.6539591  15.4889360  73.1843586 120.0652692  22.4480015
  74.1046595 120.2431291  22.6420061  73.1493169 119.1208738  22.2959714
  71.4847810 113.9384923   0.9234243  70.5779266 113.6418035   0.9996957
  71.7623791 113.6414741   0.0568529  62.4025751 115.2591286  11.3733289
  62.0828535 114.4056594  11.0807663  61.8559179 115.4739864  12.1291257
  66.1805658 117.9753727  15.0902796  66.3991668 118.9070835  15.1090830
  66.5931432 117.6161701  15.8757600  73.1009876 108.4821812   7.0778484
  72.2910604 108.1368897   7.4533730  73.7894293 108.1729356   7.6666096
  75.0300424 107.5599859   8.7002781  75.5831463 107.9795313   9.3592804
  75.2670511 106.6335607   8.7425737  71.0533524 113.5486933  24.4805545
  70.9530250 114.4981290  24.4117636  70.8355066 113.2205172  23.6081615
  70.2546595 110.7971858   1.0646222  71.1165759 111.1226756   1.3242039
  70.4396939 110.0103354   0.5519288  62.2714011 118.8794197  13.3426411
  61.5777482 118.4648150  12.8296365  63.0187002 118.9214734  12.7459830
  78.4079231 109.6700384   8.2081445  77.8277900 110.3285188   7.8259498
  78.1415164 108.8477729   7.7968863  76.8582798 109.0705442  10.4102765
  77.3582576 109.1821976   9.6017084  77.5018406 108.7666495  11.0503574
  70.9164794 116.9784072  23.2970606  70.4331875 117.7784432  23.5034495
  71.0025733 116.9892016  22.3438050  64.1850753 118.8112451  11.2192426
  64.1621441 118.9100139  10.2674309  64.4951390 119.6577602  11.5409592
  66.8438131 120.8688606  15.3339040  67.7981385 120.8372549  15.2668972
  66.6450655 120.4079230  16.1489266  67.4337513 119.4389722  17.9009838
  68.2530402 119.9333801  17.9244675  67.7074321 118.5221690  17.8727405
  77.1904109 111.8300475   7.2637793  76.3029964 112.1150125   7.0457988
  77.6058098 111.6694238   6.4165070  80.5418646 111.8546996  10.9792133
  81.3179036 112.3443448  11.2516749  79.8166780 112.2805050  11.4364002
  82.9791204 112.5674615  12.0366073  83.5735695 112.3270351  11.3259381
  83.0517788 111.8481745  12.6639610  65.1988360 126.4108226  12.3509238
  65.0642828 125.6508627  11.7847236  64.7820422 127.1349126  11.8838027
  77.1645133 117.3455011   7.4788084  77.1080335 117.8023562   6.6395716
  77.7173476 116.5845695   7.3010926  80.9749939 113.1344742   8.3038203
  80.7186873 112.7341378   9.1346411  80.3502807 113.8488536   8.1788342
  85.2862277 115.8740816  10.8109494  84.7261835 115.9434005  11.5841056
  84.6805780 115.6981800  10.0908991  68.3557486 127.3077543  12.5627681
  68.2389870 128.2522975  12.4606371  67.5349932 127.0051104  12.9513480
  62.6872427 113.7727856  18.6002035  63.3331291 113.2626810  19.0889260
  62.4789579 114.5096538  19.1745460  75.2125820 120.8408704  24.0994175
  76.0816979 121.0149356  23.7380810  74.7332571 121.6603120  23.9769905
  71.2076038 108.0367901   4.3525931  71.1954708 108.9809741   4.5094202
  72.0999460 107.8538046   4.0585392  69.3812000 127.9605805  15.7783609
  70.2839247 127.9929415  16.0950104  69.1549370 127.0306256  15.7929945
  71.1365602 126.7136791  12.4393688  70.1861233 126.7138653  12.3258060
  71.4398088 125.9669526  11.9229722  75.0228157 104.6310677   8.6071868
  74.2560553 104.0769164   8.7528550  75.4338862 104.7032546   9.4686020
  67.0269918 110.9195473  22.6977049  67.8901380 110.5632278  22.9080374
  66.4535329 110.5809368  23.3852453  84.1627785 133.6559609  19.3987180
  84.1516425 133.2612408  18.5267684  84.3248424 132.9225682  19.9920952
  80.8835046 136.4396721  18.3466364  80.5924912 137.3442352  18.2313031
  81.5192030 136.4813249  19.0610434  89.3493411 123.9245591  15.9420245
  89.0176736 124.7941002  15.7181460  88.7539025 123.6081875  16.6214276
  83.3162940 130.0630323  20.9648493  82.5396274 130.6224243  20.9551357
  83.9553503 130.5487106  21.4863363  81.5709313 132.8715776  20.5266460
  82.3123997 133.4100820  20.2501283  80.8646298 133.4982065  20.6838011
  83.3995722 129.9517523  16.4972178  84.2456918 130.3756937  16.6406827
  83.3394360 129.2951147  17.1910741  86.5495168 127.6121891  18.1553352
  86.3056100 128.3663952  17.6187627  86.8255098 127.9907239  18.9900599
  80.3070676 130.0255424  21.3281770  79.6769337 130.7071705  21.5617166
  80.2006764 129.9138506  20.3834908  75.6015649 129.6927220  12.2547694
  74.8114703 129.9484749  11.7787804  76.0926896 130.5075558  12.3599734
  73.8853352 129.9457711  14.6862685  74.1361390 130.8304720  14.9520261
  74.4212900 129.7662312  13.9137776  79.5851419 124.3276190  23.6907021
  79.1918365 123.7742388  24.3654665  80.4017560 124.6386768  24.0813538
  82.5019380 125.7434069  21.2827277  83.2429094 126.3441222  21.2031740
  82.7337303 125.0011707  20.7245320  77.6460718 130.9290436  19.5605507
  77.5314233 130.0275693  19.8612606  76.7905236 131.1754133  19.2090323
  84.7252556 138.8708177  21.1593008  84.2816410 138.0844555  20.8413912
  85.3869770 139.0587327  20.4936898  83.2806848 136.6655106  20.0297917
  83.8135185 135.9043394  19.7997225  82.7520929 136.3728758  20.7722072
  86.4476543 121.7715172  15.5591559  86.1040813 122.6616814  15.4830670
  86.8155506 121.5816830  14.6961144  85.5273084 124.1419827  13.5240792
  85.0237879 124.1049962  12.7108597  85.8203690 125.0512570  13.5837449
  81.7715969 124.2258557  12.5306974  82.6368966 124.0301366  12.1712863
  81.8393478 123.9968909  13.4576331  86.0551860 130.4081408  17.7590760
  86.4101248 130.6352882  18.6185226  86.7023991 130.7399785  17.1368016
  79.9491723 127.5157939  14.5437102  80.5891103 127.3746699  13.8460065
  79.1169254 127.2292453  14.1675703  78.4245265 128.8996022  16.4908913
  79.0968318 128.6913384  15.8421562  77.5975052 128.7018108  16.0514145
  84.3270837 125.5257963  18.5074574  83.6798752 126.2247912  18.4139050
  85.0971852 125.9594106  18.8750822  87.7349635 135.7906815  21.5825127
  87.5835141 135.5617366  20.6655211  87.7254314 136.7477416  21.5956472
  78.8272762 132.1738625  17.2511350  78.6892560 131.4418863  17.8522889
  79.7377686 132.0847525  16.9695538  81.4555063 131.8858584  16.7395030
  82.1654681 131.2451776  16.6981648  81.4124371 132.1371479  17.6621210
  80.1683997 128.8723802  18.5590669  79.6321354 128.4214540  19.2112265
  79.5800705 129.0069711  17.8161133  75.9023118 128.0079810  15.6443664
  75.8181307 127.4005479  14.9094074  75.0805825 128.4988828  15.6453160
  88.5165827 123.4602967  13.1593218  87.6028907 123.6907193  13.3275424
  88.9458928 123.5441411  14.0107250  84.3359858 132.3912670  22.1459149
  83.6600495 132.2906799  22.8161524  85.1587492 132.2351883  22.6095146
  70.6756372 131.1990206  13.4876107  70.7140472 130.6653797  14.2813225
  70.1696665 130.6725412  12.8687084  78.0547134 126.0454747  16.9838649
  78.1188461 126.9069578  16.5716047  77.9914255 125.4328748  16.2511008
  77.5299407 128.1177879  20.6311684  78.1571446 127.7354957  21.2449208
  76.6727326 127.8992081  20.9967376  87.9293515 138.5240855  22.2365419
  88.4733419 139.1370813  21.7420374  87.3480360 139.0820433  22.7532432
  77.8359197 128.0010305  12.5457587  77.1145782 128.6146273  12.4065060
  78.6252452 128.5368070  12.4674233  80.6385510 125.3364732  18.8198239
  81.1619912 125.5827028  19.5824548  80.4197843 126.1684766  18.4001376
  81.8438055 126.2778427  16.5047909  81.5034876 125.4786240  16.9068589
  81.1377062 126.5780137  15.9324743  82.4954527 123.3627739  14.9575232
  83.3180596 122.8888217  14.8354123  82.7392591 124.1418223  15.4573919
  81.8789489 127.0449408  12.8148101  81.8651057 126.1490501  12.4780398
  82.5961917 127.0520071  13.4486387  83.7315619 127.4786748  14.8601228
  83.4733397 128.4003819  14.8585558  83.2000660 127.0817182  15.5501692
  74.4938768 132.5952204  15.7054872  73.9492236 133.3712012  15.8375146
  75.3718118 132.9423009  15.5473994  75.2804790 131.7222100  18.5985029
  74.5386526 131.8704736  19.1849659  74.9597534 131.9830366  17.7351778
  80.7667464 127.4395785  22.2925603  80.8155620 128.3157908  21.9103373
  81.3089978 126.8973178  21.7197246  88.6623947 130.8160303  20.2018776
  89.5633810 130.6766768  19.9102773  88.7371922 130.9814758  21.1416953
  82.9966753 128.1927158  19.0471962  82.1270062 128.4860724  18.7754550
  83.2326233 128.7767603  19.7679226  85.7005786 124.4106775  16.5637382
  86.2187730 125.1467802  16.2383871  85.3460919 124.7170768  17.3984141
  85.9518381 120.8307057  12.0838279  86.2320134 120.1630246  12.7098705
  86.7368988 121.0236153  11.5712943  87.8441618 126.3380274  16.0169255
  87.2491551 126.6185287  15.3215744  87.5591315 126.8274175  16.7885996
  84.0237340 135.3944610  22.4480015  84.9440350 135.5723209  22.6420061
  83.9886923 134.4500655  22.2959714  73.2419505 130.5883204  11.3733289
  72.9222289 129.7348512  11.0807663  72.6952933 130.8031782  12.1291257
  77.0199413 133.3045645  15.0902796  77.2385422 134.2362752  15.1090830
  77.4325187 132.9453619  15.8757600  81.8927278 128.8778850  24.4805545
  81.7924005 129.8273207  24.4117636  81.6748820 128.5497089  23.6081615
  73.1107765 134.2086115  13.3426411  72.4171237 133.7940068  12.8296365
  73.8580756 134.2506652  12.7459830  81.7558548 132.3075989  23.2970606
  81.2725630 133.1076349  23.5034495  81.8419487 132.3183934  22.3438050
  78.2731268 134.7681640  17.9009838  79.0924157 135.2625719  17.9244675
  78.5468075 133.8513608  17.8727405  73.5266182 129.1019774  18.6002035
  74.1725046 128.5918728  19.0889260  73.3183333 129.8388456  19.1745460
  86.0519574 136.1700621  24.0994175  86.9210734 136.3441274  23.7380810
  85.5726326 136.9895038  23.9769905  77.8663673 126.2487391  22.6977049
  78.7295134 125.8924196  22.9080374  77.2929084 125.9101286  23.3852453
  90.4245174 139.6568108  23.6907021  90.0312119 139.1034306  24.3654665
  91.2411314 139.9678686  24.0813538  51.6446522  64.6745979   6.1232487
  51.6335163  64.2798777   5.2512991  51.8067162  63.9412052   6.7166258
  48.3653784  67.4583091   5.0711671  48.0743650  68.3628722   4.9558337
  49.0010768  67.4999618   5.7855741  53.3243669  67.1444506   2.0661465
  53.0244392  68.0469545   1.9577272  52.9794728  66.8776690   2.9182618
  50.7981678  61.0816692   7.6893799  50.0215012  61.6410612   7.6796664
  51.4372241  61.5673475   8.2108669  49.0528051  63.8902145   7.2511766
  49.7942735  64.4287189   6.9746590  48.3465036  64.5168434   7.4083318
  54.5283390  66.0331286   5.8483928  54.9366746  65.5913696   5.1038560
  53.8060652  65.4583913   6.1018121  54.0313906  58.6308261   4.8798658
  53.7874837  59.3850322   4.3432934  54.3073836  59.0093609   5.7145905
  55.9852368  65.1746873   3.5575924  56.1969264  65.8178633   2.8810305
  55.9382117  64.3409190   3.0897854  47.7889414  61.0441794   8.0527076
  47.1588075  61.7258074   8.2862473  47.6825502  60.9324875   7.1080215
  57.0998196  68.0518829   1.7298281  57.9215640  67.6499016   1.4480963
  57.0960599  67.9487063   2.6814397  50.8654800  67.6002872   3.8858992
  50.9299232  68.0623279   4.7217164  50.1565724  66.9700237   4.0141302
  65.1904189  64.3957577  -1.9216747  64.4367898  63.8264975  -2.0772743
  65.3251731  64.3620242  -0.9746113  47.0670157  55.3462559  10.4152327
  46.6737103  54.7928758  11.0899972  47.8836297  55.6573138  10.8058845
  52.2071294  69.8894546   7.8838314  51.7635148  69.1030925   7.5659219
  52.8688507  70.0773697   7.2182205  46.9658415  71.4190348   2.4098993
  47.5165840  71.2907411   1.6375987  46.1269891  71.7185237   2.0593886
  54.3052532  70.1697346   5.9119715  54.2871007  70.9906227   5.4199985
  55.2272452  70.0451421   6.1369857  50.7625586  67.6841476   6.7543224
  51.2953923  66.9229764   6.5242532  50.2339667  67.3915127   7.4967378
  53.5370598  61.4267778   4.4836067  53.8919986  61.6539251   5.3430533
  54.1842729  61.7586155   3.8613322  59.2937714  66.6162741   0.1996668
  59.7274221  66.5238030   1.0479722  60.0069295  66.5920241  -0.4383316
  53.0265609  70.2164835   1.7329768  53.0802632  70.7855771   2.5007484
  52.1580391  70.3866720   1.3683805  60.1553264  66.6586442   2.7329553
  60.3489154  67.5632252   2.9788828  60.0553882  66.1993861   3.5668138
  55.2168373  66.8093184   8.3070434  55.0653879  66.5803736   7.3900517
  55.2073052  67.7663786   8.3201779  51.9853709  64.3825097   3.2916700
  52.9145769  64.5336257   3.1185667  51.5644739  64.4709118   2.4365347
  50.7842041  68.4075761   1.0615238  50.6453127  68.0394546   1.9341176
  49.9956637  68.9223401   0.8899195  56.9260579  69.8412307   6.3846915
  56.8673126  69.1571527   5.7177499  57.3280098  70.5831297   5.9327541
  45.9451278  76.6574221  -0.8219366  46.1847876  77.2892745  -0.1440347
  45.1020475  76.3062261  -0.5354006  56.9277987  67.8051891   4.6160895
  56.0404765  67.4677813   4.7387294  57.4976538  67.0734922   4.8529661
  50.4579140  72.4653343   1.5822138  50.3849312  73.2708315   2.0941443
  50.0156533  72.6645309   0.7570160  52.9177824  72.3640177   3.7380297
  53.6305796  72.9987642   3.6656199  52.4267852  72.4604043   2.9220299
  47.9689737  70.1134621   4.5585868  48.6699197  70.7471104   4.7115262
  47.4984852  70.4549352   3.7981507  55.7691023  62.6679228   2.3838418
  55.1162473  62.9155136   1.7290871  56.1471403  61.8543366   2.0500896
  51.8178596  63.4099039   8.8704455  51.1419233  63.3093168   9.5406831
  52.6406230  63.2538253   9.3340453  50.5601379  74.7165967   3.1062071
  51.1119687  74.8797588   3.8711157  50.9007572  75.3070404   2.4342096
  55.4112253  69.5427224   8.9610726  55.9552157  70.1557182   8.4665681
  54.8299098  70.1006802   9.4777739  53.6969766  72.6647942   0.0925753
  53.5720906  71.8637682  -0.4163301  54.3548857  73.1594135  -0.3960277
  55.7604675  70.4656962   1.7205304  54.8135010  70.3462313   1.6483630
  56.1087448  69.5779460   1.8031565  56.3685230  71.0838237  -0.9925471
  57.2931777  70.8781098  -1.1301020  56.2000533  70.8354638  -0.0836130
  50.7067190  72.2824448   5.1210726  51.0154317  72.0373595   5.9933425
  51.5042672  72.4871087   4.6329596  50.7287802  74.4362358  -2.6483898
  50.2892793  73.9438736  -1.9551041  51.4795919  73.8935325  -2.8891823
  48.2486202  58.4582155   9.0170910  48.2974357  59.3344278   8.6348680
  48.7908716  57.9159548   8.4442553  58.7341048  69.0023278   8.2972047
  57.9436591  68.9847417   7.7576546  58.4974402  69.5411572   9.0521084
  58.8538923  65.8515745   5.6104776  58.9036928  65.6865752   6.5520298
  58.7452846  64.9843004   5.2202656  56.1442685  61.8346673   6.9264082
  57.0452548  61.6953137   6.6348080  56.2190660  62.0001127   7.8662260
  60.3557120  68.2712686   5.8546797  60.0641928  68.6342667   6.6910258
  59.7429251  67.5579694   5.6760129  61.5552802  65.8365566  -1.6250633
  62.3899693  66.2755370  -1.4613072  61.6911931  65.3604219  -2.4442387
  58.6044308  63.3945301   4.3226855  59.0798429  63.5872947   3.5145706
  57.6809873  63.4504486   4.0770239  57.3045977  60.2711061   2.5555161
  58.2563400  60.3709158   2.5767385  57.1349427  59.4789329   3.0653245
  59.7834055  63.4917180   1.6697460  59.7510375  62.5533181   1.8557144
  60.3934678  63.5701217   0.9363285  65.6010604  64.5533187   0.8103497
  66.3313993  64.2918475   1.3711200  64.9917550  63.8161909   0.8505565
  63.6825902  62.6941050   1.4077948  62.9559065  62.5597015   0.7994440
  63.2673188  63.0017878   2.2134666  51.5056078  66.4130980   9.1725321
  52.4259087  66.5909579   9.3665368  51.4705661  65.4687025   9.0205021
  49.3746016  59.8965220  11.2050851  49.2742743  60.8459577  11.1362943
  49.1567558  59.5683459  10.3326921  49.2377286  63.3262359  10.0215913
  48.7544368  64.1262719  10.2279802  49.3238225  63.3370304   9.0683357
  45.7550005  65.7868010   4.6255145  46.5742894  66.2812088   4.6489982
  46.0286813  64.8699978   4.5972712  46.6769978  73.6555830  -0.7127013
  46.5602362  74.6001263  -0.8148322  45.8562424  73.3529392  -0.3241213
  53.5338312  67.1886991  10.8239482  54.4029472  67.3627643  10.4626117
  53.0545063  68.0081408  10.7015211  47.7024492  74.3084092   2.5028916
  48.6051739  74.3407702   2.8195411  47.4761862  73.3784543   2.5175252
  49.4578094  73.0615078  -0.8361006  48.5073725  73.0616940  -0.9496633
  49.7610580  72.3147813  -1.3524971  45.3482411  57.2673760   9.4222356
  46.2113872  56.9110565   9.6325680  44.7747821  56.9287655  10.1097760
  65.1930788  78.8975617   0.2284757  65.8309198  78.7782364  -0.4751903
  65.0751631  79.8456461   0.2872709  62.0020494  78.8503045   0.1646282
  61.6639005  78.7344110  -0.7233184  62.8710262  78.4494210   0.1447288
  57.8607310  80.7038521  -3.8456828  57.2972175  80.6128458  -4.6140540
  57.7459705  79.8838426  -3.3654335  62.4840277  80.0037897   6.1232487
  62.4728918  79.6090695   5.2512991  62.6460916  79.2703969   6.7166258
  55.4071742  82.1989713  -1.0072607  56.1993033  81.8580538  -1.4226308
  55.6468392  82.3084688  -0.0870454  63.4406868  84.3709489  -8.5342363
  62.7894848  84.9563569  -8.9208349  64.2351231  84.9015684  -8.4747325
  57.3662495  81.4598626  -8.1355228  58.1393371  80.9127613  -8.2742352
  57.7187894  82.3242876  -7.9240767  59.2047538  82.7875008   5.0711671
  58.9137404  83.6920639   4.9558337  59.8404522  82.8291536   5.7855741
  60.1303745  80.1651857   1.6613031  60.7267317  79.9407879   0.9469994
  60.1878716  79.4236602   2.2638479  64.7472056  76.6227071  -2.6962035
  65.5335145  76.2046494  -3.0471618  65.0110760  77.5273163  -2.5280387
  64.9182133  82.0599921  -7.9973378  64.2827966  82.1334548  -7.2852474
  64.5879540  82.6493520  -8.6754299  70.1480483  76.5602304  -1.7929057
  70.8805655  75.9901521  -1.5591227  69.3919839  76.1723904  -1.3522551
  59.4225062  79.5219398  -8.3012403  59.3061320  78.8464302  -7.6331319
  59.5327322  79.0351772  -9.1180250  61.7656603  78.9829545  -4.5965714
  61.4014810  78.4560166  -3.8852793  62.6223719  78.5928014  -4.7699229
  67.6705904  70.2723878   2.6665552  67.3389228  71.1419289   2.4426767
  67.0751517  69.9560162   3.3459582  64.1637423  82.4736424   2.0661465
  63.8638146  83.3761463   1.9577272  63.8188483  82.2068607   2.9182618
  57.6149905  78.9250221  -1.9001831  56.6900401  78.7926435  -1.6924139
  57.8634318  79.7044440  -1.4031888  67.5634567  74.9918964  -0.2541098
  66.6551444  74.9234373  -0.5482337  67.5122163  75.4690909   0.5740728
  54.9758716  78.5683494  -1.0658042  55.1051097  78.8217973  -0.1518630
  54.2956167  79.1611202  -1.3853387  59.1458203  89.2380744  -4.9667568
  59.0682233  90.1888569  -4.8879087  58.5419847  88.8926617  -4.3092641
  61.6375433  76.4108610   7.6893799  60.8608767  76.9702530   7.6796664
  62.2765996  76.8965393   8.2108669  69.4296213  73.1935403   1.5236776
  68.7870594  73.4867936   0.8776571  68.9251142  73.0788323   2.3289973
  67.0836377  76.9398576  -7.7877365  67.9954233  77.1725963  -7.9629667
  66.5746024  77.5235620  -8.3502286  59.8921805  79.2194063   7.2511766
  60.6336489  79.7579107   6.9746590  59.1858790  79.8460352   7.4083318
  65.3677145  81.3623204   5.8483928  65.7760501  80.9205614   5.1038560
  64.6454406  80.7875831   6.1018121  61.7208215  76.2995810   3.2217485
  62.5669410  76.7235224   3.3652134  61.6606852  75.6429435   3.9156048
  65.6905959  81.9224394  -0.3963783  65.0614822  82.0870108  -1.0987715
  65.3031621  82.3366004   0.3747181  69.5695191  82.8578832  -3.0419420
  68.8846229  83.2377733  -3.5922386  69.6539041  83.4674159  -2.3087472
  64.8707660  73.9600179   4.8798658  64.6268592  74.7142239   4.3432934
  65.1467591  74.3385526   5.7145905  66.8246123  80.5038791   3.5575924
  67.0363018  81.1470551   2.8810305  66.7775871  79.6701108   3.0897854
  64.4272352  73.1156612   0.4612496  63.5656831  73.4137865   0.7529234
  64.4534786  73.3327011  -0.4706471  61.2433921  81.6598802  -3.1313698
  61.7072267  81.9386505  -3.9209076  60.9790719  80.7582247  -3.3140608
  58.1358002  81.2070284  -0.1933935  58.7059359  81.6357552  -0.8316450
  58.7266114  80.9252869   0.5050251  60.1802807  77.7821955  -6.3224133
  60.8826851  78.2342998  -5.8550207  59.8483436  77.1405774  -5.6944240
  58.6283169  76.3733711   8.0527076  57.9981829  77.0549992   8.2862473
  58.5219257  76.2616793   7.1080215  53.9228141  76.0405507  -1.0207000
  53.1327195  76.2963036  -1.4966889  54.4139389  76.8553845  -0.9154959
  67.9391951  83.3810747   1.7298281  68.7609394  82.9790934   1.4480963
  67.9354354  83.2778981   2.6814397  55.8742887  76.4050087  -4.0623523
  55.0774050  76.5168781  -3.5440027  55.6468479  76.7436739  -4.9282632
  61.7048554  82.9294790   3.8858992  61.7692987  83.3915197   4.7217164
  60.9959478  82.2992155   4.0141302  52.2065844  76.2935998   1.4107991
  52.4573883  77.1783008   1.6765567  52.7425393  76.1140599   0.6383083
  76.0297944  79.7249495  -1.9216747  75.2761652  79.1556893  -2.0772743
  76.1645485  79.6912160  -0.9746113  61.4196572  84.5962897  -6.2462028
  61.2842247  85.4414433  -5.8177180  61.9606384  84.7982175  -7.0096094
  57.9063911  70.6754477  10.4152327  57.5130857  70.1220676  11.0899972
  58.7230052  70.9865056  10.8058845  54.8725969  82.1138335  -5.6734103
  55.3850490  82.9081586  -5.5228538  55.5248682  81.4164626  -5.7400501
  56.6820854  85.2304092  -3.5911350  56.8587482  86.1522056  -3.7790366
  57.4777687  84.9162511  -3.1616970  60.8231872  72.0912356   8.0072584
  61.5641586  72.6919509   7.9277046  61.0549795  71.3489994   7.4490626
  55.9673210  77.2768724   6.2850814  55.8526726  76.3753981   6.5857912
  55.1117728  77.5232420   5.9335630  63.0465048  85.2186464   7.8838314
  62.6028902  84.4322842   7.5659219  63.7082262  85.4065614   7.2182205
  57.8052169  86.7482265   2.4098993  58.3559595  86.6199329   1.6375987
  56.9663645  87.0477154   2.0593886  65.1446286  85.4989264   5.9119715
  65.1264762  86.3198145   5.4199985  66.0666206  85.3743339   6.1369857
  61.6019340  83.0133393   6.7543224  62.1347677  82.2521681   6.5242532
  61.0733422  82.7207045   7.4967378  64.7689035  68.1193459   2.2836866
  64.4253305  69.0095101   2.2075976  65.1367998  67.9295117   1.4206451
  52.8374886  80.4426990  -4.8974532  53.6750108  80.8523998  -5.1140825
  53.0153154  79.5026432  -4.9274338  64.7339318  78.1102070  -9.2090699
  64.2185942  78.8806675  -8.9702312  64.4616627  77.4367206  -8.5857638
  62.3186429  72.9551771  -4.1505461  61.4628026  72.5658621  -4.3299822
  62.7313381  73.0343732  -5.0105675  63.8485576  70.4898114   0.2486099
  63.3450371  70.4528250  -0.5646096  64.1416183  71.3990857   0.3082755
  60.0928462  70.5736844  -0.7447719  60.9581458  70.3779653  -1.1041830
  60.1605971  70.3447196   0.1821637  69.7073592  80.8634425  -7.2737526
  68.9303035  80.5245584  -7.7182364  70.3865073  80.8687048  -7.9482561
  64.5225621  75.9829162  -7.3830918  64.2175757  76.2975312  -6.5320775
  65.4756063  76.0610582  -7.3403585  62.9672053  82.1419386  -5.7337964
  62.4393415  81.4072145  -6.0464727  62.4659556  82.9194062  -5.9797996
  67.9464899  80.3368406  -0.6170918  67.2888574  81.0267668  -0.5290789
  68.7505298  80.7264838  -0.2736931  57.6990781  72.8039052  -3.3731353
  58.2734533  72.5814233  -4.1058160  58.2861763  72.8727746  -2.6202751
  66.7570358  78.6912779  -2.5666976  67.2702240  79.3242771  -2.0645266
  67.4071582  78.0913974  -2.9323616  64.0192732  88.6697103  -9.8106305
  63.3454431  88.9728800  -9.2021347  64.4058554  89.4726184 -10.1600848
  63.2351189  76.1662234  -0.3208636  62.3173750  76.3877181  -0.4786948
  63.6511332  76.2408545  -1.1796928  64.0186237  77.5653650  -5.1905955
  64.7658056  78.0775047  -5.4998833  64.2877826  77.2437703  -4.3301562
  62.2912887  80.0612191  -8.2079001  61.3824106  79.7771224  -8.1106531
  62.3207971  80.4811269  -9.0675694  67.5232154  83.6718780  -4.4387833
  67.0694481  82.8309690  -4.3822643  66.8926121  84.3080179  -4.1013053
  66.4665074  74.6010766  -3.2087166  65.7287831  74.0888153  -2.8776923
  66.7191847  74.1611148  -4.0203889  65.9665093  85.5095277  -3.5038015
  66.2588068  86.0700334  -4.2225650  66.4763714  85.8023838  -2.7484856
  66.5676701  67.3787018  -2.6145397  66.8735578  66.5184382  -2.9019482
  67.2929306  67.9704639  -2.8146403  52.8601057  77.7817705  -4.2263799
  52.6625457  77.1887066  -4.9512732  52.3047721  77.4769915  -3.5087860
  60.8397781  77.6740811  -2.1069206  60.8946391  76.7214648  -2.1826729
  60.0288983  77.8300251  -1.6227907  61.9888975  81.6020935 -10.8690922
  61.5508405  80.8856793 -11.3285285  62.7299415  81.8297049 -11.4305831
  58.7790141  76.2917871  -4.3478827  57.9658006  76.5912042  -3.9413635
  59.2749135  75.8973560  -3.6304345  60.9298719  86.2875628  -2.4144562
  60.8874897  86.5136474  -3.3436030  61.8461417  86.0539003  -2.2658761
  64.3764352  76.7559696   4.4836067  64.7313740  76.9831169   5.3430533
  65.0236484  77.0878072   3.8613322  70.1062089  79.8778132  -4.8114604
  69.9679988  80.0679728  -5.7393415  69.7498308  80.6397514  -4.3546553
  58.2704216  73.8636227   1.2682408  58.9103595  73.7224986   0.5705371
  57.4381746  73.5770740   0.8921010  70.1331469  81.9454659   0.1996668
  70.5667976  81.8529948   1.0479722  70.8463050  81.9212159  -0.4383316
  59.0464519  83.1638657  -2.6182599  59.8405118  82.6688977  -2.8200024
  58.3356212  82.6356520  -2.9814894  63.8659364  85.5456753   1.7329768
  63.9196386  86.1147689   2.5007484  62.9974145  85.7158638   1.3683805
  55.2732832  73.8336552  -3.9544605  55.5339649  74.7481885  -4.0635445
  56.0950004  73.3660994  -3.8047992  56.7457757  75.2474309   3.2154219
  57.4180811  75.0391671   2.5666868  55.9187544  75.0496395   2.7759452
  70.9947019  81.9878359   2.7329553  71.1882909  82.8924170   2.9788828
  70.8947637  81.5285778   3.5668138  62.6483329  71.8736250   5.2319880
  62.0011244  72.5726199   5.1384357  63.4184345  72.3072394   5.5996129
  66.0562127  82.1385102   8.3070434  65.9047634  81.9095654   7.3900517
  66.0466807  83.0955703   8.3201779  62.8247464  79.7117015   3.2916700
  63.7539524  79.8628174   3.1185667  62.4038494  79.8001035   2.4365347
  61.6235795  83.7367679   1.0615238  61.4846881  83.3686464   1.9341176
  60.8350392  84.2515319   0.8899195  62.2183947  88.8376776  -7.5959226
  62.3935703  88.3664819  -6.7813603  61.5316735  89.4642542  -7.3677965
  63.1741011  83.1149282  -1.5495925  62.8390843  83.0750052  -0.6538275
  62.6744956  82.4493998  -2.0225514  57.1485255  78.5216912   3.9756657
  57.0105052  77.7897151   4.5768196  58.0590178  78.4325812   3.6940844
  66.1100202  80.4605316 -11.2758865  65.4929373  79.7352144 -11.3725812
  65.6416691  81.2214676 -11.6191791  59.7767555  78.2336871   3.4640336
  60.4867174  77.5930063   3.4226955  59.7336863  78.4849766   4.3866517
  67.7654334  85.1704225   6.3846915  67.7066880  84.4863445   5.7177499
  68.1673852  85.9123215   5.9327541  58.4896489  75.2202089   5.2835976
  57.9533846  74.7692828   5.9357572  57.9013198  75.3547998   4.5406440
  56.7845033  91.9866138  -0.8219366  57.0241631  92.6184663  -0.1440347
  55.9414229  91.6354178  -0.5354006  67.7671741  83.1343808   4.6160895
  66.8798520  82.7969730   4.7387294  68.3370292  82.4026840   4.8529661
  49.4200888  79.4667900  -2.0596053  50.1071928  79.1529630  -2.6475038
  49.2649017  80.3709265  -2.3328802  54.2235610  74.3558097   2.3688970
  54.1393799  73.7483766   1.6339380  53.4018317  74.8467115   2.3698467
  61.2972895  87.7945261   1.5822138  61.2243066  88.6000232   2.0941443
  60.8550288  87.9937227   0.7570160  61.0862674  87.0317031  -4.9075040
  60.3030196  87.5738711  -4.8136816  61.7855419  87.5491010  -4.5080799
  64.3959324  72.8411660  -2.2640835  64.8928024  72.0881623  -2.5839764
  63.6246306  72.8775977  -2.8297625  72.2489082  78.5452026  -0.6222543
  72.2378958  79.4276741  -0.9928610  71.3806461  78.1923577  -0.8168006
  63.7571578  87.6932095   3.7380297  64.4699550  88.3279560   3.6656199
  63.2661607  87.7895961   2.9220299  65.4789105  81.5983348  -4.6902411
  64.5445384  81.7184810  -4.8597707  65.6565773  80.6955814  -4.9542401
  60.9794293  74.9829043  -2.5369150  60.6092081  74.4300084  -1.8488245
  61.4753385  74.3787177  -3.0894150  68.8661656  77.4400667  -4.1552377
  69.3322109  78.2728658  -4.2292074  69.3169157  76.9745648  -3.4507119
  58.8083492  85.4426538   4.5585868  59.5092951  86.0763021   4.7115262
  58.3378607  85.7841270   3.7981507  66.9337887  83.7844488  -7.1566225
  67.2097731  83.6701083  -6.2472351  66.0642386  83.3861973  -7.1954052
  66.8378319  69.8081254  -0.1161476  65.9241399  70.0385481   0.0520731
  67.2671421  69.8919698   0.7352557  66.6084778  77.9971146   2.3838418
  65.9556228  78.2447053   1.7290871  66.9865157  77.1835284   2.0500896
  63.5691951  88.0330839  -3.5133411  63.7514346  87.2152495  -3.0505659
  64.3924937  88.2498531  -3.9508521  63.9034117  86.9599024  -6.2518363
  64.4321883  86.4491479  -6.8648201  64.1662337  86.6441554  -5.3872830
  62.6572351  78.7390957   8.8704455  61.9812988  78.6385086   9.5406831
  63.4799984  78.5830171   9.3340453  54.4051210  84.9762893   1.4916971
  54.9904646  84.2306581   1.6244875  54.2076048  85.2866850   2.3753634
  57.2589865  88.0114141  -3.4920587  56.5900240  88.4960268  -3.9756547
  57.1202735  88.2583361  -2.5777209  48.9968864  77.5468494   0.2121414
  49.0352964  77.0132084   1.0058532  48.4909157  77.0203699  -0.4067609
  61.3995133  90.0457884   3.1062071  61.9513441  90.2089506   3.8711157
  61.7401327  90.6362322   2.4342096  56.3759627  72.3933034   3.7083956
  56.4400953  73.2547865   3.2961354  56.3126747  71.7807036   2.9756315
  55.8511899  74.4656167   7.3556990  56.4783938  74.0833244   7.9694515
  54.9939818  74.2470369   7.7212683  66.2506008  84.8719142   8.9610726
  66.7945912  85.4849100   8.4665681  65.6692853  85.4298720   9.4777739
  64.5363521  87.9939860   0.0925753  64.4114660  87.1929600  -0.4163301
  65.1942612  88.4886053  -0.3960277  56.1571689  74.3488592  -0.7297106
  55.4358275  74.9624560  -0.8689633  56.9464945  74.8846357  -0.8080460
  66.5998429  85.7948880   1.7205304  65.6528765  85.6754231   1.6483630
  66.9481202  84.9071378   1.8031565  58.9598002  71.6843019   5.5443545
  59.4832404  71.9305315   6.3069855  58.7410336  72.5163054   5.1246683
  63.6044862  85.5901596  -2.0790344  63.4569825  84.6618303  -1.8982774
  64.4298356  85.6121687  -2.5633269  67.2078984  86.4130155  -0.9925471
  68.1325532  86.2073016  -1.1301020  67.0394288  86.1646556  -0.0836130
  60.1650548  72.6256714   3.2293216  59.8247368  71.8264527   3.6313896
  59.4589554  72.9258425   2.6570049  60.8167019  69.7106026   1.6820539
  61.6393089  69.2366504   1.5599429  61.0605083  70.4896510   2.1819225
  58.3405598  76.4025147  -0.5087482  58.1950179  76.7165450   0.3836799
  57.8630802  77.0210047  -1.0616584  60.2001981  73.3927695  -0.4606593
  60.1863550  72.4968788  -0.7974295  60.9174409  73.3998359   0.1731693
  62.0528112  73.8265035   1.5846535  61.7945890  74.7482106   1.5830865
  61.5213152  73.4295470   2.2746999  66.9974300  86.9315822  -5.6363380
  67.1711178  86.3662245  -6.3889528  67.4903192  87.7316717  -5.8183890
  52.8151260  78.9430491   2.4300179  52.2704728  79.7190299   2.5620453
  53.6930610  79.2901296   2.2719300  62.4730067  69.9596986  -2.0552303
  62.4951764  70.0236319  -3.0100323  62.8898126  69.1201494  -1.8611797
  72.8513692  79.6952245  -4.0173080  73.2944838  78.9459570  -4.4153957
  71.9740202  79.6862382  -4.3999348  67.9849473  86.2482587  -8.5366482
  68.6800378  86.8689279  -8.3179167  68.3272623  85.3977938  -8.2614104
  53.6017282  78.0700388   5.3230336  52.8599018  78.2183023   5.9094966
  53.2810026  78.3308653   4.4597085  69.8840896  83.6982292  -7.0079151
  70.4092220  84.0369565  -7.7329831  69.7963249  82.7629308  -7.1916016
  61.5460945  87.6116366   5.1210726  61.8548071  87.3665513   5.9933425
  62.3436427  87.8163004   4.6329596  61.5681557  89.7654275  -2.6483898
  61.1286547  89.2730654  -1.9551041  62.3189674  89.2227243  -2.8891823
  54.0473896  85.9565816  -2.6459270  54.8731916  85.6569588  -3.0260626
  53.6967948  85.1873439  -2.1969481  59.0155429  85.3092285  -0.5761596
  58.3935438  84.6462990  -0.8759368  59.6860296  85.3353416  -1.2587948
  52.2482501  83.8752143  -1.6870336  51.4114409  83.4474317  -1.8686335
  52.2206146  84.0684586  -0.7499545  59.0879956  73.7874073   9.0170910
  59.1368112  74.6636195   8.6348680  59.6302471  73.2451466   8.4442553
  69.5734802  84.3315196   8.2972047  68.7830346  84.3139335   7.7576546
  69.3368157  84.8703490   9.0521084  69.6932677  81.1807662   5.6104776
  69.7430682  81.0157670   6.5520298  69.5846601  80.3134921   5.2202656
  58.5768936  83.8596208  -7.1003136  58.7257056  84.5431672  -7.7536463
  59.3835379  83.8401298  -6.5853680  66.9836440  77.1638590   6.9264082
  67.8846302  77.0245055   6.6348080  67.0584414  77.3293045   7.8662260
  61.3179245  74.5405445   5.7717269  60.4482554  74.8339011   5.4999857
  61.5538725  75.1245890   6.4924532  71.1950874  83.6004604   5.8546797
  70.9035682  83.9634584   6.6910258  70.5823005  82.8871612   5.6760129
  72.3946556  81.1657484  -1.6250633  73.2293448  81.6047288  -1.4613072
  72.5305685  80.6896137  -2.4442387  69.4438062  78.7237218   4.3226855
  69.9192184  78.9164865   3.5145706  68.5203628  78.7796404   4.0770239
  56.3321569  79.8861386  -6.0942067  56.0867611  78.9823716  -5.8961857
  56.5017483  79.8878536  -7.0362589  64.0218279  70.7585062   3.2882689
  64.5400223  71.4946089   2.9629178  63.6673412  71.0649055   4.1229448
  64.2730873  67.1785344  -1.1916414  64.5532627  66.5108534  -0.5655988
  65.0581480  67.3714440  -1.7041751  62.0764341  86.3544338  -9.6291388
  61.5038308  86.9734525 -10.0820916  62.6497135  86.9043700  -9.0951466
  68.1439731  75.6002978   2.5555161  69.0957154  75.7001076   2.5767385
  67.9743182  74.8081247   3.0653245  66.1654111  72.6858562   2.7414562
  65.5704043  72.9663574   2.0461050  65.8803807  73.1752463   3.5131303
  65.2961601  86.6381488  -8.4982806  66.2292274  86.5727050  -8.2949930
  65.2084814  87.4737755  -8.9568273  67.9249618  85.9547359 -11.5378858
  67.8463249  85.6207222 -10.6443100  68.7459285  86.4469127 -11.5387386
  70.6227809  78.8209098   1.6697460  70.5904129  77.8825099   1.8557144
  71.2328433  78.8993135   0.9363285  70.7722298  75.6120142   1.7155743
  70.2561346  74.8278598   1.5285672  71.6562246  75.2838858   1.8802263
  68.4333024  69.3561157  -2.3248444  68.2357846  69.0476245  -1.4405112
  69.0432730  70.0822796  -2.1950514  76.4404359  79.8825105   0.8103497
  77.1707747  79.6210393   1.3711200  75.8311304  79.1453827   0.8505565
  74.5219656  78.0232968   1.4077948  73.7952820  77.8888932   0.7994440
  74.1066943  78.3309796   2.2134666  62.3449832  81.7422897   9.1725321
  63.2652842  81.9201496   9.3665368  62.3099415  80.7978943   9.0205021
  51.5631997  76.9361491  -1.9021404  51.2434782  76.0826799  -2.1947030
  51.0165426  77.1510069  -1.1463437  55.3411905  79.6523932   1.8148102
  55.5597915  80.5841040   1.8336136  55.7537679  79.2931906   2.6002906
  64.1906671  69.2370064  -4.5751912  64.7437710  69.6565517  -3.9161889
  64.4276757  68.3105812  -4.5328956  60.2139770  75.2257138  11.2050851
  60.1136497  76.1751495  11.1362943  59.9961312  74.8975377  10.3326921
  51.4320257  80.5564402   0.0671718  50.7383729  80.1418355  -0.4458328
  52.1793248  80.5984939  -0.5294864  67.5685478  71.3470589  -5.0673248
  66.9884147  72.0055393  -5.4495196  67.3021411  70.5247934  -5.4785831
  66.0189045  70.7475647  -2.8651928  66.5188823  70.8592181  -3.6737609
  66.6624652  70.4436700  -2.2251119  60.0771040  78.6554276  10.0215913
  59.5938122  79.4554637  10.2279802  60.1631979  78.6662221   9.0683357
  53.3457000  80.4882656  -2.0562268  53.3227688  80.5870343  -3.0080384
  53.6557636  81.3347807  -1.7345101  56.0044378  82.5458811   2.0584347
  56.9587631  82.5142754   1.9914278  55.8056901  82.0849435   2.8734573
  56.5943760  81.1159927   4.6255145  57.4136649  81.6104006   4.6489982
  56.8680568  80.1991895   4.5972712  66.3510356  73.5070680  -6.0116900
  65.4636211  73.7920330  -6.2296705  66.7664345  73.3464443  -6.8589623
  69.7024892  73.5317201  -2.2962561  70.4785282  74.0213653  -2.0237944
  68.9773026  73.9575255  -1.8390691  72.1397451  74.2444820  -1.2388620
  72.7341942  74.0040556  -1.9495312  72.2124035  73.5251950  -0.6115084
  54.3594607  88.0878431  -0.9245455  54.2249075  87.3278832  -1.4907457
  53.9426669  88.8119331  -1.3916666  65.4953570  83.2715354 -11.9168880
  66.1989420  83.4765357 -11.3011224  64.7716218  83.8392116 -11.6519796
  66.3251380  79.0225215  -5.7966610  66.2686581  79.4793767  -6.6358977
  66.8779722  78.2615900  -5.9743767  70.1356186  74.8114947  -4.9716490
  69.8793120  74.4111583  -4.1408283  69.5109054  75.5258741  -5.0966351
  74.4468524  77.5511021  -2.4645199  73.8868082  77.6204210  -1.6913637
  73.8412027  77.3752005  -3.1845703  57.5163732  88.9847748  -0.7127013
  57.3996117  89.9293180  -0.8148322  56.6956179  88.6821309  -0.3241213
  67.4040267  83.7097883  -9.8670420  68.2385871  83.2779082 -10.0492945
  67.2424610  83.5379897  -8.9393525  67.0586159  80.2129997  -8.5014081
  67.0034963  80.0474268  -9.4425637  66.4332214  80.9206030  -8.3451891
  51.8478674  75.4498061   5.3247342  52.4937538  74.9397015   5.8134567
  51.6395825  76.1866743   5.8990767  64.3732066  82.5178909  10.8239482
  65.2423226  82.6919561  10.4626117  63.8938818  83.3373325  10.7015211
  58.5418247  89.6376010   2.5028916  59.4445493  89.6699620   2.8195411
  58.3155617  88.7076461   2.5175252  60.2971849  88.3906996  -0.8361006
  59.3467480  88.3908858  -0.9496633  60.6004335  87.6439731  -1.3524971
  56.1876165  72.5965678   9.4222356  57.0507627  72.2402483   9.6325680
  55.6141576  72.2579573  10.1097760  76.0324542  94.2267535   0.2284757
  76.6702952  94.1074282  -0.4751903  75.9145385  95.1748378   0.2872709
  72.8414248  94.1794963   0.1646282  72.5032760  94.0636027  -0.7233184
  73.7104017  93.7786128   0.1447288  68.7001064  96.0330439  -3.8456828
  68.1365929  95.9420376  -4.6140540  68.5853459  95.2130344  -3.3654335
  73.3234031  95.3329814   6.1232487  73.3122672  94.9382613   5.2512991
  73.4854671  94.5995887   6.7166258  66.2465496  97.5281631  -1.0072607
  67.0386788  97.1872455  -1.4226308  66.4862146  97.6376606  -0.0870454
  68.2056250  96.7890544  -8.1355228  68.9787126  96.2419531  -8.2742352
  68.5581649  97.6534793  -7.9240767  70.0441293  98.1166926   5.0711671
  69.7531159  99.0212557   4.9558337  70.6798277  98.1583454   5.7855741
  70.9697499  95.4943775   1.6613031  71.5661072  95.2699797   0.9469994
  71.0272471  94.7528520   2.2638479  70.5422528  92.9483210 -10.5036778
  70.7948048  92.4264731 -11.2653315  69.6047087  92.7849355 -10.4010095
  75.5865811  91.9518988  -2.6962035  76.3728900  91.5338412  -3.0471618
  75.8504515  92.8565081  -2.5280387  80.9874238  91.8894222  -1.7929057
  81.7199410  91.3193438  -1.5591227  80.2313593  91.5015822  -1.3522551
  70.2618817  94.8511316  -8.3012403  70.1455075  94.1756219  -7.6331319
  70.3721076  94.3643690  -9.1180250  72.6050357  94.3121463  -4.5965714
  72.2408565  93.7852084  -3.8852793  73.4617473  93.9219932  -4.7699229
  78.5099658  85.6015796   2.6665552  78.1782983  86.4711207   2.4426767
  77.9145271  85.2852080   3.3459582  72.2455844  89.3411363  -9.6004366
  72.4130247  90.2091599  -9.2333895  72.0553014  89.5038644 -10.5243076
  75.0031178  97.8028342   2.0661465  74.7031901  98.7053380   1.9577272
  74.6582237  97.5360525   2.9182618  68.4543659  94.2542139  -1.9001831
  67.5294156  94.1218353  -1.6924139  68.7028072  95.0336358  -1.4031888
  78.4028321  90.3210882  -0.2541098  77.4945199  90.2526290  -0.5482337
  78.3515917  90.7982827   0.5740728  72.2245065  91.7969020  -8.6157699
  72.1044691  92.2426071  -7.7772219  71.5297654  92.1454338  -9.1744161
  65.8152470  93.8975412  -1.0658042  65.9444851  94.1509891  -0.1518630
  65.1349921  94.4903120  -1.3853387  69.9851957 104.5672662  -4.9667568
  69.9075987 105.5180487  -4.8879087  69.3813601 104.2218535  -4.3092641
  72.4769187  91.7400527   7.6893799  71.7002521  92.2994448   7.6796664
  73.1159750  92.2257310   8.2108669  80.2689968  88.5227320   1.5236776
  79.6264348  88.8159853   0.8776571  79.7644896  88.4080241   2.3289973
  77.9230131  92.2690493  -7.7877365  78.8347988  92.5017880  -7.9629667
  77.4139779  92.8527538  -8.3502286  70.7315560  94.5485981   7.2511766
  71.4730244  95.0871025   6.9746590  70.0252545  95.1752270   7.4083318
  76.2070899  96.6915121   5.8483928  76.6154255  96.2497532   5.1038560
  75.4848161  96.1167749   6.1018121  72.5601969  91.6287728   3.2217485
  73.4063164  92.0527142   3.3652134  72.5000607  90.9721352   3.9156048
  76.5299714  97.2516312  -0.3963783  75.9008576  97.4162026  -1.0987715
  76.1425376  97.6657921   0.3747181  80.4088946  98.1870750  -3.0419420
  79.7239984  98.5669651  -3.5922386  80.4932795  98.7966076  -2.3087472
  75.7101415  89.2892096   4.8798658  75.4662346  90.0434157   4.3432934
  75.9861345  89.6677444   5.7145905  77.6639877  95.8330709   3.5575924
  77.8756773  96.4762469   2.8810305  77.6169626  94.9993025   3.0897854
  75.2666106  88.4448529   0.4612496  74.4050585  88.7429783   0.7529234
  75.2928541  88.6618928  -0.4706471  72.0827676  96.9890720  -3.1313698
  72.5466021  97.2678423  -3.9209076  71.8184474  96.0874165  -3.3140608
  68.9751757  96.5362202  -0.1933935  69.5453114  96.9649470  -0.8316450
  69.5659869  96.2544786   0.5050251  71.0196562  93.1113872  -6.3224133
  71.7220605  93.5634916  -5.8550207  70.6877190  92.4697691  -5.6944240
  69.4676923  91.7025629   8.0527076  68.8375584  92.3841910   8.2862473
  69.3613011  91.5908711   7.1080215  64.7621896  91.3697425  -1.0207000
  63.9720950  91.6254954  -1.4966889  65.2533143  92.1845763  -0.9154959
  78.7785705  98.7102664   1.7298281  79.6003149  98.3082851   1.4480963
  78.7748108  98.6070898   2.6814397  66.7136641  91.7342004  -4.0623523
  65.9167804  91.8460699  -3.5440027  66.4862233  92.0728656  -4.9282632
  72.5442309  98.2586707   3.8858992  72.6086741  98.7207115   4.7217164
  71.8353233  97.6284072   4.0141302  63.0459599  91.6227915   1.4107991
  63.2967637  92.5074925   1.6765567  63.5819147  91.4432517   0.6383083
  86.8691698  95.0541413  -1.9216747  86.1155407  94.4848811  -2.0772743
  87.0039240  95.0204077  -0.9746113  72.2590326  99.9254815  -6.2462028
  72.1236001 100.7706351  -5.8177180  72.8000139 100.1274093  -7.0096094
  68.7457666  86.0046395  10.4152327  68.3524612  85.4512593  11.0899972
  69.5623806  86.3156973  10.8058845  65.7119724  97.4430253  -5.6734103
  66.2244244  98.2373503  -5.5228538  66.3642437  96.7456543  -5.7400501
  67.5214608 100.5596009  -3.5911350  67.6981237 101.4813974  -3.7790366
  68.3171442 100.2454429  -3.1616970  71.6625627  87.4204274   8.0072584
  72.4035340  88.0211427   7.9277046  71.8943550  86.6781912   7.4490626
  66.8066965  92.6060641   6.2850814  66.6920480  91.7045898   6.5857912
  65.9511483  92.8524338   5.9335630  73.8858803 100.5478381   7.8838314
  73.4422657  99.7614760   7.5659219  74.5476016 100.7357532   7.2182205
  68.6445924 102.0774183   2.4098993  69.1953349 101.9491246   1.6375987
  67.8057400 102.3769072   2.0593886  75.9840041 100.8281181   5.9119715
  75.9658516 101.6490062   5.4199985  76.9059961 100.7035257   6.1369857
  72.4413095  98.3425311   6.7543224  72.9741432  97.5813599   6.5242532
  71.9127176  98.0498963   7.4967378  75.6082790  83.4485377   2.2836866
  75.2647059  84.3387019   2.2075976  75.9761753  83.2587035   1.4206451
  63.6768641  95.7718907  -4.8974532  64.5143863  96.1815916  -5.1140825
  63.8546908  94.8318349  -4.9274338  75.5733073  93.4393988  -9.2090699
  75.0579696  94.2098593  -8.9702312  75.3010381  92.7659124  -8.5857638
  73.1580184  88.2843689  -4.1505461  72.3021780  87.8950539  -4.3299822
  73.5707135  88.3635650  -5.0105675  74.6879330  85.8190032   0.2486099
  74.1844126  85.7820167  -0.5646096  74.9809937  86.7282775   0.3082755
  70.9322216  85.9028762  -0.7447719  71.7975213  85.7071570  -1.1041830
  70.9999725  85.6739114   0.1821637  75.3619376  91.3121080  -7.3830918
  75.0569511  91.6267229  -6.5320775  76.3149818  91.3902500  -7.3403585
  73.8065808  97.4711303  -5.7337964  73.2787169  96.7364063  -6.0464727
  73.3053310  98.2485980  -5.9797996  78.7858654  95.6660324  -0.6170918
  78.1282328  96.3559585  -0.5290789  79.5899053  96.0556756  -0.2736931
  68.5384535  88.1330970  -3.3731353  69.1128287  87.9106151  -4.1058160
  69.1255518  88.2019664  -2.6202751  77.5964112  94.0204697  -2.5666976
  78.1095994  94.6534688  -2.0645266  78.2465336  93.4205892  -2.9323616
  68.8654122  90.1635431  -9.3535467  68.0291435  90.5010117  -9.0326193
  68.7258892  90.0284410 -10.2908330  70.8407203  85.0072219  -4.6456283
  70.1871615  84.6921236  -5.2699668  70.7987677  84.3847959  -3.9196460
  74.0744943  91.4954152  -0.3208636  73.1567505  91.7169099  -0.4786948
  74.4905087  91.5700463  -1.1796928  74.8579991  92.8945568  -5.1905955
  75.6051810  93.4066965  -5.4998833  75.1271581  92.5729621  -4.3301562
  73.1306641  95.3904109  -8.2079001  72.2217861  95.1063141  -8.1106531
  73.1601725  95.8103187  -9.0675694  78.3625909  99.0010698  -4.4387833
  77.9088236  98.1601608  -4.3822643  77.7319875  99.6372096  -4.1013053
  77.3058828  89.9302684  -3.2087166  76.5681585  89.4180070  -2.8776923
  77.5585602  89.4903066  -4.0203889  76.8058848 100.8387195  -3.5038015
  77.0981822 101.3992252  -4.2225650  77.3157468 101.1315756  -2.7484856
  77.4070456  82.7078936  -2.6145397  77.7129332  81.8476299  -2.9019482
  78.1323060  83.2996556  -2.8146403  63.6994812  93.1109623  -4.2263799
  63.5019211  92.5178983  -4.9512732  63.1441476  92.8061833  -3.5087860
  71.6791535  93.0032729  -2.1069206  71.7340145  92.0506566  -2.1826729
  70.8682737  93.1592168  -1.6227907  69.6183895  91.6209789  -4.3478827
  68.8051761  91.9203959  -3.9413635  70.1142889  91.2265478  -3.6304345
  71.7692473 101.6167546  -2.4144562  71.7268652 101.8428392  -3.3436030
  72.6855172 101.3830920  -2.2658761  75.2158107  92.0851613   4.4836067
  75.5707495  92.3123086   5.3430533  75.8630238  92.4169990   3.8613322
  80.9455844  95.2070049  -4.8114604  80.8073742  95.3971645  -5.7393415
  80.5892063  95.9689432  -4.3546553  69.1097970  89.1928144   1.2682408
  69.7497349  89.0516903   0.5705371  68.2775501  88.9062658   0.8921010
  80.9725223  97.2746576   0.1996668  81.4061730  97.1821865   1.0479722
  81.6856804  97.2504077  -0.4383316  69.8858274  98.4930575  -2.6182599
  70.6798872  97.9980895  -2.8200024  69.1749966  97.9648438  -2.9814894
  74.7053118 100.8748670   1.7329768  74.7590141 101.4439607   2.5007484
  73.8367900 101.0450555   1.3683805  66.1941037  92.6373657  -6.5422847
  65.2638625  92.5758112  -6.3252885  66.2898509  92.1149609  -7.3386205
  66.1126586  89.1628469  -3.9544605  66.3733404  90.0773803  -4.0635445
  66.9343759  88.6952912  -3.8047992  67.5851512  90.5766227   3.2154219
  68.2574565  90.3683589   2.5666868  66.7581298  90.3788313   2.7759452
  81.8340773  97.3170277   2.7329553  82.0276663  98.2216087   2.9788828
  81.7341391  96.8577696   3.5668138  73.4877084  87.2028167   5.2319880
  72.8404999  87.9018117   5.1384357  74.2578099  87.6364311   5.5996129
  76.8955882  97.4677020   8.3070434  76.7441388  97.2387571   7.3900517
  76.8860561  98.4247621   8.3201779  73.6641218  95.0408932   3.2916700
  74.5933278  95.1920092   3.1185667  73.2432248  95.1292953   2.4365347
  72.4629550  99.0659597   1.0615238  72.3240636  98.6978381   1.9341176
  71.6744146  99.5807236   0.8899195  74.0134765  98.4441199  -1.5495925
  73.6784598  98.4041969  -0.6538275  73.5138711  97.7785915  -2.0225514
  67.9879009  93.8508830   3.9756657  67.8498807  93.1189068   4.5768196
  68.8983932  93.7617730   3.6940844  70.6161310  93.5628789   3.4640336
  71.3260928  92.9221981   3.4226955  70.5730618  93.8141684   4.3866517
  78.6048088 100.4996142   6.3846915  78.5460635  99.8155362   5.7177499
  79.0067607 101.2415132   5.9327541  69.3290244  90.5494007   5.2835976
  68.7927601  90.0984745   5.9357572  68.7406952  90.6839916   4.5406440
  67.6238787 107.3158056  -0.8219366  67.8635385 107.9476580  -0.1440347
  66.7807984 106.9646096  -0.5354006  68.7392503  90.0082658 -12.1537561
  67.8621969  89.8871459 -12.5175314  69.2150256  89.2168736 -12.4058672
  78.6065496  98.4635726   4.6160895  77.7192274  98.1261648   4.7387294
  79.1764047  97.7318757   4.8529661  60.2594643  94.7959818  -2.0596053
  60.9465683  94.4821548  -2.6475038  60.1042771  95.7001183  -2.3328802
  65.0629365  89.6850014   2.3688970  64.9787554  89.0775684   1.6339380
  64.2412071  90.1759033   2.3698467  72.1366649 103.1237178   1.5822138
  72.0636820 103.9292150   2.0941443  71.6944042 103.3229144   0.7570160
  71.9256429 102.3608948  -4.9075040  71.1423951 102.9030629  -4.8136816
  72.6249174 102.8782928  -4.5080799  75.2353079  88.1703578  -2.2640835
  75.7321778  87.4173540  -2.5839764  74.4640060  88.2067895  -2.8297625
  83.0882836  93.8743943  -0.6222543  83.0772712  94.7568659  -0.9928610
  82.2200216  93.5215494  -0.8168006  74.5965333 103.0224012   3.7380297
  75.3093305 103.6571477   3.6656199  74.1055361 103.1187878   2.9220299
  76.3182859  96.9275265  -4.6902411  75.3839138  97.0476728  -4.8597707
  76.4959528  96.0247732  -4.9542401  71.8188047  90.3120961  -2.5369150
  71.4485835  89.7592001  -1.8488245  72.3147140  89.7079094  -3.0894150
  79.7055411  92.7692584  -4.1552377  80.1715863  93.6020576  -4.2292074
  80.1562911  92.3037566  -3.4507119  69.6477246 100.7718456   4.5585868
  70.3486706 101.4054939   4.7115262  69.1772361 101.1133188   3.7981507
  77.6772074  85.1373171  -0.1161476  76.7635153  85.3677398   0.0520731
  78.1065175  85.2211616   0.7352557  77.4478532  93.3263063   2.3838418
  76.7949982  93.5738971   1.7290871  77.8258912  92.5127202   2.0500896
  74.4085706 103.3622757  -3.5133411  74.5908100 102.5444413  -3.0505659
  75.2318692 103.5790449  -3.9508521  73.4966105  94.0682874   8.8704455
  72.8206742  93.9677004   9.5406831  74.3193739  93.9122088   9.3340453
  65.2444964 100.3054811   1.4916971  65.8298401  99.5598499   1.6244875
  65.0469803 100.6158768   2.3753634  68.0983619 103.3406058  -3.4920587
  67.4293995 103.8252186  -3.9756547  67.9596489 103.5875279  -2.5777209
  59.8362619  92.8760411   0.2121414  59.8746718  92.3424002   1.0058532
  59.3302912  92.3495617  -0.4067609  72.2388888 105.3749802   3.1062071
  72.7907196 105.5381423   3.8711157  72.5795081 105.9654240   2.4342096
  67.2153381  87.7224952   3.7083956  67.2794708  88.5839783   3.2961354
  67.1520501  87.1098953   2.9756315  66.6905654  89.7948084   7.3556990
  67.3177693  89.4125162   7.9694515  65.8333573  89.5762286   7.7212683
  77.0899762 100.2011059   8.9610726  77.6339666 100.8141018   8.4665681
  76.5086607 100.7590638   9.4777739  63.4671196  91.6024513  -6.7124655
  63.7624638  90.6935192  -6.7657601  62.5659232  91.5812253  -7.0343653
  75.3757275 103.3231777   0.0925753  75.2508415 102.5221517  -0.4163301
  76.0336366 103.8177971  -0.3960277  66.9965443  89.6780510  -0.7297106
  66.2752029  90.2916478  -0.8689633  67.7858699  90.2138275  -0.8080460
  77.4392184 101.1240798   1.7205304  76.4922519 101.0046149   1.6483630
  77.7874957 100.2363296   1.8031565  69.7991757  87.0134936   5.5443545
  70.3226159  87.2597233   6.3069855  69.5804090  87.8454971   5.1246683
  65.1959038  89.2838611  -6.5885330  64.8671744  88.4035990  -6.7710224
  65.5498409  89.2286280  -5.7008941  74.4438617 100.9193514  -2.0790344
  74.2963579  99.9910221  -1.8982774  75.2692110 100.9413604  -2.5633269
  68.3100861  89.5711581  -6.2209852  68.6496934  90.0997502  -6.9431244
  68.7572982  89.9091987  -5.4451286  78.0472739 101.7422072  -0.9925471
  78.9719286 101.5364934  -1.1301020  77.8788042 101.4938474  -0.0836130
  71.0044302  87.9548632   3.2293216  70.6641122  87.1556445   3.6313896
  70.2983308  88.2550342   2.6570049  71.6560774  85.0397944   1.6820539
  72.4786843  84.5658422   1.5599429  71.8998837  85.8188428   2.1819225
  70.2969008  88.0686202  -8.0216559  71.0177371  88.4467455  -8.5252842
  69.6734312  88.7875079  -7.9181581  74.4400131  88.7731351  -7.0858227
  74.6563746  89.6555989  -7.3869399  73.9594198  88.3817565  -7.8152585
  69.1799353  91.7317065  -0.5087482  69.0343933  92.0457368   0.3836799
  68.7024556  92.3501965  -1.0616584  71.0395735  88.7219613  -0.4606593
  71.0257304  87.8260706  -0.7974295  71.7568164  88.7290276   0.1731693
  72.8921866  89.1556953   1.5846535  72.6339644  90.0774023   1.5830865
  72.3606907  88.7587387   2.2746999  63.6545015  94.2722409   2.4300179
  63.1098483  95.0482217   2.5620453  64.5324365  94.6193213   2.2719300
  70.4432631  87.6033993  -5.1919023  70.5648543  86.6750639  -4.9928135
  70.1534674  87.6172679  -6.1040707  73.3123822  85.2888903  -2.0552303
  73.3345519  85.3528236  -3.0100323  73.7291881  84.4493412  -1.8611797
  83.6907446  95.0244163  -4.0173080  84.1338592  94.2751488  -4.4153957
  82.8133956  95.0154299  -4.3999348  64.4411037  93.3992305   5.3230336
  63.6992773  93.5474941   5.9094966  64.1203781  93.6600571   4.4597085
  72.3854699 102.9408284   5.1210726  72.6941826 102.6957430   5.9933425
  73.1830181 103.1454922   4.6329596  72.4075311 105.0946193  -2.6483898
  71.9680302 104.6022572  -1.9551041  73.1583428 104.5519161  -2.8891823
  64.8867650 101.2857734  -2.6459270  65.7125670 100.9861506  -3.0260626
  64.5361702 100.5165356  -2.1969481  69.8549183 100.6384202  -0.5761596
  69.2329193  99.9754907  -0.8759368  70.5254050 100.6645334  -1.2587948
  63.0876255  99.2044060  -1.6870336  62.2508164  98.7766235  -1.8686335
  63.0599901  99.3976504  -0.7499545  69.9273711  89.1165990   9.0170910
  69.9761866  89.9928113   8.6348680  70.4696225  88.5743383   8.4442553
  80.4128557  99.6607114   8.2972047  79.6224100  99.6431252   7.7576546
  80.1761911 100.1995407   9.0521084  80.5326432  96.5099580   5.6104776
  80.5824437  96.3449587   6.5520298  80.4240355  95.6426839   5.2202656
  69.4162690  99.1888126  -7.1003136  69.5650811  99.8723590  -7.7536463
  70.2229134  99.1693216  -6.5853680  77.8230194  92.4930508   6.9264082
  78.7240057  92.3536973   6.6348080  77.8978169  92.6584963   7.8662260
  72.1572999  89.8697363   5.7717269  71.2876309  90.1630929   5.4999857
  72.3932480  90.4537808   6.4924532  82.0344629  98.9296521   5.8546797
  81.7429437  99.2926502   6.6910258  81.4216760  98.2163530   5.6760129
  83.2340311  96.4949401  -1.6250633  84.0687202  96.9339205  -1.4613072
  83.3699440  96.0188054  -2.4442387  80.2831817  94.0529136   4.3226855
  80.7585938  94.2456782   3.5145706  79.3597382  94.1088322   4.0770239
  67.1715323  95.2153303  -6.0942067  66.9261365  94.3115633  -5.8961857
  67.3411238  95.2170454  -7.0362589  74.8612033  86.0876980   3.2882689
  75.3793977  86.8238007   2.9629178  74.5067166  86.3940973   4.1229448
  66.4410971  90.9481661  -8.5955905  65.7480216  91.0226016  -9.2515869
  66.1962723  90.1842004  -8.0734388  75.1124627  82.5077262  -1.1916414
  75.3926381  81.8400451  -0.5655988  75.8975234  82.7006358  -1.7041751
  78.9833486  90.9294896   2.5555161  79.9350909  91.0292994   2.5767385
  78.8136936  90.1373165   3.0653245  77.0047865  88.0150479   2.7414562
  76.4097797  88.2955492   2.0461050  76.7197562  88.5044380   3.5131303
  81.4621564  94.1501016   1.6697460  81.4297884  93.2117017   1.8557144
  82.0722187  94.2285053   0.9363285  81.6116052  90.9412059   1.7155743
  81.0955101  90.1570516   1.5285672  82.4956001  90.6130776   1.8802263
  79.2726779  84.6853075  -2.3248444  79.0751600  84.3768163  -1.4405112
  79.8826485  85.4114714  -2.1950514  87.2798113  95.2117023   0.8103497
  88.0101502  94.9502311   1.3711200  86.6705059  94.4745745   0.8505565
  85.3613411  93.3524885   1.4077948  84.6346574  93.2180850   0.7994440
  84.9460697  93.6601714   2.2134666  73.1843587  97.0714815   9.1725321
  74.1046596  97.2493414   9.3665368  73.1493170  96.1270860   9.0205021
  71.4847812  90.9447045 -12.3520450  70.5779267  90.6480158 -12.2757737
  71.7623793  90.6476863 -13.2186164  62.4025752  92.2653409  -1.9021404
  62.0828536  91.4118717  -2.1947030  61.8559180  92.4801987  -1.1463437
  66.1805659  94.9815850   1.8148102  66.3991669  95.9132957   1.8336136
  66.5931433  94.6223824   2.6002906  73.1009877  85.4883935  -6.1976209
  72.2910606  85.1431020  -5.8220963  73.7894294  85.1791479  -5.6088598
  75.0300426  84.5661982  -4.5751912  75.5831464  84.9857435  -3.9161889
  75.2670512  83.6397730  -4.5328956  71.0533525  90.5549055  11.2050851
  70.9530252  91.5043412  11.1362943  70.8355067  90.2267294  10.3326921
  70.2546596  87.8033980 -12.2108471  71.1165760  88.1288879 -11.9512654
  70.4396940  87.0165476 -12.7235405  62.2714012  95.8856320   0.0671718
  61.5777483  95.4710273  -0.4458328  63.0187003  95.9276857  -0.5294864
  78.4079233  86.6762507  -5.0673248  77.8277902  87.3347311  -5.4495196
  78.1415165  85.8539851  -5.4785831  76.8582799  86.0767565  -2.8651928
  77.3582577  86.1884099  -3.6737609  77.5018407  85.7728617  -2.2251119
  70.9164795  93.9846194  10.0215913  70.4331877  94.7846554  10.2279802
  71.0025734  93.9954139   9.0683357  64.1850754  95.8174574  -2.0562268
  64.1621443  95.9162261  -3.0080384  64.4951391  96.6639725  -1.7345101
  66.8438132  97.8750729   2.0584347  67.7981386  97.8434671   1.9914278
  66.6450656  97.4141353   2.8734573  67.4337514  96.4451845   4.6255145
  68.2530403  96.9395924   4.6489982  67.7074322  95.5283813   4.5972712
  77.1904111  88.8362597  -6.0116900  76.3029966  89.1212248  -6.2296705
  77.6058100  88.6756361  -6.8589623  80.5418647  88.8609118  -2.2962561
  81.3179037  89.3505571  -2.0237944  79.8166781  89.2867172  -1.8390691
  82.9791205  89.5736737  -1.2388620  83.5735696  89.3332473  -1.9495312
  83.0517789  88.8543868  -0.6115084  65.1988361 103.4170348  -0.9245455
  65.0642829 102.6570749  -1.4907457  64.7820423 104.1411248  -1.3916666
  77.1645134  94.3517133  -5.7966610  77.1080336  94.8085685  -6.6358977
  77.7173477  93.5907818  -5.9743767  80.9749940  90.1406865  -4.9716490
  80.7186875  89.7403501  -4.1408283  80.3502808  90.8550659  -5.0966351
  85.2862278  92.8802938  -2.4645199  84.7261836  92.9496128  -1.6913637
  84.6805782  92.7043923  -3.1845703  68.3557487 104.3139665  -0.7127013
  68.2389871 105.2585098  -0.8148322  67.5349933 104.0113227  -0.3241213
  62.6872429  90.7789979   5.3247342  63.3331292  90.2688933   5.8134567
  62.4789580  91.5158660   5.8990767  75.2125821  97.8470826  10.8239482
  76.0816981  98.0211479  10.4626117  74.7332572  98.6665243  10.7015211
  71.2076039  85.0430023  -8.9228762  71.1954709  85.9871863  -8.7660491
  72.0999461  84.8600169  -9.2169301  69.3812001 104.9667927   2.5028916
  70.2839248 104.9991538   2.8195411  69.1549371 104.0368378   2.5175252
  71.1365603 103.7198914  -0.8361006  70.1861234 103.7200775  -0.9496633
  71.4398089 102.9731648  -1.3524971  75.0228159  81.6372800  -4.6682825
  74.2560554  81.0831287  -4.5226143  75.4338864  81.7094669  -3.8068674
  67.0269920  87.9257596   9.4222356  67.8901381  87.5694401   9.6325680
  66.4535330  87.5871491  10.1097760  84.1627786 110.6621732   6.1232487
  84.1516427 110.2674530   5.2512991  84.3248425 109.9287805   6.7166258
  80.8835047 113.4458844   5.0711671  80.5924913 114.3504475   4.9558337
  81.5192031 113.4875371   5.7855741  89.3493413 100.9307713   2.6665552
  89.0176737 101.8003124   2.4426767  88.7539026 100.6143997   3.3459582
  83.3162942 107.0692445   7.6893799  82.5396276 107.6286365   7.6796664
  83.9553505 107.5549228   8.2108669  81.5709314 109.8777898   7.2511766
  82.3123998 110.4162942   6.9746590  80.8646299 110.5044187   7.4083318
  83.3995724 106.9579646   3.2217485  84.2456919 107.3819059   3.3652134
  83.3394361 106.3013270   3.9156048  86.5495169 104.6184014   4.8798658
  86.3056101 105.3726075   4.3432934  86.8255100 104.9969362   5.7145905
  80.3070678 107.0317547   8.0527076  79.6769338 107.7133828   8.2862473
  80.2006766 106.9200628   7.1080215  75.6015650 106.6989343  -1.0207000
  74.8114704 106.9546871  -1.4966889  76.0926898 107.5137681  -0.9154959
  73.8853353 106.9519833   1.4107991  74.1361392 107.8366843   1.6765567
  74.4212902 106.7724435   0.6383083  79.5851420 101.3338313  10.4152327
  79.1918366 100.7804511  11.0899972  80.4017561 101.6448891  10.8058845
  82.5019381 102.7496192   8.0072584  83.2429095 103.3503345   7.9277046
  82.7337304 102.0073829   7.4490626  77.6460719 107.9352559   6.2850814
  77.5314235 107.0337816   6.5857912  76.7905237 108.1816256   5.9335630
  84.7252557 115.8770299   7.8838314  84.2816411 115.0906678   7.5659219
  85.3869771 116.0649450   7.2182205  83.2806849 113.6717229   6.7543224
  83.8135186 112.9105517   6.5242532  82.7520931 113.3790880   7.4967378
  86.4476544  98.7777295   2.2836866  86.1040814  99.6678936   2.2075976
  86.8155507  98.5878952   1.4206451  85.5273085 101.1481950   0.2486099
  85.0237880 101.1112085  -0.5646096  85.8203692 102.0574692   0.3082755
  81.7715971 101.2320679  -0.7447719  82.6368967 101.0363488  -1.1041830
  81.8393480 101.0031031   0.1821637  86.0551861 107.4143531   4.4836067
  86.4101249 107.6415004   5.3430533  86.7023993 107.7461908   3.8613322
  79.9491724 104.5220062   1.2682408  80.5891104 104.3808821   0.5705371
  79.1169255 104.2354575   0.8921010  78.4245266 105.9058144   3.2154219
  79.0968320 105.6975506   2.5666868  77.5975053 105.7080230   2.7759452
  84.3270838 102.5320085   5.2319880  83.6798753 103.2310035   5.1384357
  85.0971854 102.9656229   5.5996129  87.7349636 112.7968937   8.3070434
  87.5835143 112.5679489   7.3900517  87.7254316 113.7539539   8.3201779
  78.8272763 109.1800747   3.9756657  78.6892561 108.4480986   4.5768196
  79.7377687 109.0909647   3.6940844  81.4555064 108.8920707   3.4640336
  82.1654683 108.2513899   3.4226955  81.4124372 109.1433601   4.3866517
  80.1683998 105.8785924   5.2835976  79.6321355 105.4276663   5.9357572
  79.5800707 106.0131833   4.5406440  75.9023119 105.0141932   2.3688970
  75.8181308 104.4067602   1.6339380  75.0805826 105.5050950   2.3698467
  88.5165828 100.4665089  -0.1161476  87.6028908 100.6969316   0.0520731
  88.9458929 100.5503533   0.7352557  84.3359860 109.3974792   8.8704455
  83.6600497 109.2968921   9.5406831  85.1587493 109.2414006   9.3340453
  70.6756373 108.2052329   0.2121414  70.7140473 107.6715920   1.0058532
  70.1696666 107.6787534  -0.4067609  78.0547136 103.0516869   3.7083956
  78.1188462 103.9131700   3.2961354  77.9914256 102.4390871   2.9756315
  77.5299408 105.1240002   7.3556990  78.1571447 104.7417079   7.9694515
  76.6727327 104.9054204   7.7212683  87.9293517 115.5302977   8.9610726
  88.4733421 116.1432935   8.4665681  87.3480362 116.0882556   9.4777739
  77.8359198 105.0072428  -0.7297106  77.1145784 105.6208395  -0.8689633
  78.6252454 105.5430192  -0.8080460  80.6385511 102.3426854   5.5443545
  81.1619913 102.5889151   6.3069855  80.4197845 103.1746889   5.1246683
  81.8438057 103.2840549   3.2293216  81.5034877 102.4848362   3.6313896
  81.1377063 103.5842260   2.6570049  82.4954528 100.3689862   1.6820539
  83.3180598  99.8950340   1.5599429  82.7392592 101.1480345   2.1819225
  81.8789490 104.0511530  -0.4606593  81.8651059 103.1552624  -0.7974295
  82.5961918 104.0582194   0.1731693  83.7315621 104.4848870   1.5846535
  83.4733399 105.4065941   1.5830865  83.2000661 104.0879305   2.2746999
  74.4938769 109.6014327   2.4300179  73.9492237 110.3774135   2.5620453
  75.3718119 109.9485131   2.2719300  75.2804791 108.7284223   5.3230336
  74.5386527 108.8766858   5.9094966  74.9597535 108.9892489   4.4597085
  80.7667465 104.4457908   9.0170910  80.8155621 105.3220031   8.6348680
  81.3089980 103.9035301   8.4442553  88.6623949 107.8222426   6.9264082
  89.5633811 107.6828890   6.6348080  88.7371923 107.9876880   7.8662260
  82.9966754 105.1989280   5.7717269  82.1270063 105.4922846   5.4999857
  83.2326234 105.7829725   6.4924532  85.7005788 101.4168897   3.2882689
  86.2187732 102.1529924   2.9629178  85.3460920 101.7232891   4.1229448
  85.9518382  97.8369180  -1.1916414  86.2320136  97.1692369  -0.5655988
  86.7368989  98.0298275  -1.7041751  87.8441620 103.3442397   2.7414562
  87.2491552 103.6247410   2.0461050  87.5591316 103.8336298   3.5131303
  84.0237341 112.4006733   9.1725321  84.9440351 112.5785332   9.3665368
  83.9886924 111.4562778   9.0205021  73.2419506 107.5945326  -1.9021404
  72.9222291 106.7410634  -2.1947030  72.6952935 107.8093904  -1.1463437
  77.0199414 110.3107767   1.8148102  77.2385424 111.2424875   1.8336136
  77.4325188 109.9515742   2.6002906  81.8927279 105.8840973  11.2050851
  81.7924006 106.8335330  11.1362943  81.6748821 105.5559212  10.3326921
  73.1107766 111.2148238   0.0671718  72.4171238 110.8002191  -0.4458328
  73.8580757 111.2568774  -0.5294864  81.7558549 109.3138112  10.0215913
  81.2725631 110.1138472  10.2279802  81.8419488 109.3246057   9.0683357
  78.2731269 111.7743763   4.6255145  79.0924158 112.2687841   4.6489982
  78.5468077 110.8575731   4.5972712  73.5266183 106.1081896   5.3247342
  74.1725047 105.5980850   5.8134567  73.3183334 106.8450578   5.8990767
  86.0519575 113.1762744  10.8239482  86.9210735 113.3503396  10.4626117
  85.5726327 113.9957161  10.7015211  77.8663674 103.2549514   9.4222356
  78.7295136 102.8986318   9.6325680  77.2929085 102.9163408  10.1097760
  90.4245175 116.6630230  10.4152327  90.0312121 116.1096429  11.0899972
  91.2411315 116.9740809  10.8058845  73.3234033  72.3391937  -7.1522206
  73.3122673  71.9444735  -8.0241703  73.4854672  71.6058010  -6.5588435
  70.0441294  75.1229049  -8.2043022  69.7531160  76.0274680  -8.3196356
  70.6798278  75.1645576  -7.4898953  75.0031179  74.8090464 -11.2093229
  74.7031902  75.7115503 -11.3177421  74.6582238  74.5422647 -10.3572076
  72.4769188  68.7462650  -5.5860894  71.7002523  69.3056570  -5.5958029
  73.1159752  69.2319433  -5.0646024  70.7315561  71.5548103  -6.0242927
  71.4730245  72.0933147  -6.3008103  70.0252546  72.1814392  -5.8671375
  76.2070900  73.6977244  -7.4270766  76.6154256  73.2559654  -8.1716133
  75.4848162  73.1229871  -7.1736573  75.7101416  66.2954219  -8.3956035
  75.4662348  67.0496280  -8.9321759  75.9861346  66.6739567  -7.5608788
  77.6639879  72.8392831  -9.7178769  77.8756774  73.4824591 -10.3944388
  77.6169627  72.0055148 -10.1856839  69.4676925  68.7087752  -5.2227617
  68.8375585  69.3904032  -4.9892220  69.3613012  68.5970833  -6.1674479
  78.7785707  75.7164787 -11.5456412  79.6003150  75.3144974 -11.8273730
  78.7748109  75.6133021 -10.5940296  72.5442310  75.2648830  -9.3895702
  72.6086742  75.7269237  -8.5537530  71.8353234  74.6346195  -9.2613392
  86.8691700  72.0603535 -15.1971441  86.1155408  71.4910933 -15.3527436
  87.0039241  72.0266200 -14.2500806  68.7457667  63.0108517  -2.8602366
  68.3524613  62.4574716  -2.1854722  69.5623808  63.3219096  -2.4695848
  73.8858804  77.5540504  -5.3916379  73.4422658  76.7676883  -5.7095475
  74.5476018  77.7419655  -6.0572488  68.6445925  79.0836306 -10.8655701
  69.1953350  78.9553369 -11.6378707  67.8057401  79.3831195 -11.2160808
  75.9840042  77.8343304  -7.3634978  75.9658517  78.6552185  -7.8554709
  76.9059962  77.7097379  -7.1384837  72.4413096  75.3487434  -6.5211470
  72.9741433  74.5875722  -6.7512162  71.9127177  75.0561085  -5.7787315
  75.2158108  69.0913736  -8.7918626  75.5707496  69.3185209  -7.9324161
  75.8630239  69.4232113  -9.4141371  80.9725225  74.2808699 -13.0758026
  81.4061731  74.1883988 -12.2274972  81.6856805  74.2566199 -13.7138010
  74.7053120  77.8810793 -11.5424925  74.7590142  78.4501729 -10.7747209
  73.8367901  78.0512678 -11.9070888  81.8340774  74.3232399 -10.5425140
  82.0276664  75.2278210 -10.2965865  81.7341392  73.8639819  -9.7086555
  76.8955883  74.4739142  -4.9684260  76.7441389  74.2449694  -5.8854176
  76.8860562  75.4309744  -4.9552915  73.6641219  72.0471055  -9.9837993
  74.5933279  72.1982215 -10.1569026  73.2432249  72.1355076 -10.8389347
  72.4629551  76.0721719 -12.2139456  72.3240637  75.7040504 -11.3413518
  71.6744147  76.5869359 -12.3855498  78.6048090  77.5058265  -6.8907778
  78.5460636  76.8217485  -7.5577195  79.0067608  78.2477255  -7.3427152
  67.6238788  84.3220179 -14.0974059  67.8635387  84.9538703 -13.4195040
  66.7807985  83.9708219 -13.8108700  78.6065497  75.4697849  -8.6593798
  77.7192276  75.1323771  -8.5367399  79.1764048  74.7380880  -8.4225033
  72.1366650  80.1299301 -11.6932555  72.0636822  80.9354273 -11.1813250
  71.6944043  80.3291267 -12.5184534  74.5965334  80.0286135  -9.5374396
  75.3093306  80.6633600  -9.6098495  74.1055362  80.1250001 -10.3534394
  69.6477247  77.7780579  -8.7168826  70.3486707  78.4117062  -8.5639431
  69.1772362  78.1195310  -9.4773186  77.4478533  70.3325186 -10.8916275
  76.7949984  70.5801093 -11.5463822  77.8258913  69.5189324 -11.2253798
  73.4966106  71.0744997  -4.4050238  72.8206743  70.9739126  -3.7347863
  74.3193740  70.9184211  -3.9414241  72.2388889  82.3811925 -10.1692622
  72.7907197  82.5443546  -9.4043537  72.5795083  82.9716362 -10.8412597
  77.0899764  77.2073182  -4.3143968  77.6339667  77.8203140  -4.8089013
  76.5086608  77.7652760  -3.7976955  75.3757276  80.3293900 -13.1828940
  75.2508416  79.5283640 -13.6917994  76.0336368  80.8240093 -13.6714970
  77.4392185  78.1302920 -11.5549390  76.4922520  78.0108271 -11.6271063
  77.7874958  77.2425418 -11.4723128  78.0472740  78.7484195 -14.2680165
  78.9719287  78.5427056 -14.4055714  77.8788043  78.5000596 -13.3590823
  72.3854701  79.9470406  -8.1543968  72.6941827  79.7019553  -7.2821268
  73.1830183  80.1517045  -8.6425097  72.4075313  82.1008316 -15.9238591
  71.9680303  81.6084694 -15.2305734  73.1583430  81.5581283 -16.1646516
  69.9273712  66.1228113  -4.2583783  69.9761868  66.9990236  -4.6406014
  70.4696226  65.5805506  -4.8312140  80.4128558  76.6669236  -4.9782646
  79.6224102  76.6493375  -5.5178147  80.1761912  77.2057530  -4.2233610
  80.5326433  73.5161702  -7.6649918  80.5824438  73.3511710  -6.7234395
  80.4240356  72.6488961  -8.0552037  77.8230195  69.4992630  -6.3490611
  78.7240058  69.3599095  -6.6406613  77.8978170  69.6647085  -5.4092434
  82.0344630  75.9358644  -7.4207896  81.7429438  76.2988625  -6.5844435
  81.4216761  75.2225652  -7.5994564  83.2340312  73.5011524 -14.9005326
  84.0687203  73.9401328 -14.7367766  83.3699441  73.0250177 -15.7197080
  80.2831818  71.0591259  -8.9527838  80.7585940  71.2518905  -9.7608987
  79.3597383  71.1150444  -9.1984455  78.9833487  67.9357019 -10.7199533
  79.9350910  68.0355116 -10.6987309  78.8136937  67.1435287 -10.2101448
  81.4621565  71.1563138 -11.6057233  81.4297885  70.2179139 -11.4197549
  82.0722188  71.2347175 -12.3391408  87.2798115  72.2179145 -12.4651196
  88.0101503  71.9564433 -11.9043493  86.6705060  71.4807867 -12.4249128
  85.3613412  70.3587008 -11.8676745  84.6346575  70.2242973 -12.4760253
  84.9460699  70.6663836 -11.0620027  73.1843588  74.0776937  -4.1029372
  74.1046598  74.2555537  -3.9089326  73.1493171  73.1332983  -4.2549673
  71.0533526  67.5611178  -2.0703842  70.9530253  68.5105535  -2.1391751
  70.8355068  67.2329417  -2.9427772  70.9164796  70.9908317  -3.2538780
  70.4331878  71.7908677  -3.0474891  71.0025735  71.0016262  -4.2071336
  67.4337516  73.4513968  -8.6499549  68.2530405  73.9458046  -8.6264712
  67.7074323  72.5345936  -8.6781981  68.3557488  81.3201788 -13.9881706
  68.2389872  82.2647220 -14.0903016  67.5349935  81.0175350 -13.5995907
  75.2125822  74.8532949  -2.4515211  76.0816982  75.0273601  -2.8128576
  74.7332574  75.6727366  -2.5739482  69.3812002  81.9730050 -10.7725778
  70.2839249  82.0053660 -10.4559283  69.1549372  81.0430501 -10.7579442
  71.1365604  80.7261036 -14.1115699  70.1861235  80.7262898 -14.2251327
  71.4398091  79.9793771 -14.6279664  67.0269921  64.9319718  -3.8532338
  67.8901383  64.5756523  -3.6429013  66.4535332  64.5933613  -3.1656933
  84.1627787  87.6683855  -7.1522206  84.1516428  87.2736653  -8.0241703
  84.3248427  86.9349927  -6.5588435  80.8835048  90.4520966  -8.2043022
  80.5924914  91.3566597  -8.3196356  81.5192033  90.4937494  -7.4898953
  89.3493414  77.9369836 -10.6089141  89.0176739  78.8065247 -10.8327926
  88.7539027  77.6206120  -9.9295111  83.3162943  84.0754568  -5.5860894
  82.5396277  84.6348488  -5.5958029  83.9553506  84.5611351  -5.0646024
  81.5709315  86.8840021  -6.0242927  82.3124000  87.4225065  -6.3008103
  80.8646301  87.5106310  -5.8671375  83.3995725  83.9641768 -10.0537209
  84.2456920  84.3881182  -9.9102560  83.3394363  83.3075393  -9.3598646
  86.5495170  81.6246137  -8.3956035  86.3056102  82.3788197  -8.9321759
  86.8255101  82.0031484  -7.5608788  80.3070679  84.0379669  -5.2227617
  79.6769340  84.7195950  -4.9892220  80.2006767  83.9262751  -6.1674479
  75.6015651  83.7051465 -14.2961693  74.8114705  83.9608994 -14.7721582
  76.0926899  84.5199803 -14.1909652  73.8853354  83.9581956 -11.8646702
  74.1361393  84.8428966 -11.5989126  74.4212903  83.7786557 -12.6371610
  79.5851422  78.3400435  -2.8602366  79.1918367  77.7866634  -2.1854722
  80.4017562  78.6511014  -2.4695848  82.5019383  79.7558314  -5.2682109
  83.2429096  80.3565467  -5.3477647  82.7337306  79.0135952  -5.8264067
  77.6460721  84.9414681  -6.9903880  77.5314236  84.0399939  -6.6896781
  76.7905238  85.1878378  -7.3419063  84.7252558  92.8832422  -5.3916379
  84.2816413  92.0968800  -5.7095475  85.3869772  93.0711572  -6.0572488
  83.2806851  90.6779351  -6.5211470  83.8135187  89.9167639  -6.7512162
  82.7520932  90.3853003  -5.7787315  86.4476546  75.7839417 -10.9917828
  86.1040815  76.6741059 -11.0678717  86.8155508  75.5941075 -11.8548243
  85.5273086  78.1544072 -13.0268595  85.0237882  78.1174207 -13.8400789
  85.8203693  79.0636815 -12.9671938  81.7715972  78.2382802 -14.0202413
  82.6368969  78.0425611 -14.3796523  81.8393481  78.0093154 -13.0933056
  86.0551863  84.4205654  -8.7918626  86.4101250  84.6477127  -7.9324161
  86.7023994  84.7524030  -9.4141371  79.9491726  81.5282185 -12.0072285
  80.5891105  81.3870944 -12.7049322  79.1169256  81.2416698 -12.3833683
  78.4245267  82.9120267 -10.0600474  79.0968321  82.7037629 -10.7087825
  77.5975054  82.7142353 -10.4995242  84.3270840  79.5382208  -8.0434813
  83.6798755  80.2372157  -8.1370337  85.0971855  79.9718352  -7.6758565
  87.7349637  89.8031060  -4.9684260  87.5835144  89.5741612  -5.8854176
  87.7254317  90.7601661  -4.9552915  78.8272765  86.1862870  -9.2998037
  78.6892563  85.4543109  -8.6986498  79.7377688  86.0971770  -9.5813849
  81.4555065  85.8982829  -9.8114357  82.1654684  85.2576021  -9.8527739
  81.4124374  86.1495724  -8.8888176  80.1683999  82.8848047  -7.9918718
  79.6321356  82.4338785  -7.3397121  79.5800708  83.0193956  -8.7348253
  75.9023121  82.0204055 -10.9065723  75.8181309  81.4129724 -11.6415313
  75.0805827  82.5113073 -10.9056227  88.5165829  77.4727212 -13.3916169
  87.6028909  77.7031439 -13.2233962  88.9458931  77.5565656 -12.5402137
  84.3359861  86.4036915  -4.4050238  83.6600498  86.3031044  -3.7347863
  85.1587495  86.2476128  -3.9414241  70.6756375  85.2114451 -13.0633280
  70.7140474  84.6778042 -12.2696162  70.1696667  84.6849657 -13.6822302
  78.0547137  80.0578992  -9.5670737  78.1188463  80.9193823  -9.9793340
  77.9914257  79.4452994 -10.2998379  77.5299409  82.1302125  -5.9197703
  78.1571448  81.7479202  -5.3060179  76.6727328  81.9116326  -5.5542011
  87.9293518  92.5365100  -4.3143968  88.4733422  93.1495058  -4.8089013
  87.3480363  93.0944678  -3.7976955  77.8359199  82.0134550 -14.0051800
  77.1145785  82.6270518 -14.1444326  78.6252455  82.5492315 -14.0835154
  80.6385513  79.3488977  -7.7311148  81.1619915  79.5951273  -6.9684839
  80.4197846  80.1809012  -8.1508011  81.8438058  80.2902672 -10.0461477
  81.5034878  79.4910485  -9.6440798  81.1377064  80.5904383 -10.6184644
  82.4954530  77.3751984 -11.5934154  83.3180599  76.9012462 -11.7155264
  82.7392593  78.1542468 -11.0935468  81.8789491  81.0573653 -13.7361286
  81.8651060  80.1614746 -14.0728988  82.5961919  81.0644317 -13.1023000
  83.7315622  81.4910993 -11.6908159  83.4733400  82.4128064 -11.6923828
  83.2000662  81.0941428 -11.0007695  74.4938770  86.6076449 -10.8454515
  73.9492239  87.3836257 -10.7134240  75.3718120  86.9547254 -11.0035393
  75.2804792  85.7346346  -7.9524358  74.5386528  85.8828981  -7.3659727
  74.9597537  85.9954611  -8.8157608  80.7667467  81.4520031  -4.2583783
  80.8155622  82.3282153  -4.6406014  81.3089981  80.9097424  -4.8312140
  88.6623950  84.8284548  -6.3490611  89.5633813  84.6891013  -6.6406613
  88.7371924  84.9939003  -5.4092434  82.9966755  82.2051403  -7.5037425
  82.1270065  82.4984969  -7.7754836  83.2326235  82.7891848  -6.7830161
  85.7005789  78.4231020  -9.9872004  86.2187733  79.1592047 -10.3125516
  85.3460922  78.7295013  -9.1525245  85.9518383  74.8431302 -14.4671108
  86.2320137  74.1754491 -13.8410681  86.7368990  75.0360398 -14.9796444
  87.8441621  80.3504520 -10.5340132  87.2491553  80.6309532 -11.2293643
  87.5591318  80.8398421  -9.7623391  84.0237343  89.4068855  -4.1029372
  84.9440352  89.5847454  -3.9089326  83.9886926  88.4624901  -4.2549673
  73.2419508  84.6007449 -15.1776097  72.9222292  83.7472757 -15.4701723
  72.6952936  84.8156027 -14.4218130  77.0199415  87.3169890 -11.4606591
  77.2385425  88.2486998 -11.4418557  77.4325189  86.9577864 -10.6751787
  81.8927281  82.8903096  -2.0703842  81.7924007  83.8397453  -2.1391751
  81.6748823  82.5621334  -2.9427772  73.1107768  88.2210360 -13.2082976
  72.4171239  87.8064313 -13.7213021  73.8580759  88.2630897 -13.8049557
  81.7558551  86.3200234  -3.2538780  81.2725632  87.1200595  -3.0474891
  81.8419490  86.3308179  -4.2071336  78.2731270  88.7805885  -8.6499549
  79.0924159  89.2749964  -8.6264712  78.5468078  87.8637853  -8.6781981
  73.5266184  83.1144019  -7.9507352  74.1725048  82.6042973  -7.4620127
  73.3183336  83.8512701  -7.3763927  86.0519577  90.1824867  -2.4515211
  86.9210736  90.3565519  -2.8128576  85.5726328  91.0019283  -2.5739482
  77.8663675  80.2611636  -3.8532338  78.7295137  79.9048441  -3.6429013
  77.2929086  79.9225531  -3.1656933  90.4245176  93.6692353  -2.8602366
  90.0312122  93.1158551  -2.1854722  91.2411317  93.9802931  -2.4695848
  90.4245177  70.6754475 -16.1357059  90.0312123  70.1220674 -15.4609415
  91.2411318  70.9865054 -15.7450542   5.1117951 122.5478060  51.3089714
   5.8443123 121.9777277  51.5427543   4.3557307 122.1599661  51.7496219
   2.6343372 116.2599635  55.7684322   2.3026696 117.1295046  55.5445537
   2.0388985 115.9435919  56.4478353   2.5272035 120.9794721  52.8477672
   1.6188912 120.9110129  52.5536433   2.4759631 121.4566666  53.6759498
   4.3933681 119.1811159  54.6255546   3.7508062 119.4743692  53.9795341
   3.8888610 119.0664080  55.4308743   2.0473845 122.9274332  45.3141406
   2.9591701 123.1601719  45.1389103   1.5383492 123.5111377  44.7516484
   4.5332659 128.8454589  50.0599351   3.8483697 129.2253490  49.5096384
   4.6176509 129.4549915  50.7931299   1.7883591 126.4914548  56.6594694
   2.0000486 127.1346308  55.9829075   1.7413339 125.6576864  56.1916624
   2.9029419 129.3686503  54.8317052   3.7246863 128.9666690  54.5499733
   2.8991822 129.2654737  55.7833167  10.9935412 125.7125252  51.1802023
  10.2399120 125.1432650  51.0246028  11.1282953 125.6787916  52.1272658
   4.6711060 126.8510182  45.8281245   3.8940503 126.5121341  45.3836407
   5.3502541 126.8562805  45.1536210   2.9102367 126.3244163  52.4847853
   2.2526042 127.0143424  52.5727981   3.7142766 126.7140595  52.8281839
   1.7207826 124.6788535  50.5351794   2.2339708 125.3118527  51.0373504
   2.3709050 124.0789731  50.1695154   2.4869622 129.6594537  48.6630937
   2.0331949 128.8185447  48.7196127   1.8563589 130.2955935  49.0005717
   1.4302542 120.5886523  49.8931604   0.6925299 120.0763909  50.2241847
   1.6829315 120.1486905  49.0814881   0.9302561 131.4971034  49.5980755
   1.2225536 132.0576091  48.8793121   1.4401182 131.7899595  50.3533914
   1.5314169 113.3662775  50.4873374   1.8373046 112.5060138  50.1999289
   2.2566774 113.9580395  50.2872368   5.0699557 125.8653888  48.2904166
   4.9317456 126.0555484  47.3625356   4.7135776 126.6273271  48.7472218
   5.0968937 127.9330415  53.3015438   5.5305444 127.8405704  54.1498492
   5.8100518 127.9087916  52.6635454   5.9584487 127.9754116  55.8348323
   6.1520377 128.8799926  56.0807598   5.8585105 127.5161535  56.6686908
   1.0199595 128.1260859  61.4089204   0.8685102 127.8971410  60.4919288
   1.0104275 129.0831460  61.4220549   2.7291802 131.1579981  59.4865686
   2.6704348 130.4739201  58.8196269   3.1311320 131.8998971  59.0346312
   2.7309209 129.1219565  57.7179666   1.8435988 128.7845487  57.8406064
   3.3007760 128.3902596  57.9548431   7.2126550 124.5327782  52.4796227
   7.2016426 125.4152498  52.1090160   6.3443929 124.1799333  52.2850764
   3.8299124 123.4276423  48.9466393   4.2959577 124.2604415  48.8726696
   4.2806625 122.9621405  49.6511652   1.8975355 129.7720245  45.9452545
   2.1735199 129.6576839  46.8546419   1.0279854 129.3737730  45.9064718
   1.8015787 115.7957010  52.9857295   0.8878867 116.0261237  53.1539501
   2.2308889 115.8795454  53.8371327   1.5722246 123.9846902  55.4857189
   0.9193696 124.2322810  54.8309641   1.9502625 123.1711041  55.1519666
   1.2143476 130.8594898  62.0629496   1.7583380 131.4724857  61.5684451
   0.6330321 131.4174477  62.5796509   1.5635897 131.7824636  54.8224074
   0.6166233 131.6629988  54.7502401   1.9118670 130.8947134  54.9050335
   2.1716452 132.4005911  52.1093299   3.0963000 132.1948773  51.9717750
   2.0031756 132.1522313  53.0182640   1.9611768 132.9191579  47.4655390
   2.1348646 132.3538001  46.7129243   2.4540660 133.7192474  47.2834880
   7.8151160 125.6828002  49.0845690   8.2582306 124.9335327  48.6864813
   6.9377670 125.6738138  48.7019422   2.9486941 132.2358343  44.5652289
   3.6437846 132.8565036  44.7839603   3.2910091 131.3853694  44.8404666
   4.8478364 129.6858049  46.0939619   5.3729688 130.0245322  45.3688939
   4.7600717 128.7505064  45.9102754   4.5372270 130.3190952  61.3990817
   3.7467814 130.3015091  60.8595317   4.3005625 130.8579246  62.1539854
   4.6570145 127.1683419  58.7123546   4.7068150 127.0033426  59.6539069
   4.5484069 126.3010678  58.3221427   1.9473908 123.1514347  60.0282853
   2.8483770 123.0120812  59.7366850   2.0221882 123.3168802  60.9681030
   6.1588342 129.5880360  58.9565567   5.8673150 129.9510341  59.7929028
   5.5460473 128.8747369  58.7778899   7.3584024 127.1533240  51.4768138
   8.1930916 127.5923044  51.6405698   7.4943153 126.6771893  50.6576383
   4.4075530 124.7112975  57.4245625   4.8829652 124.9040621  56.6164477
   3.4841096 124.7672161  57.1789009   3.1077199 121.5878735  55.6573931
   4.0594622 121.6876833  55.6786155   2.9380650 120.7957004  56.1672015
   1.1291579 118.6734318  55.8433332   0.5341511 118.9539331  55.1479821
   0.8441275 119.1628219  56.6150073   5.5865277 124.8084855  54.7716231
   5.5541597 123.8700855  54.9575914   6.1965901 124.8868891  54.0382056
   5.7359766 121.5995898  54.8174514   5.2198814 120.8154355  54.6304443
   6.6199714 121.2714615  54.9821033   3.3970492 115.3436914  50.7770327
   3.1995314 115.0352002  51.6613658   4.0070198 116.0698553  50.9068256
  11.4041827 125.8700862  53.9122267  12.1345215 125.6086150  54.4729971
  10.7948772 125.1329583  53.9524335   9.4857124 124.0108724  54.5096719
   8.7590288 123.8764689  53.9013210   9.0704411 124.3185553  55.3153437
   2.5322946 117.3346346  48.0345522   1.9521615 117.9931150  47.6523575
   2.2658879 116.5123690  47.6232940   0.9826513 116.7351403  50.2366842
   1.4826291 116.8467938  49.4281161   1.6262120 116.4312456  50.8767651
   1.3147824 119.4946436  47.0901870   0.4273679 119.7796087  46.8722065
   1.7301813 119.3340200  46.2429147   4.6662360 119.5192957  50.8056210
   5.4422750 120.0089410  51.0780826   3.9410495 119.9451011  51.2628079
   7.1034919 120.2320576  51.8630150   7.6979410 119.9916312  51.1523458
   7.1761503 119.5127707  52.4903687   1.2888848 125.0100972  47.3052161
   1.2324049 125.4669523  46.4659793   1.8417190 124.2491657  47.1275003
   5.0993654 120.7990704  48.1302280   4.8430588 120.3987340  48.9610488
   4.4746522 121.5134498  48.0052419   9.4105992 123.5386777  50.6373571
   8.8505550 123.6079966  51.4105133   8.8049495 123.3627762  49.9173068
   2.3677735 129.6973640  43.2348350   3.2023339 129.2654838  43.0525825
   2.2062078 129.5255654  44.1625245   2.0223627 126.2005753  44.6004690
   1.9672431 126.0350025  43.6593134   1.3969683 126.9081786  44.7566879
  15.9511706 137.8769978  51.3089714  16.6836878 137.3069195  51.5427543
  15.1951061 137.4891579  51.7496219  13.4737126 131.5891552  55.7684322
  13.1420451 132.4586963  55.5445537  12.8782740 131.2727836  56.4478353
   7.2093312 135.3287119  43.5014405   7.3767715 136.1967356  43.8684876
   7.0190482 135.4914401  42.5775694  13.3665789 136.3086638  52.8477672
  12.4582667 136.2402047  52.5536433  13.3153385 136.7858583  53.6759498
  15.2327436 134.5103077  54.6255546  14.5901816 134.8035610  53.9795341
  14.7282364 134.3955997  55.4308743  10.6738883 135.2767853  57.9817429
  10.4299814 136.0309914  57.4451704  10.9498813 135.6553201  58.8164676
  10.2303574 134.4324286  53.5631266   9.3688053 134.7305540  53.8548004
  10.2566009 134.6494685  52.6312299  21.8329166 141.0417169  51.1802023
  21.0792875 140.4724567  51.0246028  21.9676708 141.0079834  52.1272658
   3.7095134 131.9922151  63.5171098   3.3162080 131.4388350  64.1918742
   4.5261274 132.3032730  63.9077615   6.6263095 133.4080031  61.1091354
   7.3672808 134.0087184  61.0295817   6.8581018 132.6657668  60.5509397
  10.5720258 129.4361133  55.3855636  10.2284527 130.3262775  55.3094747
  10.9399221 129.2462791  54.5225221   8.1217652 134.2719445  48.9513309
   7.2659248 133.8826296  48.7718948   8.5344603 134.3511406  48.0913095
   9.6516798 131.8065789  53.3504869   9.1481594 131.7695924  52.5372674
   9.9447405 132.7158531  53.4101526   5.8959684 131.8904518  52.3571051
   6.7612681 131.6947327  51.9976940   5.9637193 131.6614870  53.2840408
  10.3256844 137.2996837  45.7187852  10.0206979 137.6142986  46.5697995
  11.2787286 137.3778257  45.7615185   3.5022003 134.1206726  49.7287418
   4.0765755 133.8981908  48.9960611   4.0892986 134.1895421  50.4816019
   5.8044671 130.9947975  48.4562487   5.1509083 130.6796992  47.8319102
   5.7625145 130.3723716  49.1822310  12.2696296 135.9178441  49.8931604
  11.5319053 135.4055827  50.2241847  12.5223070 135.4778822  49.0814881
  12.3707924 128.6954693  50.4873374  12.6766800 127.8352056  50.1999289
  13.0960528 129.2872313  50.2872368   4.0735438 135.1803901  54.3701179
   4.7134817 135.0392660  53.6724142   3.2412969 134.8938414  53.9939781
   8.4514552 133.1903924  58.3338651   7.8042467 133.8893874  58.2403127
   9.2215567 133.6240068  58.7014899  10.1990547 134.1579335  50.8377936
  10.6959246 133.4049297  50.5179006   9.4277528 134.1943651  50.2721145
   6.7825516 136.2996718  50.5649620   6.4123303 135.7467758  51.2530526
   7.2784608 135.6954851  50.0124620  12.6409542 131.1248928  52.9857295
  11.7272621 131.3553155  53.1539501  13.0702643 131.2087372  53.8371327
   2.1790849 133.7100708  56.8102726   2.2432176 134.5715539  56.3980124
   2.1157969 133.0974710  56.0775085   4.7629225 133.0010693  58.6462316
   5.2863627 133.2472990  59.4088625   4.5441558 133.8330728  58.2265453
   5.9681770 133.9424388  56.3311986   5.6278590 133.1432201  56.7332666
   5.2620776 134.2426099  55.7588820   6.6198242 131.0273701  54.7839309
   7.4424311 130.5534179  54.6618200   6.8636305 131.8064184  55.2837996
   5.2606476 134.0561959  45.0802211   5.9814839 134.4343212  44.5765928
   4.6371780 134.7750836  45.1837189   9.4037599 134.7607108  46.0160543
   9.6201214 135.6431746  45.7149372   8.9231666 134.3693321  45.2866185
   6.0033204 134.7095369  52.6412178   5.9894772 133.8136463  52.3044475
   6.7205632 134.7166033  53.2750464   7.8559334 135.1432709  54.6865305
   7.5977112 136.0649780  54.6849635   7.3244375 134.7463144  55.3765769
   5.4070099 133.5909749  47.9099748   5.5286011 132.6626396  48.1090635
   5.1172142 133.6048435  46.9978063   8.2761290 131.2764660  51.0466467
   8.2982987 131.3403993  50.0918447   8.6929349 130.4369169  51.2406974
  12.7867662 138.4806264  60.0282853  13.6877525 138.3412729  59.7366850
  12.8615637 138.6460719  60.9681030   7.1210467 135.8573119  58.8736039
   6.2513777 136.1506685  58.6018627   7.3569948 136.4413564  59.5943303
   9.8249501 132.0752736  56.3901459  10.3431445 132.8113763  56.0647948
   9.4704634 132.3816729  57.2248218  10.0762095 128.4953019  51.9102356
  10.3563849 127.8276208  52.5362782  10.8612702 128.6882114  51.3977020
  13.9470954 136.9170653  55.6573931  14.8988377 137.0168750  55.6786155
  13.7774404 136.1248921  56.1672015  11.9685333 134.0026236  55.8433332
  11.3735265 134.2831249  55.1479821  11.6835030 134.4920137  56.6150073
  16.5753520 136.9287816  54.8174514  16.0592569 136.1446272  54.6304443
  17.4593469 136.6006532  54.9821033  14.2364247 130.6728831  50.7770327
  14.0389068 130.3643920  51.6613658  14.8463953 131.3990470  50.9068256
  22.2435581 141.1992779  53.9122267  22.9738970 140.9378067  54.4729971
  21.6342527 140.4621501  53.9524335  20.3250879 139.3400642  54.5096719
  19.5984042 139.2056607  53.9013210  19.9098165 139.6477470  55.3153437
   8.0647345 131.4759691  46.9042561   7.2548074 131.1306776  47.2797807
   8.7531762 131.1667235  47.4930173   9.9937894 130.5537738  48.5266858
  10.5468932 130.9733192  49.1856881  10.2307980 129.6273486  48.5689814
  13.3716701 132.6638263  48.0345522  12.7915370 133.3223067  47.6523575
  13.1052633 131.8415608  47.6232940  11.8220267 132.0643321  50.2366842
  12.3220045 132.1759856  49.4281161  12.4655875 131.7604374  50.8767651
  12.1541579 134.8238354  47.0901870  11.2667434 135.1088004  46.8722065
  12.5695568 134.6632117  46.2429147  15.5056115 134.8484875  50.8056210
  16.2816505 135.3381327  51.0780826  14.7804249 135.2742929  51.2628079
  17.9428673 135.5612494  51.8630150  18.5373164 135.3208230  51.1523458
  18.0155257 134.8419625  52.4903687  15.9387408 136.1282622  48.1302280
  15.6824343 135.7279257  48.9610488  15.3140276 136.8426416  48.0052419
  20.2499746 138.8678695  50.6373571  19.6899304 138.9371884  51.4105133
  19.6443250 138.6919679  49.9173068   6.1713507 131.0305780  44.1790008
   6.1592177 131.9747620  44.3358279   7.0636929 130.8475925  43.8849469
   9.9865627 127.6248557  48.4335945   9.2198022 127.0707043  48.5792627
  10.3976332 127.6970425  49.2950097   1.9907388 133.9133352  62.5241126
   2.8538849 133.5570157  62.7344451   1.4172798 133.5747247  63.2116530
   5.1117953  99.5540183  38.0335020   5.8443124  98.9839400  38.2672850
   4.3557308  99.1661784  38.4741526   2.6343373  93.2661757  42.4929629
   2.3026698  94.1357168  42.2690844   2.0388986  92.9498041  43.1723659
   2.5272036  97.9856843  39.5722979   1.6188914  97.9172252  39.2781740
   2.4759632  98.4628788  40.4004805   4.3933683  96.1873282  41.3500853
   3.7508063  96.4805815  40.7040648   3.8888611  96.0726202  42.1554050
   2.0473846  99.9336455  32.0386712   2.9591702 100.1663842  31.8634410
   1.5383493 100.5173499  31.4761791   4.5332660 105.8516711  36.7844657
   3.8483699 106.2315613  36.2341691   4.6176510 106.4612038  37.5176605
   1.7883592 103.4976670  43.3840001   2.0000487 104.1408430  42.7074382
   1.7413340 102.6638987  42.9161931   2.9029420 106.3748626  41.5562358
   3.7246864 105.9728813  41.2745040   2.8991823 106.2716860  42.5078474
  10.9935413 102.7187374  37.9047330  10.2399121 102.1494772  37.7491334
  11.1282954 102.6850039  38.8517964   4.6711062 103.8572304  32.5526551
   3.8940504 103.5183464  32.1081713   5.3502543 103.8624927  31.8781516
   2.9102368 103.3306285  39.2093159   2.2526043 104.0205547  39.2973288
   3.7142768 103.7202717  39.5527146   1.7207827 101.6850658  37.2597101
   2.2339709 102.3180650  37.7618811   2.3709051 101.0851854  36.8940461
   2.4869623 106.6656660  35.3876244   2.0331951 105.8247569  35.4441434
   1.8563590 107.3018058  35.7251024   1.4302543  97.5948646  36.6176911
   0.6925300  97.0826032  36.9487154   1.6829317  97.1549027  35.8060188
   0.9302563 108.5033156  36.3226062   1.2225537 109.0638213  35.6038427
   1.4401183 108.7961717  37.0779221   1.5314170  90.3724898  37.2118680
   1.8373047  89.5122261  36.9244595   2.2566775  90.9642518  37.0117674
   5.0699559 102.8716011  35.0149473   4.9317457 103.0617607  34.0870662
   4.7135777 103.6335394  35.4717524   5.0968938 104.9392538  40.0260745
   5.5305445 104.8467827  40.8743799   5.8100519 104.9150038  39.3880761
   5.9584488 104.9816238  42.5593630   6.1520378 105.8862049  42.8052905
   5.8585106 104.5223657  43.3932215   1.0199596 105.1322981  48.1334511
   0.8685103 104.9033533  47.2164594   1.0104276 106.0893583  48.1465856
   2.7291803 108.1642104  46.2110993   2.6704349 107.4801324  45.5441576
   3.1311322 108.9061094  45.7591618   2.7309210 106.1281688  44.4424972
   1.8435989 105.7907609  44.5651371   3.3007761 105.3964719  44.6793738
   7.2126551 101.5389905  39.2041534   7.2016427 102.4214620  38.8335467
   6.3443930 101.1861456  39.0096071   3.8299126 100.4338546  35.6711700
   4.2959578 101.2666538  35.5972003   4.2806626  99.9683528  36.3756958
   1.8975357 106.7782367  32.6697852   2.1735201 106.6638962  33.5791726
   1.0279855 106.3799852  32.6310025   1.8015788  92.8019133  39.7102601
   0.8878868  93.0323360  39.8784808   2.2308890  92.8857577  40.5616634
   1.5722247 100.9909025  42.2102495   0.9193697 101.2384932  41.5554948
   1.9502627 100.1773163  41.8764973   1.2143477 107.8657021  48.7874803
   1.7583381 108.4786979  48.2929758   0.6330322 108.4236599  49.3041816
   1.5635898 108.7886759  41.5469381   0.6166234 108.6692110  41.4747707
   1.9118671 107.9009257  41.6295642   2.1716454 109.4068034  38.8338606
   3.0963001 109.2010895  38.6963057   2.0031757 109.1584435  39.7427947
   1.9611770 109.9253701  34.1900697   2.1348647 109.3600124  33.4374549
   2.4540661 110.7254596  34.0080187   7.8151161 102.6890124  35.8090997
   8.2582307 101.9397450  35.4110120   6.9377671 102.6800261  35.4264729
   2.9486942 109.2420466  31.2897595   3.6437847 109.8627159  31.5084910
   3.2910092 108.3915817  31.5649973   4.8478365 106.6920171  32.8184926
   5.3729689 107.0307444  32.0934246   4.7600718 105.7567187  32.6348061
   4.5372271 107.3253075  48.1236124   3.7467815 107.3077214  47.5840623
   4.3005626 107.8641369  48.8785161   4.6570146 104.1745541  45.4368853
   4.7068151 104.0095549  46.3784375   4.5484070 103.3072800  45.0466733
   1.9473909 100.1576469  46.7528159   2.8483772 100.0182934  46.4612157
   2.0221883 100.3230924  47.6926337   6.1588343 106.5942483  45.6810874
   5.8673152 106.9572463  46.5174335   5.5460475 105.8809491  45.5024206
   7.3584026 104.1595363  38.2013444   8.1930917 104.5985167  38.3651005
   7.4943154 103.6834016  37.3821690   4.4075532 101.7175098  44.1490932
   4.8829653 101.9102744  43.3409783   3.4841097 101.7734283  43.9034316
   3.1077201  98.5940858  42.3819238   4.0594623  98.6938955  42.4031462
   2.9380651  97.8019126  42.8917322   1.1291580  95.6796441  42.5678639
   0.5341512  95.9601454  41.8725127   0.8441277  96.1690342  43.3395380
   5.5865278 101.8146977  41.4961537   5.5541598 100.8762978  41.6821221
   6.1965902 101.8931014  40.7627362   5.7359767  98.6058021  41.5419820
   5.2198815  97.8216477  41.3549749   6.6199715  98.2776737  41.7066340
   3.3970494  92.3499036  37.5015633   3.1995315  92.0414124  38.3858965
   4.0070199  93.0760675  37.6313563  11.4041828 102.8762984  40.6367574
  12.1345217 102.6148272  41.1975277  10.7948774 102.1391706  40.6769642
   9.4857125 101.0170847  41.2342025   8.7590289 100.8826812  40.6258517
   9.0704412 101.3247675  42.0398743   2.5322947  94.3408468  34.7590829
   1.9521616  94.9993272  34.3768881   2.2658880  93.5185813  34.3478246
   0.9826514  93.7413526  36.9612149   1.4826292  93.8530061  36.1526468
   1.6262122  93.4374579  37.6012958   1.3147825  96.5008559  33.8147177
   0.4273680  96.7858209  33.5967372   1.7301815  96.3402322  32.9674454
   4.6662362  96.5255080  37.5301516   5.4422752  97.0151532  37.8026133
   3.9410496  96.9513134  37.9873386   7.1034920  97.2382699  38.5875457
   7.6979411  96.9978435  37.8768765   7.1761504  96.5189829  39.2148993
   1.2888849 102.0163095  34.0297467   1.2324051 102.4731646  33.1905100
   1.8417192 101.2553779  33.8520310   5.0993655  97.8052827  34.8547587
   4.8430589  97.4049462  35.6855794   4.4746523  98.5196620  34.7297726
   9.4105993 100.5448900  37.3618878   8.8505551 100.6142089  38.1350440
   8.8049496 100.3689884  36.6418374   2.3677736 106.7035763  29.9593657
   3.2023340 106.2716961  29.7771132   2.2062079 106.5317776  30.8870552
   2.0223629 103.2067876  31.3249996   1.9672432 103.0412147  30.3838440
   1.3969684 103.9143909  31.4812186  10.9962011 117.2205414  40.0548834
  11.6340421 117.1012161  39.3512174  10.8782854 118.1686258  40.1136786
   7.8051718 117.1732842  39.9910359   7.4670229 117.0573907  39.1030893
   8.6741486 116.7724007  39.9711365   8.2871501 118.3267694  45.9496564
   8.2760141 117.9320492  45.0777068   8.4492140 117.5933766  46.5430335
   1.2102965 120.5219510  38.8191470   2.0024257 120.1810334  38.4037769
   1.4499615 120.6314485  39.7393623   5.0078762 121.1104805  44.8975748
   4.7168628 122.0150436  44.7822414   5.6435746 121.1521333  45.6119818
   5.9334969 118.4881654  41.4877108   6.5298541 118.2637676  40.7734071
   5.9909940 117.7466399  42.0902556  10.5503280 114.9456868  37.1302042
  11.3366369 114.5276291  36.7792459  10.8141984 115.8502960  37.2983690
  10.7213357 120.3829718  31.8290699  10.0859190 120.4564344  32.5411603
  10.3910764 120.9723317  31.1509778  15.9511707 114.8832101  38.0335020
  16.6836879 114.3131318  38.2672850  15.1951063 114.4953701  38.4741526
   7.5687827 117.3059342  35.2298363   7.2046034 116.7789963  35.9411284
   8.4254943 116.9157811  35.0564848  13.4737127 108.5953675  42.4929629
  13.1420452 109.4649086  42.2690844  12.8782741 108.2789959  43.1723659
   7.2093314 112.3349242  30.2259711   7.3767716 113.2029478  30.5930182
   7.0190483 112.4976524  29.3021001   9.9668647 120.7966221  41.8925542
   9.6669370 121.6991260  41.7841349   9.6219706 120.5298404  42.7446695
   3.4181128 117.2480018  37.9262246   2.4931625 117.1156232  38.1339938
   3.6665542 118.0274237  38.4232189  13.3665791 113.3148761  39.5722979
  12.4582668 113.2464169  39.2781740  13.3153386 113.7920706  40.4004805
   7.1882535 114.7906899  31.2106378   7.0682160 115.2363950  32.0491858
   6.4935123 115.1392217  30.6519916   7.4406656 114.7338407  47.5157876
   6.6639991 115.2932327  47.5060741   8.0797220 115.2195190  48.0372746
  15.2327437 111.5165199  41.3500853  14.5901817 111.8097733  40.7040648
  14.7282366 111.4018120  42.1554050  12.8867601 115.2628373  32.0386712
  13.7985457 115.4955759  31.8634410  12.3777248 115.8465417  31.4761791
   5.6953029 117.5423860  47.0775843   6.4367713 118.0808904  46.8010667
   4.9890014 118.1690149  47.2347395  11.1708368 119.6853000  45.6748005
  11.5791724 119.2435411  44.9302637  10.4485630 119.1105628  45.9282198
   7.5239438 114.6225607  43.0481562   8.3700634 115.0465021  43.1916211
   7.4638076 113.9659232  43.7420125  11.4937183 120.2454191  39.4300294
  10.8646046 120.4099905  38.7276362  11.1062845 120.6595801  40.2011258
  15.3726415 121.1808629  36.7844657  14.6877453 121.5607530  36.2341691
  15.4570264 121.7903956  37.5176605  10.6738884 112.2829976  44.7062735
  10.4299816 113.0372036  44.1697011  10.9498814 112.6615323  45.5409982
  12.6277347 118.8268588  43.3840001  12.8394242 119.4700348  42.7074382
  12.5807095 117.9930905  42.9161931  10.2303576 111.4386409  40.2876573
   9.3688055 111.7367662  40.5793311  10.2566010 111.6556808  39.3557606
   7.0465145 119.9828599  36.6950379   7.5103490 120.2616302  35.9055001
   6.7821943 119.0812044  36.5123469   3.9389226 119.5300081  39.6330142
   4.5090583 119.9587349  38.9947627   4.5297338 119.2482665  40.3314328
   5.9834031 116.1051752  33.5039944   6.6858074 116.5572795  33.9713870
   5.6514660 115.4635570  34.1319837   4.4314393 114.6963508  47.8791153
   3.8013053 115.3779789  48.1126550   4.3250480 114.5846590  46.9344292
  13.7423175 121.7040543  41.5562358  14.5640618 121.3020731  41.2745040
  13.7385577 121.6008778  42.5078474   1.6774110 114.7279883  35.7640554
   0.8805274 114.8398578  36.2824050   1.4499703 115.0666536  34.8981445
   7.5079778 121.2524587  43.7123069   7.5724210 121.7144994  44.5481241
   6.7990702 120.6221952  43.8405379  21.8329168 118.0479292  37.9047330
  21.0792876 117.4786690  37.7491334  21.9676709 118.0141956  38.8517964
   3.7095135 108.9984274  50.2416404   3.3162081 108.4450473  50.9164049
   4.5261276 109.3094852  50.6322922   6.6263096 110.4142153  47.8336661
   7.3672810 111.0149306  47.7541123   6.8581019 109.6719791  47.2754703
   1.7704434 115.5998520  46.1114891   1.6557949 114.6983778  46.4121990
   0.9148952 115.8462217  45.7599707   8.8496272 123.5416261  47.7102391
   8.4060126 122.7552639  47.3923296   9.5113486 123.7295411  47.0446282
   3.6083393 125.0712062  42.2363070   4.1590818 124.9429126  41.4640064
   2.7694869 125.3706951  41.8857963  10.9477510 123.8219061  45.7383792
  10.9295985 124.6427942  45.2464062  11.8697430 123.6973136  45.9633934
   7.4050564 121.3363190  46.5807301   7.9378901 120.5751478  46.3506609
   6.8764645 121.0436842  47.3231455  10.5720259 106.4423256  42.1100943
  10.2284529 107.3324898  42.0340053  10.9399222 106.2524914  41.2470528
  10.5370542 116.4331867  30.6173378  10.0217165 117.2036472  30.8561765
  10.2647850 115.7597003  31.2406439   8.1217653 111.2781568  35.6758616
   7.2659249 110.8888418  35.4964255   8.5344605 111.3573529  34.8158402
   9.6516800 108.8127911  40.0750176   9.1481595 108.7758046  39.2617981
   9.9447406 109.7220654  40.1346832   5.8959685 108.8966641  39.0816358
   6.7612682 108.7009450  38.7222247   5.9637194 108.6676993  40.0085714
  15.5104816 119.1864222  32.5526551  14.7334259 118.8475381  32.1081713
  16.1896297 119.1916845  31.8781516  10.3256845 114.3058959  32.4433159
  10.0206981 114.6205108  33.2943302  11.2787287 114.3840379  32.4860492
   8.7703277 120.4649183  34.0926113   8.2424639 119.7301942  33.7799350
   8.2690780 121.2423859  33.8466081  13.7496123 118.6598203  39.2093159
  13.0919797 119.3497464  39.2973288  14.5536522 119.0494635  39.5527146
   3.5022005 111.1268849  36.4532724   4.0765756 110.9044030  35.7205917
   4.0892987 111.1957543  37.2061326  12.5601582 117.0142576  37.2597101
  13.0733464 117.6472568  37.7618811  13.2102806 116.4143771  36.8940461
   5.8044672 108.0010098  35.1807794   5.1509085 107.6859115  34.5564409
   5.7625146 107.3785838  35.9067617   9.0382413 114.4892031  39.5055441
   8.1204974 114.7106978  39.3477129   9.4542556 114.5638342  38.6467149
   9.8217460 115.8883447  34.6358122  10.5689279 116.4004844  34.3265244
  10.0909050 115.5667500  35.4962515  13.3263378 121.9948577  35.3876244
  12.8725705 121.1539487  35.4441434  12.6957345 122.6309976  35.7251024
  12.2696298 112.9240563  36.6176911  11.5319054 112.4117949  36.9487154
  12.5223071 112.4840945  35.8060188  11.7696317 123.8325074  36.3226062
  12.0619292 124.3930131  35.6038427  12.2794938 124.1253635  37.0779221
  12.3707925 105.7016815  37.2118680  12.6766802 104.8414179  36.9244595
  13.0960530 106.2934435  37.0117674   6.6429005 115.9970608  37.7194871
   6.6977614 115.0444445  37.6437348   5.8320207 116.1530047  38.2036170
   4.5821365 114.6147668  35.4785250   3.7689230 114.9141839  35.8850442
   5.0780359 114.2203357  36.1959732   6.7329942 124.6105425  37.4119515
   6.6906121 124.8366271  36.4828047   7.6492641 124.3768800  37.5605316
  10.1795576 115.0789493  44.3100144  10.5344964 115.3060966  45.1694610
  10.8267707 115.4107869  43.6877399  15.9093313 118.2007928  35.0149473
  15.7711212 118.3909524  34.0870662  15.5529532 118.9627311  35.4717524
   4.0735439 112.1866024  41.0946485   4.7134819 112.0454783  40.3969448
   3.2412970 111.9000537  40.7185087  15.9362693 120.2684455  40.0260745
  16.3699199 120.1759745  40.8743799  16.6494273 120.2441956  39.3880761
   4.8495743 121.4868454  37.2081478   5.6436342 120.9918774  37.0064053
   4.1387436 120.9586317  36.8449183   9.6690588 123.8686550  41.5593845
   9.7227610 124.4377486  42.3271561   8.8005369 124.0388435  41.1947882
   1.0764056 112.1566349  35.8719472   1.3370873 113.0711682  35.7628632
   1.8981228 111.6890791  36.0216085   2.5488981 113.5704106  43.0418296
   3.2212034 113.3621468  42.3930945   1.7218768 113.3726192  42.6023529
  16.7978242 120.3108156  42.5593630  16.9914132 121.2153967  42.8052905
  16.6978860 119.8515575  43.3932215   8.4514553 110.1966047  45.0583957
   7.8042468 110.8955996  44.9648434   9.2215568 110.6302191  45.4260206
  11.8593351 120.4614899  48.1334511  11.7078857 120.2325451  47.2164594
  11.8498030 121.4185500  48.1465856   8.6278687 118.0346812  43.1180777
   9.5570747 118.1857971  42.9449744   8.2069717 118.1230832  42.2629424
   7.4267019 122.0597476  40.8879315   7.2878105 121.6916260  41.7605253
   6.6381615 122.5745115  40.7163273   8.9772234 121.4379079  38.2768152
   8.6422067 121.3979849  39.1725802   8.4776180 120.7723795  37.8038563
   2.9516478 116.8446709  43.8020734   2.8136276 116.1126948  44.4032273
   3.8621402 116.7555609  43.5204921   5.5798779 116.5566668  43.2904413
   6.2898397 115.9159860  43.2491032   5.5368087 116.8079563  44.2130594
  13.5685558 123.4934021  46.2110993  13.5098104 122.8093241  45.5441576
  13.9705076 124.2353011  45.7591618   4.2927713 113.5431886  45.1100053
   3.7565070 113.0922624  45.7621649   3.7044421 113.6777795  44.3670517
  13.5702965 121.4573605  44.4424972  12.6829744 121.1199527  44.5651371
  14.1401516 120.7256637  44.6793738   7.1004118 126.1175058  41.4086215
   7.0274290 126.9230029  41.9205520   6.6581511 126.3167023  40.5834237
  10.1990548 111.1641457  37.5623242  10.6959248 110.4111419  37.2424313
   9.4277530 111.2005774  36.9966452  18.0520305 116.8681823  39.2041534
  18.0410182 117.7506538  38.8335467  17.1837685 116.5153373  39.0096071
   9.5602802 126.0161892  43.5644374  10.2730774 126.6509357  43.4920276
   9.0692830 126.1125758  42.7484376  11.2820329 119.9213144  35.1361666
  10.3476607 120.0414607  34.9666370  11.4596997 119.0185611  34.8721676
   6.7825517 113.3058840  37.2894927   6.4123304 112.7529881  37.9775832
   7.2784609 112.7016974  36.7369927  14.6692880 115.7630464  35.6711700
  15.1353332 116.5958455  35.5972003  15.1200381 115.2975445  36.3756958
   4.6114715 123.7656335  44.3849945   5.3124175 124.3992818  44.5379339
   4.1409830 124.1071067  43.6245584  12.7369111 122.1074285  32.6697852
  13.0128955 121.9930880  33.5791726  11.8673610 121.7091770  32.6310025
  12.6409543 108.1311051  39.7102601  11.7272623 108.3615277  39.8784808
  13.0702644 108.2149495  40.5616634  12.4116001 116.3200943  42.2102495
  11.7587452 116.5676850  41.5554948  12.7896381 115.5065081  41.8764973
   9.3723175 126.3560636  36.3130666   9.5545570 125.5382292  36.7758418
  10.1956161 126.5728328  35.8755556   8.4603574 117.0620754  48.6968532
   7.7844211 116.9614883  49.3670908   9.2831208 116.9059967  49.1604530
   7.2026357 128.3687681  42.9326148   7.7544665 128.5319303  43.6975234
   7.5432551 128.9592119  42.2606173   2.1790850 110.7162831  43.5348033
   2.2432177 111.5777662  43.1225431   2.1157971 110.1036833  42.8020392
   1.6543123 112.7885963  47.1821067   2.2815162 112.4063041  47.7958592
   0.7971042 112.5700165  47.5476760  12.0537232 123.1948939  48.7874803
  12.5977136 123.8078897  48.2929758  11.4724076 123.7528517  49.3041816
  10.3394744 126.3169657  39.9189830  10.2145884 125.5159396  39.4100776
  10.9973836 126.8115850  39.4303800   1.9602913 112.6718389  39.0966971
   1.2389498 113.2854357  38.9574444   2.7496168 113.2076154  39.0183617
  12.4029653 124.1178677  41.5469381  11.4559988 123.9984028  41.4747707
  12.7512426 123.2301175  41.6295642   4.7629226 110.0072816  45.3707622
   5.2863628 110.2535112  46.1333932   4.5441560 110.8392850  44.9510760
   9.4076086 123.9131393  37.7473733   9.2601049 122.9848100  37.9281303
  10.2329580 123.9351484  37.2630808   3.2738330 112.5649460  33.6054225
   3.6134403 113.0935381  32.8832833   3.7210451 112.9029866  34.3812791
  13.0110208 124.7359952  38.8338606  13.9356755 124.5302813  38.6963057
  12.8425511 124.4876353  39.7427947   5.9681771 110.9486511  43.0557293
   5.6278592 110.1494324  43.4577973   5.2620778 111.2488222  42.4834126
   6.6198243 108.0335823  41.5084616   7.4424312 107.5596301  41.3863506
   6.8636307 108.8126307  42.0083302   5.2606478 111.0624082  31.8047518
   5.9814840 111.4405334  31.3011235   4.6371782 111.7812958  31.9082496
   9.4037600 111.7669231  32.7405850   9.6201215 112.6493868  32.4394678
   8.9231668 111.3755444  32.0111492   4.1436822 114.7254944  39.3176595
   3.9981403 115.0395247  40.2100876   3.6662026 115.3439844  38.7647493
   6.0033205 111.7157492  39.3657484   5.9894774 110.8198585  39.0289782
   6.7205633 111.7228156  39.9995770   7.8559335 112.1494832  41.4110612
   7.5977113 113.0711903  41.4094942   7.3244376 111.7525267  42.1011076
  12.8005524 125.2545619  34.1900697  12.9742402 124.6892042  33.4374549
  13.2934415 126.0546514  34.0080187   5.4070101 110.5971872  34.6345054
   5.5286012 109.6688518  34.8335942   5.1172143 110.6110558  33.7223370
   8.2761291 108.2826783  37.7711774   8.2982988 108.3466116  36.8163754
   8.6929350 107.4431291  37.9652280  18.6544915 118.0182042  35.8090997
  19.0976061 117.2689367  35.4110120  17.7771426 118.0092178  35.4264729
  13.7880697 124.5712384  31.2897595  14.4831601 125.1919076  31.5084910
  14.1303847 123.7207735  31.5649973  15.6872120 122.0212089  32.8184926
  16.2123444 122.3599362  32.0934246  15.5994472 121.0859104  32.6348061
   7.3492169 125.9346163  44.9474803   7.6579295 125.6895309  45.8197502
   8.1467651 126.1392801  44.4593673   4.8186653 123.6322081  39.2502481
   4.1966662 122.9692786  38.9504709   5.4891520 123.6583213  38.5676129
   4.8911180 112.1103869  48.8434987   4.9399336 112.9865992  48.4612757
   5.4333694 111.5681262  48.2706630  15.3766026 122.6544993  48.1236124
  14.5861570 122.6369132  47.5840623  15.1399380 123.1933286  48.8785161
  15.4963901 119.5037459  45.4368853  15.5461906 119.3387467  46.3784375
  15.3877824 118.6364718  45.0466733  12.7867663 115.4868387  46.7528159
  13.6877526 115.3474852  46.4612157  12.8615638 115.6522842  47.6926337
   7.1210469 112.8635242  45.5981346   6.2513778 113.1568808  45.3263934
   7.3569949 113.4475687  46.3188609  16.9982098 121.9234401  45.6810874
  16.7066906 122.2864381  46.5174335  16.3854229 121.2101409  45.5024206
  18.1977780 119.4887280  38.2013444  19.0324671 119.9277084  38.3651005
  18.3336909 119.0125934  37.3821690  15.2469286 117.0467015  44.1490932
  15.7223408 117.2394662  43.3409783  14.3234851 117.1026201  43.9034316
   9.8249503 109.0814859  43.1146766  10.3431446 109.8175886  42.7893255
   9.4704635 109.3878852  43.9493525  10.0762097 105.5015141  38.6347663
  10.3563850 104.8338330  39.2608089  10.8612704 105.6944237  38.1222326
  13.9470955 113.9232775  42.3819238  14.8988378 114.0230873  42.4031462
  13.7774405 113.1311044  42.8917322  11.9685334 111.0088359  42.5678639
  11.3735267 111.2893371  41.8725127  11.6835031 111.4982259  43.3395380
  16.4259033 117.1438895  41.4961537  16.3935353 116.2054896  41.6821221
  17.0359656 117.2222932  40.7627362  16.5753521 113.9349938  41.5419820
  16.0592570 113.1508395  41.3549749  17.4593470 113.6068655  41.7066340
  14.2364248 107.6790954  37.5015633  14.0389069 107.3706042  38.3858965
  14.8463954 108.4052593  37.6313563  22.2435583 118.2054902  40.6367574
  22.9738971 117.9440190  41.1975277  21.6342528 117.4683624  40.6769642
  20.3250880 116.3462764  41.2342025  19.5984043 116.2118729  40.6258517
  19.9098167 116.6539593  42.0398743   8.1481056 120.0652694  48.9989398
   9.0684066 120.2431293  49.1929445   8.1130639 119.1208739  48.8469098
   1.1443129 117.9753729  41.6412179   1.3629139 118.9070837  41.6600213
   1.5568903 117.6161703  42.4266983   8.0647347 108.4821814  33.6287868
   7.2548075 108.1368899  34.0043114   8.7531763 108.1729358  34.2175479
   9.9937895 107.5599861  35.2512165  10.5468933 107.9795314  35.9102188
  10.2307981 106.6335609  35.2935121   6.0170994 113.5486935  51.0314928
   5.9167721 114.4981291  50.9627020   5.7992536 113.2205173  50.1590999
  13.3716702 109.6700386  34.7590829  12.7915371 110.3285190  34.3768881
  13.1052635 108.8477731  34.3478246  11.8220268 109.0705444  36.9612149
  12.3220047 109.1821978  36.1526468  12.4655876 108.7666497  37.6012958
   5.8802264 116.9784073  49.8479990   5.3969346 117.7784433  50.0543879
   5.9663203 116.9892018  48.8947434   1.8075602 120.8688608  41.8848424
   2.7618855 120.8372550  41.8178355   1.6088125 120.4079232  42.6998650
   2.3974984 119.4389724  44.4519222   3.2167873 119.9333803  44.4754059
   2.6711791 118.5221692  44.4236789  12.1541580 111.8300476  33.8147177
  11.2667435 112.1150127  33.5967372  12.5695569 111.6694240  32.9674454
  15.5056116 111.8546997  37.5301516  16.2816506 112.3443450  37.8026133
  14.7804250 112.2805052  37.9873386  17.9428675 112.5674617  38.5875457
  18.5373166 112.3270353  37.8768765  18.0155258 111.8481747  39.2148993
  12.1282604 117.3455012  34.0297467  12.0717805 117.8023564  33.1905100
  12.6810946 116.5845697  33.8520310  15.9387410 113.1344744  34.8547587
  15.6824344 112.7341380  35.6855794  15.3140278 113.8488538  34.7297726
  20.2499747 115.8740817  37.3618878  19.6899305 115.9434007  38.1350440
  19.6443251 115.6981802  36.6418374  13.2071491 122.0327680  29.9593657
  14.0417095 121.6008879  29.7771132  13.0455834 121.8609694  30.8870552
  12.8617383 118.5359794  31.3249996  12.8066187 118.3704065  30.3838440
  12.2363438 119.2435826  31.4812186  10.1763290 120.8408705  50.6503559
  11.0454450 121.0149358  50.2890194   9.6970042 121.6603122  50.5279288
   6.1713508 108.0367903  30.9035315   6.1592178 108.9809743  31.0603586
   7.0636930 107.8538048  30.6094776   4.3449470 127.9605806  42.3292993
   5.2476717 127.9929417  42.6459488   4.1186840 127.0306257  42.3439329
   6.1003072 126.7136793  38.9903071   5.1498703 126.7138655  38.8767444
   6.4035559 125.9669528  38.4739106   9.9865628 104.6310679  35.1581252
   9.2198024 104.0769166  35.3037934  10.3976333 104.7032548  36.0195403
   1.9907389 110.9195475  49.2486433   2.8538851 110.5632280  49.4589757
   1.4172800 110.5809370  49.9361837  21.8355766 132.5497331  40.0548834
  22.4734176 132.4304079  39.3512174  21.7176609 133.4978175  40.1136786
  18.6445472 132.5024759  39.9910359  18.3063984 132.3865824  39.1030893
  19.5135240 132.1015925  39.9711365  19.1265255 133.6559611  45.9496564
  19.1153896 133.2612409  45.0777068  19.2885895 132.9225684  46.5430335
  12.0496720 135.8511428  38.8191470  12.8418012 135.5102252  38.4037769
  12.2893370 135.9606403  39.7393623  15.8472516 136.4396723  44.8975748
  15.5562382 137.3442354  44.7822414  16.4829501 136.4813251  45.6119818
  16.7728723 133.8173572  41.4877108  17.3692295 133.5929594  40.7734071
  16.8303695 133.0758317  42.0902556  21.3897034 130.2748785  37.1302042
  22.1760124 129.8568208  36.7792459  21.6535739 131.1794877  37.2983690
  21.5607112 135.7121636  31.8290699  20.9252945 135.7856262  32.5411603
  21.2304518 136.3015234  31.1509778  26.7905462 130.2124018  38.0335020
  27.5230633 129.6423235  38.2672850  26.0344817 129.8245619  38.4741526
  18.4081581 132.6351260  35.2298363  18.0439788 132.1081881  35.9411284
  19.2648697 132.2449729  35.0564848  24.3130882 123.9245593  42.4929629
  23.9814207 124.7941004  42.2690844  23.7176495 123.6081877  43.1723659
  18.0487068 127.6641160  30.2259711  18.2161471 128.5321396  30.5930182
  17.8584237 127.8268441  29.3021001  20.8062401 136.1258139  41.8925542
  20.5063124 137.0283177  41.7841349  20.4613461 135.8590322  42.7446695
  14.2574883 132.5771935  37.9262246  13.3325379 132.4448149  38.1339938
  14.5059296 133.3566155  38.4232189  24.2059545 128.6440679  39.5722979
  23.2976423 128.5756087  39.2781740  24.1547141 129.1212624  40.4004805
  18.0276289 130.1198817  31.2106378  17.9075914 130.5655868  32.0491858
  17.3328877 130.4684135  30.6519916  11.6183694 132.2205209  38.7606035
  11.7476075 132.4739688  39.6745447  10.9381145 132.8132917  38.4410690
  18.2800411 130.0630324  47.5157876  17.5033745 130.6224244  47.5060741
  18.9190974 130.5487107  48.0372746  26.0721192 126.8457117  41.3500853
  25.4295572 127.1389650  40.7040648  25.5676120 126.7310037  42.1554050
  23.7261355 130.5920290  32.0386712  24.6379211 130.8247677  31.8634410
  23.2171002 131.1757335  31.4761791  16.5346783 132.8715778  47.0775843
  17.2761468 133.4100822  46.8010667  15.8283769 133.4982066  47.2347395
  22.0102123 135.0144918  45.6748005  22.4185479 134.5727329  44.9302637
  21.2879384 134.4397546  45.9282198  18.3633193 129.9517525  43.0481562
  19.2094388 130.3756938  43.1916211  18.3031831 129.2951149  43.7420125
  22.3330938 135.5746109  39.4300294  21.7039800 135.7391823  38.7276362
  21.9456600 135.9887718  40.2011258  26.2120169 136.5100547  36.7844657
  25.5271208 136.8899448  36.2341691  26.2964019 137.1195873  37.5176605
  21.5132638 127.6121893  44.7062735  21.2693570 128.3663954  44.1697011
  21.7892569 127.9907241  45.5409982  23.4671101 134.1560506  43.3840001
  23.6787996 134.7992266  42.7074382  23.4200849 133.3222822  42.9161931
  21.0697330 126.7678326  40.2876573  20.2081809 127.0659580  40.5793311
  21.0959765 126.9848725  39.3557606  17.8858899 135.3120517  36.6950379
  18.3497245 135.5908220  35.9055001  17.6215698 134.4103961  36.5123469
  14.7782981 134.8591998  39.6330142  15.3484338 135.2879267  38.9947627
  15.3691092 134.5774583  40.3314328  16.8227786 131.4343669  33.5039944
  17.5251829 131.8864713  33.9713870  16.4908414 130.7927488  34.1319837
  15.2708147 130.0255426  47.8791153  14.6406808 130.7071707  48.1126550
  15.1644235 129.9138507  46.9344292  10.5653119 129.6927222  38.8057077
   9.7752173 129.9484750  38.3297188  11.0564367 130.5075560  38.9109118
  24.5816929 137.0332461  41.5562358  25.4034373 136.6312648  41.2745040
  24.5779332 136.9300695  42.5078474  12.5167865 130.0571801  35.7640554
  11.7199028 130.1690495  36.2824050  12.2893457 130.3958453  34.8981445
  18.3473532 136.5816504  43.7123069  18.4117965 137.0436912  44.5481241
  17.6384456 135.9513869  43.8405379   8.8490822 129.9457712  41.2372068
   9.0998861 130.8304722  41.5029644   9.3850371 129.7662314  40.4647160
  32.6722922 133.3771210  37.9047330  31.9186630 132.8078608  37.7491334
  32.8070463 133.3433874  38.8517964  14.5488890 124.3276192  50.2416404
  14.1555835 123.7742390  50.9164049  15.3655030 124.6386770  50.6322922
  17.4656851 125.7434071  47.8336661  18.2066564 126.3441224  47.7541123
  17.6974774 125.0011709  47.2754703  12.6098189 130.9290438  46.1114891
  12.4951704 130.0275695  46.4121990  11.7542707 131.1754135  45.7599707
  19.6890027 138.8708178  47.7102391  19.2453881 138.0844557  47.3923296
  20.3507240 139.0587329  47.0446282  21.7871265 139.1510978  45.7383792
  21.7689740 139.9719859  45.2464062  22.7091185 139.0265053  45.9633934
  18.2444319 136.6655108  46.5807301  18.7772656 135.9043396  46.3506609
  17.7158400 136.3728760  47.3231455  21.4114014 121.7715174  42.1100943
  21.0678283 122.6616815  42.0340053  21.7792976 121.5816831  41.2470528
  21.3764296 131.7623785  30.6173378  20.8610920 132.5328389  30.8561765
  21.1041605 131.0888921  31.2406439  18.9611407 126.6073486  35.6758616
  18.1053004 126.2180336  35.4964255  19.3738359 126.6865446  34.8158402
  20.4910554 124.1419829  40.0750176  19.9875350 124.1049964  39.2617981
  20.7841161 125.0512572  40.1346832  16.7353440 124.2258559  39.0816358
  17.6006437 124.0301367  38.7222247  16.8030949 123.9968910  40.0085714
  26.3498571 134.5156139  32.5526551  25.5728013 134.1767299  32.1081713
  27.0290052 134.5208763  31.8781516  21.1650600 129.6350877  32.4433159
  20.8600735 129.9497026  33.2943302  22.1181042 129.7132297  32.4860492
  19.6097031 135.7941100  34.0926113  19.0818393 135.0593860  33.7799350
  19.1084534 136.5715777  33.8466081  24.5889877 133.9890121  39.2093159
  23.9313552 134.6789382  39.2973288  25.3930277 134.3786553  39.5527146
  14.3415759 126.4560767  36.4532724  14.9159511 126.2335948  35.7205917
  14.9286741 126.5249461  37.2061326  23.3995336 132.3434493  37.2597101
  23.9127218 132.9764485  37.7618811  24.0496560 131.7435689  36.8940461
  16.6438427 123.3302015  35.1807794  15.9902839 123.0151033  34.5564409
  16.6018901 122.7077756  35.9067617  19.8776167 129.8183949  39.5055441
  18.9598728 130.0398896  39.3477129  20.2936311 129.8930259  38.6467149
  20.6611215 131.2175365  34.6358122  21.4083034 131.7296762  34.3265244
  20.9302804 130.8959417  35.4962515  24.1657132 137.3240495  35.3876244
  23.7119460 136.4831405  35.4441434  23.5351099 137.9601893  35.7251024
  23.1090052 128.2532481  36.6176911  22.3712809 127.7409867  36.9487154
  23.3616826 127.8132863  35.8060188  22.6090072 139.1616992  36.3226062
  22.9013046 139.7222049  35.6038427  23.1188692 139.4545553  37.0779221
  23.2101679 121.0308733  37.2118680  23.5160556 120.1706096  36.9244595
  23.9354284 121.6226353  37.0117674  17.4822759 131.3262526  37.7194871
  17.5371369 130.3736362  37.6437348  16.6713961 131.4821965  38.2036170
  15.4215119 129.9439586  35.4785250  14.6082985 130.2433756  35.8850442
  15.9174113 129.5495274  36.1959732  17.5723697 139.9397343  37.4119515
  17.5299876 140.1658189  36.4828047  18.4886396 139.7060717  37.5605316
  21.0189331 130.4081410  44.3100144  21.3738718 130.6352883  45.1694610
  21.6661462 130.7399787  43.6877399  26.7487068 133.5299846  35.0149473
  26.6104966 133.7201442  34.0870662  26.3923286 134.2919229  35.4717524
  14.9129194 127.5157941  41.0946485  15.5528573 127.3746700  40.3969448
  14.0806724 127.2292455  40.7185087  26.7756447 135.5976373  40.0260745
  27.2092954 135.5051662  40.8743799  27.4888028 135.5733874  39.3880761
  15.6889498 136.8160372  37.2081478  16.4830096 136.3210692  37.0064053
  14.9781190 136.2878235  36.8449183  20.5084342 139.1978467  41.5593845
  20.5621364 139.7669404  42.3271561  19.6399124 139.3680352  41.1947882
  11.9157810 127.4858266  35.8719472  12.1764627 128.4003599  35.7628632
  12.7374983 127.0182709  36.0216085  13.3882736 128.8996023  43.0418296
  14.0605789 128.6913386  42.3930945  12.5612522 128.7018109  42.6023529
  27.6371997 135.6400074  42.5593630  27.8307887 136.5445884  42.8052905
  27.5372615 135.1807493  43.3932215  19.2908308 125.5257964  45.0583957
  18.6436223 126.2247914  44.9648434  20.0609323 125.9594108  45.4260206
  22.6987105 135.7906816  48.1334511  22.5472612 135.5617368  47.2164594
  22.6891785 136.7477418  48.1465856  19.4672442 133.3638729  43.1180777
  20.3964502 133.5149889  42.9449744  19.0463472 133.4522750  42.2629424
  18.2660774 137.3889394  40.8879315  18.1271859 137.0208178  41.7605253
  17.4775370 137.9037033  40.7163273  19.8165989 136.7670996  38.2768152
  19.4815821 136.7271766  39.1725802  19.3169934 136.1015712  37.8038563
  13.7910233 132.1738626  43.8020734  13.6530031 131.4418865  44.4032273
  14.7015156 132.0847526  43.5204921  16.4192533 131.8858586  43.2904413
  17.1292152 131.2451778  43.2491032  16.3761842 132.1371481  44.2130594
  24.4079312 138.8225939  46.2110993  24.3491858 138.1385159  45.5441576
  24.8098831 139.5644929  45.7591618  15.1321467 128.8723804  45.1100053
  14.5958824 128.4214542  45.7621649  14.5438176 129.0069712  44.3670517
  24.4096719 136.7865523  44.4424972  23.5223498 136.4491445  44.5651371
  24.9795270 136.0548554  44.6793738  10.8660589 128.0079811  42.1953047
  10.7818777 127.4005481  41.4603457  10.0443295 128.4988830  42.1962544
  21.0384303 126.4933375  37.5623242  21.5353002 125.7403337  37.2424313
  20.2671284 126.5297691  36.9966452  28.8914060 132.1973740  39.2041534
  28.8803936 133.0798456  38.8335467  28.0231439 131.8445291  39.0096071
  22.1214083 135.2505062  35.1361666  21.1870362 135.3706524  34.9666370
  22.2990752 134.3477529  34.8721676  17.6219271 128.6350758  37.2894927
  17.2517059 128.0821798  37.9775832  18.1178364 128.0308891  36.7369927
  25.5086635 131.0922381  35.6711700  25.9747087 131.9250373  35.5972003
  25.9594135 130.6267363  36.3756958  15.4508470 139.0948253  44.3849945
  16.1517929 139.7284736  44.5379339  14.9803585 139.4362984  43.6245584
  23.5762866 137.4366203  32.6697852  23.8522710 137.3222797  33.5791726
  22.7067364 137.0383687  32.6310025  23.4803297 123.4602968  39.7102601
  22.5666377 123.6907195  39.8784808  23.9096399 123.5441412  40.5616634
  23.2509756 131.6492860  42.2102495  22.5981206 131.8968768  41.5554948
  23.6290136 130.8356998  41.8764973  19.2997329 132.3912671  48.6968532
  18.6237966 132.2906801  49.3670908  20.1224963 132.2351885  49.1604530
  13.0184605 126.0454749  43.5348033  13.0825931 126.9069579  43.1225431
  12.9551725 125.4328750  42.8020392  12.4936877 128.1177881  47.1821067
  13.1208916 127.7354958  47.7958592  11.6364796 127.8992083  47.5476760
  22.8930986 138.5240856  48.7874803  23.4370890 139.1370815  48.2929758
  22.3117831 139.0820435  49.3041816  12.7996667 128.0010307  39.0966971
  12.0783253 128.6146275  38.9574444  13.5889923 128.5368072  39.0183617
  23.2423407 139.4470594  41.5469381  22.2953743 139.3275946  41.4747707
  23.5906180 138.5593092  41.6295642  15.6022981 125.3364733  45.3707622
  16.1257383 125.5827030  46.1333932  15.3835314 126.1684768  44.9510760
  20.2469841 139.2423311  37.7473733  20.0994803 138.3140018  37.9281303
  21.0723334 139.2643401  37.2630808  14.1132085 127.8941378  33.6054225
  14.4528157 128.4227299  32.8832833  14.5604205 128.2321784  34.3812791
  23.8503963 140.0651869  38.8338606  24.7750510 139.8594731  38.6963057
  23.6819266 139.8168271  39.7427947  16.8075526 126.2778428  43.0557293
  16.4672346 125.4786241  43.4577973  16.1014532 126.5780139  42.4834126
  17.4591998 123.3627741  41.5084616  18.2818067 122.8888219  41.3863506
  17.7030061 124.1418225  42.0083302  16.1000232 126.3915999  31.8047518
  16.8208595 126.7697252  31.3011235  15.4765536 127.1104876  31.9082496
  20.2431355 127.0961148  32.7405850  20.4594969 127.9785786  32.4394678
  19.7625422 126.7047362  32.0111492  14.9830576 130.0546861  39.3176595
  14.8375157 130.3687165  40.2100876  14.5055780 130.6731762  38.7647493
  16.8426959 127.0449409  39.3657484  16.8288528 126.1490503  39.0289782
  17.5599387 127.0520073  39.9995770  18.6953090 127.4786750  41.4110612
  18.4370868 128.4003820  41.4094942  18.1638130 127.0817184  42.1011076
  23.6399279 140.5837537  34.1900697  23.8136156 140.0183959  33.4374549
  24.1328170 141.3838432  34.0080187   9.4576239 132.5952206  42.2564256
   8.9129707 133.3712014  42.3884530  10.3355588 132.9423010  42.0983377
  16.2463855 125.9263790  34.6345054  16.3679766 124.9980436  34.8335942
  15.9565898 125.9402476  33.7223370  19.1155046 123.6118700  37.7711774
  19.1376742 123.6758033  36.8163754  19.5323105 122.7723209  37.9652280
  29.4938670 133.3473960  35.8090997  29.9369816 132.5981285  35.4110120
  28.6165180 133.3384096  35.4264729  24.6274451 139.9004301  31.2897595
  25.3225356 140.5210994  31.5084910  24.9697601 139.0499652  31.5649973
  10.2442260 131.7222102  45.1494413   9.5023996 131.8704737  45.7359043
   9.9235005 131.9830368  44.2861162  26.5265874 137.3504007  32.8184926
  27.0517198 137.6891279  32.0934246  26.4388227 136.4151022  32.6348061
  15.6580407 138.9613999  39.2502481  15.0360417 138.2984704  38.9504709
  16.3285274 138.9875131  38.5676129  15.7304935 127.4395787  48.8434987
  15.7793090 128.3157910  48.4612757  16.2727449 126.8973180  48.2706630
  26.2159780 137.9836910  48.1236124  25.4255324 137.9661049  47.5840623
  25.9793135 138.5225204  48.8785161  26.3357655 134.8329377  45.4368853
  26.3855660 134.6679384  46.3784375  26.2271579 133.9656636  45.0466733
  23.6261418 130.8160305  46.7528159  24.5271281 130.6766770  46.4612157
  23.7009392 130.9814760  47.6926337  17.9604223 128.1927160  45.5981346
  17.0907533 128.4860726  45.3263934  18.1963704 128.7767605  46.3188609
  27.8375852 137.2526318  45.6810874  27.5460661 137.6156299  46.5174335
  27.2247984 136.5393327  45.5024206  29.0371535 134.8179198  38.2013444
  29.8718426 135.2569002  38.3651005  29.1730663 134.3417851  37.3821690
  26.0863041 132.3758933  44.1490932  26.5617162 132.5686579  43.3409783
  25.1628606 132.4318119  43.9034316  20.6643257 124.4106776  43.1146766
  21.1825201 125.1467803  42.7893255  20.3098390 124.7170770  43.9493525
  20.9155851 120.8307059  38.6347663  21.1957605 120.1630248  39.2608089
  21.7006458 121.0236155  38.1222326  24.7864710 129.2524693  42.3819238
  25.7382132 129.3522791  42.4031462  24.6168160 128.4602962  42.8917322
  22.8079089 126.3380276  42.5678639  22.2129021 126.6185289  41.8725127
  22.5228786 126.8274177  43.3395380  27.2652787 132.4730813  41.4961537
  27.2329107 131.5346813  41.6821221  27.8753411 132.5514849  40.7627362
  27.4147276 129.2641856  41.5419820  26.8986324 128.4800313  41.3549749
  28.2987224 128.9360573  41.7066340  25.0758003 123.0082872  37.5015633
  24.8782824 122.6997960  38.3858965  25.6857708 123.7344511  37.6313563
  33.0829337 133.5346820  40.6367574  33.8132726 133.2732108  41.1975277
  32.4736283 132.7975541  40.6769642  31.1644634 131.6754682  41.2342025
  30.4377798 131.5410647  40.6258517  30.7491921 131.9831511  42.0398743
  18.9874811 135.3944612  48.9989398  19.9077820 135.5723211  49.1929445
  18.9524394 134.4500657  48.8469098  11.9836883 133.3045646  41.6412179
  12.2022893 134.2362754  41.6600213  12.3962657 132.9453621  42.4266983
  18.9041101 123.8113732  33.6287868  18.0941829 123.4660817  34.0043114
  19.5925518 123.5021275  34.2175479  20.8331649 122.8891779  35.2512165
  21.3862688 123.3087232  35.9102188  21.0701736 121.9627527  35.2935121
  16.8564749 128.8778852  51.0314928  16.7561475 129.8273209  50.9627020
  16.6386291 128.5497091  50.1590999  24.2110456 124.9992304  34.7590829
  23.6309125 125.6577108  34.3768881  23.9446389 124.1769648  34.3478246
  22.6614023 124.3997361  36.9612149  23.1613801 124.5113896  36.1526468
  23.3049631 124.0958414  37.6012958  16.7196019 132.3075991  49.8479990
  16.2363100 133.1076351  50.0543879  16.8056958 132.3183936  48.8947434
  12.6469356 136.1980526  41.8848424  13.6012610 136.1664468  41.8178355
  12.4481880 135.7371149  42.6998650  13.2368738 134.7681642  44.4519222
  14.0561627 135.2625720  44.4754059  13.5105546 133.8513610  44.4236789
  22.9935334 127.1592394  33.8147177  22.1061189 127.4442045  33.5967372
  23.4089324 126.9986157  32.9674454  26.3449871 127.1838915  37.5301516
  27.1210261 127.6735368  37.8026133  25.6198005 127.6096969  37.9873386
  28.7822429 127.8966534  38.5875457  29.3766920 127.6562270  37.8768765
  28.8549013 127.1773665  39.2148993  22.9676358 132.6746930  34.0297467
  22.9111560 133.1315481  33.1905100  23.5204701 131.9137615  33.8520310
  26.7781164 128.4636662  34.8547587  26.5218098 128.0633298  35.6855794
  26.1534032 129.1780456  34.7297726  31.0893502 131.2032735  37.3618878
  30.5293060 131.2725924  38.1350440  30.4837005 131.0273720  36.6418374
  24.0465245 137.3619598  29.9593657  24.8810849 136.9300796  29.7771132
  23.8849588 137.1901612  30.8870552  23.7011137 133.8651711  31.3249996
  23.6459941 133.6995983  30.3838440  23.0757193 134.5727744  31.4812186
   8.4903652 129.1019776  45.1511419   9.1362516 128.5918730  45.6398644
   8.2820804 129.8388457  45.7254844  21.0157045 136.1700623  50.6503559
  21.8848204 136.3441275  50.2890194  20.5363796 136.9895040  50.5279288
  17.0107263 123.3659820  30.9035315  16.9985933 124.3101660  31.0603586
  17.9030685 123.1829966  30.6094776  20.8259382 119.9602597  35.1581252
  20.0591778 119.4061084  35.3037934  21.2370087 120.0324466  36.0195403
  12.8301143 126.2487393  49.2486433  13.6932605 125.8924198  49.4589757
  12.2566554 125.9101288  49.9361837  37.6299216 145.5415936  38.0335020
  38.3624388 144.9715153  38.2672850  36.8738572 145.1537537  38.4741526
  35.1524636 139.2537510  42.4929629  34.8207961 140.1232921  42.2690844
  34.5570250 138.9373794  43.1723659  28.8880823 142.9933077  30.2259711
  29.0555225 143.8613314  30.5930182  28.6977992 143.1560359  29.3021001
  35.0453300 143.9732596  39.5722979  34.1370177 143.9048005  39.2781740
  34.9940895 144.4504541  40.4004805  36.9114946 142.1749035  41.3500853
  36.2689326 142.4681568  40.7040648  36.4069875 142.0601955  42.1554050
  32.3526393 142.9413811  44.7062735  32.1087325 143.6955871  44.1697011
  32.6286323 143.3199159  45.5409982  31.9091085 142.0970244  40.2876573
  31.0475564 142.3951498  40.5793311  31.9353519 142.3140643  39.3557606
  43.5116677 148.7063127  37.9047330  42.7580385 148.1370525  37.7491334
  43.6464218 148.6725792  38.8517964  25.3882644 139.6568109  50.2416404
  24.9949590 139.1034308  50.9164049  26.2048785 139.9678688  50.6322922
  28.3050605 141.0725988  47.8336661  29.0460319 141.6733142  47.7541123
  28.5368528 140.3303626  47.2754703  32.2507768 137.1007091  42.1100943
  31.9072038 137.9908733  42.0340053  32.6186731 136.9108749  41.2470528
  29.8005162 141.9365403  35.6758616  28.9446758 141.5472254  35.4964255
  30.2132114 142.0157364  34.8158402  31.3304309 139.4711747  40.0750176
  30.8269104 139.4341882  39.2617981  31.6234915 140.3804489  40.1346832
  27.5747194 139.5550476  39.0816358  28.4400191 139.3593285  38.7222247
  27.6424703 139.3260828  40.0085714  32.0044354 144.9642795  32.4433159
  31.6994490 145.2788944  33.2943302  32.9574796 145.0424214  32.4860492
  25.1809514 141.7852684  36.4532724  25.7553265 141.5627866  35.7205917
  25.7680496 141.8541379  37.2061326  27.4832181 138.6593933  35.1807794
  26.8296594 138.3442950  34.5564409  27.4412655 138.0369674  35.9067617
  33.9483807 143.5824399  36.6176911  33.2106563 143.0701785  36.9487154
  34.2010580 143.1424780  35.8060188  34.0495434 136.3600651  37.2118680
  34.3554311 135.4998014  36.9244595  34.7748039 136.9518271  37.0117674
  25.7522948 142.8449859  41.0946485  26.3922328 142.7038618  40.3969448
  24.9200479 142.5584372  40.7185087  30.1302062 140.8549882  45.0583957
  29.4829977 141.5539832  44.9648434  30.9003077 141.2886026  45.4260206
  31.8778057 141.8225292  37.5623242  32.3746757 141.0695255  37.2424313
  31.1065039 141.8589609  36.9966452  28.4613026 143.9642675  37.2894927
  28.0910813 143.4113716  37.9775832  28.9572118 143.3600809  36.7369927
  34.3197052 138.7894886  39.7102601  33.4060132 139.0199113  39.8784808
  34.7490153 138.8733330  40.5616634  23.8578359 141.3746666  43.5348033
  23.9219686 142.2361497  43.1225431  23.7945480 140.7620668  42.8020392
  26.4416735 140.6656651  45.3707622  26.9651137 140.9118948  46.1333932
  26.2229069 141.4976686  44.9510760  27.6469280 141.6070346  43.0557293
  27.3066101 140.8078159  43.4577973  26.9408287 141.9072057  42.4834126
  28.2985752 138.6919659  41.5084616  29.1211821 138.2180137  41.3863506
  28.5423816 139.4710142  42.0083302  26.9393987 141.7207917  31.8047518
  27.6602349 142.0989170  31.3011235  26.3159291 142.4396794  31.9082496
  31.0825109 142.4253066  32.7405850  31.2988724 143.3077704  32.4394678
  30.6019177 142.0339279  32.0111492  27.6820714 142.3741327  39.3657484
  27.6682282 141.4782420  39.0289782  28.3993142 142.3811991  39.9995770
  29.5346844 142.8078667  41.4110612  29.2764622 143.7295738  41.4094942
  29.0031885 142.4109102  42.1011076  27.0857610 141.2555707  34.6345054
  27.2073521 140.3272354  34.8335942  26.7959652 141.2694393  33.7223370
  29.9548800 138.9410618  37.7711774  29.9770497 139.0049951  36.8163754
  30.3716859 138.1015126  37.9652280  34.4655172 146.1452222  46.7528159
  35.3665035 146.0058687  46.4612157  34.5403147 146.3106677  47.6926337
  28.7997978 143.5219077  45.5981346  27.9301287 143.8152643  45.3263934
  29.0357458 144.1059522  46.3188609  31.5037011 139.7398694  43.1146766
  32.0218955 140.4759721  42.7893255  31.1492144 140.0462687  43.9493525
  31.7549606 136.1598977  38.6347663  32.0351359 135.4922166  39.2608089
  32.5400213 136.3528072  38.1222326  35.6258464 144.5816611  42.3819238
  36.5775887 144.6814708  42.4031462  35.4561914 143.7894879  42.8917322
  33.6472843 141.6672194  42.5678639  33.0522776 141.9477207  41.8725127
  33.3622540 142.1566095  43.3395380  38.2541030 144.5933774  41.5419820
  37.7380079 143.8092230  41.3549749  39.1380979 144.2652490  41.7066340
  35.9151757 138.3374789  37.5015633  35.7176578 138.0289878  38.3858965
  36.5251463 139.0636428  37.6313563  43.9223092 148.8638737  40.6367574
  44.6526480 148.6024025  41.1975277  43.3130037 148.1267459  40.6769642
  42.0038389 147.0046600  41.2342025  41.2771552 146.8702565  40.6258517
  41.5885676 147.3123428  42.0398743  29.7434856 139.1405649  33.6287868
  28.9335584 138.7952734  34.0043114  30.4319272 138.8313193  34.2175479
  31.6725404 138.2183696  35.2512165  32.2256442 138.6379150  35.9102188
  31.9095490 137.2919444  35.2935121  35.0504211 140.3284221  34.7590829
  34.4702880 140.9869025  34.3768881  34.7840144 139.5061566  34.3478246
  33.5007777 139.7289279  36.9612149  34.0007556 139.8405814  36.1526468
  34.1443385 139.4250332  37.6012958  33.8329089 142.4884312  33.8147177
  32.9454944 142.7733962  33.5967372  34.2483078 142.3278075  32.9674454
  37.1843625 142.5130833  37.5301516  37.9604015 143.0027285  37.8026133
  36.4591759 142.9388887  37.9873386  39.6216184 143.2258452  38.5875457
  40.2160674 142.9854188  37.8768765  39.6942767 142.5065583  39.2148993
  37.6174919 143.7928580  34.8547587  37.3611853 143.3925215  35.6855794
  36.9927787 144.5072373  34.7297726  41.9287256 146.5324653  37.3618878
  41.3686814 146.6017842  38.1350440  41.3230760 146.3565637  36.6418374
  27.8501017 138.6951738  30.9035315  27.8379687 139.6393578  31.0603586
  28.7424439 138.5121883  30.6094776  31.6653137 135.2894515  35.1581252
  30.8985533 134.7353001  35.3037934  32.0763842 135.3616383  36.0195403
  23.6694898 141.5779310  49.2486433  24.5326360 141.2216115  49.4589757
  23.0960309 141.2393205  49.9361837   5.1117954  76.5602306  24.7580327
   5.8443126  75.9901522  24.9918156   4.3557310  76.1723906  25.1986833
   2.6343374  70.2723880  29.2174936   2.3026699  71.1419291  28.9936151
   2.0388988  69.9560164  29.8968966   2.5272037  74.9918966  26.2968286
   1.6188915  74.9234374  26.0027047   2.4759633  75.4690911  27.1250111
   4.3933684  73.1935404  28.0746160   3.7508064  73.4867938  27.4285954
   3.8888612  73.0788325  28.8799356   2.0473848  76.9398578  18.7632019
   2.9591704  77.1725964  18.5879716   1.5383495  77.5235622  18.2007097
   4.5332662  82.8578834  23.5089964   3.8483700  83.2377735  22.9586997
   4.6176511  83.4674161  24.2421912   1.7883593  80.5038793  30.1085308
   2.0000489  81.1470553  29.4319689   1.7413342  79.6701109  29.6407238
   2.9029421  83.3810748  28.2807665   3.7246865  82.9790936  27.9990347
   2.8991824  83.2778982  29.2323781  10.9935414  79.7249497  24.6292636
  10.2399123  79.1556895  24.4736641  11.1282956  79.6912161  25.5763271
   4.6711063  80.8634427  19.2771858   3.8940506  80.5245586  18.8327020
   5.3502544  80.8687050  18.6026823   2.9102370  80.3368408  25.9338466
   2.2526044  81.0267669  26.0218594   3.7142769  80.7264840  26.2772452
   1.7207829  78.6912781  23.9842408   2.2339710  79.3242772  24.4864117
   2.3709052  78.0913976  23.6185768   2.4869625  83.6718782  22.1121550
   2.0331952  82.8309692  22.1686741   1.8563591  84.3080180  22.4496330
   1.4302544  74.6010768  23.3422218   0.6925301  74.0888154  23.6732460
   1.6829318  74.1611150  22.5305494   0.9302564  85.5095279  23.0471368
   1.2225538  86.0700336  22.3283734   1.4401185  85.8023840  23.8024527
   1.5314172  67.3787020  23.9363987   1.8373048  66.5184384  23.6489902
   2.2566776  67.9704640  23.7362981   5.0699560  79.8778133  21.7394780
   4.9317459  80.0679729  20.8115969   4.7135779  80.6397516  22.1962831
   5.0968940  81.9454660  26.7506051   5.5305446  81.8529949  27.5989105
   5.8100520  81.9212161  26.1126067   5.9584489  81.9878361  29.2838937
   6.1520379  82.8924171  29.5298212   5.8585107  81.5285780  30.1177522
   1.0199598  82.1385104  34.8579817   0.8685104  81.9095655  33.9409901
   1.0104277  83.0955705  34.8711162   2.7291804  85.1704226  32.9356299
   2.6704351  84.4863446  32.2686882   3.1311323  85.9123216  32.4836925
   2.7309212  83.1343810  31.1670279   1.8435990  82.7969732  31.2896678
   3.3007763  82.4026841  31.4039044   7.2126552  78.5452028  25.9286840
   7.2016428  79.4276743  25.5580774   6.3443932  78.1923578  25.7341378
   3.8299127  77.4400669  22.3957006   4.2959579  78.2728660  22.3217309
   4.2806627  76.9745650  23.1002265   1.8975358  83.7844490  19.3943159
   2.1735202  83.6701084  20.3037033   1.0279857  83.3861975  19.3555332
   1.8015790  69.8081256  26.4347908   0.8878869  70.0385482  26.6030115
   2.2308891  69.8919700  27.2861940   1.5722248  77.9971148  28.9347802
   0.9193698  78.2447055  28.2800255   1.9502628  77.1835286  28.6010279
   1.2143478  84.8719144  35.5120109   1.7583382  85.4849102  35.0175064
   0.6330323  85.4298722  36.0287122   1.5635900  85.7948882  28.2714687
   0.6166235  85.6754233  28.1993014   1.9118673  84.9071380  28.3540949
   2.1716455  86.4130157  25.5583912   3.0963002  86.2073018  25.4208363
   2.0031758  86.1646558  26.4673254   1.9611771  86.9315824  20.9146004
   2.1348649  86.3662247  20.1619856   2.4540662  87.7316719  20.7325494
   7.8151162  79.6952247  22.5336303   8.2582308  78.9459572  22.1355427
   6.9377672  79.6862383  22.1510035   2.9486943  86.2482588  18.0142902
   3.6437848  86.8689281  18.2330217   3.2910094  85.3977940  18.2895280
   4.8478367  83.6982294  19.5430233   5.3729691  84.0369567  18.8179553
   4.7600719  82.7629309  19.3593367   4.5372273  84.3315198  34.8481431
   3.7467816  84.3139336  34.3085930   4.3005627  84.8703491  35.6030467
   4.6570148  81.1807664  32.1614159   4.7068153  81.0157671  33.1029682
   4.5484071  80.3134923  31.7712040   1.9473910  77.1638592  33.4773466
   2.8483773  77.0245057  33.1857464   2.0221885  77.3293047  34.4171643
   6.1588345  83.6004605  32.4056181   5.8673153  83.9634586  33.2419642
   5.5460476  82.8871614  32.2269513   7.3584027  81.1657485  24.9258751
   8.1930918  81.6047289  25.0896311   7.4943156  80.6896138  24.1066997
   4.4075533  78.7237220  30.8736239   4.8829654  78.9164866  30.0655090
   3.4841098  78.7796406  30.6279622   3.1077202  75.6002980  29.1064544
   4.0594625  75.7001078  29.1276768   2.9380652  74.8081249  29.6162629
   1.1291581  72.6858563  29.2923945   0.5341513  72.9663576  28.5970434
   0.8441278  73.1752464  30.0640686   5.5865280  78.8209100  28.2206844
   5.5541600  77.8825101  28.4066528   6.1965903  78.8993137  27.4872669
   5.7359768  75.6120143  28.2665127   5.2198817  74.8278600  28.0795056
   6.6199717  75.2838860  28.4311647   3.3970495  69.3561159  24.2260940
   3.1995316  69.0476247  25.1104272   4.0070201  70.0822798  24.3558870
  11.4041829  79.8825107  27.3612881  12.1345218  79.6210395  27.9220584
  10.7948775  79.1453829  27.4014949   9.4857127  78.0232969  27.9587332
   8.7590290  77.8888934  27.3503824   9.0704413  78.3309798  28.7644050
   2.5322949  71.3470591  21.4836135   1.9521618  72.0055395  21.1014188
   2.2658881  70.5247936  21.0723553   0.9826515  70.7475649  23.6857456
   1.4826293  70.8592183  22.8771775   1.6262123  70.4436701  24.3258264
   1.3147827  73.5070681  20.5392484   0.4273682  73.7920332  20.3212678
   1.7301816  73.3464445  19.6919761   4.6662363  73.5317202  24.2546823
   5.4422753  74.0213655  24.5271440   3.9410497  73.9575256  24.7118692
   7.1034921  74.2444822  25.3120764   7.6979412  74.0040557  24.6014072
   7.1761505  73.5251952  25.9394300   1.2888850  79.0225217  20.7542774
   1.2324052  79.4793769  19.9150406   1.8417193  78.2615902  20.5765617
   5.0993656  74.8114949  21.5792893   4.8430591  74.4111585  22.4101101
   4.4746524  75.5258743  21.4543032   9.4105994  77.5511022  24.0864185
   8.8505552  77.6204212  24.8595747   8.8049498  77.3752007  23.3663681
   2.3677738  83.7097885  16.6838964   3.2023342  83.2779084  16.5016438
   2.2062081  83.5379899  17.6115858   2.0223630  80.2129999  18.0495303
   1.9672434  80.0474270  17.1083747   1.3969685  80.9206031  18.2057493
  10.9962013  94.2267536  26.7794140  11.6340423  94.1074284  26.0757481
  10.8782856  95.1748380  26.8382093   7.8051719  94.1794964  26.7155665
   7.4670230  94.0636029  25.8276200   8.6741487  93.7786130  26.6956671
   8.2871502  95.3329816  32.6741871   8.2760143  94.9382614  31.8022374
   8.4492141  94.5995889  33.2675642   1.2102967  97.5281632  25.5436777
   2.0024259  97.1872457  25.1283076   1.4499617  97.6376607  26.4638930
   5.0078763  98.1166928  31.6221055   4.7168629  99.0212559  31.5067721
   5.6435747  98.1583456  32.3365124   5.9334970  95.4943776  28.2122414
   6.5298542  95.2699799  27.4979377   5.9909941  94.7528522  28.8147862
  10.5503281  91.9518990  23.8547348  11.3366370  91.5338413  23.5037766
  10.8141985  92.8565082  24.0228997  10.7213359  97.3891840  18.5536005
  10.0859191  97.4626467  19.2656910  10.3910765  97.9785439  17.8755085
  15.9511708  91.8894223  24.7580327  16.6836880  91.3193440  24.9918156
  15.1951064  91.5015824  25.1986833   7.5687828  94.3121465  21.9543669
   7.2046035  93.7852086  22.6656591   8.4254944  93.9219934  21.7810155
  13.4737129  85.6015797  29.2174936  13.1420453  86.4711208  28.9936151
  12.8782742  85.2852081  29.8968966   7.2093315  89.3411365  16.9505018
   7.3767717  90.2091601  17.3175489   7.0190484  89.5038646  16.0266307
   9.9668648  97.8028343  28.6170848   9.6669371  98.7053382  28.5086656
   9.6219708  97.5360527  29.4692001   3.4181130  94.2542140  24.6507553
   2.4931626  94.1218354  24.8585245   3.6665543  95.0336360  25.1477495
  13.3665792  90.3210884  26.2968286  12.4582669  90.2526292  26.0027047
  13.3153388  90.7982829  27.1250111   7.1882536  91.7969022  17.9351685
   7.0682161  92.2426073  18.7737165   6.4935124  92.1454340  17.3765223
   7.4406658  91.7400529  34.2403183   6.6639992  92.2994449  34.2306048
   8.0797221  92.2257312  34.7618053  15.2327438  88.5227322  28.0746160
  14.5901819  88.8159855  27.4285954  14.7282367  88.4080242  28.8799356
  12.8867602  92.2690495  18.7632019  13.7985458  92.5017882  18.5879716
  12.3777249  92.8527539  18.2007097   5.6953030  94.5485983  33.8021150
   6.4367714  95.0871027  33.5255974   4.9890016  95.1752271  33.9592702
  11.1708370  96.6915123  32.3993311  11.5791726  96.2497534  31.6547944
  10.4485631  96.1167751  32.6527504   7.5239440  91.6287730  29.7726868
   8.3700635  92.0527143  29.9161517   7.4638077  90.9721354  30.4665431
  11.4937184  97.2516314  26.1545600  10.8646047  97.4162028  25.4521668
  11.1062846  97.6657923  26.9256564  15.3726416  98.1870752  23.5089964
  14.6877454  98.5669653  22.9586997  15.4570266  98.7966078  24.2421912
  10.6738885  89.2892098  31.4308042  10.4299817  90.0434159  30.8942318
  10.9498816  89.6677446  32.2655289  12.6277348  95.8330711  30.1085308
  12.8394243  96.4762470  29.4319689  12.5807096  94.9993027  29.6407238
  10.2303577  88.4448531  27.0121880   9.3688056  88.7429785  27.3038617
  10.2566011  88.6618930  26.0802912   7.0465146  96.9890722  23.4195685
   7.5103492  97.2678425  22.6300308   6.7821944  96.0874166  23.2368776
   3.9389227  96.5362203  26.3575449   4.5090584  96.9649472  25.7192933
   4.5297339  96.2544788  27.0559634   5.9834032  93.1113874  20.2285251
   6.6858076  93.5634918  20.6959177   5.6514661  92.4697693  20.8565144
   4.4314394  91.7025631  34.6036460   3.8013054  92.3841912  34.8371857
   4.3250482  91.5908712  33.6589598  13.7423176  98.7102666  28.2807665
  14.5640620  98.3082853  27.9990347  13.7385579  98.6070900  29.2323781
   1.6774112  91.7342006  22.4885861   0.8805275  91.8460700  23.0069356
   1.4499704  92.0728658  21.6226751   7.5079779  98.2586709  30.4368375
   7.5724212  98.7207117  31.2726547   6.7990703  97.6284074  30.5650685
  21.8329169  95.0541414  24.6292636  21.0792877  94.4848813  24.4736641
  21.9676710  95.0204079  25.5763271   3.7095137  86.0046397  36.9661711
   3.3162082  85.4512595  37.6409355   4.5261277  86.3156975  37.3568229
   6.6263098  87.4204276  34.5581968   7.3672811  88.0211429  34.4786430
   6.8581020  86.6781913  34.0000010   1.7704436  92.6060643  32.8360197
   1.6557951  91.7045900  33.1367296   0.9148953  92.8524340  32.4845014
   8.8496273 100.5478383  34.4347698   8.4060127  99.7614762  34.1168602
   9.5113487 100.7357534  33.7691589   3.6083394 102.0774185  28.9608376
   4.1590820 101.9491248  28.1885370   2.7694870 102.3769074  28.6103269
  10.9477511 100.8281183  32.4629099  10.9295987 101.6490064  31.9709368
  11.8697431 100.7035258  32.6879240   7.4050566  98.3425313  33.3052607
   7.9378902  97.5813601  33.0751915   6.8764647  98.0498964  34.0476762
  10.5720260  83.4485379  28.8346249  10.2284530  84.3387020  28.7585360
  10.9399223  83.2587036  27.9715834  10.5370543  93.4393990  17.3418684
  10.0217167  94.2098594  17.5807072  10.2647852  92.7659126  17.9651746
   8.1217654  88.2843691  22.4003923   7.2659251  87.8950541  22.2209561
   8.5344606  88.3635651  21.5403708   9.6516801  85.8190034  26.7995482
   9.1481596  85.7820169  25.9863288   9.9447408  86.7282777  26.8592139
   5.8959687  85.9028764  25.8061664   6.7612684  85.7071572  25.4467554
   5.9637196  85.6739115  26.7331021  15.5104817  96.1926344  19.2771858
  14.7334260  95.8537504  18.8327020  16.1896298  96.1978968  18.6026823
  10.3256846  91.3121082  19.1678466  10.0206982  91.6267231  20.0188609
  11.2787288  91.3902502  19.2105799   8.7703278  97.4711305  20.8171419
   8.2424640  96.7364065  20.5044657   8.2690781  98.2485982  20.5711388
  13.7496124  95.6660326  25.9338466  13.0919799  96.3559587  26.0218594
  14.5536523  96.0556758  26.2772452   3.5022006  88.1330971  23.1778031
   4.0765758  87.9106153  22.4451224   4.0892988  88.2019666  23.9306632
  12.5601583  94.0204698  23.9842408  13.0733465  94.6534690  24.4864117
  13.2102807  93.4205894  23.6185768   5.8044674  85.0072220  21.9053100
   5.1509086  84.6921238  21.2809715   5.7625148  84.3847961  22.6312923
   9.0382414  91.4954154  26.2300748   8.1204975  91.7169101  26.0722436
   9.4542558  91.5700464  25.3712455   9.8217462  92.8945570  21.3603428
  10.5689281  93.4066967  21.0510550  10.0909051  92.5729622  22.2207822
  13.3263379  99.0010700  22.1121550  12.8725706  98.1601610  22.1686741
  12.6957346  99.6372098  22.4496330  12.2696299  89.9302686  23.3422218
  11.5319056  89.4180072  23.6732460  12.5223072  89.4903067  22.5305494
  11.7696318 100.8387196  23.0471368  12.0619293 101.3992254  22.3283734
  12.2794939 101.1315757  23.8024527  12.3707926  82.7078938  23.9363987
  12.6766803  81.8476301  23.6489902  13.0960531  83.2996558  23.7362981
   6.6429006  93.0032731  24.4440178   6.6977616  92.0506567  24.3682655
   5.8320208  93.1592170  24.9281476   4.5821366  91.6209791  22.2030557
   3.7689231  91.9203961  22.6095749   5.0780360  91.2265479  22.9205039
   6.7329944 101.6167548  24.1364822   6.6906122 101.8428394  23.2073354
   7.6492643 101.3830922  24.2850623  10.1795577  92.0851615  31.0345451
  10.5344965  92.3123088  31.8939916  10.8267709  92.4169992  30.4122706
  15.9093314  95.2070051  21.7394780  15.7711213  95.3971647  20.8115969
  15.5529533  95.9689434  22.1962831   4.0735441  89.1928146  27.8191792
   4.7134820  89.0516905  27.1214755   3.2412971  88.9062660  27.4430394
  15.9362694  97.2746578  26.7506051  16.3699201  97.1821867  27.5989105
  16.6494275  97.2504078  26.1126067   4.8495744  98.4930577  23.9326784
   5.6436343  97.9980897  23.7309359   4.1387437  97.9648440  23.5694490
   9.6690589 100.8748672  28.2839152   9.7227611 101.4439608  29.0516868
   8.8005370 101.0450557  27.9193189   1.0764057  89.1628471  22.5964779
   1.3370874  90.0773804  22.4873939   1.8981229  88.6952914  22.7461391
   2.5488982  90.5766228  29.7663603   3.2212036  90.3683590  29.1176252
   1.7218769  90.3788314  29.3268835  16.7978244  97.3170279  29.2838937
  16.9914134  98.2216089  29.5298212  16.6978862  96.8577698  30.1177522
   8.4514554  87.2028169  31.7829264   7.8042469  87.9018119  31.6893740
   9.2215570  87.6364313  32.1505512  11.8593352  97.4677021  34.8579817
  11.7078859  97.2387573  33.9409901  11.8498032  98.4247623  34.8711162
   8.6278689  95.0408934  29.8426084   9.5570749  95.1920094  29.6695051
   8.2069719  95.1292955  28.9874730   7.4267020  99.0659599  27.6124621
   7.2878106  98.6978383  28.4850559   6.6381617  99.5807238  27.4408579
   8.9772236  98.4441201  25.0013459   8.6422068  98.4041971  25.8971109
   8.4776181  97.7785917  24.5283869   2.9516480  93.8508831  30.5266040
   2.8136277  93.1189070  31.1277579   3.8621403  93.7617731  30.2450228
   5.5798780  93.5628791  30.0149720   6.2898399  92.9221983  29.9736338
   5.5368088  93.8141685  30.9375901  13.5685559 100.4996144  32.9356299
  13.5098105  99.8155364  32.2686882  13.9705077 101.2415134  32.4836925
   4.2927714  90.5494009  31.8345359   3.7565071  90.0984747  32.4866956
   3.7044423  90.6839917  31.0915824  13.5702966  98.4635728  31.1670279
  12.6829745  98.1261650  31.2896678  14.1401517  97.7318759  31.4039044
   7.1004120 103.1237180  28.1331522   7.0274291 103.9292152  28.6450827
   6.6581513 103.3229146  27.3079543  10.1990549  88.1703580  24.2868549
  10.6959249  87.4173542  23.9669619   9.4277531  88.2067896  23.7211758
  18.0520307  93.8743945  25.9286840  18.0410183  94.7568661  25.5580774
  17.1837686  93.5215496  25.7341378   9.5602803 103.0224014  30.2889681
  10.2730775 103.6571479  30.2165582   9.0692832 103.1187880  29.4729683
  11.2820330  96.9275267  21.8606972  10.3476609  97.0476729  21.6911677
  11.4596998  96.0247734  21.5966982   6.7825518  90.3120963  24.0140234
   6.4123306  89.7592003  24.7021139   7.2784610  89.7079096  23.4615234
  14.6692881  92.7692586  22.3957006  15.1353334  93.6020578  22.3217309
  15.1200382  92.3037568  23.1002265   4.6114717 100.7718458  31.1095252
   5.3124176 101.4054941  31.2624646   4.1409832 101.1133189  30.3490891
  12.7369112  99.1136408  19.3943159  13.0128956  98.9993002  20.3037033
  11.8673611  98.7153892  19.3555332  12.6409544  85.1373173  26.4347908
  11.7272624  85.3677400  26.6030115  13.0702646  85.2211617  27.2861940
  12.4116003  93.3263065  28.9347802  11.7587453  93.5738973  28.2800255
  12.7896382  92.5127203  28.6010279   9.3723176 103.3622758  23.0375972
   9.5545571 102.5444414  23.5003724  10.1956162 103.5790451  22.6000862
   8.4603576  94.0682876  35.4213839   7.7844213  93.9677006  36.0916214
   9.2831209  93.9122090  35.8849836   7.2026358 105.3749804  29.6571455
   7.7544667 105.5381425  30.4220540   7.5432552 105.9654242  28.9851480
   2.1790852  87.7224954  30.2593340   2.2432178  88.5839784  29.8470737
   2.1157972  87.1098955  29.5265698   1.6543124  89.7948086  33.9066374
   2.2815163  89.4125163  34.5203898   0.7971043  89.5762288  34.2722066
  12.0537233 100.2011061  35.5120109  12.5977137 100.8141019  35.0175064
  11.4724078 100.7590640  36.0287122  10.3394746 103.3231779  26.6435137
  10.2145885 102.5221519  26.1346083  10.9973837 103.8177973  26.1549107
   1.9602914  89.6780512  25.8212277   1.2389500  90.2916479  25.6819751
   2.7496170  90.2138277  25.7428923  12.4029654 101.1240799  28.2714687
  11.4559990 101.0046150  28.1993014  12.7512427 100.2363297  28.3540949
   4.7629228  87.0134938  32.0952929   5.2863629  87.2597235  32.8579238
   4.5441561  87.8454973  31.6756066   9.4076087 100.9193516  24.4719039
   9.2601050  99.9910223  24.6526609  10.2329581 100.9413606  23.9876115
   3.2738332  89.5711583  20.3299532   3.6134404  90.0997504  19.6078140
   3.7210452  89.9091989  21.1058098  13.0110209 101.7422074  25.5583912
  13.9356757 101.5364936  25.4208363  12.8425513 101.4938475  26.4673254
   5.9681773  87.9548633  29.7802600   5.6278593  87.1556446  30.1823279
   5.2620779  88.2550344  29.2079433   6.6198244  85.0397946  28.2329923
   7.4424314  84.5658424  28.1108813   6.8636308  85.8188430  28.7328609
   5.2606479  88.0686204  18.5292824   5.9814841  88.4467457  18.0256541
   4.6371783  88.7875081  18.6327802   9.4037602  88.7731353  19.4651157
   9.6201216  89.6555991  19.1639985   8.9231669  88.3817567  18.7356799
   4.1436823  91.7317066  26.0421901   3.9981404  92.0457369  26.9346183
   3.6662027  92.3501967  25.4892800   6.0033206  88.7219614  26.0902791
   5.9894775  87.8260708  25.7535089   6.7205634  88.7290278  26.7241077
   7.8559337  89.1556955  28.1355918   7.5977115  90.0774025  28.1340249
   7.3244377  88.7587389  28.8256382  12.8005525 102.2607742  20.9146004
  12.9742403 101.6954164  20.1619856  13.2934417 103.0608637  20.7325494
   5.4070102  87.6033995  21.3590361   5.5286013  86.6750641  21.5581248
   5.1172144  87.6172681  20.4468676   8.2761292  85.2888905  24.4957081
   8.2982989  85.3528238  23.5409060   8.6929351  84.4493414  24.6897587
  18.6544917  95.0244165  22.5336303  19.0976063  94.2751490  22.1355427
  17.7771427  95.0154301  22.1510035  13.7880698 101.5774506  18.0142902
  14.4831603 102.1981199  18.2330217  14.1303848 100.7269857  18.2895280
  15.6872121  99.0274212  19.5430233  16.2123445  99.3661484  18.8179553
  15.5994474  98.0921227  19.3593367   7.3492170 102.9408285  31.6720109
   7.6579296 102.6957432  32.5442809   8.1467652 103.1454924  31.1838980
   4.8186654 100.6384204  25.9747788   4.1966663  99.9754909  25.6750015
   5.4891521 100.6645336  25.2921435   4.8911181  89.1165992  35.5680294
   4.9399337  89.9928115  35.1858063   5.4333696  88.5743385  34.9951937
  15.3766027  99.6607115  34.8481431  14.5861571  99.6431254  34.3085930
  15.1399382 100.1995409  35.6030467  15.4963902  96.5099582  32.1614159
  15.5461907  96.3449589  33.1029682  15.3877826  95.6426841  31.7712040
  12.7867665  92.4930510  33.4773466  13.6877527  92.3536975  33.1857464
  12.8615639  92.6584965  34.4171643   7.1210470  89.8697364  32.3226652
   6.2513779  90.1630930  32.0509241   7.3569950  90.4537809  33.0433916
  16.9982099  98.9296523  32.4056181  16.7066907  99.2926504  33.2419642
  16.3854230  98.2163531  32.2269513  18.1977781  96.4949403  24.9258751
  19.0324673  96.9339207  25.0896311  18.3336910  96.0188056  24.1066997
  15.2469287  94.0529138  30.8736239  15.7223409  94.2456784  30.0655090
  14.3234853  94.1088324  30.6279622   9.8249504  86.0876981  29.8392073
  10.3431448  86.8238008  29.5138561   9.4704637  86.3940975  30.6738832
  10.0762098  82.5077264  25.3592969  10.3563852  81.8400453  25.9853396
  10.8612705  82.7006360  24.8467633  13.9470956  90.9294898  29.1064544
  14.8988379  91.0292996  29.1276768  13.7774407  90.1373166  29.6162629
  11.9685336  88.0150481  29.2923945  11.3735268  88.2955494  28.5970434
  11.6835032  88.5044382  30.0640686  16.4259034  94.1501018  28.2206844
  16.3935354  93.2117018  28.4066528  17.0359658  94.2285054  27.4872669
  16.5753523  90.9412061  28.2665127  16.0592571  90.1570518  28.0795056
  17.4593471  90.6130778  28.4311647  14.2364249  84.6853077  24.2260940
  14.0389071  84.3768165  25.1104272  14.8463955  85.4114715  24.3558870
  22.2435584  95.2117024  27.3612881  22.9738972  94.9502313  27.9220584
  21.6342529  94.4745746  27.4014949  20.3250881  93.3524887  27.9587332
  19.5984045  93.2180852  27.3503824  19.9098168  93.6601716  28.7644050
   8.1481057  97.0714817  35.7234705   9.0684067  97.2493416  35.9174751
   8.1130641  96.1270862  35.5714404   1.1443130  94.9815851  28.3657486
   1.3629140  95.9132959  28.3845520   1.5568904  94.6223826  29.1512290
   8.0647348  85.4883937  20.3533175   7.2548076  85.1431022  20.7288421
   8.7531765  85.1791480  20.9420786   9.9937896  84.5661983  21.9757471
  10.5468935  84.9857437  22.6347494  10.2307982  83.6397732  22.0180427
   6.0170995  90.5549057  37.7560235   5.9167722  91.5043414  37.6872326
   5.7992537  90.2267296  36.8836305  13.3716703  86.6762509  21.4836135
  12.7915372  87.3347313  21.1014188  13.1052636  85.8539853  21.0723553
  11.8220270  86.0767566  23.6857456  12.3220048  86.1884101  22.8771775
  12.4655877  85.7728619  24.3258264   5.8802265  93.9846196  36.5725297
   5.3969347  94.7846556  36.7789186   5.9663204  93.9954141  35.6192741
   1.8075603  97.8750731  28.6093730   2.7618856  97.8434673  28.5423662
   1.6088126  97.4141354  29.4243956   2.3974985  96.4451847  31.1764528
   3.2167874  96.9395925  31.1999365   2.6711793  95.5283815  31.1482096
  12.1541581  88.8362599  20.5392484  11.2667436  89.1212250  20.3212678
  12.5695570  88.6756362  19.6919761  15.5056117  88.8609120  24.2546823
  16.2816507  89.3505572  24.5271440  14.7804252  89.2867174  24.7118692
  17.9428676  89.5736739  25.3120764  18.5373167  89.3332475  24.6014072
  18.0155260  88.8543870  25.9394300  12.1282605  94.3517135  20.7542774
  12.0717806  94.8085686  19.9150406  12.6810947  93.5907820  20.5765617
  15.9387411  90.1406867  21.5792893  15.6824345  89.7403502  22.4101101
  15.3140279  90.8550661  21.4543032  20.2499749  92.8802940  24.0864185
  19.6899307  92.9496129  24.8595747  19.6443252  92.7043925  23.3663681
  13.2071492  99.0389803  16.6838964  14.0417096  98.6071001  16.5016438
  13.0455835  98.8671817  17.6115858  12.8617384  95.5421916  18.0495303
  12.8066188  95.3766188  17.1083747  12.2363440  96.2497949  18.2057493
  10.1763291  97.8470828  37.3748866  11.0454451  98.0211480  37.0135501
   9.6970043  98.6665245  37.2524595   6.1713510  85.0430025  17.6280621
   6.1592180  85.9871865  17.7848892   7.0636932  84.8600171  17.3340083
   4.3449472 104.9667929  29.0538299   5.2476718 104.9991539  29.3704794
   4.1186842 104.0368380  29.0684635   6.1003074 103.7198916  25.7148378
   5.1498705 103.7200777  25.6012750   6.4035560 102.9731650  25.1984413
   9.9865629  81.6372802  21.8826558   9.2198025  81.0831289  22.0283241
  10.3976334  81.7094671  22.7440710   1.9907390  87.9257598  35.9731739
   2.8538852  87.5694402  36.1835064   1.4172801  87.5871492  36.6607144
  21.8355767 109.5559454  26.7794140  22.4734177 109.4366201  26.0757481
  21.7176610 110.5040298  26.8382093  18.6445473 109.5086882  26.7155665
  18.3063985 109.3927947  25.8276200  19.5135242 109.1078047  26.6956671
  19.1265256 110.6621734  32.6741871  19.1153897 110.2674532  31.8022374
  19.2885896 109.9287806  33.2675642  12.0496721 112.8573550  25.5436777
  12.8418013 112.5164375  25.1283076  12.2893371 112.9668525  26.4638930
  15.8472518 113.4458846  31.6221055  15.5562384 114.3504476  31.5067721
  16.4829502 113.4875373  32.3365124  16.7728724 110.8235694  28.2122414
  17.3692297 110.5991717  27.4979377  16.8303696 110.0820440  28.8147862
  21.3897036 107.2810908  23.8547348  22.1760125 106.8630331  23.5037766
  21.6535740 108.1857000  24.0228997  21.5607113 112.7183758  18.5536005
  20.9252946 112.7918385  19.2656910  21.2304519 113.3077357  17.8755085
  26.7905463 107.2186141  24.7580327  27.5230635 106.6485358  24.9918156
  26.0344818 106.8307741  25.1986833  18.4081583 109.6413383  21.9543669
  18.0439790 109.1144004  22.6656591  19.2648698 109.2511852  21.7810155
  24.3130883 100.9307715  29.2174936  23.9814208 101.8003126  28.9936151
  23.7176497 100.6143999  29.8968966  18.0487069 104.6703282  16.9505018
  18.2161472 105.5383519  17.3175489  17.8584239 104.8330564  16.0266307
  20.8062403 113.1320261  28.6170848  20.5063126 114.0345300  28.5086656
  20.4613462 112.8652444  29.4692001  14.2574884 109.5834058  24.6507553
  13.3325381 109.4510272  24.8585245  14.5059297 110.3628277  25.1477495
  24.2059546 105.6502801  26.2968286  23.2976424 105.5818210  26.0027047
  24.1547142 106.1274746  27.1250111  18.0276290 107.1260940  17.9351685
  17.9075916 107.5717990  18.7737165  17.3328879 107.4746257  17.3765223
  11.6183695 109.2267332  25.4851342  11.7476076 109.4801810  26.3990754
  10.9381146 109.8195040  25.1655997  18.2800412 107.0692447  34.2403183
  17.5033746 107.6286367  34.2306048  18.9190975 107.5549230  34.7618053
  26.0721193 103.8519240  28.0746160  25.4295573 104.1451773  27.4285954
  25.5676121 103.7372160  28.8799356  23.7261357 107.5982413  18.7632019
  24.6379213 107.8309800  18.5879716  23.2171004 108.1819457  18.2007097
  16.5346785 109.8777900  33.8021150  17.2761469 110.4162944  33.5255974
  15.8283770 110.5044189  33.9592702  22.0102124 112.0207041  32.3993311
  22.4185480 111.5789451  31.6547944  21.2879386 111.4459668  32.6527504
  18.3633194 106.9579648  29.7726868  19.2094389 107.3819061  29.9161517
  18.3031832 106.3013272  30.4665431  22.3330939 112.5808231  26.1545600
  21.7039801 112.7453945  25.4521668  21.9456601 112.9949841  26.9256564
  26.2120171 113.5162669  23.5089964  25.5271209 113.8961571  22.9586997
  26.2964020 114.1257996  24.2421912  21.5132640 104.6184016  31.4308042
  21.2693571 105.3726076  30.8942318  21.7892570 104.9969363  32.2655289
  23.4671102 111.1622628  30.1085308  23.6787998 111.8054388  29.4319689
  23.4200851 110.3284945  29.6407238  21.0697331 103.7740449  27.0121880
  20.2081810 104.0721702  27.3038617  21.0959766 103.9910848  26.0802912
  17.8858901 112.3182639  23.4195685  18.3497246 112.5970342  22.6300308
  17.6215699 111.4166084  23.2368776  14.7782982 111.8654121  26.3575449
  15.3484339 112.2941389  25.7192933  15.3691094 111.5836706  27.0559634
  16.8227787 108.4405792  20.2285251  17.5251830 108.8926835  20.6959177
  16.4908415 107.7989611  20.8565144  15.2708148 107.0317548  34.6036460
  14.6406809 107.7133829  34.8371857  15.1644236 106.9200630  33.6589598
  10.5653121 106.6989344  25.5302384   9.7752175 106.9546873  25.0542495
  11.0564368 107.5137682  25.6354425  24.5816930 114.0394584  28.2807665
  25.4034374 113.6374771  27.9990347  24.5779333 113.9362818  29.2323781
  12.5167866 107.0633924  22.4885861  11.7199029 107.1752618  23.0069356
  12.2893458 107.4020576  21.6226751  18.3473534 113.5878627  30.4368375
  18.4117966 114.0499034  31.2726547  17.6384458 112.9575992  30.5650685
   8.8490824 106.9519835  27.9617375   9.0998862 107.8366845  28.2274951
   9.3850372 106.7724436  27.1892467  32.6722923 110.3833332  24.6292636
  31.9186632 109.8140730  24.4736641  32.8070465 110.3495997  25.5763271
  14.5488891 101.3338314  36.9661711  14.1555837 100.7804513  37.6409355
  15.3655031 101.6448893  37.3568229  17.4656852 102.7496193  34.5581968
  18.2066565 103.3503347  34.4786430  17.6974775 102.0073831  34.0000010
  12.6098190 107.9352561  32.8360197  12.4951705 107.0337818  33.1367296
  11.7542708 108.1816257  32.4845014  19.6890028 115.8770301  34.4347698
  19.2453882 115.0906680  34.1168602  20.3507241 116.0649451  33.7691589
  14.4477149 117.4066103  28.9608376  14.9984574 117.2783166  28.1885370
  13.6088625 117.7060992  28.6103269  21.7871266 116.1573101  32.4629099
  21.7689741 116.9781982  31.9709368  22.7091186 116.0327176  32.6879240
  18.2444320 113.6717230  33.3052607  18.7772657 112.9105519  33.0751915
  17.7158401 113.3790882  34.0476762  21.4114015  98.7777296  28.8346249
  21.0678284  99.6678938  28.7585360  21.7792978  98.5878954  27.9715834
  21.3764298 108.7685907  17.3418684  20.8610921 109.5390512  17.5807072
  21.1041606 108.0951044  17.9651746  18.9611409 103.6135608  22.4003923
  18.1053005 103.2242459  22.2209561  19.3738360 103.6927569  21.5403708
  20.4910555 101.1481951  26.7995482  19.9875351 101.1112087  25.9863288
  20.7841162 102.0574694  26.8592139  16.7353441 101.2320681  25.8061664
  17.6006438 101.0363490  25.4467554  16.8030950 101.0031033  26.7331021
  26.3498572 111.5218262  19.2771858  25.5728015 111.1829422  18.8327020
  27.0290053 111.5270885  18.6026823  21.1650601 106.6413000  19.1678466
  20.8600736 106.9559149  20.0188609  22.1181043 106.7194419  19.2105799
  19.6097033 112.8003223  20.8171419  19.0818394 112.0655982  20.5044657
  19.1084535 113.5777899  20.5711388  24.5889879 110.9952243  25.9338466
  23.9313553 111.6851505  26.0218594  25.3930278 111.3848675  26.2772452
  14.3415760 103.4622889  23.1778031  14.9159512 103.2398071  22.4451224
  14.9286743 103.5311584  23.9306632  23.3995338 109.3496616  23.9842408
  23.9127219 109.9826608  24.4864117  24.0496561 108.7497812  23.6185768
  16.6438428 100.3364138  21.9053100  15.9902840 100.0213155  21.2809715
  16.6018902  99.7139878  22.6312923  19.8776168 106.8246072  26.2300748
  18.9598730 107.0461019  26.0722436  20.2936312 106.8992382  25.3712455
  20.6611216 108.2237487  21.3603428  21.4083035 108.7358884  21.0510550
  20.9302806 107.9021540  22.2207822  24.1657134 114.3302617  22.1121550
  23.7119461 113.4893527  22.1686741  23.5351100 114.9664016  22.4496330
  23.1090053 105.2594604  23.3422218  22.3712810 104.7471990  23.6732460
  23.3616827 104.8194985  22.5305494  22.6090073 116.1679114  23.0471368
  22.9013047 116.7284171  22.3283734  23.1188694 116.4607675  23.8024527
  23.2101681  98.0370856  23.9363987  23.5160557  97.1768219  23.6489902
  23.9354285  98.6288476  23.7362981  17.4822760 108.3324649  24.4440178
  17.5371370 107.3798485  24.3682655  16.6713962 108.4884088  24.9281476
  15.4215120 106.9501708  22.2030557  14.6082986 107.2495879  22.6095749
  15.9174114 106.5557397  22.9205039  17.5723698 116.9459465  24.1364822
  17.5299877 117.1720312  23.2073354  18.4886397 116.7122840  24.2850623
  21.0189332 107.4143533  31.0345451  21.3738720 107.6415006  31.8939916
  21.6661463 107.7461910  30.4122706  26.7487069 110.5361969  21.7394780
  26.6104967 110.7263565  20.8115969  26.3923288 111.2981351  22.1962831
  14.9129195 104.5220064  27.8191792  15.5528574 104.3808823  27.1214755
  14.0806726 104.2354577  27.4430394  26.7756448 112.6038496  26.7506051
  27.2092955 112.5113785  27.5989105  27.4888029 112.5795996  26.1126067
  15.6889499 113.8222494  23.9326784  16.4830097 113.3272814  23.7309359
  14.9781191 113.2940357  23.5694490  20.5084343 116.2040590  28.2839152
  20.5621366 116.7731526  29.0516868  19.6399125 116.3742475  27.9193189
  11.9157811 104.4920389  22.5964779  12.1764629 105.4065722  22.4873939
  12.7374984 104.0244831  22.7461391  13.3882737 105.9058146  29.7663603
  14.0605790 105.6975508  29.1176252  12.5612523 105.7080232  29.3268835
  27.6371998 112.6462196  29.2838937  27.8307888 113.5508007  29.5298212
  27.5372616 112.1869615  30.1177522  19.2908309 102.5320087  31.7829264
  18.6436224 103.2310037  31.6893740  20.0609324 102.9656231  32.1505512
  22.6987107 112.7968939  34.8579817  22.5472613 112.5679491  33.9409901
  22.6891786 113.7539541  34.8711162  19.4672443 110.3700852  29.8426084
  20.3964503 110.5212011  29.6695051  19.0463473 110.4584873  28.9874730
  18.2660775 114.3951516  27.6124621  18.1271861 114.0270301  28.4850559
  17.4775371 114.9099156  27.4408579  19.8165990 113.7733119  25.0013459
  19.4815823 113.7333889  25.8971109  19.3169936 113.1077835  24.5283869
  13.7910234 109.1800749  30.5266040  13.6530032 108.4480988  31.1277579
  14.7015158 109.0909649  30.2450228  16.4192535 108.8920708  30.0149720
  17.1292153 108.2513900  29.9736338  16.3761843 109.1433603  30.9375901
  24.4079313 115.8288062  32.9356299  24.3491860 115.1447282  32.2686882
  24.8098832 116.5707052  32.4836925  15.1321469 105.8785926  31.8345359
  14.5958826 105.4276665  32.4866956  14.5438177 106.0131835  31.0915824
  24.4096721 113.7927646  31.1670279  23.5223499 113.4553567  31.2896678
  24.9795272 113.0610677  31.4039044  10.8660590 105.0141934  28.9198354
  10.7818779 104.4067603  28.1848764  10.0443296 105.5050952  28.9207850
  17.9397874 118.4529098  28.1331522  17.8668046 119.2584069  28.6450827
  17.4975267 118.6521064  27.3079543  21.0384304 103.4995497  24.2868549
  21.5353003 102.7465460  23.9669619  20.2671285 103.5359814  23.7211758
  28.8914061 109.2035863  25.9286840  28.8803937 110.0860578  25.5580774
  28.0231441 108.8507414  25.7341378  20.3996558 118.3515932  30.2889681
  21.1124530 118.9863397  30.2165582  19.9086586 118.4479798  29.4729683
  22.1214084 112.2567185  21.8606972  21.1870363 112.3768647  21.6911677
  22.2990753 111.3539651  21.5966982  17.6219273 105.6412880  24.0140234
  17.2517060 105.0883921  24.7021139  18.1178365 105.0371014  23.4615234
  25.5086636 108.0984504  22.3957006  25.9747088 108.9312496  22.3217309
  25.9594136 107.6329485  23.1002265  15.4508471 116.1010375  31.1095252
  16.1517931 116.7346858  31.2624646  14.9803586 116.4425107  30.3490891
  23.5762867 114.4428325  19.3943159  23.8522711 114.3284920  20.3037033
  22.7067366 114.0445810  19.3555332  23.4803299 100.4665091  26.4347908
  22.5666378 100.6969318  26.6030115  23.9096400 100.5503535  27.2861940
  23.2509757 108.6554983  28.9347802  22.5981207 108.9030890  28.2800255
  23.6290137 107.8419121  28.6010279  20.2116931 118.6914676  23.0375972
  20.3939325 117.8736332  23.5003724  21.0349917 118.9082368  22.6000862
  19.2997330 109.3974794  35.4213839  18.6237967 109.2968923  36.0916214
  20.1224964 109.2414008  35.8849836  11.0476189 115.6346730  28.0426354
  11.6329626 114.8890418  28.1754258  10.8501028 115.9450687  28.9263018
  18.0420113 120.7041721  29.6571455  18.5938421 120.8673343  30.4220540
  18.3826306 121.2946159  28.9851480  13.0184606 103.0516871  30.2593340
  13.0825933 103.9131702  29.8470737  12.9551726 102.4390873  29.5265698
  12.4936879 105.1240004  33.9066374  13.1208918 104.7417081  34.5203898
  11.6364798 104.9054206  34.2722066  22.8930987 115.5302979  35.5120109
  23.4370891 116.1432937  35.0175064  22.3117832 116.0882557  36.0287122
  21.1788500 118.6523697  26.6435137  21.0539640 117.8513437  26.1346083
  21.8367591 119.1469890  26.1549107  12.7996668 105.0072429  25.8212277
  12.0783254 105.6208397  25.6819751  13.5889924 105.5430194  25.7428923
  23.2423409 116.4532717  28.2714687  22.2953744 116.3338068  28.1993014
  23.5906182 115.5655215  28.3540949  15.6022982 102.3426856  32.0952929
  16.1257384 102.5889152  32.8579238  15.3835315 103.1746891  31.6756066
  20.2469842 116.2485433  24.4719039  20.0994804 115.3202141  24.6526609
  21.0723335 116.2705524  23.9876115  14.1132086 104.9003500  20.3299532
  14.4528159 105.4289422  19.6078140  14.5604207 105.2383906  21.1058098
  23.8503964 117.0713992  25.5583912  24.7750511 116.8656853  25.4208363
  23.6819267 116.8230393  26.4673254  16.8075527 103.2840551  29.7802600
  16.4672347 102.4848364  30.1823279  16.1014533 103.5842262  29.2079433
  17.4591999 100.3689863  28.2329923  18.2818068  99.8950342  28.1108813
  17.7030062 101.1480347  28.7328609  16.1000233 103.3978122  18.5292824
  16.8208596 103.7759375  18.0256541  15.4765537 104.1166999  18.6327802
  20.2431356 104.1023271  19.4651157  20.4594971 104.9847909  19.1639985
  19.7625423 103.7109484  18.7356799  14.9830578 107.0608984  26.0421901
  14.8375158 107.3749287  26.9346183  14.5055781 107.6793884  25.4892800
  16.8426961 104.0511532  26.0902791  16.8288529 103.1552625  25.7535089
  17.5599389 104.0582196  26.7241077  18.6953091 104.4848872  28.1355918
  18.4370869 105.4065943  28.1340249  18.1638132 104.0879307  28.8256382
  23.6399280 117.5899659  20.9146004  23.8136158 117.0246082  20.1619856
  24.1328171 118.3900554  20.7325494   9.4576240 109.6014328  28.9809562
   8.9129708 110.3774136  29.1129837  10.3355590 109.9485133  28.8228684
  16.2463856 102.9325912  21.3590361  16.3679768 102.0042559  21.5581248
  15.9565899 102.9464598  20.4468676  19.1155047 100.6180823  24.4957081
  19.1376744 100.6820156  23.5409060  19.5323106  99.7785331  24.6897587
  29.4938671 110.3536082  22.5336303  29.9369817 109.6043408  22.1355427
  28.6165181 110.3446219  22.1510035  24.6274452 116.9066424  18.0142902
  25.3225357 117.5273116  18.2330217  24.9697603 116.0561775  18.2895280
  10.2442262 108.7284225  31.8739719   9.5023998 108.8766860  32.4604350
   9.9235006 108.9892490  31.0106469  26.5265876 114.3566129  19.5430233
  27.0517200 114.6953402  18.8179553  26.4388228 113.4213145  19.3593367
  18.1885924 118.2700203  31.6720109  18.4973051 118.0249350  32.5442809
  18.9861406 118.4746841  31.1838980  15.6580408 115.9676122  25.9747788
  15.0360418 115.3046827  25.6750015  16.3285275 115.9937254  25.2921435
  15.7304936 104.4457910  35.5680294  15.7793091 105.3220033  35.1858063
  16.2727450 103.9035303  34.9951937  26.2159782 114.9899033  34.8481431
  25.4255325 114.9723172  34.3085930  25.9793136 115.5287327  35.6030467
  26.3357657 111.8391499  32.1614159  26.3855662 111.6741507  33.1029682
  26.2271580 110.9718758  31.7712040  23.6261419 107.8222427  33.4773466
  24.5271282 107.6828892  33.1857464  23.7009394 107.9876882  34.4171643
  17.9604224 105.1989282  32.3226652  17.0907534 105.4922848  32.0509241
  18.1963705 105.7829727  33.0433916  27.8375854 114.2588441  32.4056181
  27.5460662 114.6218421  33.2419642  27.2247985 113.5455449  32.2269513
  29.0371536 111.8241321  24.9258751  29.8718427 112.2631125  25.0896311
  29.1730665 111.3479974  24.1066997  26.0863042 109.3821055  30.8736239
  26.5617163 109.5748702  30.0655090  25.1628607 109.4380241  30.6279622
  20.6643258 101.4168899  29.8392073  21.1825202 102.1529926  29.5138561
  20.3098391 101.7232892  30.6738832  20.9155852  97.8369182  25.3592969
  21.1957606  97.1692371  25.9853396  21.7006459  98.0298277  24.8467633
  24.7864711 106.2586816  29.1064544  25.7382134 106.3584913  29.1276768
  24.6168161 105.4665084  29.6162629  22.8079090 103.3442399  29.2923945
  22.2129022 103.6247411  28.5970434  22.5228787 103.8336300  30.0640686
  27.2652789 109.4792935  28.2206844  27.2329109 108.5408936  28.4066528
  27.8753412 109.5576972  27.4872669  27.4147277 106.2703979  28.2665127
  26.8986326 105.4862435  28.0795056  28.2987226 105.9422695  28.4311647
  25.0758004 100.0144994  24.2260940  24.8782825  99.7060082  25.1104272
  25.6857710 100.7406633  24.3558870  33.0829338 110.5408942  27.3612881
  33.8132727 110.2794230  27.9220584  32.4736284 109.8037664  27.4014949
  31.1644636 108.6816805  27.9587332  30.4377799 108.5472770  27.3503824
  30.7491922 108.9893633  28.7644050  18.9874812 112.4006734  35.7234705
  19.9077821 112.5785333  35.9174751  18.9524395 111.4562780  35.5714404
  11.9836885 110.3107769  28.3657486  12.2022894 111.2424877  28.3845520
  12.3962658 109.9515743  29.1512290  18.9041102 100.8175854  20.3533175
  18.0941831 100.4722939  20.7288421  19.5925519 100.5083398  20.9420786
  20.8331651  99.8953901  21.9757471  21.3862689 100.3149355  22.6347494
  21.0701737  98.9689649  22.0180427  16.8564750 105.8840975  37.7560235
  16.7561477 106.8335332  37.6872326  16.6386292 105.5559214  36.8836305
  24.2110458 102.0054426  21.4836135  23.6309127 102.6639230  21.1014188
  23.9446390 101.1831771  21.0723553  22.6614024 101.4059484  23.6857456
  23.1613802 101.5176019  22.8771775  23.3049632 101.1020537  24.3258264
  16.7196020 109.3138114  36.5725297  16.2363102 110.1138474  36.7789186
  16.8056959 109.3246058  35.6192741  12.6469357 113.2042648  28.6093730
  13.6012611 113.1726591  28.5423662  12.4481881 112.7433272  29.4243956
  13.2368739 111.7743764  31.1764528  14.0561628 112.2687843  31.1999365
  13.5105547 110.8575733  31.1482096  22.9935336 104.1654517  20.5392484
  22.1061191 104.4504167  20.3212678  23.4089325 104.0048280  19.6919761
  26.3449872 104.1901038  24.2546823  27.1210262 104.6797490  24.5271440
  25.6198006 104.6159092  24.7118692  28.7822430 104.9028657  25.3120764
  29.3766921 104.6624393  24.6014072  28.8549014 104.1835787  25.9394300
  22.9676359 109.6809053  20.7542774  22.9111561 110.1377604  19.9150406
  23.5204702 108.9199737  20.5765617  26.7781165 105.4698784  21.5792893
  26.5218100 105.0695420  22.4101101  26.1534033 106.1842578  21.4543032
  31.0893503 108.2094858  24.0864185  30.5293061 108.2788047  24.8595747
  30.4837007 108.0335842  23.3663681  24.0465247 114.3681721  16.6838964
  24.8810850 113.9362919  16.5016438  23.8849589 114.1963734  17.6115858
  23.7011139 110.8713834  18.0495303  23.6459943 110.7058105  17.1083747
  23.0757194 111.5789867  18.2057493   8.4903654 106.1081898  31.8756725
   9.1362517 105.5980852  32.3643950   8.2820805 106.8450580  32.4500150
  21.0157046 113.1762746  37.3748866  21.8848206 113.3503398  37.0135501
  20.5363797 113.9957163  37.2524595  17.0107264 100.3721943  17.6280621
  16.9985934 101.3163783  17.7848892  17.9030686 100.1892088  17.3340083
  15.1843226 120.2959847  29.0538299  16.0870473 120.3283457  29.3704794
  14.9580596 119.3660298  29.0684635  16.9396828 119.0490833  25.7148378
  15.9892459 119.0492695  25.6012750  17.2429314 118.3023568  25.1984413
  20.8259384  96.9664719  21.8826558  20.0591779  96.4123206  22.0283241
  21.2370089  97.0386588  22.7440710  12.8301145 103.2549515  35.9731739
  13.6932606 102.8986320  36.1835064  12.2566555 102.9163410  36.6607144
  32.6749522 124.8851372  26.7794140  33.3127932 124.7658119  26.0757481
  32.5570365 125.8332216  26.8382093  29.4839228 124.8378800  26.7155665
  29.1457739 124.7219864  25.8276200  30.3528996 124.4369965  26.6956671
  29.9659011 125.9913651  32.6741871  29.9547652 125.5966450  31.8022374
  30.1279650 125.2579724  33.2675642  22.8890476 128.1865468  25.5436777
  23.6811767 127.8456292  25.1283076  23.1287126 128.2960443  26.4638930
  26.6866272 128.7750763  31.6221055  26.3956138 129.6796394  31.5067721
  27.3223256 128.8167291  32.3365124  27.6122479 126.1527612  28.2122414
  28.2086051 125.9283634  27.4979377  27.6697450 125.4112357  28.8147862
  32.2290790 122.6102826  23.8547348  33.0153879 122.1922249  23.5037766
  32.4929494 123.5148918  24.0228997  32.4000867 128.0475676  18.5536005
  31.7646700 128.1210302  19.2656910  32.0698274 128.6369275  17.8755085
  37.6299217 122.5478059  24.7580327  38.3624389 121.9777276  24.9918156
  36.8738573 122.1599659  25.1986833  29.2475337 124.9705300  21.9543669
  28.8833544 124.4435921  22.6656591  30.1042453 124.5803769  21.7810155
  35.1524638 116.2599633  29.2174936  34.8207962 117.1295044  28.9936151
  34.5570251 115.9435917  29.8968966  28.8880824 119.9995200  16.9505018
  29.0555226 120.8675436  17.3175489  28.6977993 120.1622482  16.0266307
  31.6456157 128.4612179  28.6170848  31.3456880 129.3637218  28.5086656
  31.3007217 128.1944362  29.4692001  25.0968639 124.9125976  24.6507553
  24.1719135 124.7802190  24.8585245  25.3453052 125.6920195  25.1477495
  35.0453301 120.9794719  26.2968286  34.1370178 120.9110127  26.0027047
  34.9940897 121.4566664  27.1250111  28.8670045 122.4552857  17.9351685
  28.7469670 122.9009908  18.7737165  28.1722633 122.8038175  17.3765223
  22.4577450 124.5559249  25.4851342  22.5869831 124.8093728  26.3990754
  21.7774901 125.1486957  25.1655997  29.1194167 122.3984365  34.2403183
  28.3427501 122.9578285  34.2306048  29.7584730 122.8841148  34.7618053
  36.9114947 119.1811157  28.0746160  36.2689328 119.4743691  27.4285954
  36.4069876 119.0664078  28.8799356  34.5655111 122.9274331  18.7632019
  35.4772967 123.1601717  18.5879716  34.0564758 123.5111375  18.2007097
  27.3740539 125.2069818  33.8021150  28.1155223 125.7454862  33.5255974
  26.6677524 125.8336107  33.9592702  32.8495879 127.3498958  32.3993311
  33.2579235 126.9081369  31.6547944  32.1273140 126.7751586  32.6527504
  29.2026949 122.2871565  29.7726868  30.0488144 122.7110979  29.9161517
  29.1425586 121.6305189  30.4665431  33.1724693 127.9100149  26.1545600
  32.5433556 128.0745863  25.4521668  32.7850355 128.3241759  26.9256564
  37.0513925 128.8454587  23.5089964  36.3664963 129.2253488  22.9586997
  37.1357775 129.4549914  24.2421912  32.3526394 119.9475934  31.4308042
  32.1087326 120.7017994  30.8942318  32.6286325 120.3261281  32.2655289
  34.3064857 126.4914546  30.1085308  34.5181752 127.1346306  29.4319689
  34.2594605 125.6576862  29.6407238  31.9091086 119.1032367  27.0121880
  31.0475565 119.4013620  27.3038617  31.9353520 119.3202765  26.0802912
  28.7252655 127.6474557  23.4195685  29.1891001 127.9262260  22.6300308
  28.4609453 126.7458002  23.2368776  25.6176736 127.1946039  26.3575449
  26.1878093 127.6233307  25.7192933  26.2084848 126.9128623  27.0559634
  27.6621541 123.7697709  20.2285251  28.3645585 124.2218753  20.6959177
  27.3302170 123.1281528  20.8565144  26.1101903 122.3609466  34.6036460
  25.4800563 123.0425747  34.8371857  26.0037991 122.2492548  33.6589598
  21.4046875 122.0281262  25.5302384  20.6145929 122.2838791  25.0542495
  21.8958123 122.8429600  25.6354425  35.4210685 129.3686501  28.2807665
  36.2428128 128.9666689  27.9990347  35.4173088 129.2654735  29.2323781
  23.3561621 122.3925841  22.4885861  22.5592784 122.5044536  23.0069356
  23.1287213 122.7312494  21.6226751  29.1867288 128.9170545  30.4368375
  29.2511721 129.3790952  31.2726547  28.4778212 128.2867910  30.5650685
  19.6884578 122.2811753  27.9617375  19.9392617 123.1658763  28.2274951
  20.2244127 122.1016354  27.1892467  43.5116678 125.7125250  24.6292636
  42.7580386 125.1432648  24.4736641  43.6464219 125.6787914  25.5763271
  25.3882646 116.6630232  36.9661711  24.9949591 116.1096431  37.6409355
  26.2048786 116.9740810  37.3568229  28.3050606 118.0788111  34.5581968
  29.0460320 118.6795264  34.4786430  28.5368529 117.3365749  34.0000010
  23.4491945 123.2644478  32.8360197  23.3345460 122.3629736  33.1367296
  22.5936462 123.5108175  32.4845014  30.5283782 131.2062219  34.4347698
  30.0847636 130.4198597  34.1168602  31.1900996 131.3941369  33.7691589
  25.2870903 132.7358020  28.9608376  25.8378329 132.6075084  28.1885370
  24.4482379 133.0352909  28.6103269  32.6265020 131.4865019  32.4629099
  32.6083496 132.3073900  31.9709368  33.5484940 131.3619094  32.6879240
  29.0838074 129.0009148  33.3052607  29.6166411 128.2397436  33.0751915
  28.5552156 128.7082800  34.0476762  32.2507769 114.1069214  28.8346249
  31.9072039 114.9970856  28.7585360  32.6186732 113.9170872  27.9715834
  32.2158052 124.0977825  17.3418684  31.7004676 124.8682430  17.5807072
  31.9435361 123.4242961  17.9651746  29.8005163 118.9427526  22.4003923
  28.9446760 118.5534376  22.2209561  30.2132115 119.0219487  21.5403708
  31.3304310 116.4773869  26.7995482  30.8269105 116.4404004  25.9863288
  31.6234917 117.3866612  26.8592139  27.5747196 116.5612599  25.8061664
  28.4400192 116.3655408  25.4467554  27.6424705 116.3322951  26.7331021
  37.1892326 126.8510180  19.2771858  36.4121769 126.5121339  18.8327020
  37.8683807 126.8562803  18.6026823  32.0044355 121.9704917  19.1678466
  31.6994491 122.2851066  20.0188609  32.9574797 122.0486337  19.2105799
  30.4490787 128.1295141  20.8171419  29.9212149 127.3947900  20.5044657
  29.9478290 128.9069817  20.5711388  35.4283633 126.3244161  25.9338466
  34.7707308 127.0143422  26.0218594  36.2324032 126.7140593  26.2772452
  25.1809515 118.7914807  23.1778031  25.7553267 118.5689988  22.4451224
  25.7680497 118.8603501  23.9306632  34.2389092 124.6788534  23.9842408
  34.7520974 125.3118526  24.4864117  34.8890316 124.0789729  23.6185768
  27.4832183 115.6656056  21.9053100  26.8296595 115.3505073  21.2809715
  27.4412657 115.0431796  22.6312923  30.7169923 122.1537989  26.2300748
  29.7992484 122.3752936  26.0722436  31.1330066 122.2284300  25.3712455
  31.5004971 123.5529405  21.3603428  32.2476790 124.0650802  21.0510550
  31.7696560 123.2313458  22.2207822  35.0050888 129.6594535  22.1121550
  34.5513215 128.8185445  22.1686741  34.3744855 130.2955934  22.4496330
  33.9483808 120.5886521  23.3422218  33.2106565 120.0763907  23.6732460
  34.2010581 120.1486903  22.5305494  33.4483827 131.4971032  23.0471368
  33.7406802 132.0576089  22.3283734  33.9582448 131.7899593  23.8024527
  34.0495435 113.3662773  23.9363987  34.3554312 112.5060137  23.6489902
  34.7748040 113.9580393  23.7362981  28.3216515 123.6616566  24.4440178
  28.3765125 122.7090403  24.3682655  27.5107717 123.8176005  24.9281476
  26.2608875 122.2793626  22.2030557  25.4476740 122.5787797  22.6095749
  26.7567869 121.8849315  22.9205039  28.4117453 132.2751383  24.1364822
  28.3693631 132.5012229  23.2073354  29.3280152 132.0414758  24.2850623
  31.8583086 122.7435450  31.0345451  32.2132474 122.9706924  31.8939916
  32.5055218 123.0753827  30.4122706  37.5880823 125.8653886  21.7394780
  37.4498722 126.0555482  20.8115969  37.2317042 126.6273269  22.1962831
  25.7522950 119.8511982  27.8191792  26.3922329 119.7100741  27.1214755
  24.9200480 119.5646495  27.4430394  37.6150203 127.9330413  26.7506051
  38.0486710 127.8405702  27.5989105  38.3281784 127.9087914  26.1126067
  26.5283253 129.1514412  23.9326784  27.3223852 128.6564732  23.7309359
  25.8174946 128.6232275  23.5694490  31.3478098 131.5332507  28.2839152
  31.4015120 132.1023444  29.0516868  30.4792879 131.7034393  27.9193189
  22.7551566 119.8212307  22.5964779  23.0158383 120.7357640  22.4873939
  23.5768738 119.3536749  22.7461391  24.2276491 121.2350064  29.7663603
  24.8999545 121.0267426  29.1176252  23.4006278 121.0372150  29.3268835
  38.4765753 127.9754114  29.2838937  38.6701643 128.8799925  29.5298212
  38.3766371 127.5161533  30.1177522  30.1302063 117.8612005  31.7829264
  29.4829978 118.5601954  31.6893740  30.9003079 118.2948149  32.1505512
  33.5380861 128.1260857  34.8579817  33.3866368 127.8971408  33.9409901
  33.5285541 129.0831458  34.8711162  30.3066198 125.6992770  29.8426084
  31.2358258 125.8503929  29.6695051  29.8857228 125.7876790  28.9874730
  29.1054529 129.7243434  27.6124621  28.9665615 129.3562218  28.4850559
  28.3169126 130.2391073  27.4408579  30.6559745 129.1025037  25.0013459
  30.3209577 129.0625807  25.8971109  30.1563690 128.4369753  24.5283869
  24.6303989 124.5092667  30.5266040  24.4923786 123.7772905  31.1277579
  25.5408912 124.4201567  30.2450228  27.2586289 124.2212626  30.0149720
  27.9685908 123.5805818  29.9736338  27.2155597 124.4725521  30.9375901
  35.2473068 131.1579979  32.9356299  35.1885614 130.4739199  32.2686882
  35.6492586 131.8998969  32.4836925  25.9715223 121.2077844  31.8345359
  25.4352580 120.7568582  32.4866956  25.3831932 121.3423753  31.0915824
  35.2490475 129.1219563  31.1670279  34.3617254 128.7845485  31.2896678
  35.8189026 128.3902594  31.4039044  21.7054344 120.3433852  28.9198354
  21.6212533 119.7359521  28.1848764  20.8837051 120.8342870  28.9207850
  28.7791629 133.7821016  28.1331522  28.7061800 134.5875987  28.6450827
  28.3369022 133.9812981  27.3079543  31.8778058 118.8287415  24.2868549
  32.3746758 118.0757377  23.9669619  31.1065040 118.8651732  23.7211758
  39.7307816 124.5327781  25.9286840  39.7197692 125.4152496  25.5580774
  38.8625195 124.1799331  25.7341378  31.2390312 133.6807850  30.2889681
  31.9518284 134.3155314  30.2165582  30.7480341 133.7771716  29.4729683
  32.9607839 127.5859102  21.8606972  32.0264118 127.7060565  21.6911677
  33.1384507 126.6831569  21.5966982  28.4613027 120.9704798  24.0140234
  28.0910815 120.4175838  24.7021139  28.9572119 120.3662932  23.4615234
  36.3480390 123.4276422  22.3957006  36.8140843 124.2604413  22.3217309
  36.7987891 122.9621403  23.1002265  26.2902226 131.4302293  31.1095252
  26.9911685 132.0638776  31.2624646  25.8197341 131.7717025  30.3490891
  34.4156621 129.7720243  19.3943159  34.6916465 129.6576837  20.3037033
  33.5461120 129.3737728  19.3555332  34.3197053 115.7957009  26.4347908
  33.4060133 116.0261235  26.6030115  34.7490155 115.8795453  27.2861940
  34.0903512 123.9846901  28.9347802  33.4374962 124.2322808  28.2800255
  34.4683891 123.1711039  28.6010279  31.0510685 134.0206594  23.0375972
  31.2333080 133.2028250  23.5003724  31.8743671 134.2374286  22.6000862
  30.1391085 124.7266712  35.4213839  29.4631722 124.6260841  36.0916214
  30.9618718 124.5705925  35.8849836  21.8869944 130.9638648  28.0426354
  22.4723380 130.2182336  28.1754258  21.6894782 131.2742605  28.9263018
  28.8813867 136.0333639  29.6571455  29.4332175 136.1965261  30.4220540
  29.2220061 136.6238077  28.9851480  23.8578361 118.3808789  30.2593340
  23.9219687 119.2423620  29.8470737  23.7945481 117.7682791  29.5265698
  23.3330633 120.4531921  33.9066374  23.9602672 120.0708999  34.5203898
  22.4758552 120.2346123  34.2722066  33.7324742 130.8594897  35.5120109
  34.2764646 131.4724855  35.0175064  33.1511587 131.4174475  36.0287122
  32.0182255 133.9815615  26.6435137  31.8933394 133.1805354  26.1346083
  32.6761346 134.4761808  26.1549107  23.6390423 120.3364347  25.8212277
  22.9177009 120.9500315  25.6819751  24.4283679 120.8722112  25.7428923
  34.0817163 131.7824635  28.2714687  33.1347499 131.6629986  28.1993014
  34.4299936 130.8947133  28.3540949  26.4416736 117.6718774  32.0952929
  26.9651138 117.9181070  32.8579238  26.2229070 118.5038808  31.6756066
  31.0863596 131.5777351  24.4719039  30.9388559 130.6494058  24.6526609
  31.9117090 131.5997442  23.9876115  24.9525841 120.2295418  20.3299532
  25.2921913 120.7581339  19.6078140  25.3997961 120.5675824  21.1058098
  34.6897718 132.4005910  25.5583912  35.6144266 132.1948771  25.4208363
  34.5213022 132.1522311  26.4673254  27.6469282 118.6132469  29.7802600
  27.3066102 117.8140282  30.1823279  26.9408288 118.9134180  29.2079433
  28.2985753 115.6981781  28.2329923  29.1211823 115.2242259  28.1108813
  28.5423817 116.4772265  28.7328609  26.9393988 118.7270040  18.5292824
  27.6602350 119.1051292  18.0256541  26.3159292 119.4458916  18.6327802
  31.0825111 119.4315189  19.4651157  31.2988725 120.3139826  19.1639985
  30.6019178 119.0401402  18.7356799  25.8224332 122.3900902  26.0421901
  25.6768913 122.7041205  26.9346183  25.3449536 123.0085802  25.4892800
  27.6820715 119.3803450  26.0902791  27.6682284 118.4844543  25.7535089
  28.3993143 119.3874113  26.7241077  29.5346846 119.8140790  28.1355918
  29.2764624 120.7357861  28.1340249  29.0031886 119.4171224  28.8256382
  34.4793034 132.9191577  20.9146004  34.6529912 132.3538000  20.1619856
  34.9721926 133.7192472  20.7325494  20.2969994 124.9306246  28.9809562
  19.7523462 125.7066054  29.1129837  21.1749344 125.2777051  28.8228684
  27.0857611 118.2617830  21.3590361  27.2073522 117.3334476  21.5581248
  26.7959653 118.2756516  20.4468676  29.9548801 115.9472740  24.4957081
  29.9770498 116.0112074  23.5409060  30.3716860 115.1077249  24.6897587
  40.3332426 125.6828000  22.5336303  40.7763572 124.9335325  22.1355427
  39.4558936 125.6738136  22.1510035  35.4668207 132.2358341  18.0142902
  36.1619112 132.8565034  18.2330217  35.8091357 131.3853693  18.2895280
  21.0836016 124.0576142  31.8739719  20.3417752 124.2058778  32.4604350
  20.7628760 124.3184408  31.0106469  37.3659630 129.6858047  19.5430233
  37.8910954 130.0245320  18.8179553  37.2781983 128.7505062  19.3593367
  29.0279679 133.5992121  31.6720109  29.3366805 133.3541267  32.5442809
  29.8255161 133.8038759  31.1838980  26.4974163 131.2968039  25.9747788
  25.8754172 130.6338744  25.6750015  27.1679030 131.3229171  25.2921435
  26.5698690 119.7749827  35.5680294  26.6186846 120.6511950  35.1858063
  27.1121205 119.2327220  34.9951937  37.0553536 130.3190951  34.8481431
  36.2649080 130.3015089  34.3085930  36.8186891 130.8579244  35.6030467
  37.1751411 127.1683417  32.1614159  37.2249416 127.0033424  33.1029682
  37.0665335 126.3010676  31.7712040  34.4655174 123.1514345  33.4773466
  35.3665036 123.0120810  33.1857464  34.5403148 123.3168800  34.4171643
  28.7997979 120.5281200  32.3226652  27.9301288 120.8214766  32.0509241
  29.0357459 121.1121645  33.0433916  38.6769608 129.5880359  32.4056181
  38.3854416 129.9510339  33.2419642  38.0641739 128.8747367  32.2269513
  39.8765290 127.1533238  24.9258751  40.7112182 127.5923042  25.0896311
  40.0124419 126.6771892  24.1066997  36.9256796 124.7112973  30.8736239
  37.4010918 124.9040619  30.0655090  36.0022362 124.7672159  30.6279622
  31.5037013 116.7460817  29.8392073  32.0218957 117.4821844  29.5138561
  31.1492146 117.0524810  30.6738832  31.7549607 113.1661099  25.3592969
  32.0351361 112.4984288  25.9853396  32.5400214 113.3590195  24.8467633
  35.6258465 121.5878733  29.1064544  36.5775888 121.6876831  29.1276768
  35.4561916 120.7957002  29.6162629  33.6472845 118.6734316  29.2923945
  33.0522777 118.9539329  28.5970434  33.3622541 119.1628217  30.0640686
  38.1046543 124.8084853  28.2206844  38.0722863 123.8700854  28.4066528
  38.7147167 124.8868890  27.4872669  38.2541032 121.5995896  28.2665127
  37.7380080 120.8154353  28.0795056  39.1380980 121.2714613  28.4311647
  35.9151758 115.3436912  24.2260940  35.7176580 115.0352000  25.1104272
  36.5251464 116.0698551  24.3558870  43.9223093 125.8700860  27.3612881
  44.6526481 125.6086148  27.9220584  43.3130038 125.1329582  27.4014949
  42.0038390 124.0108722  27.9587332  41.2771554 123.8764687  27.3503824
  41.5885677 124.3185551  28.7644050  29.8268566 127.7298652  35.7234705
  30.7471576 127.9077251  35.9174751  29.7918149 126.7854697  35.5714404
  22.8230639 125.6399687  28.3657486  23.0416649 126.5716795  28.3845520
  23.2356413 125.2807661  29.1512290  29.7434857 116.1467772  20.3533175
  28.9335585 115.8014857  20.7288421  30.4319274 115.8375316  20.9420786
  31.6725405 115.2245819  21.9757471  32.2256444 115.6441272  22.6347494
  31.9095491 114.2981567  22.0180427  27.6958504 121.2132892  37.7560235
  27.5955231 122.1627249  37.6872326  27.4780046 120.8851131  36.8836305
  35.0504212 117.3346344  21.4836135  34.4702881 117.9931148  21.1014188
  34.7840145 116.5123689  21.0723553  33.5007779 116.7351402  23.6857456
  34.0007557 116.8467936  22.8771775  34.1443386 116.4312455  24.3258264
  27.5589774 124.6430031  36.5725297  27.0756856 125.4430391  36.7789186
  27.6450713 124.6537976  35.6192741  23.4863112 128.5334566  28.6093730
  24.4406365 128.5018508  28.5423662  23.2875635 128.0725190  29.4243956
  24.0762494 127.1035682  31.1764528  24.8955383 127.5979761  31.1999365
  24.3499302 126.1867650  31.1482096  33.8329090 119.4946434  20.5392484
  32.9454945 119.7796085  20.3212678  34.2483079 119.3340198  19.6919761
  37.1843626 119.5192955  24.2546823  37.9604016 120.0089408  24.5271440
  36.4591760 119.9451010  24.7118692  39.6216185 120.2320575  25.3120764
  40.2160676 119.9916311  24.6014072  39.6942769 119.5127705  25.9394300
  33.8070114 125.0100970  20.7542774  33.7505315 125.4669522  19.9150406
  34.3598456 124.2491655  20.5765617  37.6174920 120.7990702  21.5792893
  37.3611854 120.3987338  22.4101101  36.9927788 121.5134496  21.4543032
  41.9287258 123.5386775  24.0864185  41.3686816 123.6079965  24.8595747
  41.3230761 123.3627760  23.3663681  34.8859001 129.6973638  16.6838964
  35.7204605 129.2654837  16.5016438  34.7243344 129.5255652  17.6115858
  34.5404893 126.2005752  18.0495303  34.4853697 126.0350023  17.1083747
  33.9150949 126.9081784  18.2057493  19.3297408 121.4373816  31.8756725
  19.9756272 120.9272770  32.3643950  19.1214559 122.1742498  32.4500150
  31.8550800 128.5054663  37.3748866  32.7241960 128.6795316  37.0135501
  31.3757552 129.3249080  37.2524595  27.8501019 115.7013861  17.6280621
  27.8379689 116.6455700  17.7848892  28.7424441 115.5184006  17.3340083
  26.0236981 135.6251764  29.0538299  26.9264227 135.6575375  29.3704794
  25.7974351 134.6952215  29.0684635  27.7790583 134.3782751  25.7148378
  26.8286214 134.3784613  25.6012750  28.0823069 133.6315486  25.1984413
  31.6653138 112.2956637  21.8826558  30.8985534 111.7415124  22.0283241
  32.0763843 112.3678506  22.7440710  23.6694899 118.5841433  35.9731739
  24.5326361 118.2278238  36.1835064  23.0960310 118.2455328  36.6607144
  43.5143276 140.2143289  26.7794140  44.1521686 140.0950037  26.0757481
  43.3964119 141.1624133  26.8382093  40.3232982 140.1670717  26.7155665
  39.9851494 140.0511782  25.8276200  41.1922751 139.7661883  26.6956671
  40.8052765 141.3205569  32.6741871  40.7941406 140.9258367  31.8022374
  40.9673405 140.5871642  33.2675642  33.7284230 143.5157385  25.5436777
  34.5205522 143.1748210  25.1283076  33.9680880 143.6252361  26.4638930
  37.5260027 144.1042681  31.6221055  37.2349893 145.0088312  31.5067721
  38.1617011 144.1459209  32.3365124  38.4516233 141.4819529  28.2122414
  39.0479806 141.2575552  27.4979377  38.5091205 140.7404275  28.8147862
  43.0684545 137.9394743  23.8547348  43.8547634 137.5214166  23.5037766
  43.3323249 138.8440835  24.0228997  43.2394622 143.3767593  18.5536005
  42.6040455 143.4502220  19.2656910  42.9092028 143.9661192  17.8755085
  48.4692972 137.8769976  24.7580327  49.2018144 137.3069193  24.9918156
  47.7132327 137.4891577  25.1986833  40.0869091 140.2997218  21.9543669
  39.7227299 139.7727839  22.6656591  40.9436207 139.9095687  21.7810155
  45.9918392 131.5891550  29.2174936  45.6601717 132.4586961  28.9936151
  45.3964006 131.2727834  29.8968966  39.7274578 135.3287118  16.9505018
  39.8948981 136.1967354  17.3175489  39.5371748 135.4914399  16.0266307
  42.4849912 143.7904096  28.6170848  42.1850635 144.6929135  28.5086656
  42.1400971 143.5236280  29.4692001  35.9362393 140.2417893  24.6507553
  35.0112890 140.1094107  24.8585245  36.1846806 141.0212113  25.1477495
  45.8847055 136.3086637  26.2968286  44.9763933 136.2402045  26.0027047
  45.8334651 136.7858582  27.1250111  39.7063799 137.7844775  17.9351685
  39.5863425 138.2301826  18.7737165  39.0116388 138.1330093  17.3765223
  33.2971204 139.8851167  25.4851342  33.4263585 140.1385646  26.3990754
  32.6168655 140.4778875  25.1655997  39.9587921 137.7276282  34.2403183
  39.1821255 138.2870202  34.2306048  40.5978484 138.2133065  34.7618053
  47.7508702 134.5103075  28.0746160  47.1083082 134.8035608  27.4285954
  47.2463630 134.3955995  28.8799356  45.4048865 138.2566248  18.7632019
  46.3166722 138.4893635  18.5879716  44.8958513 138.8403292  18.2007097
  38.2134294 140.5361736  33.8021150  38.9548978 141.0746780  33.5255974
  37.5071279 141.1628024  33.9592702  43.6889633 142.6790876  32.3993311
  44.0972989 142.2373287  31.6547944  42.9666895 142.1043504  32.6527504
  40.0420703 137.6163483  29.7726868  40.8881898 138.0402896  29.9161517
  39.9819341 136.9597107  30.4665431  44.0118448 143.2392067  26.1545600
  43.3827310 143.4037781  25.4521668  43.6244110 143.6533676  26.9256564
  47.8907680 144.1746505  23.5089964  47.2058718 144.5545406  22.9586997
  47.9751529 144.7841831  24.2421912  43.1920149 135.2767851  31.4308042
  42.9481080 136.0309912  30.8942318  43.4680079 135.6553199  32.2655289
  45.1458611 141.8206464  30.1085308  45.3575507 142.4638223  29.4319689
  45.0988360 140.9868780  29.6407238  42.7484840 134.4324284  27.0121880
  41.8869319 134.7305538  27.3038617  42.7747275 134.6494683  26.0802912
  39.5646410 142.9766475  23.4195685  40.0284755 143.2554178  22.6300308
  39.3003208 142.0749919  23.2368776  36.4570491 142.5237956  26.3575449
  37.0271848 142.9525225  25.7192933  37.0478603 142.2420541  27.0559634
  38.5015296 139.0989627  20.2285251  39.2039339 139.5510671  20.6959177
  38.1695924 138.4573446  20.8565144  36.9495657 137.6901384  34.6036460
  36.3194318 138.3717665  34.8371857  36.8431745 137.5784465  33.6589598
  32.2440630 137.3573180  25.5302384  31.4539684 137.6130708  25.0542495
  32.7351877 138.1721518  25.6354425  46.2604439 144.6978419  28.2807665
  47.0821883 144.2958606  27.9990347  46.2566842 144.5946653  29.2323781
  34.1955375 137.7217759  22.4885861  33.3986538 137.8336453  23.0069356
  33.9680967 138.0604411  21.6226751  40.0261043 144.2462462  30.4368375
  40.0905475 144.7082870  31.2726547  39.3171967 143.6159827  30.5650685
  30.5278333 137.6103670  27.9617375  30.7786371 138.4950680  28.2274951
  31.0637881 137.4308272  27.1892467  54.3510432 141.0417167  24.6292636
  53.5974141 140.4724566  24.4736641  54.4857974 141.0079832  25.5763271
  36.2276400 131.9922150  36.9661711  35.8343346 131.4388348  37.6409355
  37.0442540 132.3032728  37.3568229  39.1444361 133.4080029  34.5581968
  39.8854074 134.0087182  34.4786430  39.3762284 132.6657667  34.0000010
  34.2885699 138.5936396  32.8360197  34.1739214 137.6921653  33.1367296
  33.4330217 138.8400093  32.4845014  41.3677537 146.5354136  34.4347698
  40.9241391 145.7490515  34.1168602  42.0294750 146.7233287  33.7691589
  43.4658775 146.8156936  32.4629099  43.4477250 147.6365817  31.9709368
  44.3878695 146.6911011  32.6879240  39.9231829 144.3301066  33.3052607
  40.4560166 143.5689354  33.0751915  39.3945910 144.0374718  34.0476762
  43.0901524 129.4361132  28.8346249  42.7465793 130.3262773  28.7585360
  43.4580487 129.2462789  27.9715834  43.0551807 139.4269743  17.3418684
  42.5398430 140.1974347  17.5807072  42.7829115 138.7534879  17.9651746
  40.6398918 134.2719444  22.4003923  39.7840514 133.8826294  22.2209561
  41.0525869 134.3511404  21.5403708  42.1698064 131.8065787  26.7995482
  41.6662860 131.7695922  25.9863288  42.4628671 132.7158530  26.8592139
  38.4140950 131.8904517  25.8061664  39.2793947 131.6947325  25.4467554
  38.4818459 131.6614868  26.7331021  48.0286081 142.1802097  19.2771858
  47.2515524 141.8413257  18.8327020  48.7077562 142.1854721  18.6026823
  42.8438110 137.2996835  19.1678466  42.5388245 137.6142984  20.0188609
  43.7968552 137.3778255  19.2105799  41.2884542 143.4587058  20.8171419
  40.7605903 142.7239818  20.5044657  40.7872044 144.2361735  20.5711388
  46.2677388 141.6536079  25.9338466  45.6101062 142.3435340  26.0218594
  47.0717787 142.0432511  26.2772452  36.0203269 134.1206724  23.1778031
  36.5947021 133.8981906  22.4451224  36.6074252 134.1895419  23.9306632
  45.0782846 140.0080451  23.9842408  45.5914728 140.6410443  24.4864117
  45.7284070 139.4081647  23.6185768  38.3225937 130.9947973  21.9053100
  37.6690349 130.6796991  21.2809715  38.2806411 130.3723714  22.6312923
  41.5563677 137.4829907  26.2300748  40.6386239 137.7044854  26.0722436
  41.9723821 137.5576217  25.3712455  42.3398725 138.8821323  21.3603428
  43.0870544 139.3942720  21.0510550  42.6090315 138.5605375  22.2207822
  45.8444643 144.9886453  22.1121550  45.3906970 144.1477363  22.1686741
  45.2138609 145.6247851  22.4496330  44.7877562 135.9178439  23.3422218
  44.0500319 135.4055825  23.6732460  45.0404336 135.4778820  22.5305494
  44.2877582 146.8262950  23.0471368  44.5800556 147.3868007  22.3283734
  44.7976203 147.1191511  23.8024527  44.8889190 128.6954691  23.9363987
  45.1948066 127.8352054  23.6489902  45.6141794 129.2872311  23.7362981
  39.1610269 138.9908484  24.4440178  39.2158879 138.0382320  24.3682655
  38.3501471 139.1467923  24.9281476  37.1002629 137.6085544  22.2030557
  36.2870495 137.9079714  22.6095749  37.5961623 137.2141232  22.9205039
  39.2511207 147.6043301  24.1364822  39.2087386 147.8304147  23.2073354
  40.1673906 147.3706675  24.2850623  42.6976841 138.0727368  31.0345451
  43.0526229 138.2998841  31.8939916  43.3448972 138.4045745  30.4122706
  48.4274578 141.1945804  21.7394780  48.2892476 141.3847400  20.8115969
  48.0710797 141.9565187  22.1962831  36.5916704 135.1803899  27.8191792
  37.2316083 135.0392658  27.1214755  35.7594235 134.8938413  27.4430394
  48.4543957 143.2622331  26.7506051  48.8880464 143.1697620  27.5989105
  49.1675538 143.2379832  26.1126067  37.3677008 144.4806330  23.9326784
  38.1617606 143.9856650  23.7309359  36.6568700 143.9524193  23.5694490
  42.1871852 146.8624425  28.2839152  42.2408875 147.4315361  29.0516868
  41.3186634 147.0326310  27.9193189  33.5945320 135.1504224  22.5964779
  33.8552138 136.0649557  22.4873939  34.4162493 134.6828667  22.7461391
  35.0670246 136.5641981  29.7663603  35.7393299 136.3559343  29.1176252
  34.2400032 136.3664067  29.3268835  49.3159507 143.3046032  29.2838937
  49.5095397 144.2091842  29.5298212  49.2160125 142.8453451  30.1177522
  40.9695818 133.1903922  31.7829264  40.3223733 133.8893872  31.6893740
  41.7396833 133.6240066  32.1505512  44.3774616 143.4552774  34.8579817
  44.2260122 143.2263326  33.9409901  44.3679295 144.4123376  34.8711162
  41.1459952 141.0284687  29.8426084  42.0752012 141.1795847  29.6695051
  40.7250982 141.1168708  28.9874730  39.9448284 145.0535352  27.6124621
  39.8059370 144.6854136  28.4850559  39.1562880 145.5682991  27.4408579
  41.4953499 144.4316954  25.0013459  41.1603332 144.3917724  25.8971109
  40.9957445 143.7661670  24.5283869  35.4697743 139.8384584  30.5266040
  35.3317541 139.1064823  31.1277579  36.3802666 139.7493484  30.2450228
  38.0980044 139.5504544  30.0149720  38.8079662 138.9097736  29.9736338
  38.0549352 139.8017438  30.9375901  46.0866822 146.4871897  32.9356299
  46.0279369 145.8031117  32.2686882  46.4886341 147.2290887  32.4836925
  36.8108978 136.5369762  31.8345359  36.2746335 136.0860500  32.4866956
  36.2225686 136.6715670  31.0915824  46.0884230 144.4511481  31.1670279
  45.2011008 144.1137403  31.2896678  46.6582781 143.7194512  31.4039044
  32.5448099 135.6725769  28.9198354  32.4606288 135.0651439  28.1848764
  31.7230805 136.1634788  28.9207850  42.7171813 134.1579333  24.2868549
  43.2140512 133.4049295  23.9669619  41.9458794 134.1943649  23.7211758
  50.5701570 139.8619698  25.9286840  50.5591446 140.7444414  25.5580774
  49.7018950 139.5091249  25.7341378  43.8001593 142.9151020  21.8606972
  42.8657872 143.0352482  21.6911677  43.9778262 142.0123487  21.5966982
  39.3006782 136.2996716  24.0140234  38.9304569 135.7467756  24.7021139
  39.7965874 135.6954849  23.4615234  47.1874145 138.7568339  22.3957006
  47.6534597 139.5896331  22.3217309  47.6381645 138.2913321  23.1002265
  37.1295980 146.7594211  31.1095252  37.8305440 147.3930694  31.2624646
  36.6591095 147.1008942  30.3490891  45.2550376 145.1012161  19.3943159
  45.5310220 144.9868755  20.3037033  44.3854875 144.7029645  19.3555332
  45.1590808 131.1248926  26.4347908  44.2453887 131.3553153  26.6030115
  45.5883909 131.2087370  27.2861940  44.9297266 139.3138818  28.9347802
  44.2768716 139.5614726  28.2800255  45.3077646 138.5002956  28.6010279
  40.9784839 140.0558629  35.4213839  40.3025476 139.9552759  36.0916214
  41.8012473 139.8997843  35.8849836  34.6972115 133.7100707  30.2593340
  34.7613442 134.5715537  29.8470737  34.6339235 133.0974708  29.5265698
  34.1724388 135.7823839  33.9066374  34.7996427 135.4000916  34.5203898
  33.3152307 135.5638041  34.2722066  44.5718496 146.1886814  35.5120109
  45.1158400 146.8016773  35.0175064  43.9905341 146.7466393  36.0287122
  34.4784177 135.6656265  25.8212277  33.7570763 136.2792232  25.6819751
  35.2677433 136.2014030  25.7428923  44.9210918 147.1116552  28.2714687
  43.9741253 146.9921904  28.1993014  45.2693691 146.2239050  28.3540949
  37.2810491 133.0010691  32.0952929  37.8044893 133.2472988  32.8579238
  37.0622824 133.8330726  31.6756066  41.9257351 146.9069269  24.4719039
  41.7782313 145.9785976  24.6526609  42.7510844 146.9289359  23.9876115
  35.7919595 135.5587336  20.3299532  36.1315668 136.0873257  19.6078140
  36.2391716 135.8967742  21.1058098  45.5291473 147.7297827  25.5583912
  46.4538020 147.5240689  25.4208363  45.3606776 147.4814228  26.4673254
  38.4863036 133.9424386  29.7802600  38.1459856 133.1432199  30.1823279
  37.7802042 134.2426097  29.2079433  39.1379508 131.0273699  28.2329923
  39.9605577 130.5534177  28.1108813  39.3817571 131.8064183  28.7328609
  37.7787742 134.0561957  18.5292824  38.4996105 134.4343210  18.0256541
  37.1553046 134.7750834  18.6327802  41.9218865 134.7607106  19.4651157
  42.1382480 135.6431744  19.1639985  41.4412932 134.3693320  18.7356799
  36.6618087 137.7192819  26.0421901  36.5162667 138.0333122  26.9346183
  36.1843290 138.3377720  25.4892800  38.5214469 134.7095367  26.0902791
  38.5076038 133.8136461  25.7535089  39.2386898 134.7166031  26.7241077
  40.3740600 135.1432708  28.1355918  40.1158378 136.0649778  28.1340249
  39.8425641 134.7463142  28.8256382  45.3186789 148.2483495  20.9146004
  45.4923666 147.6829917  20.1619856  45.8115680 149.0484390  20.7325494
  31.1363749 140.2598164  28.9809562  30.5917217 141.0357972  29.1129837
  32.0143099 140.6068968  28.8228684  37.9251365 133.5909748  21.3590361
  38.0467277 132.6626394  21.5581248  37.6353408 133.6048434  20.4468676
  40.7942556 131.2764658  24.4957081  40.8164253 131.3403991  23.5409060
  41.2110615 130.4369167  24.6897587  51.1726180 141.0119918  22.5336303
  51.6157326 140.2627243  22.1355427  50.2952690 141.0030054  22.1510035
  46.3061961 147.5650259  18.0142902  47.0012866 148.1856952  18.2330217
  46.6485112 146.7145610  18.2895280  31.9229771 139.3868060  31.8739719
  31.1811507 139.5350695  32.4604350  31.6022515 139.6476326  31.0106469
  48.2053385 145.0149965  19.5430233  48.7304709 145.3537237  18.8179553
  48.1175737 144.0796980  19.3593367  37.3367917 146.6259957  25.9747788
  36.7147927 145.9630662  25.6750015  38.0072784 146.6521089  25.2921435
  37.4092445 135.1041745  35.5680294  37.4580600 135.9803868  35.1858063
  37.9514959 134.5619138  34.9951937  47.8947291 145.6482868  34.8481431
  47.1042834 145.6307007  34.3085930  47.6580645 146.1871162  35.6030467
  48.0145166 142.4975335  32.1614159  48.0643171 142.3325342  33.1029682
  47.9059089 141.6302594  31.7712040  45.3048928 138.4806263  33.4773466
  46.2058791 138.3412728  33.1857464  45.3796903 138.6460718  34.4171643
  39.6391733 135.8573117  32.3226652  38.7695043 136.1506684  32.0509241
  39.8751214 136.4413562  33.0433916  49.5163363 144.9172276  32.4056181
  49.2248171 145.2802257  33.2419642  48.9035494 144.2039284  32.2269513
  50.7159045 142.4825156  24.9258751  51.5505936 142.9214960  25.0896311
  50.8518174 142.0063809  24.1066997  47.7650551 140.0404891  30.8736239
  48.2404672 140.2332537  30.0655090  46.8416116 140.0964077  30.6279622
  42.3430767 132.0752734  29.8392073  42.8612711 132.8113761  29.5138561
  41.9885900 132.3816728  30.6738832  42.5943361 128.4953017  25.3592969
  42.8745115 127.8276206  25.9853396  43.3793968 128.6882113  24.8467633
  46.4652220 136.9170651  29.1064544  47.4169643 137.0168749  29.1276768
  46.2955670 136.1248919  29.6162629  44.4866599 134.0026234  29.2923945
  43.8916531 134.2831247  28.5970434  44.2016296 134.4920135  30.0640686
  48.9440298 140.1376771  28.2206844  48.9116618 139.1992771  28.4066528
  49.5540921 140.2160807  27.4872669  49.0934786 136.9287814  28.2665127
  48.5773835 136.1446271  28.0795056  49.9774735 136.6006531  28.4311647
  46.7545513 130.6728830  24.2260940  46.5570334 130.3643918  25.1104272
  47.3645219 131.3990469  24.3558870  54.7616847 141.1992777  27.3612881
  55.4920236 140.9378066  27.9220584  54.1523793 140.4621499  27.4014949
  52.8432145 139.3400640  27.9587332  52.1165308 139.2056605  27.3503824
  52.4279431 139.6477469  28.7644050  40.6662321 143.0590570  35.7234705
  41.5865330 143.2369169  35.9174751  40.6311904 142.1146615  35.5714404
  33.6624393 140.9691604  28.3657486  33.8810403 141.9008712  28.3845520
  34.0750167 140.6099579  29.1512290  40.5828611 131.4759690  20.3533175
  39.7729340 131.1306775  20.7288421  41.2713028 131.1667233  20.9420786
  42.5119160 130.5537736  21.9757471  43.0650198 130.9733190  22.6347494
  42.7489246 129.6273485  22.0180427  38.5352259 136.5424810  37.7560235
  38.4348986 137.4919167  37.6872326  38.3173801 136.2143049  36.8836305
  45.8897967 132.6638262  21.4836135  45.3096636 133.3223066  21.1014188
  45.6233899 131.8415606  21.0723553  44.3401533 132.0643319  23.6857456
  44.8401311 132.1759854  22.8771775  44.9837141 131.7604372  24.3258264
  38.3983529 139.9721949  36.5725297  37.9150611 140.7722309  36.7789186
  38.4844468 139.9829894  35.6192741  34.3256866 143.8626484  28.6093730
  35.2800120 143.8310426  28.5423662  34.1269390 143.4017107  29.4243956
  34.9156248 142.4327600  31.1764528  35.7349137 142.9271678  31.1999365
  35.1893056 141.5159568  31.1482096  44.6722845 134.8238352  20.5392484
  43.7848700 135.1088003  20.3212678  45.0876834 134.6632115  19.6919761
  48.0237381 134.8484873  24.2546823  48.7997771 135.3381325  24.5271440
  47.2985515 135.2742927  24.7118692  50.4609939 135.5612492  25.3120764
  51.0554430 135.3208228  24.6014072  50.5336523 134.8419623  25.9394300
  44.6463868 140.3392888  20.7542774  44.5899070 140.7961439  19.9150406
  45.1992211 139.5783573  20.5765617  48.4568674 136.1282620  21.5792893
  48.2005609 135.7279255  22.4101101  47.8321542 136.8426414  21.4543032
  52.7681012 138.8678693  24.0864185  52.2080570 138.9371882  24.8595747
  52.1624516 138.6919678  23.3663681  45.7252756 145.0265556  16.6838964
  46.5598359 144.5946754  16.5016438  45.5637098 144.8547570  17.6115858
  45.3798648 141.5297669  18.0495303  45.3247452 141.3641941  17.1083747
  44.7544703 142.2373702  18.2057493  30.1691163 136.7665734  31.8756725
  30.8150026 136.2564688  32.3643950  29.9608314 137.5034415  32.4500150
  42.6944555 143.8346581  37.3748866  43.5635715 144.0087233  37.0135501
  42.2151306 144.6540998  37.2524595  38.6894773 131.0305778  17.6280621
  38.6773443 131.9747618  17.7848892  39.5818195 130.8475924  17.3340083
  42.5046893 127.6248555  21.8826558  41.7379288 127.0707042  22.0283241
  42.9157598 127.6970424  22.7440710  34.5088654 133.9133351  35.9731739
  35.3720115 133.5570156  36.1835064  33.9354064 133.5747245  36.6607144
  59.3086726 153.2061894  24.7580327  60.0411898 152.6361111  24.9918156
  58.5526082 152.8183495  25.1986833  56.8312147 146.9183468  29.2174936
  56.4995471 147.7878879  28.9936151  56.2357760 146.6019752  29.8968966
  50.5668333 150.6579035  16.9505018  50.7342735 151.5259272  17.3175489
  50.3765502 150.8206317  16.0266307  56.7240810 151.6378554  26.2968286
  55.8157687 151.5693963  26.0027047  56.6728406 152.1150499  27.1250111
  58.5902456 149.8394993  28.0746160  57.9476837 150.1327526  27.4285954
  58.0857385 149.7247913  28.8799356  54.0313903 150.6059769  31.4308042
  53.7874835 151.3601829  30.8942318  54.3073834 150.9845116  32.2655289
  53.5878595 149.7616202  27.0121880  52.7263074 150.0597455  27.3038617
  53.6141029 149.9786601  26.0802912  65.1904187 156.3709085  24.6292636
  64.4367895 155.8016483  24.4736641  65.3251728 156.3371750  25.5763271
  47.0670154 147.3214067  36.9661711  46.6737100 146.7680266  37.6409355
  47.8836295 147.6324646  37.3568229  49.9838115 148.7371946  34.5581968
  50.7247829 149.3379100  34.4786430  50.2156038 147.9949584  34.0000010
  53.9295278 144.7653049  28.8346249  53.5859548 145.6554691  28.7585360
  54.2974241 144.5754707  27.9715834  51.4792672 149.6011361  22.4003923
  50.6234269 149.2118212  22.2209561  51.8919624 149.6803322  21.5403708
  53.0091819 147.1357705  26.7995482  52.5056614 147.0987840  25.9863288
  53.3022426 148.0450447  26.8592139  49.2534705 147.2196434  25.8061664
  50.1187701 147.0239243  25.4467554  49.3212214 146.9906786  26.7331021
  53.6831864 152.6288753  19.1678466  53.3782000 152.9434902  20.0188609
  54.6362306 152.7070172  19.2105799  46.8597024 149.4498642  23.1778031
  47.4340776 149.2273824  22.4451224  47.4468006 149.5187337  23.9306632
  49.1619691 146.3239891  21.9053100  48.5084104 146.0088908  21.2809715
  49.1200166 145.7015632  22.6312923  55.6271317 151.2470357  23.3422218
  54.8894074 150.7347743  23.6732460  55.8798090 150.8070738  22.5305494
  55.7282944 144.0246609  23.9363987  56.0341821 143.1643972  23.6489902
  56.4535549 144.6164229  23.7362981  47.4310458 150.5095817  27.8191792
  48.0709838 150.3684576  27.1214755  46.5987989 150.2230330  27.4430394
  51.8089572 148.5195840  31.7829264  51.1617487 149.2185790  31.6893740
  52.5790588 148.9531984  32.1505512  53.5565567 149.4871250  24.2868549
  54.0534267 148.7341213  23.9669619  52.7852549 149.5235567  23.7211758
  50.1400536 151.6288633  24.0140234  49.7698324 151.0759674  24.7021139
  50.6359628 151.0246767  23.4615234  55.9984562 146.4540844  26.4347908
  55.0847642 146.6845071  26.6030115  56.4277664 146.5379288  27.2861940
  45.5365870 149.0392624  30.2593340  45.6007196 149.9007455  29.8470737
  45.4732990 148.4266626  29.5265698  48.1204245 148.3302609  32.0952929
  48.6438647 148.5764905  32.8579238  47.9016579 149.1622644  31.6756066
  49.3256791 149.2716304  29.7802600  48.9853611 148.4724117  30.1823279
  48.6195797 149.5718015  29.2079433  49.9773262 146.3565616  28.2329923
  50.7999332 145.8826095  28.1108813  50.2211326 147.1356100  28.7328609
  48.6181497 149.3853875  18.5292824  49.3389859 149.7635128  18.0256541
  47.9946801 150.1042752  18.6327802  52.7612620 150.0899024  19.4651157
  52.9776234 150.9723662  19.1639985  52.2806687 149.6985237  18.7356799
  49.3608224 150.0387285  26.0902791  49.3469793 149.1428378  25.7535089
  50.0780652 150.0457949  26.7241077  51.2134355 150.4724625  28.1355918
  50.9552133 151.3941696  28.1340249  50.6819395 150.0755060  28.8256382
  48.7645120 148.9201665  21.3590361  48.8861031 147.9918312  21.5581248
  48.4747162 148.9340351  20.4468676  51.6336310 146.6056576  24.4957081
  51.6558007 146.6695909  23.5409060  52.0504369 145.7661084  24.6897587
  56.1442683 153.8098180  33.4773466  57.0452545 153.6704645  33.1857464
  56.2190657 153.9752635  34.4171643  50.4785488 151.1865035  32.3226652
  49.6088797 151.4798601  32.0509241  50.7144968 151.7705480  33.0433916
  53.1824522 147.4044652  29.8392073  53.7006466 148.1405679  29.5138561
  52.8279655 147.7108645  30.6738832  53.4337116 143.8244935  25.3592969
  53.7138870 143.1568124  25.9853396  54.2187723 144.0174030  24.8467633
  57.3045974 152.2462569  29.1064544  58.2563397 152.3460666  29.1276768
  57.1349425 151.4540837  29.6162629  55.3260354 149.3318152  29.2923945
  54.7310286 149.6123165  28.5970434  55.0410050 149.8212053  30.0640686
  59.9328541 152.2579732  28.2665127  59.4167589 151.4738188  28.0795056
  60.8168489 151.9298448  28.4311647  57.5939267 146.0020747  24.2260940
  57.3964089 145.6935835  25.1104272  58.2038973 146.7282386  24.3558870
  65.6010602 156.5284695  27.3612881  66.3313990 156.2669983  27.9220584
  64.9917547 155.7913417  27.4014949  63.6825899 154.6692558  27.9587332
  62.9559063 154.5348523  27.3503824  63.2673186 154.9769386  28.7644050
  51.4222366 146.8051607  20.3533175  50.6123094 146.4598692  20.7288421
  52.1106783 146.4959151  20.9420786  53.3512914 145.8829654  21.9757471
  53.9043953 146.3025108  22.6347494  53.5883000 144.9565402  22.0180427
  56.7291721 147.9930179  21.4836135  56.1490390 148.6514983  21.1014188
  56.4627654 147.1707524  21.0723553  55.1795288 147.3935237  23.6857456
  55.6795066 147.5051772  22.8771775  55.8230895 147.0896290  24.3258264
  55.5116599 150.1530270  20.5392484  54.6242454 150.4379920  20.3212678
  55.9270588 149.9924033  19.6919761  58.8631135 150.1776791  24.2546823
  59.6391525 150.6673243  24.5271440  58.1379269 150.6034845  24.7118692
  61.3003694 150.8904410  25.3120764  61.8948185 150.6500146  24.6014072
  61.3730278 150.1711540  25.9394300  59.2962429 151.4574538  21.5792893
  59.0399363 151.0571173  22.4101101  58.6715297 152.1718331  21.4543032
  63.6074767 154.1970611  24.0864185  63.0474325 154.2663800  24.8595747
  63.0018270 154.0211595  23.3663681  49.5288528 146.3597696  17.6280621
  49.5167198 147.3039536  17.7848892  50.4211950 146.1767841  17.3340083
  53.3440647 142.9540473  21.8826558  52.5773043 142.3998959  22.0283241
  53.7551352 143.0262341  22.7440710  45.3482408 149.2425268  35.9731739
  46.2113870 148.8862073  36.1835064  44.7747819 148.9039163  36.6607144
   8.2871503  72.3391939  19.3987177   8.2760144  71.9444737  18.5267681
   8.4492143  71.6058011  19.9920949   5.0078764  75.1229051  18.3466361
   4.7168630  76.0274681  18.2313028   5.6435749  75.1645578  19.0610431
   9.9668649  74.8090466  15.3416155   9.6669373  75.7115505  15.2331962
   9.6219709  74.5422649  16.1937308   7.4406659  68.7462652  20.9648490
   6.6639993  69.3056572  20.9551354   8.0797222  69.2319435  21.4863360
   5.6953031  71.5548105  20.5266457   6.4367716  72.0933149  20.2501280
   4.9890017  72.1814394  20.6838008  11.1708371  73.6977246  19.1238618
  11.5791727  73.2559656  18.3793250  10.4485632  73.1229873  19.3772811
  10.6738886  66.2954221  18.1553349  10.4299818  67.0496281  17.6187624
  10.9498817  66.6739568  18.9900596  12.6277349  72.8392833  16.8330614
  12.8394244  73.4824593  16.1564995  12.5807097  72.0055150  16.3652544
   4.4314395  68.7087753  21.3281767   3.8013056  69.3904034  21.5617163
   4.3250483  68.5970835  20.3834905  13.7423177  75.7164789  15.0052972
  14.5640621  75.3144976  14.7235653  13.7385580  75.6133023  15.9569087
   7.5079780  75.2648832  17.1613682   7.5724213  75.7269239  17.9971854
   6.7990704  74.6346197  17.2895992  21.8329170  72.0603537  11.3537943
  21.0792878  71.4910935  11.1981947  21.9676711  72.0266202  12.3008578
   3.7095138  63.0108519  23.6907018   3.3162083  62.4574718  24.3654662
   4.5261278  63.3219098  24.0813535   8.8496275  77.5540506  21.1593004
   8.4060129  76.7676884  20.8413909   9.5113488  77.7419656  20.4936895
   3.6083396  79.0836307  15.6853683   4.1590821  78.9553371  14.9130677
   2.7694872  79.3831196  15.3348576  10.9477513  77.8343306  19.1874406
  10.9295988  78.6552187  18.6954675  11.8697433  77.7097381  19.4124547
   7.4050567  75.3487435  20.0297914   7.9378904  74.5875723  19.7997222
   6.8764648  75.0561087  20.7722069  10.1795579  69.0913738  17.7590757
  10.5344966  69.3185211  18.6185223  10.8267710  69.4232114  17.1368013
  15.9362695  74.2808701  13.4751358  16.3699202  74.1883990  14.3234412
  16.6494276  74.2566201  12.8371374   9.6690590  77.8810795  15.0084459
   9.7227612  78.4501731  15.7762174   8.8005372  78.0512680  14.6438496
  16.7978245  74.3232401  16.0084243  16.9914135  75.2278212  16.2543518
  16.6978863  73.8639820  16.8422828  11.8593353  74.4739144  21.5825124
  11.7078860  74.2449696  20.6655208  11.8498033  75.4309745  21.5956469
   8.6278690  72.0471057  16.5671390   9.5570750  72.1982216  16.3940358
   8.2069720  72.1355078  15.7120037   7.4267022  76.0721721  14.3369928
   7.2878107  75.7040506  15.2095866   6.6381618  76.5869361  14.1653886
  13.5685560  77.5058267  19.6601606  13.5098106  76.8217487  18.9932189
  13.9705079  78.2477257  19.2082232  13.5702967  75.4697850  17.8915585
  12.6829746  75.1323772  18.0141984  14.1401518  74.7380882  18.1284351
   7.1004121  80.1299303  14.8576829   7.0274292  80.9354274  15.3696133
   6.6581514  80.3291269  14.0324850   9.5602804  80.0286137  17.0134987
  10.2730777  80.6633602  16.9410889   9.0692833  80.1250003  16.1974989
   4.6114718  77.7780580  17.8340558   5.3124177  78.4117063  17.9869952
   4.1409833  78.1195312  17.0736197  12.4116004  70.3325188  15.6593108
  11.7587454  70.5801095  15.0045561  12.7896384  69.5189326  15.3255586
   8.4603577  71.0744999  22.1459146   7.7844214  70.9739128  22.8161521
   9.2831211  70.9184213  22.6095143   7.2026360  82.3811926  16.3816762
   7.7544668  82.5443548  17.1465847   7.5432553  82.9716364  15.7096786
  12.0537234  77.2073184  22.2365416  12.5977138  77.8203142  21.7420371
  11.4724079  77.7652762  22.7532429  10.3394747  80.3293902  13.3680444
  10.2145886  79.5283642  12.8591389  10.9973838  80.8240095  12.8794414
  12.4029655  78.1302922  14.9959994  11.4559991  78.0108273  14.9238321
  12.7512429  77.2425420  15.0786255  13.0110211  78.7484197  12.2829219
  13.9356758  78.5427058  12.1453670  12.8425514  78.5000598  13.1918560
   7.3492171  79.9470408  18.3965416   7.6579298  79.7019555  19.2688116
   8.1467653  80.1517046  17.9084286   4.8911183  66.1228115  22.2925600
   4.9399338  66.9990237  21.9103370   5.4333697  65.5805508  21.7197243
  15.3766028  76.6669238  21.5726737  14.5861572  76.6493377  21.0331237
  15.1399383  77.2057532  22.3275774  15.4963903  73.5161704  18.8859466
  15.5461908  73.3511712  19.8274989  15.3877827  72.6488963  18.4957347
  12.7867666  69.4992632  20.2018773  13.6877529  69.3599097  19.9102770
  12.8615640  69.6647087  21.1416950  16.9982100  75.9358646  19.1301487
  16.7066909  76.2988626  19.9664948  16.3854232  75.2225654  18.9514819
  18.1977783  73.5011526  11.6504058  19.0324674  73.9401330  11.8141618
  18.3336911  73.0250179  10.8312303  15.2469289  71.0591260  17.5981545
  15.7223410  71.2518907  16.7900397  14.3234854  71.1150446  17.3524929
  13.9470958  67.9357020  15.8309851  14.8988380  68.0355118  15.8522075
  13.7774408  67.1435289  16.3407935  16.4259035  71.1563140  14.9452151
  16.3935355  70.2179141  15.1311834  17.0359659  71.2347177  14.2117975
  22.2435585  72.2179147  14.0858187  22.9738974  71.9564435  14.6465891
  21.6342531  71.4807869  14.1260255  20.3250882  70.3587010  14.6832639
  19.5984046  70.2242975  14.0749130  19.9098169  70.6663838  15.4889357
   8.1481059  74.0776939  22.4480012   9.0684068  74.2555538  22.6420058
   8.1130642  73.1332985  22.2959711   6.0170997  67.5611180  24.4805542
   5.9167723  68.5105537  24.4117633   5.7992539  67.2329419  23.6081612
   5.8802267  70.9908319  23.2970603   5.3969348  71.7908679  23.5034492
   5.9663206  71.0016263  22.3438047   2.3974986  73.4513969  17.9009835
   3.2167875  73.9458048  17.9244672   2.6711794  72.5345937  17.8727402
  10.1763293  74.8532951  24.0994172  11.0454452  75.0273603  23.7380807
   9.6970044  75.6727367  23.9769902   4.3449473  81.9730052  15.7783606
   5.2476720  82.0053662  16.0950101   4.1186843  81.0430503  15.7929942
   6.1003075  80.7261038  12.4393685   5.1498706  80.7262900  12.3258057
   6.4035561  79.9793773  11.9229719   1.9907391  64.9319720  22.6977046
   2.8538853  64.5756525  22.9080371   1.4172802  64.5933615  23.3852450
  21.8355768  86.5621577  13.5039447  22.4734178  86.4428324  12.8002787
  21.7176611  87.5102421  13.5627399  18.6445475  86.5149005  13.4400972
  18.3063986  86.3990069  12.5521507  19.5135243  86.1140170  13.4201978
  19.1265258  87.6683856  19.3987177  19.1153898  87.2736655  18.5267681
  19.2885897  86.9349929  19.9920949  12.0496722  89.8635673  12.2682083
  12.8418014  89.5226497  11.8528382  12.2893372  89.9730648  13.1884237
  15.8472519  90.4520968  18.3466361  15.5562385  91.3566599  18.2313028
  16.4829503  90.4937496  19.0610431  16.7728726  87.8297817  14.9367721
  17.3692298  87.6053839  14.2224684  16.8303697  87.0882562  15.5393169
  21.3897037  84.2873030  10.5792655  22.1760126  83.8692454  10.2283072
  21.6535741  85.1919123  10.7474304  21.5607114  89.7245881   5.2781312
  20.9252947  89.7980507   5.9902217  21.2304521  90.3139480   4.6000391
  26.7905464  84.2248264  11.4825634  27.5230636  83.6547480  11.7163463
  26.0344820  83.8369864  11.9232139  18.4081584  86.6475505   8.6788976
  18.0439791  86.1206126   9.3901898  19.2648700  86.2573974   8.5055462
  24.3130884  77.9369838  15.9420242  23.9814209  78.8065249  15.7181457
  23.7176498  77.6206122  16.6214273  20.8062404  90.1382384  15.3416155
  20.5063127  91.0407423  15.2331962  20.4613463  89.8714567  16.1937308
  14.2574885  86.5896181  11.3752859  13.3325382  86.4572395  11.5830551
  14.5059299  87.3690400  11.8722802  24.2059548  82.6564924  13.0213592
  23.2976425  82.5880332  12.7272353  24.1547144  83.1336869  13.8495418
  11.6183696  86.2329454  12.2096648  11.7476078  86.4863933  13.1236060
  10.9381148  86.8257162  11.8901304  18.2800413  84.0754570  20.9648490
  17.5033748  84.6348490  20.9551354  18.9190977  84.5611352  21.4863360
  26.0721194  80.8581362  14.7991466  25.4295574  81.1513895  14.1531261
  25.5676123  80.7434283  15.6044663  23.7261358  84.6044536   5.4877325
  24.6379214  84.8371922   5.3125023  23.2171005  85.1881580   4.9252404
  16.5346786  86.8840023  20.5266457  17.2761470  87.4225067  20.2501280
  15.8283771  87.5106312  20.6838008  22.0102125  89.0269163  19.1238618
  22.4185481  88.5851574  18.3793250  21.2879387  88.4521791  19.3772811
  18.3633195  83.9641770  16.4972175  19.2094391  84.3881184  16.6406824
  18.3031833  83.3075394  17.1910738  22.3330940  89.5870354  12.8790907
  21.7039803  89.7516068  12.1766975  21.9456602  90.0011964  13.6501871
  26.2120172  90.5224792  10.2335271  25.5271210  90.9023693   9.6832304
  26.2964021  91.1320118  10.9667218  21.5132641  81.6246138  18.1553349
  21.2693573  82.3788199  17.6187624  21.7892571  82.0031486  18.9900596
  23.4671104  88.1684751  16.8330614  23.6787999  88.8116511  16.1564995
  23.4200852  87.3347067  16.3652544  21.0697333  80.7802571  13.7367186
  20.2081812  81.0783825  14.0283924  21.0959767  80.9972970  12.8048219
  17.8858902  89.3244762  10.1440992  18.3497247  89.6032465   9.3545615
  17.6215700  88.4228207   9.9614083  14.7782983  88.8716244  13.0820755
  15.3484340  89.3003512  12.4438240  15.3691095  88.5898828  13.7804941
  16.8227788  85.4467914   6.9530557  17.5251831  85.8988958   7.4204484
  16.4908417  84.8051733   7.5810450  15.2708150  84.0379671  21.3281767
  14.6406810  84.7195952  21.5617163  15.1644237  83.9262753  20.3834905
  10.5653122  83.7051467  12.2547691   9.7752176  83.9608996  11.7787801
  11.0564369  84.5199805  12.3599731  24.5816932  91.0456706  15.0052972
  25.4034375  90.6436894  14.7235653  24.5779334  90.9424940  15.9569087
  12.5167867  84.0696046   9.2131167  11.7199031  84.1814741   9.7314663
  12.2893460  84.4082699   8.3472058  18.3473535  90.5940750  17.1613682
  18.4117967  91.0561157  17.9971854  17.6384459  89.9638114  17.2895992
   8.8490825  83.9581958  14.6862682   9.0998863  84.8428967  14.9520257
   9.3850373  83.7786559  13.9137773  32.6722925  87.3895455  11.3537943
  31.9186633  86.8202853  11.1981947  32.8070466  87.3558119  12.3008578
  14.5488892  78.3400437  23.6907018  14.1555838  77.7866635  24.3654662
  15.3655033  78.6511015  24.0813535  17.4656853  79.7558316  21.2827274
  18.2066567  80.3565469  21.2031737  17.6974776  79.0135954  20.7245317
  12.6098191  84.9414683  19.5605504  12.4951706  84.0399940  19.8612603
  11.7542709  85.1878380  19.2090320  19.6890029  92.8832424  21.1593004
  19.2453883  92.0968802  20.8413909  20.3507243  93.0711574  20.4936895
  14.4477150  94.4128225  15.6853683  14.9984575  94.2845288  14.9130677
  13.6088626  94.7123114  15.3348576  21.7871267  93.1635223  19.1874406
  21.7689742  93.9844105  18.6954675  22.7091187  93.0389299  19.4124547
  18.2444321  90.6779353  20.0297914  18.7772658  89.9167641  19.7997222
  17.7158402  90.3853005  20.7722069  21.4114016  75.7839419  15.5591556
  21.0678286  76.6741061  15.4830666  21.7792979  75.5941077  14.6961141
  21.3764299  85.7748030   4.0663991  20.8610922  86.5452635   4.3052378
  21.1041607  85.1013166   4.6897052  18.9611410  80.6197731   9.1249229
  18.1053006  80.2304581   8.9454868  19.3738362  80.6989692   8.2649015
  20.4910557  78.1544074  13.5240789  19.9875352  78.1174209  12.7108594
  20.7841163  79.0636817  13.5837446  16.7353442  78.2382804  12.5306971
  17.6006439  78.0425612  12.1712860  16.8030951  78.0093156  13.4576328
  26.3498573  88.5280385   6.0017164  25.5728016  88.1891544   5.5572327
  27.0290054  88.5333008   5.3272129  21.1650602  83.6475122   5.8923772
  20.8600738  83.9621271   6.7433915  22.1181044  83.7256542   5.9351105
  19.6097034  89.8065345   7.5416726  19.0818396  89.0718105   7.2289964
  19.1084537  90.5840022   7.2956694  24.5889880  88.0014366  12.6583772
  23.9313554  88.6913627  12.7463901  25.3930279  88.3910798  13.0017759
  14.3415762  80.4685012   9.9023338  14.9159513  80.2460193   9.1696531
  14.9286744  80.5373706  10.6551939  23.3995339  86.3558739  10.7087714
  23.9127221  86.9888730  11.2109424  24.0496563  85.7559934  10.3431074
  19.8776170  83.8308194  12.9546055  18.9598731  84.0523141  12.7967743
  20.2936313  83.9054505  12.0957762  20.6611217  85.2299610   8.0848735
  21.4083036  85.7421007   7.7755857  20.9302807  84.9083663   8.9453129
  24.1657135  91.3364740   8.8366857  23.7119462  90.4955650   8.8932047
  23.5351102  91.9726138   9.1741637  23.1090055  82.2656726  10.0667524
  22.3712811  81.7534112  10.3977767  23.3616828  81.8257108   9.2550801
  22.6090074  93.1741237   9.7716675  22.9013049  93.7346294   9.0529041
  23.1188695  93.4669798  10.5269834  23.2101682  75.0432978  10.6609294
  23.5160559  74.1830342  10.3735209  23.9354287  75.6350598  10.4608287
  17.4822762  85.3386771  11.1685485  17.5371371  84.3860608  11.0927961
  16.6713964  85.4946210  11.6526783  15.4215122  83.9563831   8.9275863
  14.6082987  84.2558001   9.3341056  15.9174116  83.5619520   9.6450346
  17.5723699  93.9521588  10.8610128  17.5299878  94.1782434   9.9318660
  18.4886398  93.7184962  11.0095929  21.0189333  84.4205655  17.7590757
  21.3738721  84.6477129  18.6185223  21.6661464  84.7524032  17.1368013
  26.7487070  87.5424091   8.4640086  26.6104969  87.7325687   7.5361276
  26.3923289  88.3043474   8.9208138  14.9129196  81.5282186  14.5437098
  15.5528576  81.3870946  13.8460062  14.0806727  81.2416700  14.1675700
  26.7756450  89.6100618  13.4751358  27.2092956  89.5175907  14.3234412
  27.4888030  89.5858119  12.8371374  15.6889500  90.8284617  10.6572091
  16.4830099  90.3334937  10.4554666  14.9781193  90.3002480  10.2939796
  20.5084345  93.2102712  15.0084459  20.5621367  93.7793649  15.7762174
  19.6399126  93.3804597  14.6438496  11.9157813  81.4982511   9.3210085
  12.1764630  82.4127845   9.2119246  12.7374985  81.0306954   9.4706698
  13.3882738  82.9120269  16.4908910  14.0605791  82.7037631  15.8421559
  12.5612525  82.7142355  16.0514142  27.6371999  89.6524319  16.0084243
  27.8307889  90.5570129  16.2543518  27.5372617  89.1931738  16.8422828
  19.2908310  79.5382210  18.5074571  18.6436225  80.2372159  18.4139047
  20.0609325  79.9718353  18.8750819  22.6987108  89.8031062  21.5825124
  22.5472614  89.5741613  20.6655208  22.6891787  90.7601663  21.5956469
  19.4672444  87.3762974  16.5671390  20.3964504  87.5274134  16.3940358
  19.0463474  87.4646995  15.7120037  18.2660776  91.4013639  14.3369928
  18.1271862  91.0332423  15.2095866  17.4775372  91.9161278  14.1653886
  19.8165991  90.7795242  11.7258766  19.4815824  90.7396012  12.6216416
  19.3169937  90.1139957  11.2529176  13.7910235  86.1862872  17.2511347
  13.6530033  85.4543110  17.8522886  14.7015159  86.0971772  16.9695535
  16.4192536  85.8982831  16.7395027  17.1292154  85.2576023  16.6981645
  16.3761844  86.1495726  17.6621207  24.4079315  92.8350184  19.6601606
  24.3491861  92.1509404  18.9932189  24.8098833  93.5769174  19.2082232
  15.1321470  82.8848049  18.5590666  14.5958827  82.4338787  19.2112262
  14.5438178  83.0193958  17.8161130  24.4096722  90.7989768  17.8915585
  23.5223501  90.4615690  18.0141984  24.9795273  90.0672799  18.1284351
  10.8660591  82.0204056  15.6443661  10.7818780  81.4129726  14.9094070
  10.0443298  82.5113075  15.6453157  17.9397875  95.4591221  14.8576829
  17.8668047  96.2646192  15.3696133  17.4975268  95.6583186  14.0324850
  21.0384305  80.5057620  11.0113856  21.5353005  79.7527582  10.6914926
  20.2671287  80.5421937  10.4457065  28.8914062  86.2097986  12.6532147
  28.8803939  87.0922701  12.2826080  28.0231442  85.8569536  12.4586684
  20.3996559  95.3578055  17.0134987  21.1124531  95.9925519  16.9410889
  19.9086587  95.4541921  16.1974989  22.1214086  89.2629307   8.5852279
  21.1870364  89.3830770   8.4156983  22.2990754  88.3601774   8.3212289
  17.6219274  82.6475003  10.7385540  17.2517061  82.0946043  11.4266446
  18.1178366  82.0433136  10.1860540  25.5086637  85.1046627   9.1202313
  25.9747089  85.9374618   9.0462616  25.9594138  84.6391608   9.8247572
  15.4508472  93.1072498  17.8340558  16.1517932  93.7408981  17.9869952
  14.9803587  93.4487230  17.0736197  23.5762868  91.4490448   6.1188465
  23.8522712  91.3347042   7.0282339  22.7067367  91.0507933   6.0800638
  23.4803300  77.4727213  13.1593214  22.5666380  77.7031440  13.3275421
  23.9096401  77.5565658  14.0107247  23.2509758  85.6617105  15.6593108
  22.5981209  85.9093013  15.0045561  23.6290138  84.8481244  15.3255586
  20.2116932  95.6976799   9.7621279  20.3939327  94.8798455  10.2249031
  21.0349918  95.9144491   9.3246169  19.2997331  86.4036917  22.1459146
  18.6237968  86.3031046  22.8161521  20.1224965  86.2476130  22.6095143
  11.0476190  92.6408853  14.7671661  11.6329627  91.8952541  14.8999565
  10.8501029  92.9512810  15.6508325  18.0420114  97.7103844  16.3816762
  18.5938422  97.8735465  17.1465847  18.3826308  98.3008282  15.7096786
  13.0184607  80.0578994  16.9838646  13.0825934  80.9193825  16.5716044
  12.9551728  79.4452995  16.2511005  12.4936880  82.1302126  20.6311681
  13.1208919  81.7479204  21.2449205  11.6364799  81.9116328  20.9967373
  22.8930989  92.5365101  22.2365416  23.4370893  93.1495060  21.7420371
  22.3117833  93.0944680  22.7532429  21.1788501  95.6585819  13.3680444
  21.0539641  94.8575559  12.8591389  21.8367593  96.1532013  12.8794414
  12.7996670  82.0134552  12.5457584  12.0783255  82.6270520  12.4065057
  13.5889925  82.5492317  12.4674230  23.2423410  93.4594840  14.9959994
  22.2953745  93.3400191  14.9238321  23.5906183  92.5717338  15.0786255
  15.6022983  79.3488978  18.8198236  16.1257385  79.5951275  19.5824545
  15.3835317  80.1809013  18.4001373  20.2469843  93.2547556  11.1964346
  20.0994806  92.3264263  11.3771916  21.0723337  93.2767647  10.7121421
  23.8503965  94.0776115  12.2829219  24.7750512  93.8718976  12.1453670
  23.6819268  93.8292516  13.1918560  16.8075528  80.2902674  16.5047906
  16.4672349  79.4910487  16.9068586  16.1014535  80.5904384  15.9324739
  17.4592000  77.3751986  14.9575229  18.2818069  76.9012464  14.8354120
  17.7030064  78.1542470  15.4573916  14.9830579  84.0671107  12.7667208
  14.8375160  84.3811410  13.6591489  14.5055783  84.6856007  12.2138107
  16.8426962  81.0573655  12.8148097  16.8288531  80.1614748  12.4780395
  17.5599390  81.0644318  13.4486383  18.6953092  81.4910995  14.8601225
  18.4370870  82.4128066  14.8585555  18.1638133  81.0941429  15.5501689
  23.6399281  94.5961782   7.6391310  23.8136159  94.0308204   6.8865163
  24.1328172  95.3962677   7.4570800   9.4576241  86.6076451  15.7054869
   8.9129709  87.3836259  15.8375143  10.3355591  86.9547256  15.5473990
  19.1155048  77.6242945  11.2202387  19.1376745  77.6882278  10.2654367
  19.5323107  76.7847454  11.4142894  29.4938672  87.3598205   9.2581610
  29.9369818  86.6105530   8.8600733  28.6165183  87.3508341   8.8755342
  24.6274454  93.9128546   4.7388209  25.3225358  94.5335239   4.9575523
  24.9697604  93.0623898   5.0140586  10.2442263  85.7346347  18.5985026
   9.5023999  85.8828983  19.1849656   9.9235007  85.9954613  17.7351775
  26.5265877  91.3628252   6.2675539  27.0517201  91.7015525   5.5424859
  26.4388229  90.4275267   6.0838674  18.1885926  95.2762326  18.3965416
  18.4973052  95.0311472  19.2688116  18.9861408  95.4808964  17.9084286
  15.6580410  92.9738244  12.6993094  15.0360419  92.3108949  12.3995322
  16.3285277  92.9999376  12.0166742  15.7304937  81.4520032  22.2925600
  15.7793093  82.3282155  21.9103370  16.2727451  80.9097425  21.7197243
  26.2159783  91.9961156  21.5726737  25.4255327  91.9785294  21.0331237
  25.9793137  92.5349449  22.3275774  26.3357658  88.8453622  18.8859466
  26.3855663  88.6803629  19.8274989  26.2271581  87.9780881  18.4957347
  23.6261420  84.8284550  20.2018773  24.5271283  84.6891015  19.9102770
  23.7009395  84.9939005  21.1416950  17.9604226  82.2051405  19.0471959
  17.0907535  82.4984971  18.7754547  18.1963706  82.7891850  19.7679222
  27.8375855  91.2650563  19.1301487  27.5460663  91.6280544  19.9664948
  27.2247986  90.5517572  18.9514819  29.0371537  88.8303443  11.6504058
  29.8718428  89.2693247  11.8141618  29.1730666  88.3542096  10.8312303
  26.0863043  86.3883178  17.5981545  26.5617165  86.5810824  16.7900397
  25.1628608  86.4442364  17.3524929  20.6643260  78.4231022  16.5637379
  21.1825203  79.1592049  16.2383868  20.3098392  78.7295015  17.3984138
  20.9155854  74.8431304  12.0838276  21.1957607  74.1754493  12.7098702
  21.7006461  75.0360400  11.5712940  24.7864712  83.2648938  15.8309851
  25.7382135  83.3647036  15.8522075  24.6168162  82.4727207  16.3407935
  22.8079091  80.3504521  16.0169252  22.2129024  80.6309534  15.3215740
  22.5228788  80.8398422  16.7885993  27.2652790  86.4855058  14.9452151
  27.2329110  85.5471059  15.1311834  27.8753413  86.5639095  14.2117975
  27.4147278  83.2766101  14.9910434  26.8986327  82.4924558  14.8040363
  28.2987227  82.9484818  15.1556953  25.0758005  77.0207117  10.9506246
  24.8782826  76.7122205  11.8349578  25.6857711  77.7468756  11.0804176
  33.0829340  87.5471065  14.0858187  33.8132728  87.2856353  14.6465891
  32.4736285  86.8099787  14.1260255  31.1644637  85.6878927  14.6832639
  30.4377800  85.5534892  14.0749130  30.7491924  85.9955756  15.4889357
  18.9874813  89.4068857  22.4480012  19.9077823  89.5847456  22.6420058
  18.9524396  88.4624902  22.2959711  11.9836886  87.3169892  15.0902793
  12.2022896  88.2486999  15.1090827  12.3962660  86.9577866  15.8757597
  20.8331652  76.9016024   8.7002778  21.3862690  77.3211477   9.3592801
  21.0701738  75.9751772   8.7425734  16.8564751  82.8903097  24.4805542
  16.7561478  83.8397454  24.4117633  16.6386293  82.5621336  23.6081612
  24.2110459  79.0116549   8.2081442  23.6309128  79.6701353   7.8259494
  23.9446392  78.1893893   7.7968860  22.6614025  78.4121607  10.4102762
  23.1613804  78.5238141   9.6017081  23.3049633  78.1082659  11.0503571
  16.7196021  86.3200236  23.2970603  16.2363103  87.1200596  23.5034492
  16.8056960  86.3308181  22.3438047  12.6469359  90.2104771  15.3339037
  13.6012612  90.1788713  15.2668969  12.4481882  89.7495395  16.1489263
  13.2368741  88.7805887  17.9009835  14.0561630  89.2749966  17.9244672
  13.5105548  87.8637855  17.8727402  22.9935337  81.1716639   7.2637790
  22.1061192  81.4566290   7.0457985  23.4089326  81.0110403   6.4165067
  26.3449873  81.1963160  10.9792130  27.1210263  81.6859613  11.2516746
  25.6198007  81.6221214  11.4363999  28.7822432  81.9090779  12.0366070
  29.3766923  81.6686515  11.3259378  28.8549015  81.1897910  12.6639606
  22.9676361  86.6871175   7.4788080  22.9111562  87.1439727   6.6395713
  23.5204703  85.9261860   7.3010923  26.7781167  82.4760907   8.3038200
  26.5218101  82.0757543   9.1346408  26.1534035  83.1904701   8.1788339
  31.0893504  85.2156980  10.8109491  30.5293062  85.2850170  11.5841053
  30.4837008  85.0397965  10.0908988  24.0465248  91.3743843   3.4084270
  24.8810852  90.9425042   3.2261745  23.8849591  91.2025857   4.3361165
  23.7011140  87.8775956   4.7740610  23.6459944  87.7120228   3.8329054
  23.0757195  88.5851989   4.9302799   8.4903655  83.1144021  18.6002032
   9.1362519  82.6042975  19.0889257   8.2820806  83.8512702  19.1745457
  21.0157047  90.1824868  24.0994172  21.8848207  90.3565521  23.7380807
  20.5363799  91.0019285  23.9769902  15.1843227  97.3021969  15.7783606
  16.0870474  97.3345580  16.0950101  14.9580597  96.3722420  15.7929942
  16.9396829  96.0552956  12.4393685  15.9892460  96.0554817  12.3258057
  17.2429316  95.3085690  11.9229719  12.8301146  80.2611638  22.6977046
  13.6932608  79.9048443  22.9080371  12.2566557  79.9225533  23.3852450
  32.6749523 101.8913494  13.5039447  33.3127933 101.7720242  12.8002787
  32.5570366 102.8394338  13.5627399  29.4839229 101.8440922  13.4400972
  29.1457741 101.7281987  12.5521507  30.3528997 101.4432087  13.4201978
  29.9659012 102.9975774  19.3987177  29.9547653 102.6028572  18.5267681
  30.1279652 102.2641847  19.9920949  22.8890477 105.1927590  12.2682083
  23.6811769 104.8518415  11.8528382  23.1287127 105.3022565  13.1884237
  26.6866273 105.7812886  18.3466361  26.3956139 106.6858517  18.2313028
  27.3223258 105.8229414  19.0610431  27.6122480 103.1589734  14.9367721
  28.2086052 102.9345757  14.2224684  27.6697452 102.4174480  15.5393169
  32.2290791  99.6164948  10.5792655  33.0153881  99.1984371  10.2283072
  32.4929496 100.5211040  10.7474304  32.4000869 105.0537798   5.2781312
  31.7646702 105.1272425   5.9902217  32.0698275 105.6431397   4.6000391
  37.6299219  99.5540181  11.4825634  38.3624390  98.9839398  11.7163463
  36.8738574  99.1661782  11.9232139  29.2475338 101.9767423   8.6788976
  28.8833545 101.4498044   9.3901898  30.1042454 101.5865892   8.5055462
  35.1524639  93.2661755  15.9420242  34.8207964  94.1357166  15.7181457
  34.5570252  92.9498039  16.6214273  28.8880825  97.0057322   3.6750325
  29.0555228  97.8737559   4.0420796  28.6977994  97.1684604   2.7511614
  31.6456158 105.4674301  15.3416155  31.3456882 106.3699340  15.2331962
  31.3007218 105.2006485  16.1937308  25.0968640 101.9188098  11.3752859
  24.1719136 101.7864312  11.5830551  25.3453053 102.6982317  11.8722802
  35.0453302  97.9856842  13.0213592  34.1370180  97.9172250  12.7272353
  34.9940898  98.4628787  13.8495418  28.8670046  99.4614980   4.6596991
  28.7469671  99.9072031   5.4982472  28.1722634  99.8100298   4.1010530
  22.4577451 101.5621372  12.2096648  22.5869832 101.8155851  13.1236060
  21.7774902 102.1549080  11.8901304  29.1194168  99.4046487  20.9648490
  28.3427502  99.9640407  20.9551354  29.7584731  99.8903270  21.4863360
  36.9114949  96.1873280  14.7991466  36.2689329  96.4805813  14.1531261
  36.4069877  96.0726200  15.6044663  34.5655112  99.9336453   5.4877325
  35.4772968 100.1663840   5.3125023  34.0564759 100.5173497   4.9252404
  27.3740540 102.2131941  20.5266457  28.1155225 102.7516985  20.2501280
  26.6677526 102.8398229  20.6838008  32.8495880 104.3561081  19.1238618
  33.2579236 103.9143492  18.3793250  32.1273141 103.7813709  19.3772811
  29.2026950  99.2933688  16.4972175  30.0488145  99.7173101  16.6406824
  29.1425588  98.6367312  17.1910738  33.1724695 104.9162272  12.8790907
  32.5433557 105.0807986  12.1766975  32.7850357 105.3303881  13.6501871
  37.0513926 105.8516709  10.2335271  36.3664965 106.2315611   9.6832304
  37.1357776 106.4612036  10.9667218  32.3526395  96.9538056  18.1553349
  32.1087327  97.7080117  17.6187624  32.6286326  97.3323404  18.9900596
  34.3064858 103.4976669  16.8330614  34.5181753 104.1408428  16.1564995
  34.2594606 102.6638985  16.3652544  31.9091087  96.1094489  13.7367186
  31.0475566  96.4075743  14.0283924  31.9353522  96.3264888  12.8048219
  28.7252656 104.6536680  10.1440992  29.1891002 104.9324383   9.3545615
  28.4609455 103.7520124   9.9614083  25.6176738 104.2008161  13.0820755
  26.1878095 104.6295430  12.4438240  26.2084849 103.9190746  13.7804941
  27.6621543 100.7759832   6.9530557  28.3645586 101.2280876   7.4204484
  27.3302171 100.1343651   7.5810450  26.1101904  99.3671589  21.3281767
  25.4800565 100.0487870  21.5617163  26.0037992  99.2554670  20.3834905
  21.4046876  99.0343385  12.2547691  20.6145930  99.2900913  11.7787801
  21.8958124  99.8491723  12.3599731  35.4210686 106.3748624  15.0052972
  36.2428130 105.9728811  14.7235653  35.4173089 106.2716858  15.9569087
  23.3561622  99.3987964   9.2131167  22.5592785  99.5106658   9.7314663
  23.1287214  99.7374616   8.3472058  29.1867289 105.9232667  17.1613682
  29.2511722 106.3853074  17.9971854  28.4778213 105.2930032  17.2895992
  19.6884579  99.2873875  14.6862682  19.9392618 100.1720885  14.9520257
  20.2244128  99.1078477  13.9137773  43.5116679 102.7187372  11.3537943
  42.7580387 102.1494770  11.1981947  43.6464220 102.6850037  12.3008578
  25.3882647  93.6692355  23.6907018  24.9949592  93.1158553  24.3654662
  26.2048787  93.9802933  24.0813535  28.3050608  95.0850234  21.2827274
  29.0460321  95.6857387  21.2031737  28.5368531  94.3427871  20.7245317
  23.4491946 100.2706601  19.5605504  23.3345461  99.3691858  19.8612603
  22.5936464 100.5170298  19.2090320  30.5283784 108.2124341  21.1593004
  30.0847638 107.4260720  20.8413909  31.1900997 108.4003492  20.4936895
  25.2870905 109.7420143  15.6853683  25.8378330 109.6137206  14.9130677
  24.4482381 110.0415032  15.3348576  32.6265022 108.4927141  19.1874406
  32.6083497 109.3136022  18.6954675  33.5484942 108.3681216  19.4124547
  29.0838076 106.0071271  20.0297914  29.6166413 105.2459559  19.7997222
  28.5552157 105.7144922  20.7722069  32.2507771  91.1131337  15.5591556
  31.9072040  92.0032978  15.4830666  32.6186733  90.9232994  14.6961141
  32.2158053 101.1039948   4.0663991  31.7004677 101.8744552   4.3052378
  31.9435362 100.4305084   4.6897052  29.8005164  95.9489648   9.1249229
  28.9446761  95.5596499   8.9454868  30.2132116  96.0281609   8.2649015
  31.3304311  93.4835992  13.5240789  30.8269107  93.4466127  12.7108594
  31.6234918  94.3928734  13.5837446  27.5747197  93.5674721  12.5306971
  28.4400194  93.3717530  12.1712860  27.6424706  93.3385073  13.4576328
  37.1892328 103.8572302   6.0017164  36.4121770 103.5183462   5.5572327
  37.8683809 103.8624926   5.3272129  32.0044357  98.9767040   5.8923772
  31.6994492  99.2913189   6.7433915  32.9574799  99.0548460   5.9351105
  30.4490788 105.1357263   7.5416726  29.9212150 104.4010023   7.2289964
  29.9478291 105.9131939   7.2956694  35.4283634 103.3306284  12.6583772
  34.7707309 104.0205545  12.7463901  36.2324034 103.7202716  13.0017759
  25.1809516  95.7976929   9.9023338  25.7553268  95.5752111   9.1696531
  25.7680498  95.8665624  10.6551939  34.2389093 101.6850656  10.7087714
  34.7520975 102.3180648  11.2109424  34.8890317 101.0851852  10.3431074
  27.4832184  92.6718178   8.6298407  26.8296596  92.3567195   8.0055022
  27.4412658  92.0493919   9.3558230  30.7169924  99.1600112  12.9546055
  29.7992485  99.3815059  12.7967743  31.1330068  99.2346422  12.0957762
  31.5004972 100.5591528   8.0848735  32.2476791 101.0712925   7.7755857
  31.7696561 100.2375580   8.9453129  35.0050889 106.6656658   8.8366857
  34.5513217 105.8247568   8.8932047  34.3744856 107.3018056   9.1741637
  33.9483809  97.5948644  10.0667524  33.2106566  97.0826030  10.3977767
  34.2010583  97.1549025   9.2550801  33.4483829 108.5033154   9.7716675
  33.7406803 109.0638212   9.0529041  33.9582449 108.7961715  10.5269834
  34.0495436  90.3724896  10.6609294  34.3554313  89.5122259  10.3735209
  34.7748041  90.9642516  10.4608287  28.3216516 100.6678689  11.1685485
  28.3765126  99.7152525  11.0927961  27.5107718 100.8238128  11.6526783
  26.2608876  99.2855749   8.9275863  25.4476742  99.5849919   9.3341056
  26.7567870  98.8911437   9.6450346  28.4117454 109.2813506  10.8610128
  28.3693633 109.5074352   9.9318660  29.3280153 109.0476880  11.0095929
  31.8583088  99.7497573  17.7590757  32.2132475  99.9769046  18.6185223
  32.5055219 100.0815950  17.1368013  37.5880825 102.8716009   8.4640086
  37.4498723 103.0617605   7.5361276  37.2317043 103.6335392   8.9208138
  25.7522951  96.8574104  14.5437098  26.3922330  96.7162863  13.8460062
  24.9200481  96.5708617  14.1675700  37.6150204 104.9392536  13.4751358
  38.0486711 104.8467825  14.3234412  38.3281785 104.9150036  12.8371374
  26.5283255 106.1576535  10.6572091  27.3223853 105.6626855  10.4554666
  25.8174947 105.6294398  10.2939796  31.3478099 108.5394630  15.0084459
  31.4015121 109.1085566  15.7762174  30.4792881 108.7096515  14.6438496
  22.7551567  96.8274429   9.3210085  23.0158384  97.7419762   9.2119246
  23.5768740  96.3598872   9.4706698  24.2276493  98.2412186  16.4908910
  24.8999546  98.0329548  15.8421559  23.4006279  98.0434272  16.0514142
  38.4765754 104.9816237  16.0084243  38.6701644 105.8862047  16.2543518
  38.3766372 104.5223656  16.8422828  30.1302065  94.8674127  18.5074571
  29.4829980  95.5664077  18.4139047  30.9003080  95.3010271  18.8750819
  33.5380862 105.1322979  21.5825124  33.3866369 104.9033531  20.6655208
  33.5285542 106.0893581  21.5956469  30.3066199 102.7054892  16.5671390
  31.2358259 102.8566052  16.3940358  29.8857229 102.7938913  15.7120037
  29.1054531 106.7305557  14.3369928  28.9665616 106.3624341  15.2095866
  28.3169127 107.2453196  14.1653886  30.6559746 106.1087159  11.7258766
  30.3209578 106.0687929  12.6216416  30.1563691 105.4431875  11.2529176
  24.6303990 101.5154789  17.2511347  24.4923788 100.7835028  17.8522886
  25.5408913 101.4263689  16.9695535  27.2586290 101.2274749  16.7395027
  27.9685909 100.5867941  16.6981645  27.2155599 101.4787643  17.6621207
  35.2473069 108.1642102  19.6601606  35.1885615 107.4801322  18.9932189
  35.6492588 108.9061092  19.2082232  25.9715224  98.2139966  18.5590666
  25.4352581  97.7630705  19.2112262  25.3831933  98.3485875  17.8161130
  35.2490476 106.1281686  17.8915585  34.3617255 105.7907608  18.0141984
  35.8189027 105.3964717  18.1284351  21.7054346  97.3495974  15.6443661
  21.6212534  96.7421644  14.9094070  20.8837052  97.8404992  15.6453157
  28.7791630 110.7883138  14.8576829  28.7061801 111.5938110  15.3696133
  28.3369023 110.9875104  14.0324850  31.8778060  95.8349538  11.0113856
  32.3746759  95.0819500  10.6914926  31.1065041  95.8713854  10.4457065
  39.7307817 101.5389903  12.6532147  39.7197693 102.4214619  12.2826080
  38.8625196 101.1861454  12.4586684  31.2390313 110.6869972  17.0134987
  31.9518286 111.3217437  16.9410889  30.7480342 110.7833838  16.1974989
  32.9607840 104.5921225   8.5852279  32.0264119 104.7122687   8.4156983
  33.1384509 103.6893692   8.3212289  28.4613028  97.9766921  10.7385540
  28.0910816  97.4237961  11.4266446  28.9572121  97.3725054  10.1860540
  36.3480392 100.4338544   9.1202313  36.8140844 101.2666536   9.0462616
  36.7987892  99.9683526   9.8247572  26.2902227 108.4364416  17.8340558
  26.9911686 109.0700899  17.9869952  25.8197342 108.7779147  17.0736197
  34.4156623 106.7782365   6.1188465  34.6916467 106.6638960   7.0282339
  33.5461121 106.3799850   6.0800638  34.3197054  92.8019131  13.1593214
  33.4060134  93.0323358  13.3275421  34.7490156  92.8857575  14.0107247
  34.0903513 100.9909023  15.6593108  33.4374963 101.2384931  15.0045561
  34.4683893 100.1773161  15.3255586  31.0510687 111.0268716   9.7621279
  31.2333081 110.2090372  10.2249031  31.8743673 111.2436409   9.3246169
  30.1391086 101.7328834  22.1459146  29.4631723 101.6322964  22.8161521
  30.9618720 101.5768048  22.6095143  21.8869945 107.9700771  14.7671661
  22.4723382 107.2244459  14.8999565  21.6894783 108.2804727  15.6508325
  28.8813869 113.0395762  16.3816762  29.4332177 113.2027383  17.1465847
  29.2220062 113.6300199  15.7096786  23.8578362  95.3870911  16.9838646
  23.9219688  96.2485742  16.5716044  23.7945482  94.7744913  16.2511005
  23.3330634  97.4594044  20.6311681  23.9602673  97.0771121  21.2449205
  22.4758553  97.2408246  20.9967373  33.7324743 107.8657019  22.2365416
  34.2764647 108.4786977  21.7420371  33.1511588 108.4236598  22.7532429
  32.0182256 110.9877737  13.3680444  31.8933395 110.1867477  12.8591389
  32.6761347 111.4823931  12.8794414  23.6390424  97.3426470  12.5457584
  22.9177010  97.9562437  12.4065057  24.4283680  97.8784234  12.4674230
  34.0817164 108.7886757  14.9959994  33.1347500 108.6692108  14.9238321
  34.4299937 107.9009255  15.0786255  26.4416738  94.6780896  18.8198236
  26.9651140  94.9243193  19.5824545  26.2229071  95.5100931  18.4001373
  31.0863598 108.5839473  11.1964346  30.9388560 107.6556181  11.3771916
  31.9117091 108.6059564  10.7121421  24.9525842  97.2357541   7.0544838
  25.2921914  97.7643462   6.3323447  25.3997962  97.5737947   7.8303405
  34.6897720 109.4068032  12.2829219  35.6144267 109.2010894  12.1453670
  34.5213023 109.1584433  13.1918560  27.6469283  95.6194591  16.5047906
  27.3066103  94.8202404  16.9068586  26.9408289  95.9196302  15.9324739
  28.2985755  92.7043904  14.9575229  29.1211824  92.2304382  14.8354120
  28.5423818  93.4834387  15.4573916  26.9393989  95.7332162   5.2538131
  27.6602352  96.1113415   4.7501848  26.3159293  96.4521039   5.3573109
  31.0825112  96.4377311   6.1896463  31.2988726  97.3201949   5.8885291
  30.6019179  96.0463525   5.4602105  25.8224333  99.3963024  12.7667208
  25.6768914  99.7103327  13.6591489  25.3449537 100.0147925  12.2138107
  27.6820716  96.3865572  12.8148097  27.6682285  95.4906666  12.4780395
  28.3993144  96.3936236  13.4486383  29.5346847  96.8202913  14.8601225
  29.2764625  97.7419983  14.8585555  29.0031887  96.4233347  15.5501689
  34.4793036 109.9253700   7.6391310  34.6529913 109.3600122   6.8865163
  34.9721927 110.7254595   7.4570800  20.2969996 101.9368369  15.7054869
  19.7523464 102.7128177  15.8375143  21.1749345 102.2839173  15.5473990
  27.0857612  95.2679953   8.0835668  27.2073523  94.3396599   8.2826555
  26.7959655  95.2818639   7.1713983  29.9548803  92.9534863  11.2202387
  29.9770499  93.0174196  10.2654367  30.3716862  92.1139372  11.4142894
  40.3332427 102.6890123   9.2581610  40.7763573 101.9397448   8.8600733
  39.4558937 102.6800259   8.8755342  35.4668208 109.2420464   4.7388209
  36.1619113 109.8627157   4.9575523  35.8091358 108.3915815   5.0140586
  21.0836017 101.0638265  18.5985026  20.3417753 101.2120900  19.1849656
  20.7628762 101.3246531  17.7351775  37.3659631 106.6920170   6.2675539
  37.8910955 107.0307442   5.5424859  37.2781984 105.7567185   6.0838674
  29.0279680 110.6054243  18.3965416  29.3366806 110.3603390  19.2688116
  29.8255162 110.8100882  17.9084286  26.4974164 108.3030162  12.6993094
  25.8754174 107.6400867  12.3995322  27.1679031 108.3291294  12.0166742
  26.5698692  96.7811950  22.2925600  26.6186847  97.6574073  21.9103370
  27.1121206  96.2389343  21.7197243  37.0553537 107.3253073  21.5726737
  36.2649081 107.3077212  21.0331237  36.8186892 107.8641367  22.3275774
  37.1751412 104.1745540  18.8859466  37.2249417 104.0095547  19.8274989
  37.0665336 103.3072799  18.4957347  34.4655175 100.1576468  20.2018773
  35.3665038 100.0182932  19.9102770  34.5403149 100.3230922  21.1416950
  28.7997980  97.5343322  19.0471959  27.9301290  97.8276888  18.7754547
  29.0357461  98.1183767  19.7679222  38.6769609 106.5942481  19.1301487
  38.3854418 106.9572462  19.9664948  38.0641741 105.8809489  18.9514819
  39.8765292 104.1595361  11.6504058  40.7112183 104.5985165  11.8141618
  40.0124420 103.6834014  10.8312303  36.9256798 101.7175096  17.5981545
  37.4010919 101.9102742  16.7900397  36.0022363 101.7734282  17.3524929
  31.5037014  93.7522939  16.5637379  32.0218958  94.4883966  16.2383868
  31.1492147  94.0586933  17.3984138  31.7549608  90.1723222  12.0838276
  32.0351362  89.5046411  12.7098702  32.5400215  90.3652317  11.5712940
  35.6258467  98.5940856  15.8309851  36.5775889  98.6938954  15.8522075
  35.4561917  97.8019124  16.3407935  33.6472846  95.6796439  16.0169252
  33.0522778  95.9601452  15.3215740  33.3622543  96.1690340  16.7885993
  38.1046544 101.8146976  14.9452151  38.0722864 100.8762976  15.1311834
  38.7147168 101.8931012  14.2117975  38.2541033  98.6058019  14.9910434
  37.7380081  97.8216476  14.8040363  39.1380981  98.2776736  15.1556953
  35.9151760  92.3499035  10.9506246  35.7176581  92.0414123  11.8349578
  36.5251465  93.0760673  11.0804176  43.9223094 102.8762982  14.0858187
  44.6526483 102.6148270  14.6465891  43.3130040 102.1391704  14.1260255
  42.0038391 101.0170845  14.6832639  41.2771555 100.8826810  14.0749130
  41.5885678 101.3247674  15.4889357  29.8268568 104.7360775  22.4480012
  30.7471577 104.9139374  22.6420058  29.7918151 103.7916820  22.2959711
  22.8230640 102.6461809  15.0902793  23.0416650 103.5778917  15.1090827
  23.2356414 102.2869784  15.8757597  29.7434858  93.1529895   7.0778481
  28.9335586  92.8076980   7.4533727  30.4319275  92.8437438   7.6666093
  31.6725406  92.2307941   8.7002778  32.2256445  92.6503395   9.3592801
  31.9095493  91.3043690   8.7425734  27.6958506  98.2195015  24.4805542
  27.5955232  99.1689372  24.4117633  27.4780048  97.8913254  23.6081612
  35.0504213  94.3408467   8.2081442  34.4702882  94.9993271   7.8259494
  34.7840146  93.5185811   7.7968860  33.5007780  93.7413524  10.4102762
  34.0007558  93.8530059   9.6017081  34.1443388  93.4374577  11.0503571
  27.5589776 101.6492154  23.2970603  27.0756857 102.4492514  23.5034492
  27.6450715 101.6600099  22.3438047  23.4863113 105.5396689  15.3339037
  24.4406367 105.5080631  15.2668969  23.2875637 105.0787312  16.1489263
  24.0762495 104.1097805  17.9009835  24.8955384 104.6041883  17.9244672
  24.3499303 103.1929773  17.8727402  33.8329091  96.5008557   7.2637790
  32.9454946  96.7858208   7.0457985  34.2483081  96.3402320   6.4165067
  37.1843628  96.5255078  10.9792130  37.9604018  97.0151530  11.2516746
  36.4591762  96.9513132  11.4363999  39.6216186  97.2382697  12.0366070
  40.2160677  96.9978433  11.3259378  39.6942770  96.5189828  12.6639606
  33.8070115 102.0163093   7.4788080  33.7505317 102.4731644   6.6395713
  34.3598458 101.2553777   7.3010923  37.6174921  97.8052825   8.3038200
  37.3611855  97.4049460   9.1346408  36.9927789  98.5196619   8.1788339
  41.9287259 100.5448898  10.8109491  41.3686817 100.6142087  11.5841053
  41.3230762 100.3689883  10.0908988  34.8859002 106.7035761   3.4084270
  35.7204606 106.2716959   3.2261745  34.7243345 106.5317775   4.3361165
  34.5404895 103.2067874   4.7740610  34.4853698 103.0412146   3.8329054
  33.9150950 103.9143907   4.9302799  19.3297409  98.4435939  18.6002032
  19.9756273  97.9334892  19.0889257  19.1214561  99.1804620  19.1745457
  31.8550802 105.5116786  24.0994172  32.7241961 105.6857438  23.7380807
  31.3757553 106.3311203  23.9769902  27.8501020  92.7075983   4.3525928
  27.8379690  93.6517823   4.5094199  28.7424442  92.5246129   4.0585389
  26.0236982 112.6313887  15.7783606  26.9264229 112.6637497  16.0950101
  25.7974352 111.7014338  15.7929942  27.7790584 111.3844874  12.4393685
  26.8286215 111.3846735  12.3258057  28.0823070 110.6377608  11.9229719
  31.6653139  89.3018760   8.6071865  30.8985535  88.7477246   8.7528547
  32.0763844  89.3740629   9.4686016  23.6694900  95.5903556  22.6977046
  24.5326362  95.2340360  22.9080371  23.0960311  95.2517450  23.3852450
  43.5143277 117.2205412  13.5039447  44.1521687 117.1012159  12.8002787
  43.3964120 118.1686256  13.5627399  40.3232984 117.1732840  13.4400972
  39.9851495 117.0573905  12.5521507  41.1922752 116.7724005  13.4201978
  40.8052767 118.3267692  19.3987177  40.7941407 117.9320490  18.5267681
  40.9673406 117.5933764  19.9920949  33.7284231 120.5219508  12.2682083
  34.5205523 120.1810333  11.8528382  33.9680881 120.6314483  13.1884237
  37.5260028 121.1104804  18.3466361  37.2349894 122.0150434  18.2313028
  38.1617012 121.1521331  19.0610431  38.4516235 118.4881652  14.9367721
  39.0479807 118.2637674  14.2224684  38.5091206 117.7466398  15.5393169
  43.0684546 114.9456866  10.5792655  43.8547635 114.5276289  10.2283072
  43.3323250 115.8502958  10.7474304  43.2394623 120.3829716   5.2781312
  42.6040456 120.4564343   5.9902217  42.9092030 120.9723315   4.6000391
  48.4692973 114.8832099  11.4825634  49.2018145 114.3131316  11.7163463
  47.7132329 114.4953699  11.9232139  40.0869093 117.3059340   8.6788976
  39.7227300 116.7789961   9.3901898  40.9436209 116.9157810   8.5055462
  45.9918393 108.5953673  15.9420242  45.6601718 109.4649084  15.7181457
  45.3964007 108.2789957  16.6214273  39.7274580 112.3349240   3.6750325
  39.8948982 113.2029477   4.0420796  39.5371749 112.4976522   2.7511614
  42.4849913 120.7966219  15.3416155  42.1850636 121.6991258  15.2331962
  42.1400972 120.5298402  16.1937308  35.9362394 117.2480016  11.3752859
  35.0112891 117.1156230  11.5830551  36.1846808 118.0274235  11.8722802
  45.8847057 113.3148759  13.0213592  44.9763934 113.2464168  12.7272353
  45.8334652 113.7920704  13.8495418  39.7063801 114.7906898   4.6596991
  39.5863426 115.2363948   5.4982472  39.0116389 115.1392215   4.1010530
  33.2971205 116.8913289  12.2096648  33.4263587 117.1447768  13.1236060
  32.6168657 117.4840997  11.8901304  39.9587922 114.7338405  20.9648490
  39.1821257 115.2932325  20.9551354  40.5978486 115.2195188  21.4863360
  47.7508703 111.5165198  14.7991466  47.1083083 111.8097731  14.1531261
  47.2463632 111.4018118  15.6044663  45.4048867 115.2628371   5.4877325
  46.3166723 115.4955758   5.3125023  44.8958514 115.8465415   4.9252404
  38.2134295 117.5423858  20.5266457  38.9548979 118.0808902  20.2501280
  37.5071280 118.1690147  20.6838008  43.6889634 119.6852999  19.1238618
  44.0972990 119.2435409  18.3793250  42.9666896 119.1105626  19.3772811
  40.0420704 114.6225605  16.4972175  40.8881900 115.0465019  16.6406824
  39.9819342 113.9659230  17.1910738  44.0118449 120.2454189  12.8790907
  43.3827312 120.4099903  12.1766975  43.6244111 120.6595799  13.6501871
  47.8907681 121.1808627  10.2335271  47.2058719 121.5607529   9.6832304
  47.9751530 121.7903954  10.9667218  43.1920150 112.2829974  18.1553349
  42.9481082 113.0372034  17.6187624  43.4680080 112.6615321  18.9900596
  45.1458613 118.8268586  16.8330614  45.3575508 119.4700346  16.1564995
  45.0988361 117.9930903  16.3652544  42.7484842 111.4386407  13.7367186
  41.8869321 111.7367660  14.0283924  42.7747276 111.6556806  12.8048219
  39.5646411 119.9828597  10.1440992  40.0284756 120.2616300   9.3545615
  39.3003209 119.0812042   9.9614083  36.4570492 119.5300079  13.0820755
  37.0271849 119.9587347  12.4438240  37.0478604 119.2482664  13.7804941
  38.5015297 116.1051750   6.9530557  39.2039340 116.5572793   7.4204484
  38.1695925 115.4635569   7.5810450  36.9495659 114.6963506  21.3281767
  36.3194319 115.3779787  21.5617163  36.8431746 114.5846588  20.3834905
  32.2440631 114.3635302  12.2547691  31.4539685 114.6192831  11.7787801
  32.7351878 115.1783640  12.3599731  46.2604441 121.7040542  15.0052972
  47.0821884 121.3020729  14.7235653  46.2566843 121.6008776  15.9569087
  34.1955376 114.7279882   9.2131167  33.3986540 114.8398576   9.7314663
  33.9680969 115.0666534   8.3472058  40.0261044 121.2524585  17.1613682
  40.0905476 121.7144992  17.9971854  39.3171968 120.6221950  17.2895992
  30.5278334 114.6165793  14.6862682  30.7786372 115.5012803  14.9520257
  31.0637882 114.4370394  13.9137773  54.3510434 118.0479290  11.3537943
  53.5974142 117.4786688  11.1981947  54.4857975 118.0141955  12.3008578
  36.2276401 108.9984272  23.6907018  35.8343347 108.4450471  24.3654662
  37.0442542 109.3094851  24.0813535  39.1444362 110.4142151  21.2827274
  39.8854076 111.0149304  21.2031737  39.3762285 109.6719789  20.7245317
  34.2885700 115.5998519  19.5605504  34.1739215 114.6983776  19.8612603
  33.4330218 115.8462215  19.2090320  41.3677538 123.5416259  21.1593004
  40.9241392 122.7552637  20.8413909  42.0294752 123.7295409  20.4936895
  36.1264659 125.0712060  15.6853683  36.6772084 124.9429124  14.9130677
  35.2876135 125.3706950  15.3348576  43.4658776 123.8219059  19.1874406
  43.4477251 124.6427940  18.6954675  44.3878696 123.6973134  19.4124547
  39.9231830 121.3363188  20.0297914  40.4560167 120.5751476  19.7997222
  39.3945911 121.0436840  20.7722069  43.0901525 106.4423254  15.5591556
  42.7465795 107.3324896  15.4830666  43.4580488 106.2524912  14.6961141
  43.0551808 116.4331865   4.0663991  42.5398431 117.2036470   4.3052378
  42.7829116 115.7597002   4.6897052  40.6398919 111.2781566   9.1249229
  39.7840515 110.8888417   8.9454868  41.0525871 111.3573527   8.2649015
  42.1698066 108.8127909  13.5240789  41.6662861 108.7758045  12.7108594
  42.4628672 109.7220652  13.5837446  38.4140951 108.8966639  12.5306971
  39.2793948 108.7009448  12.1712860  38.4818460 108.6676991  13.4576328
  48.0286082 119.1864220   6.0017164  47.2515525 118.8475380   5.5572327
  48.7077563 119.1916843   5.3272129  42.8438111 114.3058957   5.8923772
  42.5388247 114.6205107   6.7433915  43.7968553 114.3840377   5.9351105
  41.2884543 120.4649181   7.5416726  40.7605904 119.7301940   7.2289964
  40.7872046 121.2423857   7.2956694  46.2677389 118.6598201  12.6583772
  45.6101063 119.3497463  12.7463901  47.0717788 119.0494633  13.0017759
  36.0203271 111.1268847   9.9023338  36.5947022 110.9044029   9.1696531
  36.6074253 111.1957542  10.6551939  45.0782848 117.0142574  10.7087714
  45.5914729 117.6472566  11.2109424  45.7284072 116.4143769  10.3431074
  38.3225938 108.0010096   8.6298407  37.6690351 107.6859113   8.0055022
  38.2806412 107.3785836   9.3558230  41.5563679 114.4892030  12.9546055
  40.6386240 114.7106977  12.7967743  41.9723822 114.5638340  12.0957762
  42.3398726 115.8883445   8.0848735  43.0870545 116.4004842   7.7755857
  42.6090316 115.5667498   8.9453129  45.8444644 121.9948575   8.8366857
  45.3906971 121.1539485   8.8932047  45.2138611 122.6309974   9.1741637
  44.7877564 112.9240561  10.0667524  44.0500320 112.4117948  10.3977767
  45.0404337 112.4840943   9.2550801  44.2877583 123.8325072   9.7716675
  44.5800558 124.3930129   9.0529041  44.7976204 124.1253633  10.5269834
  44.8889191 105.7016813  10.6609294  45.1948068 104.8414177  10.3735209
  45.6141796 106.2934434  10.4608287  39.1610271 115.9970607  11.1685485
  39.2158880 115.0444443  11.0927961  38.3501473 116.1530046  11.6526783
  37.1002631 114.6147666   8.9275863  36.2870496 114.9141837   9.3341056
  37.5961625 114.2203355   9.6450346  39.2511208 124.6105423  10.8610128
  39.2087387 124.8366270   9.9318660  40.1673907 124.3768798  11.0095929
  42.6976842 115.0789491  17.7590757  43.0526230 115.3060964  18.6185223
  43.3448973 115.4107868  17.1368013  48.4274579 118.2007927   8.4640086
  48.2892478 118.3909523   7.5361276  48.0710798 118.9627309   8.9208138
  36.5916705 112.1866022  14.5437098  37.2316085 112.0454781  13.8460062
  35.7594236 111.9000535  14.1675700  48.4543959 120.2684454  13.4751358
  48.8880465 120.1759743  14.3234412  49.1675539 120.2441954  12.8371374
  37.3677009 121.4868452  10.6572091  38.1617608 120.9918772  10.4554666
  36.6568702 120.9586315  10.2939796  42.1871854 123.8686548  15.0084459
  42.2408876 124.4377484  15.7762174  41.3186635 124.0388433  14.6438496
  33.5945322 112.1566347   9.3210085  33.8552139 113.0711680   9.2119246
  34.4162494 111.6890789   9.4706698  35.0670247 113.5704104  16.4908910
  35.7393300 113.3621466  15.8421559  34.2400034 113.3726190  16.0514142
  49.3159508 120.3108154  16.0084243  49.5095398 121.2153965  16.2543518
  49.2160126 119.8515573  16.8422828  40.9695819 110.1966045  18.5074571
  40.3223734 110.8955995  18.4139047  41.7396834 110.6302189  18.8750819
  44.3774617 120.4614897  21.5825124  44.2260123 120.2325449  20.6655208
  44.3679296 121.4185498  21.5956469  41.1459953 118.0346810  16.5671390
  42.0752013 118.1857969  16.3940358  40.7250983 118.1230831  15.7120037
  39.9448285 122.0597474  14.3369928  39.8059371 121.6916259  15.2095866
  39.1562881 122.5745114  14.1653886  41.4953500 121.4379077  11.7258766
  41.1603333 121.3979847  12.6216416  40.9957446 120.7723793  11.2529176
  35.4697744 116.8446707  17.2511347  35.3317542 116.1126946  17.8522886
  36.3802668 116.7555607  16.9695535  38.0980045 116.5566666  16.7395027
  38.8079663 115.9159858  16.6981645  38.0549353 116.8079561  17.6621207
  46.0866824 123.4934020  19.6601606  46.0279370 122.8093240  18.9932189
  46.4886342 124.2353010  19.2082232  36.8108979 113.5431884  18.5590666
  36.2746336 113.0922623  19.2112262  36.2225687 113.6777793  17.8161130
  46.0884231 121.4573604  17.8915585  45.2011010 121.1199525  18.0141984
  46.6582782 120.7256635  18.1284351  32.5448100 112.6787892  15.6443661
  32.4606289 112.0713561  14.9094070  31.7230807 113.1696910  15.6453157
  39.6185384 126.1175056  14.8576829  39.5455556 126.9230027  15.3696133
  39.1762777 126.3167022  14.0324850  42.7171814 111.1641455  11.0113856
  43.2140514 110.4111418  10.6914926  41.9458796 111.2005772  10.4457065
  50.5701571 116.8681821  12.6532147  50.5591448 117.7506536  12.2826080
  49.7018951 116.5153372  12.4586684  42.0784068 126.0161890  17.0134987
  42.7912040 126.6509355  16.9410889  41.5874096 126.1125756  16.1974989
  43.8001595 119.9213143   8.5852279  42.8657873 120.0414605   8.4156983
  43.9778263 119.0185609   8.3212289  39.3006783 113.3058838  10.7385540
  38.9304570 112.7529879  11.4266446  39.7965875 112.7016972  10.1860540
  47.1874146 115.7630462   9.1202313  47.6534598 116.5958453   9.0462616
  47.6381647 115.2975443   9.8247572  37.1295981 123.7656333  17.8340558
  37.8305441 124.3992816  17.9869952  36.6591096 124.1071065  17.0736197
  45.2550377 122.1074283   6.1188465  45.5310221 121.9930878   7.0282339
  44.3854876 121.7091768   6.0800638  45.1590809 108.1311049  13.1593214
  44.2453889 108.3615276  13.3275421  45.5883910 108.2149493  14.0107247
  44.9297267 116.3200941  15.6593108  44.2768718 116.5676848  15.0045561
  45.3077647 115.5065079  15.3255586  41.8904441 126.3560634   9.7621279
  42.0726836 125.5382290  10.2249031  42.7137427 126.5728326   9.3246169
  40.9784840 117.0620752  22.1459146  40.3025477 116.9614881  22.8161521
  41.8012474 116.9059966  22.6095143  32.7263699 123.2992688  14.7671661
  33.3117136 122.5536376  14.8999565  32.5288538 123.6096645  15.6508325
  39.7207623 128.3687679  16.3816762  40.2725931 128.5319301  17.1465847
  40.0613817 128.9592117  15.7096786  34.6972116 110.7162829  16.9838646
  34.7613443 111.5777660  16.5716044  34.6339237 110.1036831  16.2511005
  34.1724389 112.7885962  20.6311681  34.7996428 112.4063039  21.2449205
  33.3152308 112.5700164  20.9967373  44.5718498 123.1948937  22.2365416
  45.1158402 123.8078895  21.7420371  43.9905342 123.7528515  22.7532429
  42.8576010 126.3169655  13.3680444  42.7327150 125.5159395  12.8591389
  43.5155102 126.8115848  12.8794414  34.4784179 112.6718387  12.5457584
  33.7570764 113.2854355  12.4065057  35.2677434 113.2076152  12.4674230
  44.9210919 124.1178675  14.9959994  43.9741254 123.9984026  14.9238321
  45.2693692 123.2301173  15.0786255  37.2810492 110.0072814  18.8198236
  37.8044894 110.2535110  19.5824545  37.0622826 110.8392849  18.4001373
  41.9257352 123.9131391  11.1964346  41.7782315 122.9848099  11.3771916
  42.7510846 123.9351482  10.7121421  35.7919596 112.5649458   7.0544838
  36.1315669 113.0935379   6.3323447  36.2391717 112.9029864   7.8303405
  45.5291474 124.7359950  12.2829219  46.4538021 124.5302811  12.1453670
  45.3606777 124.4876351  13.1918560  38.4863037 110.9486509  16.5047906
  38.1459858 110.1494322  16.9068586  37.7802044 111.2488220  15.9324739
  39.1379509 108.0335821  14.9575229  39.9605578 107.5596300  14.8354120
  39.3817573 108.8126305  15.4573916  37.7787744 111.0624080   5.2538131
  38.4996106 111.4405333   4.7501848  37.1553048 111.7812957   5.3573109
  41.9218866 111.7669229   6.1896463  42.1382481 112.6493867   5.8885291
  41.4412934 111.3755442   5.4602105  36.6618088 114.7254942  12.7667208
  36.5162669 115.0395245  13.6591489  36.1843291 115.3439842  12.2138107
  38.5214471 111.7157490  12.8148097  38.5076040 110.8198583  12.4780395
  39.2386899 111.7228154  13.4486383  40.3740601 112.1494830  14.8601225
  40.1158379 113.0711901  14.8585555  39.8425642 111.7525265  15.5501689
  45.3186790 125.2545617   7.6391310  45.4923668 124.6892040   6.8865163
  45.8115681 126.0546512   7.4570800  31.1363750 117.2660286  15.7054869
  30.5917218 118.0420094  15.8375143  32.0143100 117.6131091  15.5473990
  37.9251367 110.5971870   8.0835668  38.0467278 109.6688516   8.2826555
  37.6353409 110.6110556   7.1713983  40.7942557 108.2826781  11.2202387
  40.8164254 108.3466114  10.2654367  41.2110616 107.4431289  11.4142894
  51.1726181 118.0182040   9.2581610  51.6157327 117.2689365   8.8600733
  50.2952692 118.0092177   8.8755342  46.3061963 124.5712382   4.7388209
  47.0012867 125.1919074   4.9575523  46.6485113 123.7207733   5.0140586
  31.9229772 116.3930183  18.5985026  31.1811508 116.5412818  19.1849656
  31.6022516 116.6538448  17.7351775  48.2053386 122.0212087   6.2675539
  48.7304710 122.3599360   5.5424859  48.1175738 121.0859103   6.0838674
  39.8673435 125.9346161  18.3965416  40.1760561 125.6895308  19.2688116
  40.6648917 126.1392799  17.9084286  37.3367919 123.6322080  12.6993094
  36.7147928 122.9692785  12.3995322  38.0072786 123.6583212  12.0166742
  37.4092446 112.1103868  22.2925600  37.4580602 112.9865990  21.9103370
  37.9514960 111.5681261  21.7197243  47.8947292 122.6544991  21.5726737
  47.1042836 122.6369130  21.0331237  47.6580646 123.1933285  22.3275774
  48.0145167 119.5037457  18.8859466  48.0643172 119.3387465  19.8274989
  47.9059090 118.6364716  18.4957347  45.3048929 115.4868385  20.2018773
  46.2058792 115.3474850  19.9102770  45.3796904 115.6522840  21.1416950
  39.6391735 112.8635240  19.0471959  38.7695044 113.1568806  18.7754547
  39.8751215 113.4475685  19.7679222  49.5163364 121.9234399  19.1301487
  49.2248172 122.2864379  19.9664948  48.9035495 121.2101407  18.9514819
  50.7159046 119.4887279  11.6504058  51.5505937 119.9277083  11.8141618
  50.8518175 119.0125932  10.8312303  47.7650552 117.0467013  17.5981545
  48.2404674 117.2394660  16.7900397  46.8416117 117.1026199  17.3524929
  42.3430768 109.0814857  16.5637379  42.8612712 109.8175884  16.2383868
  41.9885901 109.3878850  17.3984138  42.5943363 105.5015140  12.0838276
  42.8745116 104.8338329  12.7098702  43.3793970 105.6944235  11.5712940
  46.4652221 113.9232774  15.8309851  47.4169644 114.0230871  15.8522075
  46.2955671 113.1311042  16.3407935  44.4866600 111.0088357  16.0169252
  43.8916533 111.2893369  15.3215740  44.2016297 111.4982258  16.7885993
  48.9440299 117.1438893  14.9452151  48.9116619 116.2054894  15.1311834
  49.5540922 117.2222930  14.2117975  49.0934787 113.9349937  14.9910434
  48.5773836 113.1508393  14.8040363  49.9774736 113.6068653  15.1556953
  46.7545514 107.6790952  10.9506246  46.5570335 107.3706040  11.8349578
  47.3645220 108.4052591  11.0804176  54.7616849 118.2054900  14.0858187
  55.4920237 117.9440188  14.6465891  54.1523794 117.4683622  14.1260255
  52.8432146 116.3462763  14.6832639  52.1165309 116.2118728  14.0749130
  52.4279433 116.6539591  15.4889357  40.6662322 120.0652692  22.4480012
  41.5865332 120.2431291  22.6420058  40.6311905 119.1208738  22.2959711
  33.6624395 117.9753727  15.0902793  33.8810405 118.9070835  15.1090827
  34.0750169 117.6161701  15.8757597  40.5828613 108.4821812   7.0778481
  39.7729341 108.1368897   7.4533727  41.2713029 108.1729356   7.6666093
  42.5119161 107.5599859   8.7002778  43.0650199 107.9795313   9.3592801
  42.7489247 106.6335607   8.7425734  38.5352260 113.5486933  24.4805542
  38.4348987 114.4981290  24.4117633  38.3173802 113.2205172  23.6081612
  45.8897968 109.6700384   8.2081442  45.3096637 110.3285188   7.8259494
  45.6233901 108.8477729   7.7968860  44.3401534 109.0705442  10.4102762
  44.8401313 109.1821976   9.6017081  44.9837142 108.7666495  11.0503571
  38.3983530 116.9784072  23.2970603  37.9150612 117.7784432  23.5034492
  38.4844469 116.9892016  22.3438047  34.3256868 120.8688606  15.3339037
  35.2800121 120.8372549  15.2668969  34.1269391 120.4079230  16.1489263
  34.9156250 119.4389722  17.9009835  35.7349139 119.9333801  17.9244672
  35.1893057 118.5221690  17.8727402  44.6722846 111.8300475   7.2637790
  43.7848701 112.1150125   7.0457985  45.0876835 111.6694238   6.4165067
  48.0237382 111.8546996  10.9792130  48.7997772 112.3443448  11.2516746
  47.2985516 112.2805050  11.4363999  50.4609941 112.5674615  12.0366070
  51.0554431 112.3270351  11.3259378  50.5336524 111.8481745  12.6639606
  44.6463870 117.3455011   7.4788080  44.5899071 117.8023562   6.6395713
  45.1992212 116.5845695   7.3010923  48.4568676 113.1344742   8.3038200
  48.2005610 112.7341378   9.1346408  47.8321544 113.8488536   8.1788339
  52.7681013 115.8740816  10.8109491  52.2080571 115.9434005  11.5841053
  52.1624517 115.6981800  10.0908988  45.7252757 122.0327678   3.4084270
  46.5598361 121.6008877   3.2261745  45.5637100 121.8609692   4.3361165
  45.3798649 118.5359792   4.7740610  45.3247453 118.3704063   3.8329054
  44.7544704 119.2435825   4.9302799  30.1691164 113.7727856  18.6002032
  30.8150028 113.2626810  19.0889257  29.9608315 114.5096538  19.1745457
  42.6944556 120.8408704  24.0994172  43.5635716 121.0149356  23.7380807
  42.2151308 121.6603120  23.9769902  38.6894774 108.0367901   4.3525928
  38.6773444 108.9809741   4.5094199  39.5818196 107.8538046   4.0585389
  36.8630736 127.9605805  15.7783606  37.7657983 127.9929415  16.0950101
  36.6368106 127.0306256  15.7929942  38.6184338 126.7136791  12.4393685
  37.6679969 126.7138653  12.3258057  38.9216825 125.9669526  11.9229719
  42.5046894 104.6310677   8.6071865  41.7379290 104.0769164   8.7528547
  42.9157599 104.7032546   9.4686016  34.5088655 110.9195473  22.6977046
  35.3720117 110.5632278  22.9080371  33.9354066 110.5809368  23.3852450
  54.3537032 132.5497330  13.5039447  54.9915442 132.4304077  12.8002787
  54.2357875 133.4978174  13.5627399  51.1626738 132.5024758  13.4400972
  50.8245250 132.3865822  12.5521507  52.0316506 132.1015923  13.4201978
  51.6446521 133.6559609  19.3987177  51.6335162 133.2612408  18.5267681
  51.8067161 132.9225682  19.9920949  44.5677986 135.8511426  12.2682083
  45.3599278 135.5102250  11.8528382  44.8074636 135.9606401  13.1884237
  48.3653782 136.4396721  18.3466361  48.0743648 137.3442352  18.2313028
  49.0010767 136.4813249  19.0610431  49.2909989 133.8173570  14.9367721
  49.8873561 133.5929592  14.2224684  49.3484961 133.0758315  15.5393169
  53.9078300 130.2748783  10.5792655  54.6941390 129.8568207  10.2283072
  54.1717005 131.1794876  10.7474304  59.3086728 130.2124017  11.4825634
  60.0411899 129.6423233  11.7163463  58.5526083 129.8245617  11.9232139
  50.9262847 132.6351258   8.6788976  50.5621054 132.1081879   9.3901898
  51.7829963 132.2449727   8.5055462  56.8312148 123.9245591  15.9420242
  56.4995473 124.7941002  15.7181457  56.2357761 123.6081875  16.6214273
  50.5668334 127.6641158   3.6750325  50.7342737 128.5321394   4.0420796
  50.3765503 127.8268440   2.7511614  53.3243667 136.1258137  15.3416155
  53.0244390 137.0283176  15.2331962  52.9794727 135.8590320  16.1937308
  46.7756149 132.5771934  11.3752859  45.8506645 132.4448148  11.5830551
  47.0240562 133.3566153  11.8722802  56.7240811 128.6440677  13.0213592
  55.8157689 128.5756085  12.7272353  56.6728407 129.1212622  13.8495418
  50.5457555 130.1198815   4.6596991  50.4257180 130.5655866   5.4982472
  49.8510143 130.4684133   4.1010530  44.1364960 132.2205207  12.2096648
  44.2657341 132.4739686  13.1236060  43.4562411 132.8132915  11.8901304
  50.7981677 130.0630323  20.9648490  50.0215011 130.6224243  20.9551354
  51.4372240 130.5487106  21.4863360  58.5902458 126.8457115  14.7991466
  57.9476838 127.1389648  14.1531261  58.0857386 126.7310036  15.6044663
  56.2442621 130.5920289   5.4877325  57.1560477 130.8247675   5.3125023
  55.7352268 131.1757333   4.9252404  49.0528049 132.8715776  20.5266457
  49.7942734 133.4100820  20.2501280  48.3465035 133.4982065  20.6838008
  54.5283389 135.0144916  19.1238618  54.9366745 134.5727327  18.3793250
  53.8060650 134.4397544  19.3772811  50.8814459 129.9517523  16.4972175
  51.7275654 130.3756937  16.6406824  50.8213097 129.2951147  17.1910738
  54.8512204 135.5746107  12.8790907  54.2221066 135.7391821  12.1766975
  54.4637866 135.9887717  13.6501871  58.7301435 136.5100545  10.2335271
  58.0452474 136.8899446   9.6832304  58.8145285 137.1195871  10.9667218
  54.0313904 127.6121891  18.1553349  53.7874836 128.3663952  17.6187624
  54.3073835 127.9907239  18.9900596  55.9852367 134.1560504  16.8330614
  56.1969262 134.7992264  16.1564995  55.9382115 133.3222820  16.3652544
  53.5878596 126.7678324  13.7367186  52.7263075 127.0659578  14.0283924
  53.6141031 126.9848723  12.8048219  50.4040165 135.3120515  10.1440992
  50.8678511 135.5908218   9.3545615  50.1396964 134.4103960   9.9614083
  47.2964246 134.8591997  13.0820755  47.8665604 135.2879265  12.4438240
  47.8872358 134.5774581  13.7804941  49.3409051 131.4343667   6.9530557
  50.0433095 131.8864711   7.4204484  49.0089680 130.7927486   7.5810450
  47.7889413 130.0255424  21.3281767  47.1588074 130.7071705  21.5617163
  47.6825501 129.9138506  20.3834905  43.0834385 129.6927220  12.2547691
  42.2933439 129.9484749  11.7787801  43.5745633 130.5075558  12.3599731
  57.0998195 137.0332459  15.0052972  57.9215639 136.6312647  14.7235653
  57.0960598 136.9300693  15.9569087  45.0349131 130.0571799   9.2131167
  44.2380294 130.1690494   9.7314663  44.8074723 130.3958452   8.3472058
  50.8654798 136.5816503  17.1613682  50.9299231 137.0436910  17.9971854
  50.1565722 135.9513867  17.2895992  41.3672088 129.9457711  14.6862682
  41.6180127 130.8304720  14.9520257  41.9031637 129.7662312  13.9137773
  65.1904188 133.3771208  11.3537943  64.4367896 132.8078606  11.1981947
  65.3251729 133.3433872  12.3008578  47.0670156 124.3276190  23.6907018
  46.6737101 123.7742388  24.3654662  47.8836296 124.6386768  24.0813535
  49.9838117 125.7434069  21.2827274  50.7247830 126.3441222  21.2031737
  50.2156040 125.0011707  20.7245317  45.1279455 130.9290436  19.5605504
  45.0132970 130.0275693  19.8612603  44.2723972 131.1754133  19.2090320
  52.2071292 138.8708177  21.1593004  51.7635147 138.0844555  20.8413909
  52.8688506 139.0587327  20.4936895  46.9658414 140.4003978  15.6853683
  47.5165839 140.2721042  14.9130677  46.1269890 140.6998867  15.3348576
  54.3052531 139.1510976  19.1874406  54.2871006 139.9719858  18.6954675
  55.2272451 139.0265052  19.4124547  50.7625585 136.6655106  20.0297914
  51.2953922 135.9043394  19.7997222  50.2339666 136.3728758  20.7722069
  53.9295280 121.7715172  15.5591556  53.5859549 122.6616814  15.4830666
  54.2974242 121.5816830  14.6961141  53.8945562 131.7623783   4.0663991
  53.3792186 132.5328388   4.3052378  53.6222871 131.0888919   4.6897052
  51.4792673 126.6073484   9.1249229  50.6234270 126.2180334   8.9454868
  51.8919625 126.6865445   8.2649015  53.0091820 124.1419827  13.5240789
  52.5056616 124.1049962  12.7108594  53.3022427 125.0512570  13.5837446
  49.2534706 124.2258557  12.5306971  50.1187703 124.0301366  12.1712860
  49.3212215 123.9968909  13.4576328  53.6831866 129.6350875   5.8923772
  53.3782001 129.9497024   6.7433915  54.6362308 129.7132295   5.9351105
  52.1278297 135.7941098   7.5416726  51.5999659 135.0593858   7.2289964
  51.6265800 136.5715775   7.2956694  57.1071143 133.9890119  12.6583772
  56.4494818 134.6789380  12.7463901  57.9111543 134.3786551  13.0017759
  46.8597025 126.4560765   9.9023338  47.4340777 126.2335946   9.1696531
  47.4468007 126.5249459  10.6551939  55.9176602 132.3434492  10.7087714
  56.4308484 132.9764483  11.2109424  56.5677826 131.7435687  10.3431074
  49.1619693 123.3302014   8.6298407  48.5084105 123.0151031   8.0055022
  49.1200167 122.7077754   9.3558230  52.3957433 129.8183947  12.9546055
  51.4779994 130.0398894  12.7967743  52.8117577 129.8930258  12.0957762
  53.1792481 131.2175363   8.0848735  53.9264300 131.7296760   7.7755857
  53.4484070 130.8959416   8.9453129  56.6838398 137.3240493   8.8366857
  56.2300726 136.4831403   8.8932047  56.0532365 137.9601891   9.1741637
  55.6271318 128.2532479  10.0667524  54.8894075 127.7409865  10.3977767
  55.8798092 127.8132861   9.2550801  55.1271338 139.1616990   9.7716675
  55.4194312 139.7222047   9.0529041  55.6369958 139.4545551  10.5269834
  55.7282945 121.0308731  10.6609294  56.0341822 120.1706095  10.3735209
  56.4535550 121.6226351  10.4608287  50.0004025 131.3262524  11.1685485
  50.0552635 130.3736361  11.0927961  49.1895227 131.4821963  11.6526783
  47.9396385 129.9439584   8.9275863  47.1264251 130.2433754   9.3341056
  48.4355379 129.5495273   9.6450346  50.0904963 139.9397341  10.8610128
  50.0481142 140.1658187   9.9318660  51.0067662 139.7060715  11.0095929
  53.5370597 130.4081408  17.7590757  53.8919984 130.6352882  18.6185223
  54.1842728 130.7399785  17.1368013  59.2668334 133.5299844   8.4640086
  59.1286232 133.7201440   7.5361276  58.9104552 134.2919227   8.9208138
  47.4310460 127.5157939  14.5437098  48.0709839 127.3746699  13.8460062
  46.5987990 127.2292453  14.1675700  59.2937713 135.5976371  13.4751358
  59.7274220 135.5051660  14.3234412  60.0069294 135.5733872  12.8371374
  48.2070764 136.8160370  10.6572091  49.0011362 136.3210690  10.4554666
  47.4962456 136.2878233  10.2939796  53.0265608 139.1978465  15.0084459
  53.0802630 139.7669402  15.7762174  52.1580389 139.3680350  14.6438496
  44.4339076 127.4858264   9.3210085  44.6945893 128.4003598   9.2119246
  45.2556249 127.0182707   9.4706698  45.9064002 128.8996022  16.4908910
  46.5787055 128.6913384  15.8421559  45.0793788 128.7018108  16.0514142
  60.1553263 135.6400072  16.0084243  60.3489153 136.5445882  16.2543518
  60.0553881 135.1807491  16.8422828  51.8089574 125.5257963  18.5074571
  51.1617489 126.2247912  18.4139047  52.5790589 125.9594106  18.8750819
  55.2168371 135.7906815  21.5825124  55.0653878 135.5617366  20.6655208
  55.2073051 136.7477416  21.5956469  51.9853708 133.3638727  16.5671390
  52.9145768 133.5149887  16.3940358  51.5644738 133.4522748  15.7120037
  50.7842040 137.3889392  14.3369928  50.6453125 137.0208176  15.2095866
  49.9956636 137.9037031  14.1653886  52.3347255 136.7670995  11.7258766
  51.9997087 136.7271765  12.6216416  51.8351200 136.1015710  11.2529176
  46.3091499 132.1738625  17.2511347  46.1711297 131.4418863  17.8522886
  47.2196422 132.0847525  16.9695535  48.9373799 131.8858584  16.7395027
  49.6473418 131.2451776  16.6981645  48.8943108 132.1371479  17.6621207
  56.9260578 138.8225937  19.6601606  56.8673124 138.1385157  18.9932189
  57.3280096 139.5644927  19.2082232  47.6502733 128.8723802  18.5590666
  47.1140090 128.4214540  19.2112262  47.0619442 129.0069711  17.8161130
  56.9277985 136.7865521  17.8915585  56.0404764 136.4491443  18.0141984
  57.4976536 136.0548552  18.1284351  43.3841855 128.0079810  15.6443661
  43.3000043 127.4005479  14.9094070  42.5624561 128.4988828  15.6453157
  50.4579139 141.4466974  14.8576829  50.3849310 142.2521945  15.3696133
  50.0156532 141.6458939  14.0324850  53.5565569 126.4933373  11.0113856
  54.0534268 125.7403335  10.6914926  52.7852550 126.5297690  10.4457065
  61.4095326 132.1973739  12.6532147  61.3985202 133.0798454  12.2826080
  60.5412705 131.8445289  12.4586684  52.9177822 141.3453808  17.0134987
  53.6305794 141.9801272  16.9410889  52.4267851 141.4417674  16.1974989
  54.6395349 135.2505060   8.5852279  53.7051628 135.3706523   8.4156983
  54.8172018 134.3477527   8.3212289  50.1400537 128.6350756  10.7385540
  49.7698325 128.0821796  11.4266446  50.6359630 128.0308890  10.1860540
  58.0267901 131.0922380   9.1202313  58.4928353 131.9250371   9.0462616
  58.4775401 130.6267361   9.8247572  47.9689736 139.0948251  17.8340558
  48.6699195 139.7284734  17.9869952  47.4984851 139.4362983  17.0736197
  55.9984563 123.4602967  13.1593214  55.0847643 123.6907193  13.3275421
  56.4277665 123.5441411  14.0107247  55.7691022 131.6492858  15.6593108
  55.1162472 131.8968766  15.0045561  56.1471402 130.8356997  15.3255586
  52.7298196 141.6852552   9.7621279  52.9120590 140.8674208  10.2249031
  53.5531182 141.9020244   9.3246169  51.8178595 132.3912670  22.1459146
  51.1419232 132.2906799  22.8161521  52.6406229 132.2351883  22.6095143
  43.5657454 138.6284606  14.7671661  44.1510891 137.8828294  14.8999565
  43.3682292 138.9388563  15.6508325  50.5601378 143.6979597  16.3816762
  51.1119686 143.8611219  17.1465847  50.9007571 144.2884035  15.7096786
  45.5365871 126.0454747  16.9838646  45.6007197 126.9069578  16.5716044
  45.4732991 125.4328748  16.2511005  45.0118143 128.1177879  20.6311681
  45.6390182 127.7354957  21.2449205  44.1546062 127.8992081  20.9967373
  55.4112252 138.5240855  22.2365416  55.9552156 139.1370813  21.7420371
  54.8299097 139.0820433  22.7532429  53.6969765 141.6461573  13.3680444
  53.5720904 140.8451312  12.8591389  54.3548856 142.1407766  12.8794414
  45.3177933 128.0010305  12.5457584  44.5964519 128.6146273  12.4065057
  46.1071189 128.5368070  12.4674230  55.7604673 139.4470593  14.9959994
  54.8135009 139.3275944  14.9238321  56.1087446 138.5593091  15.0786255
  48.1204247 125.3364732  18.8198236  48.6438649 125.5827028  19.5824545
  47.9016580 126.1684766  18.4001373  52.7651107 139.2423309  11.1964346
  52.6176069 138.3140016  11.3771916  53.5904600 139.2643400  10.7121421
  46.6313351 127.8941376   7.0544838  46.9709423 128.4227297   6.3323447
  47.0785471 128.2321782   7.8303405  56.3685228 140.0651868  12.2829219
  57.2931776 139.8594729  12.1453670  56.2000532 139.8168269  13.1918560
  49.3256792 126.2778427  16.5047906  48.9853612 125.4786240  16.9068586
  48.6195798 126.5780137  15.9324739  49.9773264 123.3627739  14.9575229
  50.7999333 122.8888217  14.8354120  50.2211327 124.1418223  15.4573916
  48.6181498 126.3915998   5.2538131  49.3389861 126.7697250   4.7501848
  47.9946802 127.1104874   5.3573109  52.7612621 127.0961146   6.1896463
  52.9776235 127.9785784   5.8885291  52.2806688 126.7047360   5.4602105
  47.5011842 130.0546860  12.7667208  47.3556423 130.3687163  13.6591489
  47.0237046 130.6731760  12.2138107  49.3608225 127.0449408  12.8148097
  49.3469794 126.1490501  12.4780395  50.0780653 127.0520071  13.4486383
  51.2134356 127.4786748  14.8601225  50.9552134 128.4003819  14.8585555
  50.6819396 127.0817182  15.5501689  41.9757505 132.5952204  15.7054869
  41.4310973 133.3712012  15.8375143  42.8536854 132.9423009  15.5473990
  48.7645121 125.9263788   8.0835668  48.8861032 124.9980434   8.2826555
  48.4747164 125.9402474   7.1713983  51.6336312 123.6118698  11.2202387
  51.6558008 123.6758031  10.2654367  52.0504371 122.7723207  11.4142894
  62.0119936 133.3473958   9.2581610  62.4551082 132.5981283   8.8600733
  61.1346446 133.3384094   8.8755342  42.7623526 131.7222100  18.5985026
  42.0205262 131.8704736  19.1849656  42.4416271 131.9830366  17.7351775
  50.7067189 141.2638079  18.3965416  51.0154315 141.0187225  19.2688116
  51.5042671 141.4684717  17.9084286  48.1761673 138.9613997  12.6993094
  47.5541682 138.2984702  12.3995322  48.8466540 138.9875129  12.0166742
  48.2486201 127.4395785  22.2925600  48.2974356 128.3157908  21.9103370
  48.7908715 126.8973178  21.7197243  58.7341046 137.9836909  21.5726737
  57.9436590 137.9661047  21.0331237  58.4974401 138.5225202  22.3275774
  58.8538921 134.8329375  18.8859466  58.9036926 134.6679382  19.8274989
  58.7452845 133.9656634  18.4957347  56.1442684 130.8160303  20.2018773
  57.0452547 130.6766768  19.9102770  56.2190658 130.9814758  21.1416950
  50.4785489 128.1927158  19.0471959  49.6088799 128.4860724  18.7754547
  50.7144970 128.7767603  19.7679222  60.3557118 137.2526316  19.1301487
  60.0641927 137.6156297  19.9664948  59.7429250 136.5393325  18.9514819
  61.5552801 134.8179196  11.6504058  62.3899692 135.2569000  11.8141618
  61.6911929 134.3417849  10.8312303  58.6044307 132.3758931  17.5981545
  59.0798428 132.5686577  16.7900397  57.6809872 132.4318117  17.3524929
  53.1824523 124.4106775  16.5637379  53.7006467 125.1467802  16.2383868
  52.8279656 124.7170768  17.3984138  53.4337117 120.8307057  12.0838276
  53.7138871 120.1630246  12.7098702  54.2187724 121.0236153  11.5712940
  57.3045976 129.2524691  15.8309851  58.2563398 129.3522789  15.8522075
  57.1349426 128.4602960  16.3407935  55.3260355 126.3380274  16.0169252
  54.7310287 126.6185287  15.3215740  55.0410052 126.8274175  16.7885993
  59.7834053 132.4730811  14.9452151  59.7510373 131.5346812  15.1311834
  60.3934677 132.5514848  14.2117975  59.9328542 129.2641854  14.9910434
  59.4167590 128.4800311  14.8040363  60.8168490 128.9360571  15.1556953
  57.5939269 123.0082870  10.9506246  57.3964090 122.6997958  11.8349578
  58.2038974 123.7344509  11.0804176  65.6010603 133.5346818  14.0858187
  66.3313992 133.2732106  14.6465891  64.9917549 132.7975540  14.1260255
  63.6825900 131.6754680  14.6832639  62.9559064 131.5410645  14.0749130
  63.2673187 131.9831509  15.4889357  51.5056077 135.3944610  22.4480012
  52.4259086 135.5723209  22.6420058  51.4705660 134.4500655  22.2959711
  44.5018149 133.3045645  15.0902793  44.7204159 134.2362752  15.1090827
  44.9143923 132.9453619  15.8757597  51.4222367 123.8113730   7.0778481
  50.6123095 123.4660815   7.4533727  52.1106784 123.5021274   7.6666093
  53.3512915 122.8891777   8.7002778  53.9043954 123.3087230   9.3592801
  53.5883002 121.9627525   8.7425734  49.3746015 128.8778850  24.4805542
  49.2742741 129.8273207  24.4117633  49.1567557 128.5497089  23.6081612
  56.7291722 124.9992302   8.2081442  56.1490391 125.6577106   7.8259494
  56.4627655 124.1769647   7.7968860  55.1795289 124.3997360  10.4102762
  55.6795067 124.5113894   9.6017081  55.8230897 124.0958412  11.0503571
  49.2377285 132.3075989  23.2970603  48.7544366 133.1076349  23.5034492
  49.3238224 132.3183934  22.3438047  45.1650622 136.1980524  15.3339037
  46.1193876 136.1664466  15.2668969  44.9663146 135.7371148  16.1489263
  45.7550004 134.7681640  17.9009835  46.5742893 135.2625719  17.9244672
  46.0286812 133.8513608  17.8727402  55.5116600 127.1592392   7.2637790
  54.6242455 127.4442043   7.0457985  55.9270589 126.9986156   6.4165067
  58.8631137 127.1838913  10.9792130  59.6391527 127.6735366  11.2516746
  58.1379271 127.6096967  11.4363999  61.3003695 127.8966533  12.0366070
  61.8948186 127.6562268  11.3259378  61.3730279 127.1773663  12.6639606
  55.4857624 132.6746928   7.4788080  55.4292826 133.1315480   6.6395713
  56.0385967 131.9137613   7.3010923  59.2962430 128.4636660   8.3038200
  59.0399364 128.0633296   9.1346408  58.6715298 129.1780454   8.1788339
  63.6074768 131.2032733  10.8109491  63.0474326 131.2725923  11.5841053
  63.0018271 131.0273718  10.0908988  41.0084918 129.1019774  18.6002032
  41.6543782 128.5918728  19.0889257  40.8002070 129.8388456  19.1745457
  53.5338311 136.1700621  24.0994172  54.4029470 136.3441274  23.7380807
  53.0545062 136.9895038  23.9769902  49.5288529 123.3659818   4.3525928
  49.5167199 124.3101658   4.5094199  50.4211951 123.1829964   4.0585389
  47.7024491 143.2897722  15.7783606  48.6051738 143.3221333  16.0950101
  47.4761861 142.3598173  15.7929942  49.4578093 142.0428709  12.4393685
  48.5073724 142.0430571  12.3258057  49.7610579 141.2961443  11.9229719
  53.3440648 119.9602595   8.6071865  52.5773044 119.4061082   8.7528547
  53.7551353 120.0324464   9.4686016  45.3482409 126.2487391  22.6977046
  46.2113871 125.8924196  22.9080371  44.7747820 125.9101286  23.3852450
  62.4840276 148.9851527  19.3987177  62.4728916 148.5904325  18.5267681
  62.6460915 148.2517600  19.9920949  59.2047537 151.7688639  18.3466361
  58.9137403 152.6734270  18.2313028  59.8404521 151.8105167  19.0610431
  67.6705902 139.2537508  15.9420242  67.3389227 140.1232919  15.7181457
  67.0751516 138.9373792  16.6214273  61.6375431 145.3922240  20.9648490
  60.8608766 145.9516160  20.9551354  62.2765995 145.8779023  21.4863360
  59.8921804 148.2007694  20.5266457  60.6336488 148.7392738  20.2501280
  59.1858789 148.8273982  20.6838008  61.7208213 145.2809441  16.4972175
  62.5669409 145.7048854  16.6406824  61.6606851 144.6243065  17.1910738
  64.8707659 142.9413809  18.1553349  64.6268591 143.6955870  17.6187624
  65.1467589 143.3199157  18.9900596  58.6283168 145.3547342  21.3281767
  57.9981828 146.0363623  21.5617163  58.5219255 145.2430423  20.3834905
  53.9228140 145.0219138  12.2547691  53.1327194 145.2776666  11.7787801
  54.4139387 145.8367476  12.3599731  52.2065843 145.2749628  14.6862682
  52.4573881 146.1596638  14.9520257  52.7425391 145.0954230  13.9137773
  57.9063910 139.6568108  23.6907018  57.5130856 139.1034306  24.3654662
  58.7230051 139.9678686  24.0813535  60.8231871 141.0725987  21.2827274
  61.5641585 141.6733140  21.2031737  61.0549794 140.3303624  20.7245317
  55.9673209 146.2582354  19.5605504  55.8526724 145.3567611  19.8612603
  55.1117727 146.5046051  19.2090320  63.0465047 154.2000094  21.1593004
  62.6028901 153.4136473  20.8413909  63.7082261 154.3879245  20.4936895
  61.6019339 151.9947024  20.0297914  62.1347676 151.2335312  19.7997222
  61.0733420 151.7020675  20.7722069  64.7689034 137.1007090  15.5591556
  64.4253304 137.9908731  15.4830666  65.1367997 136.9108747  14.6961141
  63.8485575 139.4711745  13.5240789  63.3450370 139.4341880  12.7108594
  64.1416181 140.3804487  13.5837446  60.0928460 139.5550474  12.5306971
  60.9581457 139.3593283  12.1712860  60.1605969 139.3260826  13.4576328
  64.3764351 145.7373326  17.7590757  64.7313739 145.9644799  18.6185223
  65.0236482 146.0691703  17.1368013  58.2704214 142.8449857  14.5437098
  58.9103594 142.7038616  13.8460062  57.4381745 142.5584371  14.1675700
  56.7457756 144.2287939  16.4908910  57.4180809 144.0205301  15.8421559
  55.9187543 144.0310025  16.0514142  62.6483328 140.8549880  18.5074571
  62.0011243 141.5539830  18.4139047  63.4184343 141.2886024  18.8750819
  66.0562126 151.1198732  21.5825124  65.9047632 150.8909284  20.6655208
  66.0466805 152.0769334  21.5956469  57.1485253 147.5030542  17.2511347
  57.0105051 146.7710781  17.8522886  58.0590177 147.4139442  16.9695535
  59.7767554 147.2150502  16.7395027  60.4867172 146.5743694  16.6981645
  59.7336862 147.4663396  17.6621207  58.4896488 144.2015719  18.5590666
  57.9533845 143.7506458  19.2112262  57.9013196 144.3361628  17.8161130
  54.2235609 143.3371727  15.6443661  54.1393798 142.7297397  14.9094070
  53.4018316 143.8280745  15.6453157  66.8378318 138.7894884  13.1593214
  65.9241398 139.0199111  13.3275421  67.2671419 138.8733328  14.0107247
  62.6572349 147.7204587  22.1459146  61.9812986 147.6198717  22.8161521
  63.4799983 147.5643801  22.6095143  56.3759625 141.3746664  16.9838646
  56.4400952 142.2361495  16.5716044  56.3126746 140.7620666  16.2511005
  55.8511898 143.4469797  20.6311681  56.4783937 143.0646874  21.2449205
  54.9939817 143.2283999  20.9967373  66.2506007 153.8532772  22.2365416
  66.7945910 154.4662730  21.7420371  65.6692851 154.4112351  22.7532429
  56.1571688 143.3302223  12.5457584  55.4358273 143.9438190  12.4065057
  56.9464943 143.8659988  12.4674230  58.9598001 140.6656649  18.8198236
  59.4832403 140.9118946  19.5824545  58.7410334 141.4976684  18.4001373
  60.1650546 141.6070344  16.5047906  59.8247367 140.8078157  16.9068586
  59.4589553 141.9072055  15.9324739  60.8167018 138.6919657  14.9575229
  61.6393087 138.2180135  14.8354120  61.0605082 139.4710140  15.4573916
  60.2001980 142.3741325  12.8148097  60.1863548 141.4782419  12.4780395
  60.9174408 142.3811989  13.4486383  62.0528110 142.8078666  14.8601225
  61.7945888 143.7295736  14.8585555  61.5213151 142.4109100  15.5501689
  52.8151259 147.9244122  15.7054869  52.2704727 148.7003930  15.8375143
  53.6930609 148.2714926  15.5473990  53.6017281 147.0514018  18.5985026
  52.8599017 147.1996653  19.1849656  53.2810025 147.3122284  17.7351775
  59.0879955 142.7687703  22.2925600  59.1368111 143.6449826  21.9103370
  59.6302469 142.2265096  21.7197243  66.9836438 146.1452221  20.2018773
  67.8846301 146.0058686  19.9102770  67.0584413 146.3106675  21.1416950
  61.3179244 143.5219075  19.0471959  60.4482553 143.8152641  18.7754547
  61.5538724 144.1059520  19.7679222  64.0218277 139.7398692  16.5637379
  64.5400221 140.4759719  16.2383868  63.6673410 140.0462686  17.3984138
  64.2730872 136.1598975  12.0838276  64.5532625 135.4922164  12.7098702
  65.0581479 136.3528070  11.5712940  66.1654109 141.6672192  16.0169252
  65.5704042 141.9477205  15.3215740  65.8803806 142.1566093  16.7885993
  62.3449831 150.7236528  22.4480012  63.2652841 150.9015127  22.6420058
  62.3099414 149.7792573  22.2959711  55.3411904 148.6337562  15.0902793
  55.5597914 149.5654670  15.1090827  55.7537678 148.2745537  15.8757597
  60.2139769 144.2070768  24.4805542  60.1136496 145.1565125  24.4117633
  59.9961311 143.8789007  23.6081612  60.0771039 147.6367907  23.2970603
  59.5938121 148.4368267  23.5034492  60.1631978 147.6475852  22.3438047
  56.5943759 150.0973558  17.9009835  57.4136648 150.5917636  17.9244672
  56.8680566 149.1805526  17.8727402  51.8478673 144.4311692  18.6002032
  52.4937537 143.9210646  19.0889257  51.6395824 145.1680373  19.1745457
  64.3732065 151.4992539  24.0994172  65.2423225 151.6733191  23.7380807
  63.8938817 152.3186956  23.9769902  56.1876164 141.5779309  22.6977046
  57.0507626 141.2216113  22.9080371  55.6141575 141.2393203  23.3852450
  68.7457665 154.9860025  23.6907018  68.3524610 154.4326224  24.3654662
  69.5623805 155.2970604  24.0813535  29.9659013  80.0037897   6.1232484
  29.9547654  79.6090695   5.2512988  30.1279653  79.2703969   6.7166255
  26.6866275  82.7875008   5.0711668  26.3956141  83.6920639   4.9558334
  27.3223259  82.8291536   5.7855737  31.6456160  82.4736424   2.0661462
  31.3456883  83.3761463   1.9577269  31.3007219  82.2068607   2.9182614
  29.1194169  76.4108610   7.6893796  28.3427503  76.9702530   7.6796661
  29.7584732  76.8965393   8.2108666  27.3740542  79.2194063   7.2511763
  28.1155226  79.7579107   6.9746587  26.6677527  79.8460352   7.4083315
  32.8495881  81.3623204   5.8483925  33.2579237  80.9205614   5.1038557
  32.1273143  80.7875831   6.1018118  32.3526397  73.9600179   4.8798655
  32.1087328  74.7142239   4.3432931  32.6286327  74.3385526   5.7145902
  34.3064859  80.5038791   3.5575921  34.5181755  81.1470551   2.8810302
  34.2594608  79.6701108   3.0897851  26.1101905  76.3733711   8.0527073
  25.4800566  77.0549992   8.2862470  26.0037993  76.2616793   7.1080211
  35.4210687  83.3810747   1.7298278  36.2428131  82.9790934   1.4480960
  35.4173090  83.2778981   2.6814394  29.1867291  82.9294790   3.8858989
  29.2511723  83.3915197   4.7217161  28.4778215  82.2992155   4.0141299
  43.5116680  79.7249495  -1.9216750  42.7580389  79.1556893  -2.0772746
  43.6464222  79.6912160  -0.9746116  25.3882648  70.6754477  10.4152324
  24.9949594  70.1220676  11.0899968  26.2048788  70.9865056  10.8058842
  30.5283785  85.2186464   7.8838311  30.0847639  84.4322842   7.5659216
  31.1900998  85.4065614   7.2182202  25.2870906  86.7482265   2.4098990
  25.8378331  86.6199329   1.6375984  24.4482382  87.0477154   2.0593882
  32.6265023  85.4989264   5.9119712  32.6083498  86.3198145   5.4199982
  33.5484943  85.3743339   6.1369854  29.0838077  83.0133393   6.7543221
  29.6166414  82.2521681   6.5242529  28.5552158  82.7207045   7.4967375
  31.8583089  76.7559696   4.4836064  32.2132477  76.9831169   5.3430530
  32.5055220  77.0878072   3.8613319  37.6150206  81.9454659   0.1996665
  38.0486712  81.8529948   1.0479719  38.3281786  81.9212159  -0.4383319
  31.3478100  85.5456753   1.7329765  31.4015123  86.1147689   2.5007481
  30.4792882  85.7158638   1.3683802  38.4765755  81.9878359   2.7329550
  38.6701645  82.8924170   2.9788825  38.3766373  81.5285778   3.5668135
  33.5380864  82.1385102   8.3070431  33.3866370  81.9095654   7.3900514
  33.5285543  83.0955703   8.3201776  30.3066200  79.7117015   3.2916697
  31.2358260  79.8628174   3.1185664  29.8857230  79.8001035   2.4365344
  29.1054532  83.7367679   1.0615235  28.9665618  83.3686464   1.9341173
  28.3169128  84.2515319   0.8899192  35.2473070  85.1704225   6.3846912
  35.1885617  84.4863445   5.7177495  35.6492589  85.9123215   5.9327538
  35.2490478  83.1343808   4.6160892  34.3617256  82.7969730   4.7387291
  35.8189029  82.4026840   4.8529657  28.7791631  87.7945261   1.5822135
  28.7061803  88.6000232   2.0941440  28.3369024  87.9937227   0.7570157
  31.2390315  87.6932095   3.7380294  31.9518287  88.3279560   3.6656195
  30.7480343  87.7895961   2.9220296  26.2902228  85.4426538   4.5585865
  26.9911688  86.0763021   4.7115259  25.8197343  85.7841270   3.7981504
  34.0903514  77.9971146   2.3838415  33.4374964  78.2447053   1.7290868
  34.4683894  77.1835284   2.0500892  30.1391087  78.7390957   8.8704452
  29.4631724  78.6385086   9.5406827  30.9618721  78.5830171   9.3340449
  28.8813870  90.0457884   3.1062068  29.4332178  90.2089506   3.8711153
  29.2220063  90.6362322   2.4342093  33.7324744  84.8719142   8.9610723
  34.2764648  85.4849100   8.4665677  33.1511589  85.4298720   9.4777736
  32.0182257  87.9939860   0.0925750  31.8933397  87.1929600  -0.4163304
  32.6761348  88.4886053  -0.3960280  34.0817166  85.7948880   1.7205300
  33.1347501  85.6754231   1.6483627  34.4299939  84.9071378   1.8031562
  34.6897721  86.4130155  -0.9925475  35.6144268  86.2073016  -1.1301023
  34.5213024  86.1646556  -0.0836133  29.0279681  87.6116366   5.1210723
  29.3366808  87.3665513   5.9933422  29.8255163  87.8163004   4.6329593
  26.5698693  73.7874073   9.0170907  26.6186848  74.6636195   8.6348676
  27.1121207  73.2451466   8.4442550  37.0553539  84.3315196   8.2972044
  36.2649082  84.3139335   7.7576543  36.8186893  84.8703490   9.0521080
  37.1751414  81.1807662   5.6104772  37.2249419  81.0157670   6.5520295
  37.0665337  80.3134921   5.2202653  34.4655176  77.1638590   6.9264079
  35.3665039  77.0245055   6.6348077  34.5403151  77.3293045   7.8662257
  38.6769611  83.6004604   5.8546794  38.3854419  83.9634584   6.6910255
  38.0641742  82.8871612   5.6760126  39.8765293  81.1657484  -1.6250636
  40.7112184  81.6047288  -1.4613075  40.0124422  80.6896137  -2.4442390
  36.9256799  78.7237218   4.3226852  37.4010920  78.9164865   3.5145703
  36.0022364  78.7796404   4.0770236  35.6258468  75.6002978   2.5555158
  36.5775891  75.7001076   2.5767382  35.4561918  74.8081247   3.0653242
  38.1046546  78.8209098   1.6697457  38.0722866  77.8825099   1.8557141
  38.7147169  78.8993135   0.9363282  43.9223095  79.8825105   0.8103494
  44.6526484  79.6210393   1.3711197  43.3130041  79.1453827   0.8505562
  42.0038393  78.0232968   1.4077945  41.2771556  77.8888932   0.7994437
  41.5885679  78.3309796   2.2134663  29.8268569  81.7422897   9.1725318
  30.7471578  81.9201496   9.3665365  29.7918152  80.7978943   9.0205017
  27.6958507  75.2257138  11.2050848  27.5955234  76.1751495  11.1362939
  27.4780049  74.8975377  10.3326918  27.5589777  78.6554276  10.0215910
  27.0756859  79.4554637  10.2279799  27.6450716  78.6662221   9.0683354
  24.0762496  81.1159927   4.6255141  24.8955385  81.6104006   4.6489979
  24.3499304  80.1991895   4.5972709  31.8550803  82.5178909  10.8239479
  32.7241963  82.6919561  10.4626114  31.3757554  83.3373325  10.7015208
  26.0236983  89.6376010   2.5028913  26.9264230  89.6699620   2.8195408
  25.7974353  88.7076461   2.5175248  27.7790585  88.3906996  -0.8361009
  26.8286216  88.3908858  -0.9496636  28.0823071  87.6439731  -1.3524974
  23.6694902  72.5965678   9.4222353  24.5326363  72.2402483   9.6325677
  23.0960312  72.2579573  10.1097757  43.5143279  94.2267535   0.2284754
  44.1521689  94.1074282  -0.4751906  43.3964122  95.1748378   0.2872706
  40.3232985  94.1794963   0.1646278  39.9851496  94.0636027  -0.7233187
  41.1922753  93.7786128   0.1447285  40.8052768  95.3329814   6.1232484
  40.7941409  94.9382613   5.2512988  40.9673407  94.5995887   6.7166255
  33.7284233  97.5281631  -1.0072610  34.5205524  97.1872455  -1.4226311
  33.9680883  97.6376606  -0.0870457  37.5260029  98.1166926   5.0711668
  37.2349895  99.0212557   4.9558334  38.1617013  98.1583454   5.7855737
  38.4516236  95.4943775   1.6613028  39.0479808  95.2699797   0.9469991
  38.5091207  94.7528520   2.2638475  43.0684547  91.9518988  -2.6962038
  43.8547636  91.5338412  -3.0471621  43.3323251  92.8565081  -2.5280390
  43.2394624  97.3891839  -7.9973381  42.6040457  97.4626465  -7.2852477
  42.9092031  97.9785438  -8.6754302  48.4692974  91.8894222  -1.7929060
  49.2018146  91.3193438  -1.5591230  47.7132330  91.5015822  -1.3522554
  40.0869094  94.3121463  -4.5965717  39.7227301  93.7852084  -3.8852796
  40.9436210  93.9219932  -4.7699232  45.9918395  85.6015796   2.6665549
  45.6601719  86.4711207   2.4426764  45.3964008  85.2852080   3.3459579
  42.4849914  97.8028342   2.0661462  42.1850637  98.7053380   1.9577269
  42.1400974  97.5360525   2.9182614  35.9362396  94.2542139  -1.9001834
  35.0112892  94.1218353  -1.6924142  36.1846809  95.0336358  -1.4031892
  45.8847058  90.3210882  -0.2541101  44.9763935  90.2526290  -0.5482340
  45.8334654  90.7982827   0.5740724  33.2971207  93.8975412  -1.0658045
  33.4263588  94.1509891  -0.1518633  32.6168658  94.4903120  -1.3853390
  39.9587924  91.7400527   7.6893796  39.1821258  92.2994448   7.6796661
  40.5978487  92.2257310   8.2108666  47.7508704  88.5227320   1.5236773
  47.1083085  88.8159853   0.8776567  47.2463633  88.4080241   2.3289970
  45.4048868  92.2690493  -7.7877368  46.3166724  92.5017880  -7.9629670
  44.8958515  92.8527538  -8.3502289  38.2134296  94.5485981   7.2511763
  38.9548980  95.0871025   6.9746587  37.5071282  95.1752270   7.4083315
  43.6889636  96.6915121   5.8483925  44.0972992  96.2497532   5.1038557
  42.9666897  96.1167749   6.1018118  40.0420706  91.6287728   3.2217482
  40.8881901  92.0527142   3.3652131  39.9819343  90.9721352   3.9156045
  44.0118450  97.2516312  -0.3963786  43.3827313  97.4162026  -1.0987719
  43.6244112  97.6657921   0.3747178  47.8907682  98.1870750  -3.0419423
  47.2058720  98.5669651  -3.5922389  47.9751532  98.7966076  -2.3087475
  43.1920151  89.2892096   4.8798655  42.9481083  90.0434157   4.3432931
  43.4680082  89.6677444   5.7145902  45.1458614  95.8330709   3.5575921
  45.3575509  96.4762469   2.8810302  45.0988362  94.9993025   3.0897851
  42.7484843  88.4448529   0.4612493  41.8869322  88.7429783   0.7529231
  42.7747277  88.6618928  -0.4706474  39.5646412  96.9890720  -3.1313701
  40.0284758  97.2678423  -3.9209079  39.3003210  96.0874165  -3.3140611
  36.4570493  96.5362202  -0.1933938  37.0271850  96.9649470  -0.8316454
  37.0478605  96.2544786   0.5050248  38.5015298  93.1113872  -6.3224136
  39.2039342  93.5634916  -5.8550210  38.1695927  92.4697691  -5.6944243
  36.9495660  91.7025629   8.0527073  36.3194320  92.3841910   8.2862470
  36.8431748  91.5908711   7.1080211  32.2440632  91.3697425  -1.0207003
  31.4539686  91.6254954  -1.4966892  32.7351880  92.1845763  -0.9154962
  46.2604442  98.7102664   1.7298278  47.0821886  98.3082851   1.4480960
  46.2566845  98.6070898   2.6814394  34.1955378  91.7342004  -4.0623526
  33.3986541  91.8460699  -3.5440030  33.9680970  92.0728656  -4.9282635
  40.0261045  98.2586707   3.8858989  40.0905478  98.7207115   4.7217161
  39.3171969  97.6284072   4.0141299  30.5278335  91.6227915   1.4107988
  30.7786374  92.5074925   1.6765564  31.0637884  91.4432517   0.6383080
  54.3510435  95.0541413  -1.9216750  53.5974143  94.4848811  -2.0772746
  54.4857976  95.0204077  -0.9746116  36.2276403  86.0046395  10.4152324
  35.8343348  85.4512593  11.0899968  37.0442543  86.3156973  10.8058842
  39.1444364  87.4204274   8.0072581  39.8854077  88.0211427   7.9277043
  39.3762286  86.6781912   7.4490623  34.2885702  92.6060641   6.2850811
  34.1739217  91.7045898   6.5857909  33.4330219  92.8524338   5.9335627
  41.3677539 100.5478381   7.8838311  40.9241393  99.7614760   7.5659216
  42.0294753 100.7357532   7.2182202  36.1264660 102.0774183   2.4098990
  36.6772086 101.9491246   1.6375984  35.2876136 102.3769072   2.0593882
  43.4658777 100.8281181   5.9119712  43.4477253 101.6490062   5.4199982
  44.3878697 100.7035257   6.1369854  39.9231831  98.3425311   6.7543221
  40.4560168  97.5813599   6.5242529  39.3945913  98.0498963   7.4967375
  43.0901526  83.4485377   2.2836862  42.7465796  84.3387019   2.2075973
  43.4580489  83.2587035   1.4206448  43.0551809  93.4393988  -9.2090702
  42.5398433  94.2098593  -8.9702315  42.7829118  92.7659124  -8.5857641
  40.6398920  88.2843689  -4.1505464  39.7840517  87.8950539  -4.3299825
  41.0525872  88.3635650  -5.0105678  42.1698067  85.8190032   0.2486096
  41.6662862  85.7820167  -0.5646099  42.4628674  86.7282775   0.3082752
  38.4140953  85.9028762  -0.7447723  39.2793949  85.7071570  -1.1041833
  38.4818462  85.6739114   0.1821634  48.0286083  96.1926343  -7.2737529
  47.2515526  95.8537502  -7.7182367  48.7077564  96.1978966  -7.9482564
  42.8438112  91.3121080  -7.3830921  42.5388248  91.6267229  -6.5320778
  43.7968554  91.3902500  -7.3403588  41.2884544  97.4711303  -5.7337967
  40.7605906  96.7364063  -6.0464730  40.7872047  98.2485980  -5.9797999
  46.2677390  95.6660324  -0.6170921  45.6101065  96.3559585  -0.5290792
  47.0717789  96.0556756  -0.2736935  36.0203272  88.1330970  -3.3731356
  36.5947024  87.9106151  -4.1058163  36.6074254  88.2019664  -2.6202754
  45.0782849  94.0204697  -2.5666979  45.5914731  94.6534688  -2.0645269
  45.7284073  93.4205892  -2.9323619  41.5563680  91.4954152  -0.3208639
  40.6386241  91.7169099  -0.4786951  41.9723823  91.5700463  -1.1796931
  42.3398728  92.8945568  -5.1905958  43.0870547  93.4066965  -5.4998836
  42.6090317  92.5729621  -4.3301565  45.8444645  99.0010698  -4.4387837
  45.3906972  98.1601608  -4.3822646  45.2138612  99.6372096  -4.1013056
  44.7877565  89.9302684  -3.2087169  44.0500322  89.4180070  -2.8776927
  45.0404338  89.4903066  -4.0203892  44.2877584 100.8387195  -3.5038018
  44.5800559 101.3992252  -4.2225653  44.7976205 101.1315756  -2.7484859
  44.8889192  82.7078936  -2.6145400  45.1948069  81.8476299  -2.9019485
  45.6141797  83.2996556  -2.8146406  39.1610272  93.0032729  -2.1069209
  39.2158882  92.0506566  -2.1826732  38.3501474  93.1592168  -1.6227910
  37.1002632  91.6209789  -4.3478830  36.2870497  91.9203959  -3.9413638
  37.5961626  91.2265478  -3.6304348  39.2511210 101.6167546  -2.4144565
  39.2087388 101.8428392  -3.3436033  40.1673909 101.3830920  -2.2658764
  42.6976843  92.0851613   4.4836064  43.0526231  92.3123086   5.3430530
  43.3448975  92.4169990   3.8613319  48.4274580  95.2070049  -4.8114607
  48.2892479  95.3971645  -5.7393418  48.0710799  95.9689432  -4.3546556
  36.5916707  89.1928144   1.2682405  37.2316086  89.0516903   0.5705368
  35.7594237  88.9062658   0.8921007  48.4543960  97.2746576   0.1996665
  48.8880467  97.1821865   1.0479719  49.1675541  97.2504077  -0.4383319
  37.3677010  98.4930575  -2.6182602  38.1617609  97.9980895  -2.8200028
  36.6568703  97.9648438  -2.9814897  42.1871855 100.8748670   1.7329765
  42.2408877 101.4439607   2.5007481  41.3186636 101.0450555   1.3683802
  33.5945323  89.1628469  -3.9544608  33.8552140  90.0773803  -4.0635448
  34.4162495  88.6952912  -3.8047995  35.0670248  90.5766227   3.2154216
  35.7393302  90.3683589   2.5666865  34.2400035  90.3788313   2.7759449
  49.3159510  97.3170277   2.7329550  49.5095400  98.2216087   2.9788825
  49.2160128  96.8577696   3.5668135  40.9695820  87.2028167   5.2319877
  40.3223735  87.9018117   5.1384354  41.7396836  87.6364311   5.5996125
  44.3774618  97.4677020   8.3070431  44.2260125  97.2387571   7.3900514
  44.3679298  98.4247621   8.3201776  41.1459955  95.0408932   3.2916697
  42.0752015  95.1920092   3.1185664  40.7250985  95.1292953   2.4365344
  39.9448286  99.0659597   1.0615235  39.8059372  98.6978381   1.9341173
  39.1562883  99.5807236   0.8899192  41.4953502  98.4441199  -1.5495928
  41.1603334  98.4041969  -0.6538278  40.9957447  97.7785915  -2.0225517
  35.4697746  93.8508830   3.9756654  35.3317543  93.1189068   4.5768193
  36.3802669  93.7617730   3.6940841  38.0980046  93.5628789   3.4640333
  38.8079665  92.9221981   3.4226952  38.0549354  93.8141684   4.3866514
  46.0866825 100.4996142   6.3846912  46.0279371  99.8155362   5.7177495
  46.4886343 101.2415132   5.9327538  36.8108980  90.5494007   5.2835973
  36.2746337  90.0984745   5.9357569  36.2225689  90.6839916   4.5406437
  46.0884232  98.4635726   4.6160892  45.2011011  98.1261648   4.7387291
  46.6582783  97.7318757   4.8529657  32.5448101  89.6850014   2.3688967
  32.4606290  89.0775684   1.6339377  31.7230808  90.1759033   2.3698464
  39.6185386 103.1237178   1.5822135  39.5455557 103.9292150   2.0941440
  39.1762779 103.3229144   0.7570157  42.7171815  88.1703578  -2.2640838
  43.2140515  87.4173540  -2.5839768  41.9458797  88.2067895  -2.8297628
  50.5701573  93.8743943  -0.6222546  50.5591449  94.7568659  -0.9928613
  49.7018952  93.5215494  -0.8168009  42.0784069 103.0224012   3.7380294
  42.7912041 103.6571477   3.6656195  41.5874098 103.1187878   2.9220296
  43.8001596  96.9275265  -4.6902414  42.8657875  97.0476728  -4.8597710
  43.9778264  96.0247732  -4.9542405  39.3006784  90.3120961  -2.5369153
  38.9304572  89.7592001  -1.8488248  39.7965876  89.7079094  -3.0894153
  47.1874147  92.7692584  -4.1552380  47.6534600  93.6020576  -4.2292078
  47.6381648  92.3037566  -3.4507122  37.1295983 100.7718456   4.5585865
  37.8305442 101.4054939   4.7115259  36.6591098 101.1133188   3.7981504
  45.2550378  99.1136406  -7.1566228  45.5310222  98.9993000  -6.2472354
  44.3854877  98.7153891  -7.1954055  45.1590810  85.1373171  -0.1161479
  44.2453890  85.3677398   0.0520728  45.5883912  85.2211616   0.7352553
  44.9297269  93.3263063   2.3838415  44.2768719  93.5738971   1.7290868
  45.3077648  92.5127202   2.0500892  41.8904442 103.3622757  -3.5133415
  42.0726837 102.5444413  -3.0505662  42.7137428 103.5790449  -3.9508525
  40.9784842  94.0682874   8.8704452  40.3025479  93.9677004   9.5406827
  41.8012475  93.9122088   9.3340449  32.7263701 100.3054811   1.4916967
  33.3117137  99.5598499   1.6244872  32.5288539 100.6158768   2.3753631
  39.7207624 105.3749802   3.1062068  40.2725932 105.5381423   3.8711153
  40.0613818 105.9654240   2.4342093  34.6972118  87.7224952   3.7083953
  34.7613444  88.5839783   3.2961351  34.6339238  87.1098953   2.9756311
  34.1724390  89.7948084   7.3556987  34.7996429  89.4125162   7.9694511
  33.3152309  89.5762286   7.7212680  44.5718499 100.2011059   8.9610723
  45.1158403 100.8141018   8.4665677  43.9905344 100.7590638   9.4777736
  42.8576012 103.3231777   0.0925750  42.7327151 102.5221517  -0.4163304
  43.5155103 103.8177971  -0.3960280  34.4784180  89.6780510  -0.7297109
  33.7570766  90.2916478  -0.8689636  35.2677436  90.2138275  -0.8080463
  44.9210920 101.1240798   1.7205300  43.9741256 101.0046149   1.6483627
  45.2693693 100.2363296   1.8031562  37.2810493  87.0134936   5.5443542
  37.8044895  87.2597233   6.3069852  37.0622827  87.8454971   5.1246680
  41.9257353 100.9193514  -2.0790347  41.7782316  99.9910221  -1.8982777
  42.7510847 100.9413604  -2.5633272  45.5291475 101.7422072  -0.9925475
  46.4538023 101.5364934  -1.1301023  45.3606779 101.4938474  -0.0836133
  38.4863039  87.9548632   3.2293213  38.1459859  87.1556445   3.6313893
  37.7802045  88.2550342   2.6570046  39.1379510  85.0397944   1.6820536
  39.9605580  84.5658422   1.5599426  39.3817574  85.8188428   2.1819222
  36.6618089  91.7317065  -0.5087485  36.5162670  92.0457368   0.3836796
  36.1843293  92.3501965  -1.0616587  38.5214472  88.7219613  -0.4606596
  38.5076041  87.8260706  -0.7974298  39.2386900  88.7290276   0.1731690
  40.3740603  89.1556953   1.5846531  40.1158381  90.0774023   1.5830862
  39.8425643  88.7587387   2.2746996  45.3186791 102.2607740  -5.6363383
  45.4923669 101.6954162  -6.3889531  45.8115683 103.0608635  -5.8183893
  31.1363751  94.2722409   2.4300176  30.5917219  95.0482217   2.5620450
  32.0143101  94.6193213   2.2719297  40.7942558  85.2888903  -2.0552306
  40.8164255  85.3528236  -3.0100326  41.2110617  84.4493412  -1.8611800
  51.1726183  95.0244163  -4.0173083  51.6157329  94.2751488  -4.4153960
  50.2952693  95.0154299  -4.3999351  46.3061964 101.5774504  -8.5366485
  47.0012869 102.1981197  -8.3179170  46.6485114 100.7269856  -8.2614107
  31.9229773  93.3992305   5.3230333  31.1811509  93.5474941   5.9094963
  31.6022517  93.6600571   4.4597082  48.2053387  99.0274210  -7.0079154
  48.7304711  99.3661483  -7.7329834  48.1175740  98.0921225  -7.1916019
  39.8673436 102.9408284   5.1210723  40.1760562 102.6957430   5.9933422
  40.6648918 103.1454922   4.6329593  37.3367920 100.6384202  -0.5761599
  36.7147929  99.9754907  -0.8759371  38.0072787 100.6645334  -1.2587951
  37.4092447  89.1165990   9.0170907  37.4580603  89.9928113   8.6348676
  37.9514962  88.5743383   8.4442550  47.8947293  99.6607114   8.2972044
  47.1042837  99.6431252   7.7576543  47.6580648 100.1995407   9.0521080
  48.0145168  96.5099580   5.6104772  48.0643173  96.3449587   6.5520295
  47.9059092  95.6426839   5.2202653  45.3048931  92.4930508   6.9264079
  46.2058793  92.3536973   6.6348077  45.3796905  92.6584963   7.8662257
  39.6391736  89.8697363   5.7717265  38.7695045  90.1630929   5.4999854
  39.8751216  90.4537808   6.4924529  49.5163365  98.9296521   5.8546794
  49.2248173  99.2926502   6.6910255  48.9035496  98.2163530   5.6760126
  50.7159047  96.4949401  -1.6250636  51.5505939  96.9339205  -1.4613075
  50.8518176  96.0188054  -2.4442390  47.7650553  94.0529136   4.3226852
  48.2404675  94.2456782   3.5145703  46.8416119  94.1088322   4.0770236
  42.3430770  86.0876980   3.2882686  42.8612714  86.8238007   2.9629174
  41.9885903  86.3940973   4.1229445  42.5943364  82.5077262  -1.1916418
  42.8745118  81.8400451  -0.5655991  43.3793971  82.7006358  -1.7041754
  46.4652222  90.9294896   2.5555158  47.4169645  91.0292994   2.5767382
  46.2955673  90.1373165   3.0653242  44.4866602  88.0150479   2.7414558
  43.8916534  88.2955492   2.0461047  44.2016298  88.5044380   3.5131300
  48.9440300  94.1501016   1.6697457  48.9116620  93.2117017   1.8557141
  49.5540924  94.2285053   0.9363282  49.0934789  90.9412059   1.7155740
  48.5773837  90.1570516   1.5285669  49.9774737  90.6130776   1.8802260
  46.7545515  84.6853075  -2.3248447  46.5570337  84.3768163  -1.4405115
  47.3645221  85.4114714  -2.1950517  54.7616850  95.2117023   0.8103494
  55.4920238  94.9502311   1.3711197  54.1523795  94.4745745   0.8505562
  52.8432147  93.3524885   1.4077945  52.1165311  93.2180850   0.7994437
  52.4279434  93.6601714   2.2134663  40.6662323  97.0714815   9.1725318
  41.5865333  97.2493414   9.3665365  40.6311906  96.1270860   9.0205017
  33.6624396  94.9815850   1.8148099  33.8810406  95.9132957   1.8336133
  34.0750170  94.6223824   2.6002903  42.5119162  84.5661982  -4.5751916
  43.0650201  84.9857435  -3.9161892  42.7489248  83.6397730  -4.5328960
  38.5352261  90.5549055  11.2050848  38.4348988  91.5043412  11.1362939
  38.3173803  90.2267294  10.3326918  45.8897969  86.6762507  -5.0673251
  45.3096638  87.3347311  -5.4495199  45.6233902  85.8539851  -5.4785834
  44.3401536  86.0767565  -2.8651931  44.8401314  86.1884099  -3.6737612
  44.9837143  85.7728617  -2.2251123  38.3983531  93.9846194  10.0215910
  37.9150613  94.7846554  10.2279799  38.4844470  93.9954139   9.0683354
  34.3256869  97.8750729   2.0584344  35.2800122  97.8434671   1.9914275
  34.1269392  97.4141353   2.8734570  34.9156251  96.4451845   4.6255141
  35.7349140  96.9395924   4.6489979  35.1893059  95.5283813   4.5972709
  44.6722847  88.8362597  -6.0116903  43.7848702  89.1212248  -6.2296708
  45.0876836  88.6756361  -6.8589626  48.0237383  88.8609118  -2.2962564
  48.7997773  89.3505571  -2.0237947  47.2985517  89.2867172  -1.8390694
  50.4609942  89.5736737  -1.2388623  51.0554433  89.3332473  -1.9495315
  50.5336526  88.8543868  -0.6115087  44.6463871  94.3517133  -5.7966613
  44.5899072  94.8085685  -6.6358981  45.1992213  93.5907818  -5.9743770
  48.4568677  90.1406865  -4.9716493  48.2005611  89.7403501  -4.1408286
  47.8321545  90.8550659  -5.0966354  52.7681015  92.8802938  -2.4645202
  52.2080573  92.9496128  -1.6913640  52.1624518  92.7043923  -3.1845706
  45.7252758  99.0389801  -9.8670423  46.5598362  98.6071000 -10.0492948
  45.5637101  98.8671815  -8.9393529  45.3798650  95.5421914  -8.5014084
  45.3247454  95.3766186  -9.4425640  44.7544706  96.2497947  -8.3451894
  30.1691165  90.7789979   5.3247338  30.8150029  90.2688933   5.8134564
  29.9608316  91.5158660   5.8990764  42.6944557  97.8470826  10.8239479
  43.5635717  98.0211479  10.4626114  42.2151309  98.6665243  10.7015208
  36.8630738 104.9667927   2.5028913  37.7657984 104.9991538   2.8195408
  36.6368108 104.0368378   2.5175248  38.6184340 103.7198914  -0.8361009
  37.6679971 103.7200775  -0.9496636  38.9216826 102.9731648  -1.3524974
  34.5088656  87.9257596   9.4222353  35.3720118  87.5694401   9.6325677
  33.9354067  87.5871491  10.1097757  54.3537033 109.5559452   0.2284754
  54.9915443 109.4366200  -0.4751906  54.2357876 110.5040296   0.2872706
  51.1626739 109.5086880   0.1646278  50.8245251 109.3927945  -0.7233187
  52.0316508 109.1078045   0.1447285  51.6446522 110.6621732   6.1232484
  51.6335163 110.2674530   5.2512988  51.8067162 109.9287805   6.7166255
  44.5677987 112.8573548  -1.0072610  45.3599279 112.5164373  -1.4226311
  44.8074637 112.9668523  -0.0870457  48.3653784 113.4458844   5.0711668
  48.0743650 114.3504475   4.9558334  49.0010768 113.4875371   5.7855737
  49.2909990 110.8235692   1.6613028  49.8873563 110.5991715   0.9469991
  49.3484962 110.0820438   2.2638475  53.9078302 107.2810906  -2.6962038
  54.6941391 106.8630329  -3.0471621  54.1717006 108.1856998  -2.5280390
  59.3086729 107.2186139  -1.7929060  60.0411901 106.6485356  -1.5591230
  58.5526084 106.8307740  -1.3522554  50.9262848 109.6413381  -4.5965717
  50.5621056 109.1144002  -3.8852796  51.7829964 109.2511850  -4.7699232
  56.8312149 100.9307713   2.6665549  56.4995474 101.8003124   2.4426764
  56.2357763 100.6143997   3.3459579  50.5668335 104.6703280  -9.6004369
  50.7342738 105.5383517  -9.2333898  50.3765505 104.8330562 -10.5243080
  53.3243669 113.1320259   2.0661462  53.0244392 114.0345298   1.9577269
  52.9794728 112.8652443   2.9182614  46.7756150 109.5834056  -1.9001834
  45.8506647 109.4510270  -1.6924142  47.0240563 110.3628275  -1.4031892
  56.7240812 105.6502800  -0.2541101  55.8157690 105.5818208  -0.5482340
  56.6728408 106.1274744   0.5740724  50.5457556 107.1260938  -8.6157702
  50.4257182 107.5717989  -7.7772222  49.8510145 107.4746256  -9.1744164
  44.1364961 109.2267330  -1.0658045  44.2657342 109.4801809  -0.1518633
  43.4562412 109.8195038  -1.3853390  50.7981678 107.0692445   7.6893796
  50.0215012 107.6286365   7.6796661  51.4372241 107.5549228   8.2108666
  58.5902459 103.8519238   1.5236773  57.9476839 104.1451771   0.8776567
  58.0857387 103.7372158   2.3289970  56.2442623 107.5982411  -7.7877368
  57.1560479 107.8309798  -7.9629670  55.7352270 108.1819455  -8.3502289
  49.0528051 109.8777898   7.2511763  49.7942735 110.4162942   6.9746587
  48.3465036 110.5044187   7.4083315  54.5283390 112.0207039   5.8483925
  54.9366746 111.5789449   5.1038557  53.8060652 111.4459666   6.1018118
  50.8814460 106.9579646   3.2217482  51.7275655 107.3819059   3.3652131
  50.8213098 106.3013270   3.9156045  54.8512205 112.5808230  -0.3963786
  54.2221067 112.7453944  -1.0987719  54.4637867 112.9949839   0.3747178
  58.7301437 113.5162667  -3.0419423  58.0452475 113.8961569  -3.5922389
  58.8145286 114.1257994  -2.3087475  54.0313906 104.6184014   4.8798655
  53.7874837 105.3726075   4.3432931  54.3073836 104.9969362   5.7145902
  55.9852368 111.1622626   3.5575921  56.1969264 111.8054386   2.8810302
  55.9382117 110.3284943   3.0897851  53.5878597 103.7740447   0.4612493
  52.7263076 104.0721701   0.7529231  53.6141032 103.9910846  -0.4706474
  50.4040167 112.3182638  -3.1313701  50.8678512 112.5970341  -3.9209079
  50.1396965 111.4166082  -3.3140611  47.2964248 111.8654119  -0.1933938
  47.8665605 112.2941388  -0.8316454  47.8872360 111.5836704   0.5050248
  49.3409053 108.4405790  -6.3224136  50.0433096 108.8926834  -5.8550210
  49.0089681 107.7989609  -5.6944243  47.7889414 107.0317547   8.0527073
  47.1588075 107.7133828   8.2862470  47.6825502 106.9200628   7.1080211
  43.0834387 106.6989343  -1.0207003  42.2933441 106.9546871  -1.4966892
  43.5745634 107.5137681  -0.9154962  57.0998196 114.0394582   1.7298278
  57.9215640 113.6374769   1.4480960  57.0960599 113.9362816   2.6814394
  45.0349132 107.0633922  -4.0623526  44.2380295 107.1752616  -3.5440030
  44.8074724 107.4020574  -4.9282635  50.8654800 113.5878625   3.8858989
  50.9299232 114.0499032   4.7217161  50.1565724 112.9575990   4.0141299
  41.3672090 106.9519833   1.4107988  41.6180128 107.8366843   1.6765564
  41.9031638 106.7724435   0.6383080  65.1904189 110.3833330  -1.9216750
  64.4367898 109.8140728  -2.0772746  65.3251731 110.3495995  -0.9746116
  47.0670157 101.3338313  10.4152324  46.6737103 100.7804511  11.0899968
  47.8836297 101.6448891  10.8058842  49.9838118 102.7496192   8.0072581
  50.7247831 103.3503345   7.9277043  50.2156041 102.0073829   7.4490623
  45.1279456 107.9352559   6.2850811  45.0132971 107.0337816   6.5857909
  44.2723974 108.1816256   5.9335627  52.2071294 115.8770299   7.8838311
  51.7635148 115.0906678   7.5659216  52.8688507 116.0649450   7.2182202
  46.9658415 117.4066101   2.4098990  47.5165840 117.2783164   1.6375984
  46.1269891 117.7060990   2.0593882  54.3052532 116.1573099   5.9119712
  54.2871007 116.9781980   5.4199982  55.2272452 116.0327174   6.1369854
  50.7625586 113.6717229   6.7543221  51.2953923 112.9105517   6.5242529
  50.2339667 113.3790880   7.4967375  53.9295281  98.7777295   2.2836862
  53.5859550  99.6678936   2.2075973  54.2974244  98.5878952   1.4206448
  53.8945564 108.7685906  -9.2090702  53.3792187 109.5390510  -8.9702315
  53.6222872 108.0951042  -8.5857641  51.4792675 103.6135606  -4.1505464
  50.6234271 103.2242457  -4.3299825  51.8919626 103.6927567  -5.0105678
  53.0091821 101.1481950   0.2486096  52.5056617 101.1112085  -0.5646099
  53.3022428 102.0574692   0.3082752  49.2534707 101.2320679  -0.7447723
  50.1187704 101.0363488  -1.1041833  49.3212216 101.0031031   0.1821634
  53.6831867 106.6412998  -7.3830921  53.3782002 106.9559147  -6.5320778
  54.6362309 106.7194418  -7.3403588  52.1278299 112.8003221  -5.7337967
  51.5999660 112.0655981  -6.0464730  51.6265801 113.5777897  -5.9797999
  57.1071145 110.9952242  -0.6170921  56.4494819 111.6851503  -0.5290792
  57.9111544 111.3848673  -0.2736935  46.8597026 103.4622887  -3.3731356
  47.4340778 103.2398069  -4.1058163  47.4468009 103.5311582  -2.6202754
  55.9176603 109.3496614  -2.5666979  56.4308485 109.9826606  -2.0645269
  56.5677827 108.7497810  -2.9323619  49.1619694 100.3364136  -4.6456286
  48.5084106 100.0213153  -5.2699672  49.1200168  99.7139877  -3.9196463
  52.3957434 106.8246070  -0.3208639  51.4779996 107.0461017  -0.4786951
  52.8117578 106.8992380  -1.1796931  53.1792482 108.2237485  -5.1905958
  53.9264301 108.7358883  -5.4998836  53.4484072 107.9021538  -4.3301565
  56.6838400 114.3302616  -4.4387837  56.2300727 113.4893526  -4.3822646
  56.0532366 114.9664014  -4.1013056  55.6271319 105.2594602  -3.2087169
  54.8894076 104.7471988  -2.8776927  55.8798093 104.8194983  -4.0203892
  55.1271339 116.1679112  -3.5038018  55.4194313 116.7284169  -4.2225653
  55.6369960 116.4607673  -2.7484859  55.7282947  98.0370854  -2.6145400
  56.0341823  97.1768217  -2.9019485  56.4535551  98.6288474  -2.8146406
  50.0004026 108.3324647  -2.1069209  50.0552636 107.3798483  -2.1826732
  49.1895228 108.4884086  -1.6227910  47.9396386 106.9501707  -4.3478830
  47.1264252 107.2495877  -3.9413638  48.4355380 106.5557395  -3.6304348
  50.0904964 116.9459463  -2.4144565  50.0481143 117.1720310  -3.3436033
  51.0067663 116.7122838  -2.2658764  53.5370598 107.4143531   4.4836064
  53.8919986 107.6415004   5.3430530  54.1842729 107.7461908   3.8613319
  59.2668335 110.5361967  -4.8114607  59.1286233 110.7263563  -5.7393418
  58.9104554 111.2981350  -4.3546556  47.4310461 104.5220062   1.2682405
  48.0709840 104.3808821   0.5705368  46.5987992 104.2354575   0.8921007
  59.2937714 112.6038494   0.1996665  59.7274221 112.5113783   1.0479719
  60.0069295 112.5795994  -0.4383319  48.2070765 113.8222492  -2.6182602
  49.0011363 113.3272813  -2.8200028  47.4962457 113.2940356  -2.9814897
  53.0265609 116.2040588   1.7329765  53.0802632 116.7731524   2.5007481
  52.1580391 116.3742473   1.3683802  44.4339077 104.4920387  -3.9544608
  44.6945895 105.4065720  -4.0635448  45.2556250 104.0244830  -3.8047995
  45.9064003 105.9058144   3.2154216  46.5787056 105.6975506   2.5666865
  45.0793789 105.7080230   2.7759449  60.1553264 112.6462195   2.7329550
  60.3489154 113.5508005   2.9788825  60.0553882 112.1869614   3.5668135
  51.8089575 102.5320085   5.2319877  51.1617490 103.2310035   5.1384354
  52.5790590 102.9656229   5.5996125  55.2168373 112.7968937   8.3070431
  55.0653879 112.5679489   7.3900514  55.2073052 113.7539539   8.3201776
  51.9853709 110.3700850   3.2916697  52.9145769 110.5212010   3.1185664
  51.5644739 110.4584871   2.4365344  50.7842041 114.3951514   1.0615235
  50.6453127 114.0270299   1.9341173  49.9956637 114.9099154   0.8899192
  52.3347256 113.7733117  -1.5495928  51.9997089 113.7333887  -0.6538278
  51.8351202 113.1077833  -2.0225517  46.3091500 109.1800747   3.9756654
  46.1711298 108.4480986   4.5768193  47.2196423 109.0909647   3.6940841
  48.9373801 108.8920707   3.4640333  49.6473419 108.2513899   3.4226952
  48.8943109 109.1433601   4.3866514  56.9260579 115.8288060   6.3846912
  56.8673126 115.1447280   5.7177495  57.3280098 116.5707050   5.9327538
  47.6502735 105.8785924   5.2835973  47.1140092 105.4276663   5.9357569
  47.0619443 106.0131833   4.5406437  56.9277987 113.7927644   4.6160892
  56.0404765 113.4553566   4.7387291  57.4976538 113.0610675   4.8529657
  43.3841856 105.0141932   2.3688967  43.3000045 104.4067602   1.6339377
  42.5624562 105.5050950   2.3698464  50.4579140 118.4529096   1.5822135
  50.3849312 119.2584068   2.0941440  50.0156533 118.6521062   0.7570157
  53.5565570 103.4995496  -2.2640838  54.0534269 102.7465458  -2.5839768
  52.7852551 103.5359812  -2.8297628  61.4095327 109.2035861  -0.6222546
  61.3985203 110.0860577  -0.9928613  60.5412707 108.8507412  -0.8168009
  52.9177824 118.3515930   3.7380294  53.6305796 118.9863395   3.6656195
  52.4267852 118.4479796   2.9220296  54.6395350 112.2567183  -4.6902414
  53.7051629 112.3768645  -4.8597710  54.8172019 111.3539650  -4.9542405
  50.1400539 105.6412879  -2.5369153  49.7698326 105.0883919  -1.8488248
  50.6359631 105.0371012  -3.0894153  58.0267902 108.0984502  -4.1552380
  58.4928354 108.9312494  -4.2292078  58.4775402 107.6329484  -3.4507122
  47.9689737 116.1010374   4.5585865  48.6699197 116.7346857   4.7115259
  47.4984852 116.4425105   3.7981504  55.9984565 100.4665089  -0.1161479
  55.0847644 100.6969316   0.0520728  56.4277666 100.5503533   0.7352553
  55.7691023 108.6554981   2.3838415  55.1162473 108.9030889   1.7290868
  56.1471403 107.8419119   2.0500892  52.7298197 118.6914674  -3.5133415
  52.9120591 117.8736330  -3.0505662  53.5531183 118.9082367  -3.9508525
  51.8178596 109.3974792   8.8704452  51.1419233 109.2968921   9.5406827
  52.6406230 109.2414006   9.3340449  43.5657455 115.6346729   1.4916967
  44.1510892 114.8890417   1.6244872  43.3682294 115.9450685   2.3753631
  50.5601379 120.7041720   3.1062068  51.1119687 120.8673341   3.8711153
  50.9007572 121.2946157   2.4342093  45.5365872 103.0516869   3.7083953
  45.6007199 103.9131700   3.2961351  45.4732992 102.4390871   2.9756311
  45.0118145 105.1240002   7.3556987  45.6390184 104.7417079   7.9694511
  44.1546064 104.9054204   7.7212680  55.4112253 115.5302977   8.9610723
  55.9552157 116.1432935   8.4665677  54.8299098 116.0882556   9.4777736
  53.6969766 118.6523695   0.0925750  53.5720906 117.8513435  -0.4163304
  54.3548857 119.1469888  -0.3960280  45.3177934 105.0072428  -0.7297109
  44.5964520 105.6208395  -0.8689636  46.1071190 105.5430192  -0.8080463
  55.7604675 116.4532715   1.7205300  54.8135010 116.3338066   1.6483627
  56.1087448 115.5655213   1.8031562  48.1204248 102.3426854   5.5443542
  48.6438650 102.5889151   6.3069852  47.9016581 103.1746889   5.1246680
  52.7651108 116.2485431  -2.0790347  52.6176070 115.3202139  -1.8982777
  53.5904601 116.2705522  -2.5633272  46.6313352 104.9003499  -6.2209855
  46.9709425 105.4289420  -6.9431247  47.0785473 105.2383905  -5.4451289
  56.3685230 117.0713990  -0.9925475  57.2931777 116.8656851  -1.1301023
  56.2000533 116.8230391  -0.0836133  49.3256793 103.2840549   3.2293213
  48.9853613 102.4848362   3.6313893  48.6195799 103.5842260   2.6570046
  49.9773265 100.3689862   1.6820536  50.7999334  99.8950340   1.5599426
  50.2211328 101.1480345   2.1819222  48.6181499 103.3978120  -8.0216562
  49.3389862 103.7759373  -8.5252846  47.9946803 104.1166997  -7.9181584
  52.7612622 104.1023269  -7.0858230  52.9776237 104.9847907  -7.3869402
  52.2806689 103.7109482  -7.8152588  47.5011844 107.0608982  -0.5087485
  47.3556424 107.3749285   0.3836796  47.0237047 107.6793883  -1.0616587
  49.3608226 104.0511530  -0.4606596  49.3469795 103.1552624  -0.7974298
  50.0780655 104.0582194   0.1731690  51.2134357 104.4848870   1.5846531
  50.9552135 105.4065941   1.5830862  50.6819398 104.0879305   2.2746996
  41.9757506 109.6014327   2.4300176  41.4310974 110.3774135   2.5620450
  42.8536856 109.9485131   2.2719297  48.7645122 102.9325911  -5.1919026
  48.8861034 102.0042557  -4.9928138  48.4747165 102.9464597  -6.1040710
  51.6336313 100.6180821  -2.0552306  51.6558010 100.6820154  -3.0100326
  52.0504372  99.7785330  -1.8611800  62.0119937 110.3536081  -4.0173083
  62.4551083 109.6043406  -4.4153960  61.1346447 110.3446217  -4.3999351
  42.7623528 108.7284223   5.3230333  42.0205264 108.8766858   5.9094963
  42.4416272 108.9892489   4.4597082  50.7067190 118.2700201   5.1210723
  51.0154317 118.0249348   5.9933422  51.5042672 118.4746840   4.6329593
  48.1761674 115.9676120  -0.5761599  47.5541684 115.3046825  -0.8759371
  48.8466541 115.9937252  -1.2587951  48.2486202 104.4457908   9.0170907
  48.2974357 105.3220031   8.6348676  48.7908716 103.9035301   8.4442550
  58.7341048 114.9899031   8.2972044  57.9436591 114.9723170   7.7576543
  58.4974402 115.5287325   9.0521080  58.8538923 111.8391498   5.6104772
  58.9036928 111.6741505   6.5520295  58.7452846 110.9718757   5.2202653
  56.1442685 107.8222426   6.9264079  57.0452548 107.6828890   6.6348077
  56.2190660 107.9876880   7.8662257  50.4785490 105.1989280   5.7717265
  49.6088800 105.4922846   5.4999854  50.7144971 105.7829725   6.4924529
  60.3557120 114.2588439   5.8546794  60.0641928 114.6218420   6.6910255
  59.7429251 113.5455447   5.6760126  61.5552802 111.8241319  -1.6250636
  62.3899693 112.2631123  -1.4613075  61.6911931 111.3479972  -2.4442390
  58.6044308 109.3821054   4.3226852  59.0798429 109.5748700   3.5145703
  57.6809873 109.4380240   4.0770236  53.1824524 101.4168897   3.2882686
  53.7006468 102.1529924   2.9629174  52.8279657 101.7232891   4.1229445
  53.4337118  97.8369180  -1.1916418  53.7138872  97.1692369  -0.5655991
  54.2187725  98.0298275  -1.7041754  57.3045977 106.2586814   2.5555158
  58.2563400 106.3584911   2.5767382  57.1349427 105.4665082   3.0653242
  55.3260356 103.3442397   2.7414558  54.7310288 103.6247410   2.0461047
  55.0410053 103.8336298   3.5131300  59.7834055 109.4792933   1.6697457
  59.7510375 108.5408934   1.8557141  60.3934678 109.5576970   0.9363282
  59.9328543 106.2703977   1.7155740  59.4167592 105.4862434   1.5285669
  60.8168492 105.9422694   1.8802260  57.5939270 100.0144992  -2.3248447
  57.3964091  99.7060081  -1.4405115  58.2038976 100.7406631  -2.1950517
  65.6010604 110.5408940   0.8103494  66.3313993 110.2794228   1.3711197
  64.9917550 109.8037662   0.8505562  63.6825902 108.6816803   1.4077945
  62.9559065 108.5472768   0.7994437  63.2673188 108.9893632   2.2134663
  51.5056078 112.4006733   9.1725318  52.4259087 112.5785332   9.3665365
  51.4705661 111.4562778   9.0205017  44.5018150 110.3107767   1.8148099
  44.7204160 111.2424875   1.8336133  44.9143924 109.9515742   2.6002903
  51.4222368 100.8175853  -6.1976212  50.6123097 100.4722938  -5.8220966
  52.1106785 100.5083396  -5.6088601  53.3512917  99.8953899  -4.5751916
  53.9043955 100.3149353  -3.9161892  53.5883003  98.9689647  -4.5328960
  49.3746016 105.8840973  11.2050848  49.2742743 106.8335330  11.1362939
  49.1567558 105.5559212  10.3326918  56.7291724 102.0054425  -5.0673251
  56.1490393 102.6639229  -5.4495199  56.4627656 101.1831769  -5.4785834
  55.1795290 101.4059482  -2.8651931  55.6795068 101.5176017  -3.6737612
  55.8230898 101.1020535  -2.2251123  49.2377286 109.3138112  10.0215910
  48.7544368 110.1138472  10.2279799  49.3238225 109.3246057   9.0683354
  45.1650623 113.2042647   2.0584344  46.1193877 113.1726589   1.9914275
  44.9663147 112.7433270   2.8734570  45.7550005 111.7743763   4.6255141
  46.5742894 112.2687841   4.6489979  46.0286813 110.8575731   4.5972709
  55.5116602 104.1654515  -6.0116903  54.6242457 104.4504166  -6.2296708
  55.9270591 104.0048278  -6.8589626  58.8631138 104.1901036  -2.2962564
  59.6391528 104.6797488  -2.0237947  58.1379272 104.6159090  -1.8390694
  61.3003696 104.9028655  -1.2388623  61.8948187 104.6624391  -1.9495315
  61.3730280 104.1835786  -0.6115087  55.4857625 109.6809051  -5.7966613
  55.4292827 110.1377602  -6.6358981  56.0385968 108.9199735  -5.9743770
  59.2962431 105.4698783  -4.9716493  59.0399366 105.0695418  -4.1408286
  58.6715299 106.1842577  -5.0966354  63.6074769 108.2094856  -2.4645202
  63.0474327 108.2788045  -1.6913640  63.0018273 108.0335841  -3.1845706
  41.0084920 106.1081896   5.3247338  41.6543783 105.5980850   5.8134564
  40.8002071 106.8450578   5.8990764  53.5338312 113.1762744  10.8239479
  54.4029472 113.3503396  10.4626114  53.0545063 113.9957161  10.7015208
  49.5288530 100.3721941  -8.9228765  49.5167200 101.3163781  -8.7660494
  50.4211952 100.1892086  -9.2169304  47.7024492 120.2959845   2.5028913
  48.6051739 120.3283455   2.8195408  47.4761862 119.3660296   2.5175248
  49.4578094 119.0490831  -0.8361009  48.5073725 119.0492693  -0.9496636
  49.7610580 118.3023566  -1.3524974  53.3440650  96.9664718  -4.6682829
  52.5773045  96.4123204  -4.5226146  53.7551355  97.0386586  -3.8068677
  45.3482411 103.2549514   9.4222353  46.2113872 102.8986318   9.6325677
  44.7747821 102.9163408  10.1097757  62.4840277 125.9913650   6.1232484
  62.4728918 125.5966448   5.2512988  62.6460916 125.2579722   6.7166255
  59.2047538 128.7750762   5.0711668  58.9137404 129.6796392   4.9558334
  59.8404522 128.8167289   5.7855737  67.6705904 116.2599631   2.6665549
  67.3389228 117.1295042   2.4426764  67.0751517 115.9435915   3.3459579
  61.6375433 122.3984363   7.6893796  60.8608767 122.9578283   7.6796661
  62.2765996 122.8841146   8.2108666  59.8921805 125.2069816   7.2511763
  60.6336489 125.7454860   6.9746587  59.1858790 125.8336105   7.4083315
  61.7208215 122.2871563   3.2217482  62.5669410 122.7110977   3.3652131
  61.6606852 121.6305188   3.9156045  64.8707660 119.9475932   4.8798655
  64.6268592 120.7017992   4.3432931  65.1467591 120.3261279   5.7145902
  58.6283169 122.3609464   8.0527073  57.9981829 123.0425745   8.2862470
  58.5219257 122.2492546   7.1080211  53.9228141 122.0281260  -1.0207003
  53.1327195 122.2838789  -1.4966892  54.4139389 122.8429598  -0.9154962
  52.2065844 122.2811751   1.4107988  52.4573883 123.1658761   1.6765564
  52.7425393 122.1016352   0.6383080  57.9063911 116.6630230  10.4152324
  57.5130857 116.1096429  11.0899968  58.7230052 116.9740809  10.8058842
  60.8231872 118.0788109   8.0072581  61.5641586 118.6795262   7.9277043
  61.0549795 117.3365747   7.4490623  55.9673210 123.2644477   6.2850811
  55.8526726 122.3629734   6.5857909  55.1117728 123.5108173   5.9335627
  63.0465048 131.2062217   7.8838311  62.6028902 130.4198595   7.5659216
  63.7082262 131.3941367   7.2182202  61.6019340 129.0009146   6.7543221
  62.1347677 128.2397434   6.5242529  61.0733422 128.7082798   7.4967375
  64.7689035 114.1069212   2.2836862  64.4253305 114.9970854   2.2075973
  65.1367998 113.9170870   1.4206448  63.8485576 116.4773867   0.2486096
  63.3450371 116.4404003  -0.5646099  64.1416183 117.3866610   0.3082752
  60.0928462 116.5612597  -0.7447723  60.9581458 116.3655406  -1.1041833
  60.1605971 116.3322949   0.1821634  64.3764352 122.7435449   4.4836064
  64.7313740 122.9706922   5.3430530  65.0236484 123.0753825   3.8613319
  58.2704216 119.8511980   1.2682405  58.9103595 119.7100739   0.5705368
  57.4381746 119.5646493   0.8921007  56.7457757 121.2350062   3.2154216
  57.4180811 121.0267424   2.5666865  55.9187544 121.0372148   2.7759449
  62.6483329 117.8612003   5.2319877  62.0011244 118.5601952   5.1384354
  63.4184345 118.2948147   5.5996125  66.0562127 128.1260855   8.3070431
  65.9047634 127.8971407   7.3900514  66.0466807 129.0831456   8.3201776
  57.1485255 124.5092665   3.9756654  57.0105052 123.7772904   4.5768193
  58.0590178 124.4201565   3.6940841  59.7767555 124.2212624   3.4640333
  60.4867174 123.5805816   3.4226952  59.7336863 124.4725519   4.3866514
  58.4896489 121.2077842   5.2835973  57.9533846 120.7568581   5.9357569
  57.9013198 121.3423751   4.5406437  54.2235610 120.3433850   2.3688967
  54.1393799 119.7359519   1.6339377  53.4018317 120.8342868   2.3698464
  66.8378319 115.7957007  -0.1161479  65.9241399 116.0261234   0.0520728
  67.2671421 115.8795451   0.7352553  62.6572351 124.7266710   8.8704452
  61.9812988 124.6260839   9.5406827  63.4799984 124.5705924   9.3340449
  56.3759627 118.3808787   3.7083953  56.4400953 119.2423618   3.2961351
  56.3126747 117.7682789   2.9756311  55.8511899 120.4531920   7.3556987
  56.4783938 120.0708997   7.9694511  54.9939818 120.2346122   7.7212680
  66.2506008 130.8594895   8.9610723  66.7945912 131.4724853   8.4665677
  65.6692853 131.4174473   9.4777736  56.1571689 120.3364345  -0.7297109
  55.4358275 120.9500313  -0.8689636  56.9464945 120.8722110  -0.8080463
  58.9598002 117.6718772   5.5443542  59.4832404 117.9181068   6.3069852
  58.7410336 118.5038807   5.1246680  60.1650548 118.6132467   3.2293213
  59.8247368 117.8140280   3.6313893  59.4589554 118.9134178   2.6570046
  60.8167019 115.6981779   1.6820536  61.6393089 115.2242258   1.5599426
  61.0605083 116.4772263   2.1819222  60.2001981 119.3803448  -0.4606596
  60.1863550 118.4844541  -0.7974298  60.9174409 119.3874112   0.1731690
  62.0528112 119.8140788   1.5846531  61.7945890 120.7357859   1.5830862
  61.5213152 119.4171223   2.2746996  52.8151260 124.9306244   2.4300176
  52.2704728 125.7066052   2.5620450  53.6930610 125.2777049   2.2719297
  53.6017282 124.0576141   5.3230333  52.8599018 124.2058776   5.9094963
  53.2810026 124.3184406   4.4597082  59.0879956 119.7749826   9.0170907
  59.1368112 120.6511948   8.6348676  59.6302471 119.2327219   8.4442550
  66.9836440 123.1514343   6.9264079  67.8846302 123.0120808   6.6348077
  67.0584414 123.3168798   7.8662257  61.3179245 120.5281198   5.7717265
  60.4482554 120.8214764   5.4999854  61.5538725 121.1121643   6.4924529
  64.0218279 116.7460815   3.2882686  64.5400223 117.4821842   2.9629174
  63.6673412 117.0524808   4.1229445  64.2730873 113.1661097  -1.1916418
  64.5532627 112.4984287  -0.5655991  65.0581480 113.3590193  -1.7041754
  66.1654111 118.6734315   2.7414558  65.5704043 118.9539327   2.0461047
  65.8803807 119.1628216   3.5131300  62.3449832 127.7298650   9.1725318
  63.2652842 127.9077249   9.3665365  62.3099415 126.7854696   9.0205017
  55.3411905 125.6399685   1.8148099  55.5597915 126.5716793   1.8336133
  55.7537679 125.2807659   2.6002903  60.2139770 121.2132891  11.2050848
  60.1136497 122.1627248  11.1362939  59.9961312 120.8851130  10.3326918
  60.0771040 124.6430030  10.0215910  59.5938122 125.4430390  10.2279799
  60.1631979 124.6537974   9.0683354  56.5943760 127.1035680   4.6255141
  57.4136649 127.5979759   4.6489979  56.8680568 126.1867648   4.5972709
  51.8478674 121.4373814   5.3247338  52.4937538 120.9272768   5.8134564
  51.6395825 122.1742496   5.8990764  64.3732066 128.5054662  10.8239479
  65.2423226 128.6795314  10.4626114  63.8938818 129.3249078  10.7015208
  56.1876165 118.5841431   9.4222353  57.0507627 118.2278236   9.6325677
  55.6141576 118.2455326  10.1097757  68.7457666 131.9922148  10.4152324
  68.3524612 131.4388346  11.0899968  69.5623806 132.3032726  10.8058842
  51.6446524  87.6683855  -7.1522209  51.6335164  87.2736653  -8.0241706
  51.8067163  86.9349927  -6.5588438  48.3653785  90.4520966  -8.2043025
  48.0743651  91.3566597  -8.3196359  49.0010769  90.4937494  -7.4898956
  53.3243670  90.1382382 -11.2093232  53.0244393  91.0407421 -11.3177425
  52.9794729  89.8714565 -10.3572079  50.7981679  84.0754568  -5.5860897
  50.0215014  84.6348488  -5.5958033  51.4372243  84.5611351  -5.0646027
  49.0528052  86.8840021  -6.0242930  49.7942736  87.4225065  -6.3008107
  48.3465037  87.5106310  -5.8671378  54.5283391  89.0269162  -7.4270769
  54.9366747  88.5851572  -8.1716136  53.8060653  88.4521789  -7.1736576
  54.0313907  81.6246137  -8.3956038  53.7874839  82.3788197  -8.9321762
  54.3073837  82.0031484  -7.5608791  55.9852370  88.1684749  -9.7178773
  56.1969265  88.8116509 -10.3944391  55.9382118  87.3347066 -10.1856842
  47.7889416  84.0379669  -5.2227620  47.1588076  84.7195950  -4.9892223
  47.6825503  83.9262751  -6.1674482  57.0998198  91.0456704 -11.5456415
  57.9215641  90.6436892 -11.8273734  57.0960600  90.9424939 -10.5940299
  50.8654801  90.5940748  -9.3895705  50.9299233  91.0561155  -8.5537533
  50.1565725  89.9638113  -9.2613395  65.1904191  87.3895453 -15.1971444
  64.4367899  86.8202851 -15.3527439  65.3251732  87.3558117 -14.2500809
  47.0670158  78.3400435  -2.8602369  46.6737104  77.7866634  -2.1854725
  47.8836299  78.6511014  -2.4695852  52.2071295  92.8832422  -5.3916382
  51.7635149  92.0968800  -5.7095478  52.8688509  93.0711572  -6.0572491
  46.9658416  94.4128223 -10.8655704  47.5165841  94.2845287 -11.6378710
  46.1269892  94.7123112 -11.2160811  54.3052533  93.1635222  -7.3634981
  54.2871008  93.9844103  -7.8554712  55.2272453  93.0389297  -7.1384840
  50.7625587  90.6779351  -6.5211473  51.2953924  89.9167639  -6.7512165
  50.2339668  90.3853003  -5.7787318  53.5370599  84.4205654  -8.7918629
  53.8919987  84.6477127  -7.9324164  54.1842730  84.7524030  -9.4141374
  59.2937716  89.6100616 -13.0758029  59.7274222  89.5175906 -12.2274975
  60.0069296  89.5858117 -13.7138013  53.0265611  93.2102711 -11.5424928
  53.0802633  93.7793647 -10.7747212  52.1580392  93.3804596 -11.9070891
  60.1553265  89.6524317 -10.5425143  60.3489155  90.5570128 -10.2965869
  60.0553883  89.1931736  -9.7086558  55.2168374  89.8031060  -4.9684263
  55.0653880  89.5741612  -5.8854179  55.2073053  90.7601661  -4.9552918
  51.9853710  87.3762973  -9.9837996  52.9145770  87.5274132 -10.1569029
  51.5644740  87.4646993 -10.8389350  50.7842042  91.4013637 -12.2139459
  50.6453128  91.0332421 -11.3413521  49.9956638  91.9161276 -12.3855501
  56.9260581  92.8350182  -6.8907781  56.8673127  92.1509403  -7.5577198
  57.3280099  93.5769172  -7.3427155  56.9277988  90.7989766  -8.6593801
  56.0404767  90.4615688  -8.5367402  57.4976539  90.0672798  -8.4225036
  50.4579141  95.4591219 -11.6932558  50.3849313  96.2646190 -11.1813254
  50.0156534  95.6583185 -12.5184537  52.9177825  95.3578053  -9.5374399
  53.6305797  95.9925518  -9.6098498  52.4267853  95.4541919 -10.3534398
  47.9689738  93.1072496  -8.7168829  48.6699198  93.7408979  -8.5639434
  47.4984853  93.4487228  -9.4773189  55.7691024  85.6617104 -10.8916278
  55.1162475  85.9093011 -11.5463825  56.1471404  84.8481242 -11.2253801
  51.8178597  86.4036915  -4.4050241  51.1419234  86.3031044  -3.7347866
  52.6406231  86.2476128  -3.9414244  50.5601380  97.7103842 -10.1692625
  51.1119688  97.8735464  -9.4043540  50.9007574  98.3008280 -10.8412600
  55.4112255  92.5365100  -4.3143971  55.9552159  93.1495058  -4.8089016
  54.8299099  93.0944678  -3.7976958  53.6969767  95.6585818 -13.1828943
  53.5720907  94.8575558 -13.6917998  54.3548859  96.1532011 -13.6714973
  55.7604676  93.4594838 -11.5549393  54.8135011  93.3400189 -11.6271066
  56.1087449  92.5717336 -11.4723131  56.3685231  94.0776113 -14.2680168
  57.2931778  93.8718974 -14.4055717  56.2000534  93.8292514 -13.3590826
  50.7067192  95.2762324  -8.1543971  51.0154318  95.0311471  -7.2821271
  51.5042674  95.4808962  -8.6425101  48.2486203  81.4520031  -4.2583787
  48.2974359  82.3282153  -4.6406017  48.7908717  80.9097424  -4.8312143
  58.7341049  91.9961154  -4.9782649  57.9436593  91.9785293  -5.5178150
  58.4974403  92.5349447  -4.2233613  58.8538924  88.8453620  -7.6649921
  58.9036929  88.6803628  -6.7234398  58.7452847  87.9780879  -8.0552040
  56.1442686  84.8284548  -6.3490614  57.0452549  84.6891013  -6.6406616
  56.2190661  84.9939003  -5.4092437  60.3557121  91.2650562  -7.4207899
  60.0641929  91.6280542  -6.5844438  59.7429252  90.5517570  -7.5994567
  61.5552803  88.8303441 -14.9005329  62.3899694  89.2693246 -14.7367769
  61.6911932  88.3542095 -15.7197083  58.6044309  86.3883176  -8.9527841
  59.0798431  86.5810823  -9.7608990  57.6809874  86.4442362  -9.1984458
  57.3045978  83.2648936 -10.7199536  58.2563401  83.3647034 -10.6987312
  57.1349428  82.4727205 -10.2101451  59.7834056  86.4855056 -11.6057236
  59.7510376  85.5471057 -11.4197552  60.3934679  86.5639093 -12.3391411
  65.6010606  87.5471063 -12.4651199  66.3313994  87.2856351 -11.9043496
  64.9917551  86.8099785 -12.4249131  63.6825903  85.6878925 -11.8676748
  62.9559066  85.5534890 -12.4760257  63.2673190  85.9955754 -11.0620030
  51.5056079  89.4068855  -4.1029375  52.4259089  89.5847454  -3.9089329
  51.4705662  88.4624901  -4.2549676  49.3746017  82.8903096  -2.0703845
  49.2742744  83.8397453  -2.1391754  49.1567559  82.5621334  -2.9427775
  49.2377287  86.3200234  -3.2538783  48.7544369  87.1200595  -3.0474894
  49.3238226  86.3308179  -4.2071339  45.7550007  88.7805885  -8.6499552
  46.5742896  89.2749964  -8.6264715  46.0286814  87.8637853  -8.6781984
  53.5338313  90.1824867  -2.4515214  54.4029473  90.3565519  -2.8128579
  53.0545065  91.0019283  -2.5739485  47.7024493  97.3021968 -10.7725781
  48.6051740  97.3345578 -10.4559286  47.4761863  96.3722418 -10.7579445
  49.4578095  96.0552954 -14.1115702  48.5073726  96.0554816 -14.2251330
  49.7610582  95.3085689 -14.6279667  45.3482412  80.2611636  -3.8532341
  46.2113874  79.9048441  -3.6429016  44.7747823  79.9225531  -3.1656936
  62.4840278 102.9975772  -7.1522209  62.4728919 102.6028571  -8.0241706
  62.6460918 102.2641845  -6.5588438  59.2047539 105.7812884  -8.2043025
  58.9137405 106.6858515  -8.3196359  59.8404524 105.8229412  -7.4898956
  67.6705905  93.2661754 -10.6089144  67.3389230  94.1357165 -10.8327930
  67.0751518  92.9498038  -9.9295114  61.6375434  99.4046485  -5.5860897
  60.8608768  99.9640406  -5.5958033  62.2765997  99.8903268  -5.0646027
  59.8921806 102.2131939  -6.0242930  60.6336491 102.7516983  -6.3008107
  59.1858792 102.8398228  -5.8671378  61.7208216  99.2933686 -10.0537212
  62.5669411  99.7173100  -9.9102563  61.6606854  98.6367310  -9.3598649
  64.8707661  96.9538054  -8.3956038  64.6268593  97.7080115  -8.9321762
  65.1467592  97.3323402  -7.5608791  58.6283170  99.3671587  -5.2227620
  57.9981831 100.0487868  -4.9892223  58.5219258  99.2554669  -6.1674482
  53.9228142  99.0343383 -14.2961696  53.1327196  99.2900912 -14.7721585
  54.4139390  99.8491721 -14.1909655  52.2065845  99.2873873 -11.8646705
  52.4573884 100.1720883 -11.5989129  52.7425394  99.1078475 -12.6371613
  57.9063913  93.6692353  -2.8602369  57.5130858  93.1158551  -2.1854725
  58.7230053  93.9802931  -2.4695852  60.8231874  95.0850232  -5.2682113
  61.5641587  95.6857385  -5.3477650  61.0549797  94.3427870  -5.8264070
  55.9673212 100.2706599  -6.9903883  55.8526727  99.3691856  -6.6896784
  55.1117729 100.5170296  -7.3419066  63.0465049 108.2124339  -5.3916382
  62.6028904 107.4260718  -5.7095478  63.7082263 108.4003490  -6.0572491
  61.6019342 106.0071269  -6.5211473  62.1347679 105.2459557  -6.7512165
  61.0733423 105.7144921  -5.7787318  64.7689037  91.1131335 -10.9917831
  64.4253306  92.0032976 -11.0678720  65.1367999  90.9232992 -11.8548246
  63.8485577  93.4835990 -13.0268598  63.3450373  93.4466125 -13.8400792
  64.1416184  94.3928733 -12.9671941  60.0928463  93.5674720 -14.0202416
  60.9581460  93.3717528 -14.3796526  60.1605972  93.3385071 -13.0933059
  64.3764354  99.7497571  -8.7918629  64.7313741  99.9769044  -7.9324164
  65.0236485 100.0815948  -9.4141374  58.2704217  96.8574102 -12.0072288
  58.9103596  96.7162861 -12.7049325  57.4381747  96.5708616 -12.3833686
  56.7457759  98.2412184 -10.0600477  57.4180812  98.0329547 -10.7087828
  55.9187545  98.0434270 -10.4995245  62.6483331  94.8674125  -8.0434816
  62.0011246  95.5664075  -8.1370340  63.4184346  95.3010269  -7.6758568
  66.0562128 105.1322978  -4.9684263  65.9047635 104.9033529  -5.8854179
  66.0466808 106.0893579  -4.9552918  57.1485256 101.5154787  -9.2998040
  57.0105054 100.7835026  -8.6986501  58.0590179 101.4263688  -9.5813852
  59.7767556 101.2274747  -9.8114360  60.4867175 100.5867939  -9.8527742
  59.7336865 101.4787642  -8.8888179  58.4896490  98.2139965  -7.9918721
  57.9533847  97.7630703  -7.3397124  57.9013199  98.3485874  -8.7348256
  54.2235612  97.3495972 -10.9065726  54.1393800  96.7421642 -11.6415316
  53.4018318  97.8404991 -10.9056230  66.8378320  92.8019129 -13.3916172
  65.9241400  93.0323356 -13.2233965  67.2671422  92.8857573 -12.5402140
  62.6572352 101.7328832  -4.4050241  61.9812989 101.6322962  -3.7347866
  63.4799986 101.5768046  -3.9414244  56.3759628  95.3870910  -9.5670740
  56.4400954  96.2485741  -9.9793343  56.3126748  94.7744911 -10.2998382
  55.8511900  97.4594042  -5.9197706  56.4783939  97.0771120  -5.3060182
  54.9939819  97.2408244  -5.5542014  66.2506009 107.8657017  -4.3143971
  66.7945913 108.4786976  -4.8089016  65.6692854 108.4236596  -3.7976958
  56.1571690  97.3426468 -14.0051803  55.4358276  97.9562436 -14.1444329
  56.9464946  97.8784233 -14.0835157  58.9598004  94.6780894  -7.7311151
  59.4832406  94.9243191  -6.9684842  58.7410337  95.5100929  -8.1508014
  60.1650549  95.6194590 -10.0461480  59.8247369  94.8202403  -9.6440801
  59.4589555  95.9196300 -10.6184647  60.8167021  92.7043902 -11.5934157
  61.6393090  92.2304380 -11.7155267  61.0605084  93.4834386 -11.0935471
  60.2001982  96.3865571 -13.7361289  60.1863551  95.4906664 -14.0728991
  60.9174410  96.3936234 -13.1023003  62.0528113  96.8202911 -11.6908162
  61.7945891  97.7419981 -11.6923831  61.5213153  96.4233345 -11.0007698
  52.8151262 101.9368367 -10.8454518  52.2704730 102.7128175 -10.7134243
  53.6930611 102.2839171 -11.0035396  53.6017283 101.0638263  -7.9524361
  52.8599019 101.2120899  -7.3659730  53.2810028 101.3246529  -8.8157611
  59.0879958  96.7811948  -4.2583787  59.1368113  97.6574071  -4.6406017
  59.6302472  96.2389341  -4.8312143  66.9836441 100.1576466  -6.3490614
  67.8846304 100.0182931  -6.6406616  67.0584415 100.3230921  -5.4092437
  61.3179246  97.5343321  -7.5037428  60.4482556  97.8276887  -7.7754839
  61.5538727  98.1183766  -6.7830164  64.0218280  93.7522938  -9.9872007
  64.5400224  94.4883964 -10.3125519  63.6673413  94.0586931  -9.1525248
  64.2730874  90.1723220 -14.4671111  64.5532628  89.5046409 -13.8410684
  65.0581481  90.3652316 -14.9796447  66.1654112  95.6796437 -10.5340135
  65.5704044  95.9601450 -11.2293646  65.8803809  96.1690338  -9.7623394
  62.3449834 104.7360773  -4.1029375  63.2652843 104.9139372  -3.9089329
  62.3099417 103.7916818  -4.2549676  55.3411906 102.6461808 -11.4606594
  55.5597916 103.5778915 -11.4418560  55.7537680 102.2869782 -10.6751790
  60.2139772  98.2195013  -2.0703845  60.1136498  99.1689370  -2.1391754
  59.9961314  97.8913252  -2.9427775  60.0771042 101.6492152  -3.2538783
  59.5938123 102.4492512  -3.0474894  60.1631981 101.6600097  -4.2071339
  56.5943761 104.1097803  -8.6499552  57.4136650 104.6041882  -8.6264715
  56.8680569 103.1929771  -8.6781984  51.8478675  98.4435937  -7.9507355
  52.4937539  97.9334891  -7.4620130  51.6395827  99.1804618  -7.3763930
  64.3732068 105.5116784  -2.4515214  65.2423227 105.6857437  -2.8128579
  63.8938819 106.3311201  -2.5739485  56.1876166  95.5903554  -3.8532341
  57.0507628  95.2340359  -3.6429016  55.6141577  95.2517449  -3.1656936
  68.7457667 108.9984270  -2.8602369  68.3524613 108.4450469  -2.1854725
  69.5623808 109.3094849  -2.4695852  68.7457668  86.0046393 -16.1357062
  68.3524614  85.4512592 -15.4609418  69.5623809  86.3156972 -15.7450545
 157.2678138 157.2678138 157.2678138 109.4712190 109.4712190 109.4712190
